<?xml version="1.0"?>
<VTKFile type="UnstructuredGrid"  version="0.1"  >
<UnstructuredGrid>
<Piece  NumberOfPoints="808" NumberOfCells="2741">
<Points>
<DataArray  type="Float64"  NumberOfComponents="3"  format="ascii">6.042869 15.602733 8.488417  6.868001526110733 14.80300069729249 10.2948421709327  5.696989 14.035275 8.999413000000001  7.914386996147353 14.73161335713953 8.600378306605915  1.581301 20.257883 9.745307  2.410212 18.94964 11.166793  3.297106 20.140476 9.822196999999999  1.778169124609136 21.06102915602328 11.1783700543164  0.02680700000000003 15.13814 19.980547  0.694232 14.071859 19.307213  0.02680700000000003 15.162457 18.655331  1.632046912466678 14.91536293985825 19.27355965439559  16.349951 15.995463 3.816863  16.274353 17.181999 2.954506  15.296883 18.576059 4.314936  16.8473221344966 18.24756723237253 5.233881052424299  7.731139271748193 15.37261636647075 12.28524753197804  5.632441056138799 15.02865203157927 12.07046961428611  6.322333743279195 16.45138937450873 13.67758764260342  5.869731370736135 17.40975346857281 11.91703072306095  9.446431 11.897923 12.22177  10.732734 12.828452 12.486292  9.557038 13.092218 12.045273  9.222442888934532 12.6856621973251 13.2555484921753  6.390335373835473 14.47273484023742 14.67479206197473  8.577643471841389 14.78685184313636 14.54440214858186  4.038899895822237 18.99462615165189 11.81873264996385  3.345284627883075 20.48072871061609 12.43341079131708  2.789471072989422 19.1446459184935 12.69165069178368  3.34878 25.157225 19.379133  4.377492 25.042206 18.826677  3.231803386576169 23.12792299824329 19.20803203258031  3.179247923952101 24.19689325945012 17.58004827539107  1.596517 23.627493 20.192249  1.310247 22.341372 20.428564  0.697731 23.09848 19.3281  16.28438035586666 16.99504756230326 18.52014104585934  17.88185771163799 17.65929454632714 17.28781645341589  15.97591134748782 18.40077231120316 17.36290676869957  17.25094825698273 18.19880591881165 18.56777877942103  8.777300287017422 12.97111320031194 19.2544453347335  10.78389105407233 13.04045461671801 17.23826246875363  9.661895556268984 11.13035759682561 18.38950683874881  8.853156195584134 13.48970248203965 17.59792807719317  0.794529 21.657116 19.355013  14.219347 18.573311 16.207661  15.1453235837181 17.51050715164101 15.79036627811332  14.520689 17.572872 17.005796  14.847478 7.372294 18.44067  15.47636193894769 7.708245275590659 17.17910925728127  16.90517269962391 8.408571693471245 18.13961886630183  16.20942426121992 7.082583949564549 18.52735266628873  10.722383 14.720904 7.44913  9.871409999999999 14.015862 8.404391  11.45241726180387 14.94160101575495 9.155917222143952  9.667733573851796 15.45136470347931 8.193027552532628  11.646386 14.998699 16.394629  10.97296606068113 13.99555830465579 15.08983287718016  10.519145 15.804045 15.53073  12.14034158159661 14.95738201163948 14.99632966937557  20.080233 15.073701 16.690472  19.521885 13.552641 16.868778  19.20088 14.567559 17.600945  18.71644331764685 15.13440831804488 15.7568882136259  13.53021 13.21745 14.446364  14.824998 13.11365 15.09656  14.713464 14.433931 14.689641  13.4826209136952 13.04051838793592 15.75657414423645  7.244629436753757 11.98083833586169 12.82874594864811  6.630629 11.72057 14.977788  7.929617063225881 12.34893789008783 14.83789634598838  7.500604140215239 13.34146186024982 13.00668355509349  16.652908 13.358996 19.823364  17.225254 12.000365 19.210814  16.583199 11.867745 19.98723  15.09980095963042 12.96888763013052 18.52606681931459  16.105457 18.867413 11.154497  14.17622773577413 19.37730990124699 12.30818897321017  14.87197850468182 17.57896950409602 10.99675351193071  15.02572704078022 18.5036836127989 13.24078431340267  4.503622 23.491222 16.966305  3.567463 23.868361 16.120028  4.227173 22.553837 15.922651  3.487630687683333 22.72564153029639 17.11357992157844  8.660228999999999 15.136793 17.8834  9.406176 14.369905 19.003651  7.265566755317891 14.44906947804619 18.31039190986613  15.798279 13.759947 15.012297  16.168419 12.222995 15.08985  17.19885331674856 13.76596862237055 16.92018665317569  15.04904976526448 12.45132702025914 16.32921664879906  1.648366 19.04339 20.539394  1.000154 20.191893 19.340883  1.496617 20.885506 20.487038  3.065201720776472 20.09385159783359 19.33908780187606  13.145973 15.534109 5.3367  12.971159 16.177999 3.654343  14.083088 17.203718 4.730648  14.17945202872547 15.29653169669239 4.639605373115613  16.15244133113693 10.29357145675559 18.93801194957523  17.42505279838686 10.06565205527527 18.06552194730873  16.66201173389594 9.021746550067176 19.59976688216187  2.780961 15.232459 10.640915  3.367644 13.856372 10.576126  3.476057494508983 15.19323286745584 12.3022677205413  1.917975921332274 14.04793155220025 12.31404088534421  11.512068 18.045288 13.196737  12.806531 18.67585 14.292344  12.3957 17.493725 14.641362  13.55326117355362 17.34906534283093 12.58340997715986  0.661976 17.918301 18.586088  0.02680700000000003 17.215652 17.366135  1.249680971297046 18.93085495693263 17.55381596231609  1.440010306581762 16.62475412733215 18.46081309121604  15.971336 20.324263 12.15306  16.09071 21.69425 13.117797  14.35868902760499 21.27862923705066 12.43353365619502  15.05715554978317 20.64336328049349 14.28297851929843  16.06476984495309 15.25790680777626 16.04385786041587  14.019863 16.061783 17.02792  15.75472570496258 16.73105377065922 16.8259283068968  14.76901776938578 15.86788546987682 15.43225510388761  0.02680700000000003 22.2782 18.01985  1.992375524066167 21.25824006240157 17.81948571790149  1.541753923455519 23.45591922953062 17.9963552122374  4.216159626067883 18.24074211119196 14.84119874838804  3.701231839397729 19.23112074106864 17.03166311855471  3.684527678085654 19.8593051580202 14.40323362611896  1.821473272392426 18.83727722177242 14.94538579674027  5.771876239642673 19.68292274412986 11.38608644585325  4.791118055580794 21.55543496097842 12.4827632392042  4.867027276005956 19.6807364395193 13.00973171834966  6.414342 21.19602 12.665215  15.274495 17.599232 1.175785  15.837943 16.810564 0.839825  15.914552 17.494843 1.804734  15.962794 16.332752 1.691876  0.02680700000000003 17.860554 14.511072  0.02680700000000003 17.215513 15.931623  0.02680700000000003 16.26515 14.22728  1.504349491200622 16.60281764364348 14.4676462278143  13.80547407522503 17.87203495989265 8.549305266770768  14.79010863169519 16.54955183936665 6.964099577830858  15.52546184583886 18.44457932406441 7.847331770173143  14.42511009875657 16.30167129597288 8.543792482568195  5.081267 17.634922 10.255843  5.887248 17.095032 9.298994  7.164268901840414 18.46880819187986 10.47682978344408  7.099431934618845 16.31724153985933 10.24700561467892  13.73129 15.325843 20.655113  13.105128 13.80507 21.100334  13.267593 14.37054 19.806492  14.74296701129281 13.96162180148304 19.95911381953646  9.610194999999999 22.073956 9.340966999999999  8.086048 21.627581 9.851072  8.484731 22.848028 8.571249999999999  8.543283009977213 20.19814294294807 8.97221364911789  14.554969 12.02354 14.966272  13.683329 11.450211 14.27912  13.85373721601193 10.64051811644249 15.78653904481132  16.147835 15.021767 20.405619  16.079393 16.446018 20.956593  16.690769 15.957524 20.067486  15.59382210827106 16.72807034248187 20.05662248387549  10.387176 13.903832 9.604082  11.074031 13.454584 8.49095  15.65325 14.72815 9.507731  16.37077 15.741863 10.285303  16.44543789521931 16.09626381532255 8.567567926494752  15.52088868090581 16.91668294183751 9.760976791705012  13.093555 15.10396 6.910181  12.624555 14.432756 7.414083  12.310028 14.467275 6.398103  13.33758161767874 13.91515669513533 6.450115388972546  14.772 14.633008 2.658885  14.79626059280449 16.49458249740045 3.219549731593325  7.506260917864576 20.77216038486835 7.179727785499439  7.254611 22.328156 8.834453999999999  6.53350422168531 20.25089387712844 9.094182605244921  15.47388871207802 11.57011941705786 19.624350752228  8.209872000000001 20.025883 11.058664  10.834328 11.797055 21.071053  9.312849511021575 11.24920392111374 20.31790942102134  11.165156 12.294924 19.283581  10.911865 11.019082 19.819248  13.160093 12.618887 6.980088  11.590873 14.109264 7.428438  12.633974 12.440075 8.021637999999999  12.290915 13.417821 13.105373  11.511347 13.796697 12.016177  10.04997419069706 14.08072481455365 13.10571870417868  9.520828 18.28372 5.041839  7.186680863038651 19.58752019595937 4.676330926467408  7.267973433141719 17.74932537232515 5.444967673941309  8.01388680099303 18.57377635079566 6.973637199101519  15.507218 21.736431 11.853848  13.8737160586418 21.49575123560352 10.19378137082638  14.07501300079548 22.63570049203415 11.56953851272415  15.349721 18.011196 2.636307  16.798275 18.402906 3.594578  2.059968 24.323631 15.598954  1.953043492197793 22.74495871132916 16.24888982869769  11.848425 15.496243 2.316316  12.880376 16.59985 2.104038  13.91877539254364 15.41119597349295 1.697738609886998  15.429216 5.817717 16.599817  16.74374 6.085281 16.064266  16.38220622620806 6.606722808626918 15.62918267350079  16.71723603885349 7.047793173555547 16.83017540461764  9.732885626140263 16.33376037228627 12.86609769886472  8.646396408149835 14.39490994053315 11.21262746023694  12.321905 12.954788 8.949868  13.221342 20.33518 14.324739  16.533295 15.016106 14.375482  18.357506 13.925456 14.521206  18.21343 15.279364 14.101329  14.570989 8.997101000000001 18.284904  14.980907 8.614595 19.45199  15.746221 13.872526 5.641934  15.050721 13.244127 7.803361  14.418613 13.142757 6.495033  16.497137 13.159082 7.021877  10.96182795634217 12.35248595882315 14.22508810626493  13.352476 11.491784 18.744219  12.725714 12.987208 18.530943  13.42865874310216 13.22066523403736 17.4167297065501  5.736187 18.213041 9.059168  2.908775 25.273973 16.469236  1.492455 25.506792 16.074106  1.772013349011424 25.251978920767 17.67715583065335  11.617581 12.257811 8.016080000000001  2.981276632508539 16.68805597480505 16.7061324552185  3.277214433827494 16.68231105869488 14.12783814468566  4.64145
[...]
<PointData  Scalars="p"> 
<DataArray  type="Float64"  Name="p"  format="ascii">9.0215394493679444e+00  9.0318088921808464e+00  9.0427280125749316e+00  9.0101766067443929e+00  9.1408602167337261e+00  9.1335273941650001e+00  9.1111122235194486e+00  9.1480675945089196e+00  9.1900835911065251e+00  9.1879607018666860e+00  9.1955271572242534e+00  9.1814979343384717e+00  8.8121029657509311e+00  8.8267410893352327e+00  8.8028010143991988e+00  8.7703876854675666e+00  9.0238852867722095e+00  9.0621326043829313e+00  9.0637251582919287e+00  9.0635001733378537e+00  9.0122408073454690e+00  8.9781679761468798e+00  8.9986549644649347e+00  9.0049582985697665e+00  9.0564879832813130e+00  9.0124933270782517e+00  9.1074324996696223e+00  9.1356517301305953e+00  9.1408694328976630e+00  9.2268665100152631e+00  9.2108424062465790e+00  9.1959279704444974e+00  9.2373926576506182e+00  9.2120612812690279e+00  9.1905810453639418e+00  9.2290551016128610e+00  8.8079976918878469e+00  8.7944714284825061e+00  8.7974410378473937e+00  8.7871070537378699e+00  9.0320041291427184e+00  8.9733576787989531e+00  9.0047237030478122e+00  9.0201507547286788e+00  9.2074388687661486e+00  8.8171774118710822e+00  8.8262217204820672e+00  8.8204473164978037e+00  8.8108731437098164e+00  8.8226086964175288e+00  8.7766938104551961e+00  8.7793700931340091e+00  8.9607922532505864e+00  8.9781473306585760e+00  8.9344129486282728e+00  8.9759710284652581e+00  8.9416835878998686e+00  8.9614251442319706e+00  8.9673645077552084e+00  8.9261412206566515e+00  8.7920467249620717e+00  8.7973520275747568e+00  8.8029878748690571e+00  8.7958886190062273e+00  8.9117266943849476e+00  8.8685613842861937e+00  8.8673469215416691e+00  8.9002829320201915e+00  9.0406697316522742e+00  9.0370069420739672e+00  9.0231375304242629e+00  9.0326281501896730e+00  8.8321684986644691e+00  8.8181221921773716e+00  8.8269842617504377e+00  8.8455349421876583e+00  8.8388461924847093e+00  8.8435402638483609e+00  8.8522656814471166e+00  8.8371901992641746e+00  9.2091461987336967e+00  9.2241931497127574e+00  9.1931541744405934e+00  9.2059506198845948e+00  9.0407611381630968e+00  9.0319577300386342e+00  9.0651861003481269e+00  8.8410790801410730e+00  8.8315038916415602e+00  8.8179165324302851e+00  8.8574140318251136e+00  9.1618077556721964e+00  9.1924023217638933e+00  9.1719036475597928e+00  9.1678394808774879e+00  8.8817952846888275e+00  8.8909758989462162e+00  8.8385504317089492e+00  8.8682700480615910e+00  8.8113086839986074e+00  8.7842812858117938e+00  8.7857194919408474e+00  9.1002245938328326e+00  9.0871981236978137e+00  9.1006501386782563e+00  9.1170821336716497e+00  8.9112768747176521e+00  8.8560267385898630e+00  8.8870540503142106e+00  8.8743088671165911e+00  9.1925017049180724e+00  9.2241481149415598e+00  9.2030650130620568e+00  9.1827635265429794e+00  8.8246439399241066e+00  8.7965550284267646e+00  8.8189629525508142e+00  8.8030919243886903e+00  8.8309637329198747e+00  8.8467507997758066e+00  8.8210443357141894e+00  8.8510866720983419e+00  9.2565650369751928e+00  9.2062389005967535e+00  9.2437732984659657e+00  9.1354391855889663e+00  9.1675640507954839e+00  9.1522555301173369e+00  9.1846580449333608e+00  9.0723197604962440e+00  9.1184188965146351e+00  9.1120726312034090e+00  9.0928311228287981e+00  8.8728185048280785e+00  8.8783688777207495e+00  8.8639030691702523e+00  8.8730309071810503e+00  9.2166975168269101e+00  9.2344467981544245e+00  9.1969275554875960e+00  9.1684871362718390e+00  8.8620304141515156e+00  8.8318749211864453e+00  8.8155259318717576e+00  8.8506767630296697e+00  9.0585640157449880e+00  9.0287310804350032e+00  9.0274112200747698e+00  9.0236905972773176e+00  8.8392786524584128e+00  8.8494547548288871e+00  8.8486529833059944e+00  8.8428009937206085e+00  8.9476616854697841e+00  9.0006271658659553e+00  8.9671130954397675e+00  8.9858821395693589e+00  8.8819063186795777e+00  8.9180662901942540e+00  8.8967101259526444e+00  8.8298898667346872e+00  8.8180748069247379e+00  8.8177014018039515e+00  8.8146641364481315e+00  8.9602276284384494e+00  8.9365586873618970e+00  8.8174396845814194e+00  8.8142068311028332e+00  8.7938423413171147e+00  8.8337261467006716e+00  8.8813891649108587e+00  8.9047806444759061e+00  8.9186496938211697e+00  8.8958385856477289e+00  8.8913432896629452e+00  8.8576691634271238e+00  8.9955666286164249e+00  9.0011783968026862e+00  9.0263584285561276e+00  8.8334021982670610e+00  9.0210776798024668e+00  9.0041063147764238e+00  9.0201308518874512e+00  8.9925191390068999e+00  9.0050005871350542e+00  8.9163268088955441e+00  8.9321744962523368e+00  8.9233436368032013e+00  8.9442302672643290e+00  8.9525056829795879e+00  8.9811996736590736e+00  8.9889921655295666e+00  9.0048519534658080e+00  9.0037358663163172e+00  8.9930381053508537e+00  8.8149305519943049e+00  8.8399309152984102e+00  8.8147510886796034e+00  8.8451373829129540e+00  8.7814981633430644e+00  9.2470124466591734e+00  9.2241905288265666e+00  8.9323371863686312e+00  8.8968154587098258e+00  8.8994507418911528e+00  8.8405160965761844e+00  8.7618969075541528e+00  8.7957889371679485e+00  8.7748353213181378e+00  8.9782209827778736e+00  9.0056325506643251e+00  8.9201364729955923e+00  8.8200300912367613e+00  8.8266537540545791e+00  8.7925867781757425e+00  8.7984550326314501e+00  8.8329225240491205e+00  8.8014183535492023e+00  8.8184007667450750e+00  8.8346257234076599e+00  8.8691230179601916e+00  8.7726911701871320e+00  8.9712131106826316e+00  8.8750072734325283e+00  8.8946737862379575e+00  8.8882151120139437e+00  9.0299829735151658e+00  9.2808544391010273e+00  9.3245543563277646e+00  9.3071831587922773e+00  8.9366054379767199e+00  9.1594790398195514e+00  9.1307922983719028e+00  9.1152702659450036e+00  9.1315001917896907e+00  9.1847751192506717e+00  9.2260865967201084e+00  8.8379628778623687e+00  8.8663185641554083e+00  8.8670570546308056e+00  8.9787926232897437e+00  8.9903048902827418e+00  8.9502338363404537e+00  8.8513150210869078e+00  8.8315506404089845e+00  8.8575030311907685e+00  8.8419195582030756e+00  8.9377268860450858e+00  8.9465629905548436e+00  8.9435861189301420e+00  8.8172734323411959e+00  8.8793442704532790e+00  8.8898190569720796e+00  9.0279106783212626e+00  9.0462006027439905e+00  8.7885593508384421e+00  8.8115133121870688e+00  8.7273533359153177e+00  9.0847044051170549e+00  9.1071425852563106e+00  9.0037528294899172e+00  8.8883403979816737e+00  8.8532910153526512e+00  8.8936254952735272e+00  8.9324467137006298e+00  8.9390355378629280e+00  8.9464058956555057e+00  8.8535754999768859e+00  8.8722868639878207e+00  8.8355655503036932e+00  9.0033820583517663e+00  8.8060614358441018e+00  9.1247568722179970e+00  9.1229552073007483e+00  9.1457996114067033e+00  8.8950610012226132e+00  8.9678050661745079e+00  8.9335313936080052e+00  8.9329443602941403e+00  9.0037153959652549e+00  9.0138049257957427e+00  9.0249607061664534e+00  8.8370628488394161e+00  8.8550239818132255e+00  9.2354446273010478e+00  8.9917299426839410e+00  8.9976090866314991e+00  8.9213448897347725e+00  8.9372058676966439e+00  8.9558491168881229e+00  9.1247824859791713e+00  9.1151684070965988e+00  9.1156198635673764e+00  8.9431197467609760e+00  8.9220278964855950e+00  9.1543229892534441e+00  9.1790708559389849e+00  9.1103068849964437e+00  9.0935920641170718e+00  9.0929584052677868e+00  9.1105309707346596e+00  9.0968694231939971e+00  9.0915293100378047e+00  8.8244487368857332e+00  8.8037360418769541e+00  9.0456659828670265e+00  9.0585144464571563e+00  8.7254062970700783e+00  8.7794890954750784e+00  8.7592936209008805e+00  8.7712386239815672e+00  8.8593949364876163e+00  8.8824529434125790e+00  8.9157571895166789e+00  8.8832858323592720e+00  8.8562873285965740e+00  9.0791220747966701e+00  9.1137399462009849e+00  9.0952606899292974e+00  9.0940250549114072e+00  8.7441114414717500e+00  8.7667078751492653e+00  8.7630096816633714e+00  8.7582278827384634e+00  8.9216742538912186e+00  8.8923750832673552e+00  8.8601779054936181e+00  8.8075986402230146e+00  8.8363484269316324e+00  8.8193430384936597e+00  9.2445730272779016e+00  8.8252093164650773e+00  8.8043667832486570e+00  9.0154727280708506e+00  8.9908965377419641e+00  8.7749517619553554e+00  8.7946983239151795e+00  8.7868706826666561e+00  8.7672230213625095e+00  8.7635945122808412e+00  8.7763660280379732e+00  8.8284918252559006e+00  9.1697453543695442e+00  9.1898932503163024e+00  9.1865853415030472e+00  9.1726359798872519e+00  8.9923567346959601e+00  8.8001066225669291e+00  8.8021725355003131e+00  8.7911549263310782e+00  8.8279749822050970e+00  8.8328612137486573e+00  8.8267039469009685e+00  8.8559793349331066e+00  8.8982616144914140e+00  8.8968978735081645e+00  8.9819284355290421e+00  8.9904609286742705e+00  8.8613987149471551e+00  8.8160190627649353e+00  9.0477827099010799e+00  9.2714967477481416e+00  9.2779163871443053e+00  8.8423211269474002e+00  8.8277109556826439e+00  8.8505586851011735e+00  8.8131138256495642e+00  8.8067235946780418e+00  8.7650101089880046e+00  9.2513337995620297e+00  9.2143458403925838e+00  8.9964943264415531e+00  8.9108251588521554e+00  8.8119622297658768e+00  8.9965285628113492e+00  8.9523553105830693e+00  8.9694985964233123e+00  9.1864727616439730e+00  9.1618549880780122e+00  9.0090833843655957e+00  9.0358176214350738e+00  9.0336936333521489e+00  8.8127365342648467e+00  8.8087865573622572e+00  9.0078564053013093e+00  8.8875387138574666e+00  8.9243526956284658e+00  8.7912648453437203e+00  8.7407107331196787e+00  8.8125045286071497e+00  8.7662023837946759e+00  8.7568465688310795e+00  9.2008310285613231e+00  8.9818487103825824e+00  8.9599687468622893e+00  8.9409535295092457e+00  9.1474292643467763e+00  9.1377623938895471e+00  9.1275995661427487e+00  9.1430282847497288e+00  8.8096522085889539e+00  8.8348875464385053e+00  9.0208977214235837e+00  8.9957308824497808e+00  9.1042984615853975e+00  9.0925206769957363e+00  8.8723315091033150e+00  9.1656935304450364e+00  9.1566576946955625e+00  9.1745035757528441e+00  8.9235093870503075e+00  8.8847638342639268e+00  8.9177082180657496e+00  8.9085595101287502e+00  9.1219975103615667e+00  8.7463629037300663e+00  8.7594548051333323e+00  8.7704843408561484e+00  8.7727991049891880e+00  8.8237884082031162e+00  8.8198911017082402e+00  8.9484787501767382e+00  8.9155518079996270e+00  8.8732248773676172e+00  8.9177095089119600e+00  9.1368472716872891e+00  9.1397082668967737e+00  9.1307979248193831e+00  9.1676608397018473e+00  8.8753601580568393e+00  9.1255344756870098e+00  9.0590729538777275e+00  9.0769796291571723e+00  8.7845824042941576e+00  8.7988976468397038e+00  8.7954990966170108e+00  8.8509068898375585e+00  8.8041967627231958e+00  8.8557083531491365e+00  9.0595806958982088e+00  9.0623954901847839e+00  9.0672689558806976e+00  9.0461366127617691e+00  9.0464542458333295e+00  9.0725723674525458e+00  9.0672458761726560e+00  8.7730451879868863e+00  9.1698589251894020e+00  9.1829854562896074e+00  9.0449744905079275e+00  9.0440027950553858e+00  9.1445706736455126e+00  9.1264322700897296e+00  9.1335068638399317e+00  8.9885365348550312e+00  9.0132025059988408e+00  8.9910337305089243e+00  8.9877024653926068e+00  9.0160826762646398e+00  9.0337018737761277e+00  8.7961701415697089e+00  8.8196156076275631e+00  8.8621656519139780e+00  8.8943465553882248e+00  8.8980991769907192e+00  8.9021089367228647e+00  9.5388407139609956e+00  9.4376806229411034e+00  9.3744685841686053e+00  9.4427409034734637e+00  8.9076314542832655e+00  8.9112143383728952e+00  9.1739131411279562e+00  9.2397573211406439e+00  8.8864365548705440e+00  8.7525378022414237e+00  8.7508775590301120e+00  8.7788715210124089e+00  8.7226638649383172e+00  9.1507177836639571e+00  9.1319056543891932e+00  8.9045430974233355e+00  8.8760513633408973e+00  8.7386691543563177e+00  8.7676510197451449e+00  8.7824837551243480e+00  8.7403573779556663e+00  8.7491689557494627e+00  8.7764271053753653e+00  8.9111961346733111e+00  8.9517089297726162e+00  9.1615770671835275e+00  9.1808094184599049e+00  9.0772774528827220e+00  9.0647118110366218e+00  8.9977820306461087e+00  9.2445276201371822e+00  8.9708348607498731e+00  8.9388814464869704e+00  8.9522457028626157e+00  8.9316951204029102e+00  8.8356736961091009e+00  8.8254438410050771e+00  8.8735026908285768e+00  8.8589128621837645e+00  8.8876208240472696e+00  8.7736472593522219e+00  8.8926718349936085e+00  8.8637882313668719e+00  9.1924639358450229e+00  9.2248593449283351e+00  9.1863190595148527e+00  9.0173234712132402e+00  8.9171458015389771e+00  8.9229351852661551e+00  9.1260985793676284e+00  8.8095579788732046e+00  8.7978351180323493e+00  8.7995888041900994e+00  8.7623026760573079e+00  8.7829539241818519e+00  8.8575719582532351e+00  8.7950824138222519e+00  8.7419758652862551e+00  8.7334538126653598e+00  8.7898771446781421e+00  9.1555807508351332e+00  9.1699545605355901e+00  9.1659000151132091e+00  9.0088854277339916e+00  9.1682579851576378e+00  9.1396511193527754e+00  9.0091653272350776e+00  9.0064405339416300e+00  9.0092848351890016e+00  9.0458357963421872e+00  9.2569883513834217e+00  9.1425633468638505e+00  9.1542156633437362e+00  8.7390084767185403e+00  9.1078142293115043e+00  8.9341712208798505e+00  8.8872973871640273e+00  8.8959493082523586e+00  8.9437638160005939e+00  8.9582248369254458e+00  8.9473639912262417e+00  8.9759421360462355e+00  8.9755051190646675e+00  8.9418154082847092e+00  8.9684515994658298e+00  8.9576826471596931e+00  9.2276930702339133e+00  9.2434235724937608e+00  9.0395587758870040e+00  9.0447044724221204e+00  8.9245451576639034e+00  8.9382273172328013e+00  8.9094340046590634e+00  8.9228125241344660e+00  8.9070538671751898e+00  8.9157815721040752e+00  9.1371288627122738e+00  8.7724347851323756e+00  9.1036686372349411e+00  9.1513092439873045e+00  8.7061265900679921e+00  8.6656832165613640e+00  9.1209178119426593e+00  9.1404044518277274e+00  8.7881458863964106e+00  9.0871312359904639e+00  8.7887982000322591e+00  8.7702684415781746e+00  8.8408408547178148e+00  8.8995623782899216e+00  9.1850633523012934e+00  9.1811839874696926e+00  8.7793511222391789e+00  9.2144263015466947e+00  9.2653126552151583e+00  9.2542081053786855e+00  9.1060663391074250e+00  8.9095317823353639e+00  9.1405877766236436e+00  8.9776715166102932e+00  9.2201549903885454e+00  9.1846694110810088e+00  9.1807059284529089e+00  9.2101675945134183e+00  8.7941306565577140e+00  8.9422603605997466e+00  8.8172175102234949e+00  8.8874609770598791e+00  8.8561916025167342e+00  8.9966201688519654e+00  8.9548618460357297e+00  8.8004825923098853e+00  8.9386372921114692e+00  9.2646328071697397e+00  8.8184441960099544e+00  8.8154255827795787e+00  8.8390136596811129e+00  9.0344254159713717e+00  8.9495607254989231e+00  8.9354382539661046e+00  8.7978221675902937e+00  8.8153826662799677e+00  8.8057970740332472e+00  8.9623019409719031e+00  9.1781898529594130e+00  9.1590381472816524e+00  9.1749877969438902e+00  9.1607277554606039e+00  9.2200396280815315e+00  8.8346548954280610e+00  9.1544102491949584e+00  9.1385790674716603e+00  9.2004695979763333e+00  9.1137620693141557e+00  9.3230030687518717e+00  9.0597263883565624e+00  9.0276317620790678e+00  9.0118245478995043e+00  9.0219282970421038e+00  9.2057780543319474e+00  9.1692324766653162e+00  9.1101854587096849e+00  9.0597644221944886e+00  9.1651103701954799e+00  8.9727331137059370e+00  8.7408410253472280e+00  8.7919651367156781e+00  9.1396916510539725e+00  9.1898128724210313e+00  8.7534262323749221e+00  8.9484120009387240e+00  8.9389195167540816e+00  9.0912031721078499e+00  9.1289857786320781e+00  9.1404991848132688e+00  8.8672272224604001e+00  9.0976582005549158e+00  9.1044434150151456e+00  9.0720654635996514e+00  9.0894755200405157e+00  8.7956775333040458e+00  8.8350315813256266e+00  9.1646445950406186e+00  9.1519853301278857e+00  9.1671598732549047e+00  8.7401144917140385e+00  8.9611670796168319e+00  8.7933331117205036e+00  8.9572387459992999e+00  8.9084599275692717e+00  8.9493657828598110e+00  9.1700856871099763e+00  8.8161975947718698e+00  8.9368496749757433e+00  8.8251873562465768e+00  8.8910568747832972e+00  8.9792227652812393e+00  8.7999822387537652e+00  8.8267678489346526e+00  8.7605896719318217e+00  9.2016358263937992e+00  9.1673346001661677e+00  9.1471361924197971e+00  8.7516506961760019e+00  9.1728856944999180e+00  9.4570548672485018e+00  9.4499266083039117e+00  8.9637358143891444e+00  9.1287227267581752e+00  8.8308369383142313e+00  8.8413539718498999e+00  8.8461075066620847e+00  8.8400046105935797e+00  8.7333407995750818e+00  8.7506622187218159e+00  9.0680878693572016e+00  8.7743219862379132e+00  8.7856479480546295e+00  8.7888506773346098e+00  8.8407810465514540e+00  9.1226555155985292e+00  9.1704531010820816e+00  8.7317328608294531e+00  9.0465345455092052e+00  9.0934838636625361e+00  9.0727366311480360e+00  9.1415398628906424e+00  8.8262861879181145e+00  9.1533353999490039e+00  8.7626463829372376e+00  8.7538576368190437e+00  8.8514916659229197e+00  8.8553878808722040e+00  8.8488145320660827e+00  9.0622315415574839e+00  9.2852700190364708e+00  9.3437485420316477e+00  9.1522338128148295e+00  9.0150404600416678e+00  9.0104108959659559e+00  9.1479490777448529e+00  9.1777966397214943e+00  9.1746464070686926e+00  9.1145357630302275e+00  9.1218646345180225e+00  9.1212896224997984e+00  9.1230588394606045e+00  8.7918275617350012e+00  9.1260604698118311e+00  8.8165946159353474e+00  8.7824008667195272e+00  9.1515532515971163e+00  8.8584289736816402e+00  8.9365509281041611e+00  8.8827590199639239e+00  8.7503054620571490e+00  8.9628530976951737e+00  9.2155792021343270e+00  8.8912779953390313e+00  9.0680103061802093e+00  9.0903691980694195e+00  8.9953294941373034e+00  8.9324141206241165e+00  8.7923547050931834e+00  8.7619022555451789e+00  8.8702231311636908e+00  9.0529372292593386e+00  8.9485866696037970e+00  8.9704009607213173e+00  9.0198011736300252e+00  9.1556610695131866e+00  8.8423795233289102e+00  9.3966571010645392e+00  8.9276269897340903e+00  8.8923564884327941e+00  8.7933029158285354e+00  8.7542884430131505e+00  8.7938082106412274e+00  8.8644048891840495e+00  9.0849009570399133e+00  8.9265426241140542e+00  8.8012097778866760e+00  9.1460549899384702e+00  8.8520223991938849e+00  8.7809663586127620e+00  9.5142543278359284e+00  8.7849251532338926e+00  9.0223135181249692e+00  8.7819449036637618e+00  8.8491121272505815e+00  9.5413346878773666e+00  9.4591563975390365e+00  9.0124298242951753e+00  8.7479970256259048e+00  8.7079583299167318e+00  8.7543106330170311e+00  9.1418450791899595e+00  8.9699136505559220e+00  9.0618830535121617e+00  8.7116138484407308e+00  8.8392086139048427e+00  8.7648029041861424e+00  8.6935737603625594e+00  8.7027655222174083e+00  8.6816070975999384e+00  8.7939935370085696e+00  9.0530828132117307e+00  8.7642340634703224e+00  8.7588837312475860e+00  8.9765160452577355e+00  8.7894131560671696e+00  9.0081852050325342e+00  8.7301814267194313e+00  9.0845319899405421e+00  9.0825059574483422e+00  9.1065380520194985e+00  9.1129960955012645e+00  8.7780997914212691e+00  9.0830504205025839e+00  8.8127320759956564e+00  9.0120395868647112e+00  8.8280540737361228e+00  8.7459716568686261e+00  8.7559490630082966e+00  8.7341045376122981e+00  8.8529418457154616e+00  8.7415142500019680e+00  8.7913226862954463e+00  9.1231406601409244e+00  8.7421911705403108e+00  8.9597994822093501e+00  8.7840805177073840e+00  8.9557322201005487e+00  8.9731732615421471e+00  9.1360571577419805e+00  8.9026028202148737e+00  8.6923028899190768e+00  9.0065432700565911e+00  9.2336694347988963e+00  8.6386121980584551e+00  8.6512476033863503e+00  8.6479774818086312e+00  </DataArray> 
</PointData> 
</Piece>
</UnstructuredGrid>
</VTKFile>