<?xml version="1.0"?>
<VTKFile type="UnstructuredGrid"  version="0.1"  >
<UnstructuredGrid>
<Piece  NumberOfPoints="849" NumberOfCells="2812">
<Points>
<DataArray  type="Float64"  NumberOfComponents="3"  format="ascii">36.62082171204842 27.8127849200591 36.13850171254575  35.133984 28.948254 35.287773  35.09377430707337 27.21605231542388 36.32776574507508  35.49711158292504 29.01535721010175 36.79523341230945  37.949352 37.367817 30.74501  36.569382 38.303696 30.363506  37.096951 38.137836 29.41184  37.18171292059583 36.42405258432928 29.2215403952366  34.05059772584886 34.95316193481453 20.38016270291036  32.746849 34.025311 21.321835  32.00395264563948 35.80063188870376 19.98719219897543  32.86680140713349 34.76766033029573 18.98926829807134  38.133236 23.832748 37.085537  37.24768686096579 24.69261041211738 35.96842440675156  36.4897276634056 25.30990806411723 37.73183746080861  38.45995747796422 25.5658858520423 37.30637268987511  37.279232 24.819668 28.961367  38.54130521052253 24.56614868561093 31.38826562161311  38.33652209870549 22.66262965472055 29.63475954978686  39.95923699999999 24.817934 29.238529  39.95923699999999 27.031462 34.171627  39.95923699999999 27.508234 35.542397  39.95923699999999 28.533052 34.932079  38.58446677489688 28.46149289546959 35.32983508011048  33.462215 26.79608 36.530621  33.897346 27.022236 35.615894  34.09821304170267 25.93854317484353 36.26407209188564  38.265579 28.255939 37.698914  39.247765 27.011547 37.83308  38.045311 26.881899 38.031525  38.5533824412371 27.23998406201759 36.67764592029476  38.378563 31.867853 20.219721  38.368034 30.446127 20.095911  39.263241 31.410988 21.196394  37.11907760195668 30.54414169113862 21.41232134365319  31.72779359734088 22.00204747310697 36.54483607746737  32.886925 20.923319 38.462288  33.63736929991997 22.65435760023441 36.74563578074738  32.34679 21.985481 38.766796  39.95923699999999 36.526802 25.372335  39.95923699999999 35.57716 26.803631  39.95923699999999 37.144733 27.090204  38.2982721780568 35.74560784816278 26.18786159283038  35.306213 38.001163 35.715775  34.911247 38.556973 36.989162  36.15678285920916 38.97468022528037 36.69949178999137  36.05928482854232 38.92670023078949 35.61841070173521  36.510223 39.248024 34.093788  35.785709 40.003617 34.790054  35.20499576380831 38.72257295882532 34.11704855101149  39.95923699999999 28.406418 33.45937  38.2561164443833 27.65802525904208 33.20155962302857  30.663343 30.279379 19.900694  32.426247 31.111061 21.175091  31.499683 30.853428 18.656059  31.86207744203309 32.01827914417703 20.05506144974296  38.07669812612395 36.31267634809763 38.10094815856051  38.72649430205787 34.69612535506707 36.69300652261067  37.324409 34.695953 38.034317  37.688457 35.694309 36.621506  38.749813 39.298771 38.568783  38.956982 38.390991 39.295425  37.32099843550208 37.68791811978274 38.79430981989098  38.58423811373087 38.04891332257404 37.46821379992441  37.338814 30.16456 19.256891  37.940228 29.356333 18.69795  38.007885 29.52116 19.581272  36.70903274936603 28.8949651237339 19.33386913779368  37.848251 34.038269 36.176941  37.271927 33.075912 35.516087  38.79923225703111 33.57059314302987 35.24041664331909  38.43031934778163 31.93048221564127 36.1182246831824  33.60593015389689 30.0130214394507 19.83448981754351  37.06670088748341 38.81049819480323 37.96376226245881  36.112877 38.860817 39.990357  37.915165 38.985039 39.990357  37.184555 40.003617 38.576702  39.95923699999999 32.376251 32.346836  39.95923699999999 33.694656 32.787071  39.02019005168103 33.79807269146184 31.32083228889712  38.81037776918829 32.50555120619597 32.03216145956394  39.95923699999999 27.249722 30.782108  39.236717 27.609564 29.030506  38.269352 27.797874 29.503315  39.350365 28.308977 30.015675  39.308876 31.9576 30.872873  38.95315999791283 31.71543659279923 31.72571753157906  39.310738 31.430229 31.373255  39.386013 32.364967 30.968399  39.95923699999999 36.679298 23.983852  39.95923699999999 37.903919 24.502584  38.23352081624911 37.5108632201511 25.44263330296328  33.785076 37.981659 21.362135  32.605247 37.694294 21.147112  33.898376 37.314098 20.23188  32.493244 36.849606 21.425289  37.441917 27.785189 23.891907  38.169254 28.675148 23.847954  38.08906208520649 26.26756093843776 23.27752071335535  37.75307828522276 27.64029158081706 21.31400812176327  32.566353 36.128742 28.820694  33.893066 36.890259 27.850742  33.15730014802761 38.33084370515958 28.70523726346005  33.3113333784832 36.24082796722047 29.85787262423269  31.232635 29.354448 20.935297  32.793121 29.862272 21.093525  32.111122 29.082811 19.731962  31.71077 30.242796 21.399822  39.95923699999999 35.299492 23.862293  39.95923699999999 34.683083 25.489346  38.72126285368869 35.86097775963133 24.13216666027543  34.22435 32.77919 37.482849  35.380554 32.000175 36.687862  35.377224 32.514099 38.459312  34.83713789109525 31.21144035649444 38.10708781275954  37.655544 37.61237 39.990357  35.526581 23.355228 39.315567  35.342182 24.269997 39.990357  35.43939290172619 24.36461955196412 38.38946862684262  34.33292994534688 24.64619407522975 39.11767829490827  37.90225815513202 26.18331142036168 34.90224734284544  35.404472 25.580954 33.15303  37.86231082529159 24.42518222585553 33.46545113094012  35.86507587758772 24.23367487058596 34.6525775366382  39.95923699999999 25.582476 21.616776  38.53334709125845 24.20152176521087 22.65356561518253  37.95256822924869 24.74216281463202 20.97855274749643  39.95923699999999 26.646866 29.325926  37.443455 27.659792 37.842388  35.57246968506293 27.73587654580126 37.8129363184791  37.04682675353794 26.50919059711054 37.10706899223714  34.725277 29.805771 35.818096  36.05207226271746 29.48956390157872 35.33061363242246  34.920704 37.015507 34.618713  33.531158 37.665726 34.95187  33.58038599870921 38.33145272294979 33.72824911460591  38.2816075325072 29.70879666866659 21.91205004027513  39.348022 23.816961 34.001495  39.353809 24.498095 35.051922  39.95923699999999 25.373953 34.222164  37.77408428328078 34.28446969758638 32.85502891317591  36.85597217258807 32.15403162700802 32.81542728616515  37.58118885745331 33.10774198522977 31.18422882513745  33.985168 22.314053 38.310894  33.63439385262951 24.65939886550144 35.31882608691149  33.67016947946241 24.27885424370789 37.72749034184408  31.81171254795396 24.64616726575867 37.32740556583669  31.85695336107705 23.5491326628832 35.64840685659567  35.556606 40.003617 33.576614  34.42255584024271 30.62819989375562 17.58005981334438  35.1037498394958 29.05777277432006 19.38396223406274  35.81837790616304 30.59197334961844 19.08210585479939  39.95923699999999 34.355175 35.814049  39.95923699999999 32.872974 36.237797  39.95923699999999 33.975815 37.507156  39.95923699999999 22.973331 30.2651  39.95923699999999 23.198542 28.3286  39.95923699999999 21.648863 29.204803  38.570095 25.529442 38.762848  31.462337 21.087326 38.525452  34.1888400822652 33.66172495559395 18.89125626603655  35.30387024769999 33.51055679612091 20.55960988534374  33.41696151561408 33.10779996337125 20.09681017175299  36.786831 33.684372 29.332834  38.09407 33.238922 29.853287  37.90083321627924 35.14712719451288 30.60027372992421  36.788906 23.417002 31.817438  36.58876 25.032391 32.157898  35.878147 24.129963 32.769432  32.574303 26.318203 35.492657  32.179768 25.489717 34.259808  33.682518 26.564255 34.551971  37.614841 37.368359 35.882816  36.991623 37.048965 37.138088  38.11189280692945 26.04522171747637 19.31645240064987  38.322411 24.687492 18.153654  36.555128258779 24.79470584040494 19.41792891419028  37.57514613388693 25.93638636619244 17.34214829718875  39.083836 22.630838 33.760136  38.58195056918147 22.70422295600828 32.04783109117908  36.37706 38.005455 34.504326  36.798378 38.055805 35.625355  39.95923699999999 25.683138 37.177483  39.95923699999999 25.983723 35.590973  39.256088 24.408733 36.266506  37.720116 32.912773 37.262871  38.53709547910821 22.54977671630008 24.49695825708844  36.85804 21.700514 26.212191  38.3312883835432 21.11276873348658 24.92301330654462  38.3877179365124 22.0255223995061 27.13669764847062  39.32349 37.414944 28.960623  38.410343 37.618557 29.309053  38.93774 38.247009 27.913235  38.54976682271394 36.5850316377599 27.7889655974221  39.95923699999999 18.77788 28.819061  39.95923699999999 19.820002 27.077719  39.95923699999999 18.38397 26.75522  38.22583247386044 19.97890611547634 27.65600048208363  39.374454 35.1824 38.641731  37.929935 33.593826 38.71423  34.819382 34.580231 32.901276  33.923267 33.987335 31.600504  34.86257028261675 34.86538964813903 30.25587990872809  36.06099214808425 33.83356534671876 31.59968620044493  39.95923699999999 27.356253 36.749397  35.635609 28.078384 22.432503  36.754681 28.898476 23.098858  36.20791489133366 29.16011617255846 21.34336730864693  36.96413692459319 29.72519443337009 20.22571007356559  39.337559 28.433311 15.667714  39.195301 27.089247 14.234897  38.35486632720353 27.54385819200505 16.11816101144678  38.09041982508845 28.09430564118597 14.30416873529892  36.200062 19.50654 27.589649  35.984699 18.394869 26.188019  37.9780103386193 18.95513644606047 25.9959857537886  37.5281170502085 17.54712638294552 27.08703695518506  38.89849037728007 31.87917424408041 30.97701536292623  37.57321732438839 30.44424359647824 33.10447347000633  38.35273630589797 29.10587348764778 32.02190047886008  38.75973589129429 29.30336970714474 33.79902677885739  37.04532802244274 29.05623101618945 33.66161944493548  39.95923699999999 25.325762 23.247728  39.95923699999999 24.099209 22.001282  39.95923699999999 23.832851 23.492992  34.008392 33.534977 29.962557  32.887566 34.14949 30.529457  36.663368 19.575186 29.359795  37.79356014363042 18.29144693596718 28.75203767456901  29.5569 24.352154 34.044392  28.85785909010069 25.82867627427404 35.20903719590995  29.54046004020515 23.19422676175816 35.99114336209987  30.79857816633901 25.54528873708482 35.85258511756634  36.703957 23.533808 36.358467  35.36367991627529 24.35582040407881 36.52084597747
[...]
<PointData  Scalars="p"> 
<DataArray  type="Float64"  Name="p"  format="ascii">8.1070005465262565e+00  8.1137163342738212e+00  8.1548211886338677e+00  8.1419564540371514e+00  8.0173927677146182e+00  8.0231300263493761e+00  8.0225844288851178e+00  8.0197678501741141e+00  8.1844362760373439e+00  8.2136595372947472e+00  8.2638606476516507e+00  8.2387312244108681e+00  8.1120828946914347e+00  8.1174827435240697e+00  8.1522321338436416e+00  8.0904981415109152e+00  8.0110540237249115e+00  8.0206740396432821e+00  8.0120861368557996e+00  7.9999999999999991e+00  8.0000000000000000e+00  7.9999999999999982e+00  8.0000000000000000e+00  8.0404145867759116e+00  8.2120983343557725e+00  8.1834386225040081e+00  8.2040270931737087e+00  8.0752801432998904e+00  8.0634210410575182e+00  8.0959208837889083e+00  8.0623509476325168e+00  8.0798237829625403e+00  8.0700279828642500e+00  8.0521910977329139e+00  8.0787414767706434e+00  8.3255785682981500e+00  8.3158456166991197e+00  8.2710930711301653e+00  8.3124731335135511e+00  8.0000000000000018e+00  8.0000000000000000e+00  8.0000000000000000e+00  8.0234967435003366e+00  8.0406550865231736e+00  8.0762117973435359e+00  8.0524617122473625e+00  8.0424609888005563e+00  8.0342209425382265e+00  8.0374833763020188e+00  8.0319944290890746e+00  7.9999999999999982e+00  8.0341167444366413e+00  8.2455307572562102e+00  8.2118997298761194e+00  8.2173660744097408e+00  8.2346010305972062e+00  8.0247075478498289e+00  8.0105894012276533e+00  8.0196744255054320e+00  8.0162780996924585e+00  8.0352435537505702e+00  8.0336950028255103e+00  8.0436649834864724e+00  8.0253140083172720e+00  8.0992288095735709e+00  8.0867910156115919e+00  8.0751057023325448e+00  8.0942576262847616e+00  8.0151368830397729e+00  8.0305612568349858e+00  8.0113245832534510e+00  8.0283043524868987e+00  8.1575269185270365e+00  8.0502764499388988e+00  8.0707863190386888e+00  8.0463420642044383e+00  8.0530649619815797e+00  8.0000000000000000e+00  8.0000000000000018e+00  8.0082317752074434e+00  8.0118144894735472e+00  8.0000000000000000e+00  8.0096003785349907e+00  8.0133214907754091e+00  8.0130024900353192e+00  8.0125062563938574e+00  8.0134214072225785e+00  8.0132518807258606e+00  8.0109724934210629e+00  7.9999999999999991e+00  8.0000000000000000e+00  8.0284820773191594e+00  8.1614657604359646e+00  8.2094203736341598e+00  8.1893629431668238e+00  8.2133341096536778e+00  8.0329521466925282e+00  8.0331570979241196e+00  8.0244039041885049e+00  8.0486938027604467e+00  8.0250436550328459e+00  8.0262256234698146e+00  8.0265830261721902e+00  8.0246242860047019e+00  8.2315781745201342e+00  8.1758668288831799e+00  8.1736039996130110e+00  8.2339240180409909e+00  7.9999999999999991e+00  7.9999999999999991e+00  8.0326293197858405e+00  8.2455702776685627e+00  8.1492349806330662e+00  8.2199163813189831e+00  8.2037421847181129e+00  8.0427883044287185e+00  8.2033205738367236e+00  8.2026798301913963e+00  8.1953005453050434e+00  8.2201575163941669e+00  8.0705887947927994e+00  8.1242446109056843e+00  8.0633929552257371e+00  8.1522077759189955e+00  7.9999999999999991e+00  8.0193019499441256e+00  8.0400238103648807e+00  8.0000000000000000e+00  8.1084175269482959e+00  8.1586148138008330e+00  8.1187020078139174e+00  8.1389389176412656e+00  8.0932794196274820e+00  8.0287392990278494e+00  8.0301113131869180e+00  8.0288083827476608e+00  8.0470302315980256e+00  8.0458537000754049e+00  8.0578798379472758e+00  8.0000000000000000e+00  8.0149109897930870e+00  8.0273683532140154e+00  8.0170996103124992e+00  8.2709324594981890e+00  8.2338500860347743e+00  8.2461864576263988e+00  8.3046607491794244e+00  8.3075681491417654e+00  8.0314315936515221e+00  8.1650320003486918e+00  8.1200826082566575e+00  8.1299597992796091e+00  7.9999999999999991e+00  8.0000000000000000e+00  8.0000000000000000e+00  8.0000000000000000e+00  8.0000000000000018e+00  8.0000000000000000e+00  8.1019045438093578e+00  8.3394117534759165e+00  8.1973733946614047e+00  8.1431326040599998e+00  8.1975652290017624e+00  8.0185563310471171e+00  8.0146566501719931e+00  8.0146481752008505e+00  8.0456673418629112e+00  8.0625237512579400e+00  8.1139077651304845e+00  8.2667100982106252e+00  8.2819580330295217e+00  8.1929646926232209e+00  8.0238618558804085e+00  8.0343925660154500e+00  8.0554631213960928e+00  8.0683464243645808e+00  8.0722510125585174e+00  8.0822776022080234e+00  8.0423205665186881e+00  8.0253846004722966e+00  8.0326394591391796e+00  8.0375573110434857e+00  8.0000000000000000e+00  7.9999999999999991e+00  8.0785356049317496e+00  8.0246128534295824e+00  8.0100228620144822e+00  8.0156778718131285e+00  8.0125245448274356e+00  8.0100422609544673e+00  8.0129430064249298e+00  8.0174565867709191e+00  8.0180562603195664e+00  8.0157907861045032e+00  8.0000000000000000e+00  8.0000000000000000e+00  8.0000000000000000e+00  8.0229750764035277e+00  8.0169892955371029e+00  8.0169752417085505e+00  8.0223840780100488e+00  8.0227469298938487e+00  8.0222512075278978e+00  8.0209418029597597e+00  8.0000000000000018e+00  8.0717928814741970e+00  8.0565150422199654e+00  8.0845409477810719e+00  8.0883048518898661e+00  8.0800630002606564e+00  8.0825968909368804e+00  8.0821639227922901e+00  8.0958010315588353e+00  8.0518056737377872e+00  8.0561884718795529e+00  8.0318603678587142e+00  8.0600591116030991e+00  8.0139931364641175e+00  8.0319714771218802e+00  8.0220079377650553e+00  8.0230171568807727e+00  8.0518203343506016e+00  8.0000000000000000e+00  7.9999999999999991e+00  7.9999999999999991e+00  8.0224479599840084e+00  8.0234863802225291e+00  8.0530845945841136e+00  8.0522543822151622e+00  8.3834795418896775e+00  8.3954457737240755e+00  8.3734735811289038e+00  8.3396218964369790e+00  8.1523236244560735e+00  8.1881781617528997e+00  8.0891590552820478e+00  8.0384491660011061e+00  8.0238176292498640e+00  8.0281261781302451e+00  8.0298772294237697e+00  8.0172190530030392e+00  8.0218710051163757e+00  8.0210045550194291e+00  8.0282037851642123e+00  8.0276765375696808e+00  8.0442669080703215e+00  8.0368720327013392e+00  8.0324449612633053e+00  8.0405501308436715e+00  8.0550765188782769e+00  8.0346680254795562e+00  8.0411768208275092e+00  8.0142670579094908e+00  8.0216510837066366e+00  8.0237999795383423e+00  8.0263042286430544e+00  8.0212011781578845e+00  8.0522852935761868e+00  7.9999999999999991e+00  8.0250947013160339e+00  8.0204428663404279e+00  8.1835146229063458e+00  8.1548324723602335e+00  8.1265460433782533e+00  8.1591490505594422e+00  8.0257014227104531e+00  8.1550577834761153e+00  8.1133445436780605e+00  8.0486371777772945e+00  8.0414967904834658e+00  8.0268237883699811e+00  8.0516770342613722e+00  8.0185137732174674e+00  8.0164652527963280e+00  8.0000000000000000e+00  8.0000000000000000e+00  8.0000000000000000e+00  8.0610331739499976e+00  8.1154627097514389e+00  8.0918554992759475e+00  8.1155969170569549e+00  8.0289300193114972e+00  8.0607823097084434e+00  8.0212933590488156e+00  8.0279557958428658e+00  8.1989096289379173e+00  8.1377587207017736e+00  8.1580481857605029e+00  7.9999999999999991e+00  7.9999999999999991e+00  8.1074464470846870e+00  8.0854594154546717e+00  8.1114463432653690e+00  8.1205911267396100e+00  8.0979057024945664e+00  8.0909218586177207e+00  8.1144492302809734e+00  8.1126269662339219e+00  8.0000000000000000e+00  8.0691079198536162e+00  8.2335589773543685e+00  8.1836299707546321e+00  8.0486733363573713e+00  8.0000000000000000e+00  8.0189666876081347e+00  8.0121087362502710e+00  8.0553304934348500e+00  8.0615346051690775e+00  8.0437382430080717e+00  8.0406765941747977e+00  8.0000000000000000e+00  8.0067572391848980e+00  8.0165758334182442e+00  8.0000000000000018e+00  8.0114169508495010e+00  8.0130873373484217e+00  8.0151756354473243e+00  8.0145159108524631e+00  8.0329353519994591e+00  8.0359969810485481e+00  8.0246513354554665e+00  8.0702753673383825e+00  8.0483169318364123e+00  8.0147860558059545e+00  8.0157718352389846e+00  8.0360459296167726e+00  8.0381628833722303e+00  8.0314195466234146e+00  8.0843657761870436e+00  8.0195922932320478e+00  8.0179086406470148e+00  8.0185174394117009e+00  8.1456042757197835e+00  8.0262973264026538e+00  8.0253766106329820e+00  8.0276553798084844e+00  8.0257888214128688e+00  8.0458406072690742e+00  8.0356925709211353e+00  8.3695884398108920e+00  8.3360505538449399e+00  8.3660869387716623e+00  8.0099500050697916e+00  8.0107900331796422e+00  8.0172004929363077e+00  8.0104329662765377e+00  8.0269033460182921e+00  8.0277992531460995e+00  8.0288135830491179e+00  8.0279464057356034e+00  8.0271337220458108e+00  7.9999999999999991e+00  8.0000000000000000e+00  8.0000000000000000e+00  8.0000000000000000e+00  8.0258699060322467e+00  8.0267689031861895e+00  8.0791027929742540e+00  8.0880997508921535e+00  8.0218937279289921e+00  8.0261229480796583e+00  8.0173369631979146e+00  8.2565455020373513e+00  8.3039356445307870e+00  8.2077127511543146e+00  8.1610110473332593e+00  8.0785129580206210e+00  8.0471072855007595e+00  8.0719069591172676e+00  8.0508334159599233e+00  8.1913452612722732e+00  8.1896831533551495e+00  8.0277661158370446e+00  8.0284617148115096e+00  8.0624658542350520e+00  8.0952917634398212e+00  8.0908970253442440e+00  8.0635300814346778e+00  8.0000000000000000e+00  8.0366736274701616e+00  8.2583598814926589e+00  8.2702064821170698e+00  8.2650841702692830e+00  8.2316749296594800e+00  8.2794559424273437e+00  8.2313005378801822e+00  8.1448119971575217e+00  8.0162223024909540e+00  8.0342522353236294e+00  8.0106308958541845e+00  8.0125559492780418e+00  8.0000000000000018e+00  8.0240963630930526e+00  8.0225348972118962e+00  8.0212925398790240e+00  8.0662280433395619e+00  8.0574598078582227e+00  8.0907337738434304e+00  8.0000000000000000e+00  8.0000000000000000e+00  8.0266060825994607e+00  8.0265201865238218e+00  8.0261940172651602e+00  8.0929450727837757e+00  8.1298895764073489e+00  8.0439453598884878e+00  8.0587957495576852e+00  8.0847573367688064e+00  8.0516271227505456e+00  8.0754491402623412e+00  8.0930302003986068e+00  8.0743048743416210e+00  8.2712581661673532e+00  8.2619550029567836e+00  8.2509662049078436e+00  8.0521759469366341e+00  8.0419994288036971e+00  8.0646936818105921e+00  8.0330600154099496e+00  8.1185881413017906e+00  8.1247298721563315e+00  8.2126025853533200e+00  8.2157665749770885e+00  8.0298739428643948e+00  8.0295321713060570e+00  8.0247746296470819e+00  8.0137469300976392e+00  8.2825543535778792e+00  8.2735903727707267e+00  8.1299454732536898e+00  8.1736480294027380e+00  8.1093950561935166e+00  8.1028336659360889e+00  8.0313110521490287e+00  8.0256618788581910e+00  8.0083230607386771e+00  8.0133922926824184e+00  8.0107247352922712e+00  8.0559098951773382e+00  8.0666308998297556e+00  8.2312563128755283e+00  8.2287602857662314e+00  8.2627091269327479e+00  8.2506613332819736e+00  8.0735451820329782e+00  8.0628851783323832e+00  8.0528576608469571e+00  8.0000000000000000e+00  8.1340813663220750e+00  8.1461589330876798e+00  8.0242493035412270e+00  8.0252745977430493e+00  8.0225245682168040e+00  8.0807391952172818e+00  8.1013222849523636e+00  8.0882719588462706e+00  8.0447375837661479e+00  8.0568517889386051e+00  8.0000000000000018e+00  8.0272117753274159e+00  8.0264386721758925e+00  8.0266632374448594e+00  8.2476150168001414e+00  8.2877706381042167e+00  7.9999999999999991e+00  8.0122797411813345e+00  8.0152582851357010e+00  8.0115318296638538e+00  8.0110714182459848e+00  8.0136240787314783e+00  8.0071635875408909e+00  8.0080696222026297e+00  8.0547524093969436e+00  8.0258917821070828e+00  8.0000000000000000e+00  8.0000000000000000e+00  8.0080652073027654e+00  8.0114076242617500e+00  8.1312297961329350e+00  8.0434686079324269e+00  8.0292599799031592e+00  8.0000000000000018e+00  8.0248284281249465e+00  8.0154961694779825e+00  8.0084033673176958e+00  8.0102332536887104e+00  8.2596142665578594e+00  8.0506111661869042e+00  8.0367602043069528e+00  8.0224720876218392e+00  7.9999999999999991e+00  8.0969738410638357e+00  8.1013184684148616e+00  8.2112194527218652e+00  8.2391313880906836e+00  8.1647312460743962e+00  8.1575389546468671e+00  8.0276313991401427e+00  8.0197018764998358e+00  8.0304488312698172e+00  8.0235011985539781e+00  8.0251861011540218e+00  8.1510121822221038e+00  8.1469830723166830e+00  8.0539567540677961e+00  8.1982741667516237e+00  7.9999999999999991e+00  8.0000000000000000e+00  8.0280059750307871e+00  8.0000000000000000e+00  8.0000000000000000e+00  8.0493657069365998e+00  8.0426950531581962e+00  8.0464363010414282e+00  8.1028743812742068e+00  8.0313917361157543e+00  8.0323269243217581e+00  8.0312355083382112e+00  8.0593825018082779e+00  8.2381028954354534e+00  8.0218861683482814e+00  8.0199814068515725e+00  8.0457097105261166e+00  8.0278891245628117e+00  8.0242660093784526e+00  8.0366852168163252e+00  8.0385730613842199e+00  8.0336339718654788e+00  8.0280231352226039e+00  8.0199013419307583e+00  8.1516136287639913e+00  8.0257294293802737e+00  8.0184423868420112e+00  8.0000000000000000e+00  8.0205027341706217e+00  8.0187603826879421e+00  8.1535279531770293e+00  8.0455488652470883e+00  8.0128410857497059e+00  8.0223792704680257e+00  8.2296272723688642e+00  8.2107597580487273e+00  8.0000000000000000e+00  8.0000000000000000e+00  8.0202253081204091e+00  8.2185123758128888e+00  8.0000000000000018e+00  8.0000000000000000e+00  8.0000000000000000e+00  8.1127474525631893e+00  8.1284267714045093e+00  8.1150796600068862e+00  8.0422080002810610e+00  8.0652866289525633e+00  8.1461006069177930e+00  8.0216638990351470e+00  8.0197379636024717e+00  8.0240106172644090e+00  8.0940716305065745e+00  8.3598123440079402e+00  8.0397898581097227e+00  8.1151257096012106e+00  8.3431076449930632e+00  8.1909853684046183e+00  8.1607884018012591e+00  8.0000000000000000e+00  8.2843130026107872e+00  8.2808089210432207e+00  8.2928739853379145e+00  8.1724812012358612e+00  8.2158314814644307e+00  8.0850383698504995e+00  8.2642915510835149e+00  7.9999999999999991e+00  8.0538246710606423e+00  8.0646561911315011e+00  8.1357040536723630e+00  8.0951681386436203e+00  8.2037996478858926e+00  8.1872997893498258e+00  8.1757715800600099e+00  8.2001512780663415e+00  8.0251241471240515e+00  8.0071630501682165e+00  8.0058192480033785e+00  7.9999999999999991e+00  8.0252438611567101e+00  8.0185941655636093e+00  8.0209762418056005e+00  8.0000000000000000e+00  8.0135356438686927e+00  8.0192376205005260e+00  8.0144809489507409e+00  8.1242562451039309e+00  8.0762578867139450e+00  8.1032120588453989e+00  8.2812046630024465e+00  7.9999999999999991e+00  8.1201403578504010e+00  8.1509122699652732e+00  8.0000000000000000e+00  8.1931326061310070e+00  8.0855950613737981e+00  8.0994902599385696e+00  8.0966846823774166e+00  8.0927426515310863e+00  8.0296602780850392e+00  8.0278300147114141e+00  8.0258244065446309e+00  8.0000000000000000e+00  8.0000000000000000e+00  8.0000000000000000e+00  8.3304675440235645e+00  8.3549764659242367e+00  8.0276515842366276e+00  8.2006966998618900e+00  8.2296694766772660e+00  8.2079139081869847e+00  8.1025027582488480e+00  8.0167343063588099e+00  8.0173180443556227e+00  8.0336325746700581e+00  8.0273621074796946e+00  8.0703265964685524e+00  8.0000000000000000e+00  8.0000000000000000e+00  8.3360856511663783e+00  8.2840971930556950e+00  8.3370776905992923e+00  8.3062402840077638e+00  8.0325140063867533e+00  8.0575780783322521e+00  8.0197831227715835e+00  8.0371296275025905e+00  8.0364282688568540e+00  8.0264928649016234e+00  8.0230037911337835e+00  8.0683751394993717e+00  8.0339617732174879e+00  8.0334333547024279e+00  8.2894368406499250e+00  8.2856822996415147e+00  8.2609805643381993e+00  8.3142766360164142e+00  8.0348147137822625e+00  7.9999999999999991e+00  8.0245578461650613e+00  8.2034755111302644e+00  8.1094458352980929e+00  8.1247595430040214e+00  7.9999999999999991e+00  8.0254970231062988e+00  8.0663312261527977e+00  8.0765069515101349e+00  8.0890107957007871e+00  8.0799638831862328e+00  8.0000000000000000e+00  8.0560390929760608e+00  8.1157879740710683e+00  8.0533964229560233e+00  8.0487835256734233e+00  8.0240837277155332e+00  8.0233653206747970e+00  8.0118442998860253e+00  8.0095481356597951e+00  8.0673141025769421e+00  8.0108700219949576e+00  8.0533297758763727e+00  8.0000000000000000e+00  8.1783287502461306e+00  8.2122441300740210e+00  8.0357106057106016e+00  8.0428168057611753e+00  8.0000000000000000e+00  8.0000000000000000e+00  8.1113655066974708e+00  8.0000000000000000e+00  8.0000000000000000e+00  8.0000000000000018e+00  7.9999999999999991e+00  8.0236701538239927e+00  8.1727261144715637e+00  8.1689343772202978e+00  8.0436367147705674e+00  8.0263405729576327e+00  8.0276367932138193e+00  8.0339890332744606e+00  8.2530503411451281e+00  8.1133872308121511e+00  8.0000000000000000e+00  8.0249336423039939e+00  8.2671331165941044e+00  8.1282304529098681e+00  8.0000000000000000e+00  8.0000000000000000e+00  8.0666458132550005e+00  7.9999999999999991e+00  8.0000000000000000e+00  8.0324594836678891e+00  8.0462899449344789e+00  8.1797428597451471e+00  8.0233985092270714e+00  8.0858886884155581e+00  8.2076393446679479e+00  8.0893745283653882e+00  8.0947289849703807e+00  8.1802776488498576e+00  8.0000000000000000e+00  8.1891183473198303e+00  8.0155154957689430e+00  8.0000000000000000e+00  8.1164299984508119e+00  8.2543097163700168e+00  8.2392354159310965e+00  8.0577509938517089e+00  8.0261882444451906e+00  8.0000000000000000e+00  8.0276001612691648e+00  8.0292515192680902e+00  8.0222547945305394e+00  8.0559140215786140e+00  8.0306339302786842e+00  8.0199827498847718e+00  8.0164916531587131e+00  8.0167700743901182e+00  8.0855329844124597e+00  8.0885259366706279e+00  8.1161860751847161e+00  8.1322264122978076e+00  8.0935604800712397e+00  8.0000000000000000e+00  8.2930556400239492e+00  8.3087416245971237e+00  8.2971316525572920e+00  8.0268295308991089e+00  8.2332021453580140e+00  8.1293521841794387e+00  8.0227497625795348e+00  8.0171898617291468e+00  8.1076143148496840e+00  8.2768241743690467e+00  8.2789194169861879e+00  8.2994545683826200e+00  8.1979159725932771e+00  8.0249076143876508e+00  8.0421363282990761e+00  8.0279096950671356e+00  8.0339902092143358e+00  8.2151612094540578e+00  8.1327310841240958e+00  8.0196781014028922e+00  8.1151814268689684e+00  8.1332687338002998e+00  8.1528327689340578e+00  7.9999999999999982e+00  8.0807703850037651e+00  8.1120327217799382e+00  8.1072377798917348e+00  8.0113499464439393e+00  8.0351226827124478e+00  8.0279855831420175e+00  8.0298638492887946e+00  8.0547444220127602e+00  8.0243345583893131e+00  8.0236186037801520e+00  8.0464570096762671e+00  8.1185291012695373e+00  8.0000000000000000e+00  8.0833932718882604e+00  8.2994906214558188e+00  8.0000000000000000e+00  8.3476412050357887e+00  8.2967419682610988e+00  8.0000000000000000e+00  8.0264016045560194e+00  8.0347194829753263e+00  8.1653447198707170e+00  8.2477282849179154e+00  8.0270562341329494e+00  8.1994197469314170e+00  8.0523980627154703e+00  8.1713128814879052e+00  8.3186931246844011e+00  8.0264278283349615e+00  8.0000000000000000e+00  8.1330513786101353e+00  8.0926525507351368e+00  8.1163154668829200e+00  8.2589034001849004e+00  8.2554401965031552e+00  8.1981038428626718e+00  8.0366194666162070e+00  8.0293173052319275e+00  8.0231934928375832e+00  8.0729064261011292e+00  8.1497953594663031e+00  8.0214177614112803e+00  8.1933536817061317e+00  8.3452036512007748e+00  8.0000000000000000e+00  8.0841752634204305e+00  8.0066366387352659e+00  8.0096403691266911e+00  8.1073673797066004e+00  8.3069854775548606e+00  8.3014887420501129e+00  8.3244048941155420e+00  8.3526186496568062e+00  8.1370905384692520e+00  8.0814059397485885e+00  8.0268264274672276e+00  8.0857818330083635e+00  8.0263039503772173e+00  8.3117980607287638e+00  8.2957533969063864e+00  8.0273843377485168e+00  8.0450276662569635e+00  8.0679825703310151e+00  8.0765660107360535e+00  8.0616752677058674e+00  8.0829780396095821e+00  8.0110533237885466e+00  8.0000000000000000e+00  8.0072946460030643e+00  8.0092235825050349e+00  8.2992816441461219e+00  8.1766688973222479e+00  8.2044952166367349e+00  8.2961577473456867e+00  8.1358369484280342e+00  8