<?xml version="1.0"?>
<VTKFile type="UnstructuredGrid"  version="0.1"  >
<UnstructuredGrid>
<Piece  NumberOfPoints="853" NumberOfCells="2894">
<Points>
<DataArray  type="Float64"  NumberOfComponents="3"  format="ascii">26.451523 35.230774 19.944649  25.613966 35.688583 18.745258  24.79000688256295 35.98583884188664 20.19630404112867  26.72166834069838 36.3839952835139 19.97621906167611  27.46847 37.027683 8.447929  28.88481361874772 36.8146575222373 8.947358228979347  27.60844251164943 38.40489849729772 10.15575230367535  28.12418999489543 36.27901017053824 10.32164674808402  28.953344 40.003617 15.866525  30.604008 40.003617 14.931936  30.400665 40.003617 16.321795  29.56646941502943 38.63677745917619 14.45364556648191  22.587454 38.127758 12.54754  22.84094570126705 37.20370891429081 14.64700683436302  23.477331 38.891483 13.777725  22.353828 38.086815 14.380643  25.75782942681794 35.90414230499658 13.88683529236746  26.61382243580795 34.42680803646401 12.58276737524412  25.98726370170655 35.94685253932335 11.36740677710839  26.78147361801807 36.3411635255273 13.13620601495167  23.817108 29.860323 20.826481  24.31809 31.287642 21.171801  24.612476 30.668098 20.290998  23.68831072633775 31.72454897295216 19.99592107806938  22.267578 26.588278 9.118942000000001  23.746084 26.924934 8.923121999999999  23.119345 27.871275 8.328547  23.35406666595766 28.34368433992712 9.644246448766957  24.683931 40.003617 24.97451  25.515766 40.003617 26.41625  23.736696 40.003617 26.202049  25.27648990268477 38.27765366193208 26.25954402500962  31.260332 36.634502 21.044662  31.419662 34.968784 21.37789  29.707314 35.610394 21.920351  29.70971427361994 34.72271846936546 20.53220633400243  27.96043921423344 37.4917846657774 13.83244595590769  29.24849622085078 37.28939698128312 12.89556530397806  30.08678713887141 37.1914849678945 14.2278671144674  19.973347 38.413609 24.692127  21.09711383281632 37.34906775640901 25.91782431944432  20.816755 37.494129 24.754929  20.60156288414963 38.87619631313602 25.33120629819327  21.175573 34.964645 14.513182  21.987892 34.394817 13.916936  21.886898 35.720978 13.834386  23.48709756623823 35.10275107937528 14.58672768734634  25.9538 39.217312 9.493107  25.940889 40.003617 10.927883  24.601568 40.003617 10.192486  24.76762246576784 38.55197084326048 10.54409749022366  29.27266027460883 35.71956754784671 19.15783045503805  28.460796 34.416641 19.339397  30.81577637260275 34.11989692031883 18.98819598926603  27.355162 33.915268 32.556149  26.400732 34.647362 32.645981  26.619858 33.260448 32.7169  26.91585322292278 34.19348695988882 33.60429961950593  22.064226 36.907669 13.215612  24.01601698504129 36.57813375619959 13.55481148238246  24.93268577879885 28.49731049333712 10.74798749967376  25.083111 26.726202 9.316744  24.79681259850925 28.4746811391453 8.921005539341797  20.653847 40.003617 5.228409  19.817831 39.399994 6.85935  19.203974 38.720341 5.467098  20.634370472458 38.22883940634366 6.183422247546207  26.30892849657915 37.49788332499273 10.01923367611792  25.8377903148395 37.96941829017815 11.88970993722332  27.9658411720839 37.14129398747185 11.85371985958663  23.9489480896031 34.53398785056942 7.947339790751329  26.04003 34.187691 7.932608  24.7607546700074 32.61362962220112 8.099098226329099  24.38137092269877 33.82008621585304 6.522240756380782  27.841599 38.646812 8.444352  28.277725 40.003617 8.741199999999999  27.378359 39.387665 9.082024000000001  29.302568 38.73864 9.606325  29.212135 35.763783 35.226845  28.48621078038302 34.32876870301151 36.53832036465984  29.91199906157714 36.09029646074988 37.59932989955602  28.2427632254199 35.7632505130682 36.07222586253793  23.233301 35.974857 5.871583  22.241137 36.626652 6.388784  22.110075 36.290401 4.619812  22.03351629490124 34.7740411416124 5.155484253039561  28.22365 35.09148 22.545509  26.77709732141311 35.68582234332557 21.45865680635908  28.41805194347726 35.95201529996573 20.69904027033853  27.58875400154481 34.24249219835531 21.53386370803297  24.503689 29.671127 19.79038  22.16028868557598 30.72496960181221 19.07329328095754  23.721619 37.017948 22.866856  23.034388 36.681885 23.929689  23.76535 35.672623 22.979239  24.85090133895689 36.67542928601536 23.7614777958816  29.668831 40.003617 17.213982  27.84470394786884 38.59778344655827 17.07638678801139  30.09824868184845 38.07031661486108 16.68469701220951  21.701027 36.592762 18.729219  20.880112 35.496586 18.619074  22.68078892262924 35.91356995938541 17.11327383872117  22.34482622488771 34.35661446491132 18.11992624815953  20.685814 35.311611 16.452702  20.522627 34.60894 15.512043  22.29120309118123 34.06900060151195 15.81765358969537  21.1224615026361 34.05480610066116 16.91760319400065  27.62653015844903 37.65061983924569 20.59927840283299  28.193993 36.68914 22.541353  27.21896052267759 38.36998655381009 21.76093399895535  29.983217 36.677132 11.620089  30.878389 36.866886 12.881081  29.36272682682155 35.87758232744008 11.96505625781261  22.832705 34.083809 35.130569  22.378908 34.983459 33.962234  23.294176 35.255478 35.067844  23.6425309403395 33.84859812884827 33.80515665320294  26.28826 36.194038 17.756783  25.28644 35.852859 17.072208  25.60754629754618 38.02568174757574 17.03012761467437  27.05646462433065 36.86653934659429 16.9432577449412  28.95792364952446 36.44602139613404 17.80515482778062  29.358 34.369118 16.627659  30.8080916313309 35.65013101881065 15.62813778452157  30.93650548960288 34.81312350577665 17.44181906440009  24.075239 35.568367 31.789471  24.404806 36.241093 32.467789  24.440653 36.663822 31.878782  23.08706369482369 36.76828613905454 31.96849691921849  24.34314 35.755585 6.852874  23.429255 36.380077 7.293427  23.34433141640934 34.7135510115577 6.514088467252168  27.055782 31.579859 12.692536  25.82266 31.430899 13.641361  25.53974893945596 32.75695374624793 11.29173708008582  25.28620522022151 30.70217077169982 10.95071283495363  26.652733 35.367607 8.688463  25.925331 36.714378 8.744482  25.374493 35.528305 7.91528  24.69921775295409 36.53248727505529 9.793228739840153  28.449205 29.638262 11.265944  28.70242562837611 29.11769923070267 9.880789359231608  27.32543180562255 30.30172210112325 10.01804861380111  29.38707941070366 30.406669450325 10.58458462868081  31.618389 33.4608 21.549692  31.86207744203309 32.01827914417703 20.05506144974296  29.96092359839904 33.21250984921642 20.7099212246282  31.82272001054726 33.75378586140643 20.23040488230148  29.694101 38.980965 21.563791  30.80752 38.417862 20.415726  29.851074 37.522766 21.730528  28.88596661244816 38.42563449897736 20.52245131479015  24.35137 40.003617 33.478649  25.45268371043836 38.51731039556476 34.04288636423001  25.465847 40.003617 32.369022  25.2401839503114 40.003617 33.96102344469212  21.21623 39.255791 32.367268  22.242138 40.003617 31.160532  21.2000129058788 39.13810806803343 31.22249818294356  21.177788 40.003617 31.763914  27.99811353422626 39.02510339986811 13.56591827494063  28.22605772466977 40.003617 14.86955132079474  27.71789931970783 38.82448968971054 15.16176244600299  21.75598 36.524925 24.734232  23.28587317452247 38.10864192385806 25.02241744190426  21.9406878542669 38.80626946253417 25.31759265527184  26.66077 36.060692 36.917477  27.78977218226306 37.74617309652393 36.33343822248433  26.70060894328935 36.13677054329144 35.49082321466298  25.418585 34.438316 36.261784  23.986685 34.464447 35.744637  25.42956384479739 34.8599412694228 34.38443936701304  24.321908074627 32.95474820849783 34.44607501075824  23.890078 34.469475 23.197296  23.909119 33.344284 22.696295  25.15935794615516 34.91483216817377 21.59015823888359  25.66663827927766 33.52185585941834 22.82215217926274  25.408079 33.136139 20.330002  25.608294 29.032429 6.60358  26.475109 30.243546 6.450508  25.392984 30.017904 5.104867  24.55845650302643 30.98259448225258 6.69719585314574  28.282425 31.724621 12.058817  27.466869 30.359407 11.862575  27.12696779995493 31.93566955843893 10.45242779890855  21.91840037673021 32.1504212961891 17.10592004755621  20.416471 40.003617 30.754599  25.353432 34.42226 19.727034  23.2929354049836 34.54562926797722 19.94059517258785  26.86581115248637 38.64443171331236 16.04515731953855  28.33911621080538 37.00143089718254 15.65223026620267  24.44814280706778 36.2112967816641 25.43502651692506  21.929264 38.604309 33.016991  20.850136 38.477531 32.174198  21.93532277704442 38.46023212032596 31.99861980153095  24.74231350792634 38.37122982178572 24.09888096781082  23.148077 38.404015 23.297333  27.826771 37.739586 37.937389  29.83057451391677 38.36344357459843 37.72861865253687  29.25263597627864 37.03392731961733 37.01121453038029  28.65108413579958 38.52889919539574 36.73672183931446  25.508791 37.041122 32.552509  27.123665 37.724049 33.484097  26.27680489874719 36.60949618204793 34.44825739741521  24.935741 31.867823 20.196133  18.819874 40.003617 31.211767  17.803049 40.003617 29.731655  19.75005761597582 38.93874599332658 30.35349848879723  17.60724114186605 38.3571811220804 30.43241652055131  24.890755 32.627083 5.030447  23.56387470351434 32.58139166629846 7.237075516627559  23.22005643815945 32.18929002370465 5.618465429950698  22.74772185841537 37.94136702731735 27.45065137376651  22.973207 40.003617 28.6623  21.90038183289119 38.04289583528509 30.29660308801571  24.05725713187422 38.39543293354351 29.32628087964205  31.10198755354769 36.3822742393867 18.10767581519721  30.16600768015352 38.02202989563921 19.05289350408621  30.30464206689396 36.51795326800419 19.93259013791845  31.76410809453323 38.56906513870786 38.12093174789734  32.136238 39.35947 37.145718  33.030891 40.003617 38.319  33.107475 39.040703 37.675011  24.83851728513552 36.80569678873198 18.16222591926221  23.35280054732317 38.20474267302463 17.73814538613717  23.58467835898991 36.73576135002445 19.2404592869789  23.78553551057372 38.62849616766732 18.87961164701987  24.339123 38.925652 8.921808  22.753334 38.78471 7.796478  23.907545 37.559719 8.200480000000001  23.45148332111452 38
[...]
<PointData  Scalars="p"> 
<DataArray  type="Float64"  Name="p"  format="ascii">8.4268619219761458e+00  8.4457592082152448e+00  8.4562800723202596e+00  8.4166250623137184e+00  8.3796964826997780e+00  8.3470817636823327e+00  8.3941853866507294e+00  8.3844340970607689e+00  8.3795206921344381e+00  8.3652052586407439e+00  8.3648499159762366e+00  8.3720012951911826e+00  8.4674936607575031e+00  8.4654672188994944e+00  8.4503658306100977e+00  8.4620705866643018e+00  8.4377351875072062e+00  8.4301819303603054e+00  8.4378454151295355e+00  8.4162632305718912e+00  8.5747313361380684e+00  8.5191985786555708e+00  8.5521951854501612e+00  8.5376478110381786e+00  8.5937112765721828e+00  8.5614470373543963e+00  8.5650341261646279e+00  8.5576134692467978e+00  8.4979324550336184e+00  8.5088196409013701e+00  8.5156438247379107e+00  8.5071751425330078e+00  8.2994545683826200e+00  8.2789194169861879e+00  8.3521868925575635e+00  8.3298069750733141e+00  8.3926642794237019e+00  8.3738122699313333e+00  8.3551068876826271e+00  8.5451732431054630e+00  8.5389923658666351e+00  8.5371593641907033e+00  8.5411580911337346e+00  8.5055952854018244e+00  8.5042398464163931e+00  8.4830697260810517e+00  8.4817745984213939e+00  8.4312160071861584e+00  8.4292339065529180e+00  8.4600982054463678e+00  8.4572537562833947e+00  8.3442488241937109e+00  8.3457942970902899e+00  8.2846900724247199e+00  8.4481854532268290e+00  8.4591473086830788e+00  8.4541302707694701e+00  8.4482374661103528e+00  8.4705595593970209e+00  8.4595204306317768e+00  8.5288543674344517e+00  8.5442169523641400e+00  8.5315427812870954e+00  8.6348809150062156e+00  8.5973883090772176e+00  8.6425211932916604e+00  8.6121494907103351e+00  8.4266043456838542e+00  8.4320784294584445e+00  8.3945138082884405e+00  8.5334597079742700e+00  8.4985254747161036e+00  8.5247907360918749e+00  8.5584469681209221e+00  8.3627929858388139e+00  8.3574290840902172e+00  8.3836957528196105e+00  8.3533298317589804e+00  8.4020619382148460e+00  8.3979335227368104e+00  8.3687361488593996e+00  8.4072847342471952e+00  8.5865159020107686e+00  8.5900470362874088e+00  8.6289180309613869e+00  8.6174868656281554e+00  8.3961799619149158e+00  8.4234542600357134e+00  8.3782200573452918e+00  8.3987564583015590e+00  8.5795888476957973e+00  8.5777603762976238e+00  8.4748730149140048e+00  8.4996029383979739e+00  8.4756034254558141e+00  8.4788705953241408e+00  8.3711881200930875e+00  8.3922896439267056e+00  8.3552769807685667e+00  8.4843164188241023e+00  8.5135037440058063e+00  8.4851887962228822e+00  8.5149258965879984e+00  8.5132424301023697e+00  8.5244026269870883e+00  8.5169921440523950e+00  8.5346023676795593e+00  8.4045722676206172e+00  8.4058656032332273e+00  8.4231956906824870e+00  8.3637563015950338e+00  8.3477671421058091e+00  8.3627083809974998e+00  8.4958394480617052e+00  8.5090351615392255e+00  8.4873789565360962e+00  8.4978971361821589e+00  8.4212434282656528e+00  8.4496268306689508e+00  8.4280540422312402e+00  8.4016995004269628e+00  8.3573974987166526e+00  8.3205642939366609e+00  8.3169609409887126e+00  8.2939738129095488e+00  8.5155081395880892e+00  8.5003044004582922e+00  8.5096127959742898e+00  8.5208449662417056e+00  8.5470366216392737e+00  8.5471669886406723e+00  8.5724143647517614e+00  8.4525878686925875e+00  8.4966011142278557e+00  8.4704006094853952e+00  8.4972259266793895e+00  8.4376906001462988e+00  8.4482152053194532e+00  8.4997239301888765e+00  8.4738736000683783e+00  8.3710809230676020e+00  8.3518378302798073e+00  8.4347187768306675e+00  8.3291953580931892e+00  8.2671331165941044e+00  8.2346010305972062e+00  8.3084569673105282e+00  8.2530503411451281e+00  8.3855878848674923e+00  8.3519074055794444e+00  8.3704445272451924e+00  8.3857021815612054e+00  8.4920645027236716e+00  8.4733729270559603e+00  8.4942711496694390e+00  8.4781133406414479e+00  8.5419453570361163e+00  8.5357160579329054e+00  8.5520595729648896e+00  8.5470301242253299e+00  8.3960135826673667e+00  8.3906559908400489e+00  8.3962844383921187e+00  8.5261904155045798e+00  8.5096095518919910e+00  8.5268491031011102e+00  8.4217231004282809e+00  8.4106343759733928e+00  8.4365862903307978e+00  8.4487374610036134e+00  8.4758457541325338e+00  8.4644357081164880e+00  8.4826653544572856e+00  8.4771237983538530e+00  8.4764212977527844e+00  8.4579687461866246e+00  8.4576768877319797e+00  8.4764398920783872e+00  8.5408012918370382e+00  8.5276769324118131e+00  8.5766753271022740e+00  8.5575383020807276e+00  8.3912139490895559e+00  8.4449325388723011e+00  8.4360535112045056e+00  8.5590179466541230e+00  8.5681723900614681e+00  8.4666605367836478e+00  8.4949540078726393e+00  8.4078922415772261e+00  8.3784935114042209e+00  8.5029964983506936e+00  8.5229355177204695e+00  8.5547203681875512e+00  8.5346695890761435e+00  8.4848141552583165e+00  8.4913980882817715e+00  8.3892960563529932e+00  8.3638919498599229e+00  8.3816059101711406e+00  8.3912961551337002e+00  8.4860554555240562e+00  8.4581637205061551e+00  8.4540818301128624e+00  8.5132988624983241e+00  8.6123538024296806e+00  8.6162103978402591e+00  8.5817119348199000e+00  8.6286344912593584e+00  8.5789809321810573e+00  8.5612534569172052e+00  8.5934912933384417e+00  8.5303319937685860e+00  8.5319671826757304e+00  8.5440152031823136e+00  8.5243660766307325e+00  8.3114034695322907e+00  8.3520882650956754e+00  8.3303566657685071e+00  8.3225795814886805e+00  8.3246156672931360e+00  8.2726406990311769e+00  8.2728515692708413e+00  8.4477400369728279e+00  8.4537040143839643e+00  8.4643893197761404e+00  8.4481624334998493e+00  8.4829999238201328e+00  8.5430466619793179e+00  8.5091829978072901e+00  8.4939627380465161e+00  8.3660187418006924e+00  8.3488302280798337e+00  8.5296074936772417e+00  8.5401754667762120e+00  8.5557161527744050e+00  8.4288029121031833e+00  8.4292944576987097e+00  8.4100926099458970e+00  8.4490937351189856e+00  8.4700124279930122e+00  8.4345139491318690e+00  8.4336194787106606e+00  8.4416897702150351e+00  8.4285130853905379e+00  8.4193767547438121e+00  8.4410310575954686e+00  8.4146518571759401e+00  8.4745980367138767e+00  8.5679254356785872e+00  8.5777733014458963e+00  8.5616364319985703e+00  8.5583821934229913e+00  8.5582006314553531e+00  8.5618713466921896e+00  8.5685246753525171e+00  8.5580156781930086e+00  8.4172411277719714e+00  8.4723141120614489e+00  8.4669405251869954e+00  8.4905233733662424e+00  8.5850084379810880e+00  8.5733038382416442e+00  8.5786722244417373e+00  8.5244058983250355e+00  8.5097553800207297e+00  8.4869217798673997e+00  8.3175403142631623e+00  8.3712025375741561e+00  8.4175080032487557e+00  8.3642998339246493e+00  8.4168540222046122e+00  8.4709472099786201e+00  8.4710935133255258e+00  8.4608216826682998e+00  8.5010113224190729e+00  8.6023594271552515e+00  8.5726252399634895e+00  8.5693261700848531e+00  8.5480879503525351e+00  8.5020413594692119e+00  8.5355178629089412e+00  8.4168811231230531e+00  8.4475329473312328e+00  8.4959357818915606e+00  8.4861497267981214e+00  8.5187157437583654e+00  8.5127294801158850e+00  8.5297138345671986e+00  8.5237082515998353e+00  8.2897867202800324e+00  8.3257572528443493e+00  8.4546083269701295e+00  8.4789223152694770e+00  8.5178914132942420e+00  8.5115886972756716e+00  8.4932555178738909e+00  8.5067708314086783e+00  8.5312103382182247e+00  8.5064267467716022e+00  8.5214191825545971e+00  8.5106649166806800e+00  8.5027145340968726e+00  8.4624207136375116e+00  8.5232726910171550e+00  8.5199743756542947e+00  8.5166631880247152e+00  8.5137155323254721e+00  8.5089288390854296e+00  8.6268854051717021e+00  8.6358256494083641e+00  8.5863838444660523e+00  8.3874275903094979e+00  8.3716198958941312e+00  8.3803436346203117e+00  8.3955416733090757e+00  8.4368950912918201e+00  8.4744449106356221e+00  8.2335589773543685e+00  8.2627091269327479e+00  8.4853746010139517e+00  8.4778693473345985e+00  8.4572777859881452e+00  8.4539064146473297e+00  8.5287839230806757e+00  8.5343583809750800e+00  8.3564482332392700e+00  8.3572238074018141e+00  8.4496534017612550e+00  8.4638510087859533e+00  8.3680561205805688e+00  8.3841787936055585e+00  8.5120186762947139e+00  8.4984102266867563e+00  8.5073040313680028e+00  8.5126925230975576e+00  8.2987583874496842e+00  8.4576158317246222e+00  8.4491659391833362e+00  8.4307265153029789e+00  8.4426437716735343e+00  8.4675947801757516e+00  8.4379068514216407e+00  8.4571448275429280e+00  8.5197027395853127e+00  8.4060491148043557e+00  8.4655961814227361e+00  8.5306000268791387e+00  8.5464968011973657e+00  8.5446680584912098e+00  8.5255313861836388e+00  8.3502952558384873e+00  8.3023720462173820e+00  8.3248658126562294e+00  8.4961200579672980e+00  8.5576564243016051e+00  8.5898305634857461e+00  8.5095722924482953e+00  8.4944590123464305e+00  8.5109178779577821e+00  8.3990820313044683e+00  8.5671777329525778e+00  8.4254017310802851e+00  8.4431926016320897e+00  8.4255769304706707e+00  8.4460964446026772e+00  8.5935763047258131e+00  8.3955445877813677e+00  8.4955427296454573e+00  8.5230075400062031e+00  8.5188011307442402e+00  8.4522940003876883e+00  8.4618145451602942e+00  8.3281421513998914e+00  8.2949604094293310e+00  8.3330334202235683e+00  8.3451983328030792e+00  8.2787068668409596e+00  8.2581888094929319e+00  8.2470819184182833e+00  8.2447042158738792e+00  8.5121213232841182e+00  8.5350612798556167e+00  8.5246823587522744e+00  8.5142147657208493e+00  8.5200181330144407e+00  8.5144347835294187e+00  8.5420414360641583e+00  8.5598257483854017e+00  8.2332021453580140e+00  8.2812046630024465e+00  8.2506613332819736e+00  8.2387312244108681e+00  8.5164235826184740e+00  8.5201712023771226e+00  8.5159019544255870e+00  8.6136375224922261e+00  8.6318052406140140e+00  8.5947404971056809e+00  8.5759166256535444e+00  8.5604376839320384e+00  8.5684751076769281e+00  8.3683485812133824e+00  8.4826930630862520e+00  8.3866652489917186e+00  8.3704918811380509e+00  8.3906518412404303e+00  8.3451107063337844e+00  8.3498859129609944e+00  8.3468686909199743e+00  8.3491343843898438e+00  8.3480298116613127e+00  8.3808351489332065e+00  8.4079048646923162e+00  8.4896274996905774e+00  8.5528624982439840e+00  8.5717262493055717e+00  8.4113107487145182e+00  8.5775671453196001e+00  8.5378883283379210e+00  8.4831426056949866e+00  8.4687862641624925e+00  8.4879076128554178e+00  8.4818763168612250e+00  8.4585828081459269e+00  8.4962259238410773e+00  8.5414198577814275e+00  8.3552553399761589e+00  8.5143735441664461e+00  8.5603715280695916e+00  8.5959864339458925e+00  8.6112074921150192e+00  8.5643153227922699e+00  8.5806999610527743e+00  8.3398625684239018e+00  8.3867143599559650e+00  8.3776094649787414e+00  8.4861114934142847e+00  8.5134193435952294e+00  8.5028321763523138e+00  8.4158923277907540e+00  8.4634074554232335e+00  8.4432857691859464e+00  8.4802470045984482e+00  8.4636623474638188e+00  8.4703218246991625e+00  8.4428892141439906e+00  8.4539048388717326e+00  8.4681140603781078e+00  8.3399766117425695e+00  8.6314323576408523e+00  8.5603841544107802e+00  8.5032847976405819e+00  8.3692584621708832e+00  8.3797296856323022e+00  8.4069934669584541e+00  8.5506566780371251e+00  8.5534232541878659e+00  8.4112534388700784e+00  8.4539653438517703e+00  8.4436215305441848e+00  8.4453632677268704e+00  8.4596919593798585e+00  8.3679728283398518e+00  8.3513664895328183e+00  8.3541097799307735e+00  8.5342060740611672e+00  8.4196653057071682e+00  8.3246641601762796e+00  8.2847409286892866e+00  8.2832657674046200e+00  8.4403808663820374e+00  8.4348895105288122e+00  8.3966408037396896e+00  8.3857950928147496e+00  8.3544111018174032e+00  8.3475209300795026e+00  8.5270175510360975e+00  8.4836236022133704e+00  8.5172575410819373e+00  8.2767353887722344e+00  8.5274774302559564e+00  8.5229529600852896e+00  8.5405520139877300e+00  8.3999320058702391e+00  8.5023453136431364e+00  8.5104453896180967e+00  8.5192825609885663e+00  8.3998514394817967e+00  8.3884185873805048e+00  8.4653487298461414e+00  8.4406493158857412e+00  8.3978564654780321e+00  8.3827287633762744e+00  8.4035579205210880e+00  8.4102484578745003e+00  8.5224222296630856e+00  8.4982327611740587e+00  8.4830659914023610e+00  8.2883689528643529e+00  8.5227999645588639e+00  8.3688958507425131e+00  8.3702893470437605e+00  8.1577798857878214e+00  8.1933536817061317e+00  8.4346457744042098e+00  8.5107839393146421e+00  8.4956652392115846e+00  8.3301372145820967e+00  8.3157828176873583e+00  8.4994596209014048e+00  8.4736121278016707e+00  8.5458264829952757e+00  8.2280989798465445e+00  8.2905902059774697e+00  8.2702064821170698e+00  8.3099038572474253e+00  8.2642915510835149e+00  8.3197807848114635e+00  8.3171258817799121e+00  8.4138088837970244e+00  8.3049264311528201e+00  8.3857750933135993e+00  8.4676909046061226e+00  8.4218046643637585e+00  8.4965953609168476e+00  8.3494317314329205e+00  8.5109204972705523e+00  8.4473549271869004e+00  8.5535890468626405e+00  8.5445941033790351e+00  8.5206490134822452e+00  8.5082377937793741e+00  8.3649886623045280e+00  8.3142766360164142e+00  8.3462832230432884e+00  8.3530203905464226e+00  8.5128676431813286e+00  8.4124347315509684e+00  8.3830665652687379e+00  8.5746574147899430e+00  8.5234634114622043e+00  8.5163529009175090e+00  8.3369736285051381e+00  8.3565775813039522e+00  8.3883338311364941e+00  8.4202847478195810e+00  8.4784762051336529e+00  8.5495717739034962e+00  8.5365144282909498e+00  8.4630463792565216e+00  8.4847935449734706e+00  8.3649947275860939e+00  8.4677674466233768e+00  8.3588949392963752e+00  8.3801379074796412e+00  8.4118237957909070e+00  8.4834319042273876e+00  8.4929208301071686e+00  8.4471121667953977e+00  8.4967678880931992e+00  8.3661553570204834e+00  8.3894473040503303e+00  8.5664194831823721e+00  8.5843626196080329e+00  8.5782821939026093e+00  8.5571842187486489e+00  8.5418798406704877e+00  8.5481668162334437e+00  8.4921263217135667e+00  8.3813155471578931e+00  8.3384373503817351e+00  8.4607987918601211e+00  8.4107403653224946e+00  8.4660282324532989e+00  8.4895069836602115e+00  8.5589826948831647e+00  8.5401163683458439e+00  8.5607129883602706e+00  8.5463861653600048e+00  8.5402602528543170e+00  8.5220544767544428e+00  8.5162821799201289e+00  8.5642566644220679e+00  8.5891545201646515e+00  8.3105197049010595e+00  8.3273932040860537e+00  8.5269223202418321e+00  8.5835016159264903e+00  8.4814005546788227e+00  8.5298820762096135e+00  8.2957533969063864e+00  8.2638606476516507e+00  8.4069751064507017e+00  8.5358455729263056e+00  8.5296852697243146e+00  8.5272387753127230e+00  8.3571180395889382e+00  8.3864712241113839e+00  8.3606118922176567e+00  8.4351016284157065e+00  8.4315746323028620e+00  8.4237630261244529e+00  8.3395487661860805e+00  8.3756446832388587e+00  8.5303248235558673e+00  8.5030581279565922e+00  8.5456498601039321e+00  8.3802661817336475e+00  8.5389956722505644e+00  8.5339654362401696e+00  8.5261351471239699e+00  8.3355369394254328e+00  8.4325970982370499e+00  8.4551753066960096e+00  8.4562801073377063e+00  8.5196927585427584e+00  8.5226846642157454e+00  8.4084361888936581e+00  8.3634036742469124e+00  8.5156429498198527e+00  8.3746592249549696e+00  8.3760629409137497e+00  8.4756312906784892e+00  8.5494779714062918e+00  8.3520494081913945e+00  8.3659837465215965e+00  8.3657271948589376e+00  8.4477381621100953e+00  8.3710439194158184e+00  8.3569804783128205e+00  8.4401674020108501e+00  8.4408936837458235e+00  8.4460779374985169e+00  8.3660100829448787e+00  8.4959767536579953e+00  8.4445669434863841e+00  8.5148925525404895e+00  8.4950827424990791e+00  8.5088048983414026e+00  8.4965785242427820e+00  8.4730170364278230e+00  8.4778141419828366e+00  8.5334846573509981e+00  8.5435152066880615e+00  8.5755803610462991e+00  8.5702057872244275e+00  8.3881853194926066e+00  8.4136010632374099e+00  8.5272662195381326e+00  8.4912536071662394e+00  8.5430190769861820e+00  8.5206646366276662e+00  8.5616575852377448e+00  8.5286392428290387e+00  8.5432811691693313e+00  8.4426628317692174e+00  8.4954087296020440e+00  8.5590113606325904e+00  8.5579137892488184e+00  8.5486424911212211e+00  8.5161214695006091e+00  8.5134884267702837e+00  8.5150412491145104e+00  8.5769044432731576e+00  8.5160391305897800e+00  8.2687870090548738e+00  8.3245048433857640e+00  8.3270318905961886e+00  8.2988826835784764e+00  8.5731542657372675e+00  8.5702842155083374e+00  8.5679425772307507e+00  8.5892073083121510e+00  8.4277731767454078e+00  8.3490346988946058e+00  8.3425645906189878e+00  8.3496101880342195e+00  8.3543417916954041e+00  8.3559424145415058e+00  8.5378085450432906e+00  8.4893754048838925e+00  8.4688603670034315e+00  8.3869223824434265e+00  8.5486728142003052e+00  8.5347193268263251e+00  8.4931318650799170e+00  8.5706928627120451e+00  8.4145969140473191e+00  8.3586657488112035e+00  8.6049472166928460e+00  8.5328487446019352e+00  8.5483305114450658e+00  8.2856169223744320e+00  8.3918857071732820e+00  8.4780431961272313e+00  8.4649363323545899e+00  8.3982852629779039e+00  8.4086306747052060e+00  8.5454424517172196e+00  8.5423237046434064e+00  8.5284546952939007e+00  8.5107410142633295e+00  8.4625332300895924e+00  8.3236882200638469e+00  8.5108764775867645e+00  8.5417607911257285e+00  8.5517157319573478e+00  8.4061511943799552e+00  8.4431398150079868e+00  8.4687247215067636e+00  8.5123592293440904e+00  8.4571931338746200e+00  8.5953193915443364e+00  8.5905115593076324e+00  8.5870669989832464e+00  8.5167311368731777e+00  8.4833766561597894e+00  8.3981045495671669e+00  8.3240618102268797e+00  8.2452007272107828e+00  8.6013196622282315e+00  8.5894351690036483e+00  8.4778477416035702e+00  8.4882596895630442e+00  8.4036638460288327e+00  8.3411902854239965e+00  8.4041614500749553e+00  8.2894368406499250e+00  8.3248967356963863e+00  8.3244675952251868e+00  8.4945269933272911e+00  8.5252847306877726e+00  8.5571469664003956e+00  8.4882704059269596e+00  8.5514154679398722e+00  8.3794985780554931e+00  8.3548192149522844e+00  8.5165412617167888e+00  8.3875774313764708e+00  8.6117767007413111e+00  8.5838626449388595e+00  8.5055266065988153e+00  8.3967404608863081e+00  8.4240266990628889e+00  8.4453274551934552e+00  8.4063696120995175e+00  8.3399656481538518e+00  8.3592130520308157e+00  8.4035267013137460e+00  8.4755033069761971e+00  8.4950164671141426e+00  8.3002304555381272e+00  8.4570387587836464e+00  8.2967419682610988e+00  8.2994906214558188e+00  8.3184888862329966e+00  8.3020350142072967e+00  8.3403787570222416e+00  8.4853932205367766e+00  8.6303546517625946e+00  8.4061852061616804e+00  8.4631571840196838e+00  8.5208593979908152e+00  8.5611381975155414e+00  8.5543385103509681e+00  8.5889165940899002e+00  8.5635439390119696e+00  8.4453015146272570e+00  8.3617204652197081e+00  8.3754397074998295e+00  8.4055174868245217e+00  8.3648306685686649e+00  8.5655021291844822e+00  8.4466335733413231e+00  8.5710092279803582e+00  8.6044090715006565e+00  8.4755767429483235e+00  8.5712011061976554e+00  8.4207659814871505e+00  8.5086597192511739e+00  8.5113155338335122e+00  8.5197124023526314e+00  8.5081305804487126e+00  8.4917099937432514e+00  8.5699006968076912e+00  8.2933611792625719e+00  8.5392254466698354e+00  8.5636032600224965e+00  8.2583598814926589e+00  8.3742956531685842e+00  8.2992816441461219e+00  8.4345683560946316e+00  8.5665431786330029e+00  8.6167434079068315e+00  8.5461242492819167e+00  8.6085495644328649e+00  8.3784349011297756e+00  8.4046794086914609e+00  8.6055475129803654e+00  8.5273623114229657e+00  8.3221793437991423e+00  8.5908815348499772e+00  8.6178970710201224e+00  8.5648398539488486e+00  8.4052516913382078e+00  8.5290672948459054e+00  8.5115147271158627e+00  8.5596727880688785e+00  8.5580800130253660e+00  8.5922790224189054e+00  8.5762892862567455e+00  8.6098829066272877e+00  8.5083454929095037e+00  8.5984622442230680e+00  8.3146473689538087e+00  8.4523175083242545e+00  8.6038182488062027e+00  8.3384657996506775e+00  8.4563522133118898e+00  8.4316798208346952e+00  8.5536973742710192e+00  8.3033039958051127e+00  8.5873556961706843e+00  8.5503087074042519e+00  8.5502105988734964e+00  8.2287602857662314e+00  8.2568673157184538e+00  8.2856822996415147e+00  8.5787592280994094e+00  8