<?xml version="1.0"?>
<VTKFile type="UnstructuredGrid"  version="0.1"  >
<UnstructuredGrid>
<Piece  NumberOfPoints="789" NumberOfCells="2718">
<Points>
<DataArray  type="Float64"  NumberOfComponents="3"  format="ascii">8.295901000000001 3.186718 3.4129  7.617446 3.154827 4.827653  9.22982508957686 2.601804030519305 5.298688609015728  9.007397772065213 4.219407273410644 4.550883273149393  2.448202 5.255555 6.494065  0.926555 5.860102 5.010828  1.063020072338049 5.819623678969101 7.235964686371542  2.176348074938106 7.131714767796274 5.960026261440419  0.02680700000000003 7.988906 8.191083000000001  0.02680700000000003 6.59597 9.351971000000001  2.111834162182856 7.052470563688375 7.823097169765382  1.492335708771248 8.950432661514181 9.254331714176079  4.399418 12.331587 6.00383  5.432504 12.992594 6.727538  6.362363944667335 10.95096170531796 6.432312642768274  6.108663486634345 11.93843376498272 4.61472093056154  13.811415 -0.01335700000000001 1.883382  12.623406 -0.01335700000000001 1.202114  11.868628 -0.01335700000000001 2.164625  12.43506883465064 1.524002120873115 1.504551711397707  6.552649 4.432037 9.512362  7.088001 3.444018 9.255940000000001  8.280275708770848 4.730765446633938 9.068067663216844  6.907149891088562 3.794237168272217 10.69315974700493  10.574735 15.122467 2.431834  11.616045 15.224722 3.883815  11.66724483423557 13.32509570250734 3.917574325563651  12.12044193551288 13.96501546268771 1.87154009906439  1.993916539635067 1.470664332401625 9.294004668145048  2.141697654164654 3.213047820645816 9.637282694323707  1.522471004553983 1.936125884619313 10.97969600157967  3.683623389785226 1.482370756695182 10.09957208699594  8.329472779634187 11.57683991146848 4.013694237897885  9.203268966199607 10.45085209421719 2.532970442076513  7.643328 9.636744999999999 3.294705  7.899514 10.525414 2.3248  10.838786 9.965923 5.674525  9.619973 9.140874999999999 5.946559  9.580470999999999 10.434439 6.185766  9.495739121118527 9.975798001699383 4.254600583446018  9.988780005831709 6.190788511188918 15.77902919721475  11.179282 5.873302 17.723663  9.145749075111736 5.529626875822297 17.47784288742655  11.09657596658009 4.208204617489974 16.22286704003758  14.218038 4.28757 2.427491  13.330557 5.203068 2.086248  13.708489 4.63459 1.052371  12.82105548759126 3.430074529142398 1.593537613576033  7.83969 11.401094 18.866152  7.970737 9.526768000000001 18.709095  8.114757000000001 10.404844 17.375065  9.661895556268984 11.13035759682561 18.38950683874881  0.715757 11.161253 5.546711  1.696484 11.776858 5.782785  2.194420395722051 10.05534121404246 5.368221738456233  1.781082699091642 11.31436040575574 4.601134685425235  11.911609 11.030614 5.646666  10.934191 11.342886 6.723285  12.194642 11.899702 6.951362  11.92609363893116 13.05008141558008 6.296819157747269  11.910056 7.016675 1.488262  10.702551 7.39953 1.169782  10.436253 6.229518 1.624346  10.91910015456106 7.049681864307057 2.497775279891517  5.933671 13.989018 7.593861  5.76661363851561 11.75118066494402 8.837278552843456  7.451989 12.071693 8.719601000000001  5.032613 12.788944 8.633946999999999  5.977271 11.966088 1.56851  6.129263491996168 14.14960305298031 1.994590729163137  4.591065 14.230147 1.784055  5.141148898047769 12.48921094913477 2.969905000316842  5.696989 14.035275 8.999413000000001  5.917176756732391 12.39961592142705 10.07514294071668  5.635177 5.678625 7.975714  5.213851523209087 6.75725704262601 9.991836072185778  7.191723400697119 7.643208805298558 8.467661669018131  5.019844343618873 7.667216443463015 7.638732413648432  6.526152 2.412904 13.260274  4.491807321967943 3.332118305835046 13.39917909072997  6.788650321256785 4.590741028831713 13.09792491512525  5.785505148348778 3.315469719691901 11.71848385807122  11.082023 5.254877 19.159706  11.826626 4.477274 17.576538  9.079328560553165 3.346633638265568 18.09416463301836  13.451139 4.975018 3.445527  12.675958 6.205115 2.393223  12.04365044063879 4.940427570926335 2.215689540025914  7.781537 1.832801 4.123065  5.487421 16.518658 3.45066  5.170033 15.473146 2.174929  5.138199 16.938465 1.842491  6.637669132212316 16.73707878510914 2.510879538089209  0.558449 11.286442 0.554433  0.02680700000000003 11.040826 1.532738  0.759377 10.415281 0.6078209999999999  1.157979044129718 10.96534570084541 1.609375244222776  9.171967 6.748343 8.554100999999999  9.622271 5.951667 9.851076000000001  8.88993 7.199496 10.235861  7.307351155241184 6.185507558983707 9.248577313232444  11.673547 9.764535 13.069297  10.752892 11.229055 12.794168  9.879168999999999 10.176682 12.42815  9.887674447655064 10.50079345990789 14.90614833197109  4.078433 13.459216 3.043406  3.171375 13.958114 1.534539  3.776668523885623 12.32000353167177 1.433376362155387  4.192839 19.430487 2.805211  4.768217 18.16951 2.024326  4.167414 19.316839 1.219337  5.697740209529324 19.29679235724333 1.378965080068427  4.081313 14.030858 0.647113  8.685843 1.058775 15.119533  10.50773277306155 1.866703909377889 16.17565911683996  9.858820156615259 1.209209871081335 13.97715859973623  8.775138255849614 2.180431181813743 14.68478129489693  3.791657583698576 6.319231647675268 11.48132439278067  6.071651710918937 5.601639870020448 11.43682787203736  5.351510107710458 7.094915279398565 12.18853340411547  5.895429982186971 9.402696764192592 9.516959709555728  9.210337000000001 15.484076 2.267193  9.902303 15.630689 3.712507  9.069960986635531 13.8367567661033 3.24742558781996  7.334239 6.183576 16.002455  7.657056 7.591791 16.409897  7.292536 6.316513 17.388098  9.238594066135658 7.169109933510089 17.29124498210212  10.102858 5.596613 8.18078  11.032235 4.681758 8.238623  9.506343048792987 4.084891894094183 8.280813124362172  10.3660016721756 4.230808593890155 6.554696486435686  1.959442 4.377096 7.441648  1.388253 3.403993 7.298172  2.50664 3.24079 8.140757000000001  1.228374657545154 3.587404305211666 8.484788739978139  4.170712 11.061011 12.510179  4.028435 9.907688 12.19608  3.66893 10.405523 11.163539  5.892585158363861 10.62853917865642 11.81967328091439  4.945128 10.465021 13.294037  6.086507 10.674039 14.092588  5.665396 9.364324 13.774745  2.058405 10.853691 8.397592  0.701736 10.76264 9.329573999999999  0.788669 10.498635 7.876313  8.728395000000001 18.545036 3.528348  9.310022 16.966867 4.460686  7.267973433141719 17.74932537232515 5.444967673941309  7.018230236525209 17.74489570962313 3.401054177105916  0.02680700000000003 9.438897000000001 7.28937  1.267871 10.887455 6.741716  1.51146762648829 9.26548136737898 7.270576380289084  5.999424 2.808672 14.389341  5.681072 4.653135 14.30417  5.0481 3.558249 14.639257  6.403601 3.744752 15.471591  0.02680700000000003 1.879775 12.913414  0.02680700000000003 1.27347 11.493971  0.02680700000000003 2.841545 11.187897  6.426574254013446 11.62225634404985 7.623941888128443  0.885527 6.309831 12.427759  1.942428 7.447066 12.236431  2.153015190911384 4.86734838818881 11.40263442238831  1.580084960528385 7.052669627434554 10.43021882900246  7.946699 0.784237 4.521419  9.461576522612962 1.623474889629831 3.693385522013608  7.506198 1.13346 3.100209  5.272338 14.807585 0.692198  7.545564 15.010709 0.6613250000000001  6.514097 15.649757 0.03180900000000003  6.558364071449438 16.12338482411056 1.483491355558544  3.104614 11.528131 6.899662  1.457224812358224 11.28037786695187 6.318076864839647  0.689872 8.527559 10.939347  0.02680700000000003 9.625003 10.06748  0.02680700000000003 8.243485 9.709244  1.218765 4.638839 6.307476  2.300554 5.255929 5.034645  7.512104 12.193735 10.783482  7.243412 11.427718 9.848974999999999  12.752138 3.07114 12.903374  13.082956 2.198281 14.013611  11.95144679361038 3.514745626555514 14.38026514186026  11.9316871214588 2.415945107457048 12.86497060776588  11.163432 5.49474 6.815108  12.321948 4.929197 6.186258  12.270822 4.032536 7.754509  7.085116 6.913326 15.001221  8.384828449418947 5.693530277275919 14.33849668584486  8.452436497488248 7.242986979525937 15.41152260129772  0.02680700000000003 1.491452 9.753181  0.838241 0.801513 8.671805000000001  0.02680700000000003 1.664521 8.312627000000001  1.314345799279783 2.107298678411472 8.713551508135408  1.841915 1.038618 8.093902999999999  7.26647 1.393134 1.784202  7.770095 1.476489 0.895875  7.753468 0.7866030000000001 1.050149  7.180158 1.086083 1.175822  9.904207 13.693648 7.255226  10.741384 14.572263 6.2583  9.96092942877983 12.8464070949593 5.50247214365218  9.259306723088649 14.80840778989007 6.641989099007207  0.712045 2.556766 7.669408  0.02680700000000003 2.960998 9.065992  12.081103 -0.01335700000000001 5.147804  10.863786 -0.01335700000000001 5.84704  11.72437102128444 1.330493160125571 6.807426128802584  11.25358623295378 1.457392600767666 5.220649799565517  3.214432742591876 9.018230801812724 7.101412734923552  3.570565081465069 8.834211994757212 5.259435653145811  1.531249939202785 8.26141829752121 5.506207907575298  7.69531521799946 7.095514793497218 13.03219517327887  8.487290957225575 8.943485138491519 13.80506456363361  9.765412676632579 7.293138926102895 13.9462798764242  2.900953 4.54452 8.713986  4.03978 5.655926 8.423363999999999  2.589146 5.342901 7.800019  2.962687263519593 6.064893664823446 9.339741823204271  0.02680700000000003 9.553122999999999 8.617934  5.636315 1.518234 11.433707  4.484973 0.727541 11.664918  4.138493097226533 2.766793968839823 11.20826283419023  0.02680700000000003 4.798996 9.049352000000001  0.02680700000000003 5.896323 10.893375  1.321625248816319 5.204629724660363 8.912080225031159  10.52057417168803 1.826391991647743 6.825453151956122  12.24662717889887 2.832545159353512 6.903315516117969  8.632239 0.676408 12.722767  9.981465 -0.01335700000000001 12.43509  9.533790503981459 1.779564740313606 11.34663901928701  10.75490554567438 1.57677876606362 12.73691092539582  9.611238638460103 5.728021915468943 3.471705829708588  9.44014 6.776522 1.823361  9.594296999999999 5.64934 2.245453  7.517884 0.74485 2.022943  3.530767 11.776176 0.03180900000000003  2.709046460717263 10.503
[...]
<PointData  Vectors="u"> 
<DataArray  type="Float64"  Name="u"  NumberOfComponents="3" format="ascii">2.3671850159927459e+01 -4.7997208215299409e+01 -4.7755921865619349e+01  2.7387074132554300e+01 -5.6713514991917364e+01 -4.5558340686940426e+01  3.0586750750127976e+01 -2.9810146818345764e+01 -4.6394611913722912e+01  4.0669517679325715e+01 -3.9003121333355239e+01 -4.1983555252584232e+01  1.0072185305074635e+02 7.6912571816838948e+01 -5.0323664663096189e+01  4.8768291865389585e+01 1.2620564134514604e+01 -1.0151136356112055e+02  1.4625920837657597e+02 4.7041864522508533e+01 -4.9065932191915451e+01  1.0360350530733173e+02 4.0309123786998668e+01 -3.1955141573304310e+01  2.0104900329407118e+02 6.6685296996126979e+01 -3.4171611182884920e+00  2.0133564576418536e+02 6.2027264943634833e+01 2.4138329813797775e+01  1.3520038385110703e+02 5.1910255528391382e+01 -1.1189026126999979e+01  1.2847590004190826e+02 5.0366873107277613e+01 9.3039812504246182e+00  1.0966261979977892e+02 6.3796671796303229e+01 4.5730003307887843e+00  6.5701235614812362e+01 8.3802805419572394e+01 4.2836087916365138e+00  7.8979238086617698e+01 3.9372114214434184e+01 -1.6650137289700574e+01  9.0200401268367287e+01 4.0575796457374125e+01 -3.6802767316443519e+00  1.3912700918204075e+02 7.0173864015457719e+00 -3.0458840015845636e+00  5.6761847034153206e+01 -2.5191969151929214e+00 -2.9558277405031217e+00  7.9779071570183504e+01 -4.5596682032946739e-01 -2.5238218566710692e+01  8.5467568417219582e+01 -1.3740413596230162e+01 -1.6737675271714107e+01  1.2486520870167561e+02 -1.6812533096068236e+00 -6.8585090445725925e+01  1.0750330011928934e+02 -2.9141763157644345e+01 -1.1957022646466915e+02  5.6565878475976881e+01 -2.6960184775812209e+01 -4.2511397631693754e+01  1.3116053692536576e+02 6.8536858188961904e+00 -3.1675666669659932e+01  1.2831733847663679e+02 -2.8746103911320815e+00 -6.1608070544698306e+00  1.6844424669569312e+02 4.4573794995106333e+01 -1.4863593863803743e+00  9.0427560893924095e+01 5.0280022442084601e+01 1.4600729602338751e+01  8.6686387584078574e+01 6.5620583242077856e+01 4.3626892411397380e+00  7.8469047381025788e+01 -1.0414832364758380e+01 9.6181610587995703e+00  1.0641043307842126e+02 1.9607220821888763e+01 2.2173483448881864e+01  1.1473320765566181e+02 -5.6247134602435311e+00 1.3021048235796492e+01  8.3413840554510827e+01 2.4733382839748696e+01 1.7202818185993511e+01  7.2639612242151941e+01 1.6130337619490057e+01 -1.3956854378777086e+01  4.2530383731359436e+01 5.9755962684160977e+00 -1.9689055745255555e+01  5.8381747594618176e+01 -1.3522459863403093e+01 -5.1857160628419273e+01  5.1876632872154730e+01 -2.3786890099839848e+01 -3.8809420243405746e+01  4.4426798677168563e+01 5.1409308037705330e+01 7.1666106492834031e-02  6.5832625795074264e+01 2.4317254235694087e+01 -3.1905924000823454e+01  8.3666321874307513e+01 3.9798768745665065e+01 -4.8283146109874702e+00  5.4951958514067591e+01 1.6105142626627522e+01 -1.8174804860954055e+01  6.7746379136851871e+01 4.0510304631422315e+01 4.0787209179051667e+00  4.9980943390718174e+01 4.4510642697892514e+01 -5.7184985573956297e+01  5.7442728083967751e+01 3.8396271427277014e+01 -9.2935442028556992e+00  4.3302402482690702e+01 4.1514499750860772e+01 -8.3970377555672826e+00  1.1615160405335519e+02 -9.1536025529768139e+01 -4.6708055540754401e+01  6.8034857831825633e+01 -8.3318312763943524e+01 -3.4719427275908018e+01  9.8301653002945045e+01 -7.5820357388594758e+01 -3.8126913622486555e+01  8.6879756047949698e+01 -4.5101731430371409e+01 -2.7304298216457170e+01  3.4334881988239083e+01 -3.8734092186342025e+01 -5.8715425773147203e+01  7.9153425022206738e+00 1.1257971534558191e+01 -3.4053219695632365e+01  5.6600012643300683e+00 -2.1386598314823888e+00 -1.0689648076428751e+01  6.8983636597518952e+01 -3.9366229456628665e-01 -3.6297740395226917e+01  1.2686290812019188e+01 7.0493374193056752e+01 1.4079271390099539e+01  7.4015197179422358e+01 2.4273108603379345e+01 -8.7529092174640457e+00  9.1120732822222237e+01 4.7729035470253955e+01 -8.6378772868718823e+00  7.1641082840725602e+01 3.3356152067353968e+01 -5.3872374483567054e+00  4.6986161137410988e+01 7.9927781726409663e+01 2.8322596252275211e+01  9.0927666252763629e+01 5.5204544335136148e+01 4.6423977085594593e+01  7.4346731851298401e+01 7.1741086537186149e+01 6.3031794904421680e+01  1.1276205168361524e+02 5.1239919787632843e+01 4.2334981894196368e+01  2.2216046594106089e+01 -5.8860100704875059e+01 -3.6292207854244727e+00  2.1847283640798132e+01 -2.8869327621651689e+01 3.1708932334048705e+00  4.5776735287685469e+01 -4.9732291229440492e+01 -1.1248055505924819e+01  2.8334518756672377e+01 -3.1855164135557271e+01 -1.4194723512457372e+01  3.5697204050767155e+01 6.4940810249976636e+01 -1.3286875851653464e+01  5.6922685544891721e+01 5.4823178829617881e+01 -3.5833218739834871e+00  5.8325501729841065e+01 6.8931836109941514e+01 -2.0600055402141884e+01  5.2978592891639728e+01 6.8687747476936366e+01 -8.4428950404507823e+00  1.1627286319510026e+02 3.1125101965233196e+01 1.2405018469580527e+01  6.3623881951697548e+01 4.4248195212779038e+01 1.0734746640503239e+01  1.0862730475927364e+02 7.8404284668318653e+01 2.0244238633538014e+01  1.0140527184966861e+02 4.9898188989068956e+01 8.6214672403579105e+00  4.8494569495431151e+01 4.8189676918117662e+01 -3.5624268063714624e+01  4.9849541403465565e+01 4.0718393644995771e+01 -3.7466632563541276e+00  1.3748828424407566e+02 -3.3812262364300096e+01 -5.2438483449505433e+01  1.0955451666095772e+02 2.9186780908722980e+01 -4.7377708244453158e+00  6.1891072439381489e+01 -6.7003195617781106e+00 -2.3761970059534757e+01  1.1178176582088632e+02 1.7626508223418949e+01 -1.1676839526640194e+01  1.7193954848588405e+02 -5.8270493806259402e+00 3.6596723689592636e+01  1.5709079172826148e+02 5.3522540568577377e+01 -1.1115907345768683e+01  1.0580941134512331e+02 2.5967084716384957e+01 2.3766443919999183e+01  1.4242940783211642e+02 4.0293895304393011e+01 1.0221441114328758e+01  1.5505741040316925e+01 -4.0210562925138243e-01 2.5997695450428413e+01  1.2213805331047663e+01 2.8766987162774249e+01 -3.4068771654565623e+01  7.8458335154499224e+01 1.8756291208027790e+01 -9.3251258930067404e+00  5.8361107068739017e+01 -7.3961239838854610e+01 -4.2835619414651418e+01  3.3464327382390600e+01 -7.3334386999805730e+01 -2.4629748447482509e+01  5.2767647193468960e+01 -5.7507878078338173e+01 -3.2317912007080558e+01  -1.7882265600544553e+00 -3.2509976044767001e+01 -4.6929294442766128e+01  3.8936874656550335e+00 2.6365624870626903e+01 1.5748012491738255e+01  1.3851464731726775e+01 6.6116946511330298e+01 1.2674212063570232e+01  -3.9382195412370606e+00 1.7054539150857178e+01 4.5668314906327394e+00  1.7774399679589788e+01 1.5875579928392643e+01 1.3275319209781363e+01  2.3794134224325337e+01 2.1737467420733573e+01 -3.0761911511114409e+01  1.3630665016965241e+02 1.8455599467135166e+00 -1.3053990267848374e+02  7.6387690068034457e+00 9.6716483036445933e+00 -2.3590225402900330e+01  6.6569759966724220e+01 1.5201375074934392e+01 -4.5506169904312031e+01  3.6960281914851301e+01 -3.7515584499693148e+01 -4.6320915263617472e+01  3.2087530856267733e+01 -3.4264586664358077e+01 -1.7143468648242862e+01  1.9637904076088336e+01 -2.2048435375838153e+01 1.5360337094149518e+01  7.4126914632480492e+01 -1.2424164581100174e+01 -2.7326648919164509e+01  1.0212537830144883e+02 2.2984916080558531e+01 3.0698243453885198e+01  9.2969478262660260e+01 3.1534589879592986e+01 3.1258147856656631e+01  8.9719955156223051e+01 3.2318084284040360e+01 5.0695523838380083e+01  8.4542848240885718e+01 2.1168255575955229e+01 1.7495088009957410e+01  1.4257460008287853e+02 5.1670940347105720e+01 9.0175660805036397e+00  1.0647207377399923e+02 6.5799403877421199e+00 -5.7844305171908657e+00  8.6832478297470786e+01 4.2085148733491231e+01 4.9492309384469202e+00  2.3715975503223568e+01 -2.8854020979204371e+01 -3.5198764858832354e+00  3.0359211688784553e+00 -6.1930516733161589e+00 5.5325255506755946e+00  6.4549430800259833e+00 -1.7189772251065484e+01 -4.0411933685569652e+00  1.4276235221529738e+01 -4.2150851738169095e+00 3.5341408557910632e+00  1.3895238699036747e+02 3.3201216075484574e+01 1.8614088158136159e+01  2.6946959053475389e+01 -2.1100764749115523e+01 -5.6830533399879624e-01  3.0578853535930961e+01 3.8879519320214930e+00 3.2791940198252167e-01  2.7266138592405181e+01 -5.8152730089143772e+00 -1.3961789677971783e+00  4.5233628694180688e+01 -1.0018665424805270e+01 2.4053565408734050e+00  1.1928443108360742e+02 4.9556009658271229e+01 8.7110767836686858e+00  1.0715134892948008e+02 3.0302884320167291e+01 8.2798002527611665e+00  1.0012415067879834e+02 4.6464321900041689e+01 2.5385155027580424e+01  6.6320431976504921e+01 3.3601108168004565e+01 7.5645667401936167e+00  6.1078867900843406e+01 -2.9725322974885671e+01 1.6122547374754333e+01  6.3475865831971674e+01 -4.0112658481239173e+01 4.6615706519010409e+00  7.1466082364077195e+01 1.0962846592856613e+01 2.9089963920599460e+00  2.8983149530759032e+01 5.1554379420049088e+01 1.6509323100654083e+01  1.2820180357717396e+01 4.4948667855230873e+01 1.5145162779855083e+01  3.0756343868571317e+01 6.9336132628215267e+01 -1.9457497550888768e+01  4.6764810658128788e+01 4.0080460492880228e+01 -1.0015105279041952e+01  4.8413353081743765e+01 -3.3065411814139829e+01 -5.3459667020169135e+01  5.2552762122428177e+01 -2.0834436211084526e+01 -5.3033111132041675e+01  4.9069935070845233e+01 -2.8390291830841161e+01 -4.9325689752693179e+01  4.6154628354153033e+01 -2.7512645510658867e+01 -4.5562550500137554e+01  4.5715151497167803e+01 7.8789310488033550e+01 1.7057352790837645e+00  2.8602949309487180e+01 1.8834252392231001e+01 7.0979048224855141e+00  5.9383379715475300e+01 7.7901173220352096e+00 4.9931595152387217e+01  9.7821996303969868e+01 -1.8230154971720136e-01 -8.9220739584656279e+00  2.4266610654745147e+01 7.3960482108566410e+00 2.8180362817000272e+01  4.8461877875143870e+01 7.3778704203784159e+01 5.1861633806793854e+01  5.3743835364327396e+01 9.2934896438704797e+01 5.5370450231708098e+01  5.5910359743083241e+01 3.0212487044394372e+01 2.6530811682734051e+01  3.8364566141833521e+01 2.8788561131241664e+01 3.6826057814077267e+01  5.8053888793821315e+01 1.5668407377570917e+01 4.4286188363204744e+01  6.1720469592621079e+01 3.4964549052238510e+01 4.1131149062335027e+01  1.2684781556567563e+02 2.4535607234898606e+01 -2.9668949312385671e+01  2.8874251465263040e+01 3.0749091983954333e+01 -1.4111166937080945e+01  6.1460609293210489e+01 5.9695250797812413e+01 -2.5517682867551617e+01  1.3887657960904894e+01 9.5586797794906584e+00 3.0798132511601629e+01  2.2962764673475455e+01 2.3117690766929262e+00 3.4265524695954177e+01  3.0470746283671005e+01 9.4128527301856497e+00 1.3979221030618044e+01  1.8186333233907206e+01 7.3257166885284137e+00 1.7162887431297786e+01  1.5616633363462299e+02 1.4316250251053685e+02 -2.1225329729776462e+01  6.2447849965571308e+01 5.9137161808630559e+01 -2.7295274864602479e+01  1.2009677429355636e+02 6.4977070168675809e+01 -1.6316918498994980e+01  1.8627066964989740e+02 1.0069334355027193e+01 7.5982436766005407e+01  1.5942298664289206e+02 5.0460091718588224e+01 5.5831155364468927e+01  2.6803313153312286e+02 5.2285698050512657e+01 2.5070056559386728e+01  5.6856777442082283e+01 1.0196161838423219e+01 4.9008843879090790e+01  1.3378777381743660e+02 -7.5574836354575808e+01 5.4198088625134723e+01  1.5783355211262153e+02 -1.0209968895434260e+02 3.2544792566019446e+01  2.0355931099325096e+02 4.5852524001882831e+00 2.1843407781392358e+01  6.5089489350968421e+01 5.5473938565676441e+01 -1.4244407817509678e+01  4.6869979393451295e+01 6.0770222615312107e+01 3.0767614150840778e+01  1.0724330282070399e+02 5.1811460445366336e+01 5.8749440685577534e+00  1.1999028178864938e+02 5.0793059069384555e+01 1.7943680991391552e+01  1.2689629924272175e+02 6.0196519134250586e+01 3.1067142045261058e+01  3.6830292272769116e-01 -1.5172517524990290e+01 -4.3079612304255143e+01  2.8197136033703480e+01 -1.8168035108317554e+01 -3.9232854542789497e+01  -8.3904202476699421e+00 -8.7065804166845009e+00 -3.0897773414333390e+01  5.2944515199134429e+01 8.3295124886725219e+01 -1.4740716926281827e-01  3.3997333894121823e+01 7.8893866754451913e+00 1.9555208324545823e+01  4.2588547741257807e+00 2.4759871922147489e+01 3.3392271194092014e+00  1.5766554573219176e+01 2.2504187058164096e+01 1.0123115173091366e+01  1.0763732730802563e+02 4.0566780590477435e+01 -1.3257472708429370e+00  7.0537945351964112e+01 3.7148498613630608e+01 -9.6415279388625574e+00  5.5331973717190159e+01 4.9829122181764220e+01 3.7446122579191275e+01  9.2459067902541122e+01 8.6159937080179191e+01 6.3549510624839364e+01  1.6410600917380862e+02 8.8996799388118347e+01 9.3573031099400666e+01  7.0359332942105596e+01 5.7613558810979576e+01 -9.1343194361953891e+01  4.9621955122959790e+01 2.5995316400615188e+01 -6.1973473286909154e+01  4.9828461493519342e+01 5.3068045448869121e+01 2.2341215435456991e+01  1.7828620893874401e+01 4.9751900124856711e+01 1.1819320147374492e+01  -5.3527411456835683e+00 2.1480581944429634e+01 1.8016958177519474e+01  -4.0881096357003601e+00 1.7450308108131992e+01 1.9463185774294558e+00  2.8711337500745739e+01 4.3702395175550031e+01 1.0276625274599512e+01  1.4950954665171293e+01 1.0622724823258810e+01 1.4469500360015330e-01  5.7676826309436571e+01 -2.1696358704734720e+01 -3.9703289776153220e+01  5.3571614289242660e+01 -2.5898663409657580e+01 -3.7530759740720924e+01  5.0428313661324779e+01 -1.1050833651998605e+01 -5.4655429011772732e+01  4.4979387609316653e+01 4.0292882694235395e+01 5.9421432213136043e+01  6.3998245795191849e+01 3.0745590857127254e+01 2.2968410530733884e+01  4.9444847025287409e+01 3.8065419993854846e+01 2.4789872869377433e+01  1.6320266098000860e+02 -8.6597849974767371e+01 -2.4788148948803368e+01  4.9137211179388757e+01 -4.2540575643252794e+01 4.0559682163515305e+00  1.0080249963371813e+02 -2.7540845544158113e+01 -9.2060501840050833e+01  8.4758640663350334e+01 -6.6590242023088893e+00 -6.4372732140730218e+00  6.1994849875581679e+01 -1.1995598012473845e+01 1.8778632397147437e+01  -3.5280603400817312e+00 2.2384528022543688e+00 -8.8480957371162372e+00  9.1474909985656456e+00 4.4857579815390567e+00 -1.2400285121931409e+00  5.2482644932207592e+00 4.8227321490289077e-01 -3.5072347201747220e+00  1.9416876792754398e+00 -2.5982706791046475e+00 -3.2738718870711079e+00  8.2364331462692789e+01 3.1596687764766475e+01 -1.5486609710621588e+01  1.0943294518907582e+02 -3.5768416642118567e+01 4.5047376425341810e+00  8.9104453141557855e+01 2.6385548194144022e+01 5.0249017781582390e+00  6.2637108143798208e+01 2.3107571889571183e+01 1.1189092163522426e+01  3.0562153983992402e+00 -1.7793589540135802e+01 -3.3017976356359938e+01  1.6998691859221182e+02 -2.5775063465458850e+01 -6.2382012995307143e+01  6.3974451890314207e+01 -2.1452549784117522e-01 -6.1927654353315702e+01  4.1416322532768589e+01 4.8362362079897657e-02 -5.2800503765820274e+01  4.3819660954997097e+01 -9.7022593942018727e+00 -6.0400141180792581e+01  5.0511098559052471e+01 -1.4346050942051770e+01 -5.1453782535453982e+01  1.1523618801738112e+02 4.5737461229797084e+01 -4.6238918852642694e+00  9.7094329734735737e+01 4.5499639610526643e+01 6.5995891764160843e+00  1.1088258846834771e+02 3.2707637709798142e+01 -3.7297905133390074e+01  7.1465126844793318e+01 2.7614462369430804e+01 3.4240101214251823e+01  6.6341596493985136e+01 2.6965927012202378e+01 3.8643050406266880e+01  7.5943686962843685e+01 3.4125576102368335e+01 3.0412996639841495e+01  1.0946155996874477e+02 7.9685509815334356e+01 4.5972527512519420e+01  1.6309799999179157e+02 4.7473075731867695e+01 -2.3181577512549438e+01  1.2393174457003310e+02 1.0001313911698540e+02 7.0522604141907552e-01  1.3592975144998306e+02 5.4890920346880968e+01 6.5324825663714048e+00  1.5915482110238761e+02 1.3862464243103224e+02 3.6852042861816550e+00  1.2515260451020754e+02 1.0684009912196895e+02 3.6998980305999559e+01  7.6871218044644593e+01 5.2953888899577997e+01 -3.1622304318657029e+00  1.1451728176563464e+02 4.5839853136144455e+01 1.6660304038009571e+01  2.0927599457192744e+02 2.7488983956696128e+01 -7.0745407401672935e+00  1.5999790289604189e+02 8.5925246729855544e+01 9.2682808512952874e+01  1.5076763781593010e+02 4.6464726611674152e+01 3.6364291532953712e+00  3.6860392614953902e+01 -1.6711692427481349e+01 -5.3240719364092996e+01  5.0308085154278714e+01 -1.7195120636937105e+01 -5.9725530139698208e+01  3.0185599969199345e+01 -2.4063163604125680e+01 -6.9549067681506527e+00  1.7834358123053228e+01 -3.7103818410856362e+00 -1.2167438926937084e+01  3.8208871046165150e+01 -1.5303614152849814e+01 -2.1737931204534075e+01  2.4079814201076214e+01 -6.9224020061221825e-01 -7.8407249327561326e+00  4.3257518354610085e+01 -3.3592511774714112e+01 -2.9376405800072622e+01  3.4261620468901988e+01 -2.2437745757292578e+01 -1.0035651059501657e+01  5.0364507138610811e+01 -4.3726352958637584e+01 -1.7090727322370633e+01  3.8577159427265351e-01 7.1372079733476923e-01 -1.2971989264383550e+01  6.1751105522933479e+01 4.5082871927262104e+01 5.8289967978924278e+00  5.8320438754673695e+01 3.8416029929322093e+01 -1.0580847196100574e+01  3.8445031682444061e+01 3.1041868834207154e+01 5.3869567863426859e-01  3.6611756541583262e+01 5.2767421784251496e+01 -3.6350613947169750e+00  6.5027362708589095e+01 3.0351967275468407e+01 3.2341899983404879e+01  6.3312954750851127e+01 2.2937401670309580e+01 3.5351895649007595e+01  4.6852974358587730e+01 6.8392237965101508e+00 -2.2137842381940324e+01  1.4693114259568981e+01 1.9198162003031936e+01 -8.1252521797721275e+00  4.3382859576419314e+01 4.0989129284159780e+01 5.1137370876317512e-01  4.8135983080441086e+01 3.6722514251870251e+01 -1.6334852841049627e+00  4.9626069923050530e+01 -7.8708844582175189e+01 -2.6669805978245250e+01  5.4531225148960004e+01 -6.5793434078840974e+01 -2.7738458391339513e+01  6.7059710633601100e+01 -4.5866568175801781e+01 -1.8850644609944625e+00  5.1593004417032951e+01 -1.6040126890952486e+01 1.4758266825217619e+01  4.9761805059524207e+01 -4.2154797048253002e+01 1.9064942192041755e+01  6.4511988329688393e+01 -4.3090468155213721e+01 1.1100531918149596e+01  1.9613390452864024e+02 4.4280105755654198e+01 -3.7640534620994892e+01  9.5844133162846802e+01 1.1710182580724160e+02 -1.7315476180284783e+01  1.6049081762917513e+02 9.5769800192254166e+01 -2.6202929394571665e+01  2.6046468874530268e+02 1.1817515773957201e+02 1.0851919363866752e+02  1.6830540129731236e+02 8.0824214788876759e+01 6.8587919142202693e+01  1.8105548441972342e+01 4.1020367081184091e+01 -4.5311570927141567e+00  5.7117626616723896e+01 4.8458713823032575e+01 9.2118241399665006e+00  9.3601909710895781e-01 8.8860990023833093e+00 -5.4804886573385525e-01  -3.4899486731883749e+00 1.0743756703136508e+01 -1.8201098405077720e+00  1.5673981594268414e+01 1.0285134884120179e+01 1.1407441272160499e+00  4.6562684540908243e+01 -2.9173212622101200e+01 -2.4471774939877459e+01  5.9087631456664148e+01 1.9818733899629869e+01 4.1832469659456386e+00  5.6979986326995885e+01 1.0296551692393885e+01 -4.0786368726516081e+01  2.4344953007636160e+01 -2.6635398025970890e+01 -2.8801454820093070e+01  9.0958834931423993e+01 2.8162711844077034e+01 -1.5564816744786473e+01  4.3483380582423770e+01 -2.3460456361624832e+01 -5.0348421096401673e+01  2.3717911506916369e+01 -8.2611681031366011e+00 -2.5917549536888330e+01  4.0673303407752101e+01 -1.4876627995334214e+01 -5.5593010005007244e+01  3.9552130027119190e+01 -1.4434099486361999e+01 -2.8371392836123064e+01  1.9785878606630579e+01 -6.4884753534240689e+00 -8.0251549267868505e+00  2.2319085736789951e+01 -1.4596731753490664e+01 -4.6972421753829316e+01  9.2588137096142688e+01 -5.3492274727982370e-01 -4.9638045094212671e+01  1.8415655667035321e+02 4.6451983224581355e+00 -5.0198493127413990e+01  1.3856602105413475e+02 -3.0111702880926703e+01 -3.9582327048597683e+01  4.0077698560514804e+01 -7.2089266857071280e+01 -2.0561704665277809e+01  7.0333993967777584e+00 2.0452233505846728e+01 -1.7557896041232308e+01  1.9228631746148778e+01 4.1795541761944754e+01 -3.6470846936533697e+01  9.2746358955345698e+01 5.365580038