<?xml version="1.0"?>
<VTKFile type="UnstructuredGrid"  version="0.1"  >
<UnstructuredGrid>
<Piece  NumberOfPoints="915" NumberOfCells="2901">
<Points>
<DataArray  type="Float64"  NumberOfComponents="3"  format="ascii">2.90454 4.176408 33.002907  3.103756 5.530081 31.822014  1.872853508738427 5.428076532250634 30.75962691114437  1.593032580551337 6.516206925562702 32.61205706817097  1.94901 20.12051 21.513597  3.878021807445372 19.28318309855155 21.52262426538138  3.717435871062236 21.03510333841442 22.3288406546044  2.790950031577306 19.75197003392619 23.00707691568793  12.17979 19.551338 25.942934  13.175875 19.469131 25.57136  13.08130061751723 18.00038007476514 24.92425460592401  11.56694902066717 19.32501785234147 24.89493636516489  8.108129 2.645271 39.990357  6.984982 3.542747 39.990357  8.24638 4.042 39.990357  8.63982291515892 3.266434695502355 39.05302559793218  3.830584 9.395108 22.232059  2.369615039764684 8.798508775594295 23.59068348349345  2.001508 9.569331999999999 22.30386  3.580095 8.396663 22.853495  10.86953508453429 26.16772754504927 27.25014401375098  9.744802732829816 27.76499425316915 28.22804614957508  10.248037 27.151585 26.049356  8.949819 27.23411 27.524057  0.02680700000000003 23.550537 27.819399  0.764763 22.644672 27.826822  1.664134621025515 23.37633461093433 26.75038887463403  1.756580265155169 22.93406388867158 28.02831800347363  2.948256 0.71506 35.606419  3.371563 1.591081 35.643356  2.187340417404054 0.6981458499219915 35.41513825655166  3.164067230528568 1.50156521916444 36.84247932213352  13.078354 24.638405 24.720684  13.738943 24.7232 24.290228  13.68289705312351 24.1420276043081 24.8510587093889  13.21621241994345 23.81973047003651 24.27589785328621  2.392966 8.370703000000001 22.397139  2.761474 7.324936 23.250305  3.096877 4.382407 27.281906  3.23231 2.627664 26.953394  3.19242 3.303172 28.793196  1.570671161331452 3.151218661002469 27.45026565361989  6.567558 17.009865 30.984125  5.517309 17.640806 30.691559  6.845605 18.20541 31.181265  6.52234222462245 18.43862054557491 29.6537930143415  3.302304 14.23271 19.460339  4.438506 13.750543 20.316559  4.312820684480341 15.5299426731371 20.02553586537253  3.377188023640557 14.4752601282951 21.15495831252358  3.512146 19.143234 24.414234  2.427891017596238 20.97233088015217 23.97939452880911  2.44904457071215 20.54439833257412 25.60242301515509  3.909334 20.827328 24.91428  13.98639295630729 22.32551205816349 23.72124214641227  13.274985 22.312054 22.47353  12.71248807030971 23.15502946159068 23.76434376548295  13.82578608523117 23.47759654008759 23.34652563012695  2.382906 21.858818 22.906555  1.768822 20.565317 22.475273  2.0869 21.605131 21.621403  5.49693 24.761221 20.459753  5.124176 24.252865 19.235117  6.082941 23.80669 20.393366  4.886947175633642 23.54584591138755 20.42458776436498  1.224364 23.066236 29.268156  0.662416 24.571497 28.672291  2.543260281390609 24.4473531632908 28.05630469855596  11.768177 18.333923 23.640858  10.83484020131122 17.60029412896319 25.74684586850218  7.687885599223608 17.42533797310925 30.19136189657393  10.60965 28.487808 25.676882  11.83977729882656 27.07678308215365 25.75119836568499  11.379796 27.691156 24.931507  9.90724 22.307312 22.621967  10.743051147439 20.9411368346429 24.49813521652068  11.033294 21.301548 23.248283  10.75888328364637 23.27002392716702 24.20355546969161  12.933244 26.907495 27.161331  13.350389 27.520582 25.984856  12.84401 26.015574 25.271019  4.085579 7.369463 28.91921  3.676081 6.343676 30.258055  3.648543 7.739446 30.132721  1.94758104424664 7.431530975670473 29.26892093871275  0.02680700000000003 2.977616 29.962786  0.02680700000000003 1.650057 28.917238  0.02680700000000003 2.948839 28.317541  1.439930327651919 2.169888763670889 29.26412208392532  0.02680700000000003 12.721975 23.610186  0.02680700000000003 11.263916 23.184898  0.638636 12.617469 21.956867  1.574672196852772 12.59506526824534 23.69351216179657  1.096317 0.638 38.714272  1.543627 -0.01335700000000001 37.520416  1.497247007359883 1.999093709848091 36.79457280715016  2.61505768474394 1.456413487593162 38.58248178757136  4.059169 7.890597 27.506966  4.794579 8.495347000000001 28.34724  3.392998903453955 8.752180887031203 28.48863606678422  12.462471 6.276785 39.173805  11.19089661666494 5.690265697311433 38.19081731854173  12.073044 7.019029 38.541924  12.668952 6.010412 38.350685  2.075296003316874 21.99945819335061 25.48338446126326  3.312441992075409 21.7054261179279 26.38086641346997  4.070892 22.35112 25.56319  2.836463 2.373861 39.990357  2.716544125985749 3.071931995587435 37.69678046262901  1.492678151001903 3.279133597441563 38.39964187654284  3.01800398558222 4.365355149065504 38.6716008078497  9.186809999999999 19.246178 23.665035  8.575179 20.18189 23.077105  7.713574 19.800556 24.085297  8.662049295173164 21.23784588487537 24.56369599904045  7.833122 19.300476 30.7115  7.865451 22.874168 24.85261  9.986720836051662 22.83975034876502 25.4348069117631  8.371057761180737 22.70603671067104 23.46958213523412  10.199379 18.342339 29.259592  9.434476999999999 19.670547 29.451  9.371013634451764 19.68627216164385 27.63946327555692  8.12538451492634 18.45917001589768 28.74012768180294  0.02680700000000003 8.649812000000001 27.09025  0.02680700000000003 7.02902 26.386627  0.02680700000000003 8.358852000000001 25.485004  1.152928229686626 8.634970635087775 26.84906857541736  5.320593 19.698261 31.643877  5.954987 20.691177 31.453377  6.556096 19.494474 31.113197  5.367728566345024 19.74869412712878 29.8605517206555  7.081594 12.632975 19.380384  5.790089 13.776035 18.828096  6.024208 12.733452 20.345013  6.319126057325747 14.74304802280259 20.62013137066497  6.437063 19.790709 23.317284  7.679268 19.131699 22.546087  7.840751 20.68432 22.148258  5.38156 21.307997 23.653627  5.237854 22.772715 23.236561  6.582527 22.441574 23.969784  6.77347675818498 22.72422233493602 22.48146207644853  6.99869 10.725326 24.075588  5.90696 10.388982 24.410706  5.986871 11.722392 23.76726  6.102786728417343 10.66711370769493 22.86139516827776  2.148321 8.09835 32.058502  2.652522 8.711992 30.700006  3.018001 7.213911 31.347115  1.420592537692452 7.554093391952142 30.66119768258188  1.399366 19.506346 25.546223  1.963374551066935 19.65333664468886 24.34316288092102  2.675724 19.363098 25.914106  3.524227 6.600103 27.793512  2.344479773007319 7.550003786605104 27.71580452205707  2.665436351556486 5.973670381071991 28.68403463365997  1.195716 13.334746 20.360147  1.632046912466678 14.91536293985825 19.27355965439559  0.02680700000000003 15.13814 19.980547  1.855316918061062 14.46289386730188 21.6054749360245  12.697202 20.613329 25.183733  12.199991 21.06888 23.575275  12.784434 19.621887 23.539511  11.388673 20.042963 23.555517  4.282037 18.374538 23.269331  4.710309 19.762974 23.284229  10.195421 5.868438 39.990357  11.68507 5.099676 39.990357  11.0854638139882 6.764864662057776 39.07866819308566  0.02680700000000003 3.236346 33.562542  2.522309 2.986084 33.892792  2.20954 1.85301 33.257195  1.248254956617232 1.873017852807638 32.32416895121762  7.228482 20.790501 30.486813  6.264016533080285 21.31226640982727 29.44624725511282  3.836195 10.422439 28.070339  4.379651 10.611332 26.386246  3.839475134111804 9.380218584420255 27.50043295466276  2.897657955372081 10.00312604567317 27.78337456740331  0.02680700000000003 6.576068 33.263737  1.533466 8.121375 33.334061  0.834531 7.748026 34.373596  4.372606692369326 21.34304695111044 18.33046250201665  2.768975325908286 21.18245529282747 20.51134258994755  3.065201720776472 20.09385159783359 19.33908780187606  4.221273927403874 22.14377981035323 20.45981707403028  10.287296 25.599926 25.786068  10.333971 18.105431 23.868681  10.524961 19.273718 23.49745  9.5328805074264 19.30419411620693 25.38400209119714  5.503834579264086 22.24557641725591 21.70742304141975  0.947927 0.711089 27.930456  0.7523496806461508 0.6167503319067716 29.87504989156545  2.612752 0.893889 30.971436  2.587726 0.629078 29.503416  1.843959 -0.01335700000000001 30.415695  1.55300983648632 1.669919948023772 30.74818912507023  12.847975 5.07814 38.949997  1.338674 10.957911 22.166231  2.187018 12.371036 21.3752  3.246394781939962 11.9565868268149 23.39082594479408  1.020627 19.843258 23.253395  0.02680700000000003 19.716267 24.399862  1.17876468726483 20.60172994527769 24.80173739639722  3.584855603525947 16.1325832916291 21.97449003872513  2.222089632651209 15.78899451683231 20.24012823048869  4.573042 11.652337 21.81654  5.539625 12.632666 23.231672  5.722532802363206 12.73148121021593 22.2321698709343  4.313880979333044 12.93596937327963 22.77459161902787  4.84965 8.885597000000001 23.249735  5.65694 9.343239000000001 24.201956  5.603454 9.546113999999999 22.154425  7.507118 17.987558 26.454699  7.919944907587695 20.07799874916005 28.6462980775665  12.520967 27.779728 28.814775  12.345116 29.145334 27.789717  11.49042910858751 27.98665046697701 26.93526878604365  10.533118002486 29.02919769693375 28.16299148657963  3.275159585529635 10.09620199773656 28.9122717578199  9.197857000000001 18.05504 24.171219  11.198967 26.200565 24.787338  12.18645 26.789845 24.32514  12.38070290058183 26.22093920373355 24.16206795255782  2.707785 3.529755 22.66572  3.194216 3.376536 24.179119  1.479361730011364 2.897906920457269 22.96303270774423  2.784528579889439 1.700884328798009 24.04278141705315  0.02680700000000003 6.930294 36.07909  0.02680700000000003 6.404526 34.885223  1.392051 7.914228 35.998283  1.486682768784499 5.910798228764215 34.52291848092786  0.02680700000000003 1.601157 27.291243  7.329278 23.765625 28.280434  6.302627 23.848297 28.598303  6.848693 23.181852 27.562973  6.571002658369143 22.68420747990353 28.4931367068945  0.02680700000000003 2.930121 25.21727  0.02680700000000003 4.01583 24.246229  1.621036503435418 3.64464054736461 24.89027148837313  1.395097659868281 2.345610071107976 24.54558255367817  2.684196533320725 13.46677050861513 22.82793688126465  3.675785 12.258343 21.74663  7.6
[...]
<PointData  Vectors="u"> 
<DataArray  type="Float64"  Name="u"  NumberOfComponents="3" format="ascii">5.0297552664449787e+00 1.7388302438035552e+01 7.3996352593129174e+01  1.0835685184010783e+01 2.9373504334774879e+01 -4.1121277382766735e+01  9.0480609330510788e+01 3.7371247597362498e+01 -5.9949139694928505e+01  7.8012397235051026e+01 1.8830313309465144e+01 2.2397075032125727e+01  1.2863800642513787e+01 1.4205282182484875e+00 1.0574466145854400e+02  4.1999614849549779e+01 2.2158613570835342e+01 4.9991724882828215e+01  3.1034931500882362e+01 4.7363120448308500e+00 7.4863356297461635e+01  -1.6205225336717257e+00 4.9128670719989003e+01 6.9906727440964531e+01  1.3585985692845995e+02 -3.9742492948922077e+01 -5.5083890610001355e+01  1.6716377109017787e+02 2.4543846168596744e+01 -1.2622365722631772e+01  1.0473025701185063e+02 2.8788827909579833e+01 -3.1978314129434158e+00  1.1552951861295546e+02 -1.1496460194585303e+01 -2.0042603109605267e+01  3.6292460042953303e+02 1.4461998075065044e-01 -1.2058664338233005e+01  3.1675836595231380e+02 2.0949285277299914e+01 -6.7167340034859233e+00  3.2639618514060157e+02 1.3580371240164691e+01 -1.1867786127071236e+00  3.4185344551248608e+02 -7.0093077326743964e+00 -3.4730462878969219e+00  3.0766111421430048e+02 2.2161211960044025e+02 -6.3775722924289084e+01  1.5349044903227741e+02 2.2647361274623808e+02 -1.1867244891888508e+02  1.1777784121732560e+02 2.4492826866667693e+02 -7.1538722655133640e+01  2.4664164018086339e+02 2.5514633725936781e+02 -7.6023842912754930e+01  1.3347193484095323e+01 -8.8652428181997447e+00 -2.5414682946949608e+01  8.1632561492375935e+00 -1.4828790866204351e+01 -7.4582921618597595e+00  1.8442798526892556e+01 -2.0335635377779703e+01 -2.1686517533366214e+01  8.6179649957182836e+00 -1.1285489797461226e+01 -8.6572857018708405e+00  9.0754466815695196e+01 -5.1209587560104035e+00 7.6318732151114617e+01  4.0428600872489305e+01 -2.6562427764046653e+01 5.8436122566149415e+01  3.4982058565938274e+01 6.6990087236386628e+00 3.9285871332020683e+01  3.7161891519500735e+01 -1.2373596182984524e+01 5.0289372473085322e+01  1.1337829519580136e+02 -2.0943612351155831e+01 9.6231315327604150e+01  1.7784932977479849e+02 -1.7343207948304261e+01 1.0581030570959611e+02  1.2407902413249560e+02 -8.9056960708753934e+01 1.1720274378007323e+02  1.4653176637888473e+02 6.8754959759642116e+00 9.2596252118902427e+01  2.1596152121865825e+02 -1.0020814199102580e+02 -1.6418380269491408e+02  2.7312047792379877e+02 5.3307145241530385e+01 -6.1636268420012662e+01  2.7144305448414468e+02 -1.4667106692275315e+01 -7.1312388936844798e+01  2.0538631016176276e+02 -2.2597551254296433e+00 -7.5385755439503470e+01  1.8628620886616579e+02 2.5649670572900760e+02 -5.8005683007952342e+01  1.1551813926098842e+02 2.7254769671925317e+02 -5.0929223432455835e+01  -1.8894568200502935e+01 -1.1755013499645473e+01 -1.4980660234076902e+02  3.5547242516308884e+01 -1.0837847750999825e+02 -2.3519472232178160e+02  -1.8964266608669016e+00 -2.0782959071709808e+01 -1.2489182371107209e+02  1.0774844430743801e+02 -4.2678126057762626e+01 -1.7190705703976951e+02  3.1324237089973106e+01 -2.5946168446957575e+01 -1.0685548562543237e+00  2.6329128538907710e+01 -3.8011508131107078e+01 5.0380279028486852e+00  3.7182079806509527e+01 -3.7744837336172459e+01 8.6075030216277231e+00  4.0600933310028019e+01 -3.5297572972886414e+01 -3.0828521627233512e+00  8.5555558993196513e+01 2.8162092701639544e+01 -2.9664561812383045e+01  1.4271947252739804e+02 3.6397885649939457e+00 -6.9982920903361531e+01  8.6503906277813414e+01 6.0572198740564174e+00 -2.0730311598996657e+01  8.9562017735820660e+01 6.2252777408669317e+01 -5.6471308153540221e+01  -5.3592525212358382e+00 9.5864537177011812e+01 9.5639404337153053e+01  1.1411588578856247e+00 5.0775923113772869e+01 9.1513927373814070e+01  4.9710809798558650e+01 5.8051167648361215e+01 9.9750201849546627e+01  3.3654586288228103e+01 4.8493933026024131e+01 1.7081025391791653e+02  1.5162730132837342e+02 2.9462555333670011e+01 -3.2566101372486735e+01  1.4688224610462495e+02 9.3872684396674333e-01 -9.4626909389677522e+01  1.7876558697133157e+02 1.6953475379176847e+01 -6.0537574780402096e+01  1.5860072787269235e+02 3.1312236144709715e+01 -4.6846983056322628e+01  -3.9434812565869407e+01 1.7946773804238003e+01 1.4329999329238930e+02  -4.6005322629626406e+01 3.0766238983268043e+01 1.0924293884925723e+02  3.7273031665307933e+01 -4.8424714422843174e+01 1.4962697524854070e+02  9.8414143113886780e+01 5.5720396154520708e+00 1.1197631956062435e+02  8.9670544273774382e+01 -4.9013054336108986e+01 1.3816258872397688e+02  1.1739314393912764e+02 -2.1509771635372726e+01 1.2393707057275751e+02  9.3139489187800692e+01 -2.7524325677778403e+01 1.1064480235450407e+02  2.9707194148126806e+01 -1.3216156531739555e+01 5.7237569468186962e+01  3.0919481576349366e+01 -2.1263603831467321e+01 6.0925204141549720e+01  4.0907699650939861e+01 -1.4951186605449056e+01 3.7892675835729953e+01  1.0807021957106274e+02 -4.7337121672691582e+00 -1.9592105170941444e+01  7.9853333300087527e+01 -2.5671853991542806e+00 -1.0350992852200912e+01  3.2181038392484552e+01 -2.7353757711868155e+01 -7.6306155161324938e+00  1.2787292557048270e+01 -1.7603967712378061e+01 -1.3556788079666457e+01  1.0875350589645159e+01 -3.2351050791590787e+01 -2.9547541006239896e+01  1.4634773652842677e+01 -3.3049117045713921e+01 -1.5404853196709237e+01  1.9860336963958258e+02 3.0432309671901876e+01 4.5377152022697238e+01  1.3032047374611105e+02 -1.5727596582417852e-01 -7.3629130958732214e-01  1.5656594189154217e+02 2.3126663944590291e+01 3.0770687762337467e+01  1.3987287638718595e+02 2.3703099878631321e+01 -1.9423127252687216e+01  -1.7922543971919420e+00 -9.1437868549344348e+00 -2.3001735642232788e+01  -4.5908338016625097e+00 -1.2467709936991660e+01 -1.6178547175397178e+01  -1.0021371335540076e+01 -8.1386103631655175e+01 -6.0275516230750213e+01  5.0560437954185979e+01 1.5526952930168409e+02 -1.1837610717542304e+02  3.2633364521846289e+01 7.4498407781227527e+01 -9.6973106179586480e+01  6.8500350828898732e+01 1.1458929351959593e+02 -1.3133457509099381e+02  9.9136378750160205e+01 9.8641773136691356e+01 -1.2934647773084353e+02  2.0167354029002254e+02 -3.2633607898956171e+01 -8.2169405691784817e+01  1.6323281332667378e+02 -1.1522655405862342e+02 -1.3235256889860801e+02  2.0252202471740739e+02 -4.2243996724038176e+01 -1.4161343889584168e+02  9.3199285438531732e+01 -3.8498288870404309e+01 -1.1956205089545411e+02  7.1609672256659323e+01 2.9317968714194831e+02 -1.1614620334485413e+02  1.1161430340297235e+02 1.7227254261632896e+02 -1.7380872341605706e+02  1.2728255214982701e+01 1.8655197940656677e+02 -1.4878572438895873e+02  6.7296038718542718e+01 2.0646066635284762e+02 -1.1222111176635775e+02  6.2669644798755463e+01 -2.6351255024698563e+01 7.8192922745626674e+01  6.1716790647784869e+01 -3.4750442116395682e+01 6.2515168350347764e+01  1.4815803424388915e+02 -3.9229698030849946e+01 1.0703669142974947e+02  1.2140596741828226e+02 1.0019529157041056e+01 5.5651873616423565e+01  5.9317154404416627e+01 1.6768145765128537e+02 -1.5886765027871388e+02  8.6921799121484511e+01 1.0657089140329285e+02 -8.5315118357461401e+01  7.3863275984933637e+01 1.2282725203709231e+02 -1.5633054744950073e+02  5.9039327172536439e+01 -1.1059322173372982e+02 -9.3217179006301947e+01  1.8764530743274346e+02 -6.5512783592171075e+01 -1.1215706374051395e+02  5.6775432964122373e+01 -1.0990206395499959e+02 -8.1534202272241501e+01  8.5110790683893327e+01 -1.6016087415685860e+02 -1.5943683785533841e+02  2.9316837842377115e+01 4.5495490488741851e+01 7.5227332444471855e+01  6.1132850454803446e+01 1.3520628768573733e+01 9.2507040269686925e+01  6.8163195568054732e+01 2.2314222825166688e+01 1.2592649864862770e+02  1.3117721846089563e+02 1.1449526110401317e+01 5.3715219898195503e+00  1.6549029309144001e+02 4.1702900292063383e+00 8.9321215691305696e+01  1.3124301351360771e+02 -4.7603036124048836e+00 9.6742121562647668e+01  1.7137022193774035e+02 6.0088963216639462e+00 5.5424013621133717e+01  1.1995586637596224e+02 -1.0253304723294154e+02 1.7420465273670217e+01  2.8449124911784799e+02 2.8070379101663466e+01 2.1452021075664439e+02  1.6187269291937685e+02 -7.4328450955380134e+01 2.2434835490920958e+02  1.1199927862383615e+02 -1.5500589863839133e+01 7.7319672108621035e+01  4.0195705058085800e+01 -3.2446747997802071e+01 -5.8264402805779865e+00  8.9901032653046258e+01 4.0282637136601558e+01 1.2555595170084585e+02  8.6594566846095034e+01 1.8774140815451279e+01 -8.9531935009917607e+00  1.8380082245221823e+02 2.3662389269126056e+01 9.5663889324748695e+01  3.1491221368023709e+01 -1.9558203343451613e+01 -3.3606586903436266e+01  3.7519551866089373e+01 -2.1149841538720775e+01 -2.2518343356409041e+01  5.3555257081579803e+01 -2.0483981958191436e+01 -1.7464992945514268e+01  4.2200767836755816e+01 -2.7140268354169180e+01 -1.2588803170603395e+01  1.4061234005362465e+02 2.5264493168159044e+02 -1.2441901398630023e+02  2.0721783226010268e+02 1.3613155799362619e+02 -1.4196958914664131e+02  1.6075831854500987e+02 2.5582944395391903e+02 -1.3143927145854420e+02  9.8884569928019758e+01 1.9174531601307348e+02 -1.6427377281455034e+02  3.3264984223819177e+01 -3.0676541219161013e+01 -3.4709746673369693e+01  3.3142790485197210e+01 -3.0432168245922277e+01 -2.7878366422842532e+01  4.8520765355433944e+01 -4.4738797448988812e+01 -1.6485561949896478e+01  4.3777563404012348e+01 -3.6339082982700354e+01 -8.7423142664459297e-01  1.0276045439398668e+02 -5.2456331133777475e+01 -6.8161812548195513e+01  1.2290426314475009e+02 -6.3505545319777184e+01 -8.3630191836530827e+01  1.3748845855785925e+02 -3.3042124410719893e+01 -8.7993311021980404e+01  1.1348447085927251e+02 -2.6434311198145309e+01 -2.1576738644080226e+01  1.9728543296750541e+02 1.3834277388220309e+02 1.3568760443036203e+02  6.7233332215367000e+01 1.9526383241599513e+02 1.2685411424215596e+02  1.7659324439912160e+02 1.0218540174998280e+02 1.7688891492867151e+02  1.5553908189820928e+02 2.4302721532549594e+01 3.3188146452351496e+01  1.2153731149181318e+02 -7.2850368869081867e+00 3.7508924947706376e+01  2.1861732867122069e+02 -1.7258956372397687e+00 1.3358101096248078e+02  1.6915473716135565e+02 -5.5102031547994326e+00 1.2601050328109963e+02  4.5166505987349274e+02 3.6098584561363438e+01 -3.6361547138441765e+00  5.0603002528705287e+02 2.3653188622698419e+01 -2.6600068893912697e+02  3.9286065531107045e+02 7.6707126125604233e+01 -1.2373678113092090e+02  3.4472293042907569e+02 2.2301933881368150e+01 -1.0908773922494996e+02  3.0150591344502136e+01 8.9085492535516213e+00 -7.8876962191943790e+01  9.0182352603615186e+01 8.5971701409989450e+01 -1.6130865057099609e+02  3.9745053666397475e+01 4.5466803038662924e+01 -1.0416860898629631e+02  1.0739450625395220e+02 7.2472836849373110e+01 -9.6033480933297653e+01  3.0173230168369585e+01 7.2166767193950534e+01 3.6832510205699407e+01  -4.4070511802904289e+00 6.4781684411148021e+01 6.8480498090108540e+01  8.4795351231325057e+01 9.8897178807920412e+01 1.3960520955416524e+02  7.4396850797068748e+00 1.5150593137934806e+02 -1.1228522695271029e+02  8.1029120863068599e+01 1.3687284852158399e+02 -1.4651527649631606e+02  5.1608994141051717e+01 7.6157743826300532e+01 -1.0790564289757540e+02  2.0311902381273628e-01 4.6650864838976787e+01 -1.0008532183865054e+02  4.1296968844499006e+01 1.5600502605535324e+01 -1.6457298286399197e+01  1.1021306049608841e+00 2.1889620152636876e+01 -2.3549482789889904e+01  4.5644853391056969e+01 8.7226483134053339e+01 -6.4373669339290601e+01  1.7439257393762753e+02 5.9541654422060262e+00 -6.9960202249870420e+01  1.9317207660695448e+02 2.5626153718517902e+01 -1.5173741404988627e+01  1.4138562654827541e+02 3.7993134635614226e+01 -2.5179798025362864e+01  1.4076782425573361e+02 -9.7584140291799670e+00 1.9492858303070175e+01  1.5565337719308079e+01 6.7839314700111643e+01 1.9557774302652007e+00  4.0337243874389571e+01 5.8188603179438367e+01 6.8790285130254825e+00  1.9859140201635913e+02 -2.4114079286131030e+01 5.1601612924923232e+00  1.4231426386301001e+02 -9.1671588854823398e+01 -2.0622155139302805e+01  1.3336664272822469e+02 -5.6897850715944934e+01 -4.7969457160355169e+01  2.0256664286393439e+02 -2.2291356205907856e+01 8.0163658049294497e+01  2.1659172645483984e+01 2.9681243377475379e+01 1.4206327743398171e+02  2.2336026458980056e+00 1.8315803131185902e+01 7.7720249407728076e+01  7.0028165455973905e+01 -3.2231588566465732e+01 1.5749705841808161e+01  4.9512407283973978e+01 -2.9376971931975660e+01 -1.8628048731626084e+01  5.5271876560548996e+01 -2.4837012838916262e+01 -6.6419301549223366e+00  2.0978333364676189e+01 7.2540505951744251e+01 -1.7686388170247935e+02  3.2216212118202220e-01 1.3988482597371001e+02 -3.4165114166901236e+02  3.5678058777837244e+01 1.1497244318695790e+02 -1.9689474718174918e+02  4.1695933859981601e+01 1.1321876743642134e+02 -2.0165440484234702e+02  1.6330570128846759e+02 8.1839776723327716e+01 1.0647746114194032e+02  1.4131931293247165e+01 -4.2573367298874302e+01 3.8169005716021964e+01  1.6527880633712364e+01 -2.0622909396803642e+01 1.5511407301641526e+02  4.5677027343202347e+01 -4.4344577516086289e+01 4.7780133048505270e+01  5.6675941210710945e+01 -3.0773723921369271e+01 8.8222388819380626e+01  5.5756628245368951e+01 -2.6054647503020007e+01 5.2970153009524267e+01  7.2534755037094001e+01 -2.8795992339663041e+01 8.9925356883363733e+01  2.9694075712628891e+01 -7.3273218320075841e+00 -4.6212034344605847e+01  7.9057404731635927e+01 -2.0962456177221210e+01 -7.7113666557055973e+00  1.0543410834069212e+02 -3.1241809059211619e+01 1.4020507913081289e+01  7.5774935638177851e+01 -3.1524961288555140e+01 -2.1248272607473924e+00  1.0726456921154983e+02 -1.9964540890897655e+00 1.0025293254235736e+02  6.6329554940904998e+01 -5.9999570092712794e+01 -1.9021491344753460e+02  4.0510743952996705e+01 -5.5347538117584243e+01 -9.1424754419502207e+01  1.1388774280692793e+01 -6.1163885859608291e-01 -5.7685662286827259e+01  2.3803955451946194e+01 5.6513491677940992e+00 -1.4217699370772772e+02  8.7515168771665663e-01 4.1248479888812817e+00 -7.6865104609285694e+01  6.3174497714410137e+01 -3.1856933432850802e+01 -6.0195566528549790e+01  1.2740994373207650e+02 -1.4015759852282750e+02 -1.1618867103616174e+02  6.1706993570807505e+01 2.2206073628661133e+02 -9.7983236879157616e+01  4.7149462426688103e+01 1.7969057357100010e+02 -1.0884335007583994e+02  1.3888720208527025e+02 1.6721455562711512e+02 -1.2632960594572715e+02  -5.1245573216097668e+01 4.3026329762900865e+01 3.5989805217739274e+01  5.4912066378769026e+01 -2.5671582705937180e+01 5.4517600465832174e+00  3.3292928844864768e+01 5.7615246532645898e+01 5.8265845956730033e+01  6.4409994192286078e+01 5.8334232173036561e+01 -2.1288736311058493e+01  4.9476349819943373e+01 3.2983466611368677e+01 -1.2866342681135924e+01  2.7140850050765658e+02 1.2080198444493952e+02 -1.0230357708373715e+02  2.7909268850493123e+02 7.3801980925303667e+01 -1.4767354234610931e+02  2.2261792256068296e+02 4.3150798600692895e+01 -7.6454798279275806e+01  1.6754438667973733e+02 1.1090901256005500e+02 -1.1810273750602801e+02  4.9142622022566275e+02 1.6096142264954958e+02 -1.7728357313814399e+02  5.7975987227695214e+02 4.4249396177853150e+01 -2.6306191231362220e+02  4.9494839963751792e+02 -2.0401675698712496e+00 -1.3405788446136378e+02  4.3304002324057251e+01 -3.8202266667122835e+01 -1.7023409275327950e+01  5.0912830920755532e+01 -2.2226355421206360e+01 -1.1715804548309267e+01  5.9622787954320629e+00 -5.3433379019244436e+00 -1.0318742052704915e+01  1.4738308471094289e+01 -1.1549083839878710e+01 -1.2173813029954896e+01  1.2034690280435225e+01 -1.7076702864826323e+01 -1.8166333740213176e+01  1.6458874926047454e+01 -2.3456585355696220e+01 -9.7810386272470495e+00  5.4717864277393645e+01 1.0693884780196467e+02 -1.5589188027129308e+02  5.2373778354330483e+01 -4.1349658318611453e+01 -6.2332462982869501e+00  2.2430799917866846e+01 -5.4237115449403937e+01 -4.5672467878784573e+01  2.4719404519802680e+01 -5.7657535094782070e+01 -2.2914409687845168e+01  3.0836770521911671e+01 -1.7171886906569600e+02 -9.0918998552001540e+01  3.9077290515083126e+02 -2.0817205793485593e+02 -3.5916360969921436e+02  2.6237476977014376e+02 -2.9414522697099278e+02 -3.1000402935215186e+02  1.7630812360790225e+02 -1.6493488100066122e+02 -2.6820698584659669e+02  2.5253353915223150e+02 -8.0275169584240700e+01 -2.7626902560081339e+02  1.2326477583235369e+02 1.2137814457911597e+02 1.4675180909079251e+02  1.2944439585387880e+02 1.3466460726735988e+02 1.1206304620898609e+02  9.9093305596485237e+01 6.0796832463826028e+01 1.6243175345731316e+02  1.2179398176080629e+02 2.8287418538532496e+01 1.3686803120882163e+02  1.5979951116994152e+02 -1.3370949711970533e+02 -1.8182916241934541e+02  1.2311021287147598e+02 3.6532794386306847e+01 -2.5591898780481429e+01  8.3121615518614377e+01 -4.7164570309953213e+01 -1.5290918869218201e+01  1.1683506800383363e+02 3.7162979647759697e+00 -2.5289086545424237e+01  8.2098450479993090e+01 -1.7539528715503366e+01 -1.0833108968297152e+01  2.0631692962559347e+02 -8.7649110207689787e+01 -2.2023995366114343e+02  1.9733591625365676e+02 -1.0005428934358073e+02 -2.0527622987969826e+02  1.2782457740882401e+02 -1.0252477145475406e+02 -2.1486190718800918e+02  1.6718805023956250e+02 -9.0618970655411061e+01 -2.4937988469957909e+02  8.4481065751439729e+01 1.4223118232942497e+02 -8.9164981777900152e+01  1.7577619629369843e+02 1.7278333294157997e+02 -6.1785635081412366e+01  1.1023151897637339e+02 3.8898684197905169e+01 -3.3272796725914588e+01  6.6785449233881934e+01 -1.7628501522394370e+01 -2.9692520326686424e+01  5.8730924349348939e+01 -4.0041291053448951e+01 -2.7856892350991863e+01  2.3124954366565723e+02 8.1716318953532578e+01 -1.9187144935245207e+01  1.9325365660089622e+02 -2.0343707006307379e+00 -8.3348058508802794e+01  3.0703007839413129e+02 5.2302979741658582e+01 -3.1169080493890746e+01  3.6843374853358267e+02 1.1754754792039058e+02 -1.4277781813679346e+02  5.1482780914454622e+01 -4.9380381400388849e+01 7.6430322194706779e+00  3.3031512900166028e+01 -4.8547423507767121e+01 4.4474586185246361e+00  3.3122648959761129e+01 -3.1929244620856011e+01 7.3028202376194640e-01  2.9590930542864118e+02 -1.2146217227319757e+02 1.9676684861434346e+01  2.0208779983969262e+02 -3.8262407101294230e+01 6.4788236114611720e+01  3.4962053517623235e+02 1.1948697331625429e+00 4.4450783970285308e+01  2.1161018348612811e+02 -8.6351559965309885e+00 3.5632117193244852e+01  1.8535256165388358e+02 5.0111280543499014e+01 -7.9404464534229646e+01  1.3550262701147521e+01 8.8480679795980883e+00 -7.7408153927131607e+01  8.3238123943924862e+01 -1.7616660316573141e+00 -2.3202833150554916e+01  1.0823476865384204e+02 1.1927670225741801e+01 -1.0500878867242795e+02  2.0042001715648615e+02 6.1563083855148982e+01 -1.4059031640953813e+02  8.7055118244755477e+01 3.6533109238758890e+01 -1.3766712190284724e+02  1.0494928387052208e+02 8.4224947009738472e+01 -1.4398027752009219e+02  1.3005563535252475e+02 1.1250199994096596e+02 -1.4161953275771407e+02  1.5194465926519550e+02 -3.5212053357533651e-01 1.3004090601325410e+02  1.4482946203211648e+02 -8.7502951818542840e+01 9.6418714556027979e+01  1.5797299497841175e+02 -1.1073877168001985e+02 1.1232726403889099e+02  2.0197562111841813e+02 -1.4180234238666456e+01 1.2640034963172870e+02  9.5811413397523324e+01 6.7994160662498828e+01 2.4663675120776031e+01  6.5502286432795273e+01 8.1694866749779152e+01 3.1533994249730803e+01  1.2253955211109079e+02 5.3668313235465760e+01 3.4603866592058317e+01  9.8765941372475410e+01 4.7722209129316866e+01 -1.2246238198788181e+01  1.1353339406887491e+02 2.1164470373790837e+02 -1.5683285137703677e+02  1.3039393264077441e+02 1.9261167422970462e+02 -1.7637975963510095e+02  1.1059618747768495e+02 1.6876820829196322e+02 -2.6494496829732282e+02  2.4686554522660953e+02 1.9279783752339682e+02 -1.7453741896196536e+02  1.0706207456164899e+01 -2.8818113302814858e+01 -1.0315230994869985e+01  8.2424655537172544e+00 -2.2025918706952460e+01 -1.1941756938969302e+01  1.2317658962577688e+01 -1.87337949484702