<?xml version="1.0"?>
<VTKFile type="UnstructuredGrid"  version="0.1"  >
<UnstructuredGrid>
<Piece  NumberOfPoints="2385" NumberOfCells="8458">
<Points>
<DataArray  type="Float64"  NumberOfComponents="3"  format="ascii">2.90454 4.176408 33.002907  3.103756 5.530081 31.822014  1.872853508738427 5.428076532250634 30.75962691114437  1.593032580551337 6.516206925562702 32.61205706817097  1.94901 20.12051 21.513597  3.878021807445372 19.28318309855155 21.52262426538138  3.717435871062236 21.03510333841442 22.3288406546044  2.790950031577306 19.75197003392619 23.00707691568793  6.042869 15.602733 8.488417  6.868001526110733 14.80300069729249 10.2948421709327  5.696989 14.035275 8.999413000000001  7.914386996147353 14.73161335713953 8.600378306605915  8.295901000000001 3.186718 3.4129  7.617446 3.154827 4.827653  9.22982508957686 2.601804030519305 5.298688609015728  9.007397772065213 4.219407273410644 4.550883273149393  2.448202 5.255555 6.494065  0.926555 5.860102 5.010828  1.063020072338049 5.819623678969101 7.235964686371542  2.176348074938106 7.131714767796274 5.960026261440419  1.581301 20.257883 9.745307  2.410212 18.94964 11.166793  3.297106 20.140476 9.822196999999999  1.778169124609136 21.06102915602328 11.1783700543164  3.830584 9.395108 22.232059  2.369615039764684 8.798508775594295 23.59068348349345  2.001508 9.569331999999999 22.30386  3.580095 8.396663 22.853495  0.02680700000000003 7.988906 8.191083000000001  0.02680700000000003 6.59597 9.351971000000001  2.111834162182856 7.052470563688375 7.823097169765382  1.492335708771248 8.950432661514181 9.254331714176079  4.399418 12.331587 6.00383  5.432504 12.992594 6.727538  6.362363944667335 10.95096170531796 6.432312642768274  6.108663486634345 11.93843376498272 4.61472093056154  16.809328 -0.01335700000000001 4.290929  17.893618 -0.01335700000000001 3.426736  16.887096 -0.01335700000000001 2.665009  17.19005962777042 0.9865154810395201 3.468847324527784  0.02680700000000003 15.13814 19.980547  0.694232 14.071859 19.307213  0.02680700000000003 15.162457 18.655331  1.632046912466678 14.91536293985825 19.27355965439559  13.811415 -0.01335700000000001 1.883382  12.623406 -0.01335700000000001 1.202114  11.868628 -0.01335700000000001 2.164625  12.43506883465064 1.524002120873115 1.504551711397707  6.552649 4.432037 9.512362  7.088001 3.444018 9.255940000000001  8.280275708770848 4.730765446633938 9.068067663216844  6.907149891088562 3.794237168272217 10.69315974700493  10.574735 15.122467 2.431834  11.616045 15.224722 3.883815  11.66724483423557 13.32509570250734 3.917574325563651  12.12044193551288 13.96501546268771 1.87154009906439  17.084988 2.840739 3.323675  17.688803 2.113634 4.364354  18.16325909322191 1.665831259172509 2.190629801551494  7.731139271748193 15.37261636647075 12.28524753197804  5.632441056138799 15.02865203157927 12.07046961428611  6.322333743279195 16.45138937450873 13.67758764260342  5.869731370736135 17.40975346857281 11.91703072306095  2.948256 0.71506 35.606419  3.371563 1.591081 35.643356  2.187340417404054 0.6981458499219915 35.41513825655166  3.164067230528568 1.50156521916444 36.84247932213352  9.446431 11.897923 12.22177  10.732734 12.828452 12.486292  9.557038 13.092218 12.045273  9.222442888934532 12.6856621973251 13.2555484921753  6.390335373835473 14.47273484023742 14.67479206197473  8.577643471841389 14.78685184313636 14.54440214858186  1.993916539635067 1.470664332401625 9.294004668145048  2.141697654164654 3.213047820645816 9.637282694323707  1.522471004553983 1.936125884619313 10.97969600157967  3.683623389785226 1.482370756695182 10.09957208699594  8.329472779634187 11.57683991146848 4.013694237897885  9.203268966199607 10.45085209421719 2.532970442076513  7.643328 9.636744999999999 3.294705  7.899514 10.525414 2.3248  4.038899895822237 18.99462615165189 11.81873264996385  3.345284627883075 20.48072871061609 12.43341079131708  2.789471072989422 19.1446459184935 12.69165069178368  10.838786 9.965923 5.674525  9.619973 9.140874999999999 5.946559  9.580470999999999 10.434439 6.185766  9.495739121118527 9.975798001699383 4.254600583446018  9.988780005831709 6.190788511188918 15.77902919721475  11.179282 5.873302 17.723663  9.145749075111736 5.529626875822297 17.47784288742655  11.09657596658009 4.208204617489974 16.22286704003758  14.218038 4.28757 2.427491  13.330557 5.203068 2.086248  13.708489 4.63459 1.052371  12.82105548759126 3.430074529142398 1.593537613576033  2.392966 8.370703000000001 22.397139  2.761474 7.324936 23.250305  7.83969 11.401094 18.866152  7.970737 9.526768000000001 18.709095  8.114757000000001 10.404844 17.375065  9.661895556268984 11.13035759682561 18.38950683874881  3.34878 25.157225 19.379133  4.377492 25.042206 18.826677  3.231803386576169 23.12792299824329 19.20803203258031  3.179247923952101 24.19689325945012 17.58004827539107  1.596517 23.627493 20.192249  1.310247 22.341372 20.428564  0.697731 23.09848 19.3281  0.715757 11.161253 5.546711  1.696484 11.776858 5.782785  2.194420395722051 10.05534121404246 5.368221738456233  1.781082699091642 11.31436040575574 4.601134685425235  11.911609 11.030614 5.646666  10.934191 11.342886 6.723285  12.194642 11.899702 6.951362  11.92609363893116 13.05008141558008 6.296819157747269  3.096877 4.382407 27.281906  3.23231 2.627664 26.953394  3.19242 3.303172 28.793196  1.570671161331452 3.151218661002469 27.45026565361989  11.910056 7.016675 1.488262  10.702551 7.39953 1.169782  10.436253 6.229518 1.624346  10.91910015456106 7.049681864307057 2.497775279891517  3.302304 14.23271 19.460339  4.438506 13.750543 20.316559  4.312820684480341 15.5299426731371 20.02553586537253  3.377188023640557 14.4752601282951 21.15495831252358  5.933671 13.989018 7.593861  5.76661363851561 11.75118066494402 8.837278552843456  7.451989 12.071693 8.719601000000001  5.032613 12.788944 8.633946999999999  5.977271 11.966088 1.56851  6.129263491996168 14.14960305298031 1.994590729163137  4.591065 14.230147 1.784055  5.141148898047769 12.48921094913477 2.969905000316842  5.917176756732391 12.39961592142705 10.07514294071668  7.549423 12.012113 23.769033  6.99869 10.725326 24.075588  6.102786728417343 10.66711370769493 22.86139516827776  7.900880238691684 10.42923520661422 22.99384366107185  3.512146 19.143234 24.414234  2.427891017596238 20.97233088015217 23.97939452880911  2.44904457071215 20.54439833257412 25.60242301515509  3.909334 20.827328 24.91428  5.635177 5.678625 7.975714  5.213851523209087 6.75725704262601 9.991836072185778  7.191723400697119 7.643208805298558 8.467661669018131  5.019844343618873 7.667216443463015 7.638732413648432  16.28438035586666 16.99504756230326 18.52014104585934  17.88185771163799 17.65929454632714 17.28781645341589  15.97591134748782 18.40077231120316 17.36290676869957  17.25094825698273 18.19880591881165 18.56777877942103  8.777300287017422 12.97111320031194 19.2544453347335  10.78389105407233 13.04045461671801 17.23826246875363  8.853156195584134 13.48970248203965 17.59792807719317  3.400465 32.449215 16.763197  4.800648 33.216667 16.499775  4.198258552881716 33.39421215672068 15.14291225398239  3.24898509940653 34.33486442475765 16.42106082231366  4.516026 35.888237 18.611467  3.509808 34.625431 19.140245  2.948680626065284 36.46734769150365 19.40666729323499  3.254995841415359 36.4830360273038 17.63665009741101  2.382906 21.858818 22.906555  1.768822 20.565317 22.475273  2.0869 21.605131 21.621403  0.794529 21.657116 19.355013  6.526152 2.412904 13.260274  4.491807321967943 3.332118305835046 13.39917909072997  6.788650321256785 4.590741028831713 13.09792491512525  5.785505148348778 3.315469719691901 11.71848385807122  2.734245 3.858826 20.164335  3.279563 3.859145 19.106361  3.759705679514101 3.986724431482681 19.5737817055754  3.397803775553687 2.784263217453935 19.34558403347455  2.50017 40.003617 23.075459  1.267499 38.554485 22.550705  2.147431 40.003617 21.532776  2.462447826113686 38.14520302808795 21.69123070199086  2.058006 40.003617 18.939367  1.658614 40.003617 20.244114  0.8298 39.370419 19.70191  2.094449807866842 38.88109055929553 19.69564574016417  5.49693 24.761221 20.459753  5.124176 24.252865 19.235117  6.082941 23.80669 20.393366  4.886947175633642 23.54584591138755 20.42458776436498  14.219347 18.573311 16.207661  15.1453235837181 17.51050715164101 15.79036627811332  14.520689 17.572872 17.005796  14.847478 7.372294 18.44067  15.47636193894769 7.708245275590659 17.17910925728127  16.90517269962391 8.408571693471245 18.13961886630183  16.20942426121992 7.082583949564549 18.52735266628873  10.722383 14.720904 7.44913  9.871409999999999 14.015862 8.404391  11.45241726180387 14.94160101575495 9.155917222143952  9.667733573851796 15.45136470347931 8.193027552532628  11.646386 14.998699 16.394629  10.97296606068113 13.99555830465579 15.08983287718016  10.519145 15.804045 15.53073  12.14034158159661 14.95738201163948 14.99632966937557  11.082023 5.254877 19.159706  11.826626 4.477274 17.576538  9.079328560553165 3.346633638265568 18.09416463301836  20.080233 15.073701 16.690472  19.521885 13.552641 16.868778  19.20088 14.567559 17.600945  18.71644331764685 15.13440831804488 15.7568882136259  13.451139 4.975018 3.445527  12.675958 6.205115 2.393223  12.04365044063879 4.940427570926335 2.215689540025914  7.781537 1.832801 4.123065  13.53021 13.21745 14.446364  14.824998 13.11365 15.09656  14.713464 14.433931 14.689641  13.4826209136952 13.04051838793592 15.75657414423645  7.244629436753757 11.98083833586169 12.82874594864811  6.630629 11.72057 14.977788  7.929617063225881 12.34893789008783 14.83789634598838  7.500604140215239 13.34146186024982 13.00668355509349  4.623353 37.956009 19.887455  3.820722 39.003403 19.38345  4.453475 37.855915 18.371744  3.386178217167082 37.84337071504968 20.00798768298544  0.558449 11.286442 0.554433  0.02680700000000003 11.040826 1.532738  0.759377 10.415281 0.6078209999999999  1.157979044129718 10.96534570084541 1.609375244222776  0.02680700000000003 1.870593 17.696362  1.105964 3.702955 17.237652  1.2726
[...]
<PointData  Scalars="p_O2"> 
<DataArray  type="Float64"  Name="p_O2"  format="ascii">9.1665033811214826e+01  9.2396968424544397e+01  7.0867950861314654e+01  7.0486914056919758e+01  9.9679710989964619e+01  9.8270968451323398e+01  9.8898227905923335e+01  9.9027073664402934e+01  9.9862763030397915e+01  9.9596275928358025e+01  9.9876883040373770e+01  9.9881479369708131e+01  9.9986231905441571e+01  9.9977005856059094e+01  9.9994478477952981e+01  9.9947786824027006e+01  9.1963841907144868e+01  9.6262822060843632e+01  6.1554176400734249e+01  8.0233922744520413e+01  1.0041874768240808e+02  9.6755317933622152e+01  9.9228763890387029e+01  8.5994096483285617e+01  9.9530224755167652e+01  9.3007525347378859e+01  9.8073381983726790e+01  9.8347228573172018e+01  4.0000000000000171e+01  4.0000000000000171e+01  7.4950738425140273e+01  7.2367308306583055e+01  9.9288293123493190e+01  9.9702444070552431e+01  9.8760400245571759e+01  9.9232076797784160e+01  9.9958103316457425e+01  9.9918060347318317e+01  1.0002732604759218e+02  9.9959906854203368e+01  9.8317031009665087e+01  9.9884739655470170e+01  4.0000000000000171e+01  9.1627931965247342e+01  9.9995330647163769e+01  9.9962613734866551e+01  9.9985122017658327e+01  1.0000083583087958e+02  9.9286486183268735e+01  9.9563838118833274e+01  9.9733362179709601e+01  9.9086876815817277e+01  9.9953541537612537e+01  9.9951001537845116e+01  9.9949574551153006e+01  1.0002107226027897e+02  1.0002135516117997e+02  1.0003037943901957e+02  9.9888626540118594e+01  9.9263850666072699e+01  9.8354619776063174e+01  9.8207858328886232e+01  9.8160754116334147e+01  9.8495553007750090e+01  9.7875383290731733e+01  9.5923468201983965e+01  9.2608073405141880e+01  9.9964451993557972e+01  9.9969179927939322e+01  9.9900482391254258e+01  9.9759082269457991e+01  9.8802053072808889e+01  9.9672693742565002e+01  8.7979099733658785e+01  8.0130237768628618e+01  7.2095498012865747e+01  9.4659320703464502e+01  9.9806869306465927e+01  9.9957047068635404e+01  9.9918626863716739e+01  9.9913793769910313e+01  9.6080151282551128e+01  9.1552001322600958e+01  9.0066410352789362e+01  9.9987424057855165e+01  9.9912072595753344e+01  9.9914219800253392e+01  9.9895124739501796e+01  9.9860094967178881e+01  9.9962428636646848e+01  9.9957789156368165e+01  9.9906197041256362e+01  9.9959100646832866e+01  9.9953694921709612e+01  1.0000258809196474e+02  9.9985711913843176e+01  9.8607416490900292e+01  9.5831304694357200e+01  9.9965095908776078e+01  1.0000810621562319e+02  9.9973970379183797e+01  1.0005090525622775e+02  9.9132612402719744e+01  9.9685412448255960e+01  9.4401071086712818e+01  9.5132202346743938e+01  1.0040352602061854e+02  9.8898489639962676e+01  1.0024503025384455e+02  1.0133855431471494e+02  9.7270836612963521e+01  8.4586362613151579e+01  8.8401321442250293e+01  1.0001422691912724e+02  9.9921792771570495e+01  1.0006737503696809e+02  1.0000655249778274e+02  9.1006008073571138e+01  9.3195951194278095e+01  9.2180180327518840e+01  6.6326521927761291e+01  9.9988153139929750e+01  9.9999493430574802e+01  1.0000510386209542e+02  9.9962707870752837e+01  9.8505519942008220e+01  9.9488783510146206e+01  9.7853506323745634e+01  9.8886529948230404e+01  9.9918399252612645e+01  9.9139787906635874e+01  9.9668846406500478e+01  9.9689397279767093e+01  9.9729254202194539e+01  9.9888376095411218e+01  9.9722405375446229e+01  9.8900351600028770e+01  9.9420434446146672e+01  9.9966168981056555e+01  1.0006008889456545e+02  9.9969957738867677e+01  9.9607772320832908e+01  9.9959677036960215e+01  9.7289840727134674e+01  9.9095718788424762e+01  9.9513757498763525e+01  9.8807976711953899e+01  9.5551171287560962e+01  9.8528506212311783e+01  9.4826822703188100e+01  1.0000245047203677e+02  9.9987184024726503e+01  1.0000590731173452e+02  1.0000357618765517e+02  1.0004721355429361e+02  9.9847178088800618e+01  9.9941120861976444e+01  9.4904558236955452e+01  9.8531800434747069e+01  9.3918047524453257e+01  8.5099785707479739e+01  9.7557176426051228e+01  9.5340765052224398e+01  8.7947327290658720e+01  8.8633420228894636e+01  9.9202380879448242e+01  9.9447514831524899e+01  9.9459186818814587e+01  9.5191703756116070e+01  9.9459113653201541e+01  9.4807811209305626e+01  9.8905483706821741e+01  9.7492575279584017e+01  9.6752640952074970e+01  9.8749581903160049e+01  9.9240124971714096e+01  9.7646519639162264e+01  9.9831652466487384e+01  1.0129621093239858e+02  9.9757794985283610e+01  9.6864128045206400e+01  9.8483623436782835e+01  9.8302185822822750e+01  9.8320007628338075e+01  9.2259376256141820e+01  9.9968351304048994e+01  9.9486454889004534e+01  9.9833117448366650e+01  9.9278169918087897e+01  9.9991406786223095e+01  1.0002968326970499e+02  1.0001637896569694e+02  9.9867665697040565e+01  9.9999242861307465e+01  1.0006551448566853e+02  1.0008859396001456e+02  1.0012553361719708e+02  1.0003048722966071e+02  1.0003247093828838e+02  9.9822517263940824e+01  1.0003762863314719e+02  9.9955124065047954e+01  9.9936855247461708e+01  9.9838210036182758e+01  1.0000797563647782e+02  1.0008513755515732e+02  9.9820314934445022e+01  9.9942118818620074e+01  1.0000379256536010e+02  1.0006757515753064e+02  9.9892207102067843e+01  9.9997899183489466e+01  1.0000804748547743e+02  1.0003201846192793e+02  1.0000326804509992e+02  1.0000999964031016e+02  9.9967916296202702e+01  9.9990122821803126e+01  9.9900949810157371e+01  9.9578831927086796e+01  9.9906859092087799e+01  9.9806360359480308e+01  9.9406926794885308e+01  9.8677673219886003e+01  9.8039023771293088e+01  9.8114281744070283e+01  9.3572039595433168e+01  9.4282296416670192e+01  4.0000000000000171e+01  9.7906922364558810e+01  7.6699352099586903e+01  4.0000000000000171e+01  1.0450888205987187e+02  7.2787708223973340e+01  9.5293917333912347e+01  1.0002489331375149e+02  1.0005612361743941e+02  1.0003119947119160e+02  1.0006324386928763e+02  9.9988371800489574e+01  9.9985902513535137e+01  9.9978874122791638e+01  1.0003045350887859e+02  7.3185717802960440e+01  9.7472026791819204e+01  9.9843875502748247e+01  9.9835174053764561e+01  9.9697769888836390e+01  9.8938495245348420e+01  1.0000168637643408e+02  1.0001790777035380e+02  9.9952875449576965e+01  1.0002136464597515e+02  9.9279799583427078e+01  9.9569111217464865e+01  9.8723274329849289e+01  9.8786170929263065e+01  9.8119411307053625e+01  9.7895540225009313e+01  9.7380457320842083e+01  9.1879539872698473e+01  9.9956774601057020e+01  9.9966989430233085e+01  9.9974120897510147e+01  9.9904450835411353e+01  9.9364496390475793e+01  9.9156060951107520e+01  9.7580159380838893e+01  9.9984093141020580e+01  1.0000657772539475e+02  9.9989796581870920e+01  9.9973574273580070e+01  9.9946172546485457e+01  9.9882205061691991e+01  9.9956300180035456e+01  9.9973677168262128e+01  1.0002254473267412e+02  9.9960696916433918e+01  1.0012797935478326e+02  9.9939890709620173e+01  1.0000061704198514e+02  9.9989490762130885e+01  9.9947846397023227e+01  9.9916977421261564e+01  9.8291312049964986e+01  9.6262571462384088e+01  9.8864644225603229e+01  9.2746213236276418e+01  9.9981829381920988e+01  9.9990831000047081e+01  9.9946759161689670e+01  1.0008618424523139e+02  9.7699186506735302e+01  9.5621415271310369e+01  9.6910666477966430e+01  7.4908466849077527e+01  9.2424283764245885e+01  9.7548833237197329e+01  9.7702986456595667e+01  8.7268062058240190e+01  9.7752667589561995e+01  8.9421074912766443e+01  9.7890767836001501e+01  9.9981666520799607e+01  9.9990568823701153e+01  1.0014201908047555e+02  9.9361734353167535e+01  9.9524807942263706e+01  9.5368923590908949e+01  9.2978952629932309e+01  4.0000000000000171e+01  4.0000000000000171e+01  4.0000000000000171e+01  7.0511576092925239e+01  9.7610099596011082e+01  1.0001288889339793e+02  1.0005298725731801e+02  9.9971451757657974e+01  1.0004222793513044e+02  9.9968699953013143e+01  1.0003374505395126e+02  1.0005329325816119e+02  1.0000272259517085e+02  9.9968479754843173e+01  1.0000518824967325e+02  1.0001102785339346e+02  9.9976946555618241e+01  9.9953461149019532e+01  9.9950506041385580e+01  9.9911003073047084e+01  9.7083352389689878e+01  4.0000000000000171e+01  6.7695755267950020e+01  8.2056401538460435e+01  4.0000000000000171e+01  4.0000000000000171e+01  1.0313467396986209e+02  8.8347172438083632e+01  9.9229844977092398e+01  1.0115059249502237e+02  7.2850252346112669e+01  9.5400875379709788e+01  1.0019401570349261e+02  9.7270669678217445e+01  9.9223088654773193e+01  9.4807860015709181e+01  9.9947205600209557e+01  9.9957744286044118e+01  9.9819122639068510e+01  9.9969077930428696e+01  9.8189521194347051e+01  9.9028819698527428e+01  1.0003527125664495e+02  1.0004918638803467e+02  9.9612804147302526e+01  9.8661234939148216e+01  9.9641015188018059e+01  9.8290758659368890e+01  8.6837908064928214e+01  8.1797418934886906e+01  9.1302872877811907e+01  1.0005734551103991e+02  9.9974071034460721e+01  9.9998090682222042e+01  1.0006025469800656e+02  4.0000000000000171e+01  7.9313739787038301e+01  8.0904539624897154e+01  8.9635241082213781e+01  9.4072696259240075e+01  9.1872682155328263e+01  7.0154018928185778e+01  9.9764660730307682e+01  9.9487651431802519e+01  9.9090303219981919e+01  9.9120213938594645e+01  9.9842987121506297e+01  9.9893809395123228e+01  9.9829172641599143e+01  9.9704293716153046e+01  9.9767743282667936e+01  9.9654579968960007e+01  1.0054078136240204e+02  9.4504276862446545e+01  1.0017019408507247e+02  9.1704083879734014e+01  9.1230260365360195e+01  8.8091128916549962e+01  8.8600413624715486e+01  6.7556317046152770e+01  8.4420373427060511e+01  4.0000000000000171e+01  1.0056421168384824e+02  4.0000000000000171e+01  9.8350380787706058e+01  9.7211151992422884e+01  9.5845284688843506e+01  9.9577257157750580e+01  9.9951048262301228e+01  1.0000447690163961e+02  1.0000801532741296e+02  1.0007805850708650e+02  4.0000000000000171e+01  4.0000000000000171e+01  4.0000000000000171e+01  6.9204892220681870e+01  4.0000000000000171e+01  9.6380335871195214e+01  7.5682558083501249e+01  9.9509774624268303e+01  9.9592672099901975e+01  9.8859645125267605e+01  9.9913868927883442e+01  4.0000000000000171e+01  4.0000000000000171e+01  4.0000000000000171e+01  7.1243955235436133e+01  4.0000000000000171e+01  4.0000000000000171e+01  4.0000000000000171e+01  9.9134620890527046e+01  9.8220811697808386e+01  9.6099004949044584e+01  7.8958992391375730e+01  7.4223330609783432e+01  9.2423332525918838e+01  7.2023005708608267e+01  9.2633575345308415e+01  9.0487205770732928e+01  9.9998032838684267e+01  1.0000725558767826e+02  9.9991756047627590e+01  9.9002631690607799e+01  9.8772085008983566e+01  9.7602519231852114e+01  9.4334744596837808e+01  9.4140715118420317e+01  8.5652977639210633e+01  9.4069910989700446e+01  7.7520078670605798e+01  9.9903546923592287e+01  1.0000384224121142e+02  9.9931017753986936e+01  9.9456210874134214e+01  9.8632797113105624e+01  9.7216873211955928e+01  9.9946285184700017e+01  1.0005117609175120e+02  9.9977178453757062e+01  1.0008199229051513e+02  9.9510137091718420e+01  9.9786782257761274e+01  9.9366330633623747e+01  9.9536880752635483e+01  1.0016894998381157e+02  1.0043200556420919e+02  9.9901663111737776e+01  1.0001820440520171e+02  9.9930122385370325e+01  9.9910688092053789e+01  9.9695969690126617e+01  9.4676832156770047e+01  4.0000000000000171e+01  4.0000000000000171e+01  9.9506013041484650e+01  9.9628147683346896e+01  9.8400647630144846e+01  9.9999015269444214e+01  9.9966454596469433e+01  9.9871395590937979e+01  9.9745233934876097e+01  9.8038031288431895e+01  9.8123303267705040e+01  9.9775908919913547e+01  9.9747251052327258e+01  9.9985369085755096e+01  9.9986809708273896e+01  9.9890372710453889e+01  9.9988952700503418e+01  9.4280287242942663e+01  9.5597422892279980e+01  9.2708893149767249e+01  7.0583482476257061e+01  9.7429249776568724e+01  9.8542129324685490e+01  9.5617560174830800e+01  9.6951879781850522e+01  1.0127379395271360e+02  9.9341498738091417e+01  1.0001545549003227e+02  9.9982564720640326e+01  9.9976052488728101e+01  9.9979377652690928e+01  9.9974984298117093e+01  1.0000073452162381e+02  1.0000981055555388e+02  9.9889697032114626e+01  9.9709188242275317e+01  9.9890913552188010e+01  4.0000000000000171e+01  9.6371802728775037e+01  4.0000000000000171e+01  7.9310845757630773e+01  1.0002625571984252e+02  9.9568008198258852e+01  9.9761517277695660e+01  9.8862684566498260e+01  9.3388536539025566e+01  8.0044696066680629e+01  8.1506338118266598e+01  1.0001978113626646e+02  9.9980246584195058e+01  4.0000000000000171e+01  9.2867521333606604e+01  4.0000000000000171e+01  6.5010640841768193e+01  9.6962494531290403e+01  9.9595971840643017e+01  9.8807260360960129e+01  9.9648130546644268e+01  9.9712558872073387e+01  1.0001141634662875e+02  1.0001347939150466e+02  9.9986770752933097e+01  9.9994145705093302e+01  9.9987014365788710e+01  1.0002001831506846e+02  1.0012325054202246e+02  9.9946398408137782e+01  9.5594725309158221e+01  9.6861059589383984e+01  1.0025444640736599e+02  1.0024590769827111e+02  9.9866282246086328e+01  9.9733912700963558e+01  4.0000000000000171e+01  8.9213686791811682e+01  9.0202762344465157e+01  7.4289595746349832e+01  1.0214760802807503e+02  4.0000000000000171e+01  1.0001804478982859e+02  1.0000543820796148e+02  9.9993873462480565e+01  9.9973777500619093e+01  9.9953231459140000e+01  9.9888485666815498e+01  1.0020751411391818e+02  9.9603427417548076e+01  1.0000774297766097e+02  1.0000904244648659e+02  9.9951867263068664e+01  9.9994157748354141e+01  9.9928001838284175e+01  1.0001453086638082e+02  9.9946901959846826e+01  8.5471563969370678e+01  9.0042103945971036e+01  7.0504396859980531e+01  9.9930522232201866e+01  9.9627005010802719e+01  9.8809414621759331e+01  9.8773833014941204e+01  9.6159740556713103e+01  9.5656529842494024e+01  9.9438087789217334e+01  9.9808309191747284e+01  9.9847070437819895e+01  4.0000000000000171e+01  9.4517612298164877e+01  1.0244432016776705e+02  8.9898732381980622e+01  9.5170485443344845e+01  8.8827876394738439e+01  8.4397143112338227e+01  4.0000000000000171e+01  9.9681787754502849e+01  9.9841384441600979e+01  1.0008324767500832e+02  1.0010874503586153e+02  1.0002982085970308e+02  9.9895619960158456e+01  9.4860358768621481e+01  9.7153900318913230e+01  9.8157863025330116e+01  9.9915273250943741e+01  1.0000671652170112e+02  9.9812329745488213e+01  9.9905961976121361e+01  9.9997487396579032e+01  9.9098950361423334e+01  9.8585297281452853e+01  9.3166876444037499e+01  4.0000000000000171e+01  4.0000000000000171e+01  6.4022315150777104e+01  9.9892754550284707e+01  9.9886302112977930e+01  9.9804188614553411e+01  9.9984008901882930e+01  1.0001734129919579e+02  9.8700159213656505e+01  9.6198721839164193e+01  9.9912076156316829e+01  9.9912906424462037e+01  9.9913804251534586e+01  1.0003678330315756e+02  1.0004761352701783e+02  9.9980394433975206e+01  9.9985431244363923e+01  9.9931441973418558e+01  9.9940383140996630e+01  9.9592806882491459e+01  9.9985523137805473e+01  9.9941880163266688e+01  9.9991788281575495e+01  1.0000871543339439e+02  1.0002087565839031e+02  9.9607525599373389e+01  9.1597865435099308e+01  9.9379590075905952e+01  9.7871291430296338e+01  9.8990476448046934e+01  9.9693543094324511e+01  9.9437052117590824e+01  9.9992304387702845e+01  9.9986285517741422e+01  1.0002322782302663e+02  9.9984901086723227e+01  9.9993564249334653e+01  1.0000605080401813e+02  9.5702236999809472e+01  9.7872370970272954e+01  8.4513056614569834e+01  8.7435423157750435e+01  9.4053810277372918e+01  9.7966707725151849e+01  1.0021351063983201e+02  7.7086051583196024e+01  8.3644597341082829e+01  9.3021638019339207e+01  1.0001700510910750e+02  9.9738534163233439e+01  1.0001965424981539e+02  4.0000000000000171e+01  9.9701096932262814e+01  1.0006775573109067e+02  9.9342015528262777e+01  9.5580217953848191e+01  9.0827355508093063e+01  1.0091852611223248e+02  7.1280656640109413e+01  1.0004700015895176e+02  9.9988790804143946e+01  9.9880679499776861e+01  9.9853234621768081e+01  9.6117958400196017e+01  9.9812596322095885e+01  9.4979551533478684e+01  9.9985333980521801e+01  9.9975500750765832e+01  9.9856614385057085e+01  9.9990000669512526e+01  9.9933482468200197e+01  1.0000263735904480e+02  9.9981627026903595e+01  9.9957058955281738e+01  9.6552788229665751e+01  4.0000000000000171e+01  8.3044143140874709e+01  9.9939402716142354e+01  9.9896419172694237e+01  9.8546283646828314e+01  9.6111066551812982e+01  9.9435617506572569e+01  9.9377428442878923e+01  9.9784882907154440e+01  9.8394581006587273e+01  9.7029953123276840e+01  8.1796727338006761e+01  9.7093986511692691e+01  9.2829124675815393e+01  8.2422999919005278e+01  9.9265140560315402e+01  9.9813301907245702e+01  1.0012887596873813e+02  9.9969534028221631e+01  9.9961260566397527e+01  1.0002321987913268e+02  7.4748398546030813e+01  4.0000000000000171e+01  7.7462773866396148e+01  6.6610711277827932e+01  9.9952192879622032e+01  1.0000096292869924e+02  9.9940220934429817e+01  9.9940864310874289e+01  9.9981596787008812e+01  1.0002069636917348e+02  9.9981601465201180e+01  9.9968676855212422e+01  1.0004298146377438e+02  9.9949637500645139e+01  9.9985929937293761e+01  9.9978138304967985e+01  9.8328997747286436e+01  9.6800060014230795e+01  8.9836387002880301e+01  9.9941378182102497e+01  1.0002765956301890e+02  1.0004991617802808e+02  9.9901119316263504e+01  1.0000755418671943e+02  1.0008157218216614e+02  9.9959261567282979e+01  4.0000000000000171e+01  9.1557963739569374e+01  9.9978574417651714e+01  1.0001404172548284e+02  9.8812191594134660e+01  9.9376947817450798e+01  9.9002825224193870e+01  1.0004883563838885e+02  1.0003372313275537e+02  1.0004022817766672e+02  9.9826342047390298e+01  9.9717482708209729e+01  9.9935813077554201e+01  9.9730550407595032e+01  9.9676457861364639e+01  9.9975228278126210e+01  9.9744001470164434e+01  9.9432216351733160e+01  9.9069949099609218e+01  9.7768851003910640e+01  9.8109110536558049e+01  9.9926154734489273e+01  9.9823518749916119e+01  9.9649707417419137e+01  1.0000106128996683e+02  1.0000509187335899e+02  1.0002521105239656e+02  9.9944798223182588e+01  9.4369430152854150e+01  9.9835225662472624e+01  9.9968448081578174e+01  1.0000734605531953e+02  1.0013239933203495e+02  9.9964912020420428e+01  9.9933643080243954e+01  9.9799872463080746e+01  9.9866543543495752e+01  9.9997099153759635e+01  4.0000000000000171e+01  4.0000000000000171e+01  9.5639190628045299e+01  6.9391408925461420e+01  9.9993189868301457e+01  9.9920818270789454e+01  9.9985306058111306e+01  9.9990765298840913e+01  9.9984561276009785e+01  1.0000163181442726e+02  9.9939647825948867e+01  1.0006323321881104e+02  9.9916033154716459e+01  9.9924111628473909e+01  1.0006360333185781e+02  9.9920521324097862e+01  9.9979560681200056e+01  9.9967377459398705e+01  4.0000000000000171e+01  4.0000000000000171e+01  4.0000000000000171e+01  5.9240262879436955e+01  9.9881525872565945e+01  1.0008854810800005e+02  1.0006237175720045e+02  9.9952484587085394e+01  9.9988709896141444e+01  9.9789696471721470e+01  9.9784869382781679e+01  9.9895618258109920e+01  4.0000000000000171e+01  9.3019824221591648e+01  1.0003286595960653e+02  9.9888256372453057e+01  4.0000000000000171e+01  4.0000000000000171e+01  6.8758424371490776e+01  7.0294799907758801e+01  1.0000144098111264e+02  1.0012761612293944e+02  1.0002469816882015e+02  1.0001759681540260e+02  9.9999191539155802e+01  1.0001700390048283e+02  1.0000467053873854e+02  9.9585270115329564e+01  9.9763894337607240e+01  9.9243251403691275e+01  9.9553913936679336e+01  9.9361708382134069e+01  9.8609487181008618e+01  9.9268084609331282e+01  9.9276508131485272e+01  9.9467665155741088e+01  1.0001363048052868e+02  1.0018009283099673e+02  9.9849816475208428e+01  9.9968589984723707e+01  9.9689878869821456e+01  8.4198259548168465e+01  8.8363019668673331e+01  9.3998557287949495e+01  9.0640043949347572e+01  1.0007680349499036e+02  9.9985504898685875e+01  1.0008415193235170e+02  9.6141623039867937e+01  4.0000000000000171e+01  9.9949827994187316e+01  9.9900951455480850e+01  1.0000033915527681e+02  1.0002198606158269e+02  1.0000132800250151e+02  1.0001800907460716e+02  9.9946854262103869e+01  9.6244732787687539e+01  9.9187086847261824e