<?xml version="1.0"?>
<VTKFile type="UnstructuredGrid"  version="0.1"  >
<UnstructuredGrid>
<Piece  NumberOfPoints="602" NumberOfCells="2056">
<Points>
<DataArray  type="Float64"  NumberOfComponents="3"  format="ascii">34.727505 8.761358 28.181412  36.230503 8.004273 28.035908  36.20105141160379 9.655168503878997 27.05782333903771  37.05855570888922 9.143239546835588 28.7957531040404  30.643978 8.828338 20.149931  30.472158 10.018025 20.730074  30.704874 9.242824000000001 21.886198  32.1330532103625 9.548575560361337 21.02793721603661  24.42555728364329 7.924703931399338 20.9257239943911  25.52604220587801 8.041521693139075 22.01261080030337  24.75390989630648 6.069662195717622 21.96427130743814  26.0138314225413 7.080206696594637 20.79799768503218  26.986074 13.149429 21.665844  26.35944 13.863859 22.831881  26.187952 12.511276 22.62958  27.72282295728263 12.3001348960359 22.37511095145554  27.42787458594599 12.5012973342424 24.50789605041086  28.24990739688597 10.40832041791297 24.72436048635451  26.2638105435198 10.79209650416438 25.12190848700783  27.77795984418952 11.22790855108825 23.21424493926048  33.95882 12.380974 25.74259  34.900417 13.515557 26.937126  34.220669 11.723448 27.648743  35.55281928766212 11.44620511560445 26.12179283379933  23.998638 9.64545 24.83898  24.738129 10.734863 24.825304  24.74467445715664 9.675223422501722 26.56274101707806  26.23948654019549 8.770432639894592 24.95252664737948  25.227747 4.373749 30.480396  26.195877 3.292058 30.181664  25.513439 3.519166 29.245939  26.70266461500627 3.822640313376106 29.01260817230949  28.400078 16.684351 24.910408  29.525892 16.122728 24.798874  28.717213 14.986911 25.424215  27.47521865293133 16.09305259931137 24.07353198775731  27.347046 3.946131 32.612373  28.219015 5.139935 32.708256  28.036272 4.072453 31.572989  26.51088940061191 5.449310012718981 31.29611645745178  33.882523 6.135503 27.234423  34.443916 5.539751 26.378656  33.299595 5.33041 27.511793  32.67057194640444 5.419097434931327 26.23078494076189  37.546574 8.048283 27.769197  37.402382 7.583887 29.032631  38.803787 7.976573 28.510002  29.803442 12.037508 25.164845  30.6323195275721 10.94128111002582 23.28620648823264  29.48072958350656 11.82724239534056 23.88931516747176  31.329355 11.913311 24.721186  29.10937712766804 10.12690423385931 26.37118206102314  30.836985 11.14521 25.731064  30.38413690383628 8.918816306435254 25.44254748566116  29.53998966672044 10.26677243669752 24.36835551093299  34.124744 10.05992 27.883242  34.38873562697281 8.967617359176661 26.92315208476565  32.22472 1.584453 30.742558  32.69384 2.509623 29.573154  32.814739 1.100253 29.576033  31.44308545636861 1.158024130023976 29.8816849190068  28.445316 13.506498 26.05603  29.426723 13.439396 25.0786  27.01254229810809 14.55013354220105 24.78450382859105  30.360321 8.626984999999999 23.200813  32.07169231167106 7.749466589478192 23.97724717195783  32.22989017540971 10.05933621743181 24.37373920041361  29.579206 11.426975 26.041124  32.100296 6.076256 23.667233  30.667542 7.296461 23.994192  31.053387 5.731659 24.866144  22.113438 10.487752 25.626837  22.98107833294263 9.491751775891251 26.65507945300109  23.297878037975 11.11476722948757 27.1245132351711  21.54312408854472 10.46297844246535 26.8116438287324  27.719633 12.439368 29.612696  28.298815 12.903837 30.984324  27.290699 12.759163 31.179472  28.13751973518968 11.71026010806883 31.73371741403241  22.66925410380813 6.571680945052351 25.38304938323424  21.464529 8.016249 23.660513  21.05091058977149 5.813082534523343 23.80734087812751  20.77802094812546 7.45512622173529 25.69136743193053  22.836863 13.402243 26.208267  24.79865734372849 13.00310599829392 27.58266174777134  23.956528 11.815459 25.72237  25.079689 9.908545999999999 23.45792  25.626411 11.620834 23.726191  26.72421787657854 9.777313849902106 23.45076437347956  29.203716 8.238950000000001 30.560162  26.074305 8.233489000000001 30.527079  26.663094 9.7049 30.935398  27.74711474016451 7.65424882069424 29.14628555630502  27.32922130176719 6.998683173699101 30.86555557914869  26.380333 3.736956 31.530107  27.32695271805115 3.19529775137247 27.41587184302885  27.398947 5.123847 25.835409  25.85195407982448 4.274521366448915 27.7106880175255  27.37404515212016 5.473219292028904 27.64691502001885  33.90499943903405 11.81719870892101 23.92467996748683  34.411565194466 10.08594379457419 23.45469327422317  32.7334698689967 11.58628721206241 22.50813614696301  22.884445 1.513319 23.674623  22.085041 3.275728 23.415548  24.18217071042839 3.421672276640372 24.93588649262072  24.28077168563594 2.564697732426421 22.96016400750684  28.895741 14.099552 20.004522  27.973001 13.711998 20.94367  28.782476 12.639539 20.41103  28.69246694244458 13.03969515149351 21.7088307570769  34.85144 10.240164 28.938042  35.89774475219677 10.92823992107082 28.75246371103216  22.816509 8.710449000000001 27.967979  21.5012975551045 9.077804628744476 26.39270893313934  22.17485140348763 8.186687381475364 26.35928343287428  30.482183 12.75771 24.402164  30.96966711894041 5.918381290684858 27.06547201208166  29.56010245563807 8.215176663490759 27.03095991842453  29.41206790288599 6.390613205999075 28.15661152897317  30.54921281231535 7.631258949926189 28.32751002736814  30.60103 4.540255 30.305828  32.02383 4.352312 29.39546  30.84879426701051 2.362075433418248 28.02752137068103  30.96983132983739 5.00735857058361 28.33564394748304  28.993055 11.403643 29.955736  29.101955 11.912559 31.71752  19.419724 8.241987 25.728615  20.515667 8.85061 25.20417  20.131916 8.912566 26.927168  21.257271 12.362161 29.041973  20.501719 13.508912 28.55077  21.532972 13.781041 29.712822  21.59439383351314 12.96924162861256 27.70947042454152  31.511925 3.035544 30.520887  24.793236 8.808033999999999 28.420609  23.59200702793706 8.165873213762495 27.14751303341448  25.38979915027305 7.440488062655505 27.34021747029294  30.851954 17.779215 23.678652  30.47459971971842 17.4970855647754 21.33584328780804  31.864393 18.175722 22.177732  31.631565 16.299572 23.022688  24.203207 6.396809 28.983366  22.671469 6.254069 28.878956  23.755842 7.771793 28.309727  23.53648483148674 6.406732018852757 27.11117493825205  35.632233 10.573171 21.287909  33.78379039833663 9.805574403763222 22.18082389653656  35.954418 8.849339000000001 21.857931  35.548069 10.544644 22.681021  25.259293 -0.01335700000000001 25.852705  24.12298 -0.01335700000000001 25.267155  23.986198 -0.01335700000000001 26.493357  25.19491054811844 1.179711950414966 26.52207344106023  31.96146 16.290285 21.234493  23.806604 9.280471 28.029341  24.655426 9.931711999999999 28.462328  21.539196 3.792578 24.582836  21.017931 4.460058 23.685696  22.75691753452964 4.712999405971477 24.04829063060882  29.401321 20.47896 22.481657  28.409756 19.867294 21.318554  29.984665 20.873661 21.234116  30.40529497637392 19.40576825761654 21.74251124711271  22.77511 4.611095 28.926662  21.45906452692377 4.971923714326957 27.47448895491183  23.21455850716659 4.590029063191253 27.91373139586258  23.48148 10.49785 25.688887  21.052334 3.439524 25.645649  20.698074 2.091919 26.45159  22.65803160187376 3.171045127022186 27.05842035178386  20.52008178123247 3.271953444114773 27.47893330467694  23.607321 11.587106 29.137987  24.102209 12.631007 29.7463  22.66555957527148 12.41571015261647 28.09721839129268  29.421413 15.586593 19.747499  28.355749 15.188688 20.811869  30.41042804398044 15.34465003832608 20.76107214385308  26.607296 0.696671 27.652939  25.659012 1.256169 27.865808  26.405468 1.458027 28.266708  26.8750035364341 1.570016440322816 27.20909369600955  31.15205 18.817389 23.430933  29.967758 19.285805 23.608908  31.380978 19.642134 22.912775  26.644098 15.125365 22.813364  27.358341 14.515383 21.832582  27.466743 16.037176 21.610865  28.28185179304033 14.50305616054719 23.15986469605424  29.64196562255511 14.05260879843919 21.73295760664219  35.405697 7.34239 22.177919  35.308895 6.709555 23.224731  35.978134 7.951367 23.292562  34.74319001941394 7.947127631425399 23.23698971832978  36.803616 8.179361999999999 25.436413  36.608002 7.844821 26.721825  35.45246378035048 9.151339224120175 25.33189436429175  22.389057 1.178577 27.78743  22.99060419479316 1.643082877597168 26.72023611855267  21.475941 2.185382 28.22426  24.802591 15.219254 24.770555  25.65443 14.458989 23.912964  25.85183013417404 16.04181349996426 25.32655788695978  29.36729 9.807713 30.099678  28.713707 9.405721 31.609735  28.980639 10.612007 31.157097  27.87845544218196 10.19856574111137 29.91837645758389  34.91826135526756 10.53997828761491 26.61457867458924  31.852837 19.229679 20.685806  31.876015 20.075926 21.662546  27.173782 8.774008 22.65579  26.967455 7.719161 23.485912  27.985376 8.675879 23.557331  25.387096 -0.01335700000000001 27.119324  24.072546 1.293259 27.698984  23.274805 8.935312 23.768227  23.73407798254315 8.0103786752445 25.25816145926653  22.65002226497308 6.748736940344042 23.14823047404074  31.09560579657357 10.78380692236487 21.60202710147804  31.56586498827069 9.395228915910799 22.6483949074376  29.380989 9.628988 23.01442  29.669981 12.676395 19.194176  30.84710473186198 13.54327229741035 20.14988655179588  29.84227893410881 12.32668747187524 21.06557623165119  31.62097840138578 11.70945119714213 20.57713544152384  29.421804 20.070736 20.158813  28.686852 19.230663 19.313553  29.335482 17.822803 19.890877  28.77562485012277 18.28993653761088 21.1414195422938  36.749527 11.030654 25.237883  36.650444 12.66574 25.692823  35.893215 11.917228 24.512333  29.170244 11.423059 27.068108  30.426605 10.669236 26.890718  31.97308697520778 4.314615726489862 27.1698976664582  34.84013 7.193445 27.235861  23.52124170795921 16.51857156678843 28.05408350928805  25.00232587120871 15.18374389899757 26.7713645274555  24.5163024205834 16.86865857095614 26.66033234188932  25.597809 16.175592 27.368994  23.205383 3.448309 28.432116  24.031771 2.741414 28.131189  24.429586883617 3.728641174570579 27.37076700356557  29.026041 10.580818 
[...]
<PointData  Scalars="c_HbCO2"> 
<DataArray  type="Float64"  Name="c_HbCO2"  format="ascii">-1.4885144134113886e-38  9.3620323935006936e-40  1.1723888453133123e-39  7.6225337168873444e-40  2.1424859696567296e-37  4.4078361534388190e-39  -1.8446916739130237e-37  -2.1002808745331857e-38  -3.2474461445973379e-34  2.1470778908434217e-34  -2.6307556085562126e-34  1.6523736991925948e-34  -2.7676819548055034e-37  -5.7260578695905719e-37  2.1924629520305831e-36  3.8056587140002563e-37  3.7169624454212532e-37  -1.8834129139884132e-36  6.6386789816273780e-36  -2.9735253451746114e-36  -6.1862800839514916e-40  -2.5233873653818077e-40  1.1524662630669991e-39  6.6721511103881328e-40  -3.6750467332241556e-34  7.8478246083622431e-35  -1.4152764134974828e-34  -7.5055756104878772e-36  -1.3772986480148767e-35  3.4488223132164524e-36  -7.7413871035458886e-36  -3.4643345812951339e-36  -6.1220497783636202e-38  1.7737134902495004e-38  -8.6501256707061846e-38  -6.2502050535083874e-38  7.2869823111412341e-37  7.2034652897862809e-36  -8.4188383552476910e-37  -4.8128078048928978e-36  4.3523242748608673e-38  -2.0551491425747325e-38  1.8982661426375059e-38  4.5915457009549220e-38  -3.8396165050145473e-40  -2.9490882256070186e-40  -4.9912748825757541e-41  -1.6793620052364298e-37  -2.9025351774191491e-37  4.9953417115775717e-37  3.7342263032261091e-38  1.4608587081325635e-37  -3.6324673906750284e-37  3.0298109129134801e-37  1.0783074236909619e-36  -3.2051463438504092e-39  3.1564333746962686e-39  -9.7531613930988060e-38  5.7413902946004145e-38  -5.6057600596182979e-38  5.3629448414876443e-38  8.0681782293715062e-37  -2.7252817649703594e-37  3.1838949199864467e-38  -4.8152247361392511e-37  1.0846094033412923e-37  -2.1984745129859778e-38  8.4137367966384574e-37  5.2666181643432863e-38  -5.6420259223862825e-37  -1.9761833176587790e-37  -8.8067031099618681e-34  -2.6508939038971322e-35  4.1042093261675258e-35  -1.5873522076309323e-34  8.9203286465267669e-38  -5.2962606905967562e-39  -1.7110924252628638e-37  2.3635124777968733e-37  -4.3188704866041913e-33  -1.9230925390634793e-32  2.8060939069815833e-32  1.3836547645102612e-32  3.5094980999978481e-37  -1.7148552280223972e-36  -3.2685015469721562e-35  -3.0362183319683636e-35  -5.7820054893614116e-36  2.7008971971118022e-35  9.3114351061133043e-37  -1.3572569666240862e-36  3.6694703744420546e-37  -6.2531918605649895e-37  -3.1375783871461557e-36  1.6048509437719555e-35  -9.4750808910193879e-36  1.1316786855456939e-35  1.0369432828069480e-36  1.0155603148364042e-35  7.1301382164193005e-40  6.3680546265200272e-40  2.6140592127668177e-38  -3.8586554216275706e-34  9.7351460595494336e-34  2.3506589274280920e-34  6.7944300366397177e-35  -3.8001096784418200e-39  3.5790576624084966e-38  3.2002805335811934e-38  -5.1178756754082949e-38  2.3895766780392804e-39  -4.6447908015682153e-40  4.6635904993926075e-35  1.3035240112321567e-33  -9.6137036608632055e-35  -6.7755561101320257e-38  1.1404839561491844e-37  -8.1474167973554607e-37  -2.9788324480703516e-36  1.0433430952185097e-36  -3.7394095509166330e-37  7.1384704837428872e-38  -3.9054195157369451e-37  2.8783993054158364e-37  -5.0898275013323651e-37  5.3299821457321988e-38  1.0232728448071648e-31  -2.8834934374110102e-32  -4.9906224453399278e-33  -2.9921877437745456e-35  1.0967754203450576e-34  2.1754810163957428e-34  -7.3803364807285857e-35  2.3942591802160828e-37  1.6823440597841299e-36  1.6582719866789842e-34  -6.0925645437009382e-35  -2.2548507340762362e-40  -5.6589117289399543e-40  2.4762360269469649e-40  -4.2711429884478521e-40  -6.0670847876423480e-36  -2.1333375490619921e-34  1.5509124617532445e-34  -6.5189741732610895e-35  -2.1620861427660668e-39  -2.4256329535827585e-39  -3.3820089910669444e-39  3.2710081653528933e-39  7.7156662609634880e-36  5.6077859401448397e-35  -1.9428170051319820e-35  3.2536592836967816e-35  -6.0671373655158245e-40  -1.8365698151499778e-35  3.7973788265882421e-35  -4.0238074067275556e-33  -1.6797127320357923e-34  -3.7114240684210824e-33  -8.3844091610429229e-40  -4.2096735030527499e-40  3.5552303797496374e-40  -3.3259618222055510e-40  -6.0186602470620849e-34  1.7296104085195714e-33  -6.8757607976565557e-34  3.0434699165110442e-34  -9.3159308646616763e-33  -3.9387378330364471e-33  1.3442137418314710e-33  -4.0566766192478003e-33  -6.0442182273132649e-37  1.1566087271164251e-35  -1.5582354843530092e-35  6.9378280447293778e-40  -5.7424314457309759e-39  -1.4026887151098120e-40  4.2837841393819836e-36  -4.1752696337393548e-35  -1.3556490764640122e-36  -6.8047143098448541e-36  -1.0250716240979639e-39  2.7156993370713932e-39  -2.0541808952729743e-40  8.4438507488822403e-38  9.2589565305929991e-38  -2.4982942016401794e-38  3.6076462586038399e-39  -1.1121416296649291e-38  -1.0104679583534749e-38  3.8630505778141720e-39  1.7616876605450302e-39  1.2668951535773555e-39  2.7073517801812551e-39  -1.8845417155348108e-39  -4.3861185048009065e-39  -6.3774044711870314e-34  1.6833203808733602e-34  3.5809949323448430e-33  2.5344082406917259e-37  -7.7827873234859382e-38  3.8952114405572368e-37  1.6745517427629666e-36  -9.9701037150971220e-37  1.1786481122367238e-37  5.9651959934458537e-38  1.1796309085162365e-39  1.1483516677694549e-40  1.6088605022846561e-40  -7.5405071222500528e-36  1.0181386117753303e-34  -1.3423497171016290e-35  -3.4250550570271035e-35  1.3826138275010680e-34  1.5729292835013192e-33  1.4282391416293604e-33  -3.2747235572115896e-34  6.1803327438259864e-38  1.5687710293667954e-38  2.1252621260255374e-36  2.5205778515849995e-39  8.0430417232726392e-39  6.4267041920306707e-39  -1.4545420903000941e-38  4.8369701035438700e-40  1.4767587384304866e-40  2.1905958138368856e-40  -1.7034025549611392e-39  2.2677270147151088e-40  -1.8279700129872170e-40  -2.6334657957169198e-40  2.9901978209673814e-36  -2.5503179387427295e-37  3.7536971043665546e-38  1.0489032152715520e-38  -5.2960674225771402e-35  9.8702635102710451e-36  -1.2138687395764597e-35  8.9584431585030047e-36  -3.4142313076303209e-34  -8.2510982147233564e-36  -9.5158417097390383e-35  7.1303254391371667e-37  -3.7162820115265255e-36  -4.4522576072943749e-40  -6.5117369986426815e-41  -2.0942612155996593e-40  1.6302131381444241e-36  5.5351618650479086e-36  1.5880513924736094e-35  2.8904508923288141e-34  6.2407604863483759e-39  -4.8777827855354047e-39  4.2667374450465152e-39  -7.8667097292873325e-38  3.9711721794708363e-39  7.8973727236333314e-39  -9.5887912502414265e-40  -3.0987771120720328e-39  1.0982797905247918e-38  6.1240175246999426e-35  1.4968776409456896e-36  -7.0471813292016488e-36  1.5919726802055058e-36  -2.0116988290596839e-36  -3.5347274010387646e-36  -2.2809637302765159e-37  1.0698199622817517e-37  5.2149493689264755e-38  -5.3041982129635696e-37  -5.7136965039006750e-35  8.4392041646480469e-35  3.7519849620488424e-34  -9.8924165787857944e-34  6.9746950142937290e-35  -7.9630347033792657e-36  -5.4104974663708400e-36  -1.3842770423904128e-35  4.9091641598811534e-35  -4.6600133099879360e-36  -9.1149516319846798e-37  -1.0762311630633702e-36  9.2993198450678825e-36  -1.4247055175177618e-37  -2.9963165028487982e-38  7.6324456174471440e-38  9.3624509893028995e-38  6.8378196811143320e-35  -5.1862493179635896e-38  -1.2891027387921812e-38  2.7762151183012341e-34  6.3927247081635017e-34  2.2784723743226963e-34  -2.7879362013575975e-35  -2.1202758937361390e-34  1.5490079793691884e-39  4.3683119968938594e-36  -5.1401545967455330e-36  -3.6627603670432195e-36  1.0497507782210433e-34  9.2187800785731063e-35  5.4641709424150132e-37  -2.9709966487247637e-34  -1.6441231475440679e-35  -6.6473457776838396e-36  3.0886668076323626e-35  3.2809566192002479e-39  1.7174226019536944e-39  -2.0308788373530876e-40  5.4599201553220030e-37  3.3919966992023684e-35  -4.3305391437890844e-35  1.3693832179681564e-34  8.1161927382642690e-37  -8.0933337852869172e-36  8.8991323758581255e-37  -1.7863336522457334e-36  1.9888295426710439e-35  -1.4102143911072611e-40  8.5380825597226109e-34  -2.2247981344912176e-36  -2.1445327187550050e-34  -8.5810429627887036e-35  -2.0565767110857761e-34  -1.8529799188188720e-38  1.2678411684247068e-38  -2.8390800841345594e-38  3.1661725320561536e-38  1.9657439197930113e-35  7.3988213866031452e-37  6.0932296273394771e-37  3.4119122321993738e-36  6.3032727297294315e-33  5.0554392799377588e-35  3.7244100999508893e-36  -9.9444398689413978e-36  2.9714591709688204e-36  -1.1268169480928388e-37  1.1798605354412006e-36  -2.4013633804670222e-36  1.3819071248718862e-36  -8.9453184808314719e-35  2.6530015617818495e-34  -3.1970189897687767e-34  5.3608545926864156e-33  -1.3533557063080732e-36  7.6519308708104314e-38  1.8450784796962260e-36  -8.9392945061941453e-36  2.4648476556692692e-36  -5.3981641709721212e-37  2.2691439504704946e-37  -6.2368150642826887e-38  2.1592220425361099e-39  1.0868040646710300e-38  -1.2970103928520552e-34  7.2891490542759701e-35  -1.2111997480089440e-34  5.8296754307860531e-39  -1.9652503807591555e-38  2.3377585705308936e-39  -6.0784720690926176e-38  2.7889801656804537e-38  1.2723884019610421e-36  8.2829072815555267e-39  1.7280604508118423e-39  7.7417993245339863e-41  3.3891353615986983e-39  3.2658466723306226e-37  3.3103823657816285e-33  1.2733059726119836e-36  1.3806768219949495e-36  2.1386317913820350e-36  9.3498175331892512e-37  1.4131929434196811e-36  1.1256274104300739e-37  -8.2910254471435424e-36  2.6176124252217359e-38  1.2654052931222227e-32  3.7859361503291769e-39  2.5569697862110316e-39  -9.1259014278302687e-35  3.4150574053828133e-38  6.9343186435192697e-38  -2.5034053627558709e-37  -2.8621516572850326e-37  -2.2778588997816224e-38  3.7643268869187465e-38  4.9711937706617219e-39  2.0942080657258431e-38  4.7798482514490337e-40  1.5659699325717820e-40  1.2480764909089845e-37  1.2979557786837360e-38  -3.1687116289557393e-40  -7.9432499835532068e-38  -1.1373202434602929e-39  5.0883735518182075e-36  1.0420145717165498e-37  4.9520645161143144e-38  -2.1151645371510583e-34  -3.0575896460543659e-36  -7.2873870991105766e-37  1.3438268902803992e-36  5.9365297906936011e-37  -3.4352992925905221e-38  -1.7552999328342433e-38  -9.9969331356006347e-34  3.0663580536314675e-39  -2.6120892554109273e-39  -1.8230499634317692e-38  2.6217182943195393e-36  -2.3469959042133216e-37  1.7035136551294075e-37  -2.0710924417599993e-37  3.5396329605681922e-38  -8.5865745332873719e-37  3.9185439873118617e-37  1.1359716943228314e-33  1.8136384898046844e-38  1.2751618986646258e-37  -2.3023409619437965e-38  -2.8099035614177987e-34  -1.1580718371006702e-33  1.3884979963446792e-40  -4.9749419256328558e-39  -5.9668412022409093e-38  3.4365379697175507e-37  4.2756284882473704e-37  -5.6174455462968745e-38  -2.4315869420921327e-40  -1.2105271001806739e-40  3.9954434467393211e-36  -1.0118081035744515e-38  -4.6354851112959964e-39  2.1052817464186496e-39  -1.0664919253059677e-35  3.8858298801053685e-37  1.6098035374497557e-33  -1.2149430513159462e-38  7.1355762632902566e-39  -2.4901840516471234e-37  3.7755926021239054e-35  2.6872024404178003e-35  9.6827348682770209e-36  -2.2186301205003629e-37  1.9801657005065074e-36  2.2216176239022385e-35  -5.1777792319234800e-35  -1.1363746581815209e-38  2.6001404687684961e-33  -4.4550104264029059e-33  -2.8294009029646369e-36  -3.4826692137779120e-36  -1.0003828452713604e-33  1.9553167435012245e-35  6.0567695670218017e-37  -3.4759342590997536e-34  -1.6170789687244039e-40  -1.5512123850729169e-37  -1.8743851988526013e-37  4.6959499943739485e-38  4.4878427847753533e-35  9.3699508563299637e-36  -1.8078784149130482e-37  4.6447140485913049e-36  -1.1928431401848424e-40  9.9536608999915618e-35  1.0970889149570143e-39  9.0060136206805776e-41  1.5228936166006940e-35  -1.7351494862816008e-36  2.1352199762261992e-36  -2.8808627340339171e-36  -5.7447550509596089e-33  1.3469490979070682e-32  1.1631661421335691e-32  -2.5052893126296319e-36  -6.1759950126580900e-36  -5.9333958642720086e-35  -4.0648715729695730e-34  1.0784968372684690e-34  1.6195258799662768e-36  -1.0860932916106265e-35  -7.6239722185523868e-35  1.4546258434551665e-35  -2.6823481402582265e-39  -1.5652073992966239e-37  3.7172430974605443e-38  1.3924621880632379e-39  -1.2715784322288271e-35  -8.8983664975682015e-39  -6.2073264867356215e-39  -4.0564486131818390e-35  -1.5744134304253047e-35  -3.1676626467714970e-37  -1.5824822836502318e-37  -4.6164914134072938e-35  -3.2698986848204245e-35  8.0842143218024164e-37  -1.1286187825253706e-37  5.5835146673001007e-40  1.7495640761075539e-34  -1.4557471894569783e-38  -3.4115333867047256e-38  -3.6319771913533222e-37  -1.4438836658836970e-37  -1.8150619605455726e-33  -1.5636116731731080e-33  -2.3755732927769902e-34  2.2428587942496122e-33  1.4521697333969186e-36  -2.6537554001287158e-38  1.5925508426199055e-38  1.7174985157848055e-37  3.1834355687053566e-38  7.0231869654724502e-38  2.3891417929757892e-39  1.8163001004676162e-33  6.2371395666515564e-33  -1.9243616566039097e-32  1.5008299327860740e-36  2.2166374982307575e-33  2.3136082325138185e-40  -1.7489614837071357e-36  1.0058735166637810e-36  6.6676486445670960e-40  -1.2099472981550650e-39  2.5806142302367269e-37  5.9828497508701249e-37  -2.0267695870609213e-32  -4.6638234845055402e-33  1.9634841446193173e-32  1.3746362421294437e-31  -6.8703128505369299e-33  -1.0303285014729062e-38  -3.1442447184079652e-39  1.7931138141379238e-39  2.6694720800230034e-34  1.3301241457213205e-36  7.1102841006390094e-38  -6.1902406331767656e-37  -7.6226420211835403e-41  2.0770889853359673e-33  -9.1980983446918711e-39  2.0330514212200016e-37  5.1272965344138528e-36  1.6827856467677617e-38  -3.6311425851686713e-38  -5.4190774438720598e-36  -1.5949986828954384e-38  -3.6350151507879931e-39  7.3446265795184381e-39  2.2114387620511401e-37  -3.7632055255755437e-34  9.9489503303232788e-38  3.6144792400315642e-37  9.2865661372170750e-38  -2.8432377088474391e-40  1.3321160142573516e-40  8.8439466676141668e-39  -6.0884371342818975e-36  6.7605011599583999e-37  2.7547617581921497e-35  5.8847134241642383e-40  8.7754419760397817e-37  -3.7050217403163424e-37  6.1396647565302481e-33  5.2023725493765429e-33  -3.5707906033895721e-37  -5.0308174819922464e-37  4.2688667901432154e-36  -2.8527117475883770e-32  -5.2041017330336795e-32  2.5430022672087423e-38  -2.1984498524342946e-36  7.5556325268346797e-37  8.8508372573633362e-37  -8.6436658453368318e-35  -6.2574065950850360e-35  1.8684179315015152e-36  8.4464788340993605e-37  -1.3724473598679017e-35  3.9335311858011866e-35  1.8461156726176128e-38  -1.1092330327559000e-38  2.7389669936253648e-37  -6.2791478546121145e-39  1.7973369152059378e-40  -1.5454474786587688e-34  -3.7275137830998233e-38  1.4311303676703907e-35  2.3463522046348916e-37  1.3986507620357104e-35  -7.3174642309440079e-41  -1.2587829621783154e-32  2.1179224892747110e-38  9.1007821909295061e-41  -8.1587741670538375e-40  -1.3859001183509058e-37  -6.0416596469829905e-36  -5.2531098823086718e-36  </DataArray> 
</PointData> 
</Piece>
</UnstructuredGrid>
</VTKFile>