<?xml version="1.0"?>
<VTKFile type="UnstructuredGrid"  version="0.1"  >
<UnstructuredGrid>
<Piece  NumberOfPoints="640" NumberOfCells="2154">
<Points>
<DataArray  type="Float64"  NumberOfComponents="3"  format="ascii">26.451523 35.230774 19.944649  25.613966 35.688583 18.745258  24.79000688256295 35.98583884188664 20.19630404112867  26.72166834069838 36.3839952835139 19.97621906167611  27.46847 37.027683 8.447929  28.88481361874772 36.8146575222373 8.947358228979347  27.60844251164943 38.40489849729772 10.15575230367535  28.12418999489543 36.27901017053824 10.32164674808402  28.953344 40.003617 15.866525  30.604008 40.003617 14.931936  30.400665 40.003617 16.321795  29.56646941502943 38.63677745917619 14.45364556648191  22.587454 38.127758 12.54754  22.84094570126705 37.20370891429081 14.64700683436302  23.477331 38.891483 13.777725  22.353828 38.086815 14.380643  34.05059772584886 34.95316193481453 20.38016270291036  32.746849 34.025311 21.321835  32.00395264563948 35.80063188870376 19.98719219897543  32.86680140713349 34.76766033029573 18.98926829807134  37.631493 34.306919 13.07506  37.264107 33.280937 13.851418  36.703823 34.460148 13.793514  37.112896 34.3311 12.464367  25.75782942681794 35.90414230499658 13.88683529236746  26.61382243580795 34.42680803646401 12.58276737524412  25.98726370170655 35.94685253932335 11.36740677710839  26.78147361801807 36.3411635255273 13.13620601495167  38.378563 31.867853 20.219721  38.368034 30.446127 20.095911  39.263241 31.410988 21.196394  37.11907760195668 30.54414169113862 21.41232134365319  35.593857 34.444691 15.248612  35.447247 34.770561 13.869275  34.24826043454374 33.49640356285511 13.73058101022651  34.63744 34.947651 14.502328  30.663343 30.279379 19.900694  32.426247 31.111061 21.175091  31.499683 30.853428 18.656059  31.86207744203309 32.01827914417703 20.05506144974296  31.260332 36.634502 21.044662  31.419662 34.968784 21.37789  29.707314 35.610394 21.920351  29.70971427361994 34.72271846936546 20.53220633400243  27.96043921423344 37.4917846657774 13.83244595590769  29.24849622085078 37.28939698128312 12.89556530397806  30.08678713887141 37.1914849678945 14.2278671144674  37.338814 30.16456 19.256891  37.940228 29.356333 18.69795  38.007885 29.52116 19.581272  36.70903274936603 28.8949651237339 19.33386913779368  33.60593015389689 30.0130214394507 19.83448981754351  25.9538 39.217312 9.493107  25.940889 40.003617 10.927883  24.601568 40.003617 10.192486  24.76762246576784 38.55197084326048 10.54409749022366  29.27266027460883 35.71956754784671 19.15783045503805  28.460796 34.416641 19.339397  30.81577637260275 34.11989692031883 18.98819598926603  39.95923699999999 36.679298 23.983852  39.95923699999999 36.526802 25.372335  39.95923699999999 37.903919 24.502584  38.23352081624911 37.5108632201511 25.44263330296328  33.785076 37.981659 21.362135  32.605247 37.694294 21.147112  33.898376 37.314098 20.23188  32.493244 36.849606 21.425289  22.064226 36.907669 13.215612  24.01601698504129 36.57813375619959 13.55481148238246  37.441917 27.785189 23.891907  38.169254 28.675148 23.847954  38.08906208520649 26.26756093843776 23.27752071335535  37.75307828522276 27.64029158081706 21.31400812176327  31.232635 29.354448 20.935297  32.793121 29.862272 21.093525  32.111122 29.082811 19.731962  31.71077 30.242796 21.399822  39.95923699999999 35.299492 23.862293  39.95923699999999 34.683083 25.489346  38.72126285368869 35.86097775963133 24.13216666027543  26.30892849657915 37.49788332499273 10.01923367611792  25.8377903148395 37.96941829017815 11.88970993722332  27.9658411720839 37.14129398747185 11.85371985958663  37.211235 31.597263 14.478554  35.04717141346108 31.6927030357441 13.23835619065036  36.13294637041835 30.48346666525149 13.63537315577716  35.28927933125637 32.43172630500777 15.2497185599977  39.95923699999999 25.582476 21.616776  38.53334709125845 24.20152176521087 22.65356561518253  37.95256822924869 24.74216281463202 20.97855274749643  27.841599 38.646812 8.444352  28.277725 40.003617 8.741199999999999  27.378359 39.387665 9.082024000000001  29.302568 38.73864 9.606325  32.04241544775449 32.61949941412743 12.95294804217781  33.04507499365585 33.69775890172875 14.84220524952983  33.06778133766131 31.6484364449358 13.35772339856069  37.063202 33.259964 12.418341  37.673489 34.027977 12.63865  38.2816075325072 29.70879666866659 21.91205004027513  28.22365 35.09148 22.545509  26.77709732141311 35.68582234332557 21.45865680635908  28.41805194347726 35.95201529996573 20.69904027033853  27.58875400154481 34.24249219835531 21.53386370803297  28.688763 37.79422 7.528098  23.721619 37.017948 22.866856  23.034388 36.681885 23.929689  23.76535 35.672623 22.979239  24.85090133895689 36.67542928601536 23.7614777958816  29.668831 40.003617 17.213982  27.84470394786884 38.59778344655827 17.07638678801139  30.09824868184845 38.07031661486108 16.68469701220951  34.42255584024271 30.62819989375562 17.58005981334438  35.1037498394958 29.05777277432006 19.38396223406274  35.81837790616304 30.59197334961844 19.08210585479939  27.62653015844903 37.65061983924569 20.59927840283299  28.193993 36.68914 22.541353  27.21896052267759 38.36998655381009 21.76093399895535  29.983217 36.677132 11.620089  30.878389 36.866886 12.881081  29.36272682682155 35.87758232744008 11.96505625781261  26.28826 36.194038 17.756783  25.28644 35.852859 17.072208  25.60754629754618 38.02568174757574 17.03012761467437  27.05646462433065 36.86653934659429 16.9432577449412  28.95792364952446 36.44602139613404 17.80515482778062  29.358 34.369118 16.627659  30.8080916313309 35.65013101881065 15.62813778452157  30.93650548960288 34.81312350577665 17.44181906440009  34.1888400822652 33.66172495559395 18.89125626603655  35.30387024769999 33.51055679612091 20.55960988534374  33.41696151561408 33.10779996337125 20.09681017175299  38.11189280692945 26.04522171747637 19.31645240064987  38.322411 24.687492 18.153654  36.555128258779 24.79470584040494 19.41792891419028  37.57514613388693 25.93638636619244 17.34214829718875  31.618389 33.4608 21.549692  29.96092359839904 33.21250984921642 20.7099212246282  31.82272001054726 33.75378586140643 20.23040488230148  29.694101 38.980965 21.563791  30.80752 38.417862 20.415726  29.851074 37.522766 21.730528  28.88596661244816 38.42563449897736 20.52245131479015  27.99811353422626 39.02510339986811 13.56591827494063  28.22605772466977 40.003617 14.86955132079474  27.71789931970783 38.82448968971054 15.16176244600299  23.890078 34.469475 23.197296  23.909119 33.344284 22.696295  25.15935794615516 34.91483216817377 21.59015823888359  25.66663827927766 33.52185585941834 22.82215217926274  25.408079 33.136139 20.330002  25.353432 34.42226 19.727034  23.2929354049836 34.54562926797722 19.94059517258785  26.86581115248637 38.64443171331236 16.04515731953855  28.33911621080538 37.00143089718254 15.65223026620267  35.635609 28.078384 22.432503  36.754681 28.898476 23.098858  36.20791489133366 29.16011617255846 21.34336730864693  24.74231350792634 38.37122982178572 24.09888096781082  23.148077 38.404015 23.297333  36.96413692459319 29.72519443337009 20.22571007356559  39.95923699999999 25.325762 23.247728  39.95923699999999 24.099209 22.001282  39.95923699999999 23.832851 23.492992  35.981556 24.55089 24.043621  36.212151 23.300825 23.269884  35.417648 24.896002 23.028313  36.73555690871714 24.75063160048946 22.65362019792844  31.10198755354769 36.3822742393867 18.10767581519721  30.16600768015352 38.02202989563921 19.05289350408621  30.30464206689396 36.51795326800419 19.93259013791845  24.83851728513552 36.80569678873198 18.16222591926221  23.35280054732317 38.20474267302463 17.73814538613717  23.58467835898991 36.73576135002445 19.2404592869789  23.78553551057372 38.62849616766732 18.87961164701987  28.80507581345706 35.71712033968274 14.14499074760773  28.721409 34.875122 15.43904  39.012772 28.88707 19.722712  39.95923699999999 29.75029 21.170805  34.648624 36.00771 19.602711  34.25662196188765 36.53571655912071 21.43092861862462  36.941563 30.51762 18.004568  36.444977 31.479265 17.103577  36.101776 32.068497 18.291555  37.112949 31.593111 19.348761  37.115971 33.862999 25.328978  36.993587 34.986736 25.836193  38.409485 34.067413 26.064884  37.25610175574721 35.14533092432152 24.59206040754231  38.28603 34.893776 27.108631  39.359962 34.397522 26.569763  38.2982721780568 35.74560784816278 26.18786159283038  25.186283 40.003617 14.211228  26.15425256795436 38.70173511481643 14.81270153204777  24.85404475934249 37.98406724422722 13.65506851019228  26.71027192866064 38.67311401723374 13.02403084651691  35.48489653337688 30.46550629384745 20.79918060916581  35.581589 29.982666 22.330738  34.64303920301892 29.03841399937044 20.8215970081623  21.600266 37.448513 15.759789  21.789242 37.82412 17.40871  21.211933 36.408039 17.125727  22.68078892262924 35.91356995938541 17.11327383872117  29.595043 34.089741 15.272603  28.681654 32.170952 23.284708  27.695354 33.793797 23.253172  29.04858 33.929478 22.58761  27.12383064162231 32.67695233528867 22.47521127558103  34.408405 34.613487 23.53653  36.06035828520358 34.45663638316093 23.38001474958531  34.769283 33.076859 22.953945  35.61737097289025 34.80388432287174 21.6475783454278  32.22685488181516 32.80749565624536 18.38246799000706  33.69637346572403 31.69259799911584 19.03406801989701  26.48525721085634 36.99046493556971 14.90770061139767  35.145332 32.395741 11.529147  35.84662292092618 33.23850951892668 13.48393189805241  36.329769 31.776791 12.11858  36.02494 33.437187 12.039132  39.95923699999999 26.598442 24.513618  38.39257 27.762436 24.738298  38.46044907225982 25.67483998888551 24.86394977863397  30.047421 33.575138 17.436563  29.017769 34.459339 18.068102  35.549675 39.227276 24.075527  36.563774 38.899506 23.23654  36.513176 40.003617 24.651852  36.62153944261694 38.48206606843957 25.48545080048316  39.95923699999999 24.819344 25.215195  38.58304696602735 24.43869995029446 26.34649127293492  37.65644958018753 24.13994405275642
[...]
<PointData  Scalars="c_HbO2"> 
<DataArray  type="Float64"  Name="c_HbO2"  format="ascii">2.2079749487629544e-32  -4.0222228843686094e-32  -3.7619345293578654e-32  8.0330973269231149e-33  -2.3992787551074660e-33  -1.9834765325573641e-32  -7.2564241368598878e-33  1.6621752579613103e-31  -2.4179081302238192e-34  1.8697167185168710e-35  7.1663328659208982e-35  -2.3303236892153655e-34  1.4194921972229727e-32  3.2691525834543025e-31  -1.2581319251989971e-31  -1.3076007836685816e-31  -1.8056411644241496e-37  6.9156854282920668e-36  4.1075468961994409e-36  -6.3304964688808244e-36  1.2251074951238813e-35  3.7159044665503392e-36  -1.9707601341760560e-35  -1.5315085270300492e-35  -3.3761837826710270e-32  6.3956569209628631e-32  -1.0659148846200610e-31  1.9787321444718700e-32  3.2479005523175627e-38  2.1952848739345860e-38  -1.0717954734588213e-38  2.8356259623482597e-38  4.7114917626682699e-36  5.2530170696735596e-35  -1.2448214549555953e-34  5.0819171211005196e-35  2.0666833345011424e-35  -3.6169917443056095e-36  -1.3618539360944494e-35  4.5918366588811574e-35  8.5281774558065372e-36  -7.8531864570057247e-35  2.2533306785020617e-35  2.2851256947958731e-34  -8.7430786661827169e-34  2.6835200073866827e-33  -7.1077714733043429e-34  1.0480116164649254e-37  1.0065351868508384e-37  -2.0117491903845564e-38  -5.0196558289773659e-38  7.7058935428278798e-37  4.7162872515618299e-32  8.3947355477044649e-32  -8.5674799205617636e-31  -2.6177155379887547e-31  2.3156913643241024e-34  5.2276081142995543e-34  -7.2381990840049086e-35  2.2342287491048709e-40  -2.3368699737963465e-41  3.6626673974583653e-40  -4.0193268718832509e-40  8.5356454899932182e-37  -3.5293421691223277e-37  -7.2186033988007098e-37  -3.5102570197641552e-36  -1.5523369519974972e-31  1.6938856097880270e-31  1.3475678617726848e-40  2.1182679068844477e-39  -5.8432979494607230e-41  1.7672500861027484e-40  5.1283539581662186e-35  -7.2511412153014658e-36  -1.1369374799225460e-35  8.1045855316776304e-35  -3.5856099948794420e-40  6.2990561630508840e-41  1.6564954967342174e-40  -9.4520098312379997e-32  -1.6750517848030555e-32  3.0764404829666943e-33  -2.2594808111463776e-36  -1.2762402327887431e-35  6.2018128437266929e-36  6.8892667053319419e-36  1.9808880215633881e-39  1.8951050328367675e-41  -3.8051210756907795e-39  8.6947066392746505e-33  -5.1994102086666154e-33  8.0235724692391921e-34  5.5068004294921680e-33  2.6341340090215221e-34  4.5723631830561854e-35  -4.8779582895616304e-35  -1.1566120825130392e-35  1.9944891518282645e-36  -6.9007437722097768e-39  -3.9383881343028327e-34  1.6569372472069972e-33  -2.5584994225594118e-34  1.3298779122774488e-33  1.3201567736408155e-33  5.4881550908092241e-32  -1.2973829626165015e-31  -2.1213959289879965e-32  -7.5170903616262304e-32  3.8254583000894427e-34  -5.8353033616096857e-34  -1.3756645250271625e-34  5.3732266360883810e-39  -2.2727952810561814e-37  -2.6387637636016626e-38  -2.4819230575848988e-33  1.7890268357286426e-33  1.8232867651783714e-34  -2.2237065845507679e-32  5.3534027340623317e-33  -1.7734281399312807e-32  2.1582438290004934e-32  -3.6292134285370943e-32  -1.2105632181195811e-32  6.9591229988023160e-33  -8.9370990107345534e-34  2.5357469297683689e-34  1.1437425131233518e-34  6.9160440923895294e-35  4.7206230098388966e-36  2.6086456670611798e-37  -7.5580213484006982e-36  2.5240439035139462e-38  -4.3382234065976732e-40  1.0621854439803579e-38  3.9642595281202141e-38  -2.9857396209162936e-35  -1.5134234694412283e-34  9.5008993922595346e-36  -1.1024567599571692e-34  -1.4449657890761005e-34  -2.6050807735820838e-36  5.0545198405282104e-34  -1.8556002083795199e-33  -1.6753495404330041e-34  2.1865137752286908e-33  -1.1261809391179739e-31  1.1434625415411932e-32  1.3677791053757791e-32  -2.5956770381139259e-32  -8.3377510344765997e-33  -8.9564714890627658e-32  8.0095401570130187e-32  4.5387391005144471e-33  1.7387411178063805e-33  -1.7831892816640807e-38  -7.3410520626261573e-39  4.4120391718219106e-38  -1.1794534935542319e-31  2.6868015843864927e-32  2.1949707410392096e-38  -2.3075892369894526e-40  -8.7085678576498227e-40  1.6277839063715807e-40  -5.6167044830808337e-40  7.9737519068189781e-41  3.2025595459247701e-39  6.2041617133557746e-40  8.6478051314178543e-35  1.9752823181936018e-34  -5.6112995004241633e-35  -3.3150334907972897e-32  -1.5181811428332019e-33  8.2107783975428526e-32  -5.3151063718894759e-33  -6.5627823533547451e-34  -2.0204776267910325e-33  -6.4863282418696792e-39  3.5595657221633061e-39  -3.9152366284519435e-37  7.6892539624297299e-38  -1.3239714003876105e-37  -7.1525916920237952e-37  1.1837962476249246e-36  -3.9027810719939064e-37  -1.6729238051948386e-39  1.1007488800640823e-39  2.2367351675628916e-40  -9.9681921573439202e-40  -1.4155874427409377e-40  -8.0943638193920938e-41  1.9866469238114725e-40  7.6187403229491125e-33  -8.4611428842602970e-34  -1.4615006128672415e-32  6.3751295213923260e-33  1.6104941104266793e-38  -7.6382726935225503e-38  -2.7366766713925598e-37  1.9646807307282699e-32  -8.5378238389674384e-32  8.3901668456178445e-31  -7.7418364468122599e-32  4.3416071960057584e-34  -4.1677167626071495e-33  3.0696952134991056e-32  -2.2827055414430799e-33  -1.0357264367193371e-33  7.7866891474941745e-38  3.2248398948252059e-39  2.3163524828449055e-38  5.6213788056353262e-38  6.2268852699791946e-37  -2.9647816055384400e-36  -2.4694108307118974e-32  -3.8082769192558496e-35  1.3213974283349844e-35  6.4853700999845937e-36  5.3611411338531751e-36  2.0322564034129305e-40  1.0829850621626982e-40  -6.9395315568530215e-42  7.2685800130936391e-36  -8.9783865629051330e-35  -3.0283043803670247e-39  -4.0921685411424805e-39  1.3147286689878131e-39  -2.2343603625548560e-40  -1.3324469029623043e-40  6.1073509042037900e-40  -4.7651786958915353e-41  -6.6529506331997925e-33  4.7221627491172241e-32  2.0838974847131877e-39  -5.0691023721594751e-40  2.9315338860466472e-38  -6.6976307473634228e-39  6.0631412949716722e-33  -3.0194559172536834e-32  7.5853133257635193e-33  2.6710291931463157e-33  1.5277076135450516e-31  -2.4117374893973759e-35  -5.8030700167443214e-32  8.3279605767908558e-32  2.2985453051778215e-33  -2.1073934035782547e-33  -9.5560691067856326e-36  -5.8484724972240913e-33  -4.4878025779167605e-34  4.3674241935453484e-33  2.0357650334397004e-33  1.0118927342805485e-31  -1.2798284866664287e-32  -1.4924686011498301e-33  -4.6192492461898091e-33  5.4751479464525534e-34  -1.7096270512063552e-33  1.1632085031403668e-33  8.5500247404417822e-40  1.8009243440893992e-39  -4.1385691437592941e-39  -4.7570943957093186e-39  1.9801232767580302e-38  -1.6884263647561055e-38  -2.1286927893461658e-37  1.6265006673077903e-38  1.8601108786968651e-39  -4.6451393183645047e-39  -1.8219769351999957e-36  -4.7708304812650471e-37  4.6707250300343003e-36  3.3785158014535684e-35  -5.8301748559145162e-32  1.6167983237982072e-31  8.1824214323797318e-33  -1.5318483409122088e-35  8.0870852567974470e-36  -2.2369852238979935e-35  7.0252579757280940e-33  -3.7406355858530296e-32  1.7336810443806480e-34  -3.1727120896348543e-34  -2.8470061772335391e-38  2.7953185296670761e-39  2.2917131102274357e-38  -3.2331642256882187e-34  1.0936287733964572e-33  1.6170833887857652e-34  -1.0428368200600064e-37  7.2069257665397082e-37  3.8663668458634914e-39  1.0545991064348379e-40  1.5301940386274032e-35  -1.5629367334857174e-35  1.3654719097781590e-37  -9.9680937268461636e-36  -1.9927145532344560e-31  -3.2341700423416315e-33  -3.9408259554031421e-33  2.2116721337875967e-32  -5.7245466010216692e-37  -8.8375330844010812e-39  -2.3532802482618817e-38  -4.4621655450239591e-39  -2.4554926374667690e-35  2.0204781759107365e-34  -3.1959700160618911e-33  2.7278076173271683e-32  -5.4271624848960294e-39  -4.8788316725630980e-39  1.4613795991044148e-38  -2.9460687747983254e-40  1.5505339021417475e-39  -7.2746872957815602e-40  2.5633917850726056e-33  -7.2157730309900737e-38  -1.1962427134201389e-37  -1.2625850324620196e-37  -9.7093786380941248e-38  -2.2260967335821241e-32  7.7304069100816598e-35  -9.1234980839652368e-41  -8.6387418248627723e-41  7.0095941729659262e-41  -1.7414096612745630e-34  -2.9177706854742652e-33  1.3114441410914188e-33  -2.4697489765166822e-32  -3.5801953990337086e-32  2.2136215131208153e-31  8.0914175110185037e-36  8.6175562637607027e-36  1.2266336534792148e-31  5.8878894791343880e-31  3.1403138056757253e-37  2.2786649248462171e-37  3.2820396325281659e-34  4.9565388667855907e-37  -9.8366391220086594e-36  -2.7304485323660595e-38  -7.0779284191148729e-38  9.1909195811431545e-38  1.8695802078397124e-39  2.4097964457281123e-41  -4.6183467740162540e-34  4.3117248870493989e-33  9.9036019995955430e-37  1.6199963749871954e-33  2.4258807975830238e-32  1.4532028467014104e-32  -5.1557455792100497e-33  -2.3906914934760470e-35  -3.2842424189515060e-34  1.9090030410595844e-35  1.1995179607795487e-36  -6.9329467702099343e-35  4.1426299635305449e-34  -1.2845389563379551e-31  -7.1542316847529817e-40  2.0212572973792105e-39  -3.7034383480857830e-39  -1.3472125226632253e-33  -1.6055633050281845e-33  -7.1265358830051892e-33  2.2831110920764465e-32  3.3216597135271423e-35  -1.1835220554217504e-35  -4.1678176930821708e-35  2.9586598331163782e-36  2.6027408488833375e-36  -2.1691447213107912e-32  3.3233542392154102e-32  5.3639887986849255e-32  2.7162368149428024e-32  -5.3876580756460617e-32  -5.7992853223203750e-40  -3.8835327990827295e-32  -2.7111518191362090e-40  3.4864605402405821e-39  3.6876417893516976e-39  -5.2399495666943677e-40  -1.7098479389046683e-40  3.6231386452174789e-36  -4.5386540749768039e-40  1.5628148372122235e-40  7.3564315846012257e-33  -3.8445810369078009e-31  2.6688504183311704e-31  -5.0704158310956231e-32  -8.0098656912458626e-37  -8.6147810856829266e-36  -4.9326543202732089e-35  4.5944105977870963e-34  -2.2947538236300740e-34  3.7609365700961533e-34  5.7399717420032834e-34  4.8919206568098447e-37  3.5430897536487355e-37  5.7383252243752749e-38  -3.2578728248984646e-40  4.4287542421824889e-39  1.1062892731751999e-36  4.4919062461935849e-37  2.6582416819378760e-36  1.0817829894064730e-34  -2.8051290412844648e-34  -2.3809454783103423e-34  1.3663816431879669e-34  -3.8708988688083812e-36  1.5103989500953204e-35  -1.1563885112888057e-30  9.0728508345988908e-33  -4.0512614498907497e-32  -1.8979132059135173e-38  2.6017025686177662e-38  4.0807172464710377e-38  -3.2079200689343197e-37  9.7527374826665983e-38  7.5070594941175966e-36  -4.6263572613178335e-37  -3.1906376280537236e-36  -3.4101178465058839e-33  -4.1727016179214924e-34  -3.3706215731684764e-33  8.8678564482272270e-32  3.6398272796522552e-31  3.1683149037456387e-33  2.1618970885595829e-32  -1.9721274729498218e-31  7.4158676431523629e-34  9.9845308156246476e-33  -9.8153910151612332e-40  -5.4406436658778187e-41  2.1678745304939711e-37  1.8425906749666608e-38  -1.8210700325502109e-37  1.0196883551414805e-33  -2.8443987860210058e-33  -2.3594941506710216e-37  4.9496363040704484e-37  -1.0807503275200678e-30  -9.5093744939510423e-31  -5.6765082169168804e-34  -2.1231731197759001e-32  3.1897887973668354e-31  -2.7513117681793521e-31  1.7317959524985115e-31  -2.0774768607764605e-36  -5.5984952427980556e-39  1.1880349819071297e-37  -1.0712885669280665e-38  -3.7319582074545886e-38  6.8872086666965614e-36  3.5795451937873599e-39  1.3659323614334600e-37  9.5611816440216158e-36  8.0312284188915191e-38  -5.5321048625873696e-38  1.6003220820793575e-37  -8.5631207668462393e-40  -2.4636063046097751e-39  -2.5381443560423730e-32  3.2447529561958609e-31  6.5705980986498819e-32  -1.1020362269285732e-30  6.3118328933658542e-34  1.6698746748312083e-33  9.0739170394000006e-33  1.2966963971131668e-32  4.3543462000945854e-33  -2.5653653076761309e-32  -1.1435974793504925e-32  -5.9782098704028389e-35  -3.9535873495291357e-38  3.0493994835820322e-37  4.0139030174217051e-37  -4.5012325738285397e-39  -1.6744264322365905e-38  -3.2827410990723321e-39  4.5040273163464941e-38  -6.6741121170560201e-39  2.0869298329915604e-31  1.1872295947672907e-34  5.2537888932385607e-35  -3.5764469648856547e-39  -1.1601538001797447e-31  -1.9374409394117070e-32  -8.2331009694392274e-35  -6.7734535217718755e-39  -6.2916167753246681e-33  -1.1815553211618083e-36  1.2546322073404398e-31  3.0093217160222694e-40  7.6412524697382894e-35  8.1106041956138756e-34  -9.2463076856505005e-38  5.1382131445694079e-33  1.8714648455904171e-39  -1.2214095639128280e-40  3.3291927285671430e-40  -6.1040971525087230e-41  1.3209167434387010e-40  -1.9940869303711423e-37  -6.8669724744383485e-39  2.3594694890322751e-33  -1.6205921998656327e-32  -8.0736182759803259e-33  -1.4630606573803796e-33  8.6946379126763981e-33  -5.4259289042894582e-32  -4.1195430410718446e-32  -1.9674477747433622e-38  -2.5232911096747623e-31  -1.8880603040215322e-31  8.3209094526153150e-33  9.0990301684115904e-39  -5.1778090846167049e-40  -2.5140464957809950e-31  1.4202911369394149e-33  -1.1191166051805596e-33  -4.8537735701697770e-34  -1.4380138778956830e-33  2.0562153556250413e-38  1.6099653384295012e-32  -1.5237561009031717e-35  -1.8397921525506320e-33  -9.6129401598994816e-33  6.4909451632051734e-41  1.1736317758580308e-33  4.9751825977168760e-31  1.7218797300870312e-31  1.1704702166089663e-40  1.8228244177431643e-39  -4.4144043824065209e-41  4.5505772359474346e-35  -3.8817798461465007e-34  -1.1944671695141435e-30  -2.2029699895433146e-39  6.7836459881802753e-32  -5.9861145538331125e-31  -8.5424549949030876e-35  -1.3171257017060090e-38  3.0850412589832728e-37  -2.0512636953941118e-38  -2.8214198230556345e-40  2.1854242249344272e-35  6.9422679277708416e-37  3.5777369009491243e-34  -3.7125483537598154e-38  -2.1270617543295321e-37  -3.6346880413310496e-37  -8.8819040975495582e-34  -3.8256547760337380e-32  -5.9277397627657557e-33  -1.5623331269807916e-30  2.4130663891499435e-31  -9.1821019911835873e-32  1.4317915407478221e-39  1.2247417835801561e-39  1.2896058682668507e-31  -1.2709753155484008e-32  9.6009350572204036e-39  -6.9969664717861805e-38  4.0442393255515295e-38  6.0263654350603553e-38  -4.9406712108949302e-31  -1.2851019833669910e-37  -4.0500104510590700e-38  -8.1157838071618585e-40  6.4092601722277321e-31  -1.0099748479100207e-39  -1.1837095244460282e-39  8.9033997410475549e-41  8.0615269087314040e-42  2.0925333241542407e-31  2.7642240871242323e-35  -1.3504594881333774e-36  -5.3187821817613930e-36  -2.0361798729170935e-31  -1.0519680416531171e-30  3.0533235580622611e-40  3.1925517043945133e-40  7.2629717165536041e-41  -3.9259784777996346e-40  4.5234463771515381e-37  -1.5331147042102967e-34  -3.4655103707794289e-38  -2.7287405348676841e-38  3.4071870424839534e-36  8.2684683216934519e-35  -1.5105237749958627e-34  -3.5544791282787348e-35  -3.0418591774644060e-33  3.2918121516913636e-32  -9.3634213576617763e-32  5.0447744774785301e-33  -2.5089975963277341e-32  2.7330146561606057e-37  3.2969060705888190e-31  5.0058370752022547e-38  -2.8102772872760823e-34  6.2813358814872033e-33  -4.8074394344217565e-40  3.3512826915475188e-35  -1.4872891206129004e-33  1.9877905510591367e-41  1.4942293811893220e-30  4.0999821025823524e-33  -7.8710482980925941e-39  -6.9997015051617941e-40  -2.3381413361560002e-38  -2.4870039663823589e-39  2.2964135753809901e-38  -2.9780199152843151e-31  6.7676190391979830e-42  2.4364865006490518e-32  -1.1810230688564483e-31  -1.5403710799744596e-31  -3.7836703554516984e-37  -2.6917599633504765e-36  -1.8208190850062428e-32  6.2691481656468980e-33  -2.5928094098148905e-33  -1.4903779857979718e-33  6.4582919570010750e-31  1.2543452191305206e-33  2.6633972804925224e-34  -3.7866856935262673e-35  5.7189961970959316e-40  1.0853428237279880e-38  -1.4655070243694530e-31  -5.1957550759432762e-32  -2.8365681523989551e-31  4.2409402010212847e-37  -1.0120053203737684e-34  -1.8520522137128876e-33  -1.3726703870942530e-33  -6.7095507738544633e-32  -2.0273812099002821e-31  </DataArray> 
</PointData> 
</Piece>
</UnstructuredGrid>
</VTKFile>