<?xml version="1.0"?>
<VTKFile type="UnstructuredGrid"  version="0.1"  >
<UnstructuredGrid>
<Piece  NumberOfPoints="4162" NumberOfCells="15748">
<Points>
<DataArray  type="Float64"  NumberOfComponents="3"  format="ascii">25.08263969421387 4.516293048858643 30.42457008361816  26.14590805668223 4.599947005720319 30.91008667724881  25.16179540060248 5.186672397750647 31.53640913247892  25.35129931256106 5.73108008915291 30.83170806706749  26.15003403096106 5.94258762913828 31.61464229247336  24.73113059997559 5.314251899719238 30.67795944213867  24.98089981079102 5.257962226867676 29.98498916625977  25.71024195379453 5.573720368268877 30.31422589968532  25.56670951843262 3.959975957870483 31.16194915771484  24.96548080444336 5.944686889648438 29.97389030456543  26.96346855163574 10.26774597167969 31.82569885253906  27.97263946403411 10.22787247946481 32.35832901541427  27.5589009873414 10.44371419786439 31.23024561788274  27.88900028097448 9.606246273604775 31.81748713943611  26.38585590612103 6.67044958359404 30.7991463494142  24.93737983703613 6.372519969940186 31.38612937927246  25.03101921081543 6.353903770446777 30.55452919006348  24.58684921264648 5.840176105499268 31.18852043151855  26.06217076628244 4.6685359979991 32.16723120629021  25.4547290802002 6.919084072113037 31.18378067016602  27.03812026977539 11.29126167297363 32.39451217651367  28.19595036846246 11.27861497758785 31.58482300979686  28.48281303067207 10.34119516618197 31.1473712996707  28.9157772064209 10.11461162567139 31.87679290771484  27.25166680132583 4.825870893972983 31.58823715517238  37.9462747373471 23.3323803165413 24.21386576639209  37.18395478091922 22.69483622640617 24.4290562768585  37.82029915890926 23.15204603381346 25.41102818788972  37.86021547535019 22.34505366298998 24.84592004236406  36.05580902099609 25.20611000061035 24.23151969909668  35.97832107543945 24.5957202911377 24.07962989807129  36.81107628132774 25.36023878558577 24.17559718654712  36.51434481105358 24.8098685513206 23.30608834150206  39.89416122436523 37.34516143798828 26.13582038879395  39.89416122436523 38.33985900878906 26.03207015991211  39.89416122436523 37.63906097412109 25.32983016967773  39.05425577550348 37.67347995110622 25.41168767136374  37.93942883496791 37.72658920308131 24.86314258897129  38.26643481489054 37.71287747064946 23.56854346728274  38.99634692225478 36.91912725633676 24.01299959819189  38.96611159699346 38.00411074467282 24.06059553259895  39.89416122436523 26.89837074279785 26.32366943359375  39.89416122436523 26.13434028625488 25.81294059753418  39.0054497064568 26.49302818890436 26.37481521034686  39.16651745968971 27.14190913887518 25.90699491963409  38.66615762581564 27.37660877863503 25.66346657557955  38.99596451528062 26.61537203053052 25.51490666542851  39.13906503870604 27.2767373600448 25.12373059365841  36.96945953369141 24.51296997070312 26.14200973510742  37.83303539708341 24.59326647257377 25.45344331262062  37.7204582648563 23.6418933666157 26.33257167440279  37.92709681177449 24.87628980817237 26.56171822907195  36.16524101974056 37.41779748889144 23.45452500540751  36.10188092115246 37.48374886657857 24.86082373588246  36.17183912143307 36.46347396504363 24.80877103772118  37.392383976117 36.75463306060579 24.24243821081663  39.31497955322266 39.23374938964844 25.92893981933594  38.9773429936189 38.13216489008581 26.68989916949021  38.17637354386268 39.03599590793923 25.75231451762733  34.79317855834961 38.8321418762207 25.7094898223877  35.25625991821289 37.93143081665039 25.64438056945801  35.99036063959569 38.99078352744774 25.73145179280608  35.5492882077378 39.0309404546305 25.1412438603088  36.83120579750061 38.12541994570906 24.43886998385718  35.87909098512956 38.16552274651111 25.08881434571202  36.34858375595001 39.056650839868 24.77797456943689  35.91870267859964 38.49692816785659 24.06257277331236  38.90200042724609 38.49544143676758 28.02836036682129  38.87469863891602 39.120849609375 27.41415023803711  39.38558959960938 38.82735824584961 27.39569091796875  39.17239730552635 37.97628353217148 27.60149064696481  35.75152969360352 38.92055130004883 23.45689010620117  36.17588043212891 39.27687072753906 23.89904022216797  36.5738410949707 38.75323104858398 23.18794059753418  38.32115936279297 26.80061912536621 26.07307052612305  38.79517936706543 27.19247436523438 26.46139526367188  38.61160469055176 27.14749431610107 26.0523853302002  38.0220582227162 26.43847947881373 23.68627026314567  39.26808995519582 26.40690804600046 23.61485837060555  39.0609375537646 25.49943557784553 23.95869180064767  38.70631966397662 25.34829622275958 22.64626434838802  37.34257888793945 25.96702003479004 25.47962951660156  37.58744049072266 26.75551986694336 24.79244041442871  37.9364013671875 26.5443000793457 25.53606033325195  37.67217827305279 25.63236175736633 24.70786695358343  39.31451034545898 27.58259963989258 26.11500930786133  39.21326065063477 27.86722946166992 25.66259956359863  39.89416122436523 27.13921928405762 25.40308952331543  39.89416122436523 26.02708053588867 23.96175003051758  38.80026141993226 26.26199456733091 24.74657231987561  36.96882866860084 25.84166149407035 23.10802716929421  37.85096047568547 24.72145742277766 23.79294635316235  37.683349609375 26.13249015808105 26.09008979797363  38.06182098388672 26.28848075866699 26.69131088256836  38.23570903133646 25.79461069166095 26.50535768948135  38.27304840087891 39.36447906494141 26.97056007385254  37.54218986004146 37.94733097800221 26.31616675135921  37.98958105840396 37.83467525500796 27.49851234410937  36.14020919799805 23.85017013549805 24.39728927612305  36.07463836669922 23.38414001464844 23.40089988708496  36.30801010131836 22.84660911560059 24.37836074829102  37.28890201732663 23.14653056069173 23.37631924362872  34.98614883422852 38.56494140625 24.77098083496094  35.15401077270508 38.88523864746094 23.9981803894043  35.47080993652344 39.30358123779297 24.11915016174316  36.78161288350971 37.16383049361863 27.85193946438382  36.66855307341418 38.19129310755498 27.08975387382226  37.10869362131642 36.78314289872238 26.75069853296924  36.19784531501912 37.39862237612277 26.75622849563387  39.89416122436523 22.35662078857422 24.44149971008301  39.89416122436523 22.62973976135254 23.65666961669922  39.07324792439192 22.62370164930275 24.80392527143511  38.51702159386282 22.16242346379339 23.83406197393662  36.97880172729492 39.16867065429688 23.73786926269531  37.28971796674683 38.05492071878123 23.70077866812212  39.89416122436523 24.09769058227539 24.55273056030273  39.89416122436523 23.95557975769043 23.60325050354004  39.89416122436523 23.22001075744629 24.08583068847656  39.20041500581033 24.26459789075024 23.66350586887695  37.51968002319336 25.71808052062988 26.67897033691406  37.17229080200195 25.37269973754883 26.17608070373535  37.5024299621582 38.89746856689453 27.63287925720215  36.80486558785066 39.0747565828842 26.53179986357892  35.06047821044922 37.78636169433594 24.47673034667969  38.39260864257812 27.24004936218262 25.2364501953125  36.88142013549805 25.23798942565918 25.45315933227539  35.59932162210836 38.72120152482443 26.60373313929955  36.19071883621789 37.92983165901543 26.0025988842851  36.86988903815711 38.35521619077362 25.52041582196557  39.89416122436523 38.07841873168945 23.79220962524414  39.35791015625 37.51325988769531 23.37105941772461  39.89416122436523 37.28691101074219 23.98937034606934  37.7570686340332 39.25920104980469 23.85503959655762  38.615478515625 39.38959121704102 24.1072998046875  37.99088981919282 38.55873767631242 23.95756785292756  37.48368553624646 39.01708672200839 24.67662984299488  36.61915969848633 39.89572906494141 24.57143974304199  35.65010070800781 39.89572906494141 24.84384918212891  37.55846491885865 36.18982361539751 25.60962682621386  38.92272861962655 36.47181216931022 25.00743488489693  38.12195901822444 36.76170986121103 26.36394819192964  39.36048126220703 37.89035034179688 28.56307029724121  39.89416122436523 37.33901977539062 28.02940940856934  38.8716950094393 37.36039140774557 28.39766146566306  36.15456008911133 36.30738067626953 26.04232025146484  36.74052531207466 37.19571592162006 25.61885588579182  38.29737604774661 25.72806834700918 25.71360238788392  36.60614013671875 24.37858963012695 25.23129081726074  36.5489501953125 23.32448959350586 25.08144950866699  36.90603692344795 24.15507896851686 24.39852014842376  38.92300068090366 23.7097495262084 24.84116955392462  38.92273783693603 23.03995616795608 23.29735305156844  36.30046081542969 39.89572906494141 25.3181095123291  37.01420974731445 23.83126068115234 26.79994010925293  37.92353246823861 24.10678978139325 27.56880864123596  36.94292068481445 38.48905944824219 28.47657012939453  37.85253143310547 38.17264175415039 28.52145004272461  37.54570007324219 38.64778900146484 23.12602996826172  38.35369110107422 38.47726058959961 23.09984970092773  39.89416122436523 25.18770027160645 24.30451011657715  39.89416122436523 24.71735000610352 23.55627059936523  39.09603881835938 21.94635963439941 22.78483009338379  39.24156951904297 21.31315040588379 23.549560546875  39.89416122436523 21.94179916381836 23.67524909973145  39.89416122436523 25.83250045776367 24.99488067626953  38.89971923828125 38.00386047363281 23.14648056030273  39.89416122436523 36.93495941162109 24.72573089599609  39.89416122436523 37.90351104736328 24.56782913208008  36.04676055908203 39.89572906494141 26.52108001708984  39.89416122436523 38.65116119384766 25.20441055297852  36.45417022705078 39.89572906494141 25.97495079040527  36.92887641318969 39.38745798152507 25.58852404424543  35.74898910522461 37.09262084960938 26.11971092224121  35.72639846801758 37.38433074951172 25.52996063232422  35.81393051147461 36.78200912475586 25.43700981140137  35.85564041137695 24.22237014770508 23.52474975585938  36.64278086346354 24.00557807009392 23.08998293587039  35.18429946899414 37.52758026123047 26.51552963256836  38.79188475817303 25.21930367767832 26.3019611279
[...]
<PointData  Scalars="p"> 
<DataArray  type="Float64"  Name="p"  format="ascii">8.0823774018197039e+00  8.0819539499547837e+00  8.0836818425392405e+00  8.0822591513794606e+00  8.0821281644435174e+00  8.0827875026443543e+00  8.0822280517412644e+00  8.0816635405491581e+00  8.0827336245091956e+00  8.0818923414736794e+00  8.0736809379740180e+00  8.0728823164356704e+00  8.0734795784847364e+00  8.0746960068401048e+00  8.0803259747172138e+00  8.0827951332675276e+00  8.0817178647810053e+00  8.0833315353502844e+00  8.0839475240918066e+00  8.0813593656784430e+00  8.0706478054333015e+00  8.0709465200518249e+00  8.0732199753214662e+00  8.0728381588657445e+00  8.0815098152482268e+00  8.0014168529834198e+00  8.0016217239619127e+00  8.0011675363032850e+00  8.0013025857734359e+00  8.0028501903473384e+00  8.0028085219932894e+00  8.0025604388811669e+00  8.0033998596645581e+00  8.0000000000000000e+00  7.9999999999999991e+00  8.0000000000000000e+00  8.0017632545542217e+00  8.0040028337869042e+00  8.0049025085450864e+00  8.0028044339244069e+00  8.0029925449121393e+00  7.9999999999999991e+00  8.0000000000000000e+00  8.0003677148596211e+00  8.0004115168073451e+00  8.0006050384623055e+00  8.0005348576940811e+00  8.0006041665162400e+00  8.0011215051153020e+00  8.0011356178001591e+00  8.0009937980099011e+00  8.0007980495052582e+00  8.0092390808533693e+00  8.0064444436148818e+00  8.0070994875162196e+00  8.0058713748869561e+00  8.0022386541203527e+00  8.0016152481051606e+00  8.0031640759049800e+00  8.0045755244889989e+00  8.0050114995535466e+00  8.0045898227997601e+00  8.0053341705449714e+00  8.0058957681148684e+00  8.0057738449856668e+00  8.0054108294291773e+00  8.0072859540609205e+00  8.0015418428121343e+00  8.0019881311831291e+00  8.0015254913704759e+00  8.0011429832618450e+00  8.0080854853545045e+00  8.0064228179787680e+00  8.0076272928837380e+00  8.0006121808128725e+00  8.0003831625271893e+00  8.0005111676334391e+00  8.0021691417613354e+00  8.0007628174975398e+00  8.0008312993408364e+00  8.0016815872422971e+00  8.0013348225133001e+00  8.0017416962675245e+00  8.0010115327121234e+00  8.0016487274742136e+00  8.0003897155277990e+00  8.0005399195605751e+00  7.9999999999999991e+00  8.0000000000000000e+00  8.0008744463875772e+00  8.0036383369436663e+00  8.0019010619631370e+00  8.0008735940734983e+00  8.0005919315124885e+00  8.0006430635672299e+00  8.0026596121508717e+00  8.0032392754513531e+00  8.0022501621225928e+00  8.0022256214811023e+00  8.0027903220024488e+00  8.0018668229592933e+00  8.0021182793179548e+00  8.0062519893223012e+00  8.0073881028978349e+00  8.0065023229126506e+00  8.0027228909143311e+00  8.0033257479021866e+00  8.0031887896672007e+00  8.0036414629959935e+00  8.0000000000000000e+00  7.9999999999999991e+00  8.0006004446851104e+00  8.0011062135910347e+00  8.0058614982025436e+00  8.0063073740467310e+00  8.0000000000000000e+00  8.0000000000000000e+00  8.0000000000000000e+00  8.0006832695098407e+00  8.0007857070420005e+00  8.0010295821741497e+00  8.0028397167200644e+00  8.0036878546882591e+00  8.0080212640243147e+00  8.0009139343475120e+00  8.0015315316398272e+00  8.0039110961216942e+00  8.0044061700902134e+00  8.0044657660795462e+00  8.0000000000000000e+00  8.0029742407636562e+00  8.0000000000000000e+00  8.0047785874186239e+00  8.0036844735475743e+00  8.0046736598055812e+00  8.0045468556928601e+00  8.0050680946160782e+00  8.0052774339050519e+00  8.0039440379861730e+00  8.0021263283139383e+00  8.0025199325968650e+00  8.0009865124885913e+00  7.9999999999999991e+00  8.0011960239391744e+00  8.0047456710104488e+00  8.0047026821802127e+00  8.0008323051506665e+00  8.0016913042980686e+00  8.0016421520224572e+00  8.0020329878820018e+00  8.0006752065170481e+00  8.0009850158224403e+00  8.0047444989747003e+00  8.0010105510750478e+00  8.0008318230679141e+00  8.0027795624707512e+00  8.0021566664527235e+00  8.0061436361856408e+00  8.0049342685356315e+00  7.9999999999999991e+00  7.9999999999999991e+00  8.0010214633465022e+00  8.0008414918534712e+00  8.0000000000000000e+00  8.0000000000000000e+00  8.0041414027604993e+00  8.0000000000000000e+00  8.0000000000000000e+00  8.0039332063964359e+00  8.0000000000000000e+00  8.0041802188223059e+00  8.0042373894512195e+00  8.0043773547701598e+00  8.0054457952536655e+00  8.0060372921628993e+00  8.0032681473155360e+00  8.0031189726589957e+00  8.0038216173791277e+00  8.0005111382210767e+00  8.0003217610550585e+00  8.0005057687539036e+00  8.0003861676690420e+00  8.0000000000000000e+00  8.0005316556483930e+00  8.0004085408097545e+00  8.0044599785430446e+00  8.0000000000000000e+00  8.0012223361590280e+00  8.0020638574351253e+00  8.0022582447161152e+00  8.0022533200397081e+00  8.0021182878760513e+00  8.0016259211578191e+00  7.9999999999999991e+00  8.0023268395218814e+00  8.0006561812426025e+00  8.0010088016265790e+00  8.0000000000000018e+00  8.0000000000000000e+00  8.0018751827329915e+00  8.0004557695735361e+00  8.0038276161770820e+00  8.0030261179356899e+00  8.0038165132841304e+00  8.0003518870191961e+00  8.0002939351428832e+00  7.9999999999999991e+00  8.0045808857143612e+00  8.0041845535743210e+00  8.0000000000000000e+00  7.9999999999999991e+00  8.0000000000000018e+00  8.0005502862580702e+00  8.0029135114112080e+00  8.0033189806329332e+00  8.0036030028252885e+00  7.9999999999999991e+00  8.0040979254199254e+00  8.0031482827843217e+00  8.0000000000000000e+00  8.0030930817875277e+00  8.0002379949785407e+00  8.0016751572845202e+00  8.0006881986738758e+00  8.0030869665535462e+00  8.0035519290018282e+00  8.0027721145573310e+00  8.0004125224759886e+00  8.0021289584839472e+00  8.0021170032674309e+00  8.0005683346798673e+00  8.0014576314038042e+00  8.0015511736593741e+00  8.0000000000000000e+00  8.0070919737391346e+00  8.0002281395660191e+00  8.0102111637124001e+00  8.0013580771688524e+00  8.0011519262639119e+00  8.0011144146439577e+00  8.0033054040238465e+00  8.0000000000000000e+00  8.0012569652552106e+00  8.0046564980380808e+00  8.0000000000000000e+00  8.0056627467205548e+00  8.0000000000000000e+00  8.0000000000000000e+00  8.0016930135199136e+00  7.9999999999999991e+00  8.0019804683718991e+00  8.0008437695714036e+00  8.0031620267784920e+00  8.0026189902907596e+00  8.0016245448986147e+00  8.0000000000000000e+00  7.9999999999999991e+00  8.0032400968568354e+00  8.0011319400372507e+00  8.0015960919612539e+00  8.0016146024340582e+00  8.0037255336606385e+00  8.0014204880896767e+00  8.0004836896134197e+00  8.0045492363376010e+00  8.0023940565268106e+00  8.0018479574735792e+00  8.0025576465550845e+00  8.0036117726831808e+00  8.0004433611705696e+00  8.0002931404898643e+00  8.0000000000000000e+00  8.0054148610460079e+00  8.0053348105943058e+00  8.0042250106426405e+00  8.0041440107753683e+00  8.0881128072226200e+00  8.0891638227287235e+00  8.0879462604138084e+00  8.0878607951532242e+00  8.0135791889025914e+00  8.0138474691104360e+00  8.0081395693750537e+00  8.0123532021403747e+00  8.0366608193438829e+00  8.0307581109665218e+00  8.0306099943478308e+00  8.0325379178937819e+00  8.0000000000000000e+00  8.0000000000000000e+00  7.9999999999999982e+00  8.0022325985989600e+00  8.0831934967589429e+00  8.0843670257942115e+00  8.0839076411753492e+00  8.0853675079922898e+00  8.0848881421638570e+00  8.0877027931699441e+00  8.0854399238273231e+00  8.0851759861347805e+00  8.0008196544866710e+00  8.0005574930509571e+00  8.0000000000000000e+00  8.0006529592380513e+00  8.0934961189710215e+00  8.0929386169841067e+00  8.0934066320427540e+00  8.0924101121801222e+00  8.0062194295216393e+00  8.0057318818110375e+00  8.0030291517991952e+00  8.0025181447994740e+00  8.0658387435319838e+00  8.0632570824600354e+00  8.0621746640135985e+00  8.0592357366068246e+00  8.0850865311711253e+00  8.0862822223148587e+00  8.0840337888880640e+00  8.0850965187946748e+00  8.0095511293566002e+00  8.0124197454900230e+00  8.0072259217595843e+00  8.0073711478082163e+00  8.0032346573537687e+00  8.0032287356845835e+00  8.0033129578267364e+00  8.0031695663053668e+00  8.0866467477974346e+00  8.0893216088512059e+00  8.0880976724748965e+00  8.0887653103140895e+00  7.9999999999999982e+00  8.0008486515687913e+00  8.0013698548921379e+00  8.0006438894982956e+00  8.0016815438084450e+00  8.0013234035604075e+00  8.0010419531338304e+00  8.0010995377601422e+00  8.0000000000000000e+00  8.0000000000000000e+00  8.0000000000000000e+00  8.0059045797550237e+00  8.0905469195536579e+00  8.0900264973667859e+00  8.0906684876782577e+00  8.0898532733588500e+00  8.0035209192340666e+00  8.0033158951233574e+00  8.0030692236440739e+00  8.0043496647765835e+00  8.1042703648144876e+00  8.1077935679019326e+00  8.1023160428006840e+00  8.1041315298652190e+00  8.0562222720721266e+00  8.0587603345406666e+00  8.0600108766996055e+00  8.0586642876260832e+00  8.0190309603007464e+00  8.0198847291103590e+00  8.0215533158041730e+00  8.0174779745906442e+00  8.0124519180681997e+00  8.0115942504754987e+00  8.0096139945441482e+00  8.0117712500071239e+00  8.0890366214581704e+00  8.0892829326670821e+00  8.0891823553715199e+00  8.0889960014337667e+00  8.0472692492035787e+00  8.0472554239435379e+00  8.0472563398240524e+00  8.0472702219329602e+00  8.0721124092004768e+00  8.0728440081288646e+00  8.0720255919496537e+00  8.0766850563751209e+00  8.0029260854793201e+00  8.0022942005802609e+00  8.0020534464200086e+00  8.0031331962886068e+00  8.0037383259478787e+00  8.0035039858198811e+00  8.0035684708285881e+00  8.0038138970881825e+00  8.0118819759414972e+00  8.0126656194159995e+00  8.0127173811404671e+00  8.0111682179085726e+00  8.0224264934689611e+00  8.0253992542688390e+00  8.0193906610261081e+00  8.0205676010649789e+00  8.0965362844055839e+00  8.0981158867624448e+00  8.0957106674488024e+00  8.0954588121088573e+00  8.0073774509974740e+00  8.0066185212130794e+00  7.9999999999999991e+00  8.0064691180458496e+00  8.0479309806403450e+00  8.0463343021730633e+00  8.0486633700848547e+00  8.0484313709640798e+00  8.0648519074022769e+00  8.0609228600300646e+00  8.0674262217918145e+00  8.0027599124438904e+00  8.0020470623286961e+00  8.0000000000000000e+00  8.0031841738296539e+00  8.0743268833155533e+00  8.0759868494459255e+00  8.0729866151017262e+00  8.0756627372894574e+00  8.0880018675237331e+00  8.0897440513952077e+00  8.0889080274557639e+00  8.0920657691361928e+00  8.0917272457216267e+00  8.0976269386827759e+00  8.0993275581644308e+00  8.0987923109524349e+00  8.0980139304174372e+00  8.0681728834587947e+00  8.0647693943150838e+00  8.0677982338165997e+00  8.0683589926633861e+00  8.0046430641074764e+00  8.0038759120510967e+00  8.0042684836118259e+00  8.0032923272456777e+00  8.1051038571136704e+00  8.0000000000000000e+00  8.0000000000000000e+00  8.0000000000000000e+00  8.0006045007447995e+00  8.0018957494723608e+00  8.0016157024599828e+00  8.0010110043752452e+00  8.0008929230862229e+00  8.0209278676709648e+00  8.0212670899896175e+00  8.0278511629792728e+00  8.0253216343781570e+00  8.0050156720294954e+00  8.0016181390646821e+00  8.0013609692523087e+00  8.0014552055197008e+00  8.0738917793880880e+00  8.0745786874765209e+00  8.0767657720743671e+00  8.0722901723278255e+00  8.0218407488150891e+00  8.0228311465846698e+00  8.0197138347677352e+00  8.0234756309431372e+00  8.0020124715674896e+00  8.0024167913519140e+00  8.0016946459251503e+00  8.0027343396234834e+00  8.0519413285971826e+00  8.0473012973330853e+00  8.0512922316187403e+00  8.0507646655851079e+00  8.0063285955717269e+00  8.0053854602235557e+00  8.0000000000000000e+00  8.0056924377735381e+00  8.0944723215239023e+00  8.0948047908841314e+00  8.0903349572088512e+00  8.0925073231042681e+00  8.0809288746678245e+00  8.0827357089984080e+00  8.0819675720704165e+00  8.0788009844701243e+00  8.0000000000000000e+00  8.0000000000000000e+00  8.0000000000000000e+00  8.0035607817538690e+00  8.0000000000000000e+00  8.0031348246655600e+00  8.0025944018566744e+00  8.0352938935822262e+00  8.0365980815844953e+00  8.0307697448042585e+00  8.0339118373772394e+00  8.0830468480480278e+00  8.0820763401937086e+00  8.0833180200177033e+00  8.0804644051712540e+00  8.0473834945089617e+00  8.0481564838045259e+00  8.0483697507323271e+00  8.0475410269393688e+00  8.0455853203043439e+00  8.0406805466587219e+00  8.0369899255377852e+00  8.0412545755054410e+00  8.0203941027234844e+00  8.0156742866058686e+00  8.0157828690207413e+00  8.0175495470137612e+00  8.0072019834565484e+00  8.0085996690499819e+00  8.0068073078813988e+00  8.0062600939903295e+00  8.0888979865571340e+00  8.0891616960400743e+00  8.0891068421979124e+00  8.0890695754982023e+00  8.0021879677454972e+00  8.0024287132336873e+00  8.0024093443258568e+00  8.0026393308720785e+00  8.0522228088962073e+00  8.0527755586142344e+00  8.0554396050403447e+00  8.0554899773784072e+00  8.0032195373080430e+00  8.0032416050534145e+00  8.0032572522136061e+00  8.0032048367739179e+00  8.0038055249753146e+00  8.0020964792603539e+00  8.0032344275026510e+00  8.0036542831615360e+00  8.0027094917547288e+00  8.0028885153287810e+00  8.0026522376274585e+00  8.0025353204016003e+00  8.0000000000000000e+00  8.0000000000000000e+00  8.0012904040568369e+00  8.0007425390434967e+00  8.0032415900734772e+00  8.0031022035152102e+00  8.0033571621436437e+00  8.0030968702755256e+00  8.0707151244945230e+00  8.0707308045777921e+00  8.0715495331004110e+00  8.0705621413691127e+00  8.0716581108362533e+00  8.0709112652468455e+00  8.0728259822031188e+00  8.0531041124770582e+00  8.0526135601953666e+00  8.0520932523743785e+00  8.0518963585028018e+00  8.0110209795491478e+00  8.0098855826075557e+00  8.0075708456743051e+00  8.0117535615113393e+00  8.0854169729708740e+00  8.0875115064299656e+00  8.0865542641018155e+00  8.0842315383607346e+00  8.0192188161237841e+00  8.0181763723812427e+00  8.0197210176190037e+00  8.0190019269018915e+00  7.9999999999999991e+00  7.9999999999999991e+00  8.0012296456767444e+00  8.0466716804648488e+00  8.0416402963195566e+00  8.0419150282603127e+00  8.0486219507692702e+00  8.0225130841942178e+00  8.0245795735210521e+00  8.0235863883097558e+00  8.0199118743503846e+00  8.0012273104349063e+00  8.0011914792255023e+00  8.0006501381735102e+00  8.0006376601120035e+00  8.0311913297677773e+00  8.0293214321120345e+00  8.0280407966840883e+00  8.0303984385586400e+00  8.0411575970489846e+00  8.0402874065270051e+00  8.0446647779591220e+00  8.0381613498683695e+00  8.0059934274988223e+00  8.0051893204848419e+00  8.0130563692594095e+00  8.0023806664555917e+00  8.0022357604532708e+00  8.0895008212022024e+00  8.0896023233352246e+00  8.0893023143259839e+00  8.0897638741290301e+00  8.0894715115029623e+00  8.0895831342132691e+00  8.0894803899481555e+00  8.0894925346181523e+00  8.0572792371916417e+00  8.0534150011568837e+00  8.0555602650231766e+00  8.0527173753187267e+00  8.0749682900561162e+00  8.0746343941481857e+00  8.0751378541571501e+00  8.0396215080129760e+00  8.0365623382711675e+00  8.0383457977683772e+00  8.0384000768917510e+00  8.0105148471159602e+00  8.0068848473227305e+00  8.0073509018773734e+00  8.0074737658545576e+00  7.9999999999999991e+00  7.9999999999999991e+00  8.0041588205208889e+00  8.0046296087280293e+00  8.0212796823861865e+00  8.0187665887542998e+00  8.0198502133225986e+00  8.0210566007029431e+00  8.0206947105640278e+00  8.0150524024952858e+00  8.0192612994872814e+00  8.0039624783273702e+00  8.0019286742444784e+00  8.0037425105994249e+00  8.0018562449551887e+00  8.0012023324841852e+00  8.0008788206266424e+00  8.0017369426478773e+00  8.0008816948141632e+00  8.0274832008905701e+00  8.0237214439071582e+00  8.0239922615771118e+00  8.0265640094973598e+00  8.0696176576789327e+00  8.0716398897551151e+00  8.0729954420044372e+00  8.0310273940379400e+00  8.0342660043077618e+00  8.0279319672254275e+00  8.0287594086913963e+00  8.0000000000000000e+00  8.0037288139284666e+00  8.0023717795251610e+00  8.0023304043861305e+00  8.0000000000000000e+00  7.9999999999999991e+00  8.0018936565961010e+00  8.0024347821917026e+00  8.0763967615245988e+00  8.0801800512751232e+00  8.0783726625533223e+00  8.0785192406383945e+00  8.0092379407738949e+00  8.0064896487853279e+00  8.0115827493614287e+00  8.0080512883409636e+00  8.0043177620110395e+00  8.0073957323629212e+00  8.0108702881801577e+00  8.0000000000000000e+00  7.9999999999999991e+00  8.0000000000000018e+00  8.0058352571649980e+00  8.0031986542186804e+00  8.0032135062266008e+00  8.0032132962048745e+00  8.0359835121027992e+00  8.0319448228950723e+00  8.0349140047920304e+00  8.0383693176367093e+00  8.0726131819948517e+00  8.0714751489107694e+00  8.0724868578487996e+00  8.0697880081569995e+00  8.0868658123915438e+00  8.0853207329107626e+00  8.0866978268423821e+00  8.0859460050371634e+00  8.0835023381726714e+00  8.0821803749183108e+00  8.0846610393811282e+00  8.0839632106050097e+00  8.0043417582926715e+00  8.0043640488303343e+00  8.0040719341503408e+00  8.0047870287316556e+00  8.0232808131438134e+00  8.0231954382700845e+00  8.0132376441047786e+00  8.0194161418610221e+00  8.0073541876157872e+00  8.0057062190836437e+00  8.0131094595929611e+00  7.9999999999999991e+00  8.0000000000000000e+00  8.0003967056585612e+00  8.0802168040869411e+00  8.0031926510788285e+00  8.0031470527347572e+00  8.0032043320073765e+00  8.0031719789773028e+00  8.0165500857230665e+00  8.0171667945052132e+00  8.0154093844715817e+00  8.0032413465313983e+00  8.0032772502163301e+00  8.0032298795853851e+00  8.0032510483836177e+00  8.0143693082981553e+00  8.0117704798341620e+00  8.0074329898424903e+00  8.0062274504505666e+00  8.0044123965858844e+00  8.0047185935845420e+00  8.0525436875438139e+00  8.0496762643799968e+00  8.0494361893582056e+00  8.0512919759716599e+00  8.0850124279457614e+00  8.0816462641238509e+00  8.0821351648236845e+00  8.0838346157740144e+00  8.0057002788951355e+00  8.0049478437594974e+00  8.0041740308867428e+00  8.0059730003237597e+00  8.0563887520938717e+00  8.0571375205633160e+00  8.0033709583818027e+00  8.0000000000000000e+00  8.0000000000000000e+00  8.0033020567361568e+00  8.0133036809944045e+00  8.0000000000000000e+00  8.0082085350477410e+00  8.0078221643729357e+00  8.0008862299916483e+00  8.0008110300087782e+00  8.0000000000000000e+00  8.0010057390076277e+00  8.0007777864022636e+00  8.0007262943134290e+00  8.0014769316980860e+00  8.0008257739920321e+00  8.0031667222061564e+00  8.0031449614736641e+00  8.0032623278975539e+00  8.0033157765933094e+00  8.0744242621353930e+00  8.0724206706299650e+00  8.0771686799937310e+00  8.0743522823187206e+00  8.0790186682174863e+00  8.0794238381238319e+00  8.0812183058104505e+00  8.0796777917558646e+00  8.0007384984723053e+00  8.0013190752683574e+00  8.0019888180904015e+00  8.0015298811793656e+00  8.0568305508190399e+00  8.0919968492572316e+00  8.0938615864075558e+00  8.0937106247474659e+00  8.0921432054536115e+00  8.0031261619820864e+00  8.0031775596911459e+00  8.0029508129821600e+00  8.0031444333867352e+00  8.0031873147768469e+00  8.0032242776820368e+00  8.0031666422843575e+00  8.0850083752126487e+00  8.0866263560637517e+00  8.0865187400483745e+00  8.0244355367999685e+00  8.0197690986655310e+00  8.0245128086512487e+00  8.0263357325694837e+00  8.0488818588076665e+00  8.0489385635298056e+00  8.0489359066400823e+00  8.0482541511904806e+00  8.0049407376257502e+00  8.0055823395109513e+00  8.0025775759006699e+00  8.0030834415509808e+00  8.0039948080630339e+00  8.0025864465100387e+00  8.0021833345122744e+00  8.0028692378576203e+00  8.0901546174277392e+00  8.0897775122787206e+00  8.0901544365879623e+00  8.0140409004973563e+00  8.0127466475595064e+00  8.0170581461702373e+00  8.0484978172905155e+00  8.0460863315278122e+00  8.0469018451787964e+00  8.0886284702734201e+00  8.0869739903238465e+00  8.0875229668618971e+00  8.0180181406442248e+00  8.0265613188165670e+00  8.0187752590791455e+00  8.0741796818428693e+00  8.0735536634042457e+00  8.0751467143552933e+00  8.0010366771663062e+00  8.0008099192834656e+00  8.0006312142716762e+00  8.0009660838183638e+00  8.0828398554642611e+00  8.0849616332872412e+00  8.0839744244455822e+00  8.0991883729760268e+00  8.1012551464716047e+00  8.0983240069331561e+00  8.1009517257593249e+00  8.0146191478356652e+00  8.0128510534668198e+00  8