<?xml version="1.0"?>
<VTKFile type="UnstructuredGrid"  version="0.1"  >
<UnstructuredGrid>
<Piece  NumberOfPoints="15663" NumberOfCells="63554">
<Points>
<DataArray  type="Float64"  NumberOfComponents="3"  format="ascii">38.88113021850586 35.38135147094727 22.06880950927734  39.36452865600586 35.34934997558594 22.81365013122559  39.09764862060547 34.62228012084961 21.91295051574707  38.67735483063471 34.84482884312251 22.71195725727152  38.21146011352539 32.85988998413086 25.64524078369141  38.82424926757812 33.43202972412109 26.1857795715332  38.71823120117188 32.41458129882812 26.10317039489746  39.17133172838988 32.78832399775062 25.43783904190442  34.60824607335081 34.94585524769541 21.92918466615566  35.04243476049936 35.42514119361567 20.62568496688014  34.1309435101215 35.85980482829576 21.60444164599777  33.95718548069826 35.38618069139923 20.69218804136077  39.89416122436523 37.34516143798828 26.13582038879395  39.89416122436523 38.33985900878906 26.03207015991211  39.89416122436523 37.63906097412109 25.32983016967773  39.05425577550348 37.67347995110622 25.41168767136374  38.8188923193761 33.86580640215719 22.75098396067709  37.92580438635863 34.29203911674156 21.58739275085712  37.82308415670638 34.98297490072618 22.62150352365526  37.74020089352436 34.2010917974687 23.37675250468108  36.38518823492192 32.31526005147992 22.49170785072072  36.46617728723734 30.85221632234675 21.91146980770786  37.16633182866138 31.6245560727787 23.16645396609459  37.83179059538426 31.90746799556816 22.04330139347446  36.026853500484 33.37420932960789 21.3600873871377  35.79601295682315 33.28543200307397 22.66527799138701  35.47894685449135 32.10670778478683 21.756655851277  38.83012219774152 31.74156057651599 23.35257845636281  39.03587674152468 31.18136549927481 22.49650498813012  37.89146083823535 30.48900901027535 23.13324820938471  37.94187927246094 30.99961090087891 24.45389938354492  38.14202880859375 30.25992965698242 24.37573051452637  38.45899963378906 30.65267944335938 24.87931060791016  38.96244167327145 30.42522451387337 23.85768718322852  37.93942883496791 37.72658920308131 24.86314258897129  38.26643481489054 37.71287747064946 23.56854346728274  38.99634692225478 36.91912725633676 24.01299959819189  38.96611159699346 38.00411074467282 24.06059553259895  23.31057929992676 37.43515014648438 23.44437980651855  23.60009956359863 36.59683990478516 23.56809043884277  23.8533992767334 36.92370986938477 22.98771095275879  24.2815638820345 36.82200368842646 23.56816402904094  27.81987953186035 39.39154815673828 22.95486068725586  27.93625068664551 38.67784118652344 23.16474914550781  27.48026200885478 38.63605244811882 22.02209846489658  27.04934222272819 38.97658386842911 22.77318590071283  36.17031860351562 35.33715057373047 20.03672027587891  36.64176940917969 36.18875885009766 20.33008003234863  37.08610153198242 35.22956085205078 20.30797958374023  36.1650415216409 36.09461685666956 20.91754813468968  36.16524101974056 37.41779748889144 23.45452500540751  36.10188092115246 37.48374886657857 24.86082373588246  36.17183912143307 36.46347396504363 24.80877103772118  37.392383976117 36.75463306060579 24.24243821081663  34.95724868774414 38.25611877441406 23.80796051025391  35.21199035644531 38.52436065673828 23.06019020080566  35.75152969360352 38.92055130004883 23.45689010620117  35.91870267859964 38.49692816785659 24.06257277331236  37.75275039672852 31.8947696685791 24.70191955566406  38.51744842529297 31.30537986755371 25.1787109375  38.06367451046427 31.57703561610541 24.00989337869752  39.31497955322266 39.23374938964844 25.92893981933594  38.9773429936189 38.13216489008581 26.68989916949021  38.17637354386268 39.03599590793923 25.75231451762733  34.79317855834961 38.8321418762207 25.7094898223877  35.25625991821289 37.93143081665039 25.64438056945801  35.99036063959569 38.99078352744774 25.73145179280608  35.5492882077378 39.0309404546305 25.1412438603088  36.83120579750061 38.12541994570906 24.43886998385718  35.87909098512956 38.16552274651111 25.08881434571202  36.34858375595001 39.056650839868 24.77797456943689  38.90200042724609 38.49544143676758 28.02836036682129  38.87469863891602 39.120849609375 27.41415023803711  39.38558959960938 38.82735824584961 27.39569091796875  39.17239730552635 37.97628353217148 27.60149064696481  36.17588043212891 39.27687072753906 23.89904022216797  36.5738410949707 38.75323104858398 23.18794059753418  27.18461036682129 20.64990043640137 18.64289093017578  27.50445938110352 21.2779598236084 18.76592063903809  28.12368965148926 20.69741058349609 18.89521026611328  27.76986055382286 20.80711038668112 18.04555471415864  38.4912109375 32.53010940551758 20.28652000427246  39.04001998901367 32.74266052246094 20.87914085388184  38.21093203912047 31.85570899416647 20.88093068356413  38.3026636971496 33.05160487790574 21.51897054225487  37.6230583190918 33.75432968139648 20.15409088134766  38.45166015625 33.48960876464844 20.64398956298828  37.18731112205461 33.09780861134103 20.89752862713933  34.67387008666992 38.21588897705078 26.60058975219727  35.59932162210836 38.72120152482443 26.60373313929955  38.0220582227162 26.43847947881373 23.68627026314567  39.26808995519582 26.40690804600046 23.61485837060555  39.0609375537646 25.49943557784553 23.95869180064767  38.70631966397662 25.34829622275958 22.64626434838802  37.34110100398727 36.58303632679752 22.34301577910238  37.28117753270698 35.3896576212191 21.57029209091731  38.10107407763405 35.73940564222404 22.34338760743641  36.73279917837831 35.43707387325072 22.49376156598317  34.01322174072266 38.51676940917969 26.86595916748047  34.2799186706543 39.09992980957031 26.45041084289551  34.79123052424377 38.85192425666737 27.52455393305195  27.20305061340332 19.72097015380859 18.39343070983887  27.12223052978516 20.33865928649902 17.63326072692871  27.93152404309934 19.97228925169077 18.52761022113441  38.79690526287464 35.37793332898387 25.49008982919388  39.13078410235357 36.49319916655969 26.15218877523983  38.45263097010999 35.53421840046154 26.36186150727089  37.55846491885865 36.18982361539751 25.60962682621386  39.07722091674805 31.96932029724121 20.66539001464844  37.65169002055326 35.82084036347567 23.23461824243754  37.05337151942763 35.29466701141836 23.64478250702755  38.22693868477159 35.7704171324852 24.28886569630853  36.73745032023813 35.50982622244945 24.67945855026664  39.07329177856445 30.71685028076172 25.43140983581543  39.89416122436523 31.6574592590332 25.40002059936523  39.89416122436523 30.85828971862793 25.07052993774414  39.27580416094794 31.84842445074555 25.21671228208702  24.60198020935059 39.89572906494141 23.04388046264648  25.14743995666504 39.89572906494141 23.49438095092773  25.35143089294434 39.89572906494141 22.76412963867188  25.33320714852981 38.71120110112518 23.58909061082602  36.03485870361328 38.38401031494141 22.72001075744629  39.89416122436523 26.02708053588867 23.96175003051758  38.80026141993226 26.26199456733091 24.74657231987561  37.05824367683608 33.85012014609872 22.19000160295809  23.00295066833496 39.20064926147461 23.14603996276855  23.07436943054199 38.34157180786133 23.2817497253418  23.46279907226562 38.70679092407227 22.64822006225586  23.70378575825929 38.67486705638444 23.91913147058219  35.42945411792078 37.7449563134851 22.57352304812727  26.73700904846191 21.30303001403809 17.02576065063477  26.56629943847656 21.85462951660156 16.61284065246582  26.81864929199219 21.88050079345703 16.08563995361328  27.58939628708917 21.9052751500026 16.53068496957622  39.89416122436523 33.16096115112305 24.37437057495117  39.26103580507613 32.71965320027477 23.58230323740619  38.7287687744542 33.55897107144477 23.96942602673149  39.13830287481733 33.61180281526518 24.59447698491518  38.27304840087891 39.36447906494141 26.97056007385254  37.54218986004146 37.94733097800221 26.31616675135921  37.98958105840396 37.83467525500796 27.49851234410937  35.48440933227539 37.02859115600586 26.83580017089844  35.74898910522461 37.09262084960938 26.11971092224121  36.13463973999023 36.41482162475586 26.96903991699219  36.19784531501912 37.39862237612277 26.75622849563387  39.0037597853734 34.68252289333732 23.87409392582183  39.28203977759766 35.75214885799898 24.11231565016675  39.02880794445308 34.7393520676463 25.10841672175289  37.20016860961914 34.47494888305664 20.11026954650879  37.84629058837891 34.46755981445312 20.45853042602539  37.02238504930171 34.27463972826024 20.8064558654485  28.81110954284668 20.0088996887207 18.64575958251953  28.52025032043457 19.39650917053223 18.36388969421387  28.72150993347168 20.03745079040527 17.6734790802002  39.89416122436523 32.19343948364258 24.58176040649414  39.89416122436523 32.52326965332031 23.84444046020508  39.89416122436523 31.70339012145996 23.83160972595215  39.1738486825658 31.4526780236781 24.3293179921383  39.89416122436523 30.8319206237793 22.61529922485352  39.89416122436523 31.61360931396484 22.0851993560791  39.89416122436523 30.7040901184082 21.73262023925781  38.99897695467548 33.690776079099 25.50741476896903  34.98614883422852 38.56494140625 24.77098083496094  35.15401077270508 38.88523864746094 23.9981803894043  35.47080993652344 39.30358123779297 24.11915016174316  36.78161288350971 37.16383049361863 27.85193946438382  36.66855307341418 38.19129310755498 27.08975387382226  37.10869362131642 36.78314289872238 26.75069853296924  34.74042129516602 37.9269905090332 21.0108699798584  35.63457107543945 37.9005012512207 21.35977935791016  34.8200815378104 36.89550395316932 21.10493042343085  34.7022844826722 37.66843092808035 22.25417393193472  34.6710090637207 37.472900390625 23.63306999206543  34.88954357874307 36.39935577204782 22.79725613416662  39.07991170643761 32.13369884938874 21.65006454092093  38.91069030761719 31.11581039428711 20.44981002807617  38.96562547249361 31.20756659411342 21.57546043110019  35.43915939331055 34.65946960449219 24.76782989501953  35.62108993530273 33.95309829711914 24.5333309173584  36.0895309
[...]
<PointData  Scalars="p"> 
<DataArray  type="Float64"  Name="p"  format="ascii">8.0066824416455944e+00  8.0042285683101433e+00  8.0061021017412770e+00  8.0055001274136934e+00  8.0024480898702102e+00  8.0016053225089099e+00  8.0013041733675649e+00  8.0012244478546322e+00  8.0179743605068694e+00  8.0199797062565956e+00  8.0205875195533451e+00  8.0244453783079717e+00  8.0000000000000000e+00  8.0000000000000000e+00  8.0000000000000000e+00  8.0017723051471066e+00  8.0045673990956825e+00  8.0091945954814818e+00  8.0078018913009839e+00  8.0065461507574014e+00  8.0106325664546976e+00  8.0103613400289539e+00  8.0071486586816221e+00  8.0071982399946169e+00  8.0144762609955755e+00  8.0123351104751439e+00  8.0145397166182484e+00  8.0028513315451555e+00  8.0027470394022977e+00  8.0047952999445346e+00  8.0033582808322361e+00  8.0027373635924572e+00  8.0019015132730615e+00  8.0018328066866431e+00  8.0040233409346015e+00  8.0049275503795734e+00  8.0028187542272100e+00  8.0030078524298567e+00  8.0743056870578283e+00  8.0738427440849332e+00  8.0716948935252812e+00  8.0726025180143655e+00  8.0632279932720170e+00  8.0629502237999020e+00  8.0624665838888259e+00  8.0649665141176179e+00  8.0166656726666048e+00  8.0147900084875197e+00  8.0135313954020386e+00  8.0152232973520512e+00  8.0092862299122025e+00  8.0064774372711991e+00  8.0071357555856384e+00  8.0059013594813013e+00  8.0094358437978919e+00  8.0111394547847450e+00  8.0081268141573307e+00  8.0073232279669888e+00  8.0039146027214905e+00  8.0018293865820436e+00  8.0039655480961205e+00  8.0022501818120357e+00  8.0016235966813873e+00  8.0031803657044360e+00  8.0045992142609865e+00  8.0050373362318421e+00  8.0046135137871790e+00  8.0053616140445101e+00  8.0059259503299103e+00  8.0058034816122650e+00  8.0054386059373108e+00  8.0015498708831547e+00  8.0019984269934419e+00  8.0015333938766204e+00  8.0011489277201644e+00  8.0064557108896750e+00  8.0076662633281330e+00  8.0729589337410133e+00  8.0734051429284506e+00  8.0726646036735321e+00  8.0734466357706474e+00  8.0085431885505827e+00  8.0064898785833005e+00  8.0078523313455001e+00  8.0075612564044203e+00  8.0117983801852972e+00  8.0090739057600970e+00  8.0116628132609744e+00  8.0037428082048336e+00  8.0039314630138811e+00  8.0021800026982888e+00  8.0007666377039008e+00  8.0008354627866041e+00  8.0016899845301186e+00  8.0094261255122596e+00  8.0111059129313276e+00  8.0078091359060224e+00  8.0106815820520065e+00  8.0034345729425738e+00  8.0036881595315439e+00  8.0034272797490011e+00  8.0722885788740939e+00  8.0736054590107713e+00  8.0722776217624386e+00  8.0020941124906919e+00  8.0012286221376403e+00  8.0020744611523558e+00  8.0039642446594339e+00  8.0059370284694769e+00  8.0071759956042499e+00  8.0078338796000033e+00  8.0043239080666542e+00  8.0067622460213812e+00  8.0010762358122722e+00  8.0000000000000000e+00  8.0000000000000000e+00  8.0010035187494175e+00  8.0708256360329660e+00  8.0710428036955406e+00  8.0688675431726828e+00  8.0709817453348531e+00  8.0103502138419174e+00  8.0000000000000000e+00  8.0008788346322053e+00  8.0101257700923476e+00  8.0738440692179214e+00  8.0743265641699615e+00  8.0716524474409699e+00  8.0744639581956719e+00  8.0129778414988273e+00  8.0746328612139120e+00  8.0751071960463410e+00  8.0753615260362075e+00  8.0753144510648944e+00  8.0000000000000000e+00  8.0018179687678046e+00  8.0031570454329746e+00  8.0017496050786452e+00  8.0026733656494891e+00  8.0032560011377338e+00  8.0022618828568053e+00  8.0035481851030035e+00  8.0043999591466726e+00  8.0033226225583540e+00  8.0036603875059473e+00  8.0028211498702007e+00  8.0019441257010442e+00  8.0018450210081280e+00  8.0131351087509248e+00  8.0113047659409418e+00  8.0127653235983729e+00  8.0721482121409291e+00  8.0719819598684506e+00  8.0732660620622259e+00  7.9999999999999991e+00  8.0000000000000000e+00  8.0000000000000000e+00  8.0014158362751164e+00  7.9999999999999982e+00  8.0000000000000000e+00  8.0000000000000000e+00  8.0016612982658195e+00  8.0062840652118652e+00  8.0074259131606365e+00  8.0065356450739902e+00  8.0027372003626702e+00  8.0033430701381540e+00  8.0032053008405022e+00  8.0188964794306035e+00  8.0153066109379907e+00  8.0190084784069313e+00  8.0160454148925240e+00  8.0120904674824125e+00  8.0145259349071374e+00  8.0041441635890092e+00  8.0060564596168220e+00  8.0040242588420973e+00  8.0094168055043262e+00  8.0094861571868883e+00  8.0080225085233199e+00  8.0100539359420555e+00  8.0120526887360732e+00  8.0058915037615623e+00  8.0063396066058434e+00  8.0030062385605163e+00  8.0036142077471712e+00  8.0034132884534177e+00  8.0040489864544444e+00  8.0046528209691363e+00  8.0102632650491667e+00  8.0745152046747908e+00  8.0741911656730760e+00  8.0745839663437344e+00  8.0742001149149321e+00  8.0037447028922735e+00  8.0024064473411123e+00  8.0034656985847761e+00  8.0000000000000000e+00  8.0000000000000000e+00  8.0097535724290942e+00  8.0107243378906361e+00  8.0080467509920403e+00  8.0085741816065745e+00  8.0094107753865398e+00  8.0068615648058028e+00  8.0028545058187071e+00  8.0037069630502913e+00  7.9999999999999991e+00  7.9999999999999991e+00  8.0080622775763892e+00  8.0060446414071471e+00  8.0044905322040840e+00  8.0042047177482605e+00  8.0142664118731837e+00  8.0151528952099458e+00  8.0738889020443576e+00  8.0728095996196210e+00  8.0734787991669368e+00  8.0742788611964702e+00  8.0167011956133507e+00  8.0140438451482066e+00  8.0145984920532296e+00  8.0016014578589321e+00  8.0026004197419862e+00  8.0044289143952074e+00  8.0044887389646533e+00  8.0694344200596877e+00  8.0709862544489255e+00  8.0664851262670592e+00  8.0682447960716459e+00  8.0000000000000000e+00  8.0029894288708743e+00  7.9999999999999991e+00  8.0000000000000000e+00  8.0012633734243508e+00  8.0018845436599655e+00  8.0009899545346546e+00  8.0000000000000000e+00  8.0011378098053143e+00  8.0241549286425631e+00  8.0202254956386909e+00  8.0048030614749575e+00  8.0037033563304369e+00  8.0046975768247020e+00  8.0045701812182504e+00  8.0735482033641564e+00  8.0755145177871466e+00  8.0747819515284434e+00  8.0021930001526140e+00  8.0050941203007451e+00  8.0664182210422730e+00  8.0662675969645168e+00  8.0748400849985806e+00  8.0200739959054665e+00  8.0224509646542312e+00  8.0053045735574457e+00  8.0725346172929218e+00  8.0705592617144699e+00  8.0087911155734428e+00  8.0068307123356846e+00  8.0100873350406712e+00  8.0052112460431708e+00  8.0212007187256908e+00  8.0174152631372078e+00  8.0164002806420260e+00  8.0000000000000018e+00  8.0000000000000000e+00  8.0000000000000000e+00  8.0014015986178872e+00  8.0031185618666818e+00  8.0028202990202697e+00  8.0021372044792933e+00  8.0025329198330493e+00  8.0121541067378939e+00  8.0113991751691245e+00  8.0009916859949772e+00  8.0000000000000000e+00  8.0012023074832079e+00  8.0099105112111069e+00  8.0092069723490873e+00  8.0047700449259036e+00  8.0047268340304569e+00  8.0223055102506144e+00  8.0247236108015905e+00  7.9999999999999991e+00  7.9999999999999991e+00  8.0016876643047361e+00  8.0713290755334981e+00  8.0686978679682468e+00  8.0669567889958671e+00  8.0679010948558858e+00  8.0047689311256285e+00  8.0038415387274977e+00  8.0033748136380325e+00  8.0036820673707201e+00  8.0059211177549994e+00  8.0195871944075670e+00  8.0026326777181112e+00  8.0021210311620585e+00  8.0019908042660948e+00  8.0027942246679249e+00  8.0021680040564185e+00  8.0739889039389237e+00  8.0729370153753468e+00  8.0745319975650318e+00  8.0121497617637143e+00  8.0146239062837239e+00  8.0076849063036768e+00  8.0052891743034831e+00  8.0054385380089581e+00  8.0061750306622663e+00  8.0049594859943092e+00  8.0000000000000000e+00  8.0000000000000000e+00  8.0006866911528718e+00  8.0646119421785176e+00  8.0065233726338807e+00  8.0056790357379093e+00  8.0069595093565660e+00  8.0055751470798917e+00  8.0084020381000691e+00  8.0171500338838282e+00  8.0179957375198825e+00  8.0048221275366735e+00  8.0073622429289273e+00  8.0017504272198519e+00  8.0009185243005980e+00  8.0010275108706228e+00  7.9999999999999991e+00  8.0135255331843886e+00  8.0104086824677232e+00  8.0749119960519717e+00  8.0747133593741740e+00  8.0747765609607818e+00  8.0041625593517018e+00  8.0020215353737818e+00  8.0016199495507419e+00  8.0014160947211384e+00  8.0008225480303938e+00  8.0014589073481872e+00  7.9999999999999991e+00  8.0210918022956008e+00  8.0220722062668095e+00  8.0176151394138540e+00  8.0000000000000000e+00  7.9999999999999991e+00  7.9999999999999991e+00  7.9999999999999982e+00  7.9999999999999991e+00  8.0141925132405571e+00  7.9999999999999991e+00  8.0000000000000000e+00  8.0719169765741920e+00  8.0695067605425965e+00  8.0697616307427218e+00  8.0725629410878597e+00  8.0039536397491755e+00  8.0019105764351721e+00  8.0065748120675160e+00  8.0000000000000018e+00  8.0019951106929295e+00  8.0010718997276129e+00  8.0147298052777867e+00  8.0167938758373598e+00  8.0187495168026004e+00  8.0086730880513297e+00  8.0054740726783251e+00  8.0715587696462308e+00  8.0699916577805322e+00  8.0745209368412798e+00  8.0000000000000000e+00  7.9999999999999991e+00  8.0154674445929341e+00  8.0149463383548838e+00  7.9999999999999991e+00  7.9999999999999991e+00  8.0018322970432827e+00  8.0042018214191426e+00  8.0042592195531359e+00  8.0681074103227193e+00  8.0108039667663782e+00  8.0086475438173519e+00  8.0092812261969506e+00  8.0000000000000000e+00  8.0000000000000000e+00  8.0194220701639960e+00  8.0123244544626573e+00  8.0044104865182906e+00  8.0035786366911950e+00  8.0713101325398249e+00  8.0081609325990684e+00  8.0054737700625491e+00  8.0060682138230987e+00  8.0140015621779170e+00  8.0105757502196226e+00  8.0740415020920366e+00  8.0000000000000000e+00  8.0000000000000000e+00  8.0000000000000000e+00  8.0725412258916744e+00  8.0736544777299226e+00  8.0698655703524214e+00  8.0728706450463452e+00  8.0139359445120899e+00  8.0127620191267308e+00  8.0044830448808391e+00  7.9999999999999991e+00  8.0025188389917261e+00  8.0071386320425262e+00  8.0114022827951565e+00  8.0142152403070632e+00  8.0128276152679803e+00  8.0724748526990648e+00  8.0696000074859136e+00  8.0728028996741799e+00  8.0728419603645918e+00  8.0702818590446572e+00  8.0022699770075896e+00  7.9999999999999991e+00  8.0028400503426749e+00  8.0000000000000018e+00  8.0000000000000000e+00  8.0000000000000000e+00  8.0000000000000000e+00  8.0006072019237440e+00  8.0015589593959806e+00  8.0017423795387987e+00  8.0010265960516396e+00  8.0016343182197609e+00  8.0000000000000000e+00  8.0123821036357601e+00  8.0101798718346586e+00  8.0708942885003552e+00  8.0083756726496205e+00  8.0033290019628645e+00  8.0139666360631701e+00  8.0164826252188970e+00  8.0010140481230003e+00  8.0000000000000000e+00  8.0696355169604708e+00  8.0038472782347903e+00  8.0030416377756683e+00  8.0732992402515791e+00  8.0087217169378047e+00  8.0034507170821936e+00  8.0038364662856729e+00  8.0000000000000000e+00  8.0000000000000000e+00  8.0007332154173234e+00  8.0000000000000000e+00  8.0046045933864800e+00  8.0042060941598958e+00  8.0021486806638560e+00  8.0024362025671270e+00  8.0021288865687907e+00  8.0018386019539260e+00  8.0728337993983992e+00  8.0739030872935782e+00  8.0107916757783748e+00  8.0069787819756968e+00  8.0043049090690079e+00  8.0034508739265267e+00  8.0647226471962590e+00  8.0632178437539324e+00  8.0740910861553914e+00  8.0748592205419332e+00  8.0745264799984025e+00  8.0029284698399543e+00  8.0021289005726501e+00  8.0015392324774233e+00  8.0013415336957667e+00  8.0016569956202748e+00  8.0091885802168203e+00  8.0000000000000000e+00  8.0000000000000000e+00  8.0033360865568248e+00  8.0138170373578337e+00  8.0716242679475325e+00  8.0781607442443235e+00  8.0753201140979272e+00  8.0036218465149407e+00  8.0750020879788345e+00  8.0740638705144203e+00  8.0781920237946814e+00  8.0760011997685908e+00  8.0000000000000000e+00  8.0750321622255949e+00  8.0106111792753918e+00  7.9999999999999991e+00  8.0011143714259134e+00  8.0115488049281378e+00  8.0157586460461232e+00  8.0000000000000000e+00  8.0025748560518188e+00  8.0000000000000000e+00  8.0008300306421560e+00  8.0116136500128530e+00  8.0140801425551480e+00  8.0032587500315469e+00  8.0712132333447162e+00  8.0712036714255042e+00  8.0121934508502175e+00  8.0114354355470798e+00  8.0138176427547876e+00  8.0699151850459252e+00  8.0006916578422604e+00  7.9999999999999991e+00  8.0012606535015447e+00  8.0762262820047734e+00  8.0723408438918334e+00  8.0743034263987798e+00  8.0743644520053675e+00  8.0174698876395318e+00  8.0155213040034514e+00  8.0012518122232326e+00  8.0000000000000000e+00  8.0019936017414803e+00  8.0089845411212774e+00  8.0165894407381639e+00  8.0053465069073884e+00  8.0189581663524212e+00  8.0032156236460334e+00  8.0031028520583476e+00  8.0743135391463277e+00  8.0116562757623218e+00  8.0108759292624008e+00  8.0747829781723457e+00  8.0035701069751841e+00  8.0027864030987121e+00  8.0710342727316355e+00  8.0705581079982398e+00  8.0726134904444340e+00  7.9999999999999991e+00  8.0071282605434337e+00  8.0021399532153463e+00  8.0068875263683985e+00  8.0034085490378697e+00  8.0014239781715872e+00  8.0750107918250347e+00  8.0031233768587278e+00  8.0000000000000018e+00  8.0054196097718613e+00  8.0000000000000000e+00  8.0000000000000000e+00  8.0240922015752947e+00  8.0033102365572564e+00  8.0013065043935612e+00  8.0083343819877317e+00  8.0000000000000000e+00  8.0664054385207002e+00  8.0719815522691025e+00  8.0738735647346580e+00  8.0703131404374897e+00  8.0000000000000000e+00  8.0010353855184064e+00  8.0024745296182935e+00  8.0733370279405676e+00  8.0046803978132992e+00  8.0148044527382236e+00  8.0056918504283949e+00  8.0670949526279596e+00  8.0746628748183458e+00  8.0048436454280392e+00  8.0135716058232997e+00  8.0715587086115477e+00  8.0716571266249648e+00  8.0157032745946211e+00  8.0648307431439061e+00  8.0739688299617178e+00  8.0688854727230446e+00  8.0013564673697868e+00  8.0180143871031717e+00  8.0714237359569623e+00  8.0698749316275080e+00  8.0207711031268705e+00  8.0000000000000018e+00  8.0198793545958882e+00  8.0240452646969693e+00  8.0196312225404434e+00  8.0740982336554445e+00  8.0724288521223251e+00  8.0744629299128405e+00  8.0224450939149836e+00  8.0010421508560281e+00  8.0006345710496110e+00  8.0031782340797299e+00  8.0230800239760107e+00  8.0263119276886581e+00  8.0013046365053171e+00  8.0183960007536648e+00  8.0025989063774610e+00  8.0764470133375266e+00  8.0734680757950255e+00  8.0046056037010196e+00  8.0703723370613254e+00  8.0000000000000000e+00  8.0746998523632048e+00  7.9999999999999991e+00  8.0081770400177721e+00  8.0712257227506718e+00  8.0064135612349361e+00  8.0000000000000000e+00  8.0711339397269981e+00  8.0720128248127256e+00  7.9999999999999991e+00  8.0032570642090342e+00  8.0699311647273184e+00  8.0000000000000000e+00  8.0000000000000000e+00  8.0698283738585310e+00  8.0750033558879206e+00  8.0061751295315329e+00  8.0758912997105625e+00  8.0022238509445227e+00  8.0000000000000000e+00  8.0718986737800247e+00  8.0027505596353006e+00  8.0045725118650299e+00  8.0695091708770246e+00  8.0687020825434512e+00  8.0019534723683776e+00  8.0695672748364515e+00  8.0738765816314366e+00  8.0007290510578510e+00  7.9999999999999991e+00  8.0000000000000000e+00  8.0716366702157618e+00  8.0009922222913197e+00  8.0008860180620616e+00  8.0025707526075305e+00  8.0033608695353067e+00  8.0740579683542144e+00  8.0717665119401332e+00  8.0698148400409409e+00  8.0007557259466111e+00  8.0008457763163054e+00  8.0000000000000000e+00  8.0008070611975004e+00  8.0737109738184092e+00  8.0263062941118264e+00  8.0036304830719320e+00  8.0013245941312263e+00  8.0020431816224793e+00  8.0688732064562654e+00  8.0656602787543026e+00  8.0658853331643918e+00  8.0185125627929281e+00  8.0689113420762215e+00  8.0711512938273877e+00  8.0600309570365116e+00  8.0577960450914041e+00  8.0602194471261388e+00  8.0578661042791726e+00  8.0597872568186375e+00  8.0558459282782398e+00  8.0578503794562213e+00  8.0594863987641041e+00  8.0589036597422048e+00  8.0573024916248013e+00  8.0600385672550843e+00  8.0576923456900271e+00  8.0587967606428776e+00  8.0576780834022035e+00  8.0598257088314096e+00  8.0589973878618597e+00  8.0511452139175983e+00  8.0517162512235849e+00  8.0519336301069533e+00  8.0524961864562865e+00  8.0527154721178551e+00  8.0573019339536192e+00  8.0561982871373132e+00  8.0799561685716075e+00  8.0805087456978040e+00  8.0811570861913111e+00  8.0809396466394450e+00  8.1268510195555610e+00  8.1263845919958850e+00  8.1291829837318534e+00  8.1286158731778144e+00  8.0851464528389805e+00  8.0867656204580101e+00  8.0838119874830223e+00  8.0848280862807034e+00  8.0054449667756398e+00  8.0053644535159947e+00  8.0042484445438760e+00  8.0041670011754658e+00  8.1401482806764793e+00  8.1401298728092133e+00  8.1401455489667836e+00  8.1401561632566413e+00  8.1401174956748346e+00  8.1401233674426692e+00  8.1401371749940559e+00  8.1401326636776741e+00  8.1400878843817495e+00  8.1401695156593110e+00  8.0667180770282148e+00  8.0654960111520726e+00  8.0641132230622343e+00  8.0668004712293424e+00  8.0835290359121341e+00  8.0805458804324051e+00  8.0814108403055442e+00  8.0810420369989373e+00  8.0016299065695762e+00  8.0011734640853263e+00  8.0013092018177563e+00  8.0000000000000000e+00  7.9999999999999982e+00  7.9999999999999982e+00  8.0022449662549615e+00  8.0847590838458423e+00  8.0842101877982682e+00  8.0829550459895056e+00  8.0849591334260271e+00  8.0008242475165385e+00  8.0005605869267580e+00  8.0000000000000000e+00  8.0006565898534792e+00  8.0871304164455466e+00  8.0873497921663802e+00  8.0871151313319434e+00  8.0889510592140752e+00  8.0498643483389429e+00  8.0506167851264934e+00  8.0493078179527409e+00  8.0507123138275265e+00  8.0754348526686144e+00  8.0737542515069016e+00  8.0769929210796700e+00  8.0772921968435121e+00  8.1367512238654953e+00  8.1351468880574771e+00  8.1368968274370772e+00  8.1346607946598208e+00  8.0500275938520076e+00  8.0444640241954257e+00  8.0466829910016262e+00  8.0421493746473995e+00  8.0888521909143218e+00  8.0871987077630632e+00  8.0900353332485437e+00  8.0893538478973088e+00  8.0622383652804643e+00  8.0628055112913994e+00  8.0639604775996645e+00  8.0615574894100988e+00  8.0062541278037251e+00  8.0057638416644821e+00  8.0030460480155874e+00  8.0025321837247052e+00  8.1321012463635576e+00  8.1352340876111970e+00  8.1306341507598248e+00  8.1297415045633947e+00  8.0616465768890251e+00  8.0606332182895208e+00  8.0609505468758051e+00  8.0634963020606421e+00  8.0032523159038131e+00  8.0032464015061748e+00  8.0033311066891386e+00  8.0031868302036777e+00  8.0570352802476268e+00  8.0572541166756562e+00  8.0563446650245769e+00  8.0570819151160364e+00  8.0756183250734974e+00  8.0762943056636249e+00  8.0760374055051045e+00  8.0784110216345688e+00  8.0000000000000000e+00  8.0008533014275187e+00  8.0013773866355571e+00  8.0006474237017926e+00  8.0016910560499035e+00  8.0013308369243088e+00  8.0010478352170811e+00  8.0011057361937095e+00  8.1164993499551876e+00  8.1137356138069716e+00  8.1123000038990227e+00  8.1152793957569500e+00  8.0701220897455048e+00  8.0693684501892040e+00  8.0695838456072568e+00  8.0656868688136765e+00  8.0473992233927412e+00  8.0446163663686665e+00  8.0456118439478921e+00  8.0448066017635522e+00  8.0782098063336427e+00  8.0776807065320479e+00  8.0766050074374292e+00  8.0801838662206631e+00  8.1231573242772104e+00  8.1241491197678446e+00  8.1187246796876895e+00  8.1234976880843739e+00  8.0035408554406491e+00  8.0033346959122316e+00  8.0030866097320814e+00  8.0043743027954690e+00  8.1077385594779763e+00  8.1027379947447464e+00  8.1042922636405681e+00  8.1044052895864045e+00  8.0191363469849524e+00  8.0199944681024515e+00  8.0216724014402381e+00  8.0175742505028058e+00  8.0125227998104638e+00  8.0116602382848399e+00  8.0096686986311170e+00  8.0118382440743598e+00  8.0894796558109441e+00  8.0884233822677238e+00  8.0864870474614605e+00  8.0896924695692025e+00  8.1405046919976609e+00  8.1396960053195073e+00  8.1409583233879879e+00  8.1403853164506632e+00  8.1406643024946224e+00  8.1409147939800555e+00  8.0029426950324307e+00  8.0023072126690575e+00  8.0020650859008420e+00  8