<?xml version="1.0"?>
<VTKFile type="UnstructuredGrid"  version="0.1"  >
<UnstructuredGrid>
<Piece  NumberOfPoints="4467" NumberOfCells="18405">
<Points>
<DataArray  type="Float64"  NumberOfComponents="3"  format="ascii">10.48579025268555 22.94625091552734 4.000820159912109  10.30490016937256 23.51964950561523 3.562145948410034  9.884129524230957 22.48970031738281 3.57850193977356  9.78626821577277 22.91605222429515 4.03818515464065  12.57073974609375 28.62719917297363 2.218846082687378  13.0464338470996 29.82888292379902 1.799756449573098  11.69111192037056 29.81938916292621 2.294617749241475  11.89345747477133 28.91239100879213 1.791456765140742  10.9942798614502 26.92878913879395 8.511281967163086  10.47809982299805 27.64455032348633 7.877871990203857  10.40314960479736 26.74275016784668 7.793661117553711  11.02078046159205 26.59097624031946 7.546492247318595  2.869144916534424 21.08499908447266 5.50863790512085  2.123054981231689 20.98962020874023 5.170475006103516  2.882909059524536 20.69696998596191 4.709012985229492  2.207303055296281 21.62919601613692 4.901826813196545  7.188916206359863 30.76506042480469 5.222819805145264  7.777659893035889 29.99275016784668 5.345513820648193  7.504792650265146 30.20712947803369 4.364659396955315  8.580377486967556 30.41868930573037 4.721880138705373  10.7825403213501 34.82801818847656 7.84408712387085  9.86154901510456 34.65208134276433 7.897934550095395  10.32063744197706 34.6722707890168 9.029531469820105  10.79046549881938 33.72444726866576 7.839614398967566  8.036659732723265 24.16706879983867 1.981043559521276  8.803494211035677 24.37318869994986 0.8559447477404751  7.894562618081057 23.33019856643599 0.9897880012831851  9.208000893050414 23.79494165880918 1.658517146174062  0.09939099848270416 37.13388061523438 6.57960319519043  0.09939099848270416 36.91822814941406 5.571473121643066  0.7576641909282684 37.38960597790886 5.818715339699573  0.09939099848270416 37.53494453430176 6.11966609954834  0.7576641909282684 37.49743221081902 6.322780376473254  0.09939099848270416 37.93600845336914 5.65972900390625  0.7576641909282684 37.8984961298864 5.862843280831164  1.415937383373833 37.86098380640367 6.06595755775608  0.09939099848270416 32.59698104858398 12.07849979400635  0.3927480886137139 32.05122869575474 12.21666517460943  0.4921497647954845 32.40676218523311 12.4049504813515  0.09939099848270416 32.48923301696777 12.32188487052917  0.3927480886137139 32.15897672737096 11.97328009808661  0.6861051787447235 31.72097240615793 11.86806040216686  0.7855068549264942 31.96875786402008 12.29973078543176  0.09939099848270416 32.38148498535156 12.565269947052  0.4921497647954845 32.29901415361689 12.64833555787433  0.8849085311082648 32.21654332188223 12.73140116869665  1.047256946563721 22.63452911376953 8.223189353942871  0.6368290185928345 23.37256050109863 7.687427043914795  1.510460019111633 23.1452808380127 8.004315376281738  1.132915438990452 22.95714403107026 7.163187220153409  1.354293942451477 23.30374908447266 0.6567339897155762  1.357874989509583 22.14514923095703 0.6689680218696594  1.719454050064087 22.71690940856934 0.1048400029540062  2.106662528263413 22.90385716895543 0.7704827503803966  10.49679869856398 30.79803957482003 2.030586738948849  11.09257489729236 29.60899037056327 1.055266701485262  11.84220912858164 30.89579261376704 1.692323399039189  2.650933980941772 21.70751953125 6.282981872558594  1.617012853020752 22.85619195475871 6.479778127255  1.764744854339214 22.20174014305033 5.455842519213823  2.494576109241053 23.10934937273603 5.916400134639995  1.861300283900059 31.87443785817974 6.183664714588998  1.105514392116258 32.09764214322267 7.171679794949781  1.00962527845162 31.18569661831381 6.694663484092149  0.8530810078481144 31.83699218252408 6.491889857123258  1.278918510572334 32.18136280245704 6.236390472371682  0.6965367372446084 32.48828774673435 6.289116230154367  9.413594245910645 33.45790863037109 1.244981050491333  10.26113033294678 33.23138046264648 0.6228860020637512  10.58291682150799 33.65684898734504 1.766337591365498  10.34683592182732 32.67005541075551 1.375068817091772  15.88274955749512 20.68811988830566 10.73400974273682  15.88543033599854 21.44413948059082 10.31583023071289  16.0600700378418 20.57014083862305 9.764975547790527  14.97967691641879 20.84458348201705 10.38683694403001  0.09939099848270416 30.65196990966797 5.511184215545654  0.5792782163871446 30.95142264309882 4.919598420718046  0.5792782163871446 31.00570769253729 5.385060628512235  0.09939099848270416 31.13035488128662 5.141480684280396  0.09939099848270416 30.59768486022949 5.045722007751465  0.09939099848270416 31.60873985290527 4.771777153015137  1.059165434291585 31.35944547540662 5.258937041478815  0.09939099848270416 31.07606983184814 4.676018476486206  0.09939099848270416 30.54339981079102 4.580259799957275  3.814690955717444 22.63095721344638 2.474953198191114  2.155246797061358 22.80186961941068 2.728749191382462  3.10618288729055 23.6049208264747 2.318021906311197  3.243651392325896 22.96454860973057 3.687338960998316  10.59806147760316 30.97845697156072 6.417824689900335  10.01007470220398 31.47782922680627 7.313682260621934  10.56517458261061 31.01430297849286 8.018242135052269  10.54494375617728 30.28841481187217 7.482253312374174  3.807672023773193 37.56557083129883 6.368172168731689  3.867981910705566 38.32387924194336 5.947957992553711  3.133226747455965 38.58615209652842 7.179286044527347  4.135698008381985 39.02837283029943 6.767625501179271  7.564987182617188 27.31520080566406 4.940483093261719  8.419495582580566 26.90353012084961 5.105236053466797  7.662065029144287 26.27938079833984 5.002089977264404  8.368221224692981 26.42732904536467 4.158905028578285  1.578778982162476 28.50972938537598 7.391119956970215  1.418609023094177 27.71766090393066 7.260042190551758  2.009350061416626 28.27681922912598 6.645851135253906  1.450646402777366 28.41515767432218 6.798701767127108  1.155275883616142 28.13557851172452 7.105797294776034  0.8919427441381066 28.55349611951839 6.951552399000311  3.291470050811768 27.63669013977051 3.284817934036255  2.285379886627197 27.84893035888672 3.214215040206909  2.313865900039673 27.22620010375977 3.128704071044922  2.687776306396447 27.57073159318951 3.970657012759646  9.519895553588867 28.54719924926758 0.1048400029540062  8.964131355285645 27.78879928588867 0.1048400029540062  9.872751535123138 28.6159938970129 0.9307640177897853  9.853937768101019 27.48608476834267 1.174411237282869  3.726983070373535 36.12815856933594 7.049055099487305  3.742393016815186 36.82728958129883 6.771883010864258  3.545374996441212 36.18540876222839 7.934688708430828  3.075142723555252 36.40454724504626 7.238621662403637  8.957714824891641 37.49830786313663 10.30267498765546  7.863203218989582 36.87299684746243 10.4983720859935  8.351307803771487 36.4058297431467 11.28773276261912  8.506832720904344 37.66768255781447 11.23386668485236  6.806774139404297 32.52194976806641 2.654133081436157  6.749499910802961 31.72988964358912 3.644090233274139  6.756786471329505 32.74419463275917 3.950250451409556  7.743117332005538 32.37522589344361 3.298204685287652  11.36151144011049 31.37789303853399 10.48794523239984  11.34372085792437 31.17303933766193 8.810239316515442  10.69047895269838 31.56844214419513 9.299825173183189  12.28406462312525 31.53783314372862 9.731658113426915  10.24765968322754 38.37421035766602 8.449137687683105  10.0572395324707 37.59154891967773 8.165045738220215  9.42159318109381 38.08186270939038 7.828664799323226  9.620512267511684 37.76857532094644 9.018136648462093  2.267183402773877 26.54528962422725 4.731130307099011  3.429180746392157 26.71527097844002 4.181740210616193  2.834070199014597 25.76755447581888 4.709922363839223  2.347705929284569 25.7673441624381 4.030340034502282  4.048978805541992 19.51339912414551 2.18967604637146  3.894068002700806 19.98506927490234 1.613721013069153  4.161806106567383 19.41287040710449 1.361397981643677  5.132986162597258 19.9183910691755 1.400567427914251  7.000444889068604 38.59492111206055 5.483922004699707  7.143782138824463 37.83092880249023 5.353452205657959  7.234740240083507 38.48850663973127 6.592780985183493  7.824926470015126 38.28916031339897 5.597946686506178  8.155190615550646 27.65821188767107 4.143983505083602  9.018238528518378 27.51010590112617 4.573418942244053  3.067569993728412 37.50982825849002 9.397086602294902  2.400217194742554 38.02834166635273 9.545442280448425  2.348876618482983 37.87946784600578 9.074032173924302  2.267004525284844 37.29590951242675 9.207386308111161  1.466439056841277 37.08199076636348 9.01768601392742  1.630183243237555 38.24910743352154 8.750977745553701  1.599651726298987 37.81442292028946 9.355741986264684  1.732864395756697 38.54685507421544 9.693797958601948  14.49580001831055 29.67440986633301 3.591839075088501  13.91907978057861 29.44511032104492 2.928780078887939  14.52054977416992 30.05270957946777 2.663196086883545  13.43248408972629 30.06872379400426 3.472863387664374  3.104717016220093 28.57683944702148 5.947904109954834  3.318550137982479 28.64953439961746 4.925388201675194  2.808594531114218 27.5752899157765 5.104433952381353  2.619485352535587 28.54186369909653 5.360193841799676  2.134253688851081 28.50688795117158 4.772483573644517  4.97385317958292 37.41856769884397 11.12556542032944  4.365460638827024 37.16800326220852 10.21534901100941  4.865351687009535 36.45109207588059 10.31294315520597  5.513446281349603 36.83365359251457 10.69677101665972  8.204023361206055 38.75799179077148 4.539855003356934  8.398451805114746 37.78052139282227 4.029528141021729  9.063198607720263 38.62650377098894 5.239581969848729  8.463844196506829 37.44018131264992 5.090632151758418  12.58981037139893 19.91538047790527 12.65590000152588  13.69961532151211 19.81536085959679 12.81728903635342  13.13655857689796 20.19015344670786 11.85650399400396  12.99029725900079 19.1833940311511 12.40224143242448  14.85692977905273 26.539909362792
[...]
<PointData  Scalars="p"> 
<DataArray  type="Float64"  Name="p"  format="ascii">8.7364580829748277e+00  8.7403587878887343e+00  8.7496243554272741e+00  8.7444973692671120e+00  8.6887411869176603e+00  8.6762997089404905e+00  8.6918048943805477e+00  8.6961300792719278e+00  8.6620092653279741e+00  8.6712111653295256e+00  8.6760326011261117e+00  8.6736272027961423e+00  8.8271210274765632e+00  8.8353905992106299e+00  8.8194369890481497e+00  8.8362466632581302e+00  8.7519834546379549e+00  8.7409917027453439e+00  8.7523094210509917e+00  8.7309396690399836e+00  8.7567558089075348e+00  8.7757098901695851e+00  8.7726901995749316e+00  8.7320557398159924e+00  8.7661449350574028e+00  8.7615435615352038e+00  8.7716920044708768e+00  8.7604595573213508e+00  9.1405785046140355e+00  9.1431575109358043e+00  9.1266926953383667e+00  9.1365058729173025e+00  9.1247791182914231e+00  9.1303566740448883e+00  9.1211346694033217e+00  9.1112945796686802e+00  9.2217699665514061e+00  9.2223851431180215e+00  9.2229256632277892e+00  9.2258303118806211e+00  9.2182631830584256e+00  9.2197624421687081e+00  9.2228121950646891e+00  9.2299439421855709e+00  9.2269329822732118e+00  9.2248804376742815e+00  8.8762233346945205e+00  8.8846641683716854e+00  8.8772505238829851e+00  8.8776997388115948e+00  8.8185298842247803e+00  8.8185392544650245e+00  8.8169574661200798e+00  8.8164378328430697e+00  8.7034193228629189e+00  8.7020301106626654e+00  8.6856069118566435e+00  8.8410655248984469e+00  8.8681167780985888e+00  8.8511338969981495e+00  8.8532317768822590e+00  9.0816700585658037e+00  9.1008786647026145e+00  9.0781402606216783e+00  9.0952275657280950e+00  9.0958116118887009e+00  9.1104069582905680e+00  8.7066135032239487e+00  8.6930255436982797e+00  8.6955946759440472e+00  8.6981735909968059e+00  8.6309823873043818e+00  8.6269982101920775e+00  8.6276412576540231e+00  8.6326977904253610e+00  9.0751274532998814e+00  9.0725272675869650e+00  9.0752451309404947e+00  9.0870531791044602e+00  9.0724553423709775e+00  9.0981648427796333e+00  9.0756813493235260e+00  9.0843998792112224e+00  9.0695256790324841e+00  8.8100023971096331e+00  8.8274332592091937e+00  8.8208624264435844e+00  8.8248738176921009e+00  8.6965833075500907e+00  8.7069045806166141e+00  8.6897509196633997e+00  8.6851671732744400e+00  9.0553324118610536e+00  9.0524292836185598e+00  9.0633794701096502e+00  9.0299169887022810e+00  8.7601908715621803e+00  8.7397121140415397e+00  8.7586231409239126e+00  8.7480052708632279e+00  9.0008308365886762e+00  8.9821789778634162e+00  8.9851722395192013e+00  8.9957342483193674e+00  8.9932426743582035e+00  9.0045216517999567e+00  8.8953545245518821e+00  8.9381907940093903e+00  8.9194902802602112e+00  8.9206380056103871e+00  8.7252436799200055e+00  8.7357852652800680e+00  8.7214398347061888e+00  8.7303044301067132e+00  9.0634451456830423e+00  9.0589483038309897e+00  9.0620033078099596e+00  9.0815436820118265e+00  8.8740510907778241e+00  8.8906259670259562e+00  8.8719128788327684e+00  8.8869816203413468e+00  8.7459798859866869e+00  8.7551315477632254e+00  8.7532835874541384e+00  8.7411539311120485e+00  8.6731526265110652e+00  8.6778672254649933e+00  8.6915589539008629e+00  8.6630453987818168e+00  8.8660978698076107e+00  8.8545558833680307e+00  8.8588268765146658e+00  8.8636087824625029e+00  8.9116606872454760e+00  8.8791883774265781e+00  8.8801928962769985e+00  8.8830081480567120e+00  8.7920843388951209e+00  8.7940235740599508e+00  8.7900624047827680e+00  8.7890439394262039e+00  8.8661811509072095e+00  8.8488876075093739e+00  8.8838370923644341e+00  8.8457484649646503e+00  8.7480301129434839e+00  8.7303411204353019e+00  9.0788675834786563e+00  9.0959069491198665e+00  9.0938330999354360e+00  9.1017902812552478e+00  9.1215170435187378e+00  9.1054533126194972e+00  9.1148210370144636e+00  9.1087807556582128e+00  8.6341708039052012e+00  8.6586080443797755e+00  8.6449608736914616e+00  8.6574191083192424e+00  8.9571927370914111e+00  8.9371531417937184e+00  8.9285690216014437e+00  8.9621071565257751e+00  8.9688720718243768e+00  9.0347607150873106e+00  9.0444898392880262e+00  9.0232783337636064e+00  8.9947290941021905e+00  8.8240943998198151e+00  8.7959113422212027e+00  8.8213265373549063e+00  8.8109258773801766e+00  8.6457599891684858e+00  8.6368934068766610e+00  8.6440433695671430e+00  8.6535076226415466e+00  8.6166052930179546e+00  8.6208648545133819e+00  8.6327351648249433e+00  8.6168394822953704e+00  8.5944614239551083e+00  8.6129371815641651e+00  8.5853890724923065e+00  8.6116903379404945e+00  8.6407732144346756e+00  8.6260984318682983e+00  8.6243701662949466e+00  8.6524617115816689e+00  8.8335434512721172e+00  8.8260548749856227e+00  8.8124696467315005e+00  8.8463638106816376e+00  8.6370721330736497e+00  8.6504427265655313e+00  8.6471797030220561e+00  8.6431217503883602e+00  8.8452433519753466e+00  8.8428084633211572e+00  8.8507511536051915e+00  8.8343587807437896e+00  8.8250003255496878e+00  8.8021974219749683e+00  8.8345691130825816e+00  8.9024648070491992e+00  8.8610940759237025e+00  8.8486134437608008e+00  8.8832110319153408e+00  9.1487593169047923e+00  9.1472797041538882e+00  9.1482429685224602e+00  9.1310705914175951e+00  9.0158858248144078e+00  9.0451099658670984e+00  9.0166620732277210e+00  8.8453057954593550e+00  8.8134142067353221e+00  8.8320286111336070e+00  8.8470146922667592e+00  8.7214869589469934e+00  8.7083834371718343e+00  8.7281348010121356e+00  8.7045186936333288e+00  8.8381810851368936e+00  8.8327420384261934e+00  8.8106938715997813e+00  8.8464944898036126e+00  8.7570638990893777e+00  8.7661430882747311e+00  8.7571714042886608e+00  8.7517595906969152e+00  8.9045779694966480e+00  8.8928511592545849e+00  8.8774177890459338e+00  8.8853021888376542e+00  8.6876016312877820e+00  8.6905683134491341e+00  8.6819704603350765e+00  8.7054674011632738e+00  8.9124093260548065e+00  8.9463168197048297e+00  8.9466404945748916e+00  8.8050255075748485e+00  8.8112139895603896e+00  8.8018453729030313e+00  8.8103075448614412e+00  9.0880767859044020e+00  9.0816742347689186e+00  8.7709604035946018e+00  8.7745646552763876e+00  8.7686893593265456e+00  8.6215681601625693e+00  8.6278775815435189e+00  8.6203005450445822e+00  8.6318772517838678e+00  8.6919984290286330e+00  8.7161259216146014e+00  8.7049432323702280e+00  8.7082976527110496e+00  8.6714718420696162e+00  8.6591823208414898e+00  8.6738482224875213e+00  8.7075308644288381e+00  8.6873668232743420e+00  8.8145236195479058e+00  8.8130645102711558e+00  8.8166944741807853e+00  8.8047837455987956e+00  8.7826287208471125e+00  8.7534637297756088e+00  8.7738649106322519e+00  8.7812242212300706e+00  8.7569161081115308e+00  8.7580867371595925e+00  8.7466712349901705e+00  9.1137642734228841e+00  9.1112043810031160e+00  9.1112503908383342e+00  9.1188906344514731e+00  8.6649573003813121e+00  8.6625179350920636e+00  8.6616085601382640e+00  8.7033822907176273e+00  8.7016004714557571e+00  8.7274078623820266e+00  8.7147957942301773e+00  8.7202810967665201e+00  8.7212458517036264e+00  8.7152661580118291e+00  8.7919939363278914e+00  8.7879681722616052e+00  8.7905094702963282e+00  8.7943610137637052e+00  9.0042289424539455e+00  8.9670053923900301e+00  8.9801713012076316e+00  8.9639758902132858e+00  8.7597356775654251e+00  8.7547742195512797e+00  8.8138917632516396e+00  8.8322864595708417e+00  8.8122144953520500e+00  8.8159045221778065e+00  8.8171502521148408e+00  8.8291796625632504e+00  8.7981063522658136e+00  8.8000181968896793e+00  9.1184726277500534e+00  9.1318623438579731e+00  9.1266155578882842e+00  9.1212242724501529e+00  8.6390903191192585e+00  8.6400024733605392e+00  8.6417255542422531e+00  8.6284696292713772e+00  8.5905054070029987e+00  8.6059313251280329e+00  8.5754618129887437e+00  8.5892158607642060e+00  8.7045147269469059e+00  8.7127033994162897e+00  8.6921509030094253e+00  8.6966382897794041e+00  9.1702087650155644e+00  9.1620187212192103e+00  9.1778626295096135e+00  9.1761252693304147e+00  9.1842730596914404e+00  9.1732179974121699e+00  8.6283217184216365e+00  8.6138801161034255e+00  8.6461117966265721e+00  8.7087347942304323e+00  8.7317494765392993e+00  8.7154680956976680e+00  8.7290907552081549e+00  8.6629652997501321e+00  8.6529223983316808e+00  8.6732787834651681e+00  8.6634576237020262e+00  8.6436219309429259e+00  8.6597985061859308e+00  8.6435721888344546e+00  8.8444844383878696e+00  8.8047140584686971e+00  8.8168484431963989e+00  8.8306338795656067e+00  8.9958020661268385e+00  8.9959384409616892e+00  8.9418691319323802e+00  8.9626900669719447e+00  8.7357931190985045e+00  8.7290839818327548e+00  8.7478184142213475e+00  8.6030499612979270e+00  8.5838708132183097e+00  8.5823345795644492e+00  8.6091168951457888e+00  9.0741621674607824e+00  9.0760070961868919e+00  9.0761014961249646e+00  9.0778132490725785e+00  9.1591937676678441e+00  9.1479109222351909e+00  9.1503208218692169e+00  9.1425492501430661e+00  9.1293003007826101e+00  9.1334162224136808e+00  9.1350917672026011e+00  9.1431452896226801e+00  9.1404447463595027e+00  9.1370710460409530e+00  8.6202206689550795e+00  8.6033222195520462e+00  8.6087723882949660e+00  8.6372250288262720e+00  8.7435869005627218e+00  8.7263826064250249e+00  8.7218915770151817e+00  8.7277361487431477e+00  8.7815068710310449e+00  8.7640809020397263e+00  9.1487875145937334e+00  9.1745016634446461e+00  9.1549347695079444e+00  9.1601412908476387e+00  8.6596402692424839e+00  8.6692846384910158e+00  8.6411113446963590e+00  8.6459778191114118e+00  8.6824683192326315e+00  8.6952120455383941e+00  8.7435407192259778e+00  8.7356872229183651e+00  8.7349909127008090e+00  8.6646777682331706e+00  8.6534574056920395e+00  8.6634944739070683e+00  8.7305305526202837e+00  8.7512722178264060e+00  8.7043812931877085e+00  8.7109968687861752e+00  8.8039431884651140e+00  8.8231805104726266e+00  8.8208919746409524e+00  8.8181958298175704e+00  8.8205371255461298e+00  8.9035957709374802e+00  8.9169430723896657e+00  8.8868189813300180e+00  8.9140655817358194e+00  8.7643760733675702e+00  8.7702359953307898e+00  8.7581759130232015e+00  8.7587468889939952e+00  8.8557241414334928e+00  8.8512122467345993e+00  8.8423814139235173e+00  8.8088462461408099e+00  8.7977064276233818e+00  8.7903135662193570e+00  8.7877074267935864e+00  8.7976440390958697e+00  8.7998777238913952e+00  9.1091793834249373e+00  9.1112438079789779e+00  9.1442910432987805e+00  9.1326155132385409e+00  8.6267668251890335e+00  8.6110133891427871e+00  8.6097327202352218e+00  8.6258230582066222e+00  8.7069967206448720e+00  8.6963672053747878e+00  8.6853280895023648e+00  8.9378928176697698e+00  8.8934302753795222e+00  8.7900951583013871e+00  8.7972777750009268e+00  8.8134742325003259e+00  8.8795264964167071e+00  8.8483425194191145e+00  8.8502080897544655e+00  8.8691665985652293e+00  8.6883923327742050e+00  8.6883221573620357e+00  8.7020923284358869e+00  8.7056072054469151e+00  8.7950044632132585e+00  8.8037408535233439e+00  8.8143018493113310e+00  8.8072883338606669e+00  8.9316477461231578e+00  8.9250675347484112e+00  8.8950172300826615e+00  8.8750892719956269e+00  8.8770005556151101e+00  8.8549550778590049e+00  8.8124367800776202e+00  8.6921690741484614e+00  8.6872012659068307e+00  8.6970070443153453e+00  8.6803193452108385e+00  8.6774002205519487e+00  8.7003122406031448e+00  8.6763314479886464e+00  8.6527407170676760e+00  8.6489887475223206e+00  8.6346848550977970e+00  8.6502614613187756e+00  8.7458373301947034e+00  8.7152341396718551e+00  8.7250841398484091e+00  9.0402100767258098e+00  9.0434277610706282e+00  9.0386558254629641e+00  9.0508803314854109e+00  9.0463831956840224e+00  9.0359142971042541e+00  9.0590662928832906e+00  9.0328689546079559e+00  9.1296288251876394e+00  9.1224513878904308e+00  9.1112781314754283e+00  9.1206902327766137e+00  9.1148932894311248e+00  9.1251562168459657e+00  9.1189223575674063e+00  9.1119118263531700e+00  9.1112387707462030e+00  9.1313024284128463e+00  8.6396294956795057e+00  8.6338785112549861e+00  8.6105277656972401e+00  9.1543352511101368e+00  9.1476244408358696e+00  9.1543519997972638e+00  9.1575117800707453e+00  9.1570284049871304e+00  9.1383578340391960e+00  9.1434056561839459e+00  9.1529766045095382e+00  9.1493416934530369e+00  8.8154165154258806e+00  8.8110145867605425e+00  8.8134663397940951e+00  9.0087305434555169e+00  9.0348939920319769e+00  8.7851520751253354e+00  8.7916068665650027e+00  8.7846299952027351e+00  8.7810007679697097e+00  9.1440393416928156e+00  9.1231953017991465e+00  9.1215653556157221e+00  9.1329625573314317e+00  9.1314855720446300e+00  9.1204475358918735e+00  9.1189607784227640e+00  8.8648044133779340e+00  8.6451661461649660e+00  8.6291910083544021e+00  8.6384257573605758e+00  8.6534644350121823e+00  8.6458537326182725e+00  8.6627964661425363e+00  9.0792851739314440e+00  9.0721505561061608e+00  9.0682633663934951e+00  9.0926927906276607e+00  8.6846464958168124e+00  8.6624942588767997e+00  8.6953927501559818e+00  8.7028681405782820e+00  8.7298390349136419e+00  9.0280918437622262e+00  9.0614353415927837e+00  8.7744549947486519e+00  8.7717264856175419e+00  8.7768603186504013e+00  8.7731434661655321e+00  8.6728822204686793e+00  8.6606341723751914e+00  8.6692834053463734e+00  8.8570773677293815e+00  8.9156221913469214e+00  9.1501379014609583e+00  9.1456887538610605e+00  9.1479465670953992e+00  9.1588922653008833e+00  9.1629409282457388e+00  9.1589916368563902e+00  9.1571870553530434e+00  9.1551537963660881e+00  8.7025997270736752e+00  8.6849012724342209e+00  8.6914469117998916e+00  8.6908336584999084e+00  9.0241181831917352e+00  9.0093196499058426e+00  8.9979504335087963e+00  9.0049275585147317e+00  9.0058683343607022e+00  8.9868896770958866e+00  8.9876393015723046e+00  8.9869383158987031e+00  8.6554042572074295e+00  8.6437634010650104e+00  8.6579453183208219e+00  8.6435502235044037e+00  8.8040742980930258e+00  8.8058844115269288e+00  8.7751862671006844e+00  8.7937640814441487e+00  8.7519876190080925e+00  8.7304875347119317e+00  8.7323383605625651e+00  8.7241853103271438e+00  8.7243611239707022e+00  8.7048649925118369e+00  8.6612641359593692e+00  8.6986877544533456e+00  8.6883854877298621e+00  8.7910963899200318e+00  8.7875420725798676e+00  9.1118209254557687e+00  9.1149129649802649e+00  9.1095009934458275e+00  9.0872721725070704e+00  9.0457003219925785e+00  8.7853191736743899e+00  8.7716361350795395e+00  8.7834032053257900e+00  8.7664133549071206e+00  8.7345749267385546e+00  8.6399298209168691e+00  8.6292248649810190e+00  8.6277995897837627e+00  8.6218035741389407e+00  8.8906009345660451e+00  8.8995054933078244e+00  8.9060303844043904e+00  8.9058204164381465e+00  8.9012289993394429e+00  8.9115101094001261e+00  8.9207826559868941e+00  8.9095622632502955e+00  9.1465213910774832e+00  9.1391769118461159e+00  9.1263483625154223e+00  9.1350384579609756e+00  9.0535759903922735e+00  9.0276424454340631e+00  9.0304404801929579e+00  9.0396679048290043e+00  9.0515161893681544e+00  9.0251465818527379e+00  9.0079682934258116e+00  9.0368251470621903e+00  9.0485636952918078e+00  8.6728580489992293e+00  8.6540864764922816e+00  8.6641973833792179e+00  8.6845016626930907e+00  8.6460667699651097e+00  8.6318819584186564e+00  8.6159012027345998e+00  8.6115190910550687e+00  8.6450848490931786e+00  8.6593220072800445e+00  8.7062961250041138e+00  8.7165649401227920e+00  8.7101563325310583e+00  8.6880367526661253e+00  8.6922910989402364e+00  8.7027743654995593e+00  8.6953066274131636e+00  9.0467343865793559e+00  8.7811028889200884e+00  8.7790771891501684e+00  8.7911770859674423e+00  8.6259159144955699e+00  8.6248020647990682e+00  8.6458162018377234e+00  8.6370109117286447e+00  8.9362414304873941e+00  8.9549662315068463e+00  8.9314535831830693e+00  8.9260682082280542e+00  8.6324942252252050e+00  8.6277284359804689e+00  9.1072439159000265e+00  8.8558350962218011e+00  8.8179109354794480e+00  8.8595150506777802e+00  8.8111179563370943e+00  8.8237029535779996e+00  8.6559852797024153e+00  8.6757456132494646e+00  8.6669268986000016e+00  8.6247969113924317e+00  8.6375213969195741e+00  8.6399525157077708e+00  8.6279026984154150e+00  8.6201817006386694e+00  8.6185329757784128e+00  8.6033897781570143e+00  8.9106506244209847e+00  8.9605508988124090e+00  8.9140572097718778e+00  8.8027333383239306e+00  8.7834492368985284e+00  8.7837846473624648e+00  8.6655883937588829e+00  8.6756239808320750e+00  8.6625844974674013e+00  8.6774123786117574e+00  8.7826466219576655e+00  8.7819999666981925e+00  8.6813884494440003e+00  8.6788626360542125e+00  8.6860415020739783e+00  8.6799498823778443e+00  8.7124569265997156e+00  8.7289473912825404e+00  8.7046772108088124e+00  8.7188790788640542e+00  8.7050415453438781e+00  8.8364512667194095e+00  8.8409534814124466e+00  8.8487905074967621e+00  8.8457089843944861e+00  8.6680590966370286e+00  8.6735998811827546e+00  8.6725048097175499e+00  8.6904201913681813e+00  8.7979636292302938e+00  8.7747914130515774e+00  8.7758183563731773e+00  8.7726184849808426e+00  8.6964568434076028e+00  8.7073491152237334e+00  8.7155383408753266e+00  8.6182355342246488e+00  8.6037497300340622e+00  8.6140541680657829e+00  8.6137581113250157e+00  9.1693861891306039e+00  9.1603629581299071e+00  9.1629583591629231e+00  9.1608959160500909e+00  9.1685807256318395e+00  9.1514335479602522e+00  9.1692670874543740e+00  9.1511979206587508e+00  9.1322184305358078e+00  9.1493261036543281e+00  9.1570561646838904e+00  9.1580291244140604e+00  9.1654153566789631e+00  9.1480574756051318e+00  9.1642985011141480e+00  8.8317071785942680e+00  8.8196382980867032e+00  8.8510383472850087e+00  8.8603871121468192e+00  8.6840673147397922e+00  8.6932975161679771e+00  8.6841601371373542e+00  9.1721261838838419e+00  9.1536932017960790e+00  9.1617022935084282e+00  9.1655601417160142e+00  9.1689742207746932e+00  9.1602862473867894e+00  9.1654744185193859e+00  9.1573395463184060e+00  9.1601784888312690e+00  8.6901983735261581e+00  8.7107909091182130e+00  8.8074354268266717e+00  8.7689988862772399e+00  8.7492146119636143e+00  9.1028011339429877e+00  9.1119035414754688e+00  9.1075413217998431e+00  9.1093090801779759e+00  8.6355600506126731e+00  8.6431170621102691e+00  8.6280128622666208e+00  8.6319865167372161e+00  8.6332331280803292e+00  8.6396803282506731e+00  8.6490180232858123e+00  8.6548363574666194e+00  8.7013480919265209e+00  8.7225558569623765e+00  8.7170863320689715e+00  8.8218236751347341e+00  8.8342746143961204e+00  8.8535434365047259e+00  8.8090611117021478e+00  9.1062862548007164e+00  8.7110368684617399e+00  8.7216073803391563e+00  8.7233952320940293e+00  8.7210718395580962e+00  8.7080539420145957e+00  8.7243294021109197e+00  8.7237180219837853e+00  8.7166572201822223e+00  8.6274338360773530e+00  8.6148314733394997e+00  9.1189419226646287e+00  9.0978662381441318e+00  9.1060308860634009e+00  9.1091393256999691e+00  9.0846830175543776e+00  9.0955988748590677e+00  9.0935756362207698e+00  9.1249925635444225e+00  9.1258413632338495e+00  9.1354744375688632e+00  9.1107322473114056e+00  8.7633124846892745e+00  8.7576182565551974e+00  8.7477304645357119e+00  8.6870337572254233e+00  8.6814197200287389e+00  8.6999748890758664e+00  9.0712821515676705e+00  8.7797396845125650e+00  8.8058180271631734e+00  8.6130838516017665e+00  8.6220726456300039e+00  8.6211312914272291e+00  8.6195086354390487e+00  8.9139573800364627e+00  8.9313973634910262e+00  8.8250227461508430e+00  8.7832090908928802e+00  8.7689419561970912e+00  8.7606380667745327e+00  8.7865066137927563e+00  8.6912984344732500e+00  8.6774387962818178e+00  8.5931900109455412e+00  8.5869435993414225e+00  8.5900319063873400e+00  8.8746921730071122e+00  8.8978938271140269e+00  8.6829296140584074e+00  8.6768699796132029e+00  8.6733736255107452e+00  8.6837239934664332e+00  8.7551821562244054e+00  8.7407060761852318e+00  8.7502660363307605e+00  8.7507145568679974e+00  8.7609652431825733e+00  8.7783611750770341e+00  8.7679298721392271e+00  8.6314369023589688e+00  8.6342872084967848e+00  8.6200589960824274e+00  8.6200485091886794e+00  9.1307082883928210e+00  9.1360769300610052e+00  9.1356062904262849e+00  9.1351025751117838e+00  9