<?xml version="1.0"?>
<VTKFile type="UnstructuredGrid"  version="0.1"  >
<UnstructuredGrid>
<Piece  NumberOfPoints="4908" NumberOfCells="19588">
<Points>
<DataArray  type="Float64"  NumberOfComponents="3"  format="ascii">35.72824859619141 3.347516059875488 10.73729991912842  34.55302241240032 4.242586094922165 10.42152226693347  34.2281194830874 3.301355788074547 11.30491997313206  34.9526150322868 3.081312797080543 9.566379380122504  37.49355393418582 8.694311736430642 13.56569335215885  37.73059081184231 10.05393930510424 13.7611709951648  36.61206851919196 9.636919742476813 13.92416988214483  36.66377916281777 9.443331051775603 12.29799298332205  33.90008163452148 2.941236019134521 13.32433032989502  34.04682922363281 3.496597051620483 12.83841037750244  32.53182384824128 3.965208358373967 12.99771359817598  33.57386406380563 3.47545942461457 12.24247984950325  38.3503303527832 4.727511882781982 14.96438026428223  37.90721893310547 4.033687114715576 15.02655982971191  38.16768842929777 4.973151654769813 14.12918059207502  38.44258670985266 3.547105638712385 14.04833793327386  39.89416122436523 4.834065914154053 13.47035026550293  39.89416122436523 5.077581882476807 12.65676975250244  39.89416122436523 4.061001777648926 12.72035026550293  39.05348794188198 4.030439271906868 13.06674618546789  37.08531870806975 10.1231030599793 15.00177965445191  36.62463451528173 10.85154502279001 13.49929235404433  33.55965528371198 3.107285035033978 8.964189219908727  33.04656744389909 3.496849309606379 10.35814018019489  32.13819864437956 3.629870935695131 9.181139807029759  33.53834137136033 4.737827866463109 9.164143188794061  37.31352146013661 8.887653776056069 14.53598070308553  34.1085205078125 7.408350944519043 11.25508975982666  35.30984151068768 8.017568241200497 12.4774889580513  34.76747621213709 6.73936229076326 11.2701476328277  33.75075557017014 7.321684761495559 12.50660543243896  33.51887130737305 7.29261589050293 11.6974401473999  33.0178575949995 6.898376382446568 12.29695640926976  33.71164893993688 6.490246144981526 11.77280263107176  38.72303000130682 8.238443780357287 11.66598793962552  39.12920333459887 8.791390023791267 12.26817045193123  38.637409825037 7.532416511866717 12.84685586048895  39.28339077281309 7.621246348485188 12.39221275000263  38.2324510411615 9.224662068549952 12.43527781981101  39.12687490236515 8.631845790614292 13.0601471945449  38.57305269885629 9.661525754131944 13.49003443453513  38.39278092929241 8.578474300750633 13.49272473242111  35.35496769789799 4.845296094892338 14.36864029293622  36.27819160374722 5.36211604057881 13.15023930899454  36.48844086186283 5.73695933184328 14.72857774741631  34.95939955805692 5.441869636683124 13.57779771684989  34.59391021728516 2.579843044281006 11.87664031982422  34.28266143798828 1.893378973007202 12.31919956207275  33.36790051263718 2.13257774014189 11.53741222862079  34.24990794828743 1.356053169506788 11.48936712247387  38.02286293975685 8.440320820373712 12.63079744003082  35.26404190063477 4.258440017700195 13.46220016479492  35.59360122680664 4.111784934997559 12.32973003387451  36.40650939941406 3.994463920593262 12.9694299697876  35.39564732521809 4.904480961582314 12.52827142430401  35.10511201249859 11.68698516227578 13.78861460707058  34.06170903185543 12.30104352474318 15.51509426404941  35.03962927205703 10.92462121436368 15.46647166315734  33.6911347810336 11.14656793493583 13.9639616926419  26.47887992858887 2.054074048995972 11.79288005828857  27.17976951599121 1.885851979255676 12.28234004974365  26.97027969360352 1.160714030265808 11.89785003662109  27.72846197474918 1.517566409660971 11.35765543604166  37.66772842407227 4.292081832885742 12.01935005187988  37.54090710951137 5.143671102625015 12.63342652806988  38.0175413898612 4.193075051728539 13.27346697384827  38.9349450087196 5.064638098036268 12.77670419691448  37.04076223961878 7.844918878608617 14.52049974896731  37.87899135181993 7.750088665746879 13.69052082559241  37.64038803444756 7.076727000195752 14.27740912714746  36.9116474442358 7.377856194219755 13.71789271012078  31.2267894744873 1.477789998054504 9.711894035339355  31.88817024230957 1.770306944847107 9.296195983886719  31.89538955688477 0.7769830226898193 9.884722709655762  31.87684889803404 2.194320926593066 9.979007677280149  36.42892074584961 3.293814897537231 14.58057022094727  37.41606903076172 3.215768098831177 15.24964046478271  36.77365875244141 3.169681072235107 14.02871990203857  37.38430109102868 3.66337566423434 14.25586215944127  32.0694694519043 12.30263996124268 13.48001956939697  31.68437957763672 11.900710105896 13.7524995803833  32.20416192745968 12.41620752152363 14.72216010844797  32.64178149235729 11.78333356097561 13.82055294352774  36.31007173737928 8.604399379425885 15.12040942593891  35.73182053966615 7.572777486767483 14.52170984585487  36.35144200897891 8.457328464023881 13.72319725618506  32.54447708843018 3.49776567074225 11.65195191453761  32.81943284397802 2.339672160892619 12.62596439697072  34.44546658708961 6.967163215557834 13.82813988427181  34.06680572249353 5.589683456312654 14.42521282576956  35.63888903953935 5.837110288643876 15.22202149217092  35.9788818359375 4.021842002868652 9.901939392089844  35.95349884033203 2.974862098693848 9.888860702514648  38.90623092651367 6.190216064453125 10.41563987731934  39.32046127319336 5.893773078918457 10.92700958251953  38.75677686508651 7.199413161757317 11.0397479809521  39.04935553404111 6.288968439882581 11.79025875469178  34.78733182375316 6.994936951468333 15.81847934094824  33.0432684370038 6.840359246805903 14.88718044733655  32.27888107299805 6.130508899688721 10.5103702545166  33.28239059448242 6.333125114440918 10.79668045043945  33.25860977172852 6.298317909240723 10.05241966247559  32.82106825552903 5.189959432141792 10.2321002964682  38.49636077880859 7.443942070007324 14.32427024841309  38.99311065673828 8.078673362731934 13.96002960205078  39.34000015258789 7.376988887786865 13.69437980651855  38.9865608215332 4.128098964691162 14.67850971221924  39.11140477356987 4.585062934513028 13.84122894073152  39.2624397277832 3.291938066482544 14.16938972473145  38.89582061767578 2.579195022583008 13.78903961181641  39.34309005737305 3.260271072387695 13.24662971496582  31.76127052307129 0.09558500349521637 12.72681999206543  33.0376091003418 0.09558500349521637 12.55428028106689  32.25326919555664 0.09558500349521637 11.63807010650635  32.63168887986065 1.086654449741855 12.08256323374698  37.88652038574219 8.13631534576416 14.56982040405273  38.41717147827148 8.316656112670898 14.21866989135742  32.9293869603428 5.065767409452591 11.09012399428845  32.17324247956491 4.618768465494826 11.52019301494887  33.4035522999302 4.147719311288881 11.25409127514826  36.29883683769538 11.39861950229225 14.41381477232701  37.58958317992507 11.11793815059403 14.60087652147683  37.43896102905273 5.812808036804199 15.23101043701172  37.35971069335938 4.800435066223145 15.10624980926514  38.15240097045898 5.307199954986572 14.99090003967285  37.49249835087728 5.917276755955312 14.07472122549739  29.22979057633018 3.223422803305376 11.16638460034642  29.01851815463776 5.20512604756313 11.92586658265537  29.40119288621412 4.792960989102473 10.55847248369121  30.68013950602063 3.971298908125039 12.01234802008345  33.43294906616211 9.100561141967773 13.29001045227051  33.41825103759766 8.690900802612305 12.42996978759766  33.28125211919722 7.92686273519312 13.62589298466641  33.95640439853683 8.339283530023145 13.28650299449031  38.93339157104492 5.133993148803711 14.74417972564697  34.1079207762733 5.595798710803169 10.33979846594646  34.06145095825195 2.737632989883423 12.5263500213623  31.67558941695626 4.595054054366163 10.49848689304597  31.70129018089752 5.569296330090966 10.63869865120357  32.22445472476163 5.726295140050579 11.18003417951445  30.19115939236024 5.516918484472315 12.81822611447472  31.76463029767304 5.584064254514181 12.36560976557115  31.02077992781125 6.950445074060908 11.81955601376232  31.28536557724804 6.625744005327307 13.30514987492618  33.35372924804688 1.200886964797974 8.957130432128906  33.99993896484375 0.6541190147399902 9.20598030090332  34.0610185210877 1.399253142516503 9.596566990598099  33.14801471367974 0.856199512559364 9.960135217789503  31.85147288237222 1.900488553241385 11.40659074893631  32.81239152706218 1.737361850461118 10.1560499417691  31.79801330460133 3.149974802114508 10.82433879992483  36.69197082519531 4.271132946014404 12.25475025177002  36.90526962280273 4.770875930786133 11.67086982727051  36.18935158355653 5.245652520596837 11.92046078439165  39.89416122436523 7.827479839324951 12.76875019073486  39.89416122436523 7.795300006866455 11.83514022827148  39.89416122436523 6.876019954681396 12.04465961456299  27.32213020324707 2.449753046035767 12.64912033081055  28.20674433618948 3.123370304715991 12.50599608074736  28.45220012043821 2.216520545134714 13.02693590772966  28.11352339113693 1.77335886060207 12.16820157577738  36.08070585003622 6.358848285731606 11.91017583555944  37.37090684693133 6.554232925826689 13.06054924057966  37.09370616372765 5.817771456954953 11.85937945401444  34.07089907864088 10.45083671431041 14.59609751699113  35.40397529411005 9.985908168903045 14.25671044071198  34.09172800936886 10.03949560864248 13.60444302217757  34.03392125414732 9.35084576894374 14.08600216733704  31.089937011092 4.960425983039184 13.99306050820517  32.83860813914665 11.17427433326157 14.76625512581542  33.27269531852282 10.01866887440675 14.0264765594582  28.07751083374023 1.15006697177887 13.11244964599609  28.99417709906201 0.9178464820706802 12.56512702014797  30.72143936157227 0.09558500349521637 13.38354015350342  31.41030378095708 0.9972106222056237 12.23855485098248  31.93314178517151 1.322269265638738 13.52842368019345  38.13806897940244 6.074784497374154 11.7621594473133  33.75727844238281 9.602093696594238 13.02947044372559  34.10687289033177 9.108786706441109
[...]
<PointData  Vectors="u"> 
<DataArray  type="Float64"  Name="u"  NumberOfComponents="3" format="ascii">2.7352977964216230e-01 1.2976487060983464e+00 -2.9110877413406949e-01  1.3763128199848420e+00 1.0942167877469349e+00 -3.5297890057580716e-01  1.3975235277376996e+00 1.0559919538171396e+00 -4.7640640768325454e-01  8.1105590941452543e-01 8.5569464146177998e-01 -4.8931523290542450e-01  1.3024041098859556e+00 1.0401284604663554e+00 -9.6660717431109833e-01  1.1899135536468917e+00 1.1541990447777881e+00 -1.1321395138132750e+00  1.4293108743275944e+00 1.2110096368294285e+00 -1.3086207470309945e+00  1.0247322812117849e+00 1.4227636352501509e+00 -1.0616723115129580e+00  2.3935509553829196e-01 8.4098853440992638e-01 -6.5244404745232565e-01  1.3045571041651860e+00 1.6118837705422766e+00 -1.4167967302099915e+00  1.9932740954685304e+00 2.5249167640344367e-01 -4.5622201275574403e-01  1.6308560575599906e+00 9.3984881855884883e-01 -6.4543832746988195e-01  7.7310491526040248e-01 3.8056255042531489e-01 -2.4267337474672740e-01  9.1932305946464421e-01 5.6410734687027037e-02 -1.1140870173445432e-01  9.4178426279045779e-01 1.0767635401159885e-01 -4.7140302627898245e-01  6.7148492800440207e-01 1.7864941908162540e-01 -4.4939751357745950e-01  -5.3707121231970099e-02 3.4126364364561013e-01 -3.5441561711729136e-01  -1.0557385796319875e-01 3.5793144858337145e-01 -3.3524680919595545e-01  -1.4036385446890826e-01 3.3248707821134077e-01 -1.7753333501539986e-01  5.1362874857663854e-01 2.5682360745288091e-01 -4.8779494396658857e-01  1.1111687126823795e+00 9.8268754211725284e-01 -1.5822983452886312e+00  1.0837356068396899e+00 1.4508241986760992e+00 -1.3875260148438915e+00  1.3207718847717973e+00 4.6568610990955245e-01 -9.1558342121395087e-01  1.8452731340793156e+00 4.6237963970374985e-01 -5.6339164021810240e-01  2.1500651983381118e+00 1.5645653986366778e-01 -8.8243602713521241e-01  1.8092012547934204e+00 8.7064336951032018e-01 -5.4590919800784543e-01  1.3530428456807650e+00 9.7568097209419158e-01 -1.4030348079873867e+00  2.4434441431332115e+00 1.8976586289406145e+00 -1.4088969673109304e+00  1.7860301894305028e+00 1.4860157409059362e+00 -1.1414746338266426e+00  2.0306154700119619e+00 1.4199288521281312e+00 -9.3265282285442497e-01  3.0414016975449312e+00 1.1336133975936447e+00 -9.3920315414282163e-01  4.5045663123374711e+00 1.6534341432493338e+00 -8.1183511526618490e-01  3.5271438884389332e+00 4.4468605057390992e-01 -2.7089399806920555e-01  3.0823998744630003e+00 8.8690764129120681e-01 -6.7656338366515523e-01  6.9329039373884493e-01 1.1326106381289991e+00 -7.5079465407714452e-01  5.0956460966704198e-01 1.0756033432889542e+00 -7.2094454896436133e-01  9.0784093235310026e-01 9.8699784274643321e-01 -6.8988844967146190e-01  2.3927574216469299e-01 1.0844364926488201e+00 -4.8575993471509082e-01  9.1734097848963236e-01 1.1130702737310409e+00 -7.2863484934007039e-01  5.5358104819839926e-01 9.8219707276538992e-01 -6.3626948031520836e-01  1.0275994268749922e+00 1.1863329592249274e+00 -7.9866658462709239e-01  9.9697181423494563e-01 9.4446931261672373e-01 -8.0442967217799588e-01  2.2922752341089812e+00 3.1682231142053030e-01 -9.0258796306946232e-01  1.8363142736266289e+00 3.6295118587647013e-01 -4.9378834885921097e-01  1.7215401205376097e+00 2.9009207142208898e-01 -9.7077060591523112e-01  2.1943425287075549e+00 5.1847010373577829e-01 -6.3864423274776805e-01  8.4979125327438343e-01 9.4727582922866604e-01 -7.6882323388255192e-01  7.1609046511368390e-01 3.4127609617431492e-01 -1.0311717182853333e+00  1.3269618063498145e+00 2.8321944401226945e-01 -5.8671554339072640e-01  6.6908127387189453e-01 8.4594652431474349e-02 -6.1240363775581053e-01  1.0840346361395989e+00 1.1349279248654776e+00 -6.6121925178498719e-01  2.3733874776911739e+00 -3.9045234651202582e-01 -5.2003371556624511e-01  2.2644632256790049e+00 7.2313303897764358e-01 1.0701663800070369e+00  1.8279933694266615e+00 -3.7112489985741237e-01 6.3294340904391483e-02  2.1798383955601444e+00 5.9554774421999013e-01 -1.1644205212336071e-01  1.1710522368129483e+00 1.8681279081380775e+00 -1.8857244904318515e+00  1.6219394956885798e+00 1.8176804013766501e+00 -2.2452597629923723e+00  1.6310160937057363e+00 1.3863908425470548e+00 -1.6901129840071836e+00  2.1145951556192197e+00 2.0129421085546944e+00 -2.0032816250010548e+00  2.3385042169292407e+00 3.9895290909715220e-01 1.7015759765680514e+00  1.9351944212243184e+00 1.1555794359114392e-01 1.6776117384881855e+00  2.3851309330860748e+00 3.1236803163667826e-01 1.3209126718003643e+00  2.1371683961841259e+00 -5.4413073661485956e-02 1.2488532553903637e+00  1.1642429224993982e+00 6.4506302143469835e-02 -5.1335899580423050e-01  1.2727554446103102e+00 2.9238087336401108e-01 -4.5095876891995207e-01  9.3524257074203676e-01 1.8882059294992076e-01 -3.8235292518284980e-01  5.4984997730089158e-01 2.0771182225979623e-01 -4.6684560173845829e-01  1.3594353129702579e+00 7.7374611684572803e-01 -1.3490703969769078e+00  1.1845389083137261e+00 9.9698189774504187e-01 -8.0699647741388503e-01  1.2060398265902286e+00 6.3613340941370666e-01 -9.3420369945995507e-01  1.4569004121182865e+00 8.6088056018556958e-01 -7.1628281676884209e-01  2.4877403820244215e+00 5.4986898884564629e-02 -6.0765224556317943e-01  1.8279772876725711e+00 -4.9053491712346020e-02 -6.4951924793140314e-01  1.8977206728875271e+00 -6.3051236543440276e-02 -7.8613315680238660e-01  2.0486102649778348e+00 6.5756646453460868e-02 -5.8887725846584393e-01  -1.0470167176565596e-02 -4.3089758715057780e-01 -2.6837858472316700e-01  1.1258270861215254e+00 1.2898709465827349e+00 -7.7987023253436738e-01  4.0429887073038290e-01 -3.6601906128175821e-01 -5.0250895298823572e-01  9.5100347677210118e-01 -1.1577422810775924e-01 -5.2860767125480512e-01  2.9407905858336227e+00 3.5635226430457081e+00 -2.5280643025758893e+00  3.1027783074442183e+00 3.2914750553934891e+00 -2.6851533882945469e+00  2.7829797425263800e+00 3.0257698166229323e+00 -2.4386389742800350e+00  2.6884401013026951e+00 2.7831835231471751e+00 -2.3708395841884924e+00  1.4509790209537621e+00 9.5699579748456731e-01 -1.3166792167165622e+00  1.8550477060971138e+00 9.1482115605703995e-01 -1.0092022137167331e+00  1.5736618085582625e+00 1.0846663276066559e+00 -1.0085572691877740e+00  1.9110714511828426e+00 3.4760428523681641e-01 -4.7591520711830682e-01  1.3984682029438822e+00 1.9758293621035947e-01 -4.7841383167508644e-01  2.2892144390581208e+00 8.6100990907943176e-01 -8.0285615985409264e-01  2.2207561754038139e+00 5.2522123122291964e-01 -6.3790526933821168e-01  1.8470699571243716e+00 4.9375776330554416e-01 -1.0297304084110428e+00  4.8591851200009209e-02 1.3632470256226312e+00 -2.8024083748586887e-01  5.9056295441874448e-02 6.8775280441156328e-01 -2.5766639754965770e-01  8.8659734419096448e-01 9.0730602973293661e-01 -6.5016192301340603e-01  4.4614558723894920e-01 1.0695519218740077e+00 -8.6929944344894761e-01  6.9022791600473887e-01 1.0058138486384334e+00 -6.8156254967272190e-01  4.1535294172856596e-01 8.1322240246862343e-01 -6.3774634188166690e-01  1.9145543052444907e+00 6.0621366194122794e-01 -7.9876320673325163e-01  2.5930575346640992e+00 5.2026219958416564e-01 -5.2866817812860045e-01  3.6695601619295362e+00 -5.0201363910098729e-01 -1.2750300650705513e+00  3.5288637757174812e+00 5.7952025791407624e-01 -1.0112182981421149e+00  2.9223133775132371e+00 1.5615738987592711e+00 -1.0744789708490370e+00  2.5578413950102279e+00 5.4922192273781878e-01 -6.8331216275346962e-01  8.3413137448865815e-01 8.9160094944172252e-01 -8.7670744788332733e-01  8.0808287148211821e-01 1.3208253926886602e+00 -5.0415027601196027e-01  4.4113116569412852e-01 1.2301063079841841e+00 -6.2888354359181020e-01  5.0073899520872589e-01 2.6506527636532440e-01 -4.4188389631343861e-01  5.2811738656706220e-01 1.3591779310355226e-01 -4.8343378085575955e-01  2.8096563390855284e-01 3.0118845660166721e-01 -3.4402757719103766e-01  2.5548536484347367e-01 3.2811731461908933e-01 -4.4251996690723211e-01  3.2983807985136093e-01 3.4007506095404111e-01 -4.8562494342152657e-01  1.4192787490915242e+00 6.8417473884658547e-02 -4.3205017976946619e-01  1.0417006728945117e+00 1.3828700325123552e-01 -6.5549038030085027e-01  1.4637411474294302e+00 6.9989336026024307e-02 -5.0204446130995450e-01  1.3461136689907622e+00 7.9925881642545799e-02 -5.4809633502634914e-01  1.3941531419556281e+00 9.2279116939848105e-01 -1.1469244745721117e+00  1.4392371737519849e+00 1.0366939499289334e+00 -8.9728606741313721e-01  2.4590371498368229e+00 4.1703707935625633e-01 -6.6407315400446387e-01  2.4548897139762196e+00 2.1972371064812646e-01 -5.5509954272416973e-01  2.1055442473950197e+00 7.8314428129984215e-01 -3.8264040872333277e-01  1.1589659671171377e+00 1.4897792213254921e+00 -1.7724302763301762e+00  1.0071756424603584e+00 1.1431319868698104e+00 -1.9171433589868532e+00  1.7651108225798109e+00 5.2357570642944037e-02 -1.1843842826391773e+00  1.7599189461806688e+00 -2.1892692339807629e-01 -6.3500754605741616e-01  1.2031754650671416e+00 3.1916293818224778e-02 -2.2404654228578533e-01  1.3569941736000943e+00 4.3171460345238816e-01 -7.0184156135927045e-01  2.0879544179992422e+00 -3.2117723636658918e-01 3.3908909589676001e-01  1.9348059028309279e+00 -1.2854281150880129e+00 3.7379086190074673e-01  2.6263960381765856e+00 -8.4454296306673726e-01 1.5370404462177970e-01  2.1575570798927202e+00 -3.1411503507961508e-01 -2.1124032614082228e-01  4.6135063713902245e+00 2.5284802115991267e+00 -1.3245858286395704e+00  4.4633158114021025e+00 2.5207980688312963e+00 -1.5825997442309410e+00  3.3212154677809624e+00 1.0124357440363161e+00 -6.0706952130441316e-01  2.8056692559349083e+00 1.6467307561045621e+00 -9.8107989429138642e-01  3.7926002475385800e-01 1.0637395219047821e-01 -1.9687897628631454e-01  2.0369439950834844e+00 1.2523807557610216e+00 -6.2388747996977345e-01  6.9893553875172876e-01 9.6286456511761553e-01 -1.1974255607170909e+00  2.5803054679301241e+00 -1.0401233856526555e-01 -5.0332699136327852e-01  3.2969543008344182e+00 -5.9367323255114424e-01 -4.5595074464949903e-01  3.1239092048725472e+00 -5.0758257102484095e-01 -6.7118726234963322e-01  2.3034723561763388e+00 -9.3401788772645722e-01 1.0647690545025694e-01  2.7739284835803848e+00 -2.7976863759441484e-01 -3.1314667346279224e-01  3.2975352468123060e+00 -1.3545967435778619e+00 4.5035104933289083e-01  3.1114223788092232e+00 -3.7171880165239873e-01 3.6293015340843192e-02  8.9072253324925343e-01 5.5661829038922572e-01 -1.2175277920813278e-01  5.8303885990626048e-01 4.2613461458395302e-01 -1.6884788728046451e-01  8.1998857017366722e-01 4.5780830896728281e-01 -4.6056685238487000e-01  9.5842064451147491e-01 1.4827184327018042e-01 -3.8548134616778051e-01  1.7532854412668670e+00 -3.4990913746414318e-02 -5.1758044565789751e-01  1.4367400330595863e+00 1.5099399140573611e-01 -7.0084881846049063e-01  1.9670052075017255e+00 6.8572204651960775e-02 -5.5560227584646549e-01  2.0300990504965020e+00 1.3414670690904079e-01 1.1191035489408080e-01  2.0915980350434218e+00 3.6870618217192325e-01 -2.7945928231628669e-01  1.9760852373538191e+00 7.5110278122083707e-01 -1.2765723486286684e-01  -2.0564140956914431e-04 1.1370268188181247e+00 -3.8795476032514092e-01  -6.3135067055941846e-03 1.0524919133776340e+00 -4.6408509924669411e-01  -6.0055410338565679e-02 1.0066847510129766e+00 -6.0649202894940657e-01  1.0562535781795706e+00 -9.1847537260155793e-02 1.3817422957098209e+00  1.0667749904625263e+00 -3.1470501992152117e-01 5.6771477542863913e-01  8.4100378333456072e-01 -2.7202068599630974e-01 8.2939012741005277e-02  1.6330501667438238e+00 -5.8099621877392683e-02 8.2949203396220161e-01  1.7013027424134146e+00 9.6636658790191765e-01 -6.5505401943151054e-01  1.3336557297766971e+00 6.4639363693145513e-01 -5.6126110527166850e-01  1.5527833634125219e+00 6.0763133863179586e-01 -4.4208202156956050e-01  2.1108843597954583e+00 1.7223713741002722e+00 -1.8057083629567303e+00  1.5251180072682287e+00 1.3906007253571204e+00 -1.4238644075944944e+00  1.9307570578221520e+00 1.9037758457584810e+00 -1.8655835912497341e+00  2.3397146475993145e+00 1.7422046227841119e+00 -1.5473064329591590e+00  2.2458918690691689e+00 -2.2186312452913720e-01 -3.9153225546549580e-01  2.8831692417649126e+00 2.2435088533190650e+00 -1.9792854369257165e+00  3.3178174967581899e+00 2.2493983652422815e+00 -1.8771424888184922e+00  3.4984774921124184e-01 -2.8610959224307125e-01 3.1179763139559791e-01  1.2482938732530064e+00 -1.4571190509222962e-01 1.8408239701289630e-01  1.4683687134262302e+00 3.5512737355289724e-02 -5.3539558687136113e-01  1.5515046132057702e+00 -9.9469939342785668e-02 -3.8050682388051915e-01  1.5464865892796142e+00 1.7856073558027357e-02 -4.7533052761228556e-01  9.7594375447305248e-01 6.5813212544817723e-01 -6.2517032333687184e-01  1.1779353594898965e+00 2.9016544445657777e+00 -1.7568375164063335e+00  2.3152564195617833e+00 2.2336465762685651e+00 -1.3883874010510968e+00  1.6954391748225695e+00 1.7992698406153687e-01 -2.0676045978975749e-01  1.2728062679944583e+00 -1.0545315945680579e-01 -7.2126478308356357e-01  1.6566144634301716e+00 -1.3848707037715794e-02 -6.5088082983378592e-01  4.1364535434452665e-01 2.4270141423526076e-01 -6.1634278246820093e-02  7.6961426445050607e-01 1.6479331477485434e-01 -4.2501618340619945e-01  1.0818936281311855e+00 1.8094806214500037e+00 -5.0951178791056895e-01  1.4034319683403089e+00 2.3258231436611540e-01 -3.0347651535683973e-01  2.1794972559745802e+00 -4.6608039398937052e-03 -2.4416116454295861e-01  2.6277222921242580e+00 -2.9352255425404739e-01 -3.5596972460651893e-01  3.5875222916943446e+00 1.5871564751346612e+00 -1.0654985094541014e+00  2.3599627851978076e+00 1.0451802489141055e+00 -7.8601499472915870e-01  1.6151611917582682e+00 -9.8939051998093730e-01 -2.4747014438037176e-01  9.6708115896919011e-01 -2.6501816672681183e-01 -2.7907678524405111e-01  1.3884840530501721e+00 -2.7537926726081591e-02 -4.0451611382046343e-01  3.7204169097742273e-01 9.2627484362174983e-01 -2.5821717004869584e+00  7.2565068932903232e-01 2.0916604211933141e+00 -2.6325894424454903e+00  4.1065545329266867e-01 1.1613368283121970e+00 -2.7008474556816848e+00  1.0990334001517377e+00 1.5942521518721406e+00 -2.1771821064495511e+00  5.0314620099129695e-02 1.1028533413146533e+00 -3.8250568760833176e-01  -5.3967931830883470e-03 1.0169511824152184e+00 -6.7919434646110055e-01  7.0206992458708872e-01 6.9442272381541881e-01 -5.7537098738512893e-01  2.8380359737006328e-01 2.1868420864935553e-01 -8.2220607336904972e-01  -2.5031787936673544e-02 1.6620463150029241e-01 -8.0638050096190306e-01  7.5393639109231059e-01 1.7976263590777497e-01 -7.1820075854482945e-01  9.4602896951570914e-01 1.5560558984891937e-01 -4.2041718930927952e-01  7.9108935419420079e-01 6.7058772708631098e-01 -6.9387143767123383e-01  9.2792205469434430e-01 5.8178495644841111e-01 -6.1243975823428354e-01  6.7478954723757378e-01 2.9860376042400277e-01 -1.7518408673413801e+00  4.3642613189046037e-01 1.3583612507588496e-02 -2.5500471262377211e-01  7.2359814599757322e-01 1.7805445741757572e-01 -6.6880372123829923e-01  3.4939054478651208e+00 -4.5670340253108299e-01 5.7083453457496693e-02  2.7634159280136918e+00 4.0861467864829171e-01 -5.7943598776211713e-01  1.8388150566954542e+00 -2.9854860995889831e-01 -7.4524809777196555e-01  1.9085250227083477e+00 1.1118658455316635e+00 -2.5213687052210171e-01  1.5616476295376123e+00 1.5334600964084775e+00 -2.1525573166401096e-01  2.1685388852618726e+00 2.1636341881215100e+00 -1.6404503693947468e+00  2.7928639765220438e+00 -7.5397868831778669e-01 -4.2340869237382095e-01  1.7975055409527747e+00 2.4262643819752963e-01 -1.5864251896509596e+00  7.1364795969150030e-01 3.3079630923093001e-01 -2.0459773747495127e-01  4.2980463137530350e-01 5.1174318437551947e-01 -2.6091717244329948e-01  2.9726314468443684e+00 4.4156238995912089e-01 -3.9956618960528073e-01  2.0486578858085136e+00 1.0925683798810057e+00 -1.2064128860430514e+00  1.2691879260659509e+00 6.5825991263971395e-01 -1.2281229144479129e+00  6.4375466231598300e-01 2.8552305336718581e-01 -4.2940654143656209e-01  1.7905396417835977e+00 -1.3096473633629424e-01 1.3935677723254905e+00  1.5259747014327032e+00 -3.8389235730781324e-01 4.5586296476085586e-01  4.4686874756708994e-01 -3.3342769021056379e-01 -3.4947762353357426e-01  3.4492316163312509e-01 2.1777348429872420e-01 -4.7249053917204825e-01  2.1145949308158349e+00 6.8022753270827330e-01 -5.2090552421914194e-01  2.2026106799833696e+00 7.6136218849010195e-01 -5.4602532254707614e-01  2.1736806318893738e+00 8.0451152886695509e-01 -6.9050057623750216e-01  3.9365141227050966e+00 -1.5853165708797032e+00 1.8793677414112375e+00  4.9254120318703789e+00 -6.5289870462244193e-01 1.1522534206679886e+00  3.8488073430553174e+00 -3.2756243985749017e-01 4.9001658268756171e-01  1.4126414612067799e+00 1.5736396092879270e+00 -1.2946074820204467e+00  1.9305796209760326e+00 1.2970541493146224e+00 -1.2274592573301468e+00  3.0020952637449244e-01 8.5579135071153378e-01 -1.9772580986840191e+00  1.3283335331012589e+00 9.7735086540893612e-01 -1.9319057831948103e+00  8.1754538078091243e-01 9.3236719060470175e-01 -1.6955185734281557e+00  7.8237082070798625e-01 -2.3114467472439221e-01 1.1615495880326610e+00  1.3842692639391969e+00 -1.8803093308937460e-01 1.4823353762344580e+00  1.2794271856501507e+00 1.0513060466830175e+00 -7.1777556453439428e-01  3.2104419692893456e+00 2.8800464206903036e+00 -2.3301157600209694e+00  1.2307837921379345e+00 5.2015423345890183e-02 -6.0958887742317369e-01  5.3121682259037817e-01 -4.9561846847358926e-02 -5.8299096684247997e-01  8.7552563902139291e-01 2.1076011861077337e-01 -7.3697475920952404e-01  1.3224192860614574e+00 2.5590678409448508e-01 -6.4698321172021278e-01  8.8703078203604191e-01 6.4675672330763767e-01 -5.7820522135675390e-01  1.5359784884348975e+00 2.4991735146384624e+00 -1.3908861863997353e+00  1.5106809607189684e+00 1.8906385477243168e+00 -1.4117969339301601e+00  1.1066324176897522e+00 9.5466645530054864e-02 -5.6306115688787672e-01  1.0622180557055787e+00 2.2988780314709828e-01 -3.6406888128471787e-01  4.2075250888653820e-01 4.4765702047058410e-02 -4.8433348658974285e-01  2.6212472339889231e-01 1.4311378920980158e-02 -1.8938044092659667e-01  6.1972394380372675e-01 3.1407324248586888e-01 -2.3175617696434866e-01  1.2075291708676936e+00 4.2072696149692490e+00 -2.7318549642776859e+00  1.7199035656234838e+00 3.2187981245530373e+00 -2.4212835366744656e+00  1.7568463729333710e+00 2.8436143739850244e+00 -2.4989209088745006e+00  1.7860900692611528e+00 1.6424262135926577e+00 -5.0033462806374762e-01  2.2017035401847806e+00 1.4084424000306572e+00 9.5383098002105104e-01  8.9987302829143290e-01 1.9266608860434939e-01 -3.9723189122519509e-01  4.3792967005495136e+00 2.3563807187634154e-02 -7.4866013992003003e-03  3.7575993001349106e+00 -5.9444142675043610e-01 -6.8664880921034277e-01  3.5139297845384418e+00 7.1677518401189166e-01 -4.6173844182960111e-01  2.9208761072823988e+00 9.6352656439689077e-01 -1.1236815245655032e+00  2.3406629124928631e+00 1.1982670340464932e+00 -9.7557984647699769e-01  3.5890865204647310e-01 6.3654590416952306e-01 -5.1738735847805506e-01  1.3741290812007784e-01 1.9503541391637011e-01 -2.4290737838232229e-01  3.6496853340388302e+00 -1.9340036650322268e+00 -9.0792029339968772e-02  1.7822035281930755e+00 1.0960689449887495e+00 -4.7415217617811208e-02  2.7459453431235787e+00 2.0549733853983647e+00 -2.7826207734246475e+00  1.8173627997293027e+00 7.5990979939972414e-01 -7.3856763993685104e-01  1.3959666875564434e+00 6.8815034194794800e-01 -1.2821137678531953e+00  1.1768670857335142e+00 -9.5472670490415704e-02 -2.6961113686285659e-01  2.1014953830989471e+00 9.3746958530654256e-01 -7.2176336069230984e-01  2.4221237568455775e-01 6.3591140408777325e-01 -1.0654236055863705e-02  3.0998029078997230e-01 9.2881832984957413e-01 -5.3691647201903592e-01  2.9117143350618674e-01 7.5076175637140607e-01 -3.8445564468515647e-01  2.5087372198926969e+00 5.9716279595488642e-01 -7.2190487477277077e-01  8.0509269610782208e-01 9.7749703624120754e-01 -4.4737141810646736e-01  3.7442480338236690e+00 1.6317523959473383e+00 -7.0606138