<?xml version="1.0"?>
<VTKFile type="UnstructuredGrid"  version="0.1"  >
<UnstructuredGrid>
<Piece  NumberOfPoints="13666" NumberOfCells="63231">
<Points>
<DataArray  type="Float64"  NumberOfComponents="3"  format="ascii">13.13794040679932 17.06151962280273 1.132534027099609  13.34521961212158 17.43120956420898 0.6693580150604248  12.89505004882812 16.54416084289551 0.6787459850311279  13.85200945460305 16.67835238935003 1.043712675952529  15.2846097946167 14.40373992919922 4.8353271484375  15.89377975463867 15.27583026885986 4.200256824493408  15.10750961303711 14.63492965698242 4.173038005828857  14.96692339363915 15.46988252360182 4.728387267139263  14.52138042449951 14.04059028625488 4.207091808319092  13.2409203235078 14.57089746815846 4.172099311445621  14.31968337967173 15.16704384213814 4.055390205642914  13.88096026414957 14.64163153414405 5.075699701316489  15.34160995483398 15.74367046356201 2.808434009552002  14.57771973674706 16.54844499271137 2.951685003837666  15.18579227391274 16.82940978742248 2.247476143351441  14.79900978542443 15.8440999356894 2.177360257802397  18.19074058532715 3.605962038040161 1.984985947608948  18.97525024414062 4.088799953460693 1.579074025154114  18.4407901763916 3.757492065429688 1.037351012229919  18.99025523670714 2.884090295581587 1.606994576452914  14.18978023529053 14.57291984558105 9.322454452514648  13.69132041931152 13.9501895904541 8.805159568786621  14.35953044891357 14.16289043426514 8.739676475524902  13.91031918635265 14.74368371930608 8.573856196612654  15.69902992248535 1.850105047225952 0.1048400029540062  16.3494701385498 2.283320903778076 0.1048400029540062  16.61167907714844 1.464200019836426 0.1048400029540062  16.06131007635434 1.565160899788903 0.8390799051802154  17.47012780768676 1.701508074931415 0.7608204070168626  11.85760974884033 14.67840003967285 7.986434936523438  12.59568977355957 14.54481983184814 7.662961959838867  11.79553031921387 14.09278964996338 7.536005020141602  12.61578727531968 13.86380979322231 8.325214481784061  14.01447010040283 16.74390029907227 5.286993980407715  13.59770965576172 16.17997932434082 4.63534688949585  13.79420701443578 16.09606617329799 5.10669252724595  14.3585442752419 16.10557583978572 4.882495746960876  16.42487907409668 16.30138969421387 1.099256992340088  16.37467002868652 15.99129009246826 0.6634430289268494  16.48176338782648 16.40983737128595 0.7541398465781752  15.71535763821722 16.16795357573713 0.8211214026001109  14.80471038818359 14.48416996002197 3.556598901748657  13.81197698143419 14.71243015702327 3.141039738065404  18.05801010131836 1.980746030807495 0.1048400029540062  18.53083992004395 1.277719020843506 0.1048400029540062  18.64771047610651 1.969090266439979 0.9905686647582427  14.52428617250923 16.285950893357 3.9010882746685  13.97703350518047 15.50515054948904 4.715065747439652  13.38020304576052 15.60383620219791 3.955836758906116  18.67819976806641 2.324219942092896 4.370869159698486  18.48961067199707 3.032886981964111 3.544179916381836  18.18413937052957 1.500863480860389 2.923404691430454  19.3941100060449 2.15420994619029 3.251187908255845  18.57653045654297 3.548114061355591 2.937088012695312  18.16083721739016 2.635767682785813 2.230788486273345  18.90897650609069 2.937192512807989 2.682797071564693  19.05195999145508 2.705601930618286 0.1048400029540062  19.69017028808594 2.874499082565308 0.1048400029540062  19.42266082763672 2.115087985992432 0.651075005531311  19.22069249680619 3.186502893674674 0.7718342070078016  18.23563003540039 0.4575099945068359 1.116541028022766  18.15815925598145 0.7553780078887939 0.1048400029540062  18.99453926086426 0.6830419898033142 0.6763430237770081  20.14509963989258 2.426968097686768 1.996278047561646  19.88937950134277 1.552579045295715 2.416471004486084  19.62056922912598 1.653440952301025 1.37977397441864  19.06889084034789 1.776776247589474 2.181307911464082  17.26752090454102 0.09558500349521637 1.609792947769165  16.25460052490234 0.6661499738693237 0.8790069818496704  17.30558013916016 0.7534440159797668 0.6767539978027344  16.85984980391609 1.215186269303142 1.958175629450721  15.08952045440674 0.09558500349521637 2.332290887832642  14.61986225417258 1.105418440967636 2.591682694564641  15.78800700086117 0.9519149272782471 2.885242253198472  15.80307812735309 0.766127743198513 1.836517699723789  17.55331993103027 0.09558500349521637 2.723233938217163  16.83416938781738 0.09558500349521637 2.432298898696899  14.51644992828369 17.94977951049805 0.9904159903526306  13.94151020050049 17.73998069763184 0.633417010307312  14.67380046844482 17.42625999450684 0.1048400029540062  14.65412025205205 17.23628624597082 0.6775868842422186  12.85795568808515 14.78370687127215 2.21158816810735  13.11305664532417 15.51508016991783 2.968956377066872  13.98500064211602 14.74481511265282 2.11208491072794  16.16949081420898 18.03031921386719 3.066020965576172  15.24672031402588 18.03560066223145 2.790513038635254  15.80832004547119 17.75514984130859 1.930498957633972  16.06325912475586 17.16390037536621 2.371366024017334  18.80117988586426 2.011250972747803 0.1048400029540062  14.05878720233876 15.55918020607404 2.439084599056036  15.07583045959473 15.1519603729248 3.14307689666748  13.77301636045529 16.00802210594764 3.187977833684957  13.99989032745361 16.00823020935059 5.600072860717773  13.84150981903076 15.61431980133057 5.263628005981445  14.33279037475586 13.62032032012939 8.153002738952637  13.66563034057617 13.38029003143311 8.020186424255371  14.01823759259928 14.22582442262402 7.937380837921123  15.3689603805542 18.27407073974609 3.604613065719604  15.9678557934227 17.74145748299401 3.794794300847248  16.63567924499512 2.433633089065552 4.053973197937012  16.25073051452637 2.822962045669556 3.515021085739136  16.94733047485352 2.889554977416992 3.364918947219849  16.50748059060947 2.268750654230317 2.895943436481239  14.81358462833833 17.32976415386489 4.739064285074924  15.66360593238236 16.47758563834923 4.245514220566389  14.85110975312625 16.4132139734062 5.564005488249797  13.34902954101562 16.98928070068359 1.777508974075317  13.82763004302979 17.63311004638672 1.289942979812622  14.75712013244629 14.44919967651367 2.747281074523926  13.70059013366699 15.11083030700684 0.1048400029540062  13.21802287113383 15.56547356647575 1.365939801446746  14.37131655879775 15.21414583308355 1.186531463442469  13.53643332074115 14.49458974597406 1.102476524974303  14.65458011627197 14.28059959411621 1.877805948257446  13.99090957641602 13.97329998016357 1.198644995689392  14.85628032684326 14.26906967163086 1.131039977073669  15.64647627919559 1.94422761419002 2.168643280556281  14.75617980957031 17.92795944213867 1.854452013969421  14.95756040498966 16.93235656240003 1.352277023298802  13.34922981262207 15.45958042144775 5.13993501663208  12.44198989868164 15.55352020263672 4.611559867858887  15.76902008056641 3.26540207862854 2.263442993164062  16.75238037109375 3.069557905197144 1.988813042640686  16.21966934204102 3.230859041213989 1.380421996116638  16.61373949680137 2.404056344241562 1.456692381191929  16.98605918884277 2.993726968765259 1.170645952224731  16.3771800994873 2.892189979553223 0.6997730135917664  14.02485313812856 16.446807563984 1.992260372894501  17.69702403537451 2.369420829175438 1.28266923367582  17.2747802734375 0.09558500349521637 5.27653694152832  17.64662933349609 0.09558500349521637 4.545790195465088  17.91689655289208 0.6241467098391751 5.271695101207333  17.22823074161269 0.8163562966184457 4.922026888487502  15.41073036193848 14.88327980041504 0.7830510139465332  14.55346012115479 14.3412504196167 0.6504719853401184  18.49333000183105 0.09558500349521637 3.145654916763306  18.33020973205566 0.09558500349521637 2.126312971115112  17.92811856106248 1.292944965245128 1.750345943397716  13.73581981658936 17.04052925109863 0.1048400029540062  17.22347068786621 2.402237892150879 0.1048400029540062  14.5092981410163 1.423112289766759 1.171476399845034  13.61686038970947 15.23904991149902 6.009753227233887  12.59356021881104 14.91751003265381 5.610204219818115  17.7039909362793 2.721751928329468 3.685894966125488  17.57551956176758 3.127937078475952 2.735167980194092  17.47178077697754 3.165196895599365 1.776800990104675  17.28600007003664 2.460187954552323 2.315593024504958  13.54683017730713 13.00728034973145 5.361843109130859  14.33695030212402 13.69326972961426 5.159396171569824  13.00931266428395 13.66267354812429 5.528579149309179  13.41149538993223 13.60200056701985 6.386999103508511  14.63195892050586 15.15140453010749 5.63425805026279  14.05856037139893 17.49221992492676 4.08241081237793  13.535719871521 16.8255500793457 3.735256910324097  14.02863025665283 17.51955032348633 3.292327880859375  15.40147972106934 17.88159942626953 0.9849889874458313  16.17873001098633 17.51129913330078 0.9817730188369751  15.79594311351132 16.99037376071929 0.9133181827067363  15.75792026519775 1.945673942565918 4.738371849060059  15.8996000289917 1.139482975006104 5.40540599822998  16.87775993347168 1.67474901676178 4.843455791473389  16.16413452672735 0.9917277898841204 4.494854175033966  17.73347091674805 3.189533948898315 1.113216996192932  14.58907032012939 17.99295997619629 3.981090068817139  14.92557730328339 17.49668902092921 3.657212972770787  15.61380958557129 2.986005067825317 3.163640022277832  16.47652053833008 3.018101930618286 2.826611995697021  15.2811803817749 14.72994995117188 1.454162001609802  16.27874946594238 17.21237945556641 3.065854072570801  15.45645803243999 17.1272774999582 3.222000885558598  14.4410400390625 17.9182300567627 4.864916801452637  16.01683044433594 16.402099609375 1.877321004867554  15.89933013916016 15.50162982940674 1.322106957435608  16.24014091491699 17.05802917480469 1.482687950134277  12.38502025604248 15.24897956848145 7.879426956176758  13.05496808284974 14.913874269247 8.775762533644508  15.82971800412492 1.739217216602314 3.646622823835169  16.73420906066895 0.09558500349521637 
[...]
<PointData  Vectors="u"> 
<DataArray  type="Float64"  Name="u"  NumberOfComponents="3" format="ascii">4.9407579873691700e+00 6.1626144276835131e+00 5.8863024059513724e-01  2.7624109885630785e+00 3.1567254732744612e+00 1.3041143713571396e-01  5.8039768905032894e+00 1.0790915796812293e+01 -2.0507356320239131e-01  6.2466242405410819e+00 6.5459318373815440e+00 2.7483611371819761e+00  3.2344765441271782e+01 8.0306908613919514e+00 1.5985818675830506e+01  3.5683939717648670e+01 3.2025324899428895e+00 1.3120837200590975e+01  2.3741741842327073e+01 1.3978623282749670e+01 1.8334024264309047e+01  2.2980373723643485e+01 9.2450231265215610e+00 1.0666047611566505e+01  1.9288497716815225e+01 1.4379053937100144e+01 1.2917574788262051e+01  1.9543457249204074e+01 1.1719890819096385e+01 5.9496741277604768e+00  1.9295486938034490e+01 1.2216611897117525e+01 1.1047929436300876e+01  2.3601886544213830e+01 1.1452368393553281e+01 8.6877222361079145e+00  8.4991410714759876e+00 1.3444028902319630e+01 1.6620598436762897e+01  1.1826276576850205e+01 9.5564401438321394e+00 1.2146131248384396e+01  6.7043147891366299e+00 7.5060737015288375e+00 1.3682342517062885e+01  7.0155750805348545e+00 9.2385918941239531e+00 8.3219778553927988e+00  3.6885490566293456e+01 2.2784645543158870e+01 -1.6026924308606800e+00  3.4711842555121081e+01 2.2500361832551004e+01 -2.0830307004077064e+00  3.2375759977538678e+01 2.5361160872930615e+01 -4.2299207064903799e+00  3.2416198927710745e+01 2.2327645520464340e+01 2.1357116364389657e+00  2.9992247895504214e+01 5.3941978894267910e+00 -1.1346648088127058e+01  2.6841399929247732e+01 1.0967645700148555e+01 -9.7309494718573948e+00  3.8646428972328174e+01 -1.7257083053417683e+00 -4.6536892715368232e+00  2.6256492090802247e+01 3.6445770114367826e+00 -5.4762535197374556e+00  3.1119843516761666e+01 -2.4156365595890730e+00 1.9870230841914003e-02  4.0581744198148122e+01 -4.7171194618399159e+00 4.7306991631007084e-01  3.9715445774126351e+01 1.2505294704411134e+00 1.5791155787313784e+00  3.4552612645798369e+01 -4.8467983056984831e-01 8.1606822520678213e-01  3.4395634702692476e+01 5.0036548590711032e+00 -9.2428275410034078e-01  2.1806763955649515e+01 2.3619182293802152e-01 -1.8805563047224900e+00  2.2479430510319713e+01 1.0946133349752078e+01 -5.9298670361687531e+00  1.6049792610621974e+01 5.3990320085635934e+00 2.8455972752611149e+00  1.6937466482480954e+01 6.8009974331793543e+00 -2.8474396022896529e+00  4.1406343563273662e+00 1.2618399797522965e+01 9.9401402440821194e+00  2.3511142314501114e+01 1.9021642323457417e+01 1.1598448344644675e+01  1.1971607315441350e+01 1.9687134207148187e+01 1.9725626310616967e+01  1.5964675543904216e+01 1.2633945462792671e+01 1.0506881149771688e+01  -3.3393896596144873e-01 2.7790749341331660e+00 1.5534765048028836e+00  1.8276074216092240e+00 3.0979367297007956e+00 1.3921052856959466e+00  3.9595560699495430e-01 2.1540308053960993e+00 1.5717802581538451e+00  2.4955557194094302e+00 4.0933965863147836e+00 2.4593800240173076e+00  1.1650498277596741e+01 1.2666503911382669e+01 1.4532967929572671e+01  1.4735542534326633e+01 1.1267335384442612e+01 5.9827511521568910e+00  2.9643895879712225e+01 1.2369407711366412e+01 -2.6129319899866010e-01  1.4658369835355062e+01 9.0943915435097384e+00 3.2361304289693482e+00  2.4803741370704881e+01 1.7488281791365054e+01 3.4464051095019568e+00  1.6366843140828188e+01 1.1174702317413074e+01 1.2095532042189486e+01  2.1697903941375056e+01 1.3804726778886277e+01 9.8209455328912458e+00  1.9388287092373861e+01 1.2473948824473675e+01 5.7201571218035916e+00  4.9924334542694247e+01 1.3723373439535260e+01 7.2400726810215774e+00  4.6123143401798103e+01 1.9988925046975215e+01 5.3936961542818169e+00  3.4817394860257956e+01 8.2368145465156601e+00 4.7926462497881026e+00  3.1202092436942266e+01 1.7221943231970091e+01 1.2141194707150923e+01  4.0011843744676192e+01 2.0636329101576841e+01 6.3579300772806215e+00  3.8743311493669815e+01 1.6360608890893790e+01 2.0239357733061372e+00  3.5353522040200964e+01 1.8966455197030015e+01 5.7376957588630386e+00  3.3284077222309136e+01 2.8738248184046316e+01 -1.4011135088296425e-01  2.5581214522175646e+01 2.7688780523860402e+01 2.0280715435423624e+00  2.3258361570970248e+01 3.3704831103343423e+01 2.9810486163390286e+00  3.0360177485559195e+01 2.6790272598041231e+01 6.6056332074932489e-01  2.1687921568551936e+01 -3.8951629610545291e-01 -8.3995001348525256e-01  1.1101195273415446e+01 -2.8434576110730188e+00 -4.8988948517971984e+00  1.0551021922214634e+01 2.9906519855628417e+00 5.5648634268512378e+00  3.5489921883504074e+01 3.3925223918558018e+01 5.7960256257192491e+00  1.3418132260533470e+01 2.7686923399760975e+01 1.7681016019156392e+01  1.0137662657787883e+01 2.8989844791509224e+01 1.0775139553881248e+01  2.4724330313893422e+01 1.7852726519690822e+01 7.9881344648803525e+00  2.9736347224898754e+01 5.8075525806268891e-01 -8.1001492592259694e-01  3.6643640415040814e+01 5.1892189829965141e-01 1.9488176760693494e+00  3.3444654906365017e+01 -9.8481211414400804e-01 -4.7104202941413194e+00  3.4858698165280025e+01 1.4174810733452015e+00 -6.8015025682667429e-02  2.8959485124881777e+01 -3.1007061175030209e-01 -2.7219041002975626e+00  2.6945253188953824e+01 -2.6532404760482420e+00 -4.6858701308345800e+00  3.4149295946061322e+01 -1.1150467363063759e+00 -3.6478712822893442e+00  3.2332083546043336e+01 7.8579721300669966e-02 -3.6354095734147623e-01  3.2235139618508370e+01 -1.4013275459594141e-01 2.4432733883453870e+00  3.4058656970217910e+01 2.6432605448100682e-01 5.4400511797036880e-02  3.8993048264979415e+00 8.5229218003040563e-01 4.0290651324600102e+00  4.0457388867130861e+00 1.9183883805879198e+00 2.1633934856596833e+00  3.7013076440636929e+00 1.9171156947817913e+00 8.9748303993150147e-01  4.1075239800931156e+00 2.9946660188617864e+00 3.2212695085931071e+00  1.4540649368279167e+01 1.0815729232660082e+01 2.2105802782214918e+00  1.5167419299405035e+01 1.2229853565167703e+01 4.7552410894588570e+00  1.1627635125739642e+01 8.8296992099565763e+00 3.8987337018601358e+00  2.4298122297754780e+01 1.8443266643389503e+01 2.9683078136974785e+01  1.2965216531675077e+01 4.5984338025777634e+00 2.3279465252905602e+01  7.9821907367170064e-01 1.8573957821833365e+00 1.8336431567935101e+01  2.2957030112389698e+00 7.8488540967784282e+00 2.6530513716665730e+01  1.6818956807131315e+01 2.2998858918472688e+01 4.9124252266539949e+00  1.1050163294185525e+01 9.9853816422202080e+00 6.2979050423572085e+00  1.0240054953100794e+01 1.3421085344791495e+01 1.5311673528496355e+01  1.4655497933345316e+01 1.1568466933053404e+01 8.3415252707892069e+00  6.3772332120215856e+00 1.7363423236069160e+01 7.0821054578959108e+00  2.4027206906428017e+01 1.9582850311514974e+01 1.2693436307651943e+01  3.8896909720016836e+01 -1.7247711890757615e+00 2.6031695439442131e+00  2.9988496071427889e+01 1.4174780773815449e+01 -4.9021830011670717e+00  2.8567079684247574e+01 4.4508358126174814e+00 -2.0530146148784674e+00  2.0945175839227737e+01 1.6136820448572720e+01 1.8726529392033971e+01  2.0199370645124748e+01 1.1794691685100107e+01 1.3939787986723982e+01  4.5106657913395694e+01 1.1255424051021168e+00 -3.3431139434682318e+00  4.4325715824092910e+01 8.4160712582255270e-01 -2.3417959435314408e+00  4.5736048314048325e+01 3.4163537638570807e-01 -3.4059622732748034e+00  4.1624514057360173e+01 4.3182930414718734e-01 -1.7241249440017208e+00  1.3492946706766217e+01 9.6920648414643669e+00 8.1452060990872486e+00  2.2125124040193040e+01 5.8940735650362344e+00 1.2148656327764366e+01  1.6050038294751793e+01 8.1400406093326545e+00 3.9280815215945970e+00  7.9924777002304266e+00 6.7341215639944236e+00 5.1653947495129238e+00  5.5794491409721747e+00 2.2331768154661846e+00 4.6859787206291763e+00  7.2446590302613130e+00 9.1789920596964514e+00 6.5056576638296919e+00  9.8779490549940903e+00 7.8257921338927101e+00 2.1719170549932126e-01  1.0743775513839442e+01 1.0142827294050074e+01 1.6631155695364863e+00  8.2424703726137807e+00 7.2357157169479605e+00 2.4490842672052175e+00  1.2986937010500949e+01 8.0086698841470785e+00 4.7984905981036119e-01  7.7597013091370473e+00 5.3420324753827568e+00 2.0744704011488087e+00  1.4133451492105131e+01 4.7290056245658336e+00 -1.5292309174787852e-01  6.3453935560141144e+00 3.9333250194844633e+00 7.0456827065306504e-01  3.3822187904158561e+01 -3.7891806729293092e+00 -2.0783839427688449e+00  5.7709505445291311e+00 6.4043148715672471e-01 1.2537684012308908e+01  4.6108193603610585e+00 4.2723219481318990e+00 6.8047566335737644e+00  2.8647925952683131e+01 1.0097597916938922e+01 5.1444435859806195e+00  2.2924043989323906e+01 1.0093388426487863e+01 -1.2008613889045592e+00  3.9444221600648270e+01 -1.4307598249522455e+01 1.0300116689343151e+00  5.2472414495324735e+01 -4.6086903443125911e+00 2.6969490899318416e+00  4.3041689882930022e+01 -1.5778165763385351e+01 1.3534212625904103e+00  4.1971419857342660e+01 -2.0533763907298566e+00 6.2737221380352470e-01  5.7751109091025228e+01 2.7270232647842843e+00 1.6001646223781767e+00  4.2168926513768099e+01 -1.1724902211440714e+01 1.9918058237135394e+00  8.7059682001058452e+00 8.2094862458225570e+00 7.0272945030818112e+00  3.9114272164716319e+01 1.1480705874540272e+01 6.2369538840507532e-01  2.2740797081067292e+01 -1.0330509481111729e+01 5.3486232615665115e+00  4.0017513038061885e+01 5.5399100040062943e-01 1.4751527074508979e+00  4.5348391126467092e+01 -1.8704888629999131e-01 -1.9231435072505381e+01  4.1308858766383494e+01 -3.1889752394397388e+00 1.6625391269998042e+00  6.0295502187524894e+00 5.1364537170979503e+00 -7.7706543821483842e-02  8.8585231951791918e+00 3.9135669685232881e+00 1.6439253358694668e+00  2.8418483994892071e+01 3.4901131112126960e-01 9.1816117056407478e+00  2.4967393019525765e+01 2.2779576511519892e-01 4.0751502709049863e+00  2.9731531082530854e+01 6.4663750458373581e+00 2.1604298697398945e+00  2.9037712039653218e+00 4.2773775547117800e+00 -1.0071851793053144e+00  4.3896900908347163e+01 6.8042375721274393e+00 -7.7137839913154316e-01  2.5105011976439407e+01 -2.8466304399137323e+00 -1.3633910550301254e+00  2.2169135694324122e+01 1.8617040810619148e+01 1.1087533251358689e+01  2.8336784874274223e+01 6.1918899568492556e+00 4.6792330166699578e+00  4.9110828565638130e+01 6.9317942833789399e+00 -1.5080348255427654e+00  5.1647972981569694e+01 1.7131618772248505e+01 -3.4791536646756476e+00  5.3809591001364957e+01 1.8047950267795020e+01 -3.4008138693991879e-01  4.3378769486145565e+01 6.8088412434832453e+00 -1.3302215889799940e-01  2.1544544555502853e+01 1.8080845920564059e+01 1.1998795227829396e+01  2.8199823927113741e+01 1.2914097846411780e+01 1.4247870455943209e+01  2.2403067417977830e+01 1.1848194490755995e+01 7.3376104550487780e+00  2.4846807913808618e+01 1.1683888827513762e+01 6.0719666441391409e+00  2.2595820891513704e+01 8.8798486785582966e+00 6.4571776449472962e+00  1.0681246518756632e+01 1.2313450421157881e+01 1.3794005647826753e+01  1.5608463808892285e+01 1.5014558363665092e+01 1.1213189214821890e+01  1.0484182583527334e+01 9.8254135174469308e+00 1.4123717066091569e+01  1.2915968411002814e+00 7.4296361855023071e-02 4.6611472674865784e+00  -1.2426791624094784e+00 9.8051472116292859e-01 3.0838564086522160e+00  8.6626683463818099e-01 2.5252114102209164e+00 3.8859539254983684e+00  4.8694243366085018e+01 -7.0729757300153029e+00 -1.7046874355302066e+01  5.3184414870244261e+01 -4.1324123563720665e+00 -1.8877761953705789e+01  4.7234231067235186e+01 7.5124830361121975e-01 -1.7185213153785142e+00  4.4835321351368599e+01 -5.7511731646569664e-01 -7.3305420094444891e+00  4.4167159325141533e+01 2.4498112264114564e+01 -2.1628134976065874e+00  1.3483869081592852e+01 1.0712161633165397e+01 1.4833474746453954e+01  1.4402904881808606e+01 9.7190298599258043e+00 1.5690569763390279e+01  4.2457001043712410e+01 -7.0105820479508951e+00 -1.6526607002438451e+00  4.8436179368884567e+01 -1.8328025971172812e+00 1.5445297676908982e+00  5.3583506057598287e+00 6.6161865780102920e+00 1.7576089877756875e+00  2.2039651926683273e+01 8.3247631171820284e+00 3.1676996166370202e+01  1.4116005646071303e+01 8.6624029976758248e+00 1.9292459764153904e+01  7.8899822012771494e+00 1.0897488535098994e+01 7.7249118772898786e+00  -1.4939140817046628e+00 6.8940541615048962e+00 1.0535668373001194e+01  2.2783162770864971e+00 5.2337534080417285e+00 1.5485189383483218e+00  -3.7793727500370622e+00 3.0560471644170861e+00 8.7837758248199087e+00  2.6613944555286963e+01 1.4220539492978637e+00 -6.5408846013179556e+00  2.1424122762874148e+01 4.8521051619480797e+00 -5.1340649502759801e+00  3.8626529025350671e+01 -2.2391060056549943e+00 -6.4364270785257176e+00  4.5127621967905576e+01 -2.4471654839839689e+00 1.3583112904755295e+00  2.3004759759558645e+01 1.3196800649762537e+01 2.0800271161209835e+01  4.9696250333120126e+01 -6.3420720927137646e+00 7.1372039868457806e+00  3.7996125528267676e+01 4.1402812782238172e+00 -1.1375532761051206e+01  2.6610029382534574e+01 -3.5986660200174496e+00 -8.2175646935254545e-02  3.2940024649407356e+01 -7.3761596271639185e+00 -4.4526916524713073e-01  3.3619567800670858e+01 -1.6564253131766124e-01 -1.4123660245050500e+00  3.1090632599272443e+01 2.2176613416277116e+00 2.9069142853188992e+00  3.5010210970655251e+01 -5.2924951408589616e-01 -1.4686493793401270e+00  2.1952089101524411e+01 1.0626062357962208e+01 2.0876588445455475e+01  1.4620504829511331e+01 1.8762862299367260e+01 -8.7894029441808053e-01  2.3832242296869779e+01 1.1037520579752075e+01 5.7860157000193679e-01  2.1877534908012432e+01 6.8709502481684934e+00 -3.4757350369570816e+00  2.4763791198325666e+01 9.9608951767535334e+00 5.2764736567054573e+00  3.7082756052848865e+01 5.7528742919427023e-01 -1.8983376190462065e+00  3.7286047091387168e+01 -1.6551892813204169e-01 3.2269741440583521e+00  3.9694468933352979e+01 9.5842871836005705e-01 -1.5351563927395040e+00  4.6618606010124765e+01 4.1912395865134204e+00 -1.0684333834370834e+00  1.7810470154219440e+00 1.1154400735015926e+01 1.0529651744239253e+01  1.2842515352420847e+01 7.8360412874903558e+00 1.7910377389250542e+01  9.1946237146364140e+00 5.4502533052436233e+00 1.5671609896161527e+01  3.4656657409771924e+01 2.5122520359723687e+01 -7.9733369510805752e-01  2.9997972726463700e+00 6.4995276138982856e+00 4.7349725886364489e+00  6.5750868375439442e+00 1.3283174376328542e+01 6.9992116843550658e+00  1.5846881526736190e+01 8.5505839979534066e+00 5.4765226482880029e+00  3.4533080559662295e+01 3.5065493015285405e+01 4.0200463174010270e+00  1.8470778027236893e+01 7.9465196933160875e+00 -1.2016167641142657e+01  2.9126627240301534e+01 1.0321733934311061e+01 1.4567971472143627e+01  4.3214494670990462e+01 2.2598092640187288e+00 3.1248947051975628e+00  6.7487808390115100e-01 1.1529388578998878e+00 3.3933305769146553e+00  1.0275165212786330e+00 1.8488981189653459e+00 8.2024879008545093e-01  4.5772286069875364e+01 3.7495091325089831e+00 -5.7976786930217532e+00  2.2280148599713076e+01 6.8144405763879323e+00 -4.4453896123519607e+00  1.0789725711568749e+01 1.0528504524235132e+01 5.7061430935509101e+00  2.1526571570585574e+01 -1.1005591851033130e+00 -1.4240146517126410e+01  1.1508908710885649e+01 1.3727548895272898e+01 -5.5588013866249124e+00  5.1220086616808107e+00 6.2945862399188703e+00 4.2027326742065894e+00  2.7338721569827600e+00 3.0330009013873247e+00 1.6702271240843361e-01  2.7232975745397083e+00 1.0099488096517868e+01 4.1824961246592602e+00  8.5958806193824788e+00 1.4091500120815475e+01 1.4347020865473514e+01  4.4645392937299704e+01 -4.9898897651646896e+00 -1.3419589237646854e+01  2.6417319675508249e+01 1.3114979966857819e+01 9.2551879575006044e+00  6.5286809544958558e+01 -3.2696250312813729e-01 1.1974078822321022e+01  1.3792231174157488e+01 1.3243360750200091e+01 4.8205621219638770e+00  1.3503343220727988e+01 1.3005894795703131e+01 2.5279954262946585e+00  2.5731870202521591e+01 7.5851009677662107e-01 -4.6703991109350051e-01  2.9283867130070860e+01 6.4878142904881875e+00 5.1305207035023113e+00  2.7686000951446310e+01 2.8969359999103852e+00 2.0174917828625425e+00  7.4363318277524879e+00 8.4752738598509296e+00 -5.1963273091462168e-02  4.9230511186093278e+00 5.0008588046113216e+00 8.2942924610065350e-03  7.7707064070143694e+00 6.0873239024481602e+00 -1.9837172191530728e-01  -2.8760507565946014e-01 2.1743297975414433e+00 1.1506802347063638e+00  2.4029485341087685e+01 1.1895449829977696e+00 4.7106230430047752e-01  9.0987140768169095e+00 6.3366758253985154e+00 1.0886530753938596e+01  1.1135013753413688e+01 1.1110701660626912e+01 2.7352677998203916e+01  3.1944499652514569e+01 -1.3838304227323071e+01 -3.2725065588306976e+00  3.0901094983805571e+01 2.6289289103201257e+00 1.9738691166429078e+01  1.2932248890427468e+01 4.1738137367534582e+00 -1.0318803245905381e+00  8.5023370283283839e+00 5.8776100400194435e+00 5.1495970373041633e-01  1.9347167202619030e+01 1.3227200834171535e+01 1.6975664263232271e+00  3.5130675151639920e+01 -5.6262111011359011e+00 -6.8092521223928024e+00  2.2874515732616953e+01 2.8349132590432018e+00 -6.1005819070555356e+00  2.9030788107574885e+01 2.6066940410201802e+00 2.0179035237732229e+01  1.1849257615640859e+01 1.1252071304499164e+01 9.0910231713015914e+00  3.8989542784762790e+01 7.2385437377958306e+00 2.4988829764198992e+00  2.8371403613910530e+01 3.7750723638297439e+00 3.4123394234837376e+00  3.0204339769634100e+01 -5.8936897922260245e+00 -3.7515318328484062e+00  2.7167970409331211e+01 -7.4783455243524548e+00 1.1841887812980116e+00  1.2879486941379261e+01 3.3376838907891258e+00 1.1193006554858798e+01  2.2559996603888848e+01 3.0007096708916476e+00 -6.0910432757597066e+00  1.4233564518225219e+01 1.4566911903953242e+01 5.5239041772202917e+00  5.9378627897724009e+01 2.5774342897613129e+00 1.6239120535038944e+00  3.8906097331997870e+01 -9.1764561874303630e-01 1.1150093510503822e+01  4.1160671322826069e+01 4.5758116386779930e+00 1.9886491658324218e+01  1.7876554414910251e+00 1.2550209103721279e+00 9.2592064560139209e-01  1.3119705460486793e+01 7.0509629310237383e+00 2.5928316150995028e+00  1.2700686849911731e+01 6.2969735540688703e+00 2.0056669120834904e+01  1.5584709086921242e+01 8.1219978528289598e+00 1.4238556070584480e+00  2.4265306085811250e+01 -7.9426840821740354e+00 8.0687789491454396e+00  9.2627417217258916e+00 1.4020440111963381e+01 1.5258325329241623e+01  3.7533885717438782e+00 9.5467716012752390e+00 5.7192024736901361e+00  1.7234183439870897e+01 1.2820891065728814e+01 1.7874211584182558e+00  3.0334642150878825e+01 -1.7895969995909851e+01 -2.1087316088410146e+00  8.9038156260392842e+00 1.1005162483267984e+01 1.0910579910321188e+00  1.8728763042618020e+01 -2.9589738316360994e+00 -1.2140506122548867e+01  6.6500516103338512e+01 4.2597918527586598e-01 4.9481373023636380e-02  3.0626054018925338e+01 -2.4755587726063464e+00 -2.4077048715257487e+00  2.7429796539604152e+00 3.1365034496797000e+00 -9.0257911132149954e-02  1.5606539901492397e+01 1.2704735627255758e+01 4.9099591725578442e+00  3.6374629134011350e+01 7.0318971605841485e+00 1.0612718977919096e+01  2.3768144029889523e+01 1.6224638591668629e+01 9.2676780983579370e+00  3.6958793434741999e+01 2.0981400122501853e+01 3.6804451515077816e+00  2.3277419602321380e+01 2.2224882498399872e+01 2.5486842307551093e+01  2.8170417631251636e+00 1.3842447018666526e+01 1.1499008581171692e+01  4.6353732051737389e+00 4.7689895637911532e-02 1.2733852361829636e+00  3.6919868323331762e+01 6.1716040223387241e+00 -1.7305588585857187e+01  2.8677364814618869e+01 2.8654350674041641e+01 -1.3010554342799734e+00  1.7909905761553574e+01 1.7113451549963770e+01 8.3414188605312560e+00  8.8773710900863012e+00 1.0808323045375790e+01 3.6995383461652720e-01  1.2573449439901253e+01 9.2840569554027663e+00 -3.6957436916187902e-01  1.2359112413059361e+01 1.4239331316486505e+01 -1.3455990363620229e+00  1.4354354871868063e+01 1.3673496658232228e+01 1.4709398207167557e-01  2.1875210106233531e+01 7.2777826312953575e+00 -9.2374882377197860e+00  1.9557316407831024e+01 9.6400931811581643e+00 -8.0972330342987302e+00  2.4340045679434045e+01 1.5278183688026692e+01 3.9179080973809475e+00  1.6744127593934941e+