<?xml version="1.0"?>
<VTKFile type="UnstructuredGrid"  version="0.1"  >
<UnstructuredGrid>
<Piece  NumberOfPoints="3943" NumberOfCells="15695">
<Points>
<DataArray  type="Float64"  NumberOfComponents="3"  format="ascii">29.62165069580078 26.01417922973633 4.585062980651855  30.11992073059082 25.37562942504883 4.829001903533936  30.24413803168024 25.30507333306334 3.648540197840473  30.85519470560805 26.04913078732638 4.499513303350759  30.05559035136928 27.80914084626412 2.187864788302195  29.62575647982764 26.9712560018843 1.21902838320161  30.93717267863429 27.00158952744416 1.124747923881928  30.3653359943599 27.86543773663012 0.898220637715714  29.46466064453125 25.48755073547363 4.079052925109863  29.86743358294969 26.65618849481719 4.365935134365714  30.18416976928711 27.98753929138184 0.1048400029540062  29.62887001037598 27.27545928955078 0.1048400029540062  30.44214057922363 26.9444694519043 0.1048400029540062  29.39249992370605 28.09894943237305 1.417353987693787  31.16705785117664 27.58111774845829 2.119045687222297  29.77919910547895 26.55320436736205 2.468923497905982  30.92189979553223 27.63274955749512 0.1048400029540062  31.46932983398438 26.89102935791016 0.1048400029540062  31.48049776244686 28.32716657852058 1.080493160420436  28.94075965881348 27.52058982849121 1.926972031593323  29.15029907226562 26.36230087280273 3.912610054016113  28.83424949645996 26.33221054077148 2.870907068252563  28.99912071228027 25.4984302520752 3.420133113861084  28.9807300567627 27.11697006225586 2.592587947845459  28.50542068481445 26.64035987854004 2.068619966506958  30.73566815156903 26.61982288788991 3.285330900191917  29.26688957214355 27.77231025695801 0.7421830296516418  31.77516937255859 27.91752052307129 0.1048400029540062  32.36974965365093 27.81126960748678 1.173994123735703  28.80257034301758 27.60294914245605 1.154826045036316  28.08746910095215 27.10190010070801 1.418877959251404  38.88113021850586 35.38135147094727 22.06880950927734  39.36452865600586 35.34934997558594 22.81365013122559  39.09764862060547 34.62228012084961 21.91295051574707  38.67735483063471 34.84482884312251 22.71195725727152  22.89839900742558 37.48639348696763 17.88178627657244  24.22996891874948 36.64350979726669 18.24660652791524  22.60429124671926 36.57286876850406 18.63107125019338  22.84549597719834 37.49523845956726 19.12194224078793  29.14584922790527 26.64089965820312 11.44569969177246  29.10530090332031 26.69252967834473 10.41199970245361  29.53557014465332 26.04458045959473 10.66683006286621  30.14404286704422 26.40705006988062 10.61976678078266  33.79529719572293 37.82231186645824 3.864786625055443  34.3938394599971 37.89076861304078 5.208061247066808  33.43042305305257 37.38396579764058 4.957627561281092  34.49010617097758 36.44004186963532 4.309859156442432  29.25046920776367 27.57793998718262 11.8153600692749  29.54140090942383 28.39926910400391 11.78724002838135  30.05015506795884 27.18874930182324 11.59442604878012  29.85032277021046 28.41360759720264 11.2002346948937  35.86180025132963 37.88812912451007 2.273364802673123  36.42772639077702 37.08406681891518 0.8516958971841004  37.35396142039775 37.35692138694101 2.003295804251904  36.52120949076065 36.33433422070804 1.813102516681819  38.21146011352539 32.85988998413086 25.64524078369141  38.82424926757812 33.43202972412109 26.1857795715332  38.71823120117188 32.41458129882812 26.10317039489746  39.17133172838988 32.78832399775062 25.43783904190442  36.14698028564453 28.93998908996582 5.843766212463379  36.66511154174805 28.38151931762695 6.234254837036133  35.62075158271717 28.40809927005136 6.862359012907198  36.54984335346739 29.35114850414535 6.261022895437693  38.33961868286133 24.82773017883301 16.90376091003418  38.75830111425823 25.98844051603398 16.73495065013664  37.56963216891526 25.26050076762672 17.24539449246948  37.83297289332918 25.79666962164141 15.81306464795704  35.7277090350715 36.31279524351066 1.111273694537301  35.52630637991624 35.89965167555094 2.703604196956297  34.99109376442938 37.03800329070917 2.240002234695941  23.09486961364746 38.55545043945312 20.7221794128418  23.25704234100377 38.75884585505028 19.59357432602252  23.68886269564554 39.13055021075643 20.32158779163047  24.05602943935808 38.08805137646113 20.48543172022932  33.93841171264648 32.00180816650391 21.44054985046387  34.75746917724609 31.61702919006348 22.11128997802734  35.47894685449135 32.10670778478683 21.756655851277  35.18177144517734 31.79288665963643 20.6040800628816  28.50652351175283 37.65572960275285 11.98121921110994  29.24949729823076 37.5268329002845 12.59662244190681  29.15883763876019 36.82351456360787 11.4817373084156  29.4960525091582 36.43457063230868 12.3133364907325  34.64684158355733 32.83765111232317 21.02283286270424  36.0003199300168 32.92634994865154 20.39557836513376  29.13170051574707 30.01021003723145 3.273844003677368  29.35268974304199 30.17313003540039 2.697108030319214  30.23012521553307 29.65225153619151 3.683384647441272  29.89034002419086 29.04050950433894 2.709607936177886  29.03285026550293 32.83634948730469 19.52033996582031  29.55270004272461 32.48451995849609 19.15031051635742  29.87287617709913 33.1472599022133 19.36939172423442  29.76208782306665 32.7447324351544 19.89186529741637  32.57519804994809 22.41262138236794 12.92795035234282  33.9778879536516 22.19010722855084 13.78993211627575  33.2496521028332 23.6003932529205 13.06044505852347  32.45934917860564 23.02160595025841 14.25888746901208  33.32765960693359 34.00210952758789 10.79689979553223  34.12258148193359 33.87284088134766 10.7506799697876  33.28377148491857 33.43938346478531 9.882563509438228  33.59961964555663 33.03787459074424 11.14031153581807  25.21623039245605 39.89572906494141 19.90225982666016  25.88199996948242 39.89572906494141 20.73867034912109  26.28609085083008 39.89572906494141 19.78190994262695  25.46447325090089 39.29783858040163 20.16510570299291  39.38468933105469 30.1632194519043 8.565606117248535  39.89416122436523 29.24519920349121 7.875491142272949  39.05503174147105 29.80409804850154 7.551352430439628  39.0541216259247 29.39661548193948 8.645447021181161  34.60824607335081 34.94585524769541 21.92918466615566  35.04243476049936 35.42514119361567 20.62568496688014  34.1309435101215 35.85980482829576 21.60444164599777  33.95718548069826 35.38618069139923 20.69218804136077  32.20735168457031 34.93273162841797 21.06422996520996  32.81402969360352 35.37643051147461 21.35054969787598  32.98840317751588 34.85007037812836 20.52385031392245  32.61108761838319 35.86309378565823 20.7690255873091  25.64642906188965 39.89572906494141 11.9540901184082  26.65558052062988 39.89572906494141 11.98528957366943  25.78174018859863 39.89572906494141 11.21426963806152  26.55133206509927 39.12735167974602 11.09532000524577  37.24288940429688 29.48521041870117 19.38298988342285  37.22970864326154 29.49621159776513 20.60219150547834  37.49859339661114 28.65216186187621 20.02035958154338  36.16608659825462 29.24703045586205 19.82420522577056  28.97493934631348 34.55469131469727 18.06711006164551  28.82040023803711 34.72962188720703 17.28010940551758  29.52529907226562 34.12055969238281 17.33939933776855  29.35595347480549 35.35038877666089 17.16339016506559  28.78562927246094 28.34869956970215 8.253138542175293  29.52717971801758 28.95883941650391 8.219976425170898  29.3415699005127 27.84584045410156 8.085629463195801  29.23469614632614 28.09076668246142 9.169136169381279  21.85374069213867 35.32550048828125 20.48447036743164  21.83684921264648 36.16336059570312 19.61306953430176  22.49912071228027 36.21389007568359 20.36309051513672  22.61484370257775 34.69663120576917 19.95070154050249  31.1173020665194 37.84003842865694 16.67542652089429  31.66850787897059 36.78357161799112 17.08939240529346  30.6541929185801 36.53224100521557 17.66627905595773  29.79634001856575 37.07106102631366 16.75463919629162  33.13928985595703 24.84407043457031 16.46417999267578  32.98077011108398 25.12030982971191 15.69392967224121  34.19137857714567 24.71735611412296 15.99972515970918  33.50779603225673 25.50747291377759 16.51589148710444  28.688997423267 35.90878544598903 11.41521891199799  27.6030597598 35.30701359221214 12.28771857056903  28.68809766520732 35.29522822330095 12.6673470468989  28.0675155688949 36.34722888807867 12.43983764630027  35.31187057495117 34.3949089050293 9.406467437744141  35.35221862792969 34.7327995300293 8.838068008422852  35.94939041137695 34.11272811889648 9.009658813476562  35.15229585024819 34.02717120372791 8.735902892175707  36.06398010253906 32.02177047729492 17.47834014892578  34.45696378003381 32.53238794502201 17.52576697491986  35.01250667243134 31.44896082418335 16.66842441567126  35.67339637969599 32.40754441159594 16.41209239208401  31.93198013305664 38.58829116821289 14.53246021270752  31.03525929052168 38.72587248090324 14.83825113960635  31.42866324213969 38.2269134048647 15.58959639299345  31.1075762186903 37.86526429880002 14.76531294119328  33.36613082885742 27.0256404876709 20.88698959350586  33.50728988647461 26.08851051330566 21.04730033874512  33.66421791898935 26.9406431462748 19.91699602149553  33.94286060797922 27.164716187112 20.61371584810178  35.66598892211914 22.42164993286133 14.59554958343506  36.07872009277344 23.22382926940918 14.64480972290039  34.9365125521049 23.60385985915342 13.94603525771374  35.34385246613062 22.31081318828308 13.81596590456174  35.717529296875 23.97388076782227 22.82835960388184  36.51434481105358 24.8098685513206 23.30608834150206  36.64278086346354 24.00557807009392 23.08998293587039  36.21027309897075 24.14005079289674 22.19328385914217  27.66959953308105 34.25511169433594 13.50712966918945  27.53927040100098 33.41421127319336 13.19064044952393  28.28171920776367 33.83689117431641 13.08613014221191  27.56745454583156 34.08933057146857 12.36796245555995  28.58072090148926 39.08330917358398 22.7846794128418  28.79528999328613 38.34627914428711 22.73069953918457  29.15099906921387 38.95196914672852 
[...]
<PointData  Vectors="u"> 
<DataArray  type="Float64"  Name="u"  NumberOfComponents="3" format="ascii">5.0706362230363817e+00 7.8672643787112682e+00 1.3734153400016066e+01  9.3177865463311420e+00 5.5119882549136037e+00 1.1956398846562561e+01  1.5270961667808820e+01 6.5514577237130611e+00 1.3617318359316467e+01  9.3917609464681302e+00 3.5323704523383865e+00 9.6097667607207384e+00  9.5176929024662655e+00 1.3023379334830944e+01 8.8864845772425110e+00  2.5753352663669457e+01 1.4308810985151201e+01 8.2974228067417624e+00  1.3614419011013682e+01 8.2983712366208771e+00 3.9026401259671091e+00  1.3057977143467816e+01 1.3133631965548922e+01 4.1047413899825678e+00  1.0533276769792462e+01 1.1319598706249296e+01 1.7367319999202614e+01  5.1544743894707352e+00 6.4816331840175510e+00 1.0910269596387893e+01  1.2171410911496135e+01 1.2379526398786750e+01 6.9829982727234685e-01  2.3719197120534989e+01 1.9023609266939587e+01 -1.8550161079085616e+00  1.8346550639913065e+01 1.0477489392863596e+01 -3.2267702822094096e-01  1.5789206162094153e+01 2.2989366898892403e+01 1.2430849392955601e+01  8.4863185240460020e+00 7.6744476148289138e+00 5.9527329187553049e+00  1.6810937930767341e+01 1.2356912645296617e+01 1.4179158378252374e+01  1.1879486495573710e+01 9.8458668630159494e+00 9.9477112808078305e-02  1.1360820735933403e+01 6.1297374381720378e+00 1.2156372482513425e-01  5.9831499863699342e+00 8.7265395040087324e+00 2.6555870430208302e+00  2.1541668912977297e+01 2.7013774347252387e+01 2.4971172328821570e+01  4.5262810542675664e+00 1.2779561057535627e+01 1.8131781691340070e+01  2.1793783975208829e+01 2.2373881684664866e+01 2.9918291521000619e+01  1.9036010011454611e+01 1.6631220447449010e+01 2.4912084075710968e+01  9.6973137496467920e+00 2.2270686518523192e+01 2.4102677276786576e+01  4.5087148041176562e+01 1.8634607453957855e+01 2.7625526534352993e+01  1.0255067236296007e+01 6.3863769483985529e+00 9.7814244183310812e+00  2.7803054815430720e+01 2.2731117833570501e+01 2.1033714238685879e+00  6.1324998933544466e+00 7.4217806679552840e+00 -8.3545063018375623e-02  3.3437077206891606e+00 5.2622553238543182e+00 2.7241346957009389e+00  4.2844281129981340e+01 2.6277081445612133e+01 1.4846953646930757e+01  7.7347012446939630e+01 4.4263613513606028e+00 1.4165816333509438e+01  9.3352781668276759e+00 -2.0302915675648503e+00 1.0146605945801758e+01  7.7276962353145064e+00 -5.3179739966758985e+00 1.4592237937773440e+01  1.0637751300411823e+01 -3.7002312943343449e+00 1.1732281158508064e+01  1.1480722736063019e+01 -3.1246542494647600e+00 9.5954940344142177e+00  5.7657502251177322e+00 7.8573749543321973e+00 1.9154084852281222e-01  1.0318236145758164e+01 8.4805479189889788e+00 -3.8633260929208496e-01  6.6600076791741820e+00 1.1274921439214282e+01 4.0363493444024173e-01  4.3350658531961432e+00 7.9025787184940119e+00 5.6521452024222318e-01  6.3169539123024663e+00 -1.4748392931964435e+01 1.0021507723820076e+01  1.8449404352044610e+01 -2.4202702437138395e+01 8.5135536505965312e+00  9.5645439452921597e+00 -1.4988304460193035e+01 3.8283141271445773e+00  1.3476505503677679e+01 -1.2488020468165569e+01 3.5419701842638007e+00  8.7635163599338348e+00 1.0733099394446901e+00 -3.9107400752019679e+00  1.1684117305540644e+01 2.2507973000112642e+00 -3.9929825212093730e+00  9.8618503375740172e+00 8.7882441946089995e-01 -5.9985829857115069e+00  8.6798740971761301e+00 1.7844732068556506e+00 -3.7750779671598464e+00  1.1364313682503246e+01 -1.5958822313886406e+01 1.8888172802411766e+01  1.8357044620591566e+01 -1.1703671402781326e+01 1.8912325711137363e+01  1.3966742596828032e+01 -9.7777090484784583e+00 7.8549345492179334e+00  2.4781025885916598e+01 -1.3715925395441463e+01 1.3479406449847172e+01  1.1274031306574653e+01 1.4020001888735671e+00 -2.2511093313632505e-01  1.0008905343877602e+01 2.8249238948796460e+00 2.4556702265360015e+00  1.7035813300311712e+01 7.9798727571969275e-01 2.1453912366297514e+00  1.2525032121250021e+01 5.4414167818851560e+00 1.2890171205898606e+00  6.7831776357007598e+00 -2.6817896508656887e+00 5.8653382042493103e+00  3.9054558830112205e+00 -2.2555700369344889e+00 1.2504054818194932e+00  2.8461456361270261e+00 -1.5127961873860505e+00 3.4272706111386242e+00  7.6804732031605480e+00 -1.0156452323866301e+00 1.4885647554491368e+00  1.8122909214501558e+01 -2.6848143179063755e-01 5.9274150759231254e+00  2.0973733536050332e+01 -8.5866170056610014e-01 4.5972867330772598e+00  1.5994792380031871e+01 -1.6150088850963089e+00 3.7152106608857562e+00  1.8678247744394262e+01 -1.8587309490026600e+00 3.3643928701873773e+00  1.2260192046843382e+01 3.5201107851350555e+00 2.4764668453617928e+00  1.7157461763376027e+01 3.7010491059259594e+00 2.4978069439496404e+00  1.1176921173741317e+01 1.9310848021501266e+00 4.3950504949953322e+00  1.4632541940666107e+01 1.9906367344268330e+00 3.8830792158986873e+00  8.7543398759789977e+00 4.0043889700881197e+00 5.5063461954975124e-01  8.7483195783455656e+00 4.1812013206799614e+00 -1.0762378422020340e+00  8.7444311740189757e+00 2.2324355777238241e+00 -9.9130955991879810e-01  2.0036696524636732e-01 2.4748198092787037e+00 5.0364777376473557e-01  3.2422291819544178e+00 3.0683229100658553e+00 -3.6973490452722990e-01  2.6041613694616155e+00 1.7125894875527048e+00 -1.8489302115411350e+00  4.5382674026340215e+00 3.1692393231269560e+00 -2.3404445666423661e+00  2.1069016712235271e+01 -5.9695172302529107e+00 1.4754953689142871e+01  1.5165383951950197e+01 -3.8336104907999977e+00 1.1912374185601038e+01  1.5118207093697007e+01 -3.8623967660919440e+00 1.0866718879675785e+01  1.7018713575080174e+01 -5.7172082510352329e+00 9.8212868306142820e+00  1.0792885104956694e+01 -3.3053090546569566e+00 -7.8071540616425728e-01  9.7440109607076675e+00 -5.3624413936160948e+00 2.0721753215390337e+00  9.8570155411794360e+00 -5.6549828094776293e+00 -2.1089684117120209e+00  1.2088926440644725e+01 -7.3415864250340643e+00 1.8116952300963469e+00  1.8690606780472891e+01 -4.1124055339936652e+00 1.2483919063827710e+01  1.7051086235659326e+01 -3.2124409033129875e+00 1.0700100131459662e+01  1.2587001382401670e+00 3.8148383730905668e+00 1.6471838533334999e+00  2.0842932887651000e+00 3.9980845463448866e+00 1.2545992248003723e+00  3.8918572152274669e+00 5.0959710607125581e+00 2.6458179246075684e+00  2.8336239610684602e+00 8.9848079711966840e+00 4.2847422031998565e+00  1.8199138936971270e+01 -9.7495729744054458e+00 -1.4028174569186453e+01  1.6461816738178879e+01 -9.0715929278069769e+00 -1.1168448824975599e+01  1.7851849188783952e+01 -1.0071538779361218e+01 -8.5776766294493161e+00  1.9873635965563416e+01 -8.8802242205584498e+00 -9.7263611650293349e+00  6.6395323125217214e+00 -5.2139816121277658e+00 9.0609333426376126e-01  4.2401234526298195e+00 -1.3788743088759061e+00 4.6298861286826776e-01  8.2835217514958348e+00 -3.5673702200472568e+00 2.2125115070413681e+00  6.7776104120494960e+00 -3.2583368032502635e+00 4.4395992269151998e+00  1.6748894328916784e+01 1.0452453092167688e+00 -9.8773319345652357e+00  1.0383707049058343e+01 -2.5009708186030316e-01 -9.2041823282796713e+00  1.5222331595615959e+01 -1.4959957364333261e+00 -7.5203122493165990e+00  1.2914874141483997e+01 -5.5493711367703922e+00 -5.0204641574578579e+00  8.0286129495625556e+00 -7.7058787757558436e-02 -3.6831911659005572e+00  9.4037831349170915e+00 1.5700848778471273e-02 -5.7978213362320652e+00  1.0466508561959667e+01 2.2608471886579194e-02 -4.1646840728304682e+00  8.7738913807957317e+00 4.9856921676943522e-01 -4.2373286959031118e+00  4.6371911613771921e+00 -1.3620651569018897e+01 -1.0986225780397920e+01  3.2108661128419833e+01 -6.3836170138957344e+00 -5.4460536215667723e+00  2.5686135007030551e+01 -3.9200123258088548e+00 -7.1788733115967551e-01  2.0106284042408330e+01 -8.8829547056356226e+00 1.0457904444881891e+00  1.6086402026214405e+01 -6.6168437400604782e-02 1.5298396430061121e+01  2.0015312305574717e+01 1.4516247711534400e+00 1.2417737154830437e+01  1.8529537527272929e+01 1.1649049283849038e+00 1.6671518280587296e+01  2.3041714433362753e+01 5.3796439260338769e-01 1.5317735111340102e+01  4.4519050393488662e+01 -3.6926225443376903e-01 3.8014893823611766e+00  3.4801706752413878e+01 3.0402847264993289e+00 2.5740557859139049e+01  2.8845807302313798e+01 -1.5145729124246310e+00 1.3107047674063223e+01  3.4628874599941987e+01 2.2644916695647015e+00 1.6136470034252781e+01  1.1822774052489347e+01 -1.3407731452340303e-02 2.8011847057472141e+00  1.2320476889618041e+01 1.7624780237980761e-01 5.4187900903361330e-01  1.4457532679420225e+01 8.6252135556597026e-02 1.9068146977911375e+00  1.4894727254228911e+01 2.6881619204056389e-01 -7.0325771933229198e-01  1.4758254338867593e+01 -9.9479025983506340e+00 9.2431800032488542e+00  1.3790464668745258e+01 -5.4966214756984719e+00 6.5705787691302620e+00  1.3400224534126551e+01 -5.1036063991834277e+00 5.4779091963062116e+00  1.2500195914585758e+01 -7.8931372066870837e+00 6.6536767673012003e+00  1.4218443245877570e+01 -1.3877605901533240e+01 -1.5961413038456522e+00  1.3532478914537357e+01 -1.2742959299536587e+01 5.5227569659202302e-01  1.4739553734379500e+01 -1.3384351332715173e+01 2.0298947676341941e+00  1.5211813102142543e+01 -1.1547654159520711e+01 8.7879413162458886e-01  7.9226624116853955e+01 -3.4822166510366998e+01 -3.8937092180814292e+00  5.2477001669045364e+01 -5.8974856246204368e+00 -3.4325239018822245e+01  3.3855787440724995e+01 -1.6513883154202876e+01 -2.2912163645530164e+01  4.1627785439214797e+01 -2.0515854264070732e+01 -4.7866399728551183e+00  1.4644283701274599e+01 1.1406423087520679e+01 -2.3030407479482440e-01  9.9248257962205315e+00 1.4962588622265873e+01 1.9139863940546509e-01  9.0663203389630471e+00 1.2232201369617226e+01 1.1257697799298472e+00  1.1118585443542502e+01 1.1159096242205727e+01 2.2444313166508754e+00  9.6718566197619094e+00 -1.0949721814820757e+01 1.7827546758925699e+00  1.3358384969926080e+01 -1.3306304938194993e+01 3.9302641660607791e+00  1.5422412775703263e+01 -1.1276741890302187e+01 2.0077409650651643e+00  1.3425180470007911e+01 -8.7582876958551807e+00 1.2186723959771091e+00  1.3286789468122273e+00 1.0841880776595128e+00 6.6078893000237402e+00  1.5107958646044217e+00 8.1793876620196793e-01 8.1511039645122043e+00  4.3971331061960370e+00 6.8516723955663306e-01 5.6662353236303797e+00  2.0062435718667135e+00 -9.4224293518625990e-01 6.0369296199173483e+00  1.6736755139231203e+01 -3.4323651088510476e+00 -2.0602688111756140e+00  2.0015210722744836e+01 1.5346457475085593e+00 3.3026016180229950e-01  1.9826208539523595e+01 -3.9644584560967777e+00 1.9740966187417164e+00  1.6177135190014472e+01 -1.7263490624905702e+00 3.3673815405617474e-01  8.9695178284399137e+00 -1.5670455316337821e+00 -5.9320388898061056e+00  8.1378567743185375e+00 -2.6499709653011201e+00 -5.6562979602629539e+00  1.0451553716331974e+01 -5.0121704850031072e+00 -7.9845032143873356e+00  1.0585192844576268e+01 -2.7627568110851697e+00 -6.4037331570037948e+00  4.9823561341764595e+00 -1.4318180119486881e+01 7.6269142222542543e+00  1.1267873434563842e+01 -1.1626124109523554e+01 5.8430894095326824e+00  9.2180500089678521e+00 -1.2528980152714405e+01 4.0905974771676927e+00  6.0689632418771442e+00 -1.2456665297732474e+01 3.3739683867820425e+00  3.1247150841934106e+00 -8.1856516814302029e+00 3.2001238540171673e+00  6.8163619427888920e+00 -5.9997268207354510e+00 2.4560432401840457e+00  7.0379587953127718e+00 -9.8055104702752640e+00 2.1458908346261416e+00  8.6217401803024778e+00 -9.2741137551811441e+00 3.1943318358816031e+00  3.8368808207400602e+00 -1.0905831394171246e+01 4.9876659942459360e+00  4.1004062553443985e+00 -5.3262829293091203e+00 4.6744109260527287e+00  4.3918701011202605e+00 -9.1880510700828424e+00 3.8557030471422755e+00  6.4965136734345919e+00 -9.7761795718251623e+00 5.0510465072949966e+00  1.4231611578534884e+00 2.0250074357870798e+00 -2.5305656242098973e-01  1.3944043906646670e+00 3.3615311802541661e+00 1.5701578966418948e+00  4.8045129338770298e+00 4.2200078950543451e-02 1.7790583188038083e+00  2.8964009010144611e+00 1.2673600495943971e-01 -7.6302937365790402e-01  3.3663883914530572e+00 -4.0473431640213251e+00 6.4207711021836023e+00  3.9687484016901391e+00 -2.3784775336695754e+00 5.2545210200175756e+00  3.6537595259209987e+00 -2.5548791703329363e+00 4.5466543184805222e+00  5.0174849747382799e+00 -3.4774312677474795e+00 5.9724312461611966e+00  2.6086772187297790e+01 1.1220255617201959e+01 -5.2359119619579113e+00  2.6111663504689741e+01 1.1378673164191362e+01 -1.0506144316881523e+01  3.7690844845419711e+01 1.3121486786562262e+00 2.2403403410824141e+00  2.4667310990204850e+01 4.4661595091480022e+00 -1.4745968655291424e+00  1.0451052689088586e+01 -1.3548908481855011e+00 -5.6947157999325864e+00  9.9997943327747549e+00 -3.3647464511037817e+00 -6.4391282408060846e+00  7.9970925949892724e+00 -2.6337640240050657e+00 -7.3975420080924117e+00  1.0926528220872955e+01 -3.1111719447723281e+00 -7.1147703380958021e+00  1.6750955334392017e+01 -1.0191507085981364e+01 4.2874710539743512e+00  1.4217497827529668e+01 -1.3244416771254192e+01 6.2507217017669181e-01  1.3989524811925657e+01 -1.2824544016314437e+01 1.5813430785185656e+00  1.7163121566847604e+01 1.2655713254578481e+01 -2.6366670393663638e-01  1.1347660517140234e+01 9.3270962487843967e+00 1.0436974856881081e+00  1.2710887607968910e+01 3.9517985488161109e+00 -2.0695176965133295e+00  -1.0228516553596532e+00 -1.3630641585574987e+00 7.3011948436575613e+00  -1.9614821810434291e-01 -3.4778863514049468e-01 6.0831779732378433e+00  -3.5406537539798705e-01 -1.6396405926018889e+00 5.4597058340392213e+00  1.2446701371263250e+01 -4.0286646701545061e+00 5.5848712118112918e+00  1.0081119704320574e+01 -1.5843145183781253e+00 2.6575590538851626e+00  1.0040438267448833e+01 -3.5760618359793375e+00 5.2216222810238744e+00  1.3763507777222522e+01 -2.8921855752588090e+00 3.9969539603020046e+00  4.4960883046405744e+00 1.5376440776971672e+00 4.4131709329127622e+00  6.4696746372878478e+00 1.2262800177206263e+00 4.8311943709393068e+00  5.0100563549487882e+00 3.1166268924366469e+00 4.8442278965534076e+00  1.5335290478384664e+01 -3.2040495215673150e+00 -1.4419105802261134e+00  1.5166660915777507e+01 -4.8449685673260818e+00 -5.9470296221563697e+00  1.1779917428968936e+01 -2.4696018573226728e+00 -2.3344324625055619e+00  1.4933827498763311e+01 -4.3121811869502658e+00 -2.0450867540556446e+00  7.2141445265678348e+00 2.0533880443556187e+00 7.0076750161597925e+00  7.6555068899895664e+00 1.1455140838446695e-02 8.5251329054984666e+00  9.8243913253846262e+00 1.7484384001180911e-01 8.7445612140721742e+00  8.7009148258265139e+00 -9.7639553146875968e-01 9.0071776488589794e+00  3.6837927874986494e+00 5.3275468815637979e+00 5.1883689805207309e+00  1.3776276406346106e+00 3.9951200004852185e+00 2.4720607605996330e+00  5.0299871027389216e+00 2.8695515275772228e+00 4.1121550993687741e+00  1.9546348313934832e+01 -2.9686792518158005e+00 -1.8734076599612170e+01  2.0088333366797936e+01 -1.3017240835072150e+00 -1.8104389486281175e+01  1.7395169700580539e+01 -6.3180720863488615e-01 -1.6715428677815456e+01  1.8521660479904313e+01 4.1275470945607934e-01 -1.9234782636642834e+01  3.9044432890826755e+01 2.1303828566798881e+01 3.0880850602846980e+01  3.4047696934498042e+01 8.7747295052549266e+00 3.1550739267374865e+01  2.0235371604904334e+01 4.4616687859937008e+00 2.1476889684942300e+01  1.6068629714942738e+01 2.8076462004244833e+00 2.6211406511350948e+01  1.5457664975011486e+01 -1.2650782302395777e+01 3.1052647581508297e+00  1.7250263098052777e+01 -1.0222478193551982e+01 6.3717418747991461e+00  1.4769899307671846e+01 -1.4331539174181390e+01 5.0614515022335682e-01  1.3163949776108510e+01 -9.8704460335374780e+00 5.4996625594662785e+00  1.8866923623870605e+01 -2.7170172700145194e+00 9.9950523525596136e-01  1.7664358085103324e+01 -2.6213777453643341e+00 3.7283028950733814e+00  1.9217640779800060e+01 -2.6553950107418625e+00 1.2475670338167217e+00  1.9964553125237519e+01 -2.6004792661504128e+00 2.6046585993481139e+00  1.1352539119112237e+02 -5.3855837607038435e+00 -5.9856107461625534e+01  1.2582201882009269e+02 -1.2498241228162966e+01 -2.5708642461398579e+01  1.2872527385419286e+02 -2.0467287464913454e+01 -5.6604800320610750e+01  8.7665516934786879e+01 -1.8059540506307581e+01 -6.1608583436281421e+01  1.6385940458781569e+01 -3.0785264649339159e+00 -7.5942496399708288e+00  1.8609938836800342e+01 1.8712946293168561e-01 -3.0133254375226239e+00  2.1229608815262555e+01 -9.9780287098243714e-01 -1.6649934607855990e+00  1.8144762147463194e+01 -1.6495428809503794e+00 -2.5327644551794282e+00  9.0938631505768281e+00 -1.7107090342453212e+01 5.6511290429357492e+00  5.4840578711289636e+00 -1.4606790745981243e+01 7.6361217160462695e+00  1.0090807693992694e+01 -1.1314387287800839e+01 4.3929348688685321e+00  9.8693710094739107e+00 -1.2991489588892977e+01 3.5064872984339210e+00  5.2387617195037679e+00 -1.2328176674825202e+00 -1.0314604610357955e+01  8.4269145245167785e+00 -1.4883177722646399e+00 -1.8368449639538187e+00  9.6670056961717812e+00 -1.0372112548221242e-01 -3.5470723083980813e+00  5.9536009304337743e+00 -1.1658970252015686e+00 -6.2018416678362707e+00  1.5848867718579385e+01 -1.2265559306835438e+01 9.1625706575116599e+00  8.3343557971231128e+00 -1.1179334246321069e+01 6.7872149394950831e+00  9.4616146501421223e+00 -9.1102167022444966e+00 6.2097266851885546e+00  1.0924601748179510e+01 -9.5131203500064725e+00 5.7489484316551147e+00  1.4497106045837620e+01 -2.4418610816602722e+00 8.7314484816618112e+00  1.1826321509362492e+01 -2.2947071694145502e+00 9.0046432086136328e+00  1.1964701409224254e+01 -1.1142423373861381e+00 8.9186328457105688e+00  1.2125631473796263e+01 -1.3081849107107653e+00 7.4429439289788579e+00  1.7899945381115458e+01 -6.1569614721454768e-01 -7.7960213641791638e+00  1.8423335211184554e+01 -4.3746085434301717e-02 -1.7399221085600633e+01  2.1955588573032777e+01 5.5942718668986779e-01 -1.1147697311988088e+01  1.3154088671479728e+01 -2.8908606613921304e+00 -1.2969850936755295e+01  1.3165101324710099e+01 -3.0169059536302698e+00 9.1609850205647607e+00  1.3632803425153643e+01 -4.2966744714844207e+00 8.2785826074547906e+00  1.2154904129521640e+01 -2.9217751330439099e+00 7.0512546683269353e+00  1.3844994637156400e+01 -3.3215215399530700e+00 7.4321699592246198e+00  1.5780931916555017e+01 -2.2643551200616230e+00 1.0359180886076345e+01  1.3014591600893851e+01 -1.9653894146810476e+00 1.0493351007660706e+01  1.3227329871251678e+01 -1.0654632202096218e+01 1.3208498331217087e+00  1.2273243580885143e+01 -8.0159837543996186e+00 3.3725800962545600e+00  1.6383515924205877e+01 -8.8483455213918685e+00 3.1704125345178574e-01  1.2748748381217370e+01 -6.8483519123088525e+00 2.0627613688123527e+00  2.1844590975948233e+01 -5.7839158793108236e+00 -1.3801192868937500e+01  2.3542933881976339e+01 -6.2259931219562246e+00 -1.1593653144109151e+01  2.1837044481480930e+01 -7.6461416007881313e+00 -9.9608973301811652e+00  2.1350167924063275e+01 -9.1963499970688716e+00 -1.2282294479199921e+01  2.7550243501193350e+01 1.9945690052366713e-01 -1.3417629692331314e+01  1.7575583258382359e+01 9.7424278386958080e-02 -5.7153892031020375e+00  1.7675699004463574e+01 -1.3700541161601909e+00 -1.3480169344370282e+01  3.2348351735008258e+01 -5.4738030382090663e-01 5.2679146364514606e+00  2.2667415821511433e+01 2.7267554511576733e+00 1.2521936965669376e+00  2.2231300086351247e+01 -4.1449257832560642e+00 5.0638679398112627e+00  1.0688242365593796e+01 -5.7617885242130136e+00 -6.6261036810678728e+00  1.6522262406252388e+01 -6.9968970044460681e+00 -7.8791983671674730e+00  2.8835365858724231e+01 8.6322131517351295e+00 1.4497981650809272e+01  2.1391544062997013e+01 4.2351470137099385e+00 4.6498703553844667e+00  1.6257247718067827e+01 7.5341874502589432e+00 1.2075001888431407e+01  1.3009016478577692e+01 1.0920000232218747e+01 9.2216253934076597e+00  5.4784032182725051e+00 5.5794593773647758e+00 8.0013519111425673e+00  5.6381905636427962e+00 5.3035841795891683e+00 6.0886051076614969e+00  4.5995368672490766e+00 4.0140840849413273e+00 4.3264605864719048e+00  9.6574541634625639e+00 -5.4379735547534445e