<?xml version="1.0"?>
<VTKFile type="UnstructuredGrid"  version="0.1"  >
<UnstructuredGrid>
<Piece  NumberOfPoints="4093" NumberOfCells="16134">
<Points>
<DataArray  type="Float64"  NumberOfComponents="3"  format="ascii">37.49216068403028 12.21648981040125 8.095694586986866  38.69738327303237 13.23822965441951 8.32691582318477  37.85860307693361 13.34811827491466 7.325810020631831  37.95977437383005 12.28354938211154 6.998117904514942  36.79878997802734 9.262807846069336 1.688738942146301  37.71601104736328 8.986710548400879 1.475877046585083  36.92537548696308 9.680748230313407 1.11326724399744  37.71846697675683 9.975918589153887 1.642675675665137  39.01948928833008 10.41880989074707 4.076076984405518  39.89416122436523 10.55445957183838 3.09207010269165  38.60103491872403 10.40396716201348 3.170662717759796  39.22837391125374 11.01302194511639 2.956748844384833  21.00355911254883 2.595230102539062 1.628700971603394  20.36175918579102 2.874850988388062 0.961434006690979  21.07645034790039 2.752063989639282 0.72154301404953  20.84861203156106 3.692124628484151 0.9315539270021167  33.30633163452148 21.30986022949219 2.482315063476562  33.97246932983398 20.60836982727051 2.805136919021606  34.55665605447114 21.69606344716639 3.303952122716239  33.56709023005264 21.1158705144635 3.419158898785183  34.94326019287109 10.70890045166016 11.27241992950439  34.88917922973633 10.00642967224121 10.7487096786499  35.81557831663489 9.612654936079863 10.73680525499108  35.20242796124673 9.811945992018693 11.90035416830367  21.9540901184082 2.000858068466187 1.894482016563416  21.64191055297852 1.985077977180481 1.055714964866638  21.9579613357161 2.97375382137029 1.189585329139248  22.79132416309668 2.109449131111028 1.151119891189051  38.53730010986328 17.822509765625 6.394937992095947  38.14068984985352 17.92959976196289 5.671009063720703  38.01125214743581 18.65569125556476 6.30765730975271  37.77624126086449 17.47761647868599 6.649381574429477  30.15699005126953 6.171529769897461 1.042019009590149  29.71379677277519 7.036829282942218 1.601473144800597  30.66994496568236 6.857468284480124 0.8470039064076924  29.7914330287247 7.427235814350977 0.7771189500792854  35.14735463582582 19.25467770425868 8.836748956366401  36.18706447945925 18.22284776024765 10.03073471096375  34.74067797813256 18.97623647280767 10.2585980605128  34.84428511463472 17.76768588240506 9.287543329036389  35.53961181640625 4.073735237121582 7.413384914398193  35.46606826782227 4.49711799621582 6.799996852874756  34.95781993521722 5.099047491174808 7.949297284878683  34.38180860518791 3.910243316789603 7.366529112726931  37.81230799124743 17.61735888698732 2.590572037657776  37.35671103640277 17.72320200760723 0.9011125007477829  37.3792253498674 16.4286698381808 1.499936804283382  36.7329461664926 17.94403928536989 1.500892701696348  34.74761962890625 17.74810028076172 2.723489999771118  35.12316408715323 17.08114685410702 3.143560375530884  34.10531669061659 16.77841197789907 3.167351811680009  34.04207229608372 17.60073405107889 3.514044876671245  32.86294174194336 19.51552963256836 3.073261976242065  33.76773834228516 19.80286026000977 3.029623031616211  33.56578826904297 18.94057083129883 3.028676986694336  33.11169596217979 19.98944222727051 3.940632093918834  18.67819976806641 2.324219942092896 4.370869159698486  19.1392685311078 1.073145216937609 3.529401935230745  19.14717383116193 0.9402977468669977 4.643675149222178  19.72853304118464 1.792240259611226 4.158063189645272  35.84092518447877 11.16655659155479 12.30099509291965  35.67516086543636 12.3114326509223 12.07023701696516  36.17136861878267 12.19424790042177 11.06423916821011  37.42203263784408 12.01340904004444 11.29749816428754  36.35868729869061 19.73597852706065 6.661378070023307  37.04449972744182 19.30790250403132 8.907878929114716  36.74509316120012 18.25556357431419 6.843193508910413  35.93160701513679 19.95286922238614 8.02532554465607  37.3685302734375 22.8817195892334 2.189084053039551  38.09925842285156 22.49547004699707 1.941405057907104  36.96909396594347 22.01133084875413 1.29430516362121  37.46002340767094 21.43680558450563 2.185633296018325  30.69807052612305 23.24926948547363 0.6441900134086609  31.20569038391113 23.95004081726074 0.1048400029540062  31.66411018371582 23.35832023620605 0.7113509774208069  31.22906115201452 24.40707403224135 1.222138036314864  31.83727073669434 5.94587516784668 9.903904914855957  31.10948102845531 5.533461568044419 9.594917103120412  31.67558941695626 4.595054054366163 10.49848689304597  31.92631978711043 5.239517382691608 9.112388835744614  35.72824859619141 3.347516059875488 10.73729991912842  34.55302241240032 4.242586094922165 10.42152226693347  34.2281194830874 3.301355788074547 11.30491997313206  34.9526150322868 3.081312797080543 9.566379380122504  36.74039077758789 10.16604995727539 0.1048400029540062  36.99175071716309 9.649038791656494 0.3946195058524609  36.28715037048399 9.990343584102757 0.8970269887632627  37.4044138188775 10.06997001839966 0.7171075193926539  29.75470075791016 8.598431516861204 1.322980872051198  30.57824027071799 9.241049602865463 2.31605935943282  29.77589532703487 9.124025703833807 2.831230960188823  29.55605760038988 8.031728934037359 2.345714080850227  39.89416122436523 19.95080947875977 7.427981853485107  39.89416122436523 19.30982971191406 7.661084175109863  39.89416122436523 19.24501037597656 6.869744777679443  39.12824922706156 19.02043393067358 7.465280553545149  34.21928829129851 12.64002394638204 1.355772822332426  33.99877791127566 12.54513146239713 2.773908798326214  34.05140386955567 13.80502304528099 2.06828732344374  35.28786389598474 13.50991225903176 1.976995995109223  37.49355393418582 8.694311736430642 13.56569335215885  37.73059081184231 10.05393930510424 13.7611709951648  36.61206851919196 9.636919742476813 13.92416988214483  36.66377916281777 9.443331051775603 12.29799298332205  24.6813793182373 0.09558500349521637 9.153931617736816  24.24528213683056 0.8895589116712234 9.690121324708137  25.10379966220598 0.7033389447626808 8.836821846408681  24.04974076333729 0.7127872542465727 9.059231839275931  21.83608055114746 2.473937034606934 0.1048400029540062  22.80558967590332 2.323617935180664 0.1048400029540062  22.87336971871895 2.874293393925115 0.8080907307833194  35.29422912211865 13.2232571463952 13.2240134562381  36.10445750119688 14.44533092148826 13.22265150907445  35.90715834933867 13.66303893397257 12.2621358510329  36.35644030360353 12.69775403906344 13.34873896257793  38.59587860107422 9.887117385864258 7.719407081604004  38.29071356010524 10.0251981553505 8.492494168682166  37.62128151859026 10.43807904907475 7.65298686687172  37.75564727633122 9.617798541675656 8.27790339306684  24.49600028991699 1.643203973770142 0.6151660084724426  24.75922012329102 0.8718330264091492 0.9860039949417114  24.17094039916992 0.5042539834976196 1.077556967735291  24.21706008911133 0.8792170286178589 0.1048400029540062  36.82065527882757 14.70724381072298 11.77208122874694  36.60916923886442 15.80571234311839 11.29551360317229  35.30417556340569 14.48093984262399 10.83470478934141  35.95611925010207 15.19698890169278 10.21303227924096  36.99766550670613 16.98397214550143 8.303000999241032  35.66166822584167 15.90564752102694 9.138545816868195  37.0748764404267 16.88980440407511 10.13790325014983  37.28687870978941 15.58788215386317 9.721358731507552  36.8985710144043 13.49016952514648 14.60649967193604  36.06623001083057 13.7545789881111 14.05693112003537  37.11127519122999 13.86406017401079 13.22921391798275  25.34629970724916 5.078290154608209 6.113070574674821  26.71964435875859 5.48186334281896 6.283361949407814  26.06085342951072 5.320064093264697 5.299764904574618  25.88458173619295 6.183497291753255 6.326775978460693  33.90008163452148 2.941236019134521 13.32433032989502  34.04682922363281 3.496597051620483 12.83841037750244  32.53182384824128 3.965208358373967 12.99771359817598  33.57386406380563 3.47545942461457 12.24247984950325  38.49338912963867 12.95320987701416 5.418471813201904  39.13330841064453 12.95938014984131 5.968968868255615  39.00342178344727 12.22842025756836 5.545782089233398  38.33408161465507 12.86150438844792 6.149588485100842  28.33801860440941 24.43915098377149 1.700614038449218  29.89511287650388 24.21992619940635 1.238483075251617  29.48224097945836 23.13189122010324 1.972468821542309  29.11044654147979 24.17859015002179 2.667358907914216  36.33905029296875 9.754186630249023 2.356865882873535  37.25259769079187 10.4354640799331 2.315412462175406  36.33722625126077 10.87220042453551 2.511220067825584  35.94468986185522 10.15631268628428 1.863765058453845  33.66947937011719 3.937901020050049 4.193717002868652  34.47209930419922 4.106895923614502 4.121044158935547  34.16408529093161 5.008572861246223 4.551825276298236  33.88085882282325 4.771750345473817 3.675702486371863  35.06922912597656 4.482101917266846 5.859911918640137  34.35946183973562 4.881538621823403 6.732290227010475  33.97947702030058 4.590762946449053 5.48299349233029  34.38749574913892 5.62422518180948 5.610584982286765  32.71181704407387 6.344657647902548 6.532548241273835  31.6462482529892 5.645432854769825 6.246909816883468  33.14399408271091 5.144504765531794 6.500719865242822  32.54661759526879 4.910537365695279 5.572672323201529  34.95782089233398 4.765946865081787 4.135313987731934  34.99605941772461 5.341097831726074 3.537661075592041  34.79978942871094 4.415253162384033 3.320770978927612  38.3503303527832 4.727511882781982 14.96438026428223  37.90721893310547 4.033687114715576 15.02655982971191  38.16768842929777 4.973151654769813 14.12918059207502  38.44258670985266 3.547105638712385 14.04833793327386  28.76135063171387 5.556865215301514 2.946438074111938  28.81509971618652 5.902900218963623 2.284902095794678  29.24104006668901 6.367414284542483 3.431150525372625  27.947688436318 6.646667158415074 2.611573535559833  39.89416122436523 13.85678958892822 11.46578979492188  39.8941612243
[...]
<PointData  Vectors="u"> 
<DataArray  type="Float64"  Name="u"  NumberOfComponents="3" format="ascii">1.5550886194677087e+01 7.3955749779918687e+00 3.5754713331330823e+00  2.0821982400597154e+01 2.6603895782694975e+00 3.1222021728039908e+00  1.4968142725459428e+01 4.0938071204435333e+00 5.3578914904690071e+00  1.6872240638307822e+01 7.0643056819116818e+00 7.0413837833791755e+00  2.1332552859262339e+01 -2.5217528620635412e+00 1.1508481415947749e+00  1.4834057466097100e+01 -2.3297781490152594e+00 1.8044583390656233e+00  1.9517989103555994e+01 7.9739420755588553e-01 8.1160942382594026e-01  1.6627514599930741e+01 1.2142197349948631e+00 1.6138138803449695e+00  7.1585757523854010e+00 1.1891811462784203e+00 -1.4535832196118383e+01  7.5633452142086483e+01 1.3422076798057639e-01 -2.9615897168131415e+01  1.5887589437060031e+01 3.3082787141062404e+00 -5.7532515658712455e+00  3.4261421208351038e+01 -4.4599937812213802e-01 -1.6256672448952067e+01  3.7310364787574493e+01 -8.8956485917810753e+00 -7.6654846650958897e+00  4.9599733995589084e+01 1.4408516506401471e+01 -2.1270937324183019e+00  2.4275171341120458e+01 -1.2595871955738913e+01 -5.7273966715965594e+00  2.4587333814657420e+01 6.5851728650261370e+00 -1.7368528117014448e+00  1.6821773713499212e+01 -8.3605420841128009e+00 4.8166609652230734e-02  1.9078197063254429e+01 -7.6201086502238793e+00 -2.5705356477692004e-03  1.6244027813942004e+01 -7.3161908136775615e+00 1.6084917996286068e+00  1.8155103296420982e+01 -6.9097747632659940e+00 2.0596980209372355e+00  1.3162120274352041e+01 9.3401667970813644e+00 -1.4046203051706261e+01  8.3755981210141268e+00 1.1759997717804005e+01 -1.3685855229509155e+01  1.5314768792056963e+01 1.1509385528196189e+01 -6.5822713972140381e+00  1.6222315951615375e+01 1.0524422108416781e+01 -1.3253968726834865e+01  8.2330275538185553e+00 -8.7479321769766472e+00 1.0709262168958198e+00  7.2697521511449699e+00 -9.6108899479191265e+00 -1.5084586481843612e+00  1.3786438756594512e+01 -2.8043097032393938e+00 -1.1784518770289880e+00  7.5840102041877957e+00 -2.5946582718562166e+00 2.8018875916018998e-01  1.1969898971290799e+01 5.3293224473588516e+00 7.2064381788498597e+00  5.8642798820661310e+00 7.7983972865519675e+00 5.8530791863158598e+00  1.1829508112088499e+01 3.0412663561923505e+00 4.2460289698962121e+00  9.2435450256940435e+00 3.0441356551138323e+00 5.9370075395800788e+00  1.9308431494324829e+01 -2.6525967522112199e+00 -4.9497883948358385e+00  1.9822771571964754e+01 4.4773199670865321e-01 -2.0751890278871787e+00  1.6988007496569224e+01 -1.6350038296975602e+00 -1.6398286481903241e+00  1.8903915967471651e+01 -1.3193360045680385e+00 -1.9610980858054845e+00  5.9953066781200244e+00 -1.8194006925350481e-01 -7.9578466447989493e-01  8.3185938748525317e+00 -1.3047289896645312e-01 -4.7374915404547471e+00  5.1287952744257934e+00 -6.5137342220570965e-02 -3.9952381693725165e+00  4.8138964042064076e+00 2.3950448389897877e-01 -2.5372789111104992e+00  3.8098585883455063e+00 8.4492275127399044e+00 -4.9257422033275761e-01  4.2772970377928949e+00 8.5373451031958716e+00 6.6392140272427191e-01  8.6470978312330544e+00 1.1759821873626828e+01 1.1560159612439695e+00  6.3607086556425747e+00 5.8115205371304084e+00 -1.8437686474059971e+00  1.2592271905092533e+01 2.2280233426028482e+00 -2.3621610337921108e+00  7.7765932696289042e+00 2.1061316769071636e+00 -9.5528923026383727e-01  9.7145097772672724e+00 3.6421043475163368e+00 -1.2507852115308433e+00  7.3478014872792787e+00 1.2089403009688402e+00 -2.9580728948735744e+00  1.1614444562806744e+01 2.1894093102234111e-01 -5.4018337769444082e+00  9.3129741826693664e+00 1.0223546106160799e+00 -2.1156750877805748e+00  8.7521373584303817e+00 -6.7658616556358697e-01 -1.0086598709498698e+00  1.0939439666808827e+01 -2.6750213870210691e+00 -9.9702865821981101e-01  1.6346464552698599e+01 -9.6442488946837166e+00 -1.7859021694462749e+00  1.7854171776144522e+01 -7.6700738834514723e+00 -9.8171058224428154e-01  1.5216410524715162e+01 -6.5792557143888155e+00 -1.7179466638614080e+00  1.8796830553724348e+01 -6.9649704525338025e+00 2.0794845346443229e+00  4.9729455333003159e+01 1.3669738219749501e+01 7.2118944135636873e+00  2.9012905716973020e+01 1.0281404913701429e+01 1.4511228200827615e+01  4.0999996629037014e+01 4.5579250717362312e+00 1.9808956831574918e+01  3.2775441236334267e+01 1.3406920920143428e+01 1.7880512396154568e+01  1.6832688048634271e+01 8.1908126089911146e+00 -1.3633881724873159e+01  1.4770556235906025e+01 7.9825516334584847e+00 -1.3168745973960004e+01  1.3781653872918392e+01 7.2719218308241889e+00 -1.1401168429190937e+01  1.9939774031129325e+01 5.3450844427416992e+00 -8.6273253385867417e+00  1.1177340328630859e+01 -8.5286558182392891e-01 2.8410753053502260e+00  1.2376866871214615e+01 -9.4884799342556086e-02 -1.5169087454269328e+00  1.0136645227541246e+01 9.1852375081215931e-01 2.9072065191645828e+00  9.1894250449715731e+00 -7.2080058184720874e-01 1.2632122401477304e+00  1.2753031208393448e+01 -5.7278369550474126e+00 -4.3608171217870489e-01  1.2440366463731905e+01 -6.7941143727636444e+00 -4.4013606071636174e-01  1.2638175878374112e+01 -6.3281470152218997e+00 -1.1694032667342944e+00  1.3109109431106726e+01 -6.1412486557675496e+00 1.5596939534849285e-02  3.0349418756079068e+01 5.2502461083057543e+00 4.4897147468327256e+00  2.4251268875989695e+01 2.9632415160305818e+00 7.3886674263023644e-01  2.5724940660311876e+01 -1.3674607951255611e+00 4.1550627654747778e+00  2.1559189354016642e+01 1.9521519025811742e+00 4.6636550076569447e+00  2.3218427206868054e+01 -2.4490624044550069e+00 -5.5815824905742870e+00  1.7135262909726510e+01 -2.0576427964523969e+00 -4.2468584231700861e+00  1.5273140869874204e+01 1.5972356648346562e+00 -2.4815947743059770e+00  1.7545234042715936e+01 2.5519326391577581e+00 -4.0488743326610317e+00  2.8143110519031866e+00 1.6040897750399285e+01 1.4004469197938552e+00  1.2331681188911498e+01 1.2352681212260226e+01 6.1859249806128602e-01  1.0908816316013082e+01 1.1389240620017294e+01 -2.3167112822248712e+00  5.6152758670729304e+00 9.5271040213331109e+00 -1.5272083770344493e+00  1.9903374485875112e+01 4.7759775014992716e+00 6.2560820656821214e-01  2.3507684559166925e+01 2.0302912588722983e+00 1.6235087891904679e-01  2.0899817221219351e+01 2.9944457074868125e+00 -3.2766145724859080e-01  1.6528164851441968e+01 1.3530295430658628e+00 -1.6076244361600842e-01  2.1390669434691517e+01 5.2409235753506922e-01 5.4554502507833103e-01  2.3193798418782780e+01 4.6658587953640289e+00 2.9935887526055334e+00  2.4635261547063283e+01 2.6510749033746661e+00 1.6299768234890619e+00  2.0683440268057698e+01 1.7091479391143609e+00 -1.4730019872896766e-01  2.0687354489492190e+01 -2.6279475411572434e-01 -2.1571970352935388e-01  2.0863496450692317e+01 -3.0048639464500768e+00 -2.4426745630954887e+00  2.9952952241264651e+01 7.3014670134832373e+00 4.7985791706225616e+00  1.8042589081955352e+01 2.9566937425358488e+00 3.6162143880141051e+00  1.0596485247692232e+01 1.4438425411062619e+01 6.3746835142131419e-01  8.5462809028617990e+00 1.5491326102552911e+01 1.7820681713248046e+00  5.8010938720429852e+00 9.9276159939582040e+00 1.0298177023418988e+00  9.4054032684140072e+00 8.5405378004269874e+00 2.1793639052559897e-02  2.8839386544349882e+01 3.3987524674084963e+00 -1.7492442901522384e+01  2.6680171674459746e+01 2.7578216061394545e+00 -2.1277220449636896e+01  2.1200592238021503e+01 5.2210891515705065e+00 -1.8375222492287808e+01  2.3507081848016579e+01 7.1304566849705457e+00 -1.1193022640325719e+01  9.1765824642141531e+00 1.0448023032757289e-01 4.7324989669209634e+00  9.6214638855363130e+00 1.3057753954748341e-01 4.9239715602433547e+00  8.9729682976346652e+00 3.1548844346633742e-01 5.4785632444943397e+00  9.0923666993823140e+00 9.2497251711697440e-02 4.5229767535848859e+00  7.8336509354013915e+00 -5.5672993967444011e+00 -1.9960907071333778e+00  7.7216654323430314e+00 -2.3733506325687452e+00 -9.0097394197013458e-02  9.1040283272587121e+00 -1.1903080328788647e-01 3.8732415381067403e-01  1.3388574143874648e+01 9.9095221343824633e+00 -1.4464268985217176e+01  1.3034254213295952e+01 7.9555864675513233e+00 -1.1566333855262405e+01  1.3383356150883497e+01 7.1390667628508497e+00 -1.1743908796315065e+01  1.6104617669490864e+01 8.3171041521581355e+00 -1.5730159454471105e+01  2.0290234736885061e+01 1.0721697502484039e+01 8.0544785263832051e+00  2.3180117272626692e+01 1.0414216176735005e+01 7.0922622201756473e+00  1.8724818113837046e+01 1.2009335322411362e+01 6.3222465964460897e+00  2.1943475781605041e+01 1.2399295733022653e+01 7.2679434677125405e+00  2.0628291749208119e+00 6.5831236992674513e-01 1.5387628193933465e+00  1.1788232010038153e+00 3.5938563514847222e-01 2.4463982390373289e+00  1.6712764561642819e+00 -1.0471801830731606e-01 1.7613557747827377e+00  6.4306612330237656e-01 -3.5201383383056062e-01 3.3852690614745490e-01  1.4083780433860225e+01 3.7236260482658543e+00 -8.8608686355417028e+00  1.1495875616099717e+01 1.5540799329942774e+00 -7.3912361566826563e+00  9.1410068570983540e+00 4.4786404903928538e+00 -9.5359153250426587e+00  9.3591045869752456e+00 2.2841129671138116e+00 -5.9801530610614941e+00  1.1041799846126677e+01 8.3987442284848279e-01 1.0561682612057330e+00  6.9865737929438989e+00 8.3183043445390026e-01 -2.5929533754880567e+00  1.2645548219278384e+01 3.2197130025825409e-02 -4.9397491523753585e+00  1.3455257948395138e+01 1.3353989411173763e+00 -2.9206933895114502e+00  1.6194394701422592e+01 1.2310231294593555e+01 -1.7813601000442439e+01  1.4203094727734602e+01 1.0699742312730253e+01 -1.5087725738449517e+01  1.6578640682714404e+01 7.2194344104773638e+00 -1.2614985363055002e+01  1.1860978126421770e+01 2.3060290319888823e+00 1.4626190197995135e+00  1.4482032941911950e+01 3.6912253017608467e+00 5.4548912974153974e-01  1.3277560257727670e+01 4.6945383534903060e+00 1.1484002485703473e+00  1.4046366880629003e+01 1.5548892922624609e+00 -6.2784175574682799e-01  2.6668040467944998e+00 1.0466201597591196e+01 -5.1360561020922848e+00  1.1235532059839853e+01 1.6846813540557704e+01 -8.5388841718211168e+00  1.2842023733869832e+01 5.4045174958320077e+00 -3.1351366112444055e+00  1.1621962193943050e+01 1.0139009918604827e+01 -4.1343976401420850e+00  9.3133469134254749e+00 3.4156550462636130e+00 1.3632593990174025e+01  1.6222626926130239e+01 -1.8396546713955064e+00 2.0391901818131149e+01  1.3891141295312361e+01 6.9875826394754865e+00 1.9366521591406837e+01  1.5928968625689414e+01 4.4677572860594834e+00 9.5445116857930650e+00  3.5094919024395921e+01 5.6939008404374301e+00 7.3359928035882405e+00  2.8001306908166836e+01 6.7889192859486549e+00 6.1320324198813392e+00  3.1112552416041119e+01 9.3942450076616293e+00 1.0247603896174500e+01  3.1429573780675948e+01 8.6081888901432730e+00 1.4634629674323364e+01  2.5238084089641529e+01 1.0169794972187982e+00 -2.6646409489010559e+00  1.8542324492193046e+01 2.3950870224342373e+00 -1.3076508923085353e+00  1.8287812852782871e+01 7.3635631088229827e+00 -1.7188619110977301e+00  2.2763829415270660e+01 6.4813093180227259e+00 -1.6373862578522300e+00  3.3242570640040738e+00 2.0466178306179073e-01 -1.9138062776331322e+00  1.9840811540541823e+00 1.2792133751270558e+00 -5.8108979585589726e-01  4.3795410657967713e+00 4.0112867438825193e+00 4.2922786432527898e-01  3.2619854036691032e+00 1.6057786108415990e+00 -3.1509982694054917e-01  3.6702975183122284e+00 6.5367752446510137e+00 1.1486772503248968e+00  7.6068294746243890e+00 7.4142028722711162e+00 -1.4257769815833427e-01  5.6684187058921758e+00 4.0350551968349890e+00 -7.4500879229288175e-01  7.4160465200541346e+00 8.2232210064465097e+00 1.3870700678353136e+00  1.5343543881029497e+01 6.9713387176182646e+00 -1.1883974464595104e+00  1.6153768446606172e+01 1.8119868493258726e+00 -3.0083885089528644e+00  1.0806667208976194e+01 4.4469110884644776e+00 -1.8054957768067594e+00  9.9801357541757945e+00 4.3959508027494693e-01 -2.7386398217120713e+00  8.9100621888250042e-01 3.1961298500403692e+00 1.0991191022111402e+00  2.1994270683721948e-01 3.7764739671333811e+00 2.3862729461378391e+00  5.3888802192484542e-01 1.0560369635962463e+00 5.9556863332365151e-01  3.1107029192981898e+01 1.1009421421187773e-01 -6.0469625711670547e+00  2.3751403862465349e+01 4.7364604828998198e+00 -3.1789632815960966e+00  3.4957774602930286e+01 4.7643504172087764e-01 -1.2363469948180828e+01  2.5869387169943113e+01 1.1995113301628967e+01 -1.3350963415237889e+01  2.0346852216943741e+01 2.2443330397518522e+00 -1.3093786176418443e+00  2.2314788640711317e+01 1.9476649559419406e+00 -2.2191235270349079e+00  1.9829563556796305e+01 3.0536429730252772e+00 -1.2515196791788235e+00  2.0079920642411146e+01 3.5553818767899799e+00 2.3665702257065990e-01  3.0107275735888351e+01 -9.0006665252796852e-02 3.1600454243510692e+00  3.4717884743760742e+01 2.5934968116879437e-01 2.7127881181401392e+00  2.6414216599369190e+01 -5.9352181555885966e-02 -9.7544901912773796e-01  2.6555541830986893e+01 7.5622306831528363e-01 -2.6048062811522139e+00  9.3111373040567660e+00 -3.9404748380451955e+00 -2.6091545449126010e+00  5.6148076685321486e+00 -4.4490413514736948e+00 -1.8530212829204056e+00  7.8475641837363197e+00 -2.4515309634548519e+00 -1.1675424386815019e+00  4.6680456948340767e+00 -4.6400334334381501e+00 -3.0373203672752034e+00  1.9221984771065880e+01 -1.6164868476744525e-02 -4.2190360581189745e+00  1.5369744670979463e+01 -5.2434515975275113e+00 -3.6461884225160652e+00  1.3833666652177504e+01 -1.5522284839680107e+00 -1.5502835955934811e+00  1.3177625181295715e+01 -1.5725542133801798e+00 9.9656739457250854e-01  1.3344910351252517e+01 7.9519499148220663e-01 1.8405207087763877e+00  9.5615639195909505e+00 -4.5913467272994007e-01 4.3608580732419648e+00  1.2531785041218365e+01 -1.9390477338229706e+00 2.7720820545001162e-01  1.4846311796471539e+01 7.1755852630487427e-01 -1.6326030030427169e+01  2.0799541296298340e+01 2.3336633817307604e+00 -1.3637815083827585e+01  1.8315361527090861e+01 2.1463484813541576e+00 -8.3736875850780965e+00  2.1325914842699671e+01 -9.5473208742618787e-01 -8.2213027377373162e+00  1.7997637307288947e+01 -8.1233429229139400e+00 4.2191493232138058e+00  1.7307582871118534e+01 -6.2448611078695118e+00 2.4723085045155302e+00  1.7325557070605164e+01 -8.8420347395427612e+00 2.1122431035293241e+00  1.6384310949326217e+01 -8.4357413539169670e+00 4.8474435065783563e+00  2.4754739678179597e+01 1.1441311833533254e+01 -7.8543426064521071e-01  2.0622426614749010e+01 1.5409540068918604e+01 1.0467982030600849e+00  2.0160694665790590e+01 9.2087515993318174e+00 -5.3818585707875133e-01  1.9759771317593305e+01 1.3403440967929065e+01 1.7778020188162842e+00  1.4745850404294112e+01 -3.0852627059293275e-01 8.7826705813491235e-01  1.5458928564111828e+01 1.9053306996323862e+00 1.0190550986652982e+00  1.5054077156933650e+01 2.9327538834503286e-01 1.6395768780031299e+00  1.4469859211298965e+01 1.9809190462566604e+00 1.2284241023270868e+00  7.2449506998753330e+00 -2.6737085330721166e+00 6.6852197712160111e+00  5.6047753888952911e+00 -2.9822582168850627e+00 5.4183100690027368e+00  5.2314348308902980e+00 -4.2509962578108723e-01 5.6921586780011735e+00  6.8601974055914452e+00 -1.0576772587461578e+00 3.6684322579004314e+00  4.2146352762915518e+00 -9.0450721152437232e+00 -2.3592898681290331e+00  7.0943784274516117e+00 -1.0958958321623209e+01 -5.7145931048903833e+00  3.8163140078952726e+00 -1.4467364222396531e+01 -9.7775288959763351e+00  2.6357540592901718e+00 -9.0697083790704482e+00 -2.1379769773099984e+00  1.9907434416721500e+01 -2.3340186504962133e+00 -4.2821439305910882e+00  1.8468187162788311e+01 -6.9750949976312238e-01 -2.1191946227704843e+00  1.8442329351931157e+01 -1.0154497958754904e+00 -3.4121956228328436e+00  1.6749549234140321e+01 -1.2149619534063862e+00 -4.0826784481813050e+00  1.1307369899645691e+01 1.9049736117205643e-01 2.1888771908385096e+00  1.2292525881531631e+01 -3.1065440160833342e+00 3.1907501141263412e+00  1.2541992784985151e+01 -2.8273726640021706e+00 3.7734687438588081e+00  1.0317112041742492e+01 3.7932231962616497e-01 1.2505068484436697e+00  1.2555353428729660e+01 1.6563999521158490e+00 2.7530391185256593e+00  1.0149775641014942e+01 9.0886153198161301e-01 3.0860047530591275e+00  1.2354499007373910e+01 1.7211070230681320e+00 1.3038932778058163e+00  8.9783572994120551e+00 -4.7624710989974082e+00 6.8837855548010723e-02  1.2106078145651667e+01 -4.3156837594907005e+00 -7.2877123283055636e-02  9.6443430613934744e+00 -3.7944685187444125e+00 -9.9963148635932420e-02  8.5814178959122369e+00 -4.5992085502211255e+00 -1.4666672590723158e+00  1.3965732950968937e+01 9.5368140069739056e+00 -1.0131507237177393e+01  1.3889798711666064e+01 -1.9310660035680398e+00 -2.9415910153764893e+00  1.2905449684437684e+01 2.7788076720332816e-01 3.6864012337214689e+00  2.2531196094704992e+01 4.7208461328742581e+00 -2.2698052509849086e-02  7.0324939487397753e+00 1.0013056979079128e+01 -9.8536856492442251e+00  9.8049225756500409e+00 5.6479047139378293e+00 -9.2970413325761481e+00  9.4990488690060069e+00 8.7300035503728015e+00 -9.9287041319297717e+00  1.0603313156772515e+01 9.6602352668623332e+00 -1.2231938639771446e+01  1.6896381165872054e+01 1.0088737624669804e+01 -2.7164658966091011e-02  1.1833319577644536e+01 5.3831230889721517e+00 -7.6730351755499235e-02  9.4622617949643519e+00 9.2886574009812097e+00 -1.0464859585734745e-02  1.1656106026079364e+01 1.1409371728571568e+01 6.0644091764997965e-01  1.3555698732797827e+01 9.2907905152405252e+00 -2.8407371573827794e-01  1.6224255780617579e+01 1.3033586518704432e+01 1.1530606096313626e-02  3.7040281569248354e+00 -2.2430861174295229e+00 1.8372170834855450e+00  2.2841104043269094e+00 -5.4538398942702504e-01 2.6305021741183126e+00  2.7485572623962602e+00 4.2546866739966549e-01 3.1619746812358680e+00  2.9967472347461772e+00 -6.1045580966274526e-01 2.5551879806317812e+00  2.2194945601543996e+01 1.3671648721497467e+01 -6.2632364233048377e-01  1.9181207726851486e+01 1.3414820468433845e+01 -1.4847210729614721e-02  1.9283677593372250e+01 1.0816075760170795e+01 -6.7792977409033528e-01  1.9519763366879161e+01 1.2707813979355199e+01 9.5555165416256804e-02  1.9520173746169242e+01 -4.9947593188339728e-01 1.6792220924536249e+01  1.9137067344021577e+01 -5.2354670668230865e+00 6.5330650762513161e+00  2.5429875412143819e+01 -4.4666437166498696e+00 6.4811652542038125e+00  1.8978449712793584e+01 -4.0267936116551866e+00 9.4898748250462024e+00  1.1794433078672990e+01 -1.4803497637630645e+00 4.3508939551533743e+00  1.1168732502108110e+01 -3.6058684713111055e-01 3.1273448165707953e+00  9.5449566401582189e+00 -2.4360983345861933e-01 4.9399577501015726e+00  2.5100265105577503e+01 8.5590702866464810e+00 -2.0504383596857650e-01  2.0945674004745403e+01 4.6030684132169313e+00 -1.7105041807048353e+00  1.3543892185319635e+01 -5.2111550999428928e+00 2.2157456468507313e+00  1.3167734437250333e+01 -4.7649354018137160e+00 5.5161002835343229e+00  1.3969219779779282e+01 -5.7867100084623893e+00 4.0850314821113241e+00  3.2298532057311746e+00 -1.4357237557588365e-01 1.0633276253897366e+01  3.4628849508131418e+00 -5.9078613761032504e+00 9.8028975528548443e+00  8.7009148258265139e+00 -9.7639553146875968e-01 9.0071776488589794e+00  6.7094479381227901e+00 -2.5812168279773053e+00 7.9145525949697850e+00  1.7140495819033177e+01 9.9480956970577861e+00 -4.9245892174997667e+00  1.6120465762167118e+01 8.7241033658935638e+00 -1.0786215939567970e+01  1.0241336270141412e+01 -6.7748285649781588e+00 -8.1714889567556881e+00  4.2316804278461833e+00 -6.7745832498161516e+00 -7.6606819278950136e+00  7.2509086845741280e+00 -5.8055845370134325e+00 -4.9725320228183154e+00  8.3732193647031252e+00 -5.2311637256366650e+00 -6.0970885820832654e+00  3.0062402202226398e+01 7.6403606058839237e+00 1.6152856820276038e-01  2.3996745887347863e+01 1.4951211113906782e+01 2.1909287237340975e+00  2.7679246643670531e+01 1.9001091446450992e+01 7.7989942926481763e+00  3.1542582166968774e+01 8.2944120856844155e+00 6.8855176864891714e+00  1.2568698793965218e+01 6.9024537137223065e+00 -1.1232065274165034e+01  4.1231261496853406e+01 -1.7450336929347666e-03 -