<?xml version="1.0"?>
<VTKFile type="UnstructuredGrid"  version="0.1"  >
<UnstructuredGrid>
<Piece  NumberOfPoints="5073" NumberOfCells="20155">
<Points>
<DataArray  type="Float64"  NumberOfComponents="3"  format="ascii">22.89839900742558 37.48639348696763 17.88178627657244  24.22996891874948 36.64350979726669 18.24660652791524  22.60429124671926 36.57286876850406 18.63107125019338  22.84549597719834 37.49523845956726 19.12194224078793  23.09486961364746 38.55545043945312 20.7221794128418  23.25704234100377 38.75884585505028 19.59357432602252  23.68886269564554 39.13055021075643 20.32158779163047  24.05602943935808 38.08805137646113 20.48543172022932  25.21623039245605 39.89572906494141 19.90225982666016  25.88199996948242 39.89572906494141 20.73867034912109  26.28609085083008 39.89572906494141 19.78190994262695  25.46447325090089 39.29783858040163 20.16510570299291  21.85374069213867 35.32550048828125 20.48447036743164  21.83684921264648 36.16336059570312 19.61306953430176  22.49912071228027 36.21389007568359 20.36309051513672  22.61484370257775 34.69663120576917 19.95070154050249  28.58072090148926 39.08330917358398 22.7846794128418  28.79528999328613 38.34627914428711 22.73069953918457  29.15099906921387 38.95196914672852 22.38149070739746  28.62740924005215 38.79199301214796 21.53895795417733  25.58127975463867 35.69157028198242 18.78720092773438  24.53618307486278 35.74339332992417 19.61264152311057  25.42421603070777 37.07693672000483 19.33001553258124  29.29767990112305 24.36124038696289 13.98779964447021  28.43588066101074 24.78812980651855 12.90542984008789  29.11824989318848 24.0145206451416 13.40989017486572  29.06818008422852 24.37247085571289 12.7466402053833  25.78008079528809 32.86985015869141 20.8356990814209  25.66369867134377 33.3978667497844 21.38643292019651  24.90579653869166 32.56807122982661 21.42097618568243  24.74801621369952 33.55808050731243 20.4673749801407  27.22681898017847 36.46465511622129 22.25871230496205  26.72525276524886 37.44483825960664 22.38276923494525  27.84972010748973 37.43990397130576 22.06754373323614  26.49717743485739 36.68271145459684 21.49487530526217  28.92654037475586 37.43973922729492 22.41214942932129  29.51260948181152 38.30961990356445 22.08810997009277  29.8605899810791 37.28054809570312 21.6612606048584  28.57689201153789 37.48119480285867 20.86939135800373  26.5662990346244 35.42490822609366 22.20768654971938  25.59479323503497 36.57174405294225 22.19284458709484  25.65830292668266 35.83696709277875 21.48357567667795  25.72384075360803 35.70558398043049 22.84057080413718  26.00235939025879 37.30207061767578 23.99891090393066  26.1696605682373 36.67604064941406 23.37994956970215  24.99853459903706 37.34026454774614 22.86856027829746  25.96887273814035 37.74940358917609 22.91813603610789  27.81987953186035 39.39154815673828 22.95486068725586  27.93625068664551 38.67784118652344 23.16474914550781  27.48026200885478 38.63605244811882 22.02209846489658  27.04934222272819 38.97658386842911 22.77318590071283  25.04331916429232 35.19636287576321 22.32750275998154  24.61407434223722 36.30523826537929 22.69432316359283  26.58476066589355 35.87891006469727 23.11511993408203  27.54668998718262 35.98313903808594 22.7620792388916  28.36296081542969 36.06325912475586 22.26085090637207  28.3434936616615 35.43156012847186 21.45167050992782  27.6451479678077 35.65269350545044 21.90705155802421  27.83302983031182 36.46514595890097 21.45380349542613  27.13904913561395 36.86497242430404 16.47001877619826  25.97007240737718 37.46696039590935 16.7467602166727  26.23414421242398 36.83633057046922 17.24221927610513  26.35655096109794 36.91145465864577 16.13018434098202  24.38493919372559 34.84423065185547 17.47085952758789  23.20795264600214 34.59888087060784 17.75742977320265  24.06011167542696 35.41155339892994 18.31641277902271  23.71789112472824 35.27194259972386 17.20833095067664  26.77350403599185 37.56702112022016 20.82301347061155  26.34679012719072 39.05860334203195 21.73149709092204  26.47666890518576 39.10210441485536 20.7576532646322  25.8888926463118 37.85166737479142 21.7936993366422  27.28319931030273 32.75743865966797 23.95899963378906  27.21936988830566 31.63388061523438 24.15830039978027  27.90336990356445 32.14416122436523 23.73134994506836  27.51446646485133 32.01609590011032 23.00575059335346  23.23965072631836 39.89572906494141 19.7714900970459  24.13072967529297 39.89572906494141 19.82789993286133  26.59374833935045 33.13073706650009 22.91819579686785  26.26137366729533 31.79564193851702 23.34168753775113  26.73278162074411 31.93274244503936 22.51187191493097  22.3966887050553 36.67663195448193 17.78667136053301  23.08241035210551 36.0725282142747 18.02900672658328  23.26522112320417 36.38773015075154 16.99369509582931  23.83062710434329 37.25199939916671 19.94576223425299  23.9919458059457 37.89846304490173 18.87380994814788  23.89992904663086 38.01456069946289 22.20280075073242  23.74080085754395 38.97727966308594 21.9422607421875  23.67697906494141 38.2480583190918 21.4338493347168  24.56370283513382 37.90509578118997 21.63002236285633  25.20109939575195 31.50341987609863 21.99579048156738  24.99411964416504 31.50654983520508 21.05592918395996  25.84398078918457 32.08683013916016 21.34542083740234  24.37240069828289 37.32578517778308 15.15652636347498  23.91692965709172 36.97259731944895 16.59162370627156  24.90534173638876 36.8962452282686 15.92131209565268  23.69633416228762 36.51154054145103 15.49131310393442  24.66914815608241 33.73278888112443 21.49022608159736  23.61081356915655 33.2516728744386 20.82673329857242  23.63400002726409 34.13606665544354 21.11600713574804  23.8533992767334 36.92370986938477 22.98771095275879  24.01176071166992 37.24792861938477 22.40053939819336  23.97743034362793 36.42126083374023 22.24371910095215  26.03122258825007 34.55667933806011 23.11451616438801  25.04451724975435 34.54129543375207 24.17684934972144  25.56289727895331 33.76099294446186 23.53690716493347  25.51669186600563 35.23603804945733 23.61879393837657  26.48147964477539 31.06254005432129 24.15999031066895  26.09056091308594 30.9357795715332 23.41942024230957  26.84757995605469 31.03432083129883 23.48229026794434  25.74511909484863 39.89572906494141 21.83357048034668  26.57823944091797 39.89572906494141 21.31856918334961  25.60160660919305 39.37699778387992 21.13301053595379  25.46301691086573 37.5947320124515 17.86218903908982  26.22489692886492 38.3253427794604 19.27331983332867  25.86049646607517 36.79335982193653 18.07037450661636  25.13526456474428 36.91049170609065 20.78220999997725  25.90271940491948 35.825435076527 20.20751673191841  26.56755558904849 36.6095094773868 19.77147586485091  22.60185551512045 35.72524932264717 17.30794089164861  22.60290419854847 35.40082381203133 18.64998108964008  22.06072697150293 36.12899368996842 18.34882758887361  25.90640663013887 32.86500214264544 23.84731991706083  25.46132450743143 32.41130624043251 22.54594392263798  24.72359083095978 32.96663135784319 23.12159389489219  24.73102378665566 36.82239637877098 21.82340129708385  25.52459907531738 31.12636947631836 23.93000030517578  25.00107955932617 39.89572906494141 21.26321983337402  23.66135025024414 39.89572906494141 16.97417068481445  24.77622032165527 39.89572906494141 16.9734001159668  24.28681945800781 39.31394958496094 16.06302070617676  25.04541971308158 38.811782548974 17.04333431772609  22.34383964538574 38.80831146240234 16.05525970458984  23.20828056335449 39.20940017700195 16.02384948730469  22.85592079162598 38.7147102355957 15.04673004150391  22.75045467917782 38.08692456536404 16.55042862030315  22.22611045837402 39.02405166625977 19.62191009521484  22.19706916809082 38.29478073120117 19.59815979003906  22.02732086181641 38.87408828735352 18.72015953063965  22.8471301762598 38.79957753356825 18.53099808306894  22.81300926208496 39.25444030761719 20.234619140625  26.13141568808748 38.87360659016029 17.43425682479537  25.45604343855128 37.34572010650662 17.12901450743968  25.6273193359375 36.02120971679688 17.91060066223145  25.18976974487305 36.10639953613281 17.03216934204102  25.83057975769043 36.28197860717773 17.13109970092773  25.30155211730825 36.55832913493057 17.49239801118415  21.84086990356445 37.77400970458984 17.55686950683594  22.31198339658232 36.8796431774166 16.95442468784631  21.93131065368652 38.4930305480957 17.90411949157715  22.03224945068359 38.72929000854492 17.04800033569336  22.94889819620044 38.85558315286613 17.49018640624011  26.05719947814941 35.95917129516602 23.58267021179199  25.32798175621754 36.35412777710189 23.33089014257267  27.6866963160885 38.96692248179335 20.17780090075039  26.91702299394765 35.94163864231965 20.9317494188825  27.66039646449561 36.35320608905038 20.12361622209484  26.51234761462071 38.24345481649316 16.36321126414685  25.90681205596962 37.88486128695553 15.44435234795699  25.04350090026855 35.83633041381836 16.16610908508301  24.93527610234537 36.84497318470255 16.91778781389147  24.30987142015785 35.9703350803172 17.25388633809973  24.66883087158203 31.71175956726074 22.53701972961426  25.87813949584961 39.89572906494141 23.42719078063965  26.39234924316406 39.39760971069336 24.1729793548584  26.77149963378906 39.89572906494141 23.11417961120605  26.2477071187516 39.04049613653211 23.28875584411561  24.12469887630122 38.340681383191 17.32476402647494  24.05334267683586 39.13693828557572 18.45750277794259  26.54096031188965 37.42465972900391 23.22961044311523  27.23444938659668 37.99057006835938 23.17503929138184  26.42876076919821 38.60642077610393 22.72192854744007  26.49707984924316 32.98640823364258 20.95521926879883  25.93276977539062 33.64315032958984 20.62618064880371  26.48961067199707 33.89434814453125 20.75021934509277  25.61063886956829 33.87721325045243 22.3490144783796  25.76389673066458 34.40836044228546 21.20466431932395  24.64742681441241 38.6602652317487 19.79408542500273  25.27375181283183 38.88419577085549 18.60696818920382  27.19101905822754 39.18193817138672 23.631
[...]
<PointData  Vectors="u"> 
<DataArray  type="Float64"  Name="u"  NumberOfComponents="3" format="ascii">1.7752591501477866e+00 2.6450106163696225e+00 9.3511497473220451e-01  3.1437159420505001e+00 2.7566923863031154e+00 8.2305337983277060e-01  2.3319067699719258e+00 3.7944593269241369e+00 8.6245921816039750e-01  1.6182256408172178e+00 2.6215444660062555e+00 9.7318769894214541e-01  1.0421763319719621e+00 9.2248305621230919e-01 1.2576438931408096e+00  1.3148649152896073e+00 1.0279395690360880e+00 7.8538110717351683e-01  1.3151047447250597e+00 4.4661525822409581e-01 6.7583598603309469e-01  1.6387206247653980e+00 1.2748653039797753e+00 6.1148018960597150e-01  2.0373166050914593e+00 -9.1773830066057466e-02 3.1490107012451513e-01  1.9614600958030342e+00 -7.7763078994586884e-02 -1.6124351338207810e-01  2.4472553141955826e+00 -9.1203709854678974e-02 6.9839021109397867e-02  2.1325707744684101e+00 1.4120825779198740e-01 1.6393930489603178e-01  5.5079106497549581e+00 3.8889528017017185e+00 2.4390314132327376e-01  3.7283892339870874e+00 5.2266477524162154e+00 3.3215398372654020e-01  3.7643068181047332e+00 4.1987466044494308e+00 9.7871363609835382e-01  4.2612651498721030e+00 4.0103367690319081e+00 1.4050581494293739e+00  1.8924752209936322e+00 -2.5731292646732068e-01 -9.9760559180434949e-01  1.7293090491705287e+00 -4.6870113190699564e-01 -1.1733909438970684e+00  1.3947300828080640e+00 -5.1011986151246502e-01 -1.1011610382599351e+00  2.1175885551659954e+00 -5.7302705653669106e-01 -1.1109581818779342e+00  5.0844279110839343e+00 3.5537128576537809e+00 8.9429283095180223e-01  3.6314249027063958e+00 3.0035634520451038e+00 1.4338260887403311e+00  3.4070465148818250e+00 1.3187685074009674e+00 4.1505074150722271e-01  2.5175786346922692e+01 -1.4558285241976836e+00 -1.3413897154800994e+01  2.8708429194646808e+01 -3.1713527764909086e+00 -5.9260271427977909e+00  2.8186601535016898e+01 -4.7054038026499656e+00 -1.2617479241376140e+01  1.9256908819437832e+01 -4.1320695088472288e+00 -1.3792427363317255e+01  8.9989079988480576e+00 2.5393651238677037e+00 4.9299657899915195e+00  6.1445694542361213e+00 1.3065386500672447e+00 2.4214535865345064e+00  5.6097799092801575e+00 2.8722763777861307e+00 5.4338810806298827e+00  4.5638941271974325e+00 3.6464726626878372e+00 4.1077990281134520e+00  3.2842976533553503e+00 -3.1285821209099873e-01 -1.0705994961349459e+00  2.7512819438719451e+00 -9.8109572970029729e-02 -9.7803317137022250e-01  2.7194503985198426e+00 -5.7603264084613814e-01 -1.0355421077327243e+00  3.2821057096175972e+00 7.5423065210270457e-03 -3.8730372567191668e-01  1.9806882456738666e+00 -9.4333055084173045e-01 -1.6299675727690994e+00  1.5056323625418020e+00 -8.0015592427492599e-01 -1.6992181563348001e+00  2.6978744803792449e+00 -2.3655099509021942e+00 -2.1785601373655035e+00  3.0495290625817755e+00 -1.0517282895784676e+00 -8.8196958164201289e-01  3.8118454856177904e+00 1.1842541237259818e-01 -9.6268406069512702e-01  2.5956895111135898e+00 4.3466459046886891e-01 -6.2224909238543791e-01  3.3930689344537126e+00 8.8824088853352723e-01 2.6693126469170231e-01  2.5002904802624424e+00 3.6472950341894400e-01 -1.1350308350752469e+00  1.1548663451263321e+00 5.6691789270158088e-01 -2.8406009663545744e+00  2.6346974134570207e+00 -9.4804641570606189e-03 -2.9652095102494296e+00  1.6317469457951299e+00 2.6751127935429386e-01 -1.2700763467198093e+00  2.4213963077324379e+00 2.8018682146599472e-01 -1.7541811067750037e+00  2.3511543913359021e+00 -2.7406421775174994e-01 -1.3901021931145099e+00  2.3840419277989708e+00 -4.5438625357404200e-01 -1.1310279419170761e+00  2.3516577328307444e+00 -1.5510775905136093e-01 -8.8586271811770023e-01  2.1255545502588387e+00 -3.3025345235402981e-01 -1.4573164675910382e+00  2.6293499146435217e+00 8.8893160465023591e-01 2.7141937464943278e-01  1.4270496087919784e+00 6.8864454798302444e-01 -6.3097375352421958e-01  3.5949053482697160e+00 3.1173748186098210e-01 -1.8905891455227724e+00  3.0016232353900034e+00 -2.2624317681163250e-01 -1.3302336018458960e+00  3.5226362370524633e+00 -1.2854388186559811e+00 -1.8913214387492046e+00  4.1999641557541771e+00 -1.2267891355801537e+00 -1.2558117810738647e+00  4.0969002178807177e+00 -6.6590109906839812e-01 -1.3006950861716762e+00  3.5704827613126819e+00 -8.5524829423906079e-01 -9.6905632225343585e-01  3.9030661595379712e+00 -7.2585852339911772e-01 1.1800869448187239e+00  3.5315795777760397e+00 4.0830092020822600e-01 8.8742919095048389e-01  4.2667555695857056e+00 -2.1734269375077244e-02 4.6221177149648734e-01  4.1306671593229636e+00 2.0968095880102972e-01 1.4947864304216936e+00  3.2813989954429101e+00 5.2785335714955268e+00 1.4341631311111853e+00  2.9302996432689215e+00 4.9154059118015407e+00 9.3946120215645246e-01  3.2827829268911364e+00 4.1290766163651060e+00 1.2177420078921100e+00  3.0453168632132925e+00 4.4955724636454564e+00 8.7757198669138403e-01  3.0341933938774273e+00 -4.1833580389049954e-02 -3.8551560067603607e-01  2.2429774419917616e+00 2.5665824615005804e-02 -7.8553241631743176e-01  2.3333555128378398e+00 1.7439597712099728e-01 -2.8582209089689187e-01  2.3845082383205103e+00 3.2053811853413866e-01 -5.9037123628638621e-01  3.8843348913167595e+00 -1.2363356746429661e+00 -4.3219426878770308e+00  5.2035802755349128e+00 -9.4234852788306300e-01 -5.6721266561109340e+00  6.7195444031491425e+00 -1.9432219317265911e+00 -2.0002940485569947e+00  5.6162970800353316e+00 -1.4738050729776171e+00 -2.0075127578676222e+00  1.0263628274802670e+00 1.7822553963235116e-01 8.9050302874495668e-01  1.4496319077503514e+00 -3.4136891140181716e-02 6.1234664621630441e-01  4.2796825088091213e+00 -5.6406423940805694e-01 -1.3995556754164291e+00  3.8503780364582858e+00 -5.3052245240594886e-01 -1.4881971346735197e+00  5.6495570016215497e+00 -7.1009166164479842e-01 -6.7489597997763706e-01  2.2169108698846123e+00 3.6545988647598890e+00 9.0050214336306078e-01  2.6965074539517957e+00 3.9169029341332697e+00 8.5323138359955819e-01  2.6664463256321276e+00 3.4288361993977170e+00 6.9404808912947169e-01  2.1658146334232229e+00 2.1276546519521324e+00 9.3988505379037091e-01  2.1557879845511212e+00 1.6352526708253083e+00 9.0101713363131652e-01  5.1118193679469193e-01 1.7737518165891070e-01 -1.1555202047333706e+00  3.5569996753854138e-01 2.4295391258618632e-01 -1.1341020985507730e+00  3.3729908748772613e-01 6.2299565716358585e-01 5.8513868427522930e-01  1.3566511529199945e+00 6.3194506263463224e-01 -2.4282514146487175e-01  6.1556562414479234e+00 -1.3334466400088700e+00 6.9781991117448987e+00  7.1835578472856145e+00 8.8695069279871745e+00 1.0486964417151320e+01  9.8014661334443272e+00 6.6720837006623024e-01 4.3511181300019555e+00  2.7103901691148198e+00 1.9092018263036590e+00 1.0788031516355834e+00  2.7730474289035718e+00 2.5449149787940701e+00 7.1685001458982400e-01  3.7438580518645015e+00 2.3934570257920882e+00 1.1466539610777573e+00  2.4637502648049807e+00 2.9247738902752491e+00 7.2212132834611586e-01  4.0647242653025080e+00 2.0209337935837919e+00 3.0344822958468796e+00  4.8766415267465684e+00 4.2292626715964161e+00 3.9630447903993224e+00  4.4411191335536868e+00 3.1034912638460197e+00 3.3137073624018898e+00  7.5321859406886682e-01 8.8729763668252859e-02 -1.6963117270465009e+00  3.8012393976742098e-01 4.2583127462539744e-01 -8.6413970908271787e-01  4.2230891832179124e-01 1.4015142941260814e+00 7.3699520941278540e-01  2.9487941591244633e+00 -8.4267252325931075e-03 -1.2151240918478592e+00  1.4448439786859801e+00 -1.5692990202528495e-01 -1.4653523788906475e+00  2.2123653718651011e+00 -1.2427738482454445e-01 -9.2094743742681096e-01  1.5719672894460746e+00 -1.0098270346997709e-01 -1.6993254540803531e+00  2.0056110049402887e+00 2.3473688259381187e-01 -3.7628917702611315e+00  2.4921498517294891e+00 -1.6504906374294015e-01 -1.2376206393981721e+00  5.9736362037562465e+00 -2.6299198978569460e-01 -2.6910741277677683e+00  1.9556039564502763e+00 -1.3603916620157908e-02 -9.2305543128964340e-01  2.1628435166478868e+00 -1.2886906709480575e-01 -6.5777370169067917e-01  2.0874432294989060e+00 1.0113020181935252e-01 -5.1694276870352396e-01  3.3904396427073604e+00 8.9130908057932634e-01 4.7737987027632645e-01  2.8818418425632433e+00 3.4910644099439575e-01 9.7135266943415136e-02  4.4938073375545269e+00 8.9321281873269653e-01 2.2771174673159142e-01  2.7322546413716280e+00 1.1763999623407999e+00 4.0007959958645695e-01  4.6088144304880201e+00 1.3780525523352403e+00 7.3072530171544903e-01  4.1972619571742076e+00 1.8930083531662237e-01 -9.7462162011252212e-02  2.6145966415864352e+00 4.3244536972350476e+00 5.7517705906902217e-01  3.2577052402786899e+00 4.4814989943646673e+00 7.8913399467551093e-01  2.9301281897125402e+00 4.6668833428329579e+00 5.7677696760935360e-01  2.2925169844552302e+00 -3.7586533775641157e-01 -1.5992267298856315e+00  4.0306145590654054e+00 -1.4995702481929879e-01 1.6725849614127302e+00  1.7056647990116240e+00 -1.4250509399487993e-01 9.9860100487352799e-01  1.8802050643453976e+00 8.4808752746695382e-01 7.6971908661212410e-02  1.6339107640699182e+00 -5.2786150565527756e-01 -1.9999852129979898e+00  1.5364085982163860e+00 -2.4813651260583530e-02 -5.3898631071672432e-01  1.4217390064346016e+00 4.0500985485160085e-01 6.9184124578358375e-01  2.4107381286913796e+00 5.6292208619839856e-02 3.1016646178141549e-01  2.3966935035180605e+00 9.6576228761388883e-01 1.0134984652207755e+00  2.6472787562565570e+00 7.3587594607942897e-01 6.6107626903992023e-01  8.6445860925531515e-01 1.4253793462175237e+00 1.1821542831396585e+00  1.4557534121815869e+00 9.9441811065142816e-01 1.1659507140745260e+00  1.4580483222591927e+00 1.2234453973959458e+00 9.8112312548316494e-01  1.5920945194955465e+00 2.1151603976376085e+00 8.7325654915990014e-01  5.5436001878604046e-01 8.1660759932144100e-01 6.3235299107300935e-01  3.4384364376868432e-01 1.7302172676087730e+00 9.2278705505752023e-01  4.3203278562189584e-01 1.1574510604397474e+00 8.7227815078541293e-01  1.1197391218105404e+00 1.2394633463706508e+00 8.5860347189570452e-01  1.2864378817065090e+00 5.7121275921832837e-01 8.9185139996444029e-01  2.8276377323683790e+00 2.9108755903127104e-01 5.8675224859171604e-01  3.8083195407452801e+00 1.0805396709387607e+00 6.0113591676559430e-01  6.3288248023632105e+00 2.8631133584763329e+00 6.8740727697831183e-02  5.0758214624823186e+00 4.7588637090013952e+00 2.2341161057546102e+00  6.0935611790746878e+00 -2.0900596120125489e-01 7.5430765307160919e-03  5.0448912336310956e+00 2.3563189432394775e+00 7.2582486762438725e-01  1.2845422070512267e+00 3.2568829041509377e+00 1.4583317056471279e+00  1.9614920167556646e+00 3.2778863193443466e+00 7.2528437803044077e-01  4.0203389473657297e-01 2.0309145507994599e+00 1.2434193947484418e+00  6.7167198861839006e-01 1.7632320565676536e+00 1.3207110985067219e+00  1.1817150985644351e+00 1.3491533903219941e+00 9.4537461942168266e-01  1.6193654515158056e+00 6.4575172067128386e-02 -3.1034965030805259e+00  1.6300532897790474e+00 2.2209553715328606e-01 -1.6268899276343045e+00  2.6213568214221334e+00 -1.3525129590662582e-01 -4.6367675335446124e-01  4.3226309990806771e+00 -1.7700862994041522e-01 -5.4061834850620261e-01  4.1432959366719597e+00 -1.0719149567107733e+00 -6.2141198240860196e-01  3.1174085308105930e+00 2.9905421638778418e-01 9.1336137599840062e-01  3.3161220418529180e+00 7.5848630002502926e-01 1.3583285781302714e+00  3.2715322520966548e+00 4.7235148049821669e+00 5.2411561509540849e-01  4.0625820107918065e+00 2.3631720458138727e+00 8.6600887840587304e-01  3.1676931045373609e+00 3.8822126246630666e+00 1.1482980526678230e+00  2.4183454694876763e+00 -1.4965179797328572e+00 4.7310403017576430e+00  2.0273045655923214e+00 5.0010166125318251e-02 -1.9820239109311486e+00  1.8630264302468991e+00 -3.0491071028208072e-01 -3.5247122977986094e+00  1.9842144545937195e+00 5.1428915780892967e-02 -1.4351480704459034e+00  2.2174094925593071e+00 -8.3932770527021360e-04 -1.9193638375770541e+00  2.3477538444571056e+00 1.4264192667958919e+00 7.3869878930545518e-01  1.9129547104963553e+00 5.5774453235105326e-01 7.0090453215503712e-01  3.1837223257903018e+00 -3.9938423821124586e-02 -2.2448517569600428e+00  2.8106909343099722e+00 -4.0183098731623423e-01 -1.2522547695422312e+00  2.3164395170329111e+00 3.8965782176658456e-02 -1.3385063984974981e+00  8.9937024404022292e+00 -3.0791431784868328e-01 -5.5483492467105089e-01  8.0131907612216366e+00 1.8416843775626246e+00 4.6037548691550843e+00  8.1343469829829740e+00 1.9749920209344737e-02 -1.9535734628679355e-01  3.8293661583147798e+00 4.6662802822476984e-01 4.7472135191045250e-01  5.2250024735815508e+00 1.2606179681646295e+00 1.3289466121158304e+00  1.9711470527098736e+00 6.7151812431581415e-01 4.5278749001825008e-01  2.5266341775115007e+00 4.5017710304747799e-01 5.1675943083732634e-01  2.5170216165602515e+00 -1.4767085301940114e-01 -1.7175766991634462e+00  2.7752018426113403e+00 -1.4351045989624014e-01 -1.8258535430733251e+00  -8.5951879161636144e-02 -4.9170769674041692e-01 -6.1073120018818294e-01  4.6441066979179652e-01 -5.6530107809050989e-01 -9.2862111338559128e-01  3.9819531043373357e-01 -3.8955867608607886e-01 2.1757712419416588e+00  2.5086448016384280e+00 -1.7920617530264896e-01 -2.7445190818526006e+00  3.8976520286041167e+00 -8.6948835233230071e-01 -1.9237886992221471e+00  4.3262730824705287e+00 -1.3162456059760219e+00 -1.7236466369089474e+00  4.4817374551681057e+00 -7.1221404197102789e-01 -1.4873419004051918e+00  2.5741061047840392e+00 1.1415871606833548e+00 1.2877406497278958e+00  2.0429383975833248e+00 1.5945498993954588e+00 1.6736914583937168e+00  2.8775800826900801e+00 1.9676438029740355e+00 1.3515129673089228e+00  3.2491844758286086e+00 3.7510392547580711e+00 1.2132448665387796e+00  4.0813548293994630e+00 4.3303848744354312e+00 1.5769003781985816e-01  5.6155412718515558e+00 1.9469741345742761e+00 6.7918817591666869e-01  5.9790541873655405e+00 -2.5486928027428646e-01 -2.2223837507360297e-01  1.9570721228459076e+00 4.5226663978441645e-01 6.3370006557246239e-01  2.5469132028429251e+00 4.1579545271193824e-01 -2.7496907169819900e+00  1.9725698127377767e+00 1.0859781685232843e+00 3.0864680854144573e+00  4.0135456181383704e+00 2.4756918103586543e+00 3.7473950560833029e+00  3.6501622369936526e+00 2.1828574527415308e+00 1.6670262512633574e+00  1.8015680835611905e+00 -9.9124488319221465e-02 -2.7989428013108029e+00  1.7868612977153988e+00 -5.7919030738752075e-01 -6.6272823062167352e-01  2.3288973165329709e+00 1.5345036733400861e+00 1.0303420742357869e+00  1.8786109159217195e+00 2.5489201114918654e+00 6.3757121785446924e-01  1.7558631970264267e+00 1.8237570947879238e+00 1.0181147883009465e+00  4.9829006917453817e+00 3.7366828047680856e+00 2.2578308954518516e+00  3.5745378915108832e+00 4.5658901267034500e+00 1.8911606904246825e+00  5.8390502532794279e+00 1.4772827209712545e+00 1.1437382603763404e+00  5.1551988132395126e+00 -4.2471811536502635e-01 2.1372854781436583e+00  5.2877309788037232e+00 3.5443600051698132e-01 2.0301842780801713e-01  2.7822377726457606e+00 -3.2162611805927438e-01 -7.2604619251292923e-01  2.2061086587641894e+00 -5.7730306916706031e-01 -8.9333266560147073e-01  2.4668983531425495e+00 -4.3521864695580798e-01 -1.5014200375096796e+00  2.6624383496504476e+00 3.1741299800526876e+00 1.7472162108104290e+00  2.5694820794420750e+00 3.4801968734252045e+00 9.8841607281686339e-01  2.8754659974692274e+00 2.6722453659540291e+00 1.5369981659692054e+00  6.3283258152617661e-01 4.3007768801532892e-01 7.2188297644401322e-01  2.5414538103019202e-01 3.0434876034151376e-01 9.9191088861169133e-02  7.8971543614217177e-01 1.7079818480406808e-01 8.4065243609640328e-01  1.3498089532069095e+00 3.1889090145503340e-01 -1.3195526241578273e-01  3.5826663880022164e-01 3.1520953306106969e-01 -1.1274249688529528e-01  3.6393398682059885e-01 7.7325867809860938e-01 7.1246467961514182e-01  2.8061104195961106e+00 2.5032638719870187e-01 -1.4586665975910809e+00  1.6899038645012463e+00 3.0577670274153252e+00 4.9745009586964162e-01  2.6055105866989101e+00 4.1357545020170576e+00 5.8208391732088693e-01  1.6503867891148027e+00 -7.7025754056075479e-02 -1.0334363696896249e+00  6.6027189243279558e+00 5.2240551129079673e+00 7.7069942613709914e+00  2.0044233593737215e+00 8.0390071227593811e+00 5.5700611502045332e+00  4.6108186311984829e+00 6.1030294692638698e+00 4.7280475959958661e+00  2.0106097538175018e+00 -8.0787113585181258e-02 -1.2940573396243460e+00  2.0996386162087903e+00 -7.0580300166289980e-02 -1.0541059842727909e+00  3.9664130554324486e+00 -4.2151215959001523e-02 -2.4333660176860983e+00  2.7872753535012040e+00 1.3436021910160528e-01 2.3847472765914807e-01  3.3513258751615540e+00 -6.0255440693776408e-01 -1.2296705783221368e-01  5.8920073063504896e-01 3.0115029904539997e-01 -1.2739446978625173e+00  1.3409906707045740e+00 1.0663038701699842e-01 -1.5784983749758958e+00  1.3879259530392183e+00 1.8100358574285291e-01 -1.7227575528830190e+00  6.1066723280455131e+00 3.8092927943697918e+00 2.8578656234622413e+00  5.6422632789747382e+00 3.3408210833747005e+00 2.8308705664773277e+00  2.3071223889647207e+01 9.0432693988756352e+00 -1.6960814420309060e+01  1.9459220286281123e+01 -9.0957081395381689e-01 -6.6580118653214155e+00  1.0992949319155551e+01 6.2060976225329458e+00 -1.3255455209968359e+01  1.5947946450828590e+00 2.0174229316656986e-01 -1.7258243851394099e+00  4.1853636441958075e+00 4.5237652709509488e+00 1.2466536766024243e+00  7.2575957317645912e-01 -6.2687056149187670e-01 -1.7123384382690869e+00  1.1289692557583015e+00 -1.1380087129710765e+00 6.0013696202596412e-01  6.6884854939129292e+00 6.5034453273890263e+00 8.6652473370424481e+00  6.9992066772540786e+00 3.5002479355621579e+00 1.1994070596324361e+01  6.0497633291853230e+00 3.6671534804143437e+00 1.2145793250899062e+00  3.5376993995226984e+00 2.8382132456782325e+00 7.4820520844846017e-01  1.3095281865385078e+00 -1.3101258405533597e-01 -2.0182900023227730e+00  1.1448074550072131e+00 -3.4534905420980416e-01 -1.2692753214534400e+00  4.2655565162633398e+00 3.9072609072596789e+00 3.5652688741648451e+00  1.7518160116090167e+00 1.8774726749008244e-01 -9.7753398501427569e-01  2.1762004713291621e+00 5.1791816049784800e-01 -1.0693939352517069e-01  1.9766164855955477e+00 -3.8061357179074842e-02 4.7853061820839515e-01  1.8233328904277839e+00 -5.9526826800379518e-02 7.2648936624553972e-01  5.3746737311625656e+00 -1.1647867187969578e+00 1.6216925559759889e+00  4.7975508969259426e+00 1.3410511562245325e-01 -4.9878486429529706e-01  6.8196192519417425e+00 -8.7540029602727842e-01 2.6204275928778559e-01  6.6712891259895493e+00 6.9980004985832012e-01 9.6969798871867063e-01  7.6435032498823716e+00 -6.0164654433618081e-01 -1.4269638701035974e+00  6.7391511947335774e+00 -1.9310271015889557e+00 -1.5760535168755456e+00  6.4737000631828314e+00 -2.3117346127645347e-01 -7.8023235306111316e-01  2.7737287786690590e-01 -6.7022283424401130e-01 -2.3740044442256525e+00  9.5178600409910286e-01 7.3567861082690500e-01 -2.7853961672686220e+00  5.0118038355458960e+00 -2.7529352426730674e-01 -9.3233944527649693e-01  4.8818830444235184e+00 -7.8702473668417983e-01 -1.2298862320823623e+00  1.9446802519326589e+00 9.9412746726623813e-01 7.9399433474253467e-01  5.5467372520650162e+00 -8.8538293526037060e-01 -1.4785600572706115e+00  1.2662644019929976e+00 3.9879246042448036e+00 9.1560065250812550e-01  1.3718522671173479e+00 4.6688946263415900e+00 8.4614339252887427e-01  3.2266264682893349e+00 4.9550647066841798e+00 2.7303258451893280e+00  4.1139726285372298e+00 4.1536949366703384e+00 2.7909555392836638e+00  2.3212401640466243e+00 -9.1714099063578650e-02 6.0915753945725415e-01  2.7743534726619470e+00 -6.8669637022169923e-03 7.4821860600424617e-01  2.7332840735310584e+00 -6.9242371379724388e-03 8.8876087364665779e-01  3.2696849807360886e+00 1.1939389468903383e+00 1.0142201236417971e+00  2.1634708271176155e+00 -9.6147439166787502e-02 -8.2904170215965434e-01  2.2571088346239820e+00 1.3823672400403849e-02 -1.0762314237714603e+00  2.0403160353758389e+00 3.4106940942867747e+00 1.3585906135746633e+00  7.1058251358294040e+00 2.2550792989159443e+00 2.8575617068095669e+00