<?xml version="1.0"?>
<VTKFile type="UnstructuredGrid"  version="0.1"  >
<UnstructuredGrid>
<Piece  NumberOfPoints="4794" NumberOfCells="19968">
<Points>
<DataArray  type="Float64"  NumberOfComponents="3"  format="ascii">2.319084882736206 25.79446029663086 16.29328918457031  1.404997944831848 25.36783027648926 15.98567962646484  1.160062618164561 25.32611551945532 16.97554802771234  1.626244933336919 25.73929793442373 16.49398204005364  1.84749192184199 26.1107655923582 17.00228445364244  1.218430042266846 26.08836936950684 19.1830005645752  2.099488973617554 26.13912963867188 18.79987907409668  1.558058977127075 25.34952926635742 19.24385070800781  1.430958115020188 25.69288760818358 18.63058627862773  1.261143647590074 26.06230765975829 18.60016120691142  1.303857252913302 26.03624595000974 18.01732184924764  7.709475040435791 16.92023086547852 1.208433985710144  6.275257443847663 17.58606145137562 1.580503929689954  6.620324783656835 16.45719706094035 1.392244824496543  6.807947796891263 17.06189184446346 2.294280549240538  0.6356099843978882 26.66990089416504 16.22967910766602  0.6254609823226929 27.34366035461426 15.67945957183838  0.97986025295676 27.33060577935295 16.18390909982328  1.014917969703674 26.86138534545898 15.93089962005615  1.334259523590827 27.31755120409165 16.68835862780819  1.364242739300144 27.18521050042229 16.16023938012724  1.39422595500946 27.05286979675293 15.63212013244629  1.133424613066681 26.8151167738113 16.79567105468431  1.349193281750095 26.79647568291741 16.35845963311796  0.7840998434702116 26.491291618848 16.56633129461323  1.148358371225949 26.29404125263706 16.46577205999409  0.9998685121536255 26.4726505279541 16.12911987304688  1.364127039909363 26.27540016174316 16.02856063842773  0.9325897025425348 26.31268234353095 16.90298348156044  2.111289024353027 27.36318969726562 16.21805953979492  2.010757923126221 26.61687088012695 16.37278938293457  7.062335014343262 17.16021919250488 0.6105520129203796  7.346227169036865 16.00193023681641 0.672448992729187  0.09939099848270416 27.29903030395508 17.16399002075195  0.6735957796590708 27.14879316017179 17.42666609888204  0.5159903505126195 26.80585632374301 17.0334867511562  0.7168252610367657 27.30829075402336 16.92617432428007  1.247800560835437 26.9985560163885 17.68934217701213  5.925182145093587 16.59335283513853 1.996827389212558  5.785522937958 16.98444788956322 1.154769427464304  0.7613639831542969 25.85691070556641 16.12891006469727  1.262094829036962 25.80075784059924 16.50205433307004  0.9607133006594287 25.59151311251086 16.5522290462048  0.09939099848270416 27.1452808380127 18.14011001586914  0.5068065785530007 26.65820814323283 18.11756962148437  0.5068065785530007 26.95190359306194 18.38074940053711  0.09939099848270416 26.72556495666504 18.2185001373291  0.09939099848270416 26.85158538818359 17.87693023681641  0.09939099848270416 26.30584907531738 18.29689025878906  0.5068065785530007 26.53218771171428 18.45913952199707  0.09939099848270416 26.43186950683594 17.95532035827637  0.09939099848270416 26.55788993835449 17.61375045776367  0.9142221586232973 26.75852634811117 18.62138878520507  2.114031076431274 26.88132095336914 18.39757919311523  1.506855566120425 26.44882799339153 18.71063392965088  1.708944164672288 26.45878345168944 18.20745052118144  1.514126617527286 26.81992365074016 18.50948398916015  1.367465019226074 26.90043067932129 19.16311073303223  1.066326100445071 26.42344785880901 18.90219467489013  0.8538780697348511 26.61153818321086 19.01555412618408  1.08049950003624 26.68249034881592 19.28641510009766  1.29294753074646 26.49440002441406 19.17305564880371  0.793533980846405 26.46455001831055 19.40971946716309  1.841605961322784 26.03493022918701 16.16092491149902  1.605809480875676 26.19308287705068 16.51542254603509  1.755604982376099 27.5781192779541 18.70199012756348  2.277177095413208 27.59124946594238 17.7979793548584  1.501702771605768 27.2883376471713 18.19566615228781  0.09939099848270416 27.69597053527832 16.43749046325684  0.7168252610367657 27.50676086968499 16.56292454553251  0.3624259904026985 27.51981544494629 16.05847501754761  0.3675004914402962 27.18293571472168 16.33358478546143  0.09939099848270416 26.71468925476074 18.98044967651367  0.5068065785530007 26.73660780143596 18.80091923085937  0.09939099848270416 26.51026916503906 18.63866996765137  0.09939099848270416 26.92998504638672 18.56027984619141  5.754658288726566 16.11185919225989 1.105286410406502  6.320205211639404 16.51349067687988 0.1048400029540062  2.71489691734314 26.32736015319824 18.18394088745117  2.610476970672607 26.66997909545898 17.65760040283203  2.504007411360877 25.92656396248259 17.79043272595611  7.217591468136762 15.86332378390937 2.320449355412788  2.658444881439209 26.31623077392578 16.95796966552734  5.431158065795898 19.50534057617188 8.2257080078125  5.135047912597656 20.40653038024902 7.67583703994751  6.629654135003547 20.5358516711255 7.916129026906521  5.833075014261865 21.14516533936432 8.414525997000135  2.308657884597778 27.01983070373535 17.01896095275879  3.234200954437256 26.05209922790527 17.55653953552246  5.112589836120605 17.5400505065918 2.260210990905762  5.492682933807373 16.86235046386719 2.585437059402466  5.227743148803711 16.75157928466797 1.81926703453064  5.507089138031006 16.2437801361084 2.494242906570435  6.2353483340635 16.41998289487541 2.819949435756182  0.09939099848270416 25.66197967529297 17.74770927429199  0.7016241256980029 25.84911281265136 17.88251556176982  0.7016241256980029 26.29706794418212 17.81553615350566  0.09939099848270416 26.10993480682373 17.68072986602783  0.7016241256980029 26.17104751266356 18.15710605401835  0.6832230091094971 25.71640968322754 18.91394996643066  0.9935401310113994 25.87632781661864 18.46563590783915  0.3913070037961006 25.68919467926025 18.33082962036133  0.3913070037961006 26.01112937927246 18.60542011260986  0.5159903505126195 25.98733100941196 17.32534637792622  0.09939099848270416 25.66921997070312 17.22473430633545  0.09939099848270416 26.01572513580322 17.37087917327881  0.09939099848270416 26.36947059631348 16.99404907226562  0.5159903505126195 25.99457130482212 16.80237140996967  0.5159903505126195 26.34107646992221 16.94851627691303  0.09939099848270416 26.02296543121338 16.84790420532227  0.09939099848270416 25.67646026611328 16.70175933837891  0.8469768428484159 26.08479652454868 16.51594677312885  8.089752197265625 16.87285995483398 2.162849903106689  7.995903015136719 16.10844039916992 1.524005055427551  7.21765761378384 21.38179845391299 8.880501959658798  6.315930008713635 20.29872505255518 9.315721348030022  1.590875722716409 26.71415839822492 16.84532154072531  1.471673812834378 26.46477661182895 16.63788643224751  0.09939099848270416 27.7210693359375 18.89257049560547  0.5068065785530007 27.23979784202434 18.75697964040527  0.09939099848270416 27.21787929534912 18.93651008605957  0.4410354867577553 27.46905994415283 19.16664981842041  0.7826799750328064 27.21705055236816 19.44072914123535  0.8484510668280518 26.98778845023967 19.03105896322021  0.4410354867577553 26.96586990356445 19.21058940887451  0.7987225838663972 26.23746801566936 18.76766937581787  0.738378494977951 26.09047985076904 19.16183471679688  8.397353172302246 16.09149932861328 2.38564395904541  0.3675004914402962 26.17318058013916 16.46571922302246  0.4303774908185005 26.11319065093994 16.56147956848145  0.3675004914402962 26.51968574523926 16.61186408996582  0.6984869837760925 26.26340579986572 16.17929458618164  0.4303774908185005 25.76668548583984 16.41533470153809  5.047169208526611 16.49234008789062 1.172032952308655  0.6297268083236324 25.49404759737414 17.36162865100217  0.6297268083236324 25.5012878927843 16.83865368304562  0.3675004914402962 26.98446559906006 16.69683456420898  0.09939099848270416 27.4975004196167 16.80074024200439  5.695388793945312 19.5301399230957 7.252917766571045  6.459230188176509 19.04919157074015 8.53780434676003  5.160322189331055 16.09646987915039 1.736073017120361  5.922110080718994 18.71879959106445 7.803921222686768  0.09939099848270416 25.14311981201172 16.99140453338623  0.6297268083236324 24.96794743868274 17.12829887805295  0.6735957796590708 27.0719184272006 17.91472609644064  0.6735957796590708 26.7782229773715 17.6515463173879  7.533970674568762 16.90272633713456 3.07933062409419  5.050581932067871 17.51980018615723 1.053241968154907  5.342389106750488 16.48283004760742 0.6215800046920776  1.957167111792955 26.35311252273436 17.83746112603984  6.02054500579834 17.49377059936523 0.1048400029540062  5.500008432632395 18.18068450392259 0.9580799873859316  0.09939099848270416 26.46368026733398 17.30389976501465  0.5159903505126195 26.43528614094272 17.25836696966206  0.09939099848270416 26.83425045013428 17.07901954650879  1.805718309502018 27.45440033501702 17.24316899133329  7.77174979742095 19.87771146066953 8.926403541802012  5.660479068756104 16.61421966552734 3.504250049591064  1.107981281340769 25.37306172929057 18.06832460375007  0.3601904883980751 25.28778553009033 16.45921993255615  0.620989978313446 24.89911079406738 16.2166805267334  0.09939099848270416 26.92846012115479 17.38887023925781  1.334913570499698 27.16832281303264 18.66168945638427  1.733476996421814 26.51978015899658 18.98149490356445  0.09939099848270416 27.4331750869751 18.5163402557373  0.7881069779396057 26.84080028533936 19.42522430419922  0.4464624896645546 26.58961963653564 19.19508457183838  0.3913070037961006 26.21554946899414 18.94719982147217  0.09939099848270416 27.22215557098389 17.65205001831055  6.429677775988259 15.93340629454353 3.538422314274552  8.620218276977539 16.75148963928223 3.05705189704895  10.48579025268555 22.94625091552734 4.000820159912109  10.30490016937256 23.51964950561523 3.562145948410034  9.884129524230957 22.48970031738281 3.57850193977356  9.78626821577277 22.91605222429515 4.03818515464065  12.57073974609375 28.62719917297363 2.218846082687378  13.0464338470996 29.82888292379902 1.799
[...]
<PointData  Vectors="u"> 
<DataArray  type="Float64"  Name="u"  NumberOfComponents="3" format="ascii">2.4591283165374133e+01 -3.9681200406802148e+01 -2.8472756827188705e+00  1.1732406230929573e+01 -4.2071756573317323e+01 -1.0200768046375439e+01  1.3506656603559547e+01 -3.5285227356180236e+01 -1.5967763948998608e+00  1.5137213268206215e+01 -4.1916331020134386e+01 7.2241943790451152e-02  2.0019304176038595e+01 -4.2783690490327814e+01 2.9457036238067973e+00  2.4458272166670479e+01 -5.3468127782476010e+01 -1.1747527797515078e+01  3.0855968856130499e+01 -4.5584026526279700e+01 7.5110176841225371e+00  1.9550351513289403e+01 -3.9359383948368126e+01 1.9095910929236652e+01  1.9535333274505486e+01 -4.3222780760414210e+01 4.3848675847158916e+00  1.8052132240373783e+01 -4.2979069601794528e+01 1.3858469135476983e-01  1.7072690135699052e+01 -4.0740507758029089e+01 3.5447529971077243e+00  8.1784546663009527e-01 2.7737184112655393e-02 1.4542906671216971e+00  1.0263528090979210e+00 -5.0357445860126311e-02 8.3495570601667457e-01  1.6663547634231934e+00 1.2824922845039484e+00 1.2421771538582702e+00  1.5519080867038699e+00 3.4378512933981081e-01 1.5330270505841082e+00  4.7633960651528229e+00 -5.8306471299154900e+01 1.8299425180270568e+01  1.0164417605752472e+01 -2.7105395087841089e+01 3.2605097743334724e+01  8.5773419281670922e+00 -3.6822592009323543e+01 1.9963887640608093e+01  9.2808909424324995e+00 -5.3840719571559760e+01 3.0232257802617919e+01  6.3927186276795984e+00 -3.9830148503337377e+01 1.3931745519585114e+01  4.9886832564854684e+00 -4.2509485090463279e+01 2.2316032432042363e+01  -5.1856807267708482e-01 -3.6660616781380490e+01 4.0967076227341295e+01  9.7777387283648292e+00 -4.5639643475814573e+01 8.3230925041950545e+00  6.9350983103733350e+00 -5.1733331851017830e+01 1.9749960748369986e+01  3.5337758325292192e+00 -5.0829227409917593e+01 3.6772635678299861e+00  7.5963821280264847e+00 -5.0638269099261130e+01 2.1313319073698205e+00  -9.8575818337198626e-02 -6.6210591846622961e+01 1.0264322173517586e+01  9.2053959792519162e+00 -6.4801326513269345e+01 1.1401981715211059e+01  1.0780641228114307e+01 -4.3996015557992671e+01 1.8725558642605231e+00  -1.2555760396404359e+01 -3.8916682500676622e+01 2.8649086102339812e+01  1.8285962302668757e+01 -6.6818946568738127e+01 1.7332677652747542e+01  9.3608510586290383e-01 6.3173648424117279e-01 7.3836969924306484e-01  1.5653556690157140e+00 7.3779013133314941e-01 1.6162478820810979e+00  1.7289319449399663e+01 -4.3566871370471411e+01 2.1790341626004790e+00  1.3726351147854661e+01 -3.9453173341267437e+01 3.2443335941675375e+00  8.6136565354215300e+00 -4.3609037215483930e+01 -3.4827946441342783e-01  1.1714789701117983e+01 -4.0178214707016032e+01 8.6789248615839405e+00  1.2820117160575863e+01 -4.0540339956604747e+01 4.1952554361725811e+00  1.2188441735458380e+00 1.6446012296165997e+00 1.1946674740967742e+00  6.9324636139990770e-01 1.0861803186494443e+00 6.1850422136120398e-01  6.7392349452473237e+00 -4.0993817171203993e+01 -2.3458911266051854e+00  1.2450367125247507e+01 -4.2358699852332165e+01 -1.8108609633571606e+00  1.2917546593817256e+01 -4.0311724382909254e+01 -9.4568698997886913e-01  2.0979534019264069e+01 -3.6029485111695323e+01 2.4021182251548567e+00  1.7258764932258050e+01 -3.8974767597432290e+01 1.5836739769572452e+00  1.6445185424159028e+01 -3.6929885605249872e+01 1.5220093226023723e+00  1.9482153435692641e+01 -3.7623415715957861e+01 1.6834433365040871e+00  1.9894026766000799e+01 -3.8409669479758122e+01 1.2286899408258811e+00  2.2339924534146192e+01 -4.1624093856813928e+01 -1.3317175086255271e+00  1.7728592404068273e+01 -3.8746830554556858e+01 -4.6905161817413402e-02  1.9543991695370917e+01 -3.9985899605312667e+01 1.2202125449374195e+00  2.0753494778260229e+01 -4.0240258781676673e+01 -1.0592264962798725e+00  1.5110410603522526e+01 -3.9294970805773410e+01 -5.0367166919633222e-01  2.2023152321339968e+01 -5.3539752834851228e+01 1.6919442840143470e+00  1.8809925005442622e+01 -4.3311048141614918e+01 -2.8016523548098808e+00  1.9858315349170109e+01 -4.3946848494639866e+01 1.9546552457096329e+00  1.4897452085470675e+01 -4.3721570922550356e+01 -5.6264807867300448e-01  1.2424158705542268e+01 -4.1674380670198381e+01 -6.5442902179272604e+00  1.7162777969054527e+01 -3.9653728943492460e+01 -6.0531924380900710e+00  1.3249754372320117e+01 -3.6328449841076122e+01 -2.9919551120576031e+00  1.0872431060582182e+01 -3.6389611334872221e+01 -6.3687433368898905e+00  1.5821827282287986e+01 -3.8214352740875164e+01 -1.0385293905995939e+01  9.6869658187086074e+00 -2.6849516291730321e+01 -7.7389605653545956e+00  2.3148810043133292e+01 -4.8417229808655875e+01 -1.5277631401928233e+00  1.7306165183037052e+01 -4.9841216143116043e+01 3.6726661250708283e+00  4.1386178095289639e+00 -4.1235074742788626e+01 -4.0376992788303001e+00  -1.6611106114342011e+00 -4.7139003379581098e+01 5.7552970179092631e+00  1.1208075250866351e+01 -3.9937771662127133e+01 1.6145049165648842e+00  1.8646072190266249e+01 -3.4629735939075147e+01 1.0208889077362347e+01  1.0856255057438155e+01 -3.6599707438874958e+01 1.2008561503346890e+01  8.0842359661508461e+00 -3.8295227633210878e+01 1.7364730753611106e+01  1.3000006163631712e+01 -4.1972294105827118e+01 1.4865949750026424e+01  1.8444507689229638e+01 -2.9760391452790603e+01 6.4653546623517464e+00  1.5717619770593878e+01 -3.5086818096811186e+01 1.3370010245388955e+00  2.0222669141107360e+01 -3.5163730047224369e+01 -7.9876086753324971e-01  2.0154478683477283e+01 -3.5296967237407195e+01 3.1693382148360079e+00  1.7110865050737336e+00 3.1369127515805113e+00 9.9190591375022874e-01  9.1157751025614264e-01 2.0315762986957568e+00 2.8562313745101309e-01  3.8009439745636357e+01 -3.9623805555737619e+01 1.1565636890695359e+01  3.1691476673585125e+01 -5.3661642905821353e+01 6.5842353748339173e+00  2.6697380226916348e+01 -3.4303556976603645e+01 6.6501888944499772e+00  3.0933933088612755e+00 6.5493848546124123e-01 1.6372480297665122e+00  3.6444719893990822e+01 -4.1333945545657670e+01 1.4227698168841969e+00  5.8750624598109242e+00 -3.8104491137794394e+00 -1.0035382844989586e+01  1.8123537989067797e+00 -1.4238590881075399e+00 -8.3048968361702329e+00  8.0361841947604855e+00 -1.9741052097488090e-01 -5.2370844378844232e+00  9.2248870239027720e+00 5.6177519997670522e-01 -1.0248360023198430e+01  1.4297466998802870e+01 -6.3362297888415902e+01 1.6484589890735521e+01  3.2178442329204650e+01 -2.4380509025219450e+01 5.4767159273854009e+00  3.8469996094583325e-01 -5.5107256336194899e-01 1.0516416655967420e+00  5.3011689555231989e-01 6.9849897654304816e-01 1.4728692968256976e+00  4.0112884619327754e-01 1.6485363054930893e+00 1.2235999357713840e+00  1.1406089379083699e+00 3.2130033153831286e+00 1.6038009804300015e+00  1.7141307288432150e+00 1.5285130159949676e+00 1.4761312952778167e+00  1.6324288055668251e+01 -4.1908168193151816e+01 7.7382178677790883e+00  1.5414958999476784e+01 -4.1307876693877326e+01 3.0511284104969261e+00  1.6201994041514848e+01 -4.0654389116337114e+01 1.4630082983382215e+00  1.9490710155691708e+01 -4.1391614025933038e+01 -5.3357221868711169e-01  1.7487563102456832e+01 -4.1340707012092757e+01 7.9664039685944932e-01  1.0846306049616723e+01 -5.6479603293122054e+01 2.0281068734085266e+00  1.7465071930281237e+01 -4.3208261474626788e+01 1.8436921222416638e+00  7.1927438787008544e+00 -5.0019016381553044e+01 8.2559943879517519e+00  2.4429336719795113e+01 -4.7153533128940801e+01 -6.3619701968680546e+00  1.5723310867832257e+01 -3.8958568233758257e+01 -1.3291852198459011e+00  2.1080755792535449e+01 -3.5641092900003400e+01 -2.7897816623961083e+00  2.0752883410396823e+01 -3.9437907966097534e+01 -1.6091358119019612e+00  1.2180656811130346e+01 -3.8677819659077379e+01 -1.7120664447660403e+01  8.3343914568047257e+00 -3.8801966721579731e+01 -5.8633834844883896e+00  8.8646168424923975e+00 -4.2193816148249006e+01 -4.3779878431860082e+00  1.2781915399412993e+01 -3.1974608029950495e+01 -1.7336691660556596e+01  1.6642554900289294e+01 -3.4045164658341925e+01 -1.0397804766159190e+01  6.5981537621324948e+00 -4.4789840314589469e+01 -2.3989108568043966e+00  1.2380457372838580e+00 -4.8777309854028156e-01 2.5954494839427635e+00  1.9169045297189040e+00 -1.0492869873861179e+00 2.3345536655442691e+00  1.1981069386862613e+01 2.4122637229105637e+00 -7.2059745519395451e+00  1.1353997374535385e+01 -1.8976754513897012e+00 -9.4471480675216384e+00  1.2596242007256111e+01 -4.7353100514021101e+01 1.0007509901993991e+01  1.2471912164848574e+01 -5.0186593787808967e+01 9.3202208251753600e+00  1.7689854991612567e+01 -3.2620038508014858e+01 7.4245735284895007e+00  1.3250481739566291e+01 -3.4613140160842654e+01 4.3942592646363661e+00  1.7380335127349429e+01 -3.3778440415908754e+01 1.2320775518866382e+01  6.5005665688317258e+00 -3.6415002632035709e+01 5.6560850922352053e+00  2.7950348452781166e+00 -3.4636827359337680e+01 -2.5633469424366098e+00  9.4673112834548032e+00 -3.5860503747627476e+01 -7.7867048038146780e-01  7.7106080006949087e+00 -3.2258703106875508e+01 6.6064657955031594e+00  1.8388005617932986e+01 -4.0054095125021114e+01 -5.2104789578188440e+00  1.6625133067700638e+01 -3.5057677801400224e+01 -2.3529057780654316e+01  3.1567239198057169e+00 -2.1676063006805437e+00 2.7446330698187911e+00  -6.7625199615580778e+00 -3.6554483603543233e+01 -5.7165489181796190e+00  -1.2895173080699320e+00 -3.8211943364109487e+01 -6.9026046814734494e+00  -7.3513869115589801e+00 -4.8764471718864321e+01 -7.3389640477190010e+00  1.1366682163060688e+00 -5.2768860360006897e+01 -6.3287076097495953e+00  6.5274126047031915e+00 -3.6977294962367957e+01 -6.8804128539094327e+00  -5.3091942204890545e-02 3.1343167997190782e+00 5.5425579116283397e-01  1.5457035246750277e+01 -3.5889457474777259e+01 4.5629447781091480e-02  1.2695573792283692e+01 -3.6071131016329055e+01 -4.7702650804094597e+00  4.2767645244626609e+00 -5.5422629612207892e+01 1.1020614341264462e+01  2.0100501414004018e+01 -3.9026652661921929e+01 9.5155072168244779e+00  2.7725846466663953e+00 -3.3876079222624380e+00 -4.8637558292528258e+00  7.0055275968672417e+00 -2.4136061230598402e+00 -6.8689655877641442e+00  1.0785994119011588e+00 3.9500510867126231e+00 1.2892252872224816e+00  2.5355117083145808e+00 -3.3963782478894213e+00 -6.1621211367781132e+00  1.9289397414333514e+01 -3.6539139511607921e+01 -6.2875499964075052e+00  1.4598895502411159e+01 -3.2290789750897318e+01 -3.0769257505844081e+00  1.5132830444462403e+01 -3.8115002575594801e+01 2.8413144059336437e+00  1.5657419816822134e+01 -3.9545012493562851e+01 2.2000722992226103e+00  2.2049141146133207e+00 -7.7861327121117291e-02 1.7988790172024167e+00  2.2515421091365209e-01 -1.9300261572481878e-01 1.7005301926609073e-01  5.8567273873802983e-01 3.3655663822797992e+00 8.0270057254861338e-01  2.1425109877247039e+01 -4.3924520766009550e+01 6.3783685884114316e+00  2.0157712845606601e-01 3.1640866140440210e-01 -1.6834742304764727e-01  7.9942729368681043e-01 -7.2477749090291288e-01 2.2006449833795544e-01  2.0621662548319566e+01 -4.0254749448345230e+01 -5.0190668147405466e+00  1.3646142946431366e+01 -4.1096651614528810e+01 -1.6109421986541965e+00  8.9618336839601405e+00 -4.1946756948399454e+01 -1.7494807780718094e+01  3.8567624044098654e+00 -4.0763042868328675e+01 1.0605752712991139e+01  1.0624087417791532e+01 7.1653309430210754e-02 -5.3703149170585158e+00  4.4302347988971519e-01 1.6751536348219198e+00 1.4903891228088653e+00  1.4381965947234484e+01 -3.4694686530763590e+01 6.1392095228338981e+00  1.4587525293178512e+01 -3.7559012077242969e+01 -8.4312103514695771e+00  6.5775136505324570e+00 -3.9825583280244757e+01 -1.6953693126086563e+01  1.9897891141528170e+01 -4.0215831979729309e+01 -3.4903435744103737e+00  1.0837628915446716e+01 -3.9479718149407880e+01 -1.6359998415949919e+00  2.1886088671486529e+01 -4.2963401607126251e+01 -8.6091259834252245e+00  2.0035440399723964e+01 -3.3633552718903630e+01 4.5921105928995392e+00  3.6301835199671735e+00 -3.4977882192805694e+01 -7.8600330377131178e-01  1.4101430437341154e+01 -2.7561023737162301e+01 2.1121669925478321e+00  2.0305735026838224e+01 -3.7105696469504601e+01 -4.2685521129906077e+00  1.9841110150128348e+01 -3.7175202151166744e+01 2.3025601752361382e+00  2.5877976018561415e+00 2.0717173942417557e+00 1.4483637726281173e+00  1.9945408922195187e+00 -1.3399935102128908e+00 2.5495319896866504e+00  7.5685600579596377e+00 2.7975981798131175e+00 6.7676612564004479e+00  6.7487177746566243e+00 2.7531070371137649e+00 7.6786986591898421e+00  6.5181091347125806e+00 2.2927617592795029e+00 6.3689854631044556e+00  7.1627294013353699e+00 2.5629535517446413e+00 5.6177671405178211e+00  6.8650017506658392e+00 4.4638639888856284e+00 2.6262934954955628e+00  6.8174842082744727e+00 3.9554176153264522e+00 2.8469037021625656e+00  8.0085629646405394e+00 2.6275657031185671e+00 1.3178991383725347e+00  6.7704825623622291e+00 3.8200586733776745e+00 1.2114757532229010e+00  5.9603372909207195e+00 8.9859649760614291e-01 6.4674449684999962e+00  4.2986178695887807e+00 -1.3144245034741039e-01 6.6716304178435148e+00  4.5408585455017985e+00 2.4209666963118011e+00 7.0778101324944362e+00  6.7657493669962454e+00 1.7118809592501880e+00 6.7559962404581508e+00  2.8576416293792763e+00 -6.1874040299999873e+00 7.1874433597323879e+00  4.3723377186388408e+00 -6.0058408477408056e+00 7.6655233536449963e+00  5.8011386320444052e+00 -7.4082363236074951e+00 5.7049849673876842e+00  6.6080601843548923e+00 -7.7220435862069525e+00 6.0365263270229637e+00  3.0261506666682951e+00 -3.6848594135845123e+00 6.0232295039814581e+00  4.3559334904140128e+00 -8.8099267868368472e+00 7.9970858435593559e+00  5.0056427647266535e+00 -6.7321429045995389e+00 6.7652694261817521e+00  5.0452439062909269e+00 -5.1961275750096982e+00 5.9898986801945453e+00  1.2939013506478366e+01 -4.5318577179388253e+00 -5.1122504642440774e+00  1.0337184427802853e+01 -3.3184463180565116e+00 -6.1727113897880077e+00  1.0963182159675199e+01 -5.2994636255892251e+00 -5.0640671234112640e+00  9.9924490921390596e+00 -5.5770918123417506e+00 -6.2645889079321941e+00  1.3330168443878614e+01 2.3697156357204001e+00 6.1162672781135416e+00  1.3779388989973221e+01 -9.3707645911253606e-02 7.5089474899226678e+00  1.4930589738672694e+01 2.0830291832760586e+00 6.7025337965699150e-01  1.0840137104780529e+01 -1.0684709284904854e+00 2.1007577674034472e+00  2.0672786841025150e+01 -1.7774118817737534e+01 -4.8444667073425283e+00  1.5733307204151263e+01 -1.7859764229874028e+01 -5.6515115299605503e+00  1.6965932752156949e+01 -2.0503571634175628e+01 -3.8766005145079627e+00  1.6119658039283848e+01 -1.3599095341454726e+01 -2.7332933829884762e+00  5.7190209324239403e+00 1.6943668897874626e+00 7.6688591403022621e-01  3.5100738024645666e+00 2.5824830295240022e+00 6.4631628698378984e-01  4.3099467087208918e+00 1.6627528273215482e+00 4.8265378406658227e-01  3.1488964146253560e+00 2.3872385730024153e+00 1.9365363618775069e+00  2.0472361205378498e+01 8.5985666747740215e+00 8.3362068535134642e-02  1.5130960944856472e+01 9.0371153738207415e+00 1.4847739251573060e+00  1.5870365490700561e+01 9.0124270760807992e+00 1.0335370373638184e+00  1.9817522754037167e+01 1.1416184111076983e+01 3.3741406602923862e-01  2.0115936673824006e+01 7.9145451005494989e+00 8.5113498317163649e-01  1.5694012062223845e+01 1.7812885433283800e+01 7.5920162405398983e-01  1.2737345826930991e+01 1.0801560566115819e+01 1.5623947470620414e+00  2.0160249271214973e+01 1.0891056891833259e+01 5.6918494037745371e-01  2.0489809574794915e+01 7.8892433146455172e+00 8.1524299782201792e-01  1.2820525899215273e+01 8.2460179010115890e+00 2.8506617657984004e+00  1.5183315785763018e+01 -4.5399169841813238e+00 -1.5206973660347693e+01  -1.8660664123066357e+00 -2.8450143466342444e+00 -1.4503084789322889e+01  8.1351943743853905e+00 6.1986536774931122e-01 -1.2722882636736838e+01  1.5113135356663475e+01 -7.6377065827838289e+00 -1.5458044795555534e+01  2.0740800759764610e+00 -1.5656824018500795e+00 -8.9073635403191567e+00  -2.6831326785617398e+00 8.0451274509469410e+00 -6.6048235622674270e+00  2.4502894716505312e+00 6.6332212969168003e+00 -1.1250507155000895e+01  1.5416429800288746e+01 -5.3453063053379646e+00 -1.5960662810393400e+01  9.3832564007884987e+00 1.3338515103339799e+00 -1.3285280742784083e+01  8.3927584274314366e+00 6.4520310453525811e+00 -8.9698875765250428e+00  9.3263046691258944e-01 -1.0179882803299556e+00 1.5078963147568438e+00  5.0409979086492234e+00 -1.1077687068033304e+01 4.4765107015772383e+00  2.2284402564858876e+00 -4.1564384566210721e+00 1.5242010859728239e+00  6.7238518045545197e+00 -6.9917610932281749e+00 -1.4698233860146166e+00  5.1444741249557024e-01 -5.8946453889932759e-01 -1.8310088754413834e+00  1.4395858323298691e+00 5.1559976880634517e-01 -2.0918290400076689e-01  2.2753979476728685e+00 -9.1707312024438570e-01 -2.0595739758042537e+00  3.5548257397372468e-01 -1.1612068772721858e-01 -1.2967652796887590e+00  4.1182069180069397e-01 8.4041560744537558e-01 -4.6114816704823552e-01  7.7757652121857888e+00 1.4278431667086566e+00 -9.2332827965619091e-01  6.7794913257007430e+00 3.0430226787466355e+00 2.1955390108385561e-01  8.0917577436833827e+00 2.2157061806479921e+00 3.5614325934597418e-01  1.4189484814436709e+01 -5.7481105399039238e+00 -8.7172502803517187e+00  1.0164836765965532e+01 -7.9185856444119747e+00 -5.7909836565323145e+00  1.0124420558967220e+01 -7.8546604535630999e+00 -7.2263259434448015e+00  1.3277028065879653e+01 -8.6349905017057402e+00 -6.2140593700747955e+00  9.7080556638507307e+00 -1.9032154038554616e+01 -5.8675441235670895e+00  8.1842970243792941e+00 -1.5865992330761166e+01 -3.0457286770546648e+00  1.0814481829660263e+01 -2.1100980757401224e+01 -4.5867296292197715e+00  1.2915569096861809e+01 -1.8025258515747172e+01 -2.2593210547391087e+00  1.1456247205908774e+01 -1.6424930785099214e+01 -3.6961457656803414e+00  1.4808044599231097e+01 -1.4861693868210210e+01 -1.7667471387090978e+00  7.9428121654761954e+00 2.5503778585806575e-01 -5.8860811826240074e+00  6.0717168650518412e+00 2.2504599775662864e+00 -4.0658377612279368e+00  8.4703785646863405e+00 1.5240798454325163e-01 -4.8126855915366322e+00  7.2685003269765183e+00 1.0388726178788459e+00 -3.1638388268498892e+00  2.0269045743439328e+01 -2.2981558247056533e+01 -1.3555900574194633e+00  1.7601158999363236e+01 -2.1964349306879491e+01 -2.3006025663905283e+00  1.7505057754403001e+01 -2.1988563668289910e+01 -2.3669952318352032e+00  1.9735268113314973e+01 -2.1321245247894336e+01 -2.4323575341696673e+00  1.9822212606690549e+01 -2.2907962635923834e+01 -2.2848214521775647e+00  1.9921360798444194e+01 -1.9479749719576834e+01 -2.3633007078864963e+00  1.5438628038591219e+01 -2.0633773681667982e+01 -2.6234482811938897e+00  1.9904158420110015e+01 -2.1420758959549300e+01 -2.2722292069451657e+00  2.0322054662549583e+01 -2.3242653486080044e+01 -3.6076777389443011e+00  7.0288519863881671e+00 -3.9583301237678592e+00 -3.6522505479736926e+00  5.0099280477733457e+00 -4.9050550629748511e+00 -7.3093922351538270e+00  6.4983969537604835e+00 -4.8613668134217702e+00 -6.6375532813256388e+00  9.3226393126311180e+00 -6.4102280100556364e+00 -5.1749058436560933e+00  9.3805841607392519e+00 -6.0592552369979087e+00 2.3774780148848480e+00  8.8552936970428107e+00 -1.0574987986765382e+01 2.2557705993147912e+00  7.6625496894696985e+00 -9.4411714228756640e+00 3.2766054158892204e+00  6.8735304004867102e+00 -6.5598348980751009e+00 4.6843867440125502e+00  3.0544001048787582e+01 8.7935639501042413e+00 1.3803587223889238e+01  2.9055947152761163e+01 7.1862053018107712e+00 1.2350579979755924e+01  2.2831006472733652e+01 3.7088257839155161e+00 3.3058245603328649e+00  3.0305122682861111e+01 -1.3631421057690579e-01 4.9806755201043673e+00  1.7379304952094934e+01 -2.3033883572293570e-01 1.0490550748499055e+00  1.4463494128544546e+01 5.6298817142746937e-01 5.9357818720953617e+00  1.5257862006149702e+01 -1.4826271677512148e+00 2.7977025893048055e+00  1.1473036621495563e+01 8.7744850221624981e-01 3.0123032831361969e+00  1.2096142818368827e+00 -1.3128531566262756e+01 -4.3635892767943369e+00  2.6320697469072001e+00 -2.26