<?xml version="1.0"?>
<VTKFile type="UnstructuredGrid"  version="0.1"  >
<UnstructuredGrid>
<Piece  NumberOfPoints="4864" NumberOfCells="19175">
<Points>
<DataArray  type="Float64"  NumberOfComponents="3"  format="ascii">20.10998804731152 6.296291504613277 35.07216427648358  20.30858380118949 4.893104204485426 35.98865362336411  20.41987465662099 4.823246672232324 34.9028319526876  21.078929611489 5.596073665954918 34.92294264819895  21.16666984558105 4.133924007415771 35.12585067749023  21.21910095214844 5.262744903564453 34.16889190673828  20.29107767103694 5.476371257466354 34.47082704409466  18.98435600727925 3.423573078678505 37.99511319308969  18.44364092395562 3.749585369554367 37.23163928847106  19.66176474496783 3.472157792616993 36.58779327576112  18.60112805888055 2.551360969509187 36.59877672746497  19.0982608795166 1.342733979225159 36.08776092529297  19.40040016174316 1.248085975646973 36.74972915649414  19.05983924865723 0.6561530232429504 36.82487869262695  18.02313757094337 1.140892209454971 36.66651382961027  18.40275001525879 4.603332996368408 37.69865036010742  19.21337695774305 4.721485073050974 37.12774532454124  18.50540616503915 4.209601409394397 36.29271008182338  19.50892217804935 4.050192694606118 35.22820871169485  19.4017859683008 5.377024792299474 35.53212497377826  20.4554500579834 3.780755996704102 35.31710815429688  20.93151092529297 3.597670078277588 35.95257949829102  21.42822074890137 4.6148681640625 34.59658050537109  18.71693992614746 7.879124164581299 36.71380996704102  18.42524909973145 6.908240795135498 36.81827163696289  19.13633918762207 7.179174900054932 37.20611953735352  18.85834340543732 6.667370545648653 36.23677525861149  18.62839614767633 5.697418226718655 36.36542542118185  20.65052032470703 4.627615928649902 34.20412063598633  18.00106048583984 4.007146835327148 38.05488967895508  17.97591782501315 2.572758062623017 37.77841247616017  19.07078530808521 1.347408860295228 37.60285910375343  17.87262999533558 1.232196270557887 38.18221043346044  18.97987937927246 6.228812217712402 37.42708969116211  18.65662002563477 0.09558500349521637 37.76456069946289  18.30014038085938 6.062904834747314 36.93975067138672  20.3463306427002 3.925168991088867 34.52354049682617  19.37047958374023 2.334095001220703 35.9086799621582  19.77272033691406 2.164697885513306 36.56809997558594  18.41340065002441 5.270916938781738 37.30012130737305  19.98665046691895 3.140805006027222 35.85480117797852  20.84836959838867 5.96611499786377 34.16732025146484  17.67905044555664 4.482658863067627 37.33798980712891  8.188456535339355 1.165763020515442 25.32064056396484  7.374207019805908 0.6876109838485718 25.27131080627441  8.319725036621094 0.09558500349521637 25.27935981750488  7.744144916534424 0.09558500349521637 24.65199089050293  18.15447998046875 0.6816989779472351 30.55500984191895  18.55550956726074 0.6429020166397095 29.72613906860352  18.23812631453073 1.819471798432995 29.84012695829485  17.65732601528248 0.690538555805599 29.68726602252496  15.452047096528 10.96078076570944 24.03395476588156  15.24293575328377 9.496932332770193 24.01394413874447  14.38837727145405 10.24810768425243 24.08367385229049  15.30231206876763 10.19800290109123 23.4426378381416  10.62491035461426 8.517734527587891 26.5118408203125  11.17844009399414 7.976909160614014 25.8271598815918  11.76351842964487 8.593973595856344 26.69043386386788  11.83830226047937 7.765695745501291 26.2495332633479  13.64352035522461 0.09558500349521637 28.74506950378418  14.48805999755859 0.09558500349521637 29.18498992919922  14.34523010253906 0.09558500349521637 28.10177040100098  14.26860186363399 0.8962998893940018 28.76304024589591  17.02544975280762 9.71726131439209 22.62701988220215  17.70636940002441 9.166142463684082 22.92539978027344  17.44457054138184 9.441779136657715 22.20199012756348  17.24413670523961 8.686283092001378 23.11706573022736  9.516697495174787 3.361655800729649 18.7117940637308  7.773248684704234 2.792522100254617 19.59741631533982  8.09777957171627 4.159760009283453 18.81990084457015  9.152567852576004 4.408923062264841 19.97710349125446  11.34232075310654 10.21074257491787 24.4265620156904  12.23448344386505 10.15476546945671 26.01045628217506  12.36047176741179 9.489286034207009 24.81774945309512  10.88167072924191 9.70563326606608 25.2735668689523  18.93788909912109 8.973540306091309 20.10206985473633  19.21762084960938 8.337586402893066 20.50494003295898  19.56550025939941 8.630832672119141 19.63917922973633  19.05515083555661 7.790209132518613 19.79520700246171  15.10013961791992 9.86546802520752 29.11652946472168  15.54895973205566 10.27204990386963 28.50665092468262  14.4602852615372 10.70894889723005 28.92264518513157  14.51703939445483 9.879484892892048 28.21751871562706  18.96104049682617 7.825235843658447 26.68133926391602  19.79015390121104 7.020314677930913 26.57189602545551  18.62636265863724 7.502942463600287 25.81784977505643  18.38425400898137 6.9154182567824 26.65382549655616  9.022880554199219 4.869105815887451 23.39876937866211  9.596207618713379 4.258718013763428 23.61586952209473  8.937583923339844 3.994426965713501 23.16554069519043  9.61470009363652 4.38965288473522 22.96849665201074  18.41871733131307 2.181151151254709 28.32657805006649  18.28440285915734 3.530964867688151 29.40069084485169  19.35220921895721 2.801268866417136 28.44053197439563  18.85950943430372 2.567317065668881 29.42444227549026  10.65577983856201 5.681509017944336 26.8709602355957  10.35818004608154 4.973543167114258 27.11243057250977  10.87691974639893 4.989037990570068 26.59758949279785  11.01518645242453 4.716271982191934 27.26412996070284  9.310087203979492 7.721371173858643 24.60479927062988  9.97292423248291 7.475716114044189 24.87092018127441  9.58549976348877 6.921122074127197 24.48695945739746  10.34156087118312 7.992109768550137 24.29892539168162  18.87026977539062 3.923463106155396 25.78803062438965  19.41661071777344 4.312838077545166 25.24838066101074  18.71119394318229 4.829421733635419 25.03112367968264  18.49095349146005 4.692810949219037 26.11445425442576  14.05195999145508 16.16622924804688 20.84823989868164  14.62289224491885 16.0608937167411 21.49618116523181  14.95522656816785 15.97485425167054 20.29802367234113  14.41202729757972 15.20424085642448 21.10154860110938  18.83731079101562 4.087762832641602 23.74139022827148  18.08009845251352 4.559156836252775 23.40043604157604  18.9624938803594 4.961569727536028 23.72813613804041  18.23359652328603 4.42212969864937 24.22053364813143  16.92330932617188 5.794055938720703 27.32415008544922  17.57271573026096 6.292816600233106 26.20677060890071  17.061982245935 5.015928891971939 26.82073832116684  16.24644907596095 5.761196055119441 26.46940368482335  16.17094993591309 3.028398990631104 25.35478019714355  16.84943962097168 2.97537088394165 26.0648193359375  16.73089364961352 3.770612672385373 25.31024585372446  16.19394845057861 3.629106680367777 26.40768624206551  12.77493953704834 0.09558500349521637 27.11207962036133  12.23508518025742 0.8480799782870929 27.58311463911213  12.18946166901117 0.09558500349521637 26.97602479612186  12.55722914751562 0.71971167913789 26.73744234286441  15.3249397277832 9.161655426025391 22.0219898223877  15.11830043792725 8.356017112731934 21.6094799041748  16.02951718804351 8.776653050955392 21.87603807107938  15.58615611123262 8.063761483105406 21.95088537142065  10.66604042053223 14.61903953552246 27.81538009643555  11.24555015563965 14.19824981689453 27.59094047546387  10.55530596588087 13.78481589847955 27.5123444764762  10.75653485685761 14.47465041964371 27.13859412317042  9.736616134643555 0.09558500349521637 23.68322944641113  9.950895309448242 0.09558500349521637 23.03716087341309  9.351449536215341 0.9991291448737467 22.9413942445162  10.39504441665546 0.72296969617535 23.44920571250424  13.21471977233887 12.39957046508789 21.10393905639648  13.09875011444092 12.66100978851318 20.18302917480469  13.647780418396 11.77035045623779 20.16972923278809  13.77790591784053 12.93369995863631 20.39867627875822  16.2021598815918 10.55117988586426 23.48386001586914  15.582200050354 10.81122970581055 22.74935913085938  15.85006999969482 10.21547031402588 22.92917060852051  7.789976119995117 11.18539047241211 29.67827987670898  8.096720171369878 10.11217485412798 28.93473757508606  8.826134023151869 11.2203744399638 29.26103659356571  8.215568956285097 11.70623598893587 29.00850825624036  11.99112987518311 7.855165004730225 22.98875045776367  11.77693346745968 7.264540957815689 24.18622916674623  11.44520994782196 6.622532419074622 22.99029539218485  11.17036937644392 7.762055121741945 23.6218478428455  15.84125381924544 5.625465725330561 22.78020829088355  15.16832312163061 4.390336736927659 23.11556401078938  14.59785196934766 5.973390037629027 22.97144318175362  15.80352766480256 5.595606439134132 23.82381729742455  10.97243976593018 7.933440208435059 32.56325149536133  11.99931523323619 8.907012417504884 32.40411189736451  12.60649136840723 7.773080577943012 32.16875385557193  11.64676376062122 7.980254628627474 31.61483163260781  8.987130165100098 9.657784461975098 25.34803009033203  9.436103820800781 8.987747192382812 25.18423080444336  9.802380715775623 10.01774213315135 25.84593790530892  9.840980602377057 9.919168521271057 24.56983448284268  8.006673812866211 8.921008110046387 28.10429000854492  8.869775772094727 8.730903625488281 27.35240936279297  8.277055837723376 10.19717674820791 27.26985279880178  9.518199863046158 9.41048910904998 28.02735824460177  10.76006031036377 4.189550876617432 25.38027954101562  10.39293003082275 3.904155015945435 24.79925918579102  11.60316216806218 3.477154433200033 24.52274634990907  10.97371997452366 3.519375117370845 25.69229779429848  13.76144981384277 10.01356983184814 32.13114166259766  14.32320022583008 10.02834987640381 31.24934005737305  14.45475959777832 9.891139984130859 32.01271820068359  13.79894627969485 9.475226659203942 31.57431407751149  11.0920333210318
[...]
<PointData  Vectors="u"> 
<DataArray  type="Float64"  Name="u"  NumberOfComponents="3" format="ascii">1.1888476030788941e+02 2.6109311615286458e+01 6.3841684478584128e+01  1.1354660452328646e+02 3.4985176659701885e+01 4.0405500947986404e+01  1.3737520323256686e+02 4.2270852882332250e+01 6.5721424452280047e+01  1.4562870595439153e+02 2.2217747002158447e+01 3.2574990461013208e+01  1.8584672812120601e+02 6.6265848229168007e+00 1.8081850643034073e+01  2.4375986412617624e+02 9.6684368883843099e+00 1.6516540227546038e+01  1.3326203514580337e+02 2.9049692634750816e+01 7.4932584532410189e+01  9.6563480677716043e+01 3.6757741517521751e+01 3.8180059622732109e+01  1.0894832356930854e+02 3.5178698358383969e+01 4.0187881252798221e+01  1.0871763605538575e+02 3.8070396409041386e+01 4.4162923288787610e+01  9.2136510444735094e+01 3.2563351756486497e+01 4.3825555364083435e+01  4.3894239989851137e+01 4.5320369322094692e+01 7.4435834954888705e+01  9.3160028365647904e+01 3.1108393197064117e+01 8.7437146916238547e+01  9.0192771692377264e+01 2.9557133233067088e+01 9.1255159991965911e+01  8.0580412534481084e+01 1.6666793936356246e+01 3.8494475926670262e+01  1.1192864327117633e+02 5.0912502030069476e+01 5.6500578492058459e+01  1.0107405579520191e+02 4.4725501507989001e+01 4.5772826435444593e+01  1.0367723777903591e+02 3.4642356420279150e+01 3.9056095606425977e+01  9.6773345689283360e+01 4.4097594815365667e+01 5.4468010407854521e+01  1.0661592786048794e+02 3.2591130373427696e+01 5.1738940883371853e+01  1.4604708895038240e+02 5.7596972419372335e+01 7.2051200978656524e+01  1.5383069287149758e+02 1.5940671563708818e+01 2.2092228200101619e+01  2.3010330647414446e+02 2.9548988762089881e+00 -9.7105224797122993e+00  1.3746209664689400e+02 3.0741207357148479e+01 7.3858689236854602e+01  1.1187375007480212e+02 2.9563399525784256e+01 7.0450670471836020e+01  1.2235407850704938e+02 4.3542522091091541e+01 7.6221991223175152e+01  1.1066650408237079e+02 3.3600079376152010e+01 6.3304799962634412e+01  1.1011707089453549e+02 3.8537506905284701e+01 5.3528783919822644e+01  1.6413349812245923e+02 8.0948269351729948e+01 1.2584670612187882e+02  1.2037052883035923e+02 4.2317396135485694e+01 6.2187136200513109e+01  1.1243429891909661e+02 2.6164190934415522e+01 4.2830064752564290e+01  9.9501860541023234e+01 1.7824443069318768e+01 4.6560230815321347e+01  1.0554120066772705e+02 7.9126931708359090e+00 4.8970516441279443e+01  1.0107769836304360e+02 5.0747827023952219e+01 7.4191619887032047e+01  9.7824835774845226e+01 -3.3982315461648138e-01 5.1625551119005749e+01  1.1465856117977157e+02 4.5648839821340907e+01 6.6937916116222539e+01  1.0966105312694614e+02 7.5314903516201639e+01 1.0126547390956586e+02  7.4957693165787362e+01 6.2352284293777608e+01 7.7068996732863184e+01  1.2062241794292757e+02 4.1844875594463517e+01 7.2337000140722964e+01  1.1758444179239164e+02 4.9975718323333652e+01 5.7587007988559662e+01  1.2008886494656035e+02 5.9977453192921317e+01 7.6532017718201587e+01  1.8432866829349408e+02 9.7816764872316995e+00 8.3818230058635848e+01  1.3412397900786848e+02 3.7239686232600235e+01 3.8008750917187683e+01  2.6380707067391035e+02 3.4287104320030558e+01 8.9033947423200587e+01  2.7663120414351948e+02 -1.3011884293768338e+01 1.0014524020780552e+01  1.6465646218407787e+02 3.3592062221858332e+00 4.8495656787106867e+01  2.1909718636471879e+02 -1.4087819598728515e+01 4.3919878523341985e+01  2.4640398252025257e+01 1.5126219418207230e+01 -3.2646088919966843e+01  4.4651822627408947e+01 1.0282259193963522e+01 -5.1636414878163684e+01  4.8596922757263506e+01 1.0811519316925306e+01 -3.9945823625750045e+01  4.6650857309163612e+01 6.4119374306918822e+00 -3.2009886248226458e+01  4.2209198861055988e+01 -2.4006960678474577e+01 4.0427053477136032e-01  6.3338099013430444e+01 -2.5964303469052169e+01 -2.2651959134575481e+01  6.4521573714765566e+01 -1.7339373324132065e+01 -1.3151246159884787e+01  5.4790907744162439e+01 -4.5839818636619739e+01 -1.5076444527809688e+01  1.0550813423000180e+01 -4.9398163686321233e+01 4.3621778491761724e+01  3.2379512233699003e+01 -3.4382616131267831e+01 1.0242736280027049e+02  3.8095932633725667e+01 -1.4032088647186596e+01 3.2749095004628856e+01  2.9937015616273694e+01 -1.8312614512686224e+01 3.9797134457700615e+01  4.6799076433367809e+01 1.8133634331613438e-01 3.2819048136714891e+01  5.3904558774492749e+01 1.1487875733372688e+00 2.5431647936094350e+01  5.8637417420959252e+01 -4.5388388296980713e+00 3.9320386635660114e+01  5.4744905163788012e+01 3.0995725657038551e+00 2.8480626756971628e+01  4.0992371126692611e+01 -3.0604510121571870e+01 -5.5394416513128498e+01  3.4813734068746534e+01 -5.1473610016715973e+01 -4.3691440095236374e+01  4.5308531061525890e+01 -2.7106651266975742e+01 -4.9047970006482217e+01  5.6003280768649198e+01 -4.1966882258266502e+01 -3.0839486298685568e+01  5.4531785532459523e+01 9.5085468442842433e+00 4.9831823773301807e+00  1.0053043519260039e+02 2.3984189956069887e+01 -1.0559752545389802e+01  7.1345698678262309e+01 3.0191197468654632e+01 -6.8883806102365739e+00  6.4560577952759303e+01 2.0084374872930326e+01 1.5019445974395246e+01  9.3466375800750725e+01 7.0013303402311218e+00 6.2514262843050048e+01  6.0446376322563403e+01 -2.2748170962176526e+00 2.7338672424109195e+01  9.1262496797565802e+01 2.6313843988254835e+00 3.1504373310002929e+01  6.7689726323349248e+01 5.7600179900599080e-01 6.6904873737629416e+01  7.7026361138405235e+01 -6.1610904351822967e+01 -3.8507297765018272e+01  8.1707064036597401e+01 -7.4103485570327337e+01 -5.4558125854269548e+01  1.1910654512770216e+02 -6.9555342430867810e+01 -4.7337005567161043e+01  1.0732451134185305e+02 -5.2624517692358573e+01 -2.8807533334501496e+01  8.5600950796283470e+00 6.7089054962012415e+00 -2.0166278418883365e+01  2.3123464867129158e+01 1.6512139690614937e+01 -2.5803620550719316e+01  2.7728279460088853e+01 9.4937166769763817e+00 -1.3623641245284244e+01  3.0832436483080112e+01 3.0899856184839183e+00 -1.1327368201855831e+01  2.3723048487460358e+02 -1.8281997768435428e+01 5.4482719743490357e+01  1.4277981053423517e+02 4.2394462944091948e+01 2.1907751293190167e+01  1.5601143918711935e+02 -3.9131785128527603e+01 1.6696139708238839e+01  1.4094257389082640e+02 -1.2944180733152495e+01 2.2283178324226174e+01  1.0160272501712370e+02 2.4083620446728983e+01 5.9930962722836952e+01  1.0313805679755959e+02 -1.5789039837969419e+00 8.6196139226129631e+01  1.4134967509645477e+02 4.8630282044443078e+01 4.7302095427708494e+01  1.0160440051070547e+02 2.0396039637676864e+01 6.0420210770645475e+01  8.5285588802764067e+01 1.1645571718704744e+01 -3.5275671309055632e+01  7.2045344848515569e+01 1.6100977409347159e+01 -4.4972674530761353e+01  1.0403310950195754e+02 2.1797693962576112e+01 -5.6645182993032741e+01  6.3493192821002026e+01 1.8107519127860435e+01 -5.6915806730452232e+01  -9.4466946644579082e+00 1.0446365529628316e+01 7.8603769178542038e+00  -1.2312614770709930e+01 2.0827102810297063e+01 1.4417187518149234e+01  -1.1445305769440866e+01 3.5189641642842830e+01 3.3956377227065374e+01  6.0327448941897925e+00 2.1190480904843429e+01 3.0802575397557089e+01  9.1385146391312063e+01 1.2080822406088732e+01 5.0521157839437933e+01  9.0224671925791725e+01 1.4429310370212406e+01 2.6848301110254106e+01  9.1274190927006245e+01 1.2300976127933364e+01 4.4837877160058071e+01  9.6186148394687891e+01 1.1989201239233727e+01 6.0102402549016070e+01  1.3686033933475426e+02 5.8417028385071184e+01 1.8441255959666925e+01  1.5866957217592528e+02 3.0124684220874212e+01 1.8014727229768067e+01  1.2307720087930525e+02 3.0646184699153455e+01 8.9664766709689248e-01  1.2071144762157523e+02 2.5991465427931214e+01 2.2490972625678718e+00  1.5378413046002530e+01 2.9181993278080647e+01 -1.9467340360515198e+01  2.2673424114629498e+01 2.6358442282517046e+01 -2.2480592373658073e+01  2.3166827212152825e+01 3.4440599582613473e+01 -7.8202054536303143e+00  1.7812866289828317e+01 2.4440032802340397e+01 -1.4144810923563337e+01  1.0346319217702083e+02 5.7493287499564012e+01 -3.8460389225909267e+01  1.0658531017076082e+02 2.3679411966272575e+01 -3.5906879823325028e+01  1.1950729612365620e+02 2.5369459805536810e+01 -2.1877492930517850e+01  1.0492078568685086e+02 3.8278388330123427e+01 -1.8537393871964156e+01  1.3021963665505621e+02 1.3336779807586360e+01 2.8056047961985701e+01  1.1866407855286195e+02 -4.0779178600227475e+00 8.2399153460079830e+00  1.0850523728540401e+02 1.5374221279642281e+01 3.9071796230341027e+00  1.0783402127681759e+02 9.0565918967514758e-01 -1.6353524797579824e+00  1.2621295961877547e+02 5.9386881758897081e+00 1.4615570071323209e+01  9.0440160271492189e+01 -2.4641309565026739e+00 1.2467124809429000e+01  1.0301538556833535e+02 1.8894690403731801e+01 4.6581282295286153e+00  1.0148465515007999e+02 1.1361158985823476e+01 9.6683954175741444e+00  3.9243615929983164e+01 6.0240872684174063e-01 6.2446449010400521e+01  3.7539406200639540e+01 4.6280635680014424e+00 5.9878099351468748e+01  4.5857985483272806e+01 -1.1273376143758678e+00 6.7580817425976818e+01  4.4908007389783847e+01 8.3866556692483627e+00 6.5069012362386971e+01  3.4894909776817158e+01 -1.7890108365404728e+01 -7.5760465883460853e+01  5.7144583493740111e+00 -1.4936704995570975e+00 -5.7624236822239808e+01  4.0332275624118623e+01 -1.6404106196597944e+01 -4.5993768047618616e+01  4.0835306770674009e+01 -3.3563197889633938e+00 -5.7743218104120608e+01  3.8673645589153629e+01 -1.8657018051374056e+01 -2.4514025429702794e+01  5.6225631020973154e+01 -1.3065583835729033e+01 -2.3232017608891734e+01  3.9400499931266559e+01 -1.1655022647568835e+01 -2.0468770947355472e+00  4.8387533852569028e+01 -4.9854629046493573e+00 -8.7598443165206525e+00  1.2037048880607861e+02 -1.1282170694987449e-01 5.3000933742270753e+01  1.0906535440026383e+02 5.2851043615739657e-01 4.4931903248492738e+01  1.2702519158417893e+02 1.0433915217888485e+01 3.9117687681469896e+01  9.9110456204386395e+01 7.9299779298092323e+00 5.5461881840931262e+01  2.7450161377557305e+00 -6.0197942538321252e+00 -9.4435782720928341e+00  1.0564846233894822e+00 -2.7478084412467436e+00 1.7721313593982135e+01  1.6489101722925525e+01 -1.5649707197891086e+01 1.5885819826438642e+01  1.3668773633513878e+01 2.1854218522636160e-01 7.3986630482924571e+00  4.2977735747842637e+01 -7.1885831623043160e+01 -4.0427962081658801e+00  1.5837543085650504e+01 -4.2141997181028735e+01 3.1628132615045335e+01  7.3354731883620900e+01 -1.0963897111389684e+02 -4.7238168136252092e+01  3.8239054337465945e+00 -1.1392537531055350e+01 7.3012113317242138e+00  9.9937353799444111e+00 -8.8617514769499923e+00 1.0130315565168226e+01  1.1959862137443828e+01 -1.6887584797418739e+01 1.0232014147535370e+01  3.2010402856564211e+00 -1.6346456677063671e+01 8.3476392377871775e+00  1.2863171852991636e+02 -1.5381152559797515e+01 9.4565636634414730e+01  1.0451126830520154e+02 3.4150047260909377e+00 5.8324153669025286e+01  1.0450637982918211e+02 -2.2034803823184546e+00 7.0843995000734594e+01  9.7573278069230383e+01 -2.6053277163546213e+00 7.3009852299841867e+01  1.1459663804265394e+02 2.3391558235479270e+01 -3.8998923562142373e+01  1.4599892579974542e+02 6.0859964400184658e+01 2.5371090196419237e+00  1.2542939982721175e+02 4.2902071900291055e+01 -2.5819267116117647e+01  1.1021669732915745e+02 1.8472384799078348e+01 -1.6053185307875047e+01  -2.0192196617060154e+00 7.4623972247621300e+00 -1.6570772675174247e+01  1.3954761950788962e+01 2.3229128948619224e+00 -3.5600990996093875e+00  2.4607267245852711e+01 -1.6016828871933500e-01 -1.0719509074228682e+01  1.2934534986561752e+01 -3.4564998528599933e+00 -1.8591375560384966e+00  2.1914111340928756e+01 -6.8516448047606510e-02 1.5984351163645678e+02  4.8543829453003056e+01 3.2736629897241137e+01 1.3555551523900803e+02  3.2054937165353294e+01 -4.4197806054444602e+00 8.2062631650035826e+01  7.9735777292746690e+01 6.0142476515929246e+00 9.5402496986241488e+01  1.1363171133757380e+01 -5.3237740928304049e+00 1.2265143679007686e+01  1.5669075976246939e+01 -1.7517128796164787e+01 2.2865499921202705e+01  -2.4191097506666521e+00 -1.0782749081432586e+01 2.3256542210097603e+01  1.8778255659508531e+01 -1.5573449522536201e+01 2.3224627869996731e+01  4.4224674935410142e+01 4.0663138464692189e+01 9.7548980107155955e+01  5.7660566595688685e+01 3.1066412413036197e+01 9.8822688694505075e+01  7.2313262445977557e+01 2.8414372137920108e+01 6.8629153873935380e+01  4.9223637608509044e+01 3.7945871187026029e+01 7.8940703353212029e+01  2.5116122191125932e+01 -6.9715854243602919e+00 6.3529741238439001e+00  1.6617270964262591e+01 -1.2555315980494305e+01 1.1846064275682840e+01  2.0385954390208731e+01 -1.1687574051617430e+01 1.0831184732875716e+01  2.3099319781182288e+01 -8.8077883075201040e+00 7.0044825076336181e+00  3.1954441439114074e+01 -1.3071533981151392e+01 2.7089009947776500e+01  4.1381265591187500e+01 -1.3651589243274252e+01 5.2020265901545535e+01  2.1966598967642359e+01 -2.8134806804577504e+01 2.6445498855084509e+01  1.4132336752024403e+02 -2.7382963565526044e+01 4.7959268372328273e-01  1.4118860880553160e+02 -2.7973496442024999e+01 -2.4554007946475227e+01  1.0531355123459925e+02 -4.9884979563887356e+01 -4.1075006375593539e+01  1.3192649953924027e+02 -2.9851815986440425e+01 -5.1703758471745068e+01  1.0150831807926943e+02 4.1950683137802521e+01 4.6695541574325638e+01  7.1058557090040040e+01 7.1472512634759610e+01 5.7911747033078072e+01  9.0614319146853376e+01 2.6805594721068953e+01 2.6278125331221968e+01  6.6655199572759287e+01 2.4515688646255313e+01 4.0921549306495791e+01  6.1058529081133095e+00 -1.7993092646927998e+01 -2.4478506384270022e+00  1.1033911237268224e+01 -8.9029988502491904e+00 1.0512497758742018e+01  2.1329725661608890e+01 -9.7578453815031345e+00 3.8898798470765810e+00  1.6377063093116512e+01 -8.1568628133577583e+00 5.2216042369519666e+00  4.9358229835810356e+01 -1.2134994349907890e-01 -1.4935388033012435e+01  2.7594333919249113e+01 3.3283695955363104e+00 -1.7743063479319435e+01  4.6667799551116438e+01 2.6523329153843598e+00 -1.3509937475478910e+01  4.9125279295181784e+01 1.3502934048929802e+01 1.2857150865155957e+01  3.3636702216461167e+01 1.2644250031714265e+01 2.1125888615325124e+01  3.6453823209969038e+01 -4.9729425587013028e+00 8.0369197880311045e+00  3.2106209713246415e+01 1.7358837967745693e+01 1.7913164826301465e+01  1.0081258496925989e+02 3.8487176757862272e+01 7.4530650869942292e+01  8.5035236782792836e+01 1.3027025076497582e+01 7.3730817589031332e+01  7.9325004980865288e+01 7.5579223997806222e-01 5.3143329656213737e+01  8.6117725039974218e+01 1.6452125561910009e+01 7.9293784708752085e+01  1.3149337854175030e+01 -9.5737121767269038e+00 1.1214931244471989e+01  2.6889883514803103e+01 -3.6399894071947738e+00 1.3541794877080271e+01  1.9378269897427526e+01 -1.0687204341494215e+01 1.8158794563258315e+01  1.2591876460813220e+01 4.2510800404515443e+00 2.0870304926253603e+01  1.5262710184630293e+02 3.0079607416635152e+01 -8.2261370276902667e+01  1.1032736795115090e+02 -2.3169828788242306e+01 -8.4656998030891017e+01  1.1012774890766028e+02 -1.5676431670969964e+00 -4.8542302758245704e+01  1.1088046979561747e+02 1.7991911556311809e+01 -7.1803810389230037e+01  1.0906822276124456e+02 3.6622490720457201e+01 2.3157703120584479e+01  9.7136030751218271e+01 2.2678298210435827e+01 4.4128928903190420e+01  8.1513950087375591e+01 1.7398668341977825e+01 3.8887413820818473e+01  8.3220982222078291e+01 2.6111067477798255e+01 2.4773231489674487e+01  8.6095020094979134e+01 -1.3752978422011378e+02 -5.9893673192713464e+01  -2.4906465499084918e-01 -1.2319836308368750e+01 1.3516120904258971e+01  7.1714150284097187e+01 -4.2681474430895697e+01 2.3460323502289476e+01  4.2005238150815671e+01 -1.1143622913511198e+01 3.0387198294602862e+00  1.3081315760838467e+02 3.8108538371188622e+01 1.9583988396062363e+01  1.5285018529529574e+02 2.7808268643598577e+01 2.3652864215612652e+00  1.0801111390755530e+02 1.8711106571619148e+01 5.6012228578362269e-03  1.2434737114636420e+02 2.5230585027490690e+01 2.3335701207926270e+01  6.3951714016296542e+01 5.8967754674835655e+00 2.6200475895127070e+01  5.1208223420965062e+01 9.3826427538419086e+00 3.1360385914831607e+01  1.2865253203390486e+02 -1.8939866032780543e+01 2.6221582551217068e+01  1.5879201497883068e+02 -1.4059699308003301e+01 -1.1357080291217101e+00  1.3524218546067570e+02 -2.6832431392841634e+01 3.4627466553044073e+01  1.1825558943156564e+02 -3.2486898196821599e+01 -1.8845282102646898e+01  8.8815463552502095e+01 2.9859082281819891e+01 7.2199913707008264e+01  9.1875077720900904e+01 1.9955341358682013e+01 7.3066050785364141e+01  7.3785918152828586e+01 1.8953563578928673e+01 5.9757388481135138e+01  7.5093736894412729e+01 3.7191765616347439e+01 8.0472835298086963e+01  1.0532691328979021e+02 7.9145595718969748e+00 1.1060391145349531e+02  5.6086002241616555e+01 6.5625758290610703e+00 1.1528705346933855e+02  9.4916027593954809e+01 1.2004685437146778e+01 1.0027976431680042e+02  8.8234319472085673e+01 7.5763551879765876e+00 7.9111236220727662e+01  1.0780267162848881e+02 1.3971092299589120e+01 -3.9821601517723643e-01  1.2924522433791330e+02 4.9561227304023587e+00 4.2715216344003615e+00  1.1536327082035946e+02 8.7227915715223165e+00 -9.6469972850419552e+00  2.3110344412234262e+01 2.9277727090133883e+01 2.3270775199552993e+01  3.5771723587063455e+01 3.4429881435806138e+01 2.6304781224438717e+01  2.4377881107046193e+01 2.9752715143066986e+01 1.0158151997646597e+01  5.0083192069908272e+01 2.4420480158497259e+01 3.1009665528914336e+00  5.9959177328827295e+01 2.7492416860072623e+01 1.7193146181434642e+01  6.6677107796187641e+01 1.3988283721056700e+01 1.1748126045138291e+01  5.5969434136528761e+01 8.6718537383252912e+00 1.0959352034597604e+01  1.5457989260412168e+01 -9.4235925388283448e+00 -2.7319869201933162e+01  2.2159135365912103e+01 -6.2144639438057370e+00 -1.9429079154927560e+01  2.9717579963743262e+01 -1.5966547095063801e+00 -1.5661225580701746e+01  1.4193874483247685e+01 -5.6629416983246212e+00 -1.3248880546072083e+01  4.2007372429805891e+01 1.7532661890855109e-01 3.9930478175699193e+01  3.4832131734056759e+01 9.7809457566681990e-01 4.0843358963236902e+01  4.4248201010463312e+01 1.0878605696010759e+01 4.9183191795822033e+01  3.4753682880453745e+01 5.0423014376099013e+00 4.5870315687479284e+01  7.6563820108976117e+01 -5.2989189087104425e+00 9.7086242183761385e+01  5.6797201658503184e+01 5.1702767230763904e+01 9.1918342968608002e+01  7.4860946768286354e+01 2.0526904735441047e+01 8.1119994591163206e+01  8.1030988605819331e+01 2.4312998222939868e+01 8.4568272743176124e+01  4.2707826038442981e+01 3.0378118805349558e+01 3.5867345185641208e-01  3.6663227140322540e+01 1.5633709497029221e+01 3.0680245866352185e+00  5.2893262813976200e+01 4.1543921202161172e+01 -1.3091538334086330e+01  4.8556776427039935e+01 -6.6274173540586602e+01 -3.0242547409558917e+01  8.7671559290128087e+01 -8.9999028919864813e+01 2.0352488305619030e+01  8.5848325720947685e+01 -8.9781959835560968e+01 7.8339167524198574e+00  9.2700481083299721e+01 -5.7363346224186543e+01 -1.3693054990313185e+00  6.4536510822599737e+01 4.9634644942377559e-01 6.9925307340762259e+01  7.7483979118439038e+01 -4.7900720357914012e-01 6.8101008844303422e+01  6.6042955283162428e+01 1.2894594439961679e+01 6.5745409824509593e+01  6.7794541598368056e+01 1.5053483999212823e+01 7.2770567181834394e+01  2.0413244659313014e+02 2.6747935442150254e+01 3.2234903024790360e+00  2.1033569057948924e+02 3.0911378753509869e+01 -1.4070935680298479e+01  1.8166236730713615e+02 9.3487085805488714e+00 -3.1216396791406005e+01  1.6391084946519229e+02 1.0640165808313339e+01 -1.4710864177131482e+01  1.0525261986076747e+02 1.9256771301590888e+01 -5.2601599282506406e+00  1.0919258019966720e+02 2.9651035998820543e+01 7.7470606964081021e+00  1.1770855778141184e+02 2.5103237205004024e+01 -1.5077773820897818e+01  9.5920275764228037e+01 -3.6269857420696630e+00 7.9963621568396277e+01  9.5913737239685929e+01 1.0895543291807932e+01 8.8599632318624316e+01  1.0689255911288863e+02 1.4612336881073443e+01 9.5602941666903632e+01  2.5610055078112108e+01 -1.6613637627225009