<?xml version="1.0"?>
<VTKFile type="UnstructuredGrid"  version="0.1"  >
<UnstructuredGrid>
<Piece  NumberOfPoints="5684" NumberOfCells="22777">
<Points>
<DataArray  type="Float64"  NumberOfComponents="3"  format="ascii">21.00355911254883 2.595230102539062 1.628700971603394  20.36175918579102 2.874850988388062 0.961434006690979  21.07645034790039 2.752063989639282 0.72154301404953  20.84861203156106 3.692124628484151 0.9315539270021167  34.94326019287109 10.70890045166016 11.27241992950439  34.88917922973633 10.00642967224121 10.7487096786499  35.81557831663489 9.612654936079863 10.73680525499108  35.20242796124673 9.811945992018693 11.90035416830367  21.9540901184082 2.000858068466187 1.894482016563416  21.64191055297852 1.985077977180481 1.055714964866638  21.9579613357161 2.97375382137029 1.189585329139248  22.79132416309668 2.109449131111028 1.151119891189051  30.15699005126953 6.171529769897461 1.042019009590149  29.71379677277519 7.036829282942218 1.601473144800597  30.66994496568236 6.857468284480124 0.8470039064076924  29.7914330287247 7.427235814350977 0.7771189500792854  35.53961181640625 4.073735237121582 7.413384914398193  35.46606826782227 4.49711799621582 6.799996852874756  34.95781993521722 5.099047491174808 7.949297284878683  34.38180860518791 3.910243316789603 7.366529112726931  18.67819976806641 2.324219942092896 4.370869159698486  19.1392685311078 1.073145216937609 3.529401935230745  19.14717383116193 0.9402977468669977 4.643675149222178  19.72853304118464 1.792240259611226 4.158063189645272  31.83727073669434 5.94587516784668 9.903904914855957  31.10948102845531 5.533461568044419 9.594917103120412  31.67558941695626 4.595054054366163 10.49848689304597  31.92631978711043 5.239517382691608 9.112388835744614  35.72824859619141 3.347516059875488 10.73729991912842  34.55302241240032 4.242586094922165 10.42152226693347  34.2281194830874 3.301355788074547 11.30491997313206  34.9526150322868 3.081312797080543 9.566379380122504  29.75470075791016 8.598431516861204 1.322980872051198  30.57824027071799 9.241049602865463 2.31605935943282  29.77589532703487 9.124025703833807 2.831230960188823  29.55605760038988 8.031728934037359 2.345714080850227  34.21928829129851 12.64002394638204 1.355772822332426  33.99877791127566 12.54513146239713 2.773908798326214  34.05140386955567 13.80502304528099 2.06828732344374  35.28786389598474 13.50991225903176 1.976995995109223  24.6813793182373 0.09558500349521637 9.153931617736816  24.24528213683056 0.8895589116712234 9.690121324708137  25.10379966220598 0.7033389447626808 8.836821846408681  24.04974076333729 0.7127872542465727 9.059231839275931  21.83608055114746 2.473937034606934 0.1048400029540062  22.80558967590332 2.323617935180664 0.1048400029540062  22.87336971871895 2.874293393925115 0.8080907307833194  24.49600028991699 1.643203973770142 0.6151660084724426  24.75922012329102 0.8718330264091492 0.9860039949417114  24.17094039916992 0.5042539834976196 1.077556967735291  24.21706008911133 0.8792170286178589 0.1048400029540062  25.34629970724916 5.078290154608209 6.113070574674821  26.71964435875859 5.48186334281896 6.283361949407814  26.06085342951072 5.320064093264697 5.299764904574618  25.88458173619295 6.183497291753255 6.326775978460693  33.90008163452148 2.941236019134521 13.32433032989502  34.04682922363281 3.496597051620483 12.83841037750244  32.53182384824128 3.965208358373967 12.99771359817598  33.57386406380563 3.47545942461457 12.24247984950325  36.33905029296875 9.754186630249023 2.356865882873535  37.25259769079187 10.4354640799331 2.315412462175406  36.33722625126077 10.87220042453551 2.511220067825584  35.94468986185522 10.15631268628428 1.863765058453845  33.66947937011719 3.937901020050049 4.193717002868652  34.47209930419922 4.106895923614502 4.121044158935547  34.16408529093161 5.008572861246223 4.551825276298236  33.88085882282325 4.771750345473817 3.675702486371863  35.06922912597656 4.482101917266846 5.859911918640137  34.35946183973562 4.881538621823403 6.732290227010475  33.97947702030058 4.590762946449053 5.48299349233029  34.38749574913892 5.62422518180948 5.610584982286765  32.71181704407387 6.344657647902548 6.532548241273835  31.6462482529892 5.645432854769825 6.246909816883468  33.14399408271091 5.144504765531794 6.500719865242822  32.54661759526879 4.910537365695279 5.572672323201529  34.95782089233398 4.765946865081787 4.135313987731934  34.99605941772461 5.341097831726074 3.537661075592041  34.79978942871094 4.415253162384033 3.320770978927612  38.3503303527832 4.727511882781982 14.96438026428223  37.90721893310547 4.033687114715576 15.02655982971191  38.16768842929777 4.973151654769813 14.12918059207502  38.44258670985266 3.547105638712385 14.04833793327386  28.76135063171387 5.556865215301514 2.946438074111938  28.81509971618652 5.902900218963623 2.284902095794678  29.24104006668901 6.367414284542483 3.431150525372625  27.947688436318 6.646667158415074 2.611573535559833  22.67933234638663 10.08755740002254 1.590970188871872  21.64203050307565 10.14059424866588 0.9169025268993827  22.50221411192436 9.432760705291107 0.90497770679404  21.4219662332419 9.693391148561698 1.735405966663015  30.50325965881348 5.991970062255859 2.06486701965332  31.05024909973145 5.902554988861084 1.061890006065369  31.43254124215738 6.474650931828301 0.9601109313156658  28.40604372988198 4.968822261807485 9.447062505814801  29.04106673268116 3.464235671851138 9.705702695975935  27.75182867431703 3.943738120852379 10.63905103944377  29.40119288621412 4.792960989102473 10.55847248369121  30.9451904296875 9.143291473388672 5.195538997650146  31.79793930053711 9.565357208251953 5.358193874359131  31.49744229905025 8.186325792692704 5.260215761252667  31.95251649416979 9.389863271609016 4.490038319835433  24.92174080711989 9.355205660378592 1.875175238386219  26.22339422693641 8.289407279389222 1.682318234816384  26.03381706172394 9.244460376688616 2.329518734025226  25.23385092431901 8.304668630912973 2.425504580460105  22.41316579832372 5.883991519274248 8.793263898605858  22.69445965649212 7.16281079828927 8.269381179309946  22.51987224701572 7.079338883244692 9.16487902770468  21.74802334371101 6.487796087347767 7.970303094680163  29.22979057633018 3.223422803305376 11.16638460034642  28.95392779567597 2.45059828091901 9.808669991902116  28.695063285511 1.872274530517871 10.84809779485584  29.62687076449561 2.182457018336561 10.25995628285873  22.73111915588379 11.07773971557617 0.1048400029540062  23.58580017089844 10.87411975860596 0.1048400029540062  22.93919944763184 10.29082012176514 0.1048400029540062  22.54791090743854 10.59635640318724 0.8081405986525223  32.74834060668945 8.58505916595459 0.1048400029540062  32.51227951049805 7.380088806152344 0.1048400029540062  33.20288848876953 7.580080986022949 0.1048400029540062  33.22601564602039 7.922355512479454 0.9734454416560575  35.76331263781154 12.22741456114685 2.174857605397884  35.01956384697406 11.28553497736429 2.406801043478785  23.70779037475586 0.6432449817657471 3.83535099029541  24.31006050109863 0.09558500349521637 3.626425981521606  25.29481724196222 0.8337792547159328 3.381900798472769  24.32163653590938 0.8421867065467026 2.684605259538535  32.17095947265625 8.187406539916992 7.709639072418213  32.13117980957031 8.880153656005859 7.141928195953369  32.22360253949989 7.987175412869323 6.327768485600236  32.73443747617738 8.653166103634874 6.749271413088104  23.89421081542969 2.057183980941772 10.22861957550049  23.25609970092773 1.117529034614563 10.10007953643799  24.22606086730957 1.256044983863831 10.60750961303711  30.47163963317871 8.643634796142578 5.940132141113281  30.06996403081871 7.779650492886737 5.158734265989255  22.34967041015625 10.5523796081543 3.336554050445557  21.45617041592499 10.23442946638536 3.435721739456259  21.95220532722593 10.60180196323753 2.3190440031208  22.22945184260638 9.788683527677206 3.105627033629253  39.89416122436523 4.834065914154053 13.47035026550293  39.4738245831236 4.554010577191837 12.86175796898517  39.4738245831236 4.43225259303046 13.26854822548541  39.89416122436523 4.447533845901489 13.09535026550293  39.89416122436523 4.95582389831543 13.06356000900269  39.89416122436523 5.077581882476807 12.65676975250244  39.89416122436523 4.569291830062866 12.68856000900269  39.89416122436523 4.061001777648926 12.72035026550293  39.4738245831236 4.045720524777897 12.89354822548541  39.05348794188198 4.030439271906868 13.06674618546789  30.96115052006461 7.591584176529498 1.706874621745873  31.8299976816548 7.539948855696099 0.8944332287377796  31.92634564462029 8.333711991797054 0.8254628742528911  30.84504407720781 7.942943260542542 0.6478476569484103  33.77788925170898 9.225959777832031 7.658119201660156  34.5929666529624 8.240237934997566 7.234377642307583  33.36370576964844 7.80439221293175 7.274291767786305  33.79524858485257 9.135771096128643 6.254679524142772  33.55965528371198 3.107285035033978 8.964189219908727  33.04656744389909 3.496849309606379 10.35814018019489  32.13819864437956 3.629870935695131 9.181139807029759  33.53834137136033 4.737827866463109 9.164143188794061  28.39427834561056 6.100803002068217 10.90796115155279  28.72984244995568 6.153625185356196 9.359521214695823  27.43947706659921 5.265327927451131 10.11594911968346  30.80127310885747 6.729643623321662 5.40711887922095  29.18620713177881 6.892684342669171 4.67339685289443  29.62865765895461 6.545103560100156 6.089104986431016  30.15233756593786 5.918484865852899 4.996366607343952  23.63150605620061 11.52211237263001 1.004130951951623  23.46878917199833 10.46041066299933 1.419127277505042  21.81518471119973 2.280171635626965 8.953579482165214  20.69303212202182 1.99359166312263 7.40878372851521  21.32558350520877 3.095632128149187 7.891991382804905  21.9680045612947 1.832696972183135 7.522502144687516  26.99059439380728 5.488297069510878 8.392575951244607  27.94666210186808 6.026289391324402 7.509489566591742  28.48281232786853 4.92174870619388 8.018312407656902  37.4
[...]
<PointData  Scalars="p"> 
<DataArray  type="Float64"  Name="p"  format="ascii">8.0821089068136232e+00  8.0871797744733627e+00  8.0808955581394226e+00  8.0824278189141534e+00  8.0232384262897245e+00  8.0233704307326512e+00  8.0221311734169145e+00  8.0260081803395451e+00  8.0772042739872987e+00  8.0777015257851748e+00  8.0782100172532996e+00  8.0759516658900097e+00  8.0492023121783820e+00  8.0514758681502325e+00  8.0475575710283849e+00  8.0508640864777981e+00  8.0410242809380570e+00  8.0403849249314376e+00  8.0395957950501895e+00  8.0424666270175944e+00  8.0980232358578945e+00  8.0991539175351654e+00  8.0955313787594019e+00  8.0915213842144595e+00  8.0491049363877760e+00  8.0514242585258202e+00  8.0501015605291144e+00  8.0480858225783898e+00  8.0427821616924273e+00  8.0421643550320194e+00  8.0452497195626194e+00  8.0440141596339778e+00  8.0510968059021231e+00  8.0468190310637340e+00  8.0505049852811030e+00  8.0520084302665609e+00  8.0213620450717933e+00  8.0216838205172110e+00  8.0186189638769942e+00  8.0172787833323298e+00  8.0684407392514164e+00  8.0687313302077879e+00  8.0679889002316543e+00  8.0696782111266092e+00  8.0776987251622412e+00  8.0760409724880304e+00  8.0760737230723727e+00  8.0744780860592993e+00  8.0743149798816560e+00  8.0744622346229544e+00  8.0746860217980867e+00  8.0683862106842721e+00  8.0645167147673344e+00  8.0666344938338330e+00  8.0665202894571664e+00  8.0489215671224077e+00  8.0465954401048094e+00  8.0493916037858089e+00  8.0470169402924920e+00  8.0202090485948236e+00  8.0160839056009401e+00  8.0191665367887595e+00  8.0215545543020585e+00  8.0420388924758459e+00  8.0415695679342267e+00  8.0412895354575387e+00  8.0416491831302928e+00  8.0409286971705836e+00  8.0410963515716016e+00  8.0418407059918220e+00  8.0400510647253185e+00  8.0427676819213723e+00  8.0465738015541497e+00  8.0429797977960131e+00  8.0439202788806554e+00  8.0411213760569975e+00  8.0409153095351193e+00  8.0414221183985415e+00  8.0206816557369986e+00  8.0235673642507770e+00  8.0200377967668821e+00  8.0198869035226732e+00  8.0564747225313251e+00  8.0558461866777105e+00  8.0542283226989557e+00  8.0591531323810628e+00  8.0740197390082127e+00  8.0752993132699959e+00  8.0736471709907818e+00  8.0755244533954027e+00  8.0487303568577921e+00  8.0459478305273429e+00  8.0451386192888226e+00  8.0593723024939479e+00  8.0575557069133410e+00  8.0599570118027195e+00  8.0565864094568180e+00  8.0443005640585010e+00  8.0392505998865236e+00  8.0438529828655980e+00  8.0393678187544104e+00  8.0680078774350399e+00  8.0643643637981430e+00  8.0645680290550139e+00  8.0671497663184955e+00  8.0747863558025905e+00  8.0766489254516038e+00  8.0780285499294191e+00  8.0759539183647977e+00  8.0566914773596707e+00  8.0579947486197749e+00  8.0581095317616676e+00  8.0562223772842838e+00  8.0744121601219447e+00  8.0723816378638915e+00  8.0733162287303930e+00  8.0743829825771982e+00  8.0394397218311013e+00  8.0420198019239848e+00  8.0402438767964526e+00  8.0394553221708236e+00  8.0185601274015319e+00  8.0228416379466605e+00  8.0734732021787661e+00  8.0730740828298764e+00  8.0726902692319822e+00  8.0736527733654828e+00  8.0415439698973632e+00  8.0397704143945354e+00  8.0415362463226820e+00  8.0379805490800145e+00  8.0690777430358196e+00  8.0704535057202964e+00  8.0678653789658199e+00  8.0476711177308786e+00  8.0503617287325664e+00  8.0768123550799977e+00  8.0778215442458450e+00  8.0762851079247557e+00  8.0758230681678871e+00  8.0000000000000018e+00  8.0056755804046329e+00  8.0063941515540833e+00  8.0000000000000000e+00  8.0000000000000018e+00  7.9999999999999991e+00  7.9999999999999991e+00  7.9999999999999991e+00  8.0074897402688734e+00  8.0118797467098961e+00  8.0466266546888310e+00  8.0437274777746879e+00  8.0426326075722141e+00  8.0468593644086024e+00  8.0318643976357187e+00  8.0321784282951842e+00  8.0376711674828254e+00  8.0327430543915508e+00  8.0456169641523019e+00  8.0471254196075215e+00  8.0483641762627727e+00  8.0435761085520951e+00  8.0600818746655047e+00  8.0591573473050229e+00  8.0615225534916348e+00  8.0485089757660990e+00  8.0544399316190987e+00  8.0535951979526867e+00  8.0513195962155368e+00  8.0731039843154573e+00  8.0725331062723242e+00  8.0733071095397619e+00  8.0764590443482174e+00  8.0744322994016766e+00  8.0744559103326203e+00  8.0634737820032498e+00  8.0606654406214933e+00  8.0593096434723144e+00  8.0218288151117818e+00  8.0204565632045739e+00  8.0267696730585616e+00  8.0266894721288047e+00  8.0417725727967593e+00  8.0416199579991812e+00  8.0415908063772239e+00  8.0415499223797227e+00  8.0501379178784891e+00  8.0541573913097366e+00  8.0529449814713168e+00  8.0312826194570466e+00  8.0296240005919977e+00  8.0344116816983639e+00  8.0296050307179936e+00  8.0474681888489066e+00  8.0449661211720276e+00  8.0498621321773705e+00  8.0617963289130028e+00  8.0602192832832795e+00  8.0629184002440990e+00  8.0610722437178044e+00  8.0353480992002631e+00  8.0308186534612211e+00  8.0346419959013176e+00  8.0398526601973241e+00  8.0530104975815409e+00  8.0529433675537891e+00  8.0503673318612776e+00  8.0640148809523957e+00  8.0615839795219326e+00  8.0400946472168009e+00  8.0442561672084967e+00  8.0408216822510852e+00  8.0419490174979344e+00  8.0444062417801874e+00  8.0457167625243535e+00  8.0698096078340900e+00  8.0720057213769092e+00  8.0707939715594090e+00  8.0728963282444415e+00  8.0727188152573142e+00  8.0714470019277407e+00  8.0706610687398719e+00  8.0727758025616314e+00  8.0722327614569327e+00  8.0695747823296795e+00  8.0647627509905586e+00  8.0641516163470044e+00  8.0655027888650235e+00  8.0636736310558739e+00  8.0698170763124946e+00  8.0700607259143577e+00  8.0674078991625908e+00  8.0582142541684671e+00  8.0569211843307471e+00  8.0257797887257762e+00  8.0230641360329749e+00  8.0245830343514157e+00  8.0263122786905843e+00  8.0379902542233754e+00  8.0301943771315010e+00  8.0325753751316658e+00  8.0381106377823635e+00  8.0814403905163683e+00  8.0833336861276415e+00  8.0847538601360398e+00  8.0797523753128608e+00  8.0730186983651588e+00  8.0697737331322532e+00  8.0703585762650025e+00  8.0722334666891449e+00  8.0601202316573080e+00  8.0553054614364523e+00  8.0601616343309406e+00  8.0576165924196008e+00  8.0627175423956086e+00  8.0607690338175235e+00  8.0608097225654820e+00  8.0627309573943489e+00  8.0891615691539958e+00  8.0916155522368314e+00  8.0977234871158288e+00  8.0952445965431501e+00  8.0747344763873290e+00  8.0769291416736611e+00  8.0770145120908055e+00  8.0774254759375701e+00  8.0516622405133607e+00  8.0504452904308064e+00  8.0533661666044836e+00  8.0494467909734784e+00  8.0467572287726394e+00  8.0489290615246318e+00  8.0488759884585530e+00  8.0485493997353839e+00  8.0553449902150547e+00  8.0546653507748918e+00  8.0300317048344620e+00  8.0281277089046554e+00  8.0323884710087139e+00  8.0318706370825090e+00  8.0623620768419872e+00  8.0593590287571413e+00  8.0634680239159930e+00  8.0747669528669448e+00  8.0740740442760757e+00  8.0741800677083155e+00  8.0744622735435385e+00  8.0734437578630018e+00  8.0728542695612777e+00  8.0741610558763721e+00  8.0718478108693077e+00  8.0558843427357338e+00  8.0546669367514028e+00  8.0514541652046283e+00  8.0537950000522116e+00  8.0994957898554318e+00  8.0917201931137104e+00  8.0964534288052974e+00  8.0970660790561730e+00  8.0762987133099244e+00  8.0745732389322082e+00  8.0761602948499203e+00  8.0445954735461687e+00  8.0432576953573136e+00  8.0530935342961882e+00  8.0500296404991847e+00  8.0269756171648705e+00  8.0254282494217968e+00  8.0282140190949196e+00  8.0292066563856217e+00  8.0660042389887625e+00  8.0662764546865393e+00  8.0651933216051734e+00  8.0670481876512117e+00  8.0415317313504087e+00  8.0417143387004870e+00  8.0416348270939206e+00  8.0416927429434946e+00  8.0580163163273060e+00  8.0599408579456870e+00  8.0571527934504896e+00  8.0364135889246242e+00  8.0358559832273393e+00  8.0288397998650272e+00  8.0356117055963523e+00  8.0752528117015405e+00  8.0733394793995643e+00  8.0736651978621126e+00  8.0737354974391486e+00  8.0668541596320313e+00  8.0651564329633931e+00  8.0645772291412268e+00  8.0655828966607004e+00  8.0285795253181114e+00  8.0364817969769646e+00  8.0359085468145572e+00  8.0348963974616456e+00  8.0786566824820483e+00  8.0775708904755223e+00  8.0789041366764653e+00  8.0281187054723855e+00  8.0323022620790070e+00  8.0328980763461093e+00  8.0620545960406016e+00  8.0639683132006059e+00  8.0596016112141324e+00  8.0628593699752749e+00  8.0549453817413195e+00  8.0546556960795801e+00  8.0522855658455494e+00  8.0534900783105794e+00  8.0317629426782791e+00  8.0351062687672492e+00  8.0313537095104213e+00  8.0646146662081986e+00  8.0634723778749997e+00  8.0630676312322791e+00  8.0655309409744440e+00  8.0667079541837712e+00  8.0641593736735206e+00  8.0672877823821967e+00  8.0666727211961131e+00  8.0662905086615098e+00  8.0746621309387567e+00  8.0724794723379159e+00  8.0647297436414824e+00  8.0682949936264432e+00  8.0654675768447301e+00  8.0665628671527667e+00  8.0768425780645234e+00  8.0751137864465470e+00  8.0742971403798709e+00  8.0663565686066647e+00  8.0651541762670433e+00  8.0638580373008217e+00  8.0611698906180713e+00  8.0593694122810362e+00  8.0603800252231483e+00  8.0595769642311659e+00  8.0811426504058588e+00  8.0868005233645821e+00  8.0808289147701124e+00  8.0191697373614730e+00  8.0212459840465407e+00  8.0154586235712770e+00  8.0191469716678601e+00  8.0193531870033841e+00  8.0162768126772530e+00  8.0152798122637172e+00  8.0106563054016942e+00  8.0631357375154487e+00  8.0627909781175067e+00  8.0707299525465945e+00  8.0715227945748644e+00  8.0718878683272504e+00  8.0711044770310121e+00  8.0616516161438092e+00  8.0628149038318018e+00  8.0601966034617885e+00  8.0285040495859867e+00  8.0204447080661438e+00  8.0242417873212801e+00  8.0264939824682617e+00  8.0704087562842517e+00  8.0729395375793160e+00  8.0719916821423645e+00  8.0726236737236476e+00  8.0634873359948500e+00  8.0625391759704375e+00  8.0619276361382948e+00  8.0648089138563464e+00  8.0724350196708414e+00  8.0709102364898548e+00  8.0207952430859404e+00  8.0208116241311380e+00  8.0194661721647478e+00  8.0596128359099506e+00  8.0618707801008984e+00  8.0605545021879319e+00  8.0614099056077269e+00  8.0709532789081191e+00  8.0695710675364616e+00  8.0702831311101555e+00  8.0371678643651254e+00  8.0388673485051676e+00  8.0319337219521696e+00  8.0346935386183187e+00  8.0726853318832870e+00  8.0703989257329773e+00  8.0710249407441399e+00  8.0648495517931629e+00  8.0638304897919237e+00  8.0640885766182784e+00  8.0646783421588566e+00  8.0521188434967108e+00  8.0500442516448505e+00  8.0508016561287281e+00  8.0504938311001268e+00  8.0415602577680261e+00  8.0415623347560388e+00  8.0416081123274292e+00  8.0527186309347716e+00  8.0481203736740081e+00  8.0559464192959140e+00  8.0563646164417726e+00  8.0286508257385236e+00  8.0280080491396166e+00  8.0267467879720744e+00  8.0251906080996989e+00  8.0892690645981453e+00  8.0941508470825188e+00  8.0880438058649364e+00  8.0726093234407141e+00  8.0724923541787312e+00  8.0716095889109898e+00  8.0735096670410567e+00  8.0356619633650812e+00  8.0398192008494203e+00  8.0391386044692581e+00  8.0365709854568195e+00  8.0256210261507128e+00  8.0282822687187725e+00  8.0627260402649004e+00  8.0701850615302799e+00  8.0673696658387470e+00  8.0688258201526786e+00  8.0584326427039308e+00  8.0554508693539670e+00  8.0550782436181692e+00  8.0578252692926853e+00  8.0335161864943991e+00  8.0345479283395118e+00  8.0284461007199646e+00  8.0490502611954167e+00  8.0503555363191488e+00  8.0391396492466001e+00  8.0433534263588093e+00  8.0384194137470963e+00  8.0474067894806218e+00  8.0443807402174627e+00  8.0655199416758521e+00  8.0668524740860121e+00  8.0744847658397898e+00  8.0758991179035604e+00  8.0744267501828197e+00  8.0717218955990706e+00  8.0539989877473506e+00  8.0521555651248597e+00  8.0555279052986997e+00  8.0409252839963141e+00  8.0436171309139510e+00  8.0632276476337754e+00  8.0631585276108613e+00  8.0635969858019632e+00  8.0634421906803180e+00  8.0621286146604572e+00  8.0620105736436969e+00  8.0622650933292377e+00  8.0677535540321443e+00  8.0658572826523045e+00  8.0673129825941796e+00  8.0677378420933454e+00  8.0634110110748818e+00  8.0626918612420599e+00  8.0652008514430573e+00  8.0416157333159504e+00  8.0785917756454211e+00  8.0807176471694024e+00  8.0795578627408862e+00  8.0790530475074149e+00  8.1066348514823972e+00  8.1061275940620785e+00  8.1032178089360034e+00  8.1108563505452178e+00  8.0517210711566278e+00  8.0537296184326053e+00  8.0532310924122772e+00  8.0575829190466557e+00  8.0577905845870461e+00  8.0577080758816635e+00  8.0676748910845344e+00  8.0655206016634544e+00  8.0663092618541992e+00  8.0650663057517633e+00  8.0948300846322798e+00  8.0882101249756335e+00  8.0942861136615836e+00  8.0598524419758650e+00  8.0540100351432677e+00  8.0549052199477433e+00  8.0538699738248454e+00  8.0565478932395269e+00  8.0647801668095749e+00  8.0615815001530908e+00  8.0421414053383415e+00  8.0465304606889259e+00  8.0659331089290518e+00  8.0646720917414623e+00  8.0661272334316170e+00  8.0758190124969573e+00  8.0782586790547501e+00  8.0753185075300546e+00  8.0769110882896609e+00  8.0476819452407700e+00  8.0426641180988447e+00  8.0634375474595679e+00  8.0607763767928446e+00  8.0280049357545131e+00  8.0223246535682673e+00  8.0265080335905985e+00  8.0255897743467202e+00  8.0985502973111139e+00  8.1055670639608728e+00  8.0682979682641793e+00  8.0652023443117731e+00  8.0963431495575442e+00  8.1035327506549741e+00  8.0965632825716085e+00  8.0551524986507292e+00  8.0578488152414902e+00  8.0583101092919271e+00  8.0978787048422802e+00  8.0931973406905620e+00  8.0993030240817561e+00  8.0493342587004992e+00  8.0856529410929703e+00  8.0823995471565997e+00  8.0824763759197147e+00  8.0683348735333720e+00  8.0681563078454417e+00  8.0691863380582749e+00  8.0461152581959503e+00  8.0467614536438621e+00  8.0448658519059446e+00  8.0559446770491565e+00  8.0528013908470868e+00  8.1074504473507130e+00  8.1075087330407616e+00  8.1051253127860203e+00  8.0573323712441560e+00  8.0612411603376675e+00  8.0637707110565788e+00  8.0635592761526560e+00  8.0279033328792604e+00  8.0326051489249224e+00  8.0303679487284878e+00  8.0278890491034165e+00  8.0248317913187126e+00  8.0551741713015748e+00  8.0328115450661084e+00  8.0364158401136248e+00  8.0296485512033762e+00  8.0217515335639433e+00  8.0223561609336009e+00  8.0209502063230946e+00  8.0603127783176713e+00  8.0172851378476953e+00  8.0121106584214754e+00  8.0614042712269018e+00  8.0597396649536286e+00  8.0617214625725957e+00  8.0596967680905518e+00  8.0213596744805908e+00  8.0246263040295602e+00  8.0220562954872232e+00  8.0190615442769726e+00  8.0175293065483189e+00  8.0204011035079343e+00  8.0169448340801104e+00  8.0177270406261130e+00  8.0158011852730375e+00  8.0141928273770748e+00  8.0798324816346501e+00  8.0784866584579937e+00  8.0773314041337336e+00  8.0787819009992301e+00  8.0637283564711062e+00  8.0617996966529208e+00  8.0734082135435923e+00  8.0752458357766681e+00  8.0749640241738874e+00  8.0528608010645293e+00  8.0511412310735668e+00  8.0515036932564463e+00  8.0510560269247371e+00  8.0529723530444475e+00  8.0534415767659269e+00  8.1005311097218584e+00  8.1005758687681375e+00  8.0240461807575283e+00  8.0186574590767723e+00  8.0459174646906195e+00  8.0490357219123609e+00  8.0456937659447387e+00  8.0682627664837590e+00  8.0562383709543095e+00  8.0599577573348817e+00  8.0287303594159329e+00  8.0273525252954609e+00  8.0221769454698553e+00  8.0244357753781124e+00  8.0573969658795885e+00  8.0534921223340419e+00  8.0655653271126688e+00  8.0640865948193543e+00  8.0771790635130802e+00  8.0760193641142450e+00  8.0751187765391812e+00  8.0658726873401481e+00  8.0390692216619737e+00  8.0334086837079628e+00  8.0345656698464971e+00  8.0358860803313963e+00  8.0695453959280101e+00  8.0734874829484617e+00  8.0695793877619231e+00  8.0692812728644618e+00  8.0391346161447821e+00  8.0380655581506382e+00  8.0428055576570792e+00  8.0381687625130702e+00  8.0413816136323657e+00  8.0413788164499316e+00  8.0513420103302806e+00  8.0499820857502513e+00  8.0734842605576258e+00  8.0739707864890740e+00  8.0743485418489396e+00  8.0168813522059832e+00  8.0676164411933353e+00  8.0645674364910889e+00  8.0672824921071147e+00  8.0659253372687090e+00  8.0420694914129829e+00  8.0413975418011105e+00  8.0614231871699982e+00  8.0633400912751902e+00  8.0402502006887158e+00  8.0481154475626546e+00  8.0341851341807757e+00  8.0356034923617070e+00  8.0331100294090572e+00  8.0385510078946201e+00  8.0541095152580198e+00  8.0494042497114666e+00  8.0509006924777289e+00  8.0590597299454512e+00  8.0595919393404714e+00  8.0575533435477098e+00  8.0353610113647829e+00  8.0305401117557142e+00  8.0362094487389673e+00  8.0323663715469156e+00  8.0650046097677563e+00  8.0623518204821085e+00  8.0635111773958865e+00  8.0225952708381403e+00  8.0249397512212681e+00  8.0885206201237114e+00  8.0807727178310724e+00  8.0496716967827471e+00  8.0442654569243430e+00  8.0462357900066657e+00  8.0482444347016386e+00  8.0285658667590472e+00  8.0310545761141015e+00  8.0252872818720427e+00  8.0268106882783510e+00  8.0267325740889870e+00  8.0319207204252407e+00  8.0258726257377617e+00  8.0607133001967526e+00  8.0628123857579830e+00  8.0549184141086041e+00  8.0502604477242254e+00  8.0535731002371076e+00  8.0520423775433638e+00  8.0695957459252021e+00  8.0678902362345433e+00  8.0763172704000272e+00  8.0773253734730268e+00  8.0775248879210793e+00  8.0762678703990609e+00  8.0575829545320286e+00  8.0585003124370918e+00  8.0553162695037663e+00  8.0443602999303874e+00  8.0433044620336744e+00  8.0429854179906375e+00  8.0768046087007637e+00  8.0754362793795202e+00  8.0745855389217915e+00  8.0768314228983140e+00  8.0191661374863266e+00  8.0212472650857976e+00  8.0209791474462371e+00  8.0239450887907484e+00  8.0727653060710409e+00  8.0738843734507739e+00  8.0657868140969011e+00  8.0619456566733199e+00  8.0479949187037843e+00  8.0479728026303547e+00  8.0474391349178624e+00  8.0489669119620419e+00  8.0583543413273233e+00  8.0720498209733940e+00  8.1030213275626881e+00  8.0515570097233198e+00  8.0491028041477897e+00  8.0506642213526067e+00  8.0746211126423830e+00  8.0755057642695238e+00  8.0755509489023556e+00  8.0678094415255970e+00  8.0523222959980849e+00  8.0541815101339349e+00  8.0731231012831675e+00  8.0735056836508985e+00  8.0674330994326855e+00  8.0698706640995361e+00  8.0230302856274314e+00  8.0206192740325903e+00  8.0238931336240586e+00  8.0217642844040267e+00  8.0231807951122853e+00  8.0261179375862231e+00  8.0719151688914312e+00  8.0715387173843407e+00  8.0720402529773736e+00  8.0693839867900916e+00  8.0756411294978534e+00  8.0755434505026997e+00  8.0791206846896717e+00  8.0775215719373072e+00  8.0801878139625334e+00  8.0292452857342536e+00  8.0269718352298920e+00  8.0690353964197588e+00  8.0694799606841148e+00  8.0673026358179509e+00  8.0695846445374162e+00  8.0746030021778026e+00  8.0745606680310402e+00  8.0643329924232496e+00  8.0636814819714555e+00  8.0631888932627263e+00  8.0677696559851686e+00  8.0699466326529024e+00  8.0687438747171640e+00  8.0688433431681030e+00  8.0691968109633549e+00  8.0675503207457133e+00  8.0681048266138848e+00  8.0429388617364772e+00  8.0476919859418192e+00  8.0469397888444227e+00  8.0707491441121295e+00  8.0640574237477534e+00  8.0606910898971549e+00  8.0627856496996486e+00  8.0617548141393804e+00  8.0273425253453876e+00  8.0256384902777338e+00  8.0305452250553788e+00  8.0182164373196105e+00  8.0757887931869501e+00  8.0757639554137910e+00  8.0746547788766954e+00  8.0695386136688345e+00  8.0700261307000023e+00  8.0709651189482710e+00  8.0686376502724997e+00  8.0139348065109832e+00  8.0586295074316077e+00  8.0578471993532794e+00  8.0574920112972865e+00  8.0582289209332103e+00  8.0759619616644454e+00  8.0752611505700909e+00  8.0544955709452868e+00  8.0494412051938546e+00  8.0560090942786484e+00  8.0755629049967457e+00  8.0755902596888269e+00  8.0748110743177524e+00  8.0421127583702354e+00  8.0425632398284801e+00  8.0612347665451907e+00  8.0695349703245682e+00  8