<?xml version="1.0"?>
<VTKFile type="UnstructuredGrid"  version="0.1"  >
<UnstructuredGrid>
<Piece  NumberOfPoints="4003" NumberOfCells="16084">
<Points>
<DataArray  type="Float64"  NumberOfComponents="3"  format="ascii">37.9563102722168 24.45449066162109 10.94330024719238  38.35604095458984 23.67276000976562 10.98674964904785  38.51703615627169 23.94887147026637 9.529690675837218  37.90902115676003 23.12924412830383 10.00537454279683  29.62165069580078 26.01417922973633 4.585062980651855  30.11992073059082 25.37562942504883 4.829001903533936  30.24413803168024 25.30507333306334 3.648540197840473  30.85519470560805 26.04913078732638 4.499513303350759  37.07347106933594 23.64686965942383 11.49678039550781  37.48654937744141 23.86907958984375 11.11993026733398  37.55401992797852 23.14488983154297 11.02145004272461  36.64344504871455 23.08790903695323 10.33296201299704  31.16705785117664 27.58111774845829 2.119045687222297  32.34855065376176 27.49363719535875 2.259546270572376  32.13731890600584 26.70646295640404 3.23518068866495  31.50444435233334 26.37352753883963 2.296127921847472  31.77516937255859 27.91752052307129 0.1048400029540062  31.46932983398438 26.89102935791016 0.1048400029540062  32.47663879394531 26.97271919250488 0.1048400029540062  32.36974965365093 27.81126960748678 1.173994123735703  33.103759765625 26.06777000427246 0.1048400029540062  33.8614616394043 26.40605926513672 0.7175999879837036  33.77825164794922 25.58662033081055 0.6244999766349792  33.23249804094441 26.16324542351506 1.268938111922248  31.6786109832197 25.29153947586563 3.572197898078425  32.46904113723465 25.8772973663796 4.299280188946014  33.47404861450195 26.38339996337891 2.319401979446411  33.78224945068359 25.63505935668945 2.59277606010437  32.98317765427922 25.5397784822014 2.023527064062082  32.79766149489416 25.84333211257402 3.067414546342718  30.05559035136928 27.80914084626412 2.187864788302195  29.62575647982764 26.9712560018843 1.21902838320161  30.93717267863429 27.00158952744416 1.124747923881928  30.3653359943599 27.86543773663012 0.898220637715714  37.1644401550293 20.79659080505371 10.48692035675049  37.83536911010742 21.51054954528809 10.11802959442139  37.86577987670898 20.41926956176758 10.07503986358643  37.22016384877366 21.53544683639867 9.761912402948132  29.46466064453125 25.48755073547363 4.079052925109863  29.86743358294969 26.65618849481719 4.365935134365714  32.17006868801604 26.4956552691472 1.29391646482335  31.75651588348583 25.34126703076872 2.298047654776352  39.89416122436523 23.32547950744629 8.607916831970215  39.01574981463563 22.83704318268216 9.624737670738405  39.16571574857417 23.07281145453378 8.375523705620457  30.18416976928711 27.98753929138184 0.1048400029540062  29.62887001037598 27.27545928955078 0.1048400029540062  30.44214057922363 26.9444694519043 0.1048400029540062  31.7207486476426 25.65482647397589 5.156429353593802  38.36016845703125 24.02113914489746 6.844755172729492  38.11426162719727 23.17811012268066 6.567914009094238  38.86901092529297 23.45517921447754 6.49235200881958  39.08100896955899 23.74226970752433 7.265524458059358  37.38357925415039 23.73837089538574 6.882932186126709  38.14941045972246 23.13151187021052 8.148568165199061  37.29478701187464 22.65524547740413 7.327972612912469  37.15135869560406 23.89062762350329 8.318102618746002  29.39249992370605 28.09894943237305 1.417353987693787  35.88495773162769 23.0291569852467 8.322548653644978  36.43395418603998 23.61760192635358 7.264289937056057  37.55107116699219 22.23357963562012 10.58438014984131  36.71140999017412 22.13147417929489 10.53608446932854  37.25151824951172 21.55234909057617 10.36050987243652  36.45341751724281 21.16267296149732 10.05390459589012  33.56480026245117 27.12031936645508 1.808871984481812  32.68327026483655 26.46738948610284 2.236022662164835  33.07921991756039 27.09123408283337 1.214229048769934  38.98678284009119 23.7603995580178 10.31130856530323  37.01247122467058 20.95248519825295 8.933006848505521  36.16138604873965 21.97694424695051 9.383047612830731  37.28134189538468 22.2634322468019 8.631120751944165  33.0714111328125 28.74765014648438 1.172067999839783  32.53094863891602 28.73253059387207 0.1048400029540062  33.29742050170898 28.04376029968262 0.740801990032196  30.43322429167514 25.65929650032013 1.9577576969723  30.73566815156903 26.61982288788991 3.285330900191917  29.77919910547895 26.55320436736205 2.468923497905982  31.22939778561207 25.71908476388591 0.924781449430282  39.27981185913086 23.58613014221191 10.80130004882812  39.89416122436523 24.17546081542969 10.42133045196533  39.51565854264082 23.4324178482504 10.43248316975938  36.91433114606399 23.04986061793003 9.031707289296049  38.19477943828035 21.84694523960158 9.325505687217625  38.98297119140625 23.23703956604004 10.87409019470215  38.82681916468174 23.62861112632823 10.89223960286158  38.8913700203281 23.30812999348364 10.47725718989066  39.89416122436523 23.94548988342285 9.55731201171875  39.89416122436523 24.46122932434082 8.812515258789062  37.32479262207104 22.2296866695527 9.807650666581841  37.15845787752341 24.22537626665227 10.04390807712972  39.89416122436523 24.18450927734375 7.768991947174072  39.89416122436523 23.08750915527344 7.253117084503174  33.43321990966797 26.04936027526855 3.18457293510437  38.12968063354492 22.24398994445801 10.2499303817749  33.0973014831543 27.06635093688965 2.579118967056274  38.40391159057617 22.82642936706543 10.62668037414551  30.92189979553223 27.63274955749512 0.1048400029540062  38.97623182327121 22.60118306405835 7.229315810219228  33.43515014648438 27.94001007080078 1.493165016174316  33.81298828125 27.2681999206543 1.003849029541016  34.02000045776367 25.67514991760254 1.216985940933228  33.21201195691356 25.0979069057431 1.110532132399532  30.72780990600586 25.79269027709961 5.608963012695312  30.83317947387695 24.96040916442871 5.327242851257324  31.48049776244686 28.32716657852058 1.080493160420436  38.87236022949219 24.75435066223145 6.660829067230225  39.20029830932617 24.15913009643555 6.486288070678711  39.2667673606292 24.96483259851268 7.129117766220235  33.91471862792969 26.46932983398438 1.432021975517273  33.88064956665039 25.8818302154541 1.917862057685852  32.04122161865234 25.9770393371582 0.1048400029540062  28.94075965881348 27.52058982849121 1.926972031593323  38.89065933227539 24.3741397857666 10.88687038421631  39.08523559570312 23.98013496398926 10.84408521652222  29.97833357652128 26.15163471510824 0.9089145766456015  39.89416122436523 24.16916084289551 6.813395977020264  33.05672073364258 26.59889030456543 3.062750101089478  29.15029907226562 26.36230087280273 3.912610054016113  32.34145576342301 25.37042995173007 0.9764241331415298  33.19485092163086 27.67476081848145 2.212409019470215  31.59518051147461 25.08358001708984 5.936227798461914  37.0832405090332 22.59161949157715 11.535719871521  39.33205032348633 22.63949012756348 10.46518039703369  32.99074935913086 27.22901916503906 3.392071008682251  28.83424949645996 26.33221054077148 2.870907068252563  28.99912071228027 25.4984302520752 3.420133113861084  28.9807300567627 27.11697006225586 2.592587947845459  28.50542068481445 26.64035987854004 2.068619966506958  38.68632125854492 22.05209922790527 10.31674957275391  31.11605072021484 26.01741027832031 0.1048400029540062  38.70695418689169 24.56214186093092 8.087064371641677  29.26688957214355 27.77231025695801 0.7421830296516418  37.06652069091797 21.60485076904297 10.95520973205566  32.66243212529546 27.20631396104077 4.036023843103844  39.89416122436523 23.18572998046875 9.840580940246582  33.26342010498047 26.51556968688965 4.005504131317139  37.00043869018555 20.78809928894043 11.477219581604  39.30390730145014 23.14948426926147 10.64626195990043  39.37406921386719 23.45195007324219 6.475251197814941  32.74150085449219 27.83600044250488 0.1048400029540062  28.80257034301758 27.60294914245605 1.154826045036316  35.9665938160885 22.21300901458282 8.072619238873642  33.37417984008789 27.17852020263672 0.1048400029540062  38.88113021850586 35.38135147094727 22.06880950927734  39.36452865600586 35.34934997558594 22.81365013122559  39.09764862060547 34.62228012084961 21.91295051574707  38.67735483063471 34.84482884312251 22.71195725727152  22.89839900742558 37.48639348696763 17.88178627657244  24.22996891874948 36.64350979726669 18.24660652791524  22.60429124671926 36.57286876850406 18.63107125019338  22.84549597719834 37.49523845956726 19.12194224078793  29.14584922790527 26.64089965820312 11.44569969177246  29.10530090332031 26.69252967834473 10.41199970245361  29.53557014465332 26.04458045959473 10.66683006286621  30.14404286704422 26.40705006988062 10.61976678078266  33.79529719572293 37.82231186645824 3.864786625055443  34.3938394599971 37.89076861304078 5.208061247066808  33.43042305305257 37.38396579764058 4.957627561281092  34.49010617097758 36.44004186963532 4.309859156442432  29.25046920776367 27.57793998718262 11.8153600692749  29.54140090942383 28.39926910400391 11.78724002838135  30.05015506795884 27.18874930182324 11.59442604878012  29.85032277021046 28.41360759720264 11.2002346948937  35.86180025132963 37.88812912451007 2.273364802673123  36.42772639077702 37.08406681891518 0.8516958971841004  37.35396142039775 37.35692138694101 2.003295804251904  36.52120949076065 36.33433422070804 1.813102516681819  38.21146011352539 32.85988998413086 25.64524078369141  38.82424926757812 33.43202972412109 26.1857795715332  38.71823120117188 32.41458129882812 26.10317039489746  39.17133172838988 32.78832399775062 25.43783904190442  36.14698028564453 28.93998908996582 5.843766212463379  36.66511154174805 28.38151931762695 6.234254837036133  35.62075158271717 28.40809927005136 6.862359012907198  36.54984335346739 29.35114850414535 6.261022895437693  38.33961868286133 24.82773017883301 16.90376091003418  38.75830111425823 25.98844051603398 16.73495065013664  37.56963216891526 25.26050076762672 17.24539449246948  37.83297289332918 25.7
[...]
<PointData  Vectors="u"> 
<DataArray  type="Float64"  Name="u"  NumberOfComponents="3" format="ascii">1.9907457169298141e+01 -2.3340232018881779e+00 -4.2821489364198770e+00  1.8468206324734368e+01 -6.9751159256970119e-01 -2.1191969251811256e+00  1.8442346971947927e+01 -1.0154523437290657e+00 -3.4122003447708016e+00  1.6749565354341758e+01 -1.2149653411373722e+00 -4.0826843385394715e+00  5.0706376916765992e+00 7.8672610964513581e+00 1.3734153231058560e+01  9.3177886701276957e+00 5.5119837094770316e+00 1.1956399266137419e+01  1.5270965260335565e+01 6.5514549630445771e+00 1.3617319966203514e+01  9.3917634572529352e+00 3.5323664190967583e+00 9.6097660529057425e+00  8.1073055731808719e+00 -5.6143019993283871e-01 -1.1724086420532744e+01  1.7499204630332414e+01 -8.2972136389873330e-01 -9.1618086229419813e+00  1.7949292290967744e+01 1.9165672414920703e+00 -1.0230148298499147e+01  1.1308478064172229e+01 -1.3495956314213622e+00 -5.2521447962140266e+00  8.4863204665378351e+00 7.6744462148650605e+00 5.9527328019012584e+00  3.4327510747924590e+00 4.3741678360261389e+00 5.5079234701933908e+00  6.7937003090273400e+00 2.3399730386644446e+00 7.9961970917828502e+00  1.1104644539348866e+01 4.0206871348095339e+00 6.7338854185321813e+00  6.1325014298420575e+00 7.4217793720900360e+00 -8.3545063634476890e-02  1.1360823535953710e+01 6.1297358447756238e+00 1.2156373152552231e-01  5.5754394003513692e+00 3.1196510531821935e+00 1.2737250328297944e-01  3.3437090922844885e+00 5.2622533250672410e+00 2.7241345584297445e+00  4.2619863412766312e+00 -8.9851235482400471e-01 6.2649803920134195e-01  1.2501249369785890e+00 -1.6089857381419310e+00 2.0859858360120396e+00  1.6683635793183549e+00 -3.8535507827287372e+00 3.4824841449627297e+00  3.9378593642852473e+00 -1.9327001687764374e+00 3.1659119249577645e+00  1.2494892757965529e+01 8.2707953379736543e-01 9.2318497428105761e+00  8.7009180960824821e+00 -9.7640121461457785e-01 9.0071770745948001e+00  1.3885678665073348e-01 -4.4026529432891879e+00 4.5367359493983397e+00  1.7581962361134382e+00 -7.8726092689308516e+00 7.1301134908947601e+00  7.3296142559398660e+00 -3.9054935224985172e+00 5.4874529971678632e+00  6.7094513587053237e+00 -2.5812220142253013e+00 7.9145529495870157e+00  9.5176946655043775e+00 1.3023379328991844e+01 8.8864848865288160e+00  2.5753357804791925e+01 1.4308811829711697e+01 8.2974238366741773e+00  1.3614422070483730e+01 8.2983701770746574e+00 3.9026403299908963e+00  1.3057979386547832e+01 1.3133632349651220e+01 4.1047414375975331e+00  1.0666569359617085e+01 -4.2048745532016102e-01 -1.3277246667159821e+01  2.3535948560409096e+01 -2.2729386221182342e+00 -3.5129133113635667e+00  2.0300860280328759e+01 -2.7420746493770159e-01 -3.4318325200120516e+00  1.4440009312390835e+01 -1.0524257187987365e+00 -5.6936209754777041e+00  1.0533278644477875e+01 1.1319596133410853e+01 1.7367321859359588e+01  5.1544757540150536e+00 6.4816306033780542e+00 1.0910268809430093e+01  8.3685124646286635e+00 2.5575414742200873e+00 3.5752400960364255e+00  1.3997495912353580e+01 9.6393281168449574e-01 7.0197718042658650e+00  1.9840805737055010e+01 -1.6318264563756463e-01 1.3591489938868340e-01  1.7882052854819865e+01 -9.6059535838884369e-01 -4.1005501284656072e+00  1.9029798248060111e+01 -3.1439005694007388e-01 -3.3722525566438671e-01  1.2171412534688480e+01 1.2379527381792606e+01 6.9829952582772992e-01  2.3719201388519465e+01 1.9023611606066186e+01 -1.8550166770781897e+00  1.8346554506534520e+01 1.0477489196598171e+01 -3.2267706307870875e-01  9.8243944786050523e+00 1.7483798494412214e-01 8.7445597193353120e+00  1.8640775010248156e+01 2.2821738050601823e+00 -3.8156655982171226e+00  1.9854740905986905e+01 3.4694263257308093e+00 3.0158024095908478e+00  1.5360235525206823e+01 4.8795419446700414e+00 -2.1081707548355912e+00  1.7522133419256448e+01 9.8253892125769970e-01 5.2275670804822927e-01  2.0575802052303651e+01 -4.0264632698299108e-01 3.6164757683671320e+00  1.7081096572986386e+01 -9.0730570145462053e-01 5.0553740044095290e-02  1.5582107472876697e+01 -1.6526442212267265e+00 2.9023901380171453e+00  1.5829348882151603e+01 -2.1600680920004161e+00 2.4096238948544427e-01  1.5789208155144967e+01 2.2989369322569662e+01 1.2430850208377850e+01  9.3709507674431443e+00 -4.0677550295388993e+00 1.8603468512080752e+00  1.4847861762689863e+01 -3.7889874074417023e+00 4.7615951759774964e+00  1.6026466765679160e+01 2.2788614179539031e+00 -1.2192011661641846e+01  8.9452617616568393e+00 -8.4029833915971394e-02 -7.7816587407412756e+00  1.3724117615641701e+01 1.8807155337349210e-01 -1.3533663691726433e+01  9.0948875494246959e+00 -8.9874329364400551e-01 -5.7376251843915567e+00  -1.4926174934456393e+00 7.7820390728006422e-02 1.5833691829718477e+00  4.7223524605156433e+00 2.4557057171028093e-03 5.3906298104186519e+00  2.2565123148500441e+00 1.5453050148003045e+00 2.3801170504100146e+00  1.7017652209885515e+01 3.8803722388795142e-01 -6.4156711907197064e+00  1.2797107010229736e+01 -8.5230673256434375e-01 -1.4353041703645166e+00  9.2762638499024330e+00 -1.7971048577017956e+00 -2.9038337077585092e+00  1.4197388402698220e+01 -1.5362943515789389e+00 -6.7878566999526202e-01  -1.4306331334816398e+00 7.5094192024832171e+00 2.9352367222864220e+00  1.4695364060490207e-01 7.5391059608217263e+00 8.2530433285093396e-01  -1.0732344895620858e+00 3.2254750389316400e+00 2.2816382051709780e+00  1.9867129280362878e+01 6.8064645203816090e+00 8.8481125202458344e+00  1.0255069705646818e+01 6.3863746472221097e+00 9.7814245810130878e+00  1.6810941316591897e+01 1.2356912235093310e+01 1.4179160083419632e+01  1.6676205597963310e+01 4.2332404420720877e+00 3.2998543664931446e+00  7.5378774080942890e+00 6.0363869883781600e+00 -6.3165093744039167e+00  3.7233621623772805e+01 -2.2537515425833274e+00 -8.1720735027446558e+00  1.6287071465606033e+01 7.5374453734080600e+00 -1.5424533544753537e+01  1.3497987424290319e+01 -2.0729887096436954e+00 -1.5626720772852998e+00  1.6903644834582419e+01 -1.4029512323958890e+00 -1.4875395537391800e+00  1.0762113892957244e+01 -2.1476760098629430e+00 -2.8391745534152363e-01  1.5464539868246211e+01 -1.4728552966991095e+00 -2.5754121544661701e+00  1.5389645349230262e+01 -1.4827192562274281e+00 -3.8433690464602810e+00  2.5421812901351750e+01 6.5892034373368336e-01 -4.9456076295952872e-01  2.1373211246819274e+01 1.0472571743945114e-01 -3.0449932916585265e-02  1.4448567640716782e+01 -1.0872950333641969e+00 -5.2419204071764449e+00  1.4601660016570326e+01 -1.9964956895931159e+00 -4.0425596877844852e+00  1.9784355287919681e+01 9.3845568036854496e-02 -7.4492747275350435e-01  2.1952708196536065e+01 -5.7128738229248210e-01 2.1603488668135635e+00  2.6771989518274832e+00 -5.1641547591926171e+00 9.2188459376050513e+00  2.0687792381521298e+01 -3.8149239589571646e+00 -4.2025427656488521e+00  -1.6472060714535064e+00 8.7118725314358358e-01 5.5490913498057619e+00  2.0483569715015676e+01 -2.7568383768099642e+00 -2.4549172474885252e+00  1.1879488809446869e+01 9.8458664282136965e+00 9.9477115390238569e-02  1.8528460889501616e+01 5.0986417446005787e-02 2.1977426312832056e+00  -2.0018724440421538e+00 2.8933853793043736e+00 2.1494145918161811e+00  -1.1419425337879024e-01 3.6870124519031405e-01 1.3844194460025327e+00  -9.9197240418115729e-01 -5.2681050551922182e+00 3.1827761049554293e+00  8.1899138114697418e+00 -6.2135456932188786e+00 4.4456463047685721e+00  8.2801368734752412e+00 1.7588018006105015e+00 9.0745083371125439e+00  1.1328620647862488e+01 2.4738999665059769e+00 9.7373360600852301e+00  5.9831512601815087e+00 8.7265385440687702e+00 2.6555868378705685e+00  1.3518992604332322e+01 -5.4813213020842022e-01 -4.6600540910271979e+00  7.6449067666298269e+00 2.1989352752779086e+00 -6.1784314649359662e-01  1.6581806838990051e+01 -1.3088453363947969e+00 9.4301893048256091e-01  -1.5646019912708659e-02 -2.4617927695670980e+00 1.6795991881794861e+00  9.8718035249567002e-02 -5.7149526804062907e+00 4.3708313096344957e+00  1.1277672652663927e+01 1.9482457406669744e+00 -6.0352358699178890e-02  2.1541671931375625e+01 2.7013777609785073e+01 2.4971175833094026e+01  1.4383934497061226e+01 -1.0446561108335166e+00 -3.7127537778270145e+00  1.2380514386956420e+01 -5.8593905595505036e-01 -7.1980837566423945e+00  2.4655502128127008e+01 9.5001497690157404e+00 4.9324864759806637e+00  2.5202266086192623e+01 1.2497585514333389e+00 7.1666853660753853e+00  1.0909887185039318e+00 -1.6248613953806457e+00 9.3579726173919280e+00  4.5262818478885114e+00 1.2779559639275419e+01 1.8131782681471066e+01  1.1737194069149798e+01 -1.0429150334929631e+00 3.1326369080862535e+00  -1.8147009200742681e+00 3.1414623527763004e+00 3.9659821395013117e+00  1.0863087063926754e+01 2.8353164483583848e-01 8.8111036606222743e+00  4.5293962457469803e+00 1.5837013554473705e+00 -1.1221903263730439e+01  4.9501758644934775e+00 -3.4580323287427377e+00 -1.0305987036747846e+01  2.5419358815610016e+00 2.8028190504651751e+00 1.0599200189299532e+01  2.1793787107405343e+01 2.2373883265727489e+01 2.9918296451676856e+01  1.9036013200724025e+01 1.6631220221740236e+01 2.4912088187645551e+01  9.6973149188399308e+00 2.2270687969504564e+01 2.4102680183460496e+01  4.5087156782989048e+01 1.8634609760923038e+01 2.7625532440453131e+01  1.3858281376268009e+01 -5.4271440598180272e+00 1.4720405706221491e+00  1.6699576906920637e+01 5.2870244569686946e+00 -4.3826169583230684e-02  1.9058688158402415e+01 -7.8974901093625893e-01 -9.0934846977936989e-01  2.7803059379743541e+01 2.2731121212025375e+01 2.1033710931355398e+00  4.0102672940293456e+00 1.5094454660927967e+00 -1.1386603493251345e+01  6.0164456267325512e+00 2.4787027279457088e+00 8.6110194808690839e+00  3.0476550455649587e+01 2.5305086386745135e+00 -7.7671108164721181e+00  3.2298547027274038e+00 -1.4357927198659493e-01 1.0633275146003498e+01  1.1775946621509832e+00 -4.6448091015099707e-01 -7.5760493397512461e+00  7.2743305914573337e+00 -1.7015612727899916e+00 -7.1027239854232240e+00  8.8364470268765984e+00 1.2864039128351314e+00 7.1898239740524907e+00  1.2376554081889148e+00 3.9499763312862695e+00 5.7725785888270875e-01  4.2844288996170008e+01 2.6277086318802414e+01 1.4846956135311626e+01  9.0457315513191929e+00 -2.7597862870156629e+00 2.4101769053260127e+00  8.6261277914244772e-01 9.7284804757896615e-01 9.1989217713909632e-01  9.3355122025584514e+00 -2.0306966118160825e+00 1.0146644993035459e+01  7.7277478503228236e+00 -5.3187150641331709e+00 1.4592704649519025e+01  1.0638004224693633e+01 -3.7005725473704567e+00 1.1732410186696789e+01  1.1481031876407673e+01 -3.1250902986211204e+00 9.5955318028333227e+00  5.7657443263032935e+00 7.8573680973793305e+00 1.9153464170007742e-01  1.0318224876730961e+01 8.4805408871134098e+00 -3.8633936838513433e-01  6.6600008331801295e+00 1.1274912291474354e+01 4.0362950261467340e-01  4.3350603786784205e+00 7.9025720060302849e+00 5.6520948483474298e-01  6.3169570142993203e+00 -1.4748401818473743e+01 1.0021511797239381e+01  1.8449412350667924e+01 -2.4202712237552380e+01 8.5135557611635697e+00  9.5645492396306402e+00 -1.4988312530816776e+01 3.8283156509434191e+00  1.3476511519240288e+01 -1.2488028217767871e+01 3.5419700889998107e+00  8.7635240250764177e+00 1.0733109386716468e+00 -3.9107440586817166e+00  1.1684127740949302e+01 2.2507996660258685e+00 -3.9929864200559990e+00  9.8618590325735305e+00 8.7882559835680352e-01 -5.9985889636505121e+00  8.6798816941605406e+00 1.7844750158267753e+00 -3.7750822787966043e+00  1.1364316669048213e+01 -1.5958831843117167e+01 1.8888178945962050e+01  1.8357046898622094e+01 -1.1703680494394609e+01 1.8912331694391995e+01  1.3966746139748309e+01 -9.7777178161914193e+00 7.8549360774873280e+00  2.4781030951115053e+01 -1.3715936563695980e+01 1.3479408361459944e+01  1.1274041123453769e+01 1.4020013406484655e+00 -2.2511138171357237e-01  1.0008913945920739e+01 2.8249262294652611e+00 2.4556722691912114e+00  1.7035828195713613e+01 7.9798793179433802e-01 2.1453929842826467e+00  1.2525042914001920e+01 5.4414214139716313e+00 1.2890179953315937e+00  6.7834492097684880e+00 -2.6821810844875436e+00 5.8655225467571599e+00  3.9058739455809315e+00 -2.2558871239192602e+00 1.2503381480391873e+00  2.8462506803691023e+00 -1.5129722796627756e+00 3.4274051723255967e+00  7.6808601567566139e+00 -1.0158133400872653e+00 1.4885723703992177e+00  1.8122922717609800e+01 -2.6848186323235596e-01 5.9274195078261611e+00  2.0973750789054378e+01 -8.5866239549026724e-01 4.5972905563565174e+00  1.5994804450646003e+01 -1.6150118055848501e+00 3.7152108408590441e+00  1.8678263492469327e+01 -1.8587327939732876e+00 3.3643947106222467e+00  1.2260218350959558e+01 3.5201193926825241e+00 2.4764643867868190e+00  1.7157501577987272e+01 3.7010556867986240e+00 2.4978061922586128e+00  1.1176944799484815e+01 1.9310857218091440e+00 4.3950494902888764e+00  1.4632569047577698e+01 1.9906377300371318e+00 3.8830775086104623e+00  8.7543472398076361e+00 4.0043921832380596e+00 5.5063491099920781e-01  8.7483269778380706e+00 4.1812047912901207e+00 -1.0762394266123156e+00  8.7444386628800430e+00 2.2324373216572013e+00 -9.9131083961987598e-01  2.0036339184762791e-01 2.4748174473460982e+00 5.0364332644140497e-01  3.2422239246686169e+00 3.0683202406330055e+00 -3.6973892485066118e-01  2.6041561796468229e+00 1.7125879547374003e+00 -1.8489328834947842e+00  4.5382601273372032e+00 3.1692367243994983e+00 -2.3404466244481785e+00  2.1068969919152906e+01 -5.9696826842854769e+00 1.4754878462380995e+01  1.5165370738367733e+01 -3.8338020663563213e+00 1.1912314670687815e+01  1.5118228859543686e+01 -3.8625942164083513e+00 1.0866643760598331e+01  1.7018713311347312e+01 -5.7173471059756693e+00 9.8212243790188722e+00  1.0792879055971117e+01 -3.3053133143614559e+00 -7.8073401113254726e-01  9.7440014499525791e+00 -5.3624465444377298e+00 2.0721554381334042e+00  9.8570107653949126e+00 -5.6549887758487598e+00 -2.1089901597245682e+00  1.2088918491137948e+01 -7.3415938998401993e+00 1.8116737609422684e+00  1.8690572700037052e+01 -4.1125752605287351e+00 1.2483807443518943e+01  1.7051087338862295e+01 -3.2126221291912760e+00 1.0700011499631893e+01  1.2587001443216728e+00 3.8148383659460965e+00 1.6471830978556521e+00  2.0842935414021087e+00 3.9980844444303649e+00 1.2545986408026957e+00  3.8918574439468121e+00 5.0959709059026936e+00 2.6458164910820390e+00  2.8336244606204590e+00 8.9848077622484404e+00 4.2847415379584328e+00  1.8199123120938875e+01 -9.7495719030105406e+00 -1.4028158425694162e+01  1.6461808221708925e+01 -9.0715937039083148e+00 -1.1168439386407691e+01  1.7851828922390059e+01 -1.0071543517504994e+01 -8.5776772286138687e+00  1.9873614118720546e+01 -8.8802313380719191e+00 -9.7263562109483868e+00  1.5193165295833531e+00 -1.5339823979690177e+00 4.9700581020664663e+00  1.5479920603980271e+00 -1.9860777622802257e+00 4.8103771977132466e+00  3.2426475218800714e+00 -1.3901017590986922e+00 4.3603246173425196e+00  3.9687624220718067e+00 -2.3784903514273559e+00 5.2545394580690834e+00  6.6395358167853429e+00 -5.2139901393192094e+00 9.0609080170261602e-01  4.2401254656225289e+00 -1.3788821829010518e+00 4.6298366909874789e-01  8.2835251555916116e+00 -3.5673786293785832e+00 2.2125078983730435e+00  6.7776107984723932e+00 -3.2583445727958202e+00 4.4395980554633425e+00  1.6748911086305345e+01 1.0452524235105574e+00 -9.8773678977724195e+00  1.0383723143932754e+01 -2.5008734175172004e-01 -9.2042159809534709e+00  1.5222344812785723e+01 -1.4959949572621243e+00 -7.5203344547098361e+00  1.2914882287743906e+01 -5.5493774791021675e+00 -5.0204958362062611e+00  8.0286016235627908e+00 -7.7058668583093085e-02 -3.6831928586079012e+00  9.4037697345537143e+00 1.5700793749745052e-02 -5.7978195496204314e+00  1.0466493662564131e+01 2.2608394831722386e-02 -4.1646858855185993e+00  8.7738789800826638e+00 4.9856902102134604e-01 -4.2373294326076678e+00  4.6371958288437325e+00 -1.3620664315297763e+01 -1.0986237484434177e+01  3.2108693411742266e+01 -6.3836234841992896e+00 -5.4460591412964288e+00  2.5686160221581236e+01 -3.9200159271424777e+00 -7.1788871259584153e-01  2.0106304658493780e+01 -8.8829629528968290e+00 1.0457900971536456e+00  1.6086308778457568e+01 -6.6398592540485232e-02 1.5298163557782299e+01  2.0015188976429435e+01 1.4514132827919046e+00 1.2417563860838648e+01  1.8529383006972783e+01 1.1647221210712333e+00 1.6671265034833606e+01  2.3041562112519774e+01 5.3780126995134381e-01 1.5317543629720975e+01  4.4518803040744942e+01 -3.6936424330081691e-01 3.8014637996862941e+00  3.4801436680321686e+01 3.0401150462237276e+00 2.5740332564294452e+01  2.8845645205882448e+01 -1.5146895524850958e+00 1.3106918440672771e+01  3.4628631557647722e+01 2.2643679192958457e+00 1.6136313976511641e+01  1.1822770223933970e+01 -1.3407688617370189e-02 2.8011736273758414e+00  1.2320472706957224e+01 1.7624780755610303e-01 5.4186605120816456e-01  1.4457530051235825e+01 8.6252195255488120e-02 1.9068048783344158e+00  1.4894725556541708e+01 2.6881496067846494e-01 -7.0326881044415190e-01  1.4758313797699939e+01 -9.9479870857143435e+00 9.2431547637764488e+00  1.3790519370163917e+01 -5.4967080871684608e+00 6.5705746981690023e+00  1.3400278989634055e+01 -5.1036613990513580e+00 5.4779026024031605e+00  1.2500230544956480e+01 -7.8932107791465329e+00 6.6536619521716123e+00  1.4218428444475162e+01 -1.3877586621302124e+01 -1.5961656864951044e+00  1.3532464215241156e+01 -1.2742946105361721e+01 5.5224574367723911e-01  1.4739542397982097e+01 -1.3384336090209720e+01 2.0298590063118396e+00  1.5211794310895053e+01 -1.1547645794215587e+01 8.7876427002765145e-01  7.9226652463513886e+01 -3.4822179194676380e+01 -3.8937112712095550e+00  5.2477024211341899e+01 -5.8974904837780198e+00 -3.4325258325912024e+01  3.3855805078488508e+01 -1.6513889697281805e+01 -2.2912175612635338e+01  4.1627800095715614e+01 -2.0515863306274980e+01 -4.7866453710353065e+00  1.4644269777556012e+01 1.1406414204740534e+01 -2.3030554856596502e-01  9.9248164092589555e+00 1.4962576689660757e+01 1.9139549041845480e-01  9.0663099921457082e+00 1.2232191530671727e+01 1.1257659030488327e+00  1.1118574439487016e+01 1.1159087304649672e+01 2.2444264261033005e+00  9.6718456862553399e+00 -1.0949706677619757e+01 1.7827247102309589e+00  1.3358364958467364e+01 -1.3306289962336026e+01 3.9302134084900575e+00  1.5422381223814353e+01 -1.1276730031498497e+01 2.0076999023961215e+00  1.3425161606628498e+01 -8.7582799749895575e+00 1.2186456939022612e+00  1.3286805680657325e+00 1.0841724098147176e+00 6.6078759758263548e+00  1.5107935690966232e+00 8.1792433059668967e-01 8.1510918592298385e+00  4.3971358648470167e+00 6.8515446476511299e-01 5.6662266207997209e+00  2.0062465215966903e+00 -9.4225952923021428e-01 6.0369175661449264e+00  1.6736752898340818e+01 -3.4323715160371631e+00 -2.0602865428430439e+00  2.0015205791833754e+01 1.5346372902956364e+00 3.3024641489971374e-01  1.9826201690780422e+01 -3.9644674815400549e+00 1.9740773047206481e+00  1.6177129239537052e+01 -1.7263552369892927e+00 3.3672126274759762e-01  8.9695298320706236e+00 -1.5670443687995095e+00 -5.9320494203143781e+00  8.1378662372184234e+00 -2.6499728395166726e+00 -5.6563081554213461e+00  1.0451566826870190e+01 -5.0121746513367746e+00 -7.9845152635100414e+00  1.0585205079991258e+01 -2.7627582629643039e+00 -6.4037452113400892e+00  4.9823906610548683e+00 -1.4318221982215347e+01 7.6268427727183878e+00  1.1267884172052801e+01 -1.1626169232293959e+01 5.8430187351916354e+00  9.2180690016371560e+00 -1.2529018507004491e+01 4.0905528911716704e+00  6.0689893885302242e+00 -1.2456690875906009e+01 3.3739223427983149e+00  3.1247090826618749e+00 -8.1856485566300616e+00 3.2001128623814896e+00  6.8163536216523459e+00 -5.9997244580355957e+00 2.4560275334300710e+00  7.0379527400459505e+00 -9.8055023248775743e+00 2.1458711024036234e+00  8.6217304203219438e+00 -9.2741120981079632e+00 3.1943128949116582e+00  3.8368882825903268e+00 -1.0905881967069369e+01 4.9876742114048733e+00  4.1004147250668206e+00 -5.3263092654465138e+00 4.6744194166741035e+00  4.3918807715202117e+00 -9.1880932527106616e+00 3.8557010529327234e+00  6.4965291412416555e+00 -9.7762270960793138e+00 5.0510514018595103e+00  1.4231623274506888e+00 2.0249992360553457