<?xml version="1.0"?>
<VTKFile type="UnstructuredGrid"  version="0.1"  >
<UnstructuredGrid>
<Piece  NumberOfPoints="3954" NumberOfCells="15764">
<Points>
<DataArray  type="Float64"  NumberOfComponents="3"  format="ascii">30.19115939236024 5.516918484472315 12.81822611447472  31.76463029767304 5.584064254514181 12.36560976557115  31.28536557724804 6.625744005327307 13.30514987492618  31.089937011092 4.960425983039184 13.99306050820517  29.46124556200496 6.94432349345719 11.7516818328452  30.38399129078306 7.247306298492133 10.897809988606  29.95048850771393 8.307926581880999 11.34746513201054  29.68159749730024 7.739934963283099 10.52243947873769  21.43733978271484 7.259790897369385 8.972145080566406  22.69445965649212 7.16281079828927 8.269381179309946  22.09413096438145 8.083176209562495 8.856105692720488  21.95341515092708 7.962040110371571 7.703816451083424  26.77445030212402 6.366334915161133 10.60494995117188  28.39427834561056 6.100803002068217 10.90796115155279  27.28003367901309 7.338962193096529 10.61470615571606  27.4373507354533 6.241934677655096 9.497126270826866  28.60424255634496 7.113112101186696 10.5470528273142  30.22122001647949 8.530030250549316 10.72756004333496  31.04268074035645 8.303425788879395 11.36091995239258  23.32023048400879 8.547385215759277 7.566911220550537  23.99087905883789 7.91362190246582 8.300700187683105  23.14979372925487 8.128526710622548 8.662590163038795  23.13877225952374 7.656037971987399 7.412761878353303  31.02077992781125 6.950445074060908 11.81955601376232  21.10712051391602 7.92082691192627 8.443022727966309  28.15148637043549 7.689541470232536 9.608496330053702  26.18585014343262 6.973395824432373 10.26124000549316  26.71634686934409 7.715586754219911 9.406973137122293  30.68013950602063 3.971298908125039 12.01234802008345  32.78244309848453 5.364448269222767 13.70728536840542  32.81553110530864 6.61453649900275 13.31963870869447  22.51987224701572 7.079338883244692 9.16487902770468  22.95377922058105 8.92039966583252 6.85736608505249  32.53182384824128 3.965208358373967 12.99771359817598  23.77429962158203 7.333522796630859 9.051601409912109  34.9128303527832 7.159039974212646 27.23946952819824  34.3791389465332 6.51554012298584 27.14228057861328  35.13011932373047 6.536996841430664 26.4462890625  34.60470692251231 7.36625243761215 26.5142861285684  27.11422573886168 10.71728622047777 29.33648317416864  26.57271051141805 11.00537178931799 28.74267009920055  27.87300627704928 10.72223837078246 28.02426118216048  26.24597961613497 10.00380187972843 28.26936163005118  29.92853927612305 11.57324028015137 18.9993896484375  29.92925071716309 10.72019958496094 19.44116020202637  30.51594176280439 11.02709247024003 18.67815661363122  30.64437377264134 11.37147853416973 19.82816663019022  21.03409957885742 8.78461742401123 10.55300998687744  21.30166053771973 7.901186943054199 10.84792041778564  21.36915016174316 8.171031951904297 10.1128396987915  22.36276436617244 8.597539233028813 10.61816818955646  31.81641006469727 11.10233974456787 25.7568302154541  32.75207138061523 10.93136024475098 26.34918975830078  32.72372817993164 11.34926986694336 25.56191062927246  32.38903036944704 10.22437810473418 26.16369264268148  22.97236061096191 2.993769884109497 15.90116024017334  22.88225936889648 2.331434965133667 16.58629035949707  22.57789039611816 2.195597887039185 15.56179046630859  21.92419230913754 2.438811646629931 16.59073105095517  35.6425895690918 7.805421829223633 27.36277008056641  35.69223022460938 7.19580078125 26.58629035949707  35.52007950851419 8.251850567500551 27.13849051169577  30.70338886822507 5.734390739998017 27.18571970880863  30.15785481847991 5.052454602881958 26.49104451023474  30.97375729578255 5.75192237596054 25.70307588750977  30.26149693945942 6.231904514906795 25.78636559528348  28.7326602935791 5.373396873474121 16.42074012756348  29.81176761481482 5.372454313376782 15.22950366398091  29.99832225048316 4.714209678815946 16.77983365636649  29.96954042090799 5.931498107958321 16.34925062127462  29.73995585345849 2.827532549386091 15.09661670670637  29.58476955580748 4.180337354026403 13.81341182107154  30.61189025695047 3.487983905618298 13.72035102433655  30.67495180416977 3.73195654757969 15.25478309547147  25.67308044433594 13.08121013641357 23.76271057128906  25.86035919189453 12.50069046020508 23.40933990478516  26.27835845264035 12.23044980441888 23.96776073122843  26.35236955816999 13.52415096613267 23.93956501781522  23.8199291229248 8.929689407348633 22.68943977355957  23.74138069152832 8.989166259765625 21.50762939453125  24.55989074707031 8.955435752868652 22.0098705291748  24.0846482367765 7.687041359233702 22.20357387134313  31.91144943237305 2.339658975601196 19.53720092773438  31.41110038757324 1.763851046562195 19.14656066894531  31.9555492401123 1.197139024734497 19.44910049438477  32.33199506114638 2.056375934111254 18.74650962761408  36.39913940429688 7.861127853393555 26.6499195098877  37.13685989379883 8.569181442260742 26.28104019165039  36.7947998046875 7.939727783203125 25.97591018676758  36.37075892412741 8.932036658771425 26.54225885579558  27.50148963928223 9.181827545166016 9.156952857971191  28.06229972839355 9.524838447570801 9.570474624633789  26.9088852770499 8.98329016141453 10.22356945774697  27.8948115965734 8.589206851277629 9.870086022789822  24.61955393501369 5.729207607017445 26.26435319543223  24.82826324934565 6.616697868169569 24.87611641271513  25.98533158028808 6.28840527690646 25.60545615796469  25.44044759890467 5.82680295349591 24.77999641866277  26.55034593237134 9.555521565422465 24.36133021681851  25.38264039425704 8.124286298877308 24.207668627426  25.85953571375595 8.579836451747065 25.67396541173117  25.23962944173181 9.599908125301022 24.80666332143565  28.83162069526015 8.623604540092137 15.16803109736556  29.34850256259118 9.995251699638656 15.05494005467845  28.97625148982716 8.485325708149087 16.24085581032816  28.23422795163054 9.549784864852839 16.03836117172663  32.01638849884263 10.94415653337042 18.71429619226365  31.06505478830908 11.64268835655244 17.86154741542174  30.77636097890473 11.83784141278829 18.64145513050224  31.58766724653982 12.35453557960035 18.74514318948447  23.1141300201416 11.18826007843018 28.74068069458008  23.81983947753906 11.53730010986328 29.13941955566406  23.94433553246686 11.5177459489256 28.19656390979959  23.31738192497723 12.16090308934126 28.74067131549063  27.84638023376465 3.018855094909668 15.57118034362793  27.9650993347168 2.373150110244751 14.93515014648438  28.4871758484866 2.482391683851811 15.70350522715333  28.49575371333386 3.424734077957444 15.37122529332112  18.76734924316406 3.675134897232056 19.03319931030273  19.6100337675173 3.712265476703991 18.04249454596504  19.1108732586529 4.431009590924694 18.79817783316137  19.48087632082498 3.948030797941988 19.25313153101177  34.51340866088867 3.277384042739868 14.99810028076172  34.71030498863489 3.642061955796538 16.28724839937417  33.90025999828409 2.779316236107468 15.94941012672389  33.85645505941631 3.687187796885504 15.10153622941865  32.43262100219727 13.13720989227295 19.24402046203613  33.02611923217773 12.49501037597656 19.59691047668457  31.86906769124938 12.29548022790067 19.80836176930703  32.43860119471369 12.00252268420827 18.61876351303395  26.64352035522461 8.937213897705078 15.49726963043213  26.2082616960591 10.44989776852018 15.21573969412434  26.18368041635972 9.933506945265862 16.49325415919154  25.39171479065532 9.626462619580256 15.64745773586351  28.37132172231807 1.815638967417659 28.01688162019653  27.35397670858199 2.943730053507057 27.40006098175672  27.29205505871813 1.667704273203172 28.49651133407856  27.42059800864293 1.629655847642148 27.37736051231298  35.67391967773438 3.380683898925781 19.82760047912598  35.99901962280273 3.715703010559082 19.05542945861816  35.08224062990078 3.358553994523253 18.42560488135834  34.8819066908757 3.352006378521424 19.70770947364804  32.78384017944336 13.59123039245605 22.52379035949707  32.50217819213867 13.9898099899292 21.7236499786377  31.98473335241294 13.15635594094828 21.90917149976723  32.50635483741166 13.03006565315718 22.33883736507179  32.15467071533203 2.395050048828125 30.3059196472168  32.67388916015625 1.752380013465881 29.96747970581055  32.15990048507312 2.39112800075908 29.28738278008032  31.33457809965556 1.987156326960982 29.99459865079309  20.04292789381959 13.95553186029079 10.72307908226891  21.65444034843614 14.57924326766328 10.39948653319382  20.55944697233869 13.0597683660348 10.94773912847871  20.99893299753009 14.20653013157342 9.566716225384351  23.6441593170166 6.357312202453613 13.85284996032715  23.89887046813965 6.976089000701904 12.96965980529785  23.19639015197754 6.379508972167969 12.74133968353271  23.32776281726468 7.360948585087058 13.40343695457615  28.07114028930664 0.6767489910125732 19.59878921508789  28.74773025512695 1.12375795841217 19.21920013427734  28.79262924194336 0.09558500349521637 19.26589965820312  28.67484092712402 0.09558500349521637 18.9843807220459  34.09929999453565 6.99294867487819 23.80117912218894  32.79286346475775 6.385607427889191 24.38233316397244  34.13446862217507 5.807023155062696 24.86819283031606  33.50918129774659 5.985656593939081 23.67434762494567  31.52791023254395 7.211616039276123 20.71873092651367  32.63322883210785 7.914206222199187 21.00983252958887  32.93562199325006 6.865736083906026 21.17592602658605  32.32074858707963 7.043793635225046 20.09070446401957  30.66105060917977 1.2538045479248 17.22466111480534  30.0474819996224 2.338413851333109 17.69160988394707  30.46803704798833 2.271382358081568 16.45164553097431  29.38854136004807 2.099247761122934 16.57576147429543  17.42807960510254 5.748912811279297 17.58735084533691  18.6133781463354 6.184669935715985 17.44164725493554  17.64428974949532 6.523560370337231 16.36898035243292  18.3682967494074 5.636346886063809 16.31129784190046  21.04126930236816 4.437547206878662 22.4107608795166  2
[...]
<PointData  Vectors="u"> 
<DataArray  type="Float64"  Name="u"  NumberOfComponents="3" format="ascii">1.2187318004635898e+01 -1.7488903003536365e+00 -2.5549212289983880e-01  1.7023378970026688e+01 1.0893090389662752e+00 -1.3166450345063427e+00  1.7416618099188298e+01 -5.6874858573932385e-01 -5.5458781019672210e-01  1.2890376009891845e+01 1.4984951460612934e+00 -2.7518464989961666e+00  1.3997816606239505e+01 -7.8402240605465252e+00 1.7751859557100176e+00  1.3688759413706199e+01 -8.7879441021852251e+00 2.2040547239388415e+00  1.5656320719760986e+01 -1.0444176937787955e+01 3.4301307175191913e+00  1.3640367299684453e+01 -1.0402495785246067e+01 -2.1651818747419962e-01  7.4394257039738006e-03 -1.5455852472613499e+01 -6.0905446244177348e+00  7.0943800951551026e+00 -1.0958961419253987e+01 -5.7145945242493106e+00  5.4310028809593032e+00 -1.2116281127797631e+01 -7.2209173498109829e+00  5.7064321944247141e+00 -1.2912861473528784e+01 -4.9669623688550129e+00  8.7576979952963825e+00 -1.6878271521148623e+01 2.1183977828943394e+00  1.1810568313761781e+01 -7.2226724370467474e+00 1.2868623750032084e+00  1.6755064978758647e+01 -1.2309512670456270e+01 -2.2357051358114433e+00  1.2092262957620816e+01 -6.2732385812938221e+00 -7.4365999309110711e-02  1.3823698824697765e+01 -9.4654998645543493e+00 -8.4232951116030197e-01  1.3912548346318317e+01 -1.1497285130465059e+01 3.3321686712353848e+00  1.6843399445899369e+01 -9.0070274790100715e+00 8.0368427782384622e+00  8.7142770123113280e+00 -1.9236497657763678e+01 -7.8721871102625141e+00  1.9293252754742788e+01 -2.1245599620468649e+01 -1.4945457905400557e+01  5.6192532755898794e+00 -1.3259613756091079e+01 -8.1457674300127323e+00  1.1620271307948501e+01 -1.1175758111868440e+01 -5.6953101347840631e+00  1.7484428349702263e+01 -5.3853379507092054e+00 3.0173550684697603e+00  2.5922389893573503e+00 -1.6919784456693439e+01 -6.0442646592320761e+00  1.4814947497586459e+01 -9.8953191043794018e+00 -4.3878421392220659e+00  1.7852227331624889e+01 -2.0643256172854411e+01 -1.0641362692606604e+01  1.4527944615649517e+01 -1.2001754367455439e+01 -7.4277946488510951e+00  1.1669067620803611e+01 8.1110824971414086e-01 -1.2935264973399192e+00  1.7192884464883882e+01 5.0210452689078116e+00 -3.9035623060859286e+00  2.1413744661206977e+01 4.2630881133858827e+00 -3.4515986976807933e+00  3.8163148950705690e+00 -1.4467368140880854e+01 -9.7775312998774222e+00  7.0097028219272515e+00 -1.7459648030512611e+01 -5.8258697208916059e+00  1.2842026821651057e+01 5.4045187339264951e+00 -3.1351375837607520e+00  1.6420936317379567e+01 -1.8463476320516932e+01 -1.5684349325361996e+01  2.5683675014084116e+01 2.6510929872703993e+01 1.6031247127009853e+00  2.1049485049553301e+01 1.8492778874675999e+01 -2.7503970724140099e+00  1.7543152841618550e+01 1.8086993874337541e+01 1.7892955483772874e+00  2.1951996381439493e+01 1.8636565154980808e+01 3.5669938928238731e+00  5.8662139152484016e+00 2.4495289238168882e+00 3.1630703374802729e+00  7.6162791679937953e+00 8.1206735793928464e-01 2.4192437901408179e+00  7.6240530240314675e+00 1.4706418324434542e-01 -1.4696733926138565e+00  8.3305081227448028e+00 2.6977450143372477e+00 1.5890489358991120e+00  3.1592212250796852e+00 1.4212437854710525e+00 -1.0582664161521518e+00  4.5307123377246592e+00 1.6857010079895878e+00 7.6589003631899839e+00  1.3346745440357504e+01 1.4090781455047854e+00 -1.9647016906088333e+00  8.5477495123137377e+00 -4.9082875955430563e+00 -6.2327064041792610e+00  1.2605959970451859e+00 -3.0411496762744745e+00 -9.3381013674222775e+00  6.5297406041474257e+00 2.0568452866827971e+00 -1.4693597421805096e+01  4.7516229872401157e+00 -5.7229429826380143e+00 -1.2570351036229136e+01  7.8737935634008958e+00 -3.7366962299051480e+00 -8.7062926086283028e+00  2.7265635435072866e+01 2.9396428869091156e+00 -2.5362329238935857e+00  3.8426258120382158e+01 8.1779726544594205e+00 -3.0143131165874271e-01  3.1694873264167992e+01 8.4692209748688008e+00 6.7259281616503657e+00  2.8630922256494639e+01 6.4146093659875376e+00 -8.8705103842773203e-01  3.1143806381400392e+00 2.3185693521470321e+00 6.9387471339844984e+00  7.2352222661183099e+00 3.0379037090094760e+00 1.1725189653980120e+01  1.5580197975248622e+00 1.5840871848320905e+00 3.6812315783895935e+00  6.6534813137028204e+00 -1.2254280808588963e-01 4.3281291902663916e+00  3.9726883959933133e+01 3.5074074468429707e+01 2.3530660284674042e+01  1.8433975004320882e+01 2.5341783714647217e+01 9.0707494719941408e+00  3.3808204849671149e+01 2.4379702255555760e+01 2.2123915157905778e+01  1.3039752471331122e+01 8.0350173538661025e+00 -6.9857043658081395e+00  1.3683009992462427e+01 8.6687608381624770e+00 -6.4772744253477157e+00  1.4279316712873952e+01 8.2570252502500967e+00 -9.8558972530083562e+00  1.5498051209889798e+01 6.3218927224019277e+00 -8.8751604611820234e+00  1.4972469287680550e+01 3.9828822803102355e+00 -1.7554298931651857e+01  1.0048226197147834e+01 7.2085839695251352e-01 -5.1981222945709913e+00  1.7182581566735468e+01 1.2165629371058568e+00 -4.0374687680090666e+00  1.5017316201968585e+01 -2.4591049872589821e-01 -6.0237736650161136e+00  9.8658892088431305e+00 1.1176770600556856e+00 -6.3375054536765543e+00  8.0802164385223492e+00 5.7097890479547564e-01 -2.8831593127582882e+00  9.7262311502801264e+00 1.5857985680831914e+00 -2.8297511439058023e+00  1.1405398045515339e+01 1.8396850462207899e+00 -4.2848068891866031e+00  5.0100478133143991e+00 1.3228592793387668e+00 -8.5878046264171051e+00  3.9692024055811475e+00 3.4977303153633983e+00 -8.7019741836015889e+00  6.7065626800260221e+00 3.7879770714810079e+00 -6.6389489114215658e+00  6.4968054332164753e+00 4.8570300293563301e-01 -7.3101956760662787e+00  1.5183645932367231e+01 2.2496951170229784e+00 2.4414399718183106e+00  1.4804288859126610e+01 6.1615549120505819e-02 -1.3061655517724649e+00  1.6404419827021478e+01 1.4648555140646113e+00 -8.1286343296680580e-02  1.3262981054268002e+01 4.5826100127447784e+00 -8.3256807862648607e-01  5.0094658164475714e+00 2.3881221234730616e+00 6.8655111254644092e+00  1.4641543674797827e+01 2.7253698558042134e+00 6.2267674641473407e+00  7.2731040344115279e+00 4.1279126043247943e-01 6.5281960903298488e+00  7.8886515969668745e+00 1.7994686487697100e+00 2.7482355027957763e+00  2.4314056521865346e+01 3.1783385282727647e+01 3.2113048747644719e+01  3.0250331823172800e+01 2.2592282007159493e+01 4.0795944073566886e+01  1.0351053391513439e+01 3.0013537056123834e+01 2.3565992395919917e+01  2.6537555758285301e+01 1.6703055564720508e+01 2.8071176218894468e+01  1.4206978158439638e+01 -1.4363537896468040e+01 -3.9405304661964640e+00  1.2333827328207475e+01 -1.2993433024379485e+01 -1.6154165241786342e+00  1.7187160525147412e+01 -1.1444640524494586e+01 -3.3494258776029464e+00  1.5165844240418528e+01 -1.1945154726071687e+01 -3.3591031470583723e+00  1.3426633582463813e+01 3.9538693146226662e+00 1.0296780311410352e+00  1.2211300607356849e+01 5.6651050839691033e+00 9.7633688213950387e-01  1.1881087857121990e+01 6.2401234767744436e+00 2.5680683843025753e+00  9.2516466084023232e+00 5.4491285852105520e+00 2.4684689733104488e+00  1.2094752111088944e+01 7.5041674548639739e+00 -9.7771507693364956e-01  1.2435063040391203e+01 7.6577171006589726e+00 5.7079893944730631e-01  1.2442076424520394e+01 6.3588361026421190e+00 -3.4953184797811683e-02  1.1698808459211726e+01 8.3360467130399041e+00 -1.5428118564062667e+00  1.8290532018243457e+01 -9.3148677368661463e+00 -2.7231534042068306e+00  2.5507360192505274e+01 -3.1759741579082390e+00 2.9320188951419190e+00  2.0117525148187575e+01 -3.4932073191679809e+00 -5.6176756872874583e+00  2.1456718344004294e+01 -2.0958750311744767e+00 -1.0952996895440907e+00  1.3450422838712562e+01 -3.7567398546410130e-01 -8.1084079008475758e+00  1.6364871529275600e+01 2.7132241092435492e+00 -9.0624275744328422e+00  1.1303242255715624e+01 -6.5777012878752028e-01 -7.5370365972106663e+00  1.2664884396053040e+01 -4.4540830095969186e+00 -1.1481223246453212e+01  7.5026989978710201e+00 1.4535734001317262e+00 2.6360767068619753e+00  6.9774708076140763e+00 -3.8658264896545347e-01 1.0771129544268129e-01  8.1698877574333526e+00 1.4297734043981960e+00 6.4606267874680556e-01  6.4030692976599557e+00 7.1116611997825585e-01 4.3251871908408290e-01  1.1154585110032500e+01 2.7123029068019977e-01 -2.1084613950175665e+01  2.5554392664037588e+00 8.2395812868752705e-01 -1.5010244167099591e+01  1.1136085636082276e+01 2.3140407010236519e-01 -1.3495157290374296e+01  8.7149968703708911e+00 1.1341517422675793e+00 -1.3425395878280515e+01  9.6637817935722392e+00 -1.1982274979852683e+01 -9.3082149397086553e+00  9.7353042711823452e+00 -8.0007253373110903e+00 -2.8832521492967649e+00  1.2898165948045211e+01 -1.0023514789059881e+01 -6.4581301585804258e+00  1.3283677908856683e+01 -8.9481415013653685e+00 -6.8677014913877663e+00  6.7968348350628816e+00 1.6541441993982982e+01 -2.1240072540285318e-01  7.9729098277777180e+00 8.3331875514279758e+00 -5.9344134115246439e+00  7.7277160544997061e+00 5.6324334845544044e+00 -2.1971283933265262e+00  1.1630023920927112e+01 9.8060623950698496e+00 -3.4925679112260992e+00  1.3338827852175021e+01 -1.3360815782322776e+01 -1.5106927667129268e+01  1.3224072154174964e+01 -8.0455465133599873e+00 -1.3905491198980503e+01  1.0838410428233011e+01 -6.9671216842709089e+00 -8.8530691593387161e+00  1.4190495262723699e+01 -2.0633506004102489e+00 -1.3040006292390025e+01  2.4616077377294104e+01 3.9215525310907906e-01 1.2277860439648644e-01  1.7554463809113020e+01 1.0076830478682495e+00 4.2240108857082168e+00  1.7258981591252443e+01 5.7195474005481879e+00 2.1189848857668516e+00  1.9331441926732374e+01 6.9315471231669381e+00 2.9321494956434302e+00  7.3607160916192402e+00 1.1248292758953651e+00 2.2200991910347176e+00  9.5673933806861520e+00 1.8814821580432852e+00 2.9524777816553662e+00  6.5470368775339409e+00 -3.9383450125767422e-01 4.1153368810787505e+00  8.5128824446753395e+00 7.4612396186791785e-01 3.3242030990395475e+00  1.3211509872810627e+00 1.3114086957181992e+00 -2.1705854900401964e+00  6.5333367978647916e-01 2.0053806166569101e+00 -2.9857157122139641e+00  3.3684215732975971e+00 2.6225830068747418e+00 -3.5065628462955334e+00  2.5467974377724709e+00 1.3846288297971332e+00 -1.8172470901236115e+00  1.5354915703199545e+01 -1.4162965194335579e+01 1.8741321334116519e+00  8.4799995212626698e+00 -1.3882141511257764e+01 -1.2510747843579284e+00  1.0846800540815773e+01 -9.5259675025487383e+00 -2.3143914176801439e+00  1.3568197345989914e+01 -9.9824506235995116e+00 4.6793624666446865e-01  1.4361562818597229e+00 1.6053255313094581e+00 -2.5871687746311145e+00  8.6707357540312147e-01 1.6856581117028746e+00 -1.8862667077101680e+00  1.9776875893460137e+00 3.3499753695540879e+00 -2.8831970968328418e+00  2.4145192975800551e+00 1.5305051980435918e+00 -1.4473754882491765e+00  8.5604699487873237e+00 -6.4034906714276829e+00 4.9117534414485968e+00  9.0025836869173990e+00 -5.4398270610435056e+00 3.2161488843764330e+00  8.3378961676948826e+00 -7.9755599552924972e+00 7.4799427633541060e-01  1.0777082411071975e+01 -7.4084652019271271e+00 3.7795300337498858e+00  4.5933720377521094e+00 9.5869215213264738e+00 -3.4499072560979176e+00  1.3172687280363277e+01 1.2685174499977952e+01 -1.2808331131425373e+01  7.9998710746398620e+00 1.1263245239203401e+01 -7.6364101044051482e+00  1.1839733732350330e+01 7.4570411340238438e+00 -6.7940943640872842e+00  2.4595185264833081e+01 -2.9545733241363612e+00 -2.4427371420940496e+01  2.7588037849297855e+01 -7.3813501359467293e-01 -1.5086551652996231e+01  6.6181145126306200e+00 -1.2237021544140394e+00 -4.8740301326154238e+00  1.0991122935646718e+01 -2.1040650749667150e-01 -6.7791565713201818e+00  8.8626890988952614e+00 6.2493831274675120e+00 -3.3092086181187730e+00  1.1059895706437985e+01 6.4053158661308354e+00 -9.6170995804325390e+00  1.1463831308025149e+01 1.0359496844953188e+01 -6.0544608956090942e+00  7.0975799670159585e+00 5.3285077714801137e+00 -8.9000178480079999e+00  1.4469462357895608e+00 -4.4676294481663872e+00 -1.6020581901145980e+00  5.5183067889785784e+00 -1.9950209632705982e+00 -4.8809316766956083e+00  3.8377808983801165e+00 -1.6116817282311844e+00 -5.1736741173441017e+00  4.7680824561966428e+00 -2.1653314310447151e+00 -2.1280809634444320e+00  1.4466760731932414e+01 1.0852166195014059e+00 -2.9355714507537778e+00  1.8864528023427578e+01 2.5139685061668091e+00 -2.4688371949789452e+00  1.3198887095909228e+01 1.6208057750477640e+00 -4.2865613403875971e+00  1.5270626247787719e+01 6.9969580912282048e-01 -8.3408219964489749e+00  2.8422743201821405e+01 -2.1742088519413876e+01 -2.8606156438131753e+00  1.9645267574816764e+01 -1.1245382638623841e+01 -3.6611019745105100e+00  2.8638831035287954e+01 -1.3649523112314453e+01 -5.6347361077987452e+00  1.7013655779294226e+01 -1.3579771329231024e+01 -5.3326957755962034e+00  2.5693761065778745e+01 -1.1455340457224203e+01 2.2097078845514657e+00  3.0324126875270263e+01 1.5260994641387982e+00 -5.5462800140061539e+00  2.1985217904254760e+01 -2.4582121308282665e+00 -2.0090304467074929e+00  2.2069226242823689e+01 -1.7559193602630119e+00 -1.9191664752820761e+00  2.4594476208024280e-01 3.0917208451920186e-01 -9.0563640597668105e-01  3.3920891881267418e-01 3.5181008664073554e-01 -2.3464954829780574e-01  1.1060358317361099e+00 2.6221543231924455e-01 -1.0053508662548243e+00  1.0921379057818856e+00 3.1645524183067109e-01 -3.4138882346785754e-01  8.1387673494421584e+00 -5.6971489950989689e+00 -9.2801281333954062e+00  1.0038390148812171e+01 -7.1627021478184520e+00 -1.0650518375327335e+01  8.2987512940190484e+00 -8.8906435817680940e+00 -8.5684924461323657e+00  9.1482906450256181e+00 -6.5805192964671315e+00 -7.9664830018638177e+00  1.0010592035326018e+01 8.3917985399427497e+00 8.1501390000268048e-01  9.2396082931144203e+00 5.2380915524791654e+00 3.1659984038347702e+00  5.9216725180260532e+00 3.1628834457683563e+00 3.0341017009276333e-01  9.3218827742540267e+00 6.1744052599997863e+00 -2.9266886229038269e-01  1.6001755809680653e+00 -6.7757274660040201e+00 -1.8664678620676900e+00  1.7848575933373617e+01 1.3419886769573150e+01 -1.3657273574579918e+01  1.1540496259944343e+01 8.4227846475886778e+00 -1.3795693190319604e+01  9.4380581776547370e+00 -1.3637571537783992e+00 -6.4005268712075187e+00  9.1841931962870920e+00 1.9779812484764714e+00 -1.3840457776056299e+00  8.1474654531208799e+00 7.1093753726929165e-01 -3.3207094905822099e+00  8.9286631175961038e+00 7.1204852503391503e-01 6.8092295512919665e-01  9.7039116834694656e+00 3.4980502669772702e+00 -1.6437482293967112e+00  4.8103205101861350e+00 9.5931838248599155e-01 -5.6571485040007783e+00  5.5118752046112078e+00 6.7256504841085962e-01 -5.5414120713813730e+00  3.7177245661339997e+00 1.0092926051926734e-01 -6.0526489788915061e+00  1.1160439063748012e+01 -5.0976394057104368e-01 1.2351515982484420e+01  1.2006294733496235e+01 -5.0670387782696711e+00 1.2307300158293900e+01  1.3714546186231598e+01 -4.8474724396072730e+00 9.5756269641326845e+00  1.3095840869524205e+01 -6.3448049078747442e+00 9.0110184969295180e+00  7.7161366838385055e+00 2.6726071018664648e+00 -1.4786060937585304e+00  8.2710012772045225e+00 1.3244265068824832e+00 -3.1812127761315306e-01  6.5323925401193339e+00 2.8457665847325151e+00 -9.4104214312823942e-01  7.1757339963732170e+00 9.3983678984427987e-01 -7.4133572393795788e-01  3.1443800127194561e-03 -4.0246858479048599e+00 -7.8636435132088711e-01  -1.3338198123366193e-01 -3.8704232304045281e+00 1.1119442223006680e-01  -5.0498727840415625e-01 -5.8400325298365940e+00 -7.9144700323512540e-01  1.4580367474778309e+00 -3.8317197030818426e+00 -1.2610335740566676e+00  1.3154684378573156e+01 -5.6958095665878550e-01 -1.8617995505167993e+01  1.0484536566768151e+01 -3.6149933508849963e+00 -1.6359606663430270e+01  1.9926136770884106e+01 -2.4203275850405528e+00 -2.0876906034748867e+01  1.6417627405347929e+01 -2.0318728127495036e+00 -1.0960749075391748e+01  2.3607965012639212e+00 8.5156304567984098e-01 -4.5354950848888370e-01  1.6942867220986375e+00 6.8860371930026254e-01 2.4095125485417705e-02  3.0210111868174034e+00 9.4252971454705725e-01 -7.9977148328337644e-01  3.2270495886529376e+00 3.0754943876368074e-01 9.9395945136017083e-01  1.8255621000443355e+01 6.1466156565549914e+00 -9.7323758992838527e-01  1.3196718340530980e+01 1.2620492091292901e+01 -1.1544447397548681e+00  8.0220783826251107e+00 8.2508141756562043e+00 -2.5961617220783046e+00  1.4317514533080340e+01 5.4766629425204556e+00 -1.9627575731868272e+00  1.4927766225423694e+01 1.2139254524946379e+01 -3.1202316470877971e+00  1.3023638368749511e+01 1.1747589199328990e+01 7.6865140908480761e-02  1.1808621575457884e+01 1.0269492800610893e+01 1.0432771001692680e+00  1.4120371313922389e+01 8.6826658831879282e+00 6.3362601943183183e-01  2.2709791712781357e+01 1.9614470865899185e+00 -6.3378608851026899e+00  2.6139108829748753e+01 3.3293805703276513e+00 -8.2008172287463381e+00  1.9873528272156886e+01 4.0313710331656232e+00 -8.8089579654135992e+00  2.3137654078289820e+01 2.7895387477747602e+00 -6.9274305466690649e+00  9.6955540455588256e+00 2.1621721718726681e+00 -1.1164835112055432e+01  8.4461474444260265e+00 3.5829671923912061e+00 -1.1579948809798818e+01  6.4359201262108172e+00 2.1679156306718523e+00 -1.0007449675886665e+01  8.4877739473076907e+00 3.6419243794004066e+00 -1.2832139438418251e+01  2.2166392357691809e+01 -2.0431098671611876e+00 5.6977140162276525e+00  1.4694417406787599e+01 5.1536872617240514e-01 1.1630618991381315e+01  2.1955193781935968e+01 -3.7932589017942138e+00 7.5023814965676889e+00  1.6195851676517673e+01 3.0410459834831975e-02 4.9840112041756610e+00  2.1380359037469496e+01 -8.8361300035500072e+00 -3.2759442254448565e+00  2.1138388627731885e+01 -5.9466876510395723e+00 -3.6727971832445321e+00  2.3435480349562802e+01 -9.1155328289050104e+00 -3.3954621742170739e+00  1.6860927584288512e+00 1.2281695841998669e+01 3.8064045971012539e+00  3.6561704196465152e+00 8.6893016443817448e+00 2.0290865475732343e+00  3.1626513698752259e+00 1.2643963227180762e+01 -2.6098554089456705e-01  3.6240413478117470e+00 1.1222906539658435e+01 7.8084728860999586e-01  1.1290894671103265e+01 2.7548857198469143e+00 8.0950506246556593e+00  9.9300256495316965e+00 1.4227283669538198e+00 3.3303464947517125e+00  7.3927427880973156e+00 4.1750508193472796e-01 4.7556284450510704e+00  1.0269069649562974e+01 3.2162520713854121e+00 5.0165125548932474e+00  1.8358909273409957e+01 4.1489617057303878e+00 -1.2686032828825957e+00  1.7953871653254051e+01 2.7535031230334468e+00 1.3116580800984412e+00  1.6090224320529007e+01 1.3405790243256674e+00 -1.2559453200024768e+00  3.8802644227712322e+00 -1.0968661128203359e+00 9.6444661177287638e-01  4.9046407133865468e+00 9.6779315454965942e-01 1.8448230668701044e+00  5.2207134577819110e+00 1.6693468242042255e+00 1.1737786770266811e+00  4.9183052681776349e+00 -9.5878722746736778e-01 2.9952009214983760e-01  7.1339695897856537e+00 6.7974325566455898e+00 -1.0964141091926644e+01  1.0686620150816179e+01 3.4869344733498004e+00 -1.0958004870097341e+01  1.3343250430436795e+01 3.5240267756707472e-01 -7.7230547711108155e+00  8.6206425582438175e+00 -6.9582809714574867e-01 -8.4129085123616179e+00  1.0409848739198353e+01 -1.1742148480822301e+01 -4.1562419920131157e+00  1.1262081089093707e+01 -1.3347900132219529e+01 -6.8754089040301674e+00  9.4070442736776272e+00 -1.6574875216268129e+01 -6.8562526673858732e+00  6.8300120785814746e+00 -1.4865387338125316e+01 -6.8713810234230941e+00  5.0392374992116586e+00 4.3366446755158066e+00 3.0587598369856850e+00  1.5199096686535107e+01 5.6635628588196241e-01 -2.6822441382799309e-02  1.1611706598467267e+01 6.3967252224272260e+00 8.8238843184023807e-01  1.0327097955925666e+01 6.1224118669408545e-01 4.1758743453462914e+00  -1.1505953825876580e+00 4.7092617933970491e+00 3.1233900868366318e+00  1.9185305746896861e+00 -1.4845513067715870e+00 -3.2612372005397114e+00  3.8279475342470057e+00 5.2377295276479101e+00 1.9590622384287308e+00  5.1186328538297090e+00 2.7556084388134094e-01 -1.6846189313882169e+00  3.8188367703958903e+01 3.8506833698462861e+00 -2.8694750558054518e+0