<?xml version="1.0"?>
<VTKFile type="UnstructuredGrid"  version="0.1"  >
<UnstructuredGrid>
<Piece  NumberOfPoints="5650" NumberOfCells="23364">
<Points>
<DataArray  type="Float64"  NumberOfComponents="3"  format="ascii">17.52498054504395 2.55301308631897 38.91011047363281  17.03523063659668 1.764261960983276 38.62242126464844  17.97591782501315 2.572758062623017 37.77841247616017  17.87262999533558 1.232196270557887 38.18221043346044  19.7015495300293 0.8767340183258057 37.12514877319336  19.74914932250977 0.09558500349521637 37.76604843139648  19.81943819258192 0.8956203622800003 38.11070283089337  19.07078530808521 1.347408860295228 37.60285910375343  17.69137954711914 3.336287021636963 38.57429122924805  18.0975399017334 2.974997043609619 39.30007934570312  18.98435600727925 3.423573078678505 37.99511319308969  18.76371561541383 2.265909306150786 38.80163265905296  19.4720723037649 2.190757989725785 37.46758444356109  19.66176474496783 3.472157792616993 36.58779327576112  18.60112805888055 2.551360969509187 36.59877672746497  18.00106048583984 4.007146835327148 38.05488967895508  19.77272033691406 2.164697885513306 36.56809997558594  18.65118026733398 0.09558500349521637 38.70954895019531  18.65662002563477 0.09558500349521637 37.76456069946289  19.26005935668945 0.09558500349521637 38.49330139160156  18.76134686508737 0.9455722124063636 38.6001022882983  17.9596004486084 1.821858048439026 39.2983512878418  19.00023078918457 1.440655946731567 39.89208984375  18.24958038330078 0.7909860014915466 39.11584854125977  19.92091941833496 1.475036978721619 37.01502990722656  19.40040016174316 1.248085975646973 36.74972915649414  19.05983924865723 0.6561530232429504 36.82487869262695  21.21910095214844 5.262744903564453 34.16889190673828  20.41987465662099 4.823246672232324 34.9028319526876  20.29107767103694 5.476371257466354 34.47082704409466  21.078929611489 5.596073665954918 34.92294264819895  18.34029960632324 3.834465026855469 38.8875617980957  18.44364092395562 3.749585369554367 37.23163928847106  19.0982608795166 1.342733979225159 36.08776092529297  18.02313757094337 1.140892209454971 36.66651382961027  18.40275001525879 4.603332996368408 37.69865036010742  19.21337695774305 4.721485073050974 37.12774532454124  18.50540616503915 4.209601409394397 36.29271008182338  20.30858380118949 4.893104204485426 35.98865362336411  19.50892217804935 4.050192694606118 35.22820871169485  19.4017859683008 5.377024792299474 35.53212497377826  19.92934732430216 1.936870337616111 38.58618551744202  17.60190963745117 0.6299070119857788 38.75944900512695  18.62839614767633 5.697418226718655 36.36542542118185  20.10998804731152 6.296291504613277 35.07216427648358  20.65052032470703 4.627615928649902 34.20412063598633  19.39480972290039 0.6244159936904907 39.21564865112305  18.97987937927246 6.228812217712402 37.42708969116211  18.30014038085938 6.062904834747314 36.93975067138672  18.85834340543732 6.667370545648653 36.23677525861149  21.16666984558105 4.133924007415771 35.12585067749023  20.3463306427002 3.925168991088867 34.52354049682617  20.4554500579834 3.780755996704102 35.31710815429688  19.37047958374023 2.334095001220703 35.9086799621582  18.73188018798828 2.498398065567017 39.89208984375  19.97966003417969 0.09558500349521637 38.66526031494141  20.8844108581543 0.09558500349521637 38.24692153930664  20.56488990783691 0.6131420135498047 39.17745971679688  20.54196929931641 1.058318018913269 37.40233993530273  17.81922912597656 0.09558500349521637 38.28430938720703  18.41340065002441 5.270916938781738 37.30012130737305  18.42524909973145 6.908240795135498 36.81827163696289  19.98665046691895 3.140805006027222 35.85480117797852  20.84836959838867 5.96611499786377 34.16732025146484  17.67905044555664 4.482658863067627 37.33798980712891  17.01017951965332 0.7897689938545227 38.34455871582031  17.50815963745117 1.070394992828369 38.9398307800293  8.188456535339355 1.165763020515442 25.32064056396484  7.374207019805908 0.6876109838485718 25.27131080627441  8.319725036621094 0.09558500349521637 25.27935981750488  7.744144916534424 0.09558500349521637 24.65199089050293  18.15447998046875 0.6816989779472351 30.55500984191895  18.55550956726074 0.6429020166397095 29.72613906860352  18.23812631453073 1.819471798432995 29.84012695829485  17.65732601528248 0.690538555805599 29.68726602252496  10.62491035461426 8.517734527587891 26.5118408203125  11.17844009399414 7.976909160614014 25.8271598815918  11.76351842964487 8.593973595856344 26.69043386386788  11.83830226047937 7.765695745501291 26.2495332633479  13.64352035522461 0.09558500349521637 28.74506950378418  14.48805999755859 0.09558500349521637 29.18498992919922  14.34523010253906 0.09558500349521637 28.10177040100098  14.26860186363399 0.8962998893940018 28.76304024589591  17.02544975280762 9.71726131439209 22.62701988220215  17.70636940002441 9.166142463684082 22.92539978027344  17.44457054138184 9.441779136657715 22.20199012756348  17.24413670523961 8.686283092001378 23.11706573022736  9.516697495174787 3.361655800729649 18.7117940637308  7.773248684704234 2.792522100254617 19.59741631533982  8.09777957171627 4.159760009283453 18.81990084457015  9.152567852576004 4.408923062264841 19.97710349125446  4.02503776550293 10.40275001525879 22.00705909729004  4.840386867523193 9.825771331787109 22.01609039306641  5.032009787077012 9.879154907805528 22.8418319107321  4.042827591458906 9.966188156901065 22.77030418233764  18.93788909912109 8.973540306091309 20.10206985473633  19.21762084960938 8.337586402893066 20.50494003295898  19.56550025939941 8.630832672119141 19.63917922973633  19.05515083555661 7.790209132518613 19.79520700246171  18.96104049682617 7.825235843658447 26.68133926391602  19.79015390121104 7.020314677930913 26.57189602545551  18.62636265863724 7.502942463600287 25.81784977505643  18.38425400898137 6.9154182567824 26.65382549655616  4.124124050140381 0.7161189913749695 26.70215034484863  3.338845014572144 0.09558500349521637 26.64773941040039  3.000479810048755 1.014179511804993 26.18683505348272  3.061164721040992 1.103216606063491 27.21710560724785  4.814870834350586 0.9924589991569519 39.89208984375  5.204606056213379 0.4639959931373596 38.86196899414062  5.153764571086372 1.363555033230949 38.36821259456691  5.780478817358538 1.577516686092104 39.24196304409652  9.022880554199219 4.869105815887451 23.39876937866211  9.596207618713379 4.258718013763428 23.61586952209473  8.937583923339844 3.994426965713501 23.16554069519043  9.61470009363652 4.38965288473522 22.96849665201074  18.41871733131307 2.181151151254709 28.32657805006649  18.28440285915734 3.530964867688151 29.40069084485169  19.35220921895721 2.801268866417136 28.44053197439563  18.85950943430372 2.567317065668881 29.42444227549026  3.106514930725098 0.09558500349521637 24.58004951477051  2.221836090087891 0.09558500349521637 24.1338996887207  1.985139399235706 1.025796627469854 24.63661427257967  2.447232725895193 1.095129799714786 23.72987635038141  10.65577983856201 5.681509017944336 26.8709602355957  10.35818004608154 4.973543167114258 27.11243057250977  10.87691974639893 4.989037990570068 26.59758949279785  11.01518645242453 4.716271982191934 27.26412996070284  3.119940042495728 7.278544902801514 26.59510040283203  3.099049753304223 8.410002825033178 26.47487664698666  2.304414875507706 7.936102918469949 25.79525872985419  1.949142373172263 8.085771720188131 26.88847876049708  18.87026977539062 3.923463106155396 25.78803062438965  19.41661071777344 4.312838077545166 25.24838066101074  18.71119394318229 4.829421733635419 25.03112367968264  18.49095349146005 4.692810949219037 26.11445425442576  18.83731079101562 4.087762832641602 23.74139022827148  18.08009845251352 4.559156836252775 23.40043604157604  18.9624938803594 4.961569727536028 23.72813613804041  18.23359652328603 4.42212969864937 24.22053364813143  16.92330932617188 5.794055938720703 27.32415008544922  17.57271573026096 6.292816600233106 26.20677060890071  17.061982245935 5.015928891971939 26.82073832116684  16.24644907596095 5.761196055119441 26.46940368482335  16.17094993591309 3.028398990631104 25.35478019714355  16.84943962097168 2.97537088394165 26.0648193359375  16.73089364961352 3.770612672385373 25.31024585372446  16.19394845057861 3.629106680367777 26.40768624206551  12.77493953704834 0.09558500349521637 27.11207962036133  12.23508518025742 0.8480799782870929 27.58311463911213  12.18946166901117 0.09558500349521637 26.97602479612186  12.55722914751562 0.71971167913789 26.73744234286441  3.99950909614563 5.82887601852417 28.87924957275391  3.667519092559814 5.910507202148438 28.16725921630859  3.821820020675659 5.208402156829834 28.38241004943848  3.227171086494382 5.77830603992701 28.69712659730207  3.009126901626587 5.75239896774292 24.29126930236816  2.329974489528505 5.264614845464756 25.09840875529934  2.254455047615822 6.300635338122938 25.13511709512789  2.428060459596307 5.979029706886498 24.01043853249661  15.3249397277832 9.161655426025391 22.0219898223877  15.11830043792725 8.356017112731934 21.6094799041748  16.02951718804351 8.776653050955392 21.87603807107938  15.58615611123262 8.063761483105406 21.95088537142065  2.182970455183949 5.274492594926175 34.16907667609062  1.661652912096198 4.525898799342969 32.80125540439614  1.273020569393846 5.208670520938099 33.11185078860689  1.259774718544242 4.912072176197611 33.48207086966199  0.857896524992287 5.298245553052253 34.16288633492784  1.533679340937721 5.582967418729702 33.79576142445413  0.8711423758418901 5.594843897792741 33.79266625387275  0.8843882266914934 5.89144224253323 33.42244617281765  2.494317054748535 7.035478115081787 34.63919830322266  1.706445547108213 6.431456503514569 34.41598665100517  2.05961968505127 6.538823624803117 35.13920214835372  1.7957575563388 6.812192598273224 35.11297179037162  2.412793822994327 6.646190746091664 35.86241764570227  1.401821802518639 6.510181792489615 35.00136596426287  1.097198057929064 6.588907081464661 35.586745277520
[...]
<PointData  Vectors="u"> 
<DataArray  type="Float64"  Name="u"  NumberOfComponents="3" format="ascii">1.3347055811582667e+01 4.2667742100481494e+00 1.0072589176229203e+01  2.2405628594184837e+01 2.4709145062797361e-01 1.1824993004191368e+01  1.4618853005628019e+01 3.2693856653498701e+00 5.4121076431236128e+00  1.3882940420709570e+01 8.6382284255240727e-01 6.3302447736241350e+00  1.4642064263298254e+01 9.9001835520404258e-01 7.3264586776807112e+00  1.1659394160473267e+01 -5.9504765832572126e-01 4.8567373726510317e+00  1.2232494674455630e+01 1.4942457941910181e+00 3.7275895927496174e+00  1.2769556024035730e+01 2.0821459270260876e+00 5.9619251833535989e+00  1.4109663005473013e+01 5.2645842411612911e+00 9.9828638202995528e+00  9.2228229476528014e+00 4.9760971193378705e+00 7.6360728116144880e+00  1.2199586361031608e+01 4.5385980898807690e+00 4.9048046090824098e+00  1.0845687040924844e+01 3.0361723845450594e+00 4.8898530707206156e+00  1.2938610209276970e+01 3.1583676504577003e+00 5.2245340250774204e+00  1.3429071891124654e+01 4.6303996333895245e+00 5.5601152664622138e+00  1.1780623499215825e+01 4.0451291214683032e+00 5.4400928242738180e+00  1.5367355806025282e+01 5.4755164314485327e+00 7.8966694367071906e+00  1.5005391334578166e+01 5.2082538687783808e+00 9.0779198254972187e+00  9.7234007245625662e+00 1.2245454295407969e+00 3.1722319093733771e+00  1.2605107761899642e+01 -1.6591566782027122e-02 6.6038028626008352e+00  1.2203068998466868e+01 5.3991385967540273e-01 2.1586774077456110e+00  1.1360217676324998e+01 1.7307338398356600e+00 4.6585248820045759e+00  1.0522328618543343e+01 3.1294631090833098e+00 7.7368428525123774e+00  7.3114251188264126e+00 1.5601842203907272e+00 2.7721431663584624e+00  1.1314515641174014e+01 2.1605654423443643e+00 5.6208546546853846e+00  1.5797330889550793e+01 2.6791594826563712e+00 6.6208998596526341e+00  1.1762453326533096e+01 3.9389640860855386e+00 1.1152440597601748e+01  1.1353934639743519e+01 3.8582605737045856e+00 1.1571994598879655e+01  2.8782771261999052e+01 1.2781918701431416e+00 2.0052674826623509e+00  1.6496170412665670e+01 5.0791868005763687e+00 7.9756498525514008e+00  1.5935358164965111e+01 3.4098727288217647e+00 9.0859768684364344e+00  1.7236055947481987e+01 2.5363006703003963e+00 3.9628031844154092e+00  9.2982501431422815e+00 5.8508486405803204e+00 6.6032183958474402e+00  1.3803702652412241e+01 4.3683986163338453e+00 5.0766633749774632e+00  5.4844454785282952e+00 5.7386307591066030e+00 9.2812411076072561e+00  1.0565084886843779e+01 1.9810171238755157e+00 4.7391330865941068e+00  1.4098738651902135e+01 6.4244136093875408e+00 7.1123642749707674e+00  1.2509882458980027e+01 5.3782810901890832e+00 5.7071579016650853e+00  1.3086033384559574e+01 4.3211310714915845e+00 4.8456122818955816e+00  1.3654983089309258e+01 4.1799947437368994e+00 4.9939683734999987e+00  1.1977106655764993e+01 5.4229834522148446e+00 6.6155944247376075e+00  1.3076830403933307e+01 3.9456696419911839e+00 6.3180072695109857e+00  1.1336891222463052e+01 2.1780214455286711e+00 2.5143155794160452e+00  9.9691612462913266e+00 7.2538391236909056e-02 6.2869214010351184e+00  1.3661033024077328e+01 4.8219469018022734e+00 6.6033049369860883e+00  1.4218844348070171e+01 3.1009322552978289e+00 7.6863114129957282e+00  1.9621957760515325e+01 9.8646627267210540e+00 1.5127002839193326e+01  1.0344169210688033e+01 2.1015473480958646e+00 2.8349494136222133e+00  1.2371841118551341e+01 6.0365679826952414e+00 8.9100065210569284e+00  1.4083797830113902e+01 5.6592663460484109e+00 8.1827890762500459e+00  1.3436518739145823e+01 4.0700798167169241e+00 7.7154567428542533e+00  2.2148228270549396e+01 8.4529386729583289e-01 2.3411445948354754e+00  1.3237190235992861e+01 9.2247026394559004e+00 1.2176361299987185e+01  1.7643376895144016e+01 7.0104888072861238e+00 8.7477842246860398e+00  9.2882975428596879e+00 7.8355938277568287e+00 9.6750656274032618e+00  5.3127993407039709e+00 3.5072401968889970e+00 2.3126150408906208e+00  1.0150931011029979e+01 8.6846276920580678e-01 1.4338648822037052e+00  1.4165904745770154e+01 1.4364739269412297e+00 3.5649279439080073e-01  1.1761710404018963e+01 2.0816394365587496e+00 1.2649346666648604e+00  1.6320189406959027e+01 2.2404129673799082e+00 2.7066065583859471e+00  1.0726270970299373e+01 -2.2517807394965170e-01 6.5676866894318895e+00  1.4591558006702218e+01 6.3007055379166408e+00 7.1330405302712530e+00  1.3484106813652328e+01 3.5911706124078511e+00 8.4494760849996915e+00  1.4849222500273612e+01 7.3962932730581441e+00 9.4553816366422545e+00  2.1939684576644833e+01 1.1816716221330490e+00 9.9903310949718787e+00  1.7164380064748027e+01 4.7984864906200739e+00 4.7648095050310681e+00  1.8534231134681118e+01 -3.1695473739315005e+00 9.9434995314845711e+00  8.7633741003744721e+00 5.7009341137068503e-01 7.6080957344240545e+00  3.9996190871585661e+01 5.3208673364543451e+00 1.3382407117978090e+01  4.2867079546638820e+01 -2.0766921745557609e+00 1.5702505094318799e+00  2.4894445793208867e+01 2.2504652656159860e-01 7.3534504081766734e+00  3.3804107464213629e+01 -2.1977161960654663e+00 6.8242553537706669e+00  2.7707020635213269e+00 1.6878987783335553e+00 -3.5539716932251220e+00  4.8368834151151932e+00 1.1732122312137190e+00 -5.6624637790156411e+00  5.5857330416486803e+00 1.0319899333670126e+00 -4.2438055337508382e+00  5.3786915571534140e+00 6.4995924741754152e-01 -3.5829996471670267e+00  6.4941185397106072e-01 -5.9759615884005681e+00 6.5479113945620542e+00  4.2572198259563603e+00 -4.0818833546361866e+00 1.4940586581151118e+01  4.6015872706295333e+00 -1.3561258852863367e+00 4.8957433778968378e+00  3.4595079987336450e+00 -1.8759056552754152e+00 5.9273717899320264e+00  5.7837095194334545e+00 1.7336723130152193e-01 4.5487680041567220e+00  6.6486121640000837e+00 1.1832597577917221e-01 3.2255883076503964e+00  7.5210416779146536e+00 -8.2694567385394346e-01 5.2786388997045126e+00  6.8075546766832744e+00 2.2647344520108068e-01 3.8047684403074853e+00  4.1262254507993115e+00 -3.0514373448181438e+00 -4.9481362701928857e+00  3.6063894414895081e+00 -5.0795681128100876e+00 -3.5871209413228988e+00  4.5163681720699467e+00 -2.9010749238212630e+00 -4.2667825933463854e+00  6.1290433986957344e+00 -4.0443679736878977e+00 -2.6060963060632441e+00  8.2734559958978906e+00 1.4767036026844127e+00 3.6663533816316124e-01  1.5654885684064670e+01 3.8031533572816314e+00 -2.1535181555027738e+00  1.0918550148375589e+01 4.7520550441818257e+00 -1.4784324649653524e+00  9.8499200090030126e+00 3.2181204606663725e+00 1.9498490860620274e+00  3.1527288532788436e+01 1.2928842724050657e+01 -2.0024615694005994e+00  4.1760709218475270e+01 1.3174187348200174e+01 -5.9829831350827511e+00  3.8480284788569911e+01 9.9356530574302280e+00 -1.2359347504588046e+01  2.9630611846604321e+01 1.3659862518951753e+01 -8.9957270727212162e+00  7.8194877251390187e+00 -6.7050574768445301e+00 -3.2375952067475211e+00  8.1335407912804651e+00 -7.7828032508269063e+00 -5.1634978910097811e+00  1.2125080099767011e+01 -7.5050568280792236e+00 -4.4640875652219529e+00  1.1119632968886602e+01 -5.6129925461898855e+00 -2.3475284960156046e+00  2.5795195101882261e+01 -1.9821719846122763e+00 5.9011079414474032e+00  1.5454468528760533e+01 4.7522863195300982e+00 2.7118047432333197e+00  1.6934438483872665e+01 -3.9559510905577984e+00 2.1182662934870526e+00  1.5442485463947140e+01 -1.2221210289994409e+00 2.6173892241370504e+00  1.9500027634487541e+01 -5.1310234211784813e+00 -3.2279901767700920e+01  1.5152964191169900e+01 -4.4212935501052070e-01 -2.7839989912625757e+01  1.7026944581411811e+01 -5.4801666648352034e+00 -2.5081528373689025e+01  9.2001136710429510e+00 -4.5890883970349483e+00 -2.1933119127450254e+01  2.0901182412956341e+01 -1.8629967650713610e+00 2.0953875232569814e+00  2.3325831283022787e+01 3.5777890201580575e-04 6.5318914294366177e+00  2.2320334041290891e+01 1.9581723576449992e+00 6.9625269039759123e+00  2.6088655741013802e+01 1.8425494822357855e+00 2.6782032154044906e+00  1.4833066269095204e+01 3.9209703298848253e+00 8.8103519625379274e+00  1.4626117805273307e+01 8.9220754121655435e-02 1.2179948620338735e+01  2.1318853494936423e+01 7.7633402769035369e+00 7.0979225060043669e+00  1.4721653861971584e+01 3.0731298882429230e+00 8.5731580359720585e+00  9.5132638407792367e+00 9.4481725807362871e-01 -3.6756450539881858e+00  8.1784084923753806e+00 1.7730604321504198e+00 -4.5828741710034890e+00  1.1270540007413652e+01 2.1674972971728659e+00 -5.8637170162125614e+00  6.9005999108381584e+00 1.9539954373689872e+00 -5.9109001708787492e+00  2.3507161004718228e+01 1.3297531153442282e-01 -2.3196560544831954e+01  1.8494700472060646e+01 -9.7245447459215495e-01 -2.5118035349432457e+01  1.7623639281282031e+01 -5.3160861025838901e+00 -2.1788735868113900e+01  2.0908211548988845e+01 -6.1258337250852550e+00 -2.1119306779260512e+01  -1.7253976986255375e+00 1.9946781145312096e+00 1.6142145615248404e+00  -1.9024112710036527e+00 3.4146054653337221e+00 2.3755394520291095e+00  -1.9618366868609740e+00 5.3414690824227682e+00 5.4283012033041338e+00  3.7924369403446911e-01 3.4054873284116054e+00 4.5280195199702833e+00  4.0697521948631019e+00 1.5814774411607834e+01 -1.3801671732333208e+01  9.0265981318701041e+00 1.4753667722676878e+01 -1.7590050305580931e+01  1.0484577524173071e+01 1.5084249286789229e+01 -1.4260751366101024e+01  9.7101615508128010e+00 1.3150896410111741e+01 -1.3457413731711933e+01  1.5073568732549985e+01 6.2291510474812526e+00 2.6868859679132240e+00  1.7257626875180886e+01 3.2606786887223542e+00 2.4735678400096051e+00  1.3551727105873290e+01 3.3257156635576228e+00 5.7564853988349884e-01  1.3322331017832195e+01 2.7005289999453272e+00 7.8635895321647120e-01  1.1312908396053709e+01 6.4514365871494341e+00 -3.4724704690095716e+00  1.1809119219501229e+01 2.5068447951251183e+00 -3.3903133978335243e+00  1.3034202429802859e+01 2.8642015544962307e+00 -1.6871107685198021e+00  1.1587553480289394e+01 4.2612501707699897e+00 -1.4836035212805709e+00  1.4765171917966386e+01 1.2803743800300542e+00 3.2409128058041956e+00  1.3203963193959408e+01 -2.2727197821421133e-01 1.3076675261810662e+00  1.2284674671834420e+01 1.6295157581952295e+00 1.0513045937842564e+00  1.2292703403608469e+01 2.5293455818400740e-01 2.2745150784638207e-01  1.5045419929043973e+01 8.5746593541686889e-01 2.5803524312932686e+00  1.0465116315961080e+01 -4.8787052362554051e-01 2.3031237496653585e+00  1.2058963825344854e+01 2.2283481832061716e+00 1.2196749556571287e+00  1.1962231963096039e+01 1.4833925669833476e+00 1.8548721523450340e+00  5.0211910824665669e+00 2.1629560965034236e-01 8.7044909496881928e+00  4.9972957655193131e+00 4.9475452680530874e-01 8.4118317031621270e+00  6.3149369146724714e+00 -2.0380731771301142e-01 9.6158783521250957e+00  6.0213596122129287e+00 1.0149078334564929e+00 9.1132977041067029e+00  -4.3845157501739773e-01 4.3078377611487548e+00 -4.1344970177452023e+00  -2.5468061983317591e+00 6.5173097270901676e+00 -3.2687895295646481e+00  -1.2348664044733224e+00 2.2843993494485035e+00 -2.7569186890110529e+00  1.6343703348814436e+00 4.5425716857680545e+00 -6.2411082559215014e+00  -7.0273451269397047e-01 1.2215614680593423e+00 -7.0089264772244393e+00  5.0278815466188940e+00 -2.1706464687814941e+00 -1.1767460261620711e+01  5.9410263365610430e+00 6.9267314045958344e+00 -1.0879759542138514e+01  2.8076388776668302e+00 3.2899865521064795e+00 -6.5336090975124907e+00  3.7471914108385520e+00 -1.4650171371851048e+00 -7.4366591956948431e+00  7.7872353214581913e-01 2.3551752338881057e-01 -5.4128179781332886e+00  4.3856004261068549e+00 -1.4173685895515531e+00 -4.4042353318235934e+00  4.4805333709139230e+00 3.0159877428782261e-01 -5.8897681340658545e+00  9.0507599893651562e+00 7.5404185849000893e-01 1.5537207349321186e+01  8.6128353374977920e+00 1.7290009419318159e-01 6.0532147970038261e+00  1.1443382352162853e+01 3.7502455658273393e-01 7.4342800587062694e+00  1.1898394122108467e+01 5.3864593683434936e-01 9.1957468440829651e+00  1.5212495949877276e+01 9.6893104752461001e-01 1.2064737947106046e+01  1.0962626967881027e+01 6.0184096121742503e-01 1.1709508310278888e+01  1.4778190444631994e+01 9.4849725055669276e-01 1.0869843000384716e+01  1.4075532166650561e+01 1.1541064742020899e+00 9.1138486699377168e+00  1.0186195991073552e+01 -2.9720428735970557e+00 2.3397719376937431e+01  1.0337181789395245e+01 -1.8912952747243188e-02 1.5605812072492482e+01  1.2984272682017373e+01 1.4178702033037400e+00 1.8113487679357949e+01  1.1470812603715203e+01 5.1223670649893460e-01 1.7021267033824081e+01  1.5785942293434823e+01 2.1737350612546047e+00 1.5976989821968003e+01  1.3079835792294785e+01 2.3676767888871195e+00 1.6078588267640452e+01  1.3419780221579932e+01 4.0199679227977478e+00 1.5310350710923753e+01  8.8364818626138923e+00 -1.3351963627357121e+01 -1.9848578041648118e+01  1.8246630314958509e+01 -1.1331202681558860e+01 -2.0119772736624125e+01  1.5645906254357767e+01 -1.5512805274545826e+01 -1.7991217234723038e+01  1.5244494711513028e+01 -1.3433421118015678e+01 -1.7442826750781119e+01  2.0001929076879211e+01 -1.2015342139834708e+01 -1.7621890749716513e+01  1.8229512199637909e+01 -1.4854815021909083e+01 -1.8401970091028986e+01  1.8095944878950981e+01 -1.6561131109982203e+01 -1.7462200649308880e+01  1.8060830412661879e+01 -1.1776578898123462e-01 7.5712349261977563e+00  1.6299945306479888e+01 9.4088962291482919e-02 6.3605293029865075e+00  1.9225182583691478e+01 1.6182368682156345e+00 5.4460984316762300e+00  1.4686147916428682e+01 1.1739227853794791e+00 7.7857045242903924e+00  1.9562754646745704e+00 1.5596753107324909e+01 -1.1048934027945599e+01  -4.8209045609640877e-01 1.1161878278262753e+01 -1.0676568481778579e+01  5.6749218172029243e+00 1.0964783161938911e+01 -1.1548396181236647e+01  3.7118841735190933e+00 1.1862319976184894e+01 -1.0001945267434355e+01  1.7222569415082784e+01 -1.5608877151875935e+00 1.3179884976847870e+01  1.4044428229513276e+01 1.0995567772910364e+00 8.4006980701301828e+00  1.4195083162715957e+01 2.2460551495311915e-02 9.9223275330054683e+00  1.3330515239954886e+01 2.5491273401364234e-01 1.0419362393653769e+01  1.3344196436489018e+01 3.0306467514458437e+00 -4.0576469645783098e+00  1.7818973316269535e+01 7.6021780450507768e+00 7.3947828328005527e-01  1.5198289083274556e+01 5.6506467949761117e+00 -2.6035174554707075e+00  1.2997520305132369e+01 2.4824751938826295e+00 -1.2863314009693150e+00  -2.5250728244546755e-01 1.4925096416586674e+00 -3.2178821529076247e+00  1.7423935272136091e+00 7.3792590634068922e-01 -1.1345676912910807e+00  2.9660143086704980e+00 4.2529706235806825e-01 -2.0075878907158584e+00  1.4816887164281189e+00 -2.5267361092418663e-03 -8.8758503293171143e-01  1.0890094115075815e+01 -3.4214494214531214e+01 -1.8844734618540397e+01  2.6187763425847642e+01 -2.6202566311122894e+01 -2.9291577080868379e+01  2.3446153298487957e+01 -1.8754194712171600e+01 -2.0409063291134576e+01  1.6354843417629819e+01 -1.8337461222579655e+01 -1.9977407554455713e+01  6.1971750609863738e+00 5.6637661082244692e+00 1.4002460484322757e+01  8.2783109059699225e+00 4.5882398599856966e+00 1.3884646300061579e+01  9.7368223965824949e+00 4.1048378472477225e+00 9.7170017545520508e+00  6.7550690860684046e+00 5.5179707001955203e+00 1.1383809165461926e+01  2.7996095714098397e+00 -7.4124306522929140e-01 1.6381414992088283e-01  1.6227521340611939e+00 -1.3379673523950322e+00 1.1552058472608973e+00  2.2162149842299761e+00 -1.1768573942886378e+00 8.1273331498712720e-01  2.6913906810959727e+00 -7.0822067150262491e-01 3.5101996728475754e-01  2.1502982405498958e+01 -4.0018006980847725e+00 -7.5640959018188292e-02  2.1276251813101688e+01 -3.9729919503851958e+00 -3.6159052259077984e+00  1.5749544220677999e+01 -7.2976630957361239e+00 -6.1411633378680088e+00  2.0009350842295472e+01 -4.3069957740398710e+00 -7.6798260589521314e+00  1.2456121203918348e+01 5.0260868145431044e+00 6.5074729660328536e+00  8.9055526244690721e+00 9.0571849535216664e+00 8.2040673514100781e+00  1.1056354511881077e+01 3.4128964309132273e+00 3.9777747530367238e+00  8.3457197161827921e+00 3.0708878291001747e+00 5.8143107592459335e+00  6.1795393789977897e+00 -1.3144479810446928e+01 -1.8812686343269487e+01  9.5251581685362190e+00 -6.1018940869138749e+00 -1.7291319096378626e+01  6.1409288574706125e+00 -6.4618296147269367e+00 -1.2855285154258569e+01  8.2776086875327888e+00 -7.3725333625424412e+00 -1.5162177148245449e+01  6.0599373762242941e+00 -5.8651984714660017e+00 -1.2720564002355520e+01  5.1915085305019226e-01 -2.0417291853068975e+00 -8.4912397578600407e-01  1.2485626921101263e+00 -6.9462904759149091e-01 1.2063590662795001e+00  2.4219760545289035e+00 -1.1375374392741551e+00 3.1081902977823045e-01  1.8195630012337747e+00 -7.8723292510236964e-01 5.5359251159717648e-01  5.8104901545171144e+00 -1.4731981276474125e-02 -1.6919280400491332e+00  3.2298384413701835e+00 3.8699932382120000e-01 -1.8437157462850378e+00  5.5346935874188965e+00 1.0166293268369034e-01 -1.3808485004493878e+00  2.0109139392467171e+01 -8.0668355016883755e+00 -1.4294340804918249e+01  1.9812679700631758e+01 -1.2819735121960081e+01 -1.7540136854600316e+01  1.6739021157342922e+01 -1.0790026919142635e+01 -1.7091672943023582e+01  1.8230011313359430e+01 -1.2561639479030642e+01 -1.6765162772298979e+01  1.9971232316627578e+01 -1.1510928841304622e+01 -1.5380706575383988e+01  1.9965957239433813e+01 -1.3295514730567739e+01 -1.6691750152138425e+01  2.0152801252589796e+01 -1.3719670302118395e+01 -1.6412708566975510e+01  2.0695354947988172e+01 6.7218159408781260e+00 -1.1747513823248084e+01  1.7264980649937687e+01 4.9900411762541781e+00 -1.1298995916747398e+01  1.7251894395064539e+01 7.3085092885214076e+00 -1.1423256998396692e+01  1.9734330780420610e+01 6.8373075131928802e+00 -1.1376529403403014e+01  1.9895475189227209e+01 4.2855840859100667e+00 -1.1573161464840140e+01  2.0862694438376160e+01 7.1846853807124882e+00 -1.1106243873379098e+01  1.7224389372654603e+01 7.3374879359534289e+00 -1.1056656985445510e+01  1.9906597667587793e+01 4.5135194983516769e+00 -1.1242614953337757e+01  2.0572155128721054e+01 1.7225961573939901e+00 -1.1676536300154265e+01  1.4821498202582493e+01 8.1358915956361741e+00 -1.1423963391840848e+01  2.0366764351951019e+01 3.0093679447422406e+00 1.3757843370323885e+01  1.8183352134600195e+01 2.2469858013629769e+00 1.3116021253063408e+01  1.7116585961754939e+01 9.7339871329764860e-01 1.3009540892470746e+01  1.7609203494028453e+01 3.1477473057240557e+00 1.3178267356426208e+01  1.9747692921209577e+01 1.9199850744354094e+00 1.3504106258907660e+01  2.0495363906675120e+01 1.2831916591729675e+00 1.3434560612509427e+01  1.7712589756413621e+01 5.8802405420304626e-01 1.3222892541987591e+01  1.5952213905484747e+01 3.3595262379594044e+00 1.2656875239859117e+01  1.5892531862760427e+01 1.0399866521378048e-01 1.2152438209048695e+01  1.4450185162332083e+01 5.6798833647624276e+00 1.0585071986273540e+01  1.2025481816302447e+01 1.9296425374023187e+00 1.0560615568419204e+01  1.1271049322313424e+01 -3.6230196794135944e-02 7.7308220286200173e+00  1.2388679299654243e+01 2.4419500813554000e+00 1.1563600623810038e+01  2.0375934809417537e+01 2.3263979848554525e-01 4.5759934912733886e+00  2.0090687028313642e+01 -2.1025385824920977e+00 5.5476989606943521e+00  1.4156470064852284e+01 -6.6643091448246450e-01 5.8428712836482735e+00  1.4546908150452946e+01 -3.0733810194634583e-02 7.8341851243726301e+00  1.9814586750596710e+01 -1.0834323704124482e+00 7.7775237076468438e+00  1.4334894588198955e+01 -2.0021887891693627e-01 5.5506153555288771e+00  1.9899452260904077e+01 3.9255443517988917e-02 7.3657538288275948e+00  2.0338215904045651e+01 -1.4724263861308109e-01 9.6006689411498538e+00  1.2621951660189732e+00 -7.5820159620940508e-01 1.6085526329046098e+00  3.0981894273287311e+00 -3.8591643333672328e-02 2.0421791957261113e+00  2.0802781266070096e+00 -8.9185157141962457e-01 2.8118360476304955e+00  1.1638737744892012e+00 1.0862202855775280e+00 3.2424891485586986e+00  1.7568232865391664e+01 3.5623081174498585e+00 -9.3832835596115221e+00  1.2271935661311327e+01 -2.5487678073891979e+00 -9.1017860849795174e+00  1.2312677987191194e+01 -6.8