<?xml version="1.0"?>
<VTKFile type="UnstructuredGrid"  version="0.1"  >
<UnstructuredGrid>
<Piece  NumberOfPoints="5777" NumberOfCells="22942">
<Points>
<DataArray  type="Float64"  NumberOfComponents="3"  format="ascii">17.42807960510254 5.748912811279297 17.58735084533691  18.6133781463354 6.184669935715985 17.44164725493554  17.64428974949532 6.523560370337231 16.36898035243292  18.3682967494074 5.636346886063809 16.31129784190046  20.73398017883301 11.66693019866943 13.36250019073486  20.57206916809082 11.09191036224365 14.00909996032715  20.54998970031738 10.76624011993408 13.18274021148682  21.43917311167102 10.97662830872176 13.02674005247501  18.8632661656536 7.23903399705552 18.44948664628291  20.09467856971356 7.670324165746222 17.00622918433185  18.29146070101621 7.704578282894412 17.13743947937338  20.86763000488281 11.28555011749268 12.49015045166016  21.76400880014129 11.42566331110632 11.77008752200936  21.39904210415849 12.20312796195561 12.72615902334433  17.71081924438477 5.691020011901855 18.23872947692871  17.95199966430664 5.207685947418213 17.91824913024902  17.94726698006668 6.323344621741154 17.91067468832986  18.70059735878823 5.439183400993505 18.40698606759912  20.90188026428223 8.511301040649414 11.48628997802734  21.30166053771973 7.901186943054199 10.84792041778564  21.73160046738723 8.937986902312021 11.47865771632803  21.46036589201643 8.048684935638105 12.09880129338738  20.79624938964844 10.23793983459473 12.55762004852295  21.87397600732989 10.08515110553371 12.29757731450851  20.90179741827693 9.91197104029194 13.60560777544499  21.74614944799423 11.48093751215269 10.36323242534264  21.24626451084367 12.06156567605755 10.84342822652166  22.54379037524909 12.11376822475663 11.09381822143712  21.95822906494141 11.93822956085205 14.48875045776367  21.73119926452637 11.18758964538574 14.90600967407227  22.59542083740234 11.43437004089355 14.8295202255249  22.78439608032999 10.85928799218755 14.24367959256568  22.23443984985352 12.57608032226562 14.11353969573975  22.6483097076416 12.0560302734375 14.42922019958496  22.41340072599276 11.90297132616439 13.3605780350452  18.9874447753449 4.682854812494569 17.32819713083822  20.18358314717456 8.245671981540523 18.26310105086757  21.60747792703913 7.867056943284445 17.96471402760406  19.91525585316023 6.481373565518552 18.24608502026755  20.77817916870117 9.510780334472656 10.28316020965576  20.37103080749512 9.462294578552246 9.473456382751465  20.89154052734375 8.787204742431641 9.801923751831055  21.51727182696957 9.660868719486475 9.244453830534175  22.6136302947998 13.304030418396 13.95958995819092  21.74437240155136 13.83439934251193 13.04841297580029  22.68125137547306 12.91693956671502 13.34318325274823  22.95693583052583 13.85242835759361 12.75385123919144  20.00042915344238 9.79468822479248 13.13844966888428  20.52680969238281 9.228992462158203 12.52138042449951  19.89560903962177 9.173677145471256 13.90026678978603  20.98259925842285 9.559752464294434 11.83092975616455  20.9914493560791 9.358328819274902 11.01387977600098  18.40206909179688 7.10251522064209 14.05749988555908  19.39005222450061 7.114681587648757 14.22544243904326  18.64512252422249 7.434933965392213 14.73020588327324  18.63374067492398 6.333872312928601 14.95336876663754  19.81805038452148 10.55358982086182 13.79452991485596  23.1598117667318 11.13613368825826 12.54457644042917  19.40954971313477 14.31272029876709 13.88391971588135  19.98312950134277 14.13412952423096 13.21749973297119  19.75974082946777 13.63041973114014 13.78726959228516  20.24875419895367 14.24317337493551 14.32494141432753  19.84852981567383 7.915233135223389 20.14357948303223  19.72226189146498 6.844893371743584 19.50057112761273  19.05515083555661 7.790209132518613 19.79520700246171  19.89068079832221 7.851119269088016 19.08958158022453  22.07629777026928 12.97545344843793 10.46027698326487  21.40887204610081 12.9227590075582 11.75097135558891  20.55944697233869 13.0597683660348 10.94773912847871  21.25874779496088 14.31198781061237 11.34303573925965  20.36821113940732 7.946100642059473 14.48474809477369  20.87051902758976 8.366933668845389 13.23694672675249  19.87292399250784 7.854698203107098 13.44598436017387  22.20760526330516 10.71901130126405 8.523527807512181  21.89247678527239 11.82049277905112 9.204269088772264  20.84808905411968 10.81153025322644 8.91202103698256  21.486326080269 10.6140234838379 9.849596523424834  18.86735916137695 7.640401840209961 13.59613990783691  19.19502882570376 8.259210397693309 14.32552875893681  19.6735897064209 9.355598449707031 18.08003044128418  19.49931396021072 8.930084841856665 17.27529150400445  19.07930488529272 8.605356133624351 18.38399791912067  23.32965087890625 9.932467460632324 15.59430027008057  23.57253076374244 9.053088248357025 14.27611861168828  21.92610368030494 9.283192038347957 14.58766303138346  22.22373060139237 8.976130047533907 15.66533952643765  20.62925910949707 13.59749031066895 14.85933017730713  19.88565063476562 13.14120006561279 14.34031009674072  20.97838020324707 13.13986968994141 14.20913028717041  20.7173425074423 13.8558580270123 13.64452169525139  22.42288017272949 10.55407047271729 15.19497966766357  22.24069476338325 10.35238397781011 13.66358252456015  19.24486923217773 8.293280601501465 13.25557041168213  19.81113052368164 8.827707290649414 12.90750980377197  23.14393997192383 13.99238967895508 13.75442981719971  23.34037017822266 13.21041965484619 13.96018028259277  21.39731629509886 10.51549390358323 14.38108593543106  19.29865745702735 5.771514068778206 15.16956689099362  20.14481872240984 5.925046454684421 16.48215654519641  19.19702899573128 4.688618199040124 15.86756402373918  18.37285265471615 8.268725512104002 14.81911016500101  19.47386121115126 9.123083270199945 15.28055724164685  19.09793723985155 7.985961276902404 15.20105099718303  19.78972053527832 6.587522983551025 12.7290096282959  20.22123908996582 5.798699855804443 12.65690994262695  20.93308532368928 7.120442175773388 13.04011862860042  20.0679953180047 6.803764236122227 13.45147586749847  18.8036215478487 6.999492241339493 15.90529588360519  18.9910015866184 8.42660176241545 16.18574826217351  17.79557307407715 7.702353790088259 15.55520200524961  20.96870994567871 14.49787044525146 14.86553955078125  21.41679000854492 14.67486953735352 14.03166007995605  21.38810920715332 13.92928981781006 14.2714900970459  19.93774032592773 9.675821304321289 17.33996963500977  20.30702972412109 9.92337703704834 16.84194946289062  20.75971031188965 9.390493392944336 17.19606018066406  20.06845238450116 9.114062654655683 16.62291699238851  20.50835037231445 15.07583045959473 14.21920013427734  19.51960025510043 9.712803741038304 16.59772271352793  20.40731167127534 9.742235601362875 15.91188994883483  17.59563064575195 3.991295099258423 21.23245048522949  18.54865074157715 3.361757040023804 21.6077995300293  18.54734992980957 3.46611499786377 20.87272071838379  18.89533524682733 4.080912983440635 21.45701835028764  19.34057998657227 10.81406021118164 16.77936935424805  19.63540077209473 11.02132987976074 15.89025020599365  18.63342515198195 10.44766787233619 16.15446045983198  19.53325614491981 10.30485899620972 15.68976125575856  20.02067947387695 7.227939128875732 12.45417022705078  20.64512062072754 6.586245059967041 11.99495983123779  18.90019989013672 10.46442031860352 14.05994033813477  19.28792953491211 9.986343383789062 13.5999698638916  19.48088456386834 9.991821080085534 14.36200968731944  18.60053062438965 9.850973129272461 13.87362003326416  22.5408118571349 12.73035313477166 12.02504183572587  20.65049050244658 8.610132695772192 17.12546936604811  20.27496910095215 12.16759014129639 10.68058013916016  20.95869197915584 12.89982634544144 9.872233386935887  17.07592964172363 9.694982528686523 14.60706043243408  17.01148986816406 8.764477729797363 14.54990005493164  17.90733909606934 9.208471298217773 14.08479976654053  17.96761743893678 9.014542319353872 15.36084213746388  21.45716094970703 12.52867031097412 14.13070964813232  21.64178669179798 11.68201431226773 13.85146510704918  23.63565409011976 12.63715509907797 12.41330891415718  19.08890914916992 6.788129806518555 13.35494995117188  19.49210929870605 7.411468982696533 12.98593044281006  17.99645042419434 10.15170955657959 14.32124996185303  18.76416492981559 9.237990851382044 14.34536490176645  18.50621013506882 10.08389013423285 14.93750513514333  22.8537408213534 10.76714252333882 11.10141568119862  22.48135376455522 10.33941267985999 9.828081152751707  21.52359258127528 10.63234074786356 10.71200212286731  21.87920083832684 9.921641128548465 11.12958815985813  18.7131494535453 9.471976781762997 16.32807934159004  18.3484992980957 11.00312042236328 14.70845031738281  19.22393035888672 10.91230964660645 14.48655033111572  20.40291023254395 14.83335018157959 12.77906036376953  19.89510917663574 14.28483009338379 12.47587966918945  20.70830917358398 15.02422046661377 11.99055957794189  21.02352063299389 14.32288631140913 12.48312468033181  20.90694999694824 9.92833137512207 16.47591972351074  21.7015495300293 9.455025672912598 16.66464042663574  21.43880081176758 9.97221565246582 16.01041030883789  21.08978644046974 9.101416488653655 16.1562801272973  19.75490177079149 5.901548230506867 14.11169009620753  19.71723247237436 7.153541352209939 15.34988803906181  19.13266944885254 10.22721004486084 17.55554008483887  19.74900054931641 10.25909996032715 16.95111083984375  24.52481420155946 12.09661799565468 13.2018624257272  23.58562062616429 12.07519621183699 13.77296849715421  20.82629013061523 10.98705005645752 10.39982032775879  20.5406494140625 10.33757972717285 10.04211044311523  19.0050106048584 9.237227439880371 13.52583026885986  17.71813011169434 8.30097484588623 14.28007030487061  18.47962951660156 8.469776153564453 13.82411003112793  18.26498985290527 7.825826168060303 14.09770965576172  21.80847930908203 13.3003101348877 14.02655982971191  21.03482055664062 10.74230003356934 11
[...]
<PointData  Vectors="u"> 
<DataArray  type="Float64"  Name="u"  NumberOfComponents="3" format="ascii">2.8434884344774904e+01 -2.1751233953655326e+01 -2.8610922171220570e+00  1.9653555417001897e+01 -1.1250547152757523e+01 -3.6615694821179487e+00  2.8650382011969107e+01 -1.3655558096716209e+01 -5.6363963409330360e+00  1.7020617199320888e+01 -1.3585834084879609e+01 -5.3340036011609078e+00  1.6006191205618314e+00 -6.7774581155732871e+00 -1.8668371277616009e+00  1.7854483396450817e+01 1.3424298820471947e+01 -1.3661403422324645e+01  1.1543967992669890e+01 8.4255971341074787e+00 -1.3799565518747958e+01  9.4409506776386021e+00 -1.3638262929684977e+00 -6.4017056348672838e+00  2.1389687055372416e+01 -8.8405356698550044e+00 -3.2762109094370144e+00  2.1147151791986907e+01 -5.9498213598770624e+00 -3.6728272093108250e+00  2.3445173555096140e+01 -9.1199419039611254e+00 -3.3960708872303731e+00  2.7766656604422604e+00 -6.2865050984140503e+00 -6.2961610338413081e+00  8.0534795455499726e+00 -7.0887197757006568e+00 -3.0933923172888904e+00  1.0514061333980072e+01 -9.2435853217627582e+00 -4.0749985297917375e+00  2.3164766925219809e+01 -1.9633596400400915e+01 -4.6042131415460048e+00  1.1083308222333262e+01 -2.1309392346714279e+01 -4.1390112363537863e+00  2.3052063402244503e+01 -1.2407358636586160e+01 -2.4859611034635662e+00  1.5608273377507579e+01 -1.1852372072590825e+01 -5.1435744917539328e+00  6.6969526659522982e+00 4.3576470441232731e+00 -1.5863937715890994e+01  6.5300312818122315e+00 2.0566723352606902e+00 -1.4693596310647504e+01  7.5559978989714205e+00 -8.1160840163526493e-01 -9.7080935238318009e+00  1.0810985843515340e+01 2.2962383579929937e+00 -1.0988486363373134e+01  9.4486533617411439e+00 3.2091670273543116e+00 -1.5091644789444603e+01  9.6635072273786253e+00 -1.8595555083988131e+00 -7.0924919143712408e+00  1.7507291894148658e+01 1.7751443009260628e+00 -1.1227136714179153e+01  7.2345018558315299e+00 -9.5031009829725743e+00 -5.0783889669877924e-01  7.9477348844510560e+00 -9.6616515730321719e+00 -5.1651979907146062e-01  9.7071651316544738e+00 -7.9402695889764239e+00 -8.6901844640719511e-02  1.2464775084981680e+01 -1.6881625341394546e+00 2.0747448815306626e+00  1.6652250063894922e+01 7.7386574617636814e+00 -2.6937132257379051e+00  1.5195040605035382e+01 5.0575651306149727e-01 -5.7537572989972585e-01  1.6825196950902594e+01 3.9696471529518086e-02 -1.9225052697185960e+00  1.6033527776696349e+01 -9.2224137709659555e+00 3.2065864261682329e+00  1.5682073587224972e+01 -2.4377391826998438e+00 1.7589421397656972e+00  1.3718381620315400e+01 -5.0420548947793788e+00 -1.1514409530098308e+00  1.1098220612169543e+01 -1.0655763988025429e+01 -3.3560926491648808e+00  2.5803034713559402e+01 -6.3674472686711345e+00 -1.5673104652034799e+00  2.0913930283793583e+01 -1.2079795747902358e+00 4.8187552485234580e-01  1.9420493380157101e+01 -6.3864916957711833e+00 -2.8061413097349210e+00  9.2593252674200810e-01 -6.8665061231127860e+00 -2.2005961131638561e+00  5.0358889983427453e+00 -8.9986397901048942e+00 2.5177774218351107e-01  3.2950412175983268e+00 -7.9431508121093488e+00 -4.3997736665859843e+00  5.9441062287197708e+00 -1.0055573424227481e+01 -2.9235228633950197e+00  1.9619075776952034e+01 -9.7819008405157479e+00 -5.2742643040144026e-02  1.7082302922445312e+01 -7.8618409693709612e+00 -8.0729804646576557e+00  1.5781164236857585e+01 -7.4861574861653688e+00 -2.1161647869946820e-01  1.4088081198141150e+01 -6.2999253738915364e+00 -5.3177131272618239e-01  2.2799022005415541e+01 1.4845485432038183e+00 -1.5434735862348086e+01  1.4488814420243843e+01 1.5824488636500960e+00 -1.5506378076038086e+01  2.1288858801453472e+01 -2.9009783631836101e+00 -1.2371809949408595e+01  4.4680077836037269e+00 4.7700077483450237e-01 -1.3626643546293449e+01  -6.9270436073471053e-01 -2.4476561122463800e+00 -8.4325614061986958e+00  1.5717321068544219e+01 -9.8434093425033549e+00 -1.5052773540667083e+01  1.5771673518539512e+01 -5.1246471055669751e+00 -1.0108532683470671e+01  2.0903634453191199e+01 -8.8831915475683445e+00 -1.1565752688981762e+01  1.6123077811169967e+01 -9.3321995021265067e+00 -1.0063151482842258e+01  3.0580348207585910e+01 2.7886926933751579e+00 -1.7766684788398443e+01  1.3271649643303387e+01 -4.4233769828183043e+00 -1.3126957340335135e+00  4.6065052901502106e+01 -1.8622752288171291e+01 -2.5502086991333787e+01  1.1720831587521110e+01 -9.9285689046434129e+00 -4.5785752707548980e+01  4.1832150484190549e+01 -1.9441865528728325e+01 -4.4942424727622949e+01  2.9711476184752705e+01 -1.5149271811998881e+01 -3.4822570790530186e+01  2.9798925864059253e+01 -1.3713088476152143e+01 -8.0892928720198753e+00  2.2376159735552367e+01 -6.7212855451469791e+00 -3.5528307611505752e+00  2.1470168204778737e+01 -1.0528256541641870e+01 -5.7613168869467755e+00  2.5891247996696030e+01 -7.6980015165084223e+00 -3.6793724595615882e+00  9.0283227879521881e+00 -8.4098618948002564e+00 1.4125708121558724e+00  9.4421299550105022e+00 -7.8923286892359164e+00 -2.2321192565937715e+00  8.3398370492997493e+00 -7.9765784120562930e+00 7.4796016194529069e-01  8.5418490991382612e+00 -4.5419570125660371e+00 5.8772240666521647e-02  1.7408636835572135e+01 -2.6705306587572957e+00 -8.6247005685105353e+00  1.4797263330060318e+01 1.0972311574009961e-02 -1.0248162288123988e+01  1.5447398088002025e+01 -2.4807783786187954e+00 -1.1843359551016439e+01  6.3863291345126747e+00 -1.2117704309582276e+01 -4.4698932900707877e-01  7.3168610295917453e+00 -1.1058781092198418e+01 1.2579887426218679e+00  6.2185825534474697e+00 -1.1912710099665299e+01 5.1426748094989393e-02  5.7527977605511236e+00 -9.7862118245771672e+00 -8.5931089051510556e-01  1.6307114862121715e+01 -7.0835976482329137e+00 -1.4713683040823559e+01  2.0844315746479243e+01 -6.2426036648613694e+00 -1.1823623441216665e+01  2.6162083956248882e+01 -1.4603476505974081e+01 -4.6384808161218540e+00  2.4299332485339310e+01 -1.0131009951686483e+01 -4.9287188956250514e+00  2.3134314423699763e+01 -1.0637539427632174e+01 -4.0335532691017937e+00  2.1976369002247896e+01 2.9271200245737981e+00 -2.6913256461225715e-01  1.6892567373997817e+01 3.5343578171812555e+00 -2.8040999093204340e+00  1.8495309736353459e+01 8.8836727323519871e-01 -6.4423430629115463e+00  2.0325347597460553e+01 2.7105730767251007e-01 -4.4317692470629648e+00  2.5259945584870117e+01 -1.0808947426190073e+01 -4.7329562192304394e+01  4.3570882719014257e+01 -1.5838572613506368e+01 -4.9516324210718437e+01  3.5409178966306250e+01 -3.5390471189677619e+01 -2.4133471305529458e+01  2.2783351690933149e+01 -1.5301979562185858e+01 -2.8758131607760689e+01  2.0097845833808449e+01 3.2788516876349898e+00 -3.5458465480522507e+00  1.5137540215030965e+01 1.8828772731196039e-01 -4.8003398424284640e+00  1.7769870503697859e+01 -5.3519298263797834e+00 -1.5050745443655995e+01  1.8108227826842914e+01 -2.8407657747841797e+00 -1.4386684759310048e+01  1.6712035483710256e+01 -7.7946588325965829e+00 -2.7318264592728286e-01  1.7563573383090493e+01 -8.0897770909114382e+00 1.5830887146196038e+00  1.9002539832964494e+01 4.0232140944841701e+00 -7.8677783923105453e+00  1.3548678508970628e+01 -6.7933986617171609e+00 -6.2796144826916898e+00  1.5106966058833782e+01 -5.4019690495331751e+00 -3.2266658294367185e+00  1.0340694701442825e+01 -8.0045012488030363e+00 -3.5033573166045158e+00  2.4760031037238914e+01 -8.5389494447457306e+00 -1.1185511997278546e+01  2.3776627255182056e+01 -6.9166458636268153e+00 -9.9947916232993617e+00  2.1692087760519737e+01 -7.3315989896160474e+00 -9.2717991711043037e+00  1.0818779111728173e+01 7.5073503316477763e-01 -9.5147845043524359e+00  9.2852869447729365e+00 2.0593088920011282e+00 -7.1000428764996251e+00  1.1753996806021979e+01 1.6171456034151916e+00 -8.7782602309455271e+00  1.2320179011449879e+01 -9.9649560132372117e-01 -8.8840739281563597e+00  2.1149713468231209e+01 -8.9552787489157915e+00 -6.8499936319822954e+00  2.3503640266154811e+01 -8.3687605977052026e+00 -6.7922981390568147e+00  2.8668755638881159e+01 -9.7726857972725014e+00 -8.5915280531868614e+00  1.7912570808917501e+01 -1.7188288682487830e+01 -4.8809099574381676e+01  3.7269516220405237e+01 -3.1440378949401997e+00 -2.9774617152005039e+01  3.8614111604733964e+01 -1.7215644663468787e+01 -3.0666213580082385e+01  2.7051554301874734e+01 -1.3603220925752533e+01 -7.8786529360898596e+00  2.8044091467316829e+01 -1.0894816596373087e+01 -7.2516145154308473e+00  2.6395919010461672e+01 -6.9591844271388217e+00 -1.1665926742282584e+00  2.4360085825099404e+01 -8.0640126079634324e+00 -6.0000954514436486e+00  3.4361109210433348e+01 -3.2028363604006245e+01 -4.1526411704751254e+01  2.5474390799763221e+01 -1.1105557381673080e+01 -8.1154778894779813e+00  2.5062000245168857e+01 -6.3674530530044953e+00 -9.3353709181933002e+00  1.8385863745812987e+01 -7.4657347292833220e+00 -1.5350436414592235e+01  1.7444646202988991e+01 -9.6281933311426009e+00 -1.3957721282083433e+01  1.6285359125769908e+01 -6.8566330509494335e+00 -1.1391788032199583e+01  1.9174792267057757e+01 -4.6883785956394819e+00 -1.1240653136003605e+01  2.7102953627610592e+01 -1.8156289979165440e+01 -9.7740376595378606e+00  3.4782461455200369e+01 -1.7025706414003213e+01 -1.5091226878726067e+01  2.4263496165031281e+01 -1.4488080881616222e+01 -8.6606940603280673e+00  2.7925182789592302e+01 -1.0531746273519429e+01 -1.2187438557598831e+01  1.1430047790824032e+01 1.1151501257635872e+00 -1.1115775454787046e+01  9.8275819341680588e+00 3.6371088123096404e+00 -9.5021696687451058e+00  2.6477086323255527e+01 -6.8633063703740769e+00 -1.7103149417560232e+01  2.5941653623558022e+01 -5.2371550513760399e+00 -1.3869788397305044e+01  2.6356061092356075e+01 -5.4508102224632689e+00 -1.3958396486101636e+01  2.4602618100914533e+01 -5.9360505748236898e+00 -1.5169815259412298e+01  1.1511984996567517e+01 -7.1627038800914642e+00 -5.9100832032723760e-01  2.3512262720106840e+01 -5.5874991767022077e+00 -2.5609120720642333e+00  8.4136676792820726e+00 -1.0366391225973986e+01 -6.3086494861375053e-01  9.1650909479151430e+00 -1.0046246822388028e+01 1.9119183812117104e+00  3.0789785995661994e+01 -8.7891963071950556e+00 -1.4538640008940270e+01  3.2811361984407277e+01 -5.9810470975173056e+00 -1.5689074291090561e+01  2.6263640641767477e+01 -6.7253636204204739e+00 -1.4290774367967385e+01  2.7120284231919058e+01 -8.7066065982324830e+00 -9.4172787574411281e+00  1.4510743033760599e+01 -1.7642010668306071e+01 7.0823240701939740e+00  1.0305893383690591e+01 -2.0938683951011825e+00 -3.3214729642595348e-01  1.3419745991431094e+01 -6.7171790326228171e+00 1.6496845515378731e+00  1.1750630742942199e+01 -3.3706461233391147e+00 -1.1197181705609612e+01  1.2601306368132692e+01 -1.8751208864825195e+00 -1.2547025356156929e+01  2.7017655390904125e+01 -9.0647504226286966e+00 -1.7492217998559216e+01  2.4794039499584809e+01 -6.9459000769453203e+00 -1.3089108019635052e+01  2.6747809976201161e+01 -1.0441328893259803e+01 -1.3814310337262736e+01  9.9388625724376389e+00 -6.5135179395552232e+00 -1.9267969171396553e+00  7.6907912752554859e+00 -8.8451140077753898e+00 -1.6911678746947492e+00  4.4750981749303032e+00 -7.9406594448943224e+00 -2.5878572305343939e+00  6.3955609325779825e+00 -4.6734822648474017e+00 -5.3701530751090196e+00  2.4360734421624997e+01 -1.0878447676775069e+01 -7.4055769962896827e+00  2.9637711937900971e+01 -2.1684856280383197e+01 -1.8555965752909355e+01  3.0856866991815533e+01 -9.2873253629312966e+00 -1.8733725497472353e+01  1.6048999469227732e+00 4.7761926767568683e+00 -2.5593917105838120e+01  -3.8482146488953801e+00 -6.6308907268203254e-01 -1.2001074196433404e+01  5.0459134308661024e+00 1.3729144993375495e+00 -3.4474634251721743e+00  9.7966779246417950e+00 -3.3454123889019862e+00 -1.0243358062085223e+01  2.5297168765325985e+01 -7.4758528984815467e+00 -6.6894187577863793e+00  2.1247582855452052e+01 -6.2263558297487043e+00 -4.3505278630395692e+00  2.4018129038795646e+01 -4.2015528783707232e+00 -9.8649690274462110e+00  2.2343791982042486e+01 -4.3868817802371174e+00 -5.8650478313233769e+00  1.1099411732742061e+01 -2.9339565919729198e+00 -6.4721190459476423e+00  1.7986257764526794e+01 -5.6590748237696795e+00 -6.9323372225654545e+00  2.2487890507921623e+01 -1.5889373617899032e+01 -7.4145512028382230e+00  2.6640077007075405e+01 -1.4014219843419703e+01 -9.7232571732804587e+00  1.5488536438653387e+01 -5.1008783640007600e+00 3.7624507129170168e+00  1.6606918746942533e+01 -4.5803288360800094e+00 2.4252133967017766e+00  2.3494667918270742e+00 -1.2320149760897056e+01 9.5458960421417438e-01  2.3390446174582453e+00 -1.0067001295881173e+01 1.8012210618863045e+00  2.3616219732580312e+01 -6.2624860808290599e+00 -1.4421530976641121e+01  2.8324555788100621e+01 -8.9946316719880635e+00 -1.2863074515642907e+01  2.4433110734728263e+01 -8.7378040532309686e+00 -1.4675010018220783e+01  2.3294764215848581e+01 -1.1332154712114454e+01 -1.5097086301940017e+01  2.6666179667810766e+01 -1.6694287834467829e+01 -5.6708550136372233e+00  1.3640892014777710e+00 -6.1041523456973694e+00 -7.2372554549726003e+00  1.2578847840208974e+01 -1.0033916268788048e+00 -5.0525695582479120e+00  7.8610009789540403e+00 -1.3246261766911752e+01 -6.6439379142668253e-01  4.5319357166409153e+00 -1.4311406367448159e+01 1.4524775475923537e+00  6.4555155422771584e+00 -1.2236144215988300e+01 2.9272470472063261e-01  1.3848197729442990e+01 1.2524492644176450e+00 -1.4873215447450118e+01  1.0731726074752000e+01 2.4928371363172919e+00 -1.5247997329620883e+01  1.1814295491193219e+01 2.7121358482808700e+00 -1.2789190864863894e+01  4.1067627007080958e+01 -1.5526815928976516e+01 -5.4249563583513115e+01  1.3629241070575279e+01 -8.2026015002633557e-01 -1.3487954309608600e+01  3.0545326299223761e+00 -1.1741370455226674e+01 -2.3425037537168891e+00  2.3826845593706672e+01 -1.3915203012158891e+01 -9.4683180700578404e+00  7.1620148345844248e+00 -1.0204261150646145e+01 -1.1004175357627195e+01  2.8697484973575808e+01 -1.0774303435767100e+01 -1.1532878383558572e+01  3.1219742541235917e+01 -5.0096934509183582e+00 -1.6646376108497247e+01  1.8869492912342047e+01 -1.0394688113338187e+01 -4.8014888986214954e+00  8.8543480375506771e+00 -4.4775665375115814e+00 -7.2085490420750524e+00  9.6185503678090818e+00 -1.1785011258588538e+00 -7.4022556292936352e+00  7.8327193028251161e+00 -8.0763536988828322e-01 -4.3340901023428451e+00  4.5789211998177013e+00 6.5283229917686629e+00 2.2848492934536049e+00  1.3796953261006600e+01 -1.7789951887395421e+01 -1.2049095109635729e+01  -1.0138782817310557e+00 -6.3746318520576173e+00 -3.4428073652814457e+00  5.3765064810772030e+00 -6.2928533273265046e+00 -5.1325573262248998e+00  1.6391941733224819e+01 -1.5406988547950190e+01 -5.6694626294734531e+00  2.0922143841454425e+01 -1.9904082047356222e+00 -8.8313761890998741e+00  7.9592778769465280e+00 -1.0695432011678824e+01 8.5177438165086039e-01  2.1546843617565674e+01 -2.6089444608563888e+01 -7.1435334720339210e+00  1.1641467098417223e+01 -1.3614783939075785e+01 -7.2198854627765119e+00  7.9191729575180174e+00 -1.6089198222662731e+01 -2.8888294912741039e+00  6.3981546999335110e+00 -8.2498590285133648e+00 -1.6249069915926608e+00  5.7239574765545722e+00 -5.2235473264659609e+00 -3.8019406707120713e+00  2.0070846522782091e+01 -1.4652906311928662e+01 -1.6564402621364113e+01  1.1313152240824204e+01 -7.9511144212391169e+00 1.3913813681532028e+00  1.2450592164224480e+01 -8.0829742682480177e+00 4.4327563814191357e+00  1.0893580463863129e+01 -7.4765295316714715e+00 2.3100298644146777e+00  1.0728008106599969e+01 -6.1439824319014811e+00 -1.1064643658332214e+01  1.9731955642342989e+01 -6.9234157342552942e+00 -6.7492562271160423e+00  2.2660041773677804e+01 -7.0802708616738501e+00 -4.6944108584436712e+00  2.3636985542522929e+01 -3.0312778088349024e+00 -5.8777416628581234e+00  1.8554867674858158e+01 -6.0836126240417556e+00 -7.9450155190271259e+00  1.3213307053781092e+01 9.6165950422978874e-01 -7.7109395311241764e+00  9.3591087964017383e+00 -8.8319062104785679e+00 3.4884077750068614e+00  1.0721167313302033e+01 -5.4256195647546894e+00 -4.0706966587454572e+00  3.2146372902332082e+01 -1.1123933770289050e+01 -4.8517954069399725e+00  2.9440851040665052e+01 -3.6628973027408662e+00 1.5853652919159347e+00  1.8737096536046682e+01 -2.0758416521269423e+00 2.4871691690697602e+00  1.3265145439203557e+01 3.6327365407993266e+00 -3.5385072776632027e+00  3.9999171495600393e+01 -2.2628111772423686e+01 -4.0905036639791010e+00  1.1425968042952675e+01 -2.1886756030517539e+01 -7.2178649587703003e-01  1.1454352919515877e+01 -4.3852107856458655e+00 -1.8329544382939054e+00  9.0022489960365988e+00 -9.7325506307544796e+00 1.7914121532693614e+00  9.7054508438561964e+00 -6.0708354867352776e+00 2.0959756409523349e+00  2.6747273320865208e+01 -8.0816255774070207e+00 -3.1570763659070518e+00  7.4172183447129827e+00 -1.0689150581099076e+01 -4.3705256395523078e+00  6.7470620736047113e+00 -1.0895810621895416e+01 -2.2108626900042454e+00  6.6161505162571208e+00 -1.6777394401180569e+01 -7.0859564377840494e+00  2.2583145912626879e+01 -1.1237778593179947e+01 -4.7250252353729190e+00  3.2714868234312206e+01 -2.6952118937282233e+01 -1.6917792035284407e+01  2.5192196401238178e+01 3.8841498803333190e+00 -1.0607097334636025e+01  1.6308712690917194e+01 -3.0942335152688532e+01 -3.7013899405858499e+00  2.5346462515064577e+01 -6.3672326870462443e+00 -5.1044700758441559e+00  1.0924211378951059e+01 -2.3819748697927718e+01 -3.2907355035308228e+01  2.2818858316484089e+01 -2.3923543098541103e-01 -9.1157689736308374e+00  2.6061692746143180e+01 -1.4010698209401808e+00 -1.3217337919590026e+01  2.6243658709800101e+01 -5.1734517989339537e+00 -1.4234077407854318e+01  2.9062588269595979e+00 -6.3754000068356769e+00 -1.6191900194980802e+00  3.7601109679728260e+01 -3.9386219243665725e+00 -1.9774441501888738e+01  1.8650569325736413e+01 -6.3667296757812659e+00 4.5975163633417404e+00  1.9451940824908615e+01 -3.0031013389058772e+00 8.4005705927571839e+00  3.6471879676307957e+01 -8.7056823113446438e+00 -1.3791526243229745e+01  2.5368639230312304e+01 9.8750682910302645e-01 -3.1070215684489739e+01  2.3625450180076072e+01 7.3835372656404885e-01 -8.3033161506190964e+00  7.8885446175948939e+00 -1.1401541591741509e+01 4.7935805814160712e+00  4.6412893327592055e+00 -1.3584957880266325e+01 2.9650814301943620e+00  1.6480695837400454e+01 -6.5563760458035665e+00 3.0457770432935782e+00  -5.1125333627650447e+00 -6.9073115743411222e+00 -1.2083026327615629e+01  2.1222198767468110e+00 -8.8339684718734492e+00 -6.1769747444993692e+00  1.0519851711544256e+01 4.4180672703307531e+00 -1.2599572855680755e+01  1.1480973462709265e+01 4.7986013656571478e+00 -8.1108468600854433e+00  2.3154136525082137e+01 -2.0308896776478132e+01 -1.5721623252639903e+01  2.9513300827350722e+01 1.2109035156991167e+01 -1.5710905443930171e+01  2.7176237613868910e+01 -1.4717600168756961e+01 -1.5435609871445994e+01  9.7173037995184384e+00 -1.4080103341118228e+01 2.6308261379160407e+00  1.5302666888176271e+01 -8.5602287273389155e-01 -3.1195760367926155e+00  1.7916740742228512e+01 -1.8071714666385623e+00 -3.9644647999385265e+00  2.1061594283877920e+01 -2.6036149696126305e+00 -2.1492118844769754e+00  4.4706645260156597e+00 -1.3769645871539716e+01 -6.5118500367585241e+00  3.7403658002396433e+01 -6.5882874226313577e+00 -2.8891909693405711e+00  2.4943170919691660e+01 -1.4100992441491519e-01 -2.1818291702141252e+01  2.0861580448231059e+01 -4.0251457483303907e+00 -1.6833538159389970e+01  7.3153230615568710e+00 -7.6827000020589775e+00 2.2031238015083798e+00  2.1443746475900770e+01 -5.4065078754471436e+00 -7.0548311617127730e+00  1.6751939851246259e+01 -1.0367049422073803e+01 -8.8837949282547566e+00  1.8178066743775794e+01 -6.4254913304274730e+00 -4.6640843587338612e+00  1.6345221870244647e+01 -1.4825282528406943e+01 -1.0912830182538736e+01  2.0876612085360264e+01 -1.0143112547331141e+00 -9.3320717091386829e+00  1.3231986827340611e+01 -2.5218882977423923e-01 -4.2380587966023988e+00  1.6128196380468406e+01 -3.0283774802797687e+00 -2.8745535679672529e+00  2.9859406253340648e+01 -1.0242423736776178e+01 -2.8004346400699096e+00  2.4095235297574291e+01 -1.67