<?xml version="1.0"?>
<VTKFile type="UnstructuredGrid"  version="0.1"  >
<UnstructuredGrid>
<Piece  NumberOfPoints="4257" NumberOfCells="16521">
<Points>
<DataArray  type="Float64"  NumberOfComponents="3"  format="ascii">18.45318031311035 8.879042625427246 35.53337860107422  18.80164909362793 8.563660621643066 36.34471893310547  19.36236953735352 8.821417808532715 35.30849838256836  19.41759010868901 8.147865724860097 35.87042338839154  18.50540616503915 4.209601409394397 36.29271008182338  20.30858380118949 4.893104204485426 35.98865362336411  19.50892217804935 4.050192694606118 35.22820871169485  19.4017859683008 5.377024792299474 35.53212497377826  18.97987937927246 6.228812217712402 37.42708969116211  18.30014038085938 6.062904834747314 36.93975067138672  18.85834340543732 6.667370545648653 36.23677525861149  18.62839614767633 5.697418226718655 36.36542542118185  19.524169921875 8.957921981811523 36.04988861083984  20.3463306427002 3.925168991088867 34.52354049682617  20.4554500579834 3.780755996704102 35.31710815429688  20.41987465662099 4.823246672232324 34.9028319526876  18.42524909973145 6.908240795135498 36.81827163696289  18.41340065002441 5.270916938781738 37.30012130737305  19.66176474496783 3.472157792616993 36.58779327576112  21.06011962890625 15.90513038635254 30.46768951416016  20.46943529966049 16.83696832541701 29.41518175422863  21.11286345219586 15.71293834702451 28.99726334707159  21.04746676820069 16.83143758436547 30.23394953800113  21.75876687682684 17.64020825519558 29.51459994393476  21.35183186118163 18.32879538598066 28.28371079086511  21.41665068289893 16.75322887812768 28.72555944824141  20.26720965536576 17.11533832373743 28.45258908936234  20.12066702457445 16.10453785594041 28.8505863279232  20.66732025146484 16.2753791809082 27.95239067077637  21.09638023376465 18.34741020202637 26.90106964111328  21.77794075012207 18.01176071166992 26.87911033630371  21.90427332974637 19.27435893440733 27.17438660103541  21.18544006347656 16.78911018371582 27.70919990539551  20.37313079833984 15.33514976501465 29.8476390838623  19.93526077270508 15.26644039154053 29.11083984375  20.94852066040039 17.7401294708252 27.09223937988281  21.66666030883789 17.20272064208984 27.28996086120605  20.21319961547852 18.94693946838379 30.25974082946777  19.8971004486084 17.88488006591797 30.75041961669922  20.12165203748596 18.28859568693252 29.44809570329394  20.84031053290507 17.82587509682226 30.28360903812225  20.78403281281285 18.99493441541235 29.50099035837108  20.14291954040527 15.60696029663086 28.50904083251953  20.71022033691406 17.11416053771973 27.43210983276367  21.57011985778809 18.7398796081543 26.55054092407227  8.188456535339355 1.165763020515442 25.32064056396484  7.374207019805908 0.6876109838485718 25.27131080627441  8.319725036621094 0.09558500349521637 25.27935981750488  7.744144916534424 0.09558500349521637 24.65199089050293  18.15447998046875 0.6816989779472351 30.55500984191895  18.55550956726074 0.6429020166397095 29.72613906860352  18.23812631453073 1.819471798432995 29.84012695829485  17.65732601528248 0.690538555805599 29.68726602252496  15.452047096528 10.96078076570944 24.03395476588156  15.24293575328377 9.496932332770193 24.01394413874447  14.38837727145405 10.24810768425243 24.08367385229049  15.30231206876763 10.19800290109123 23.4426378381416  10.62491035461426 8.517734527587891 26.5118408203125  11.17844009399414 7.976909160614014 25.8271598815918  11.76351842964487 8.593973595856344 26.69043386386788  11.83830226047937 7.765695745501291 26.2495332633479  1.924406051635742 17.76457023620605 24.35383033752441  1.901358008384705 16.69158935546875 24.36017990112305  1.726403951644897 17.1634407043457 23.84209060668945  2.652589233739742 17.35756745117177 23.95753872534853  13.64352035522461 0.09558500349521637 28.74506950378418  14.48805999755859 0.09558500349521637 29.18498992919922  14.34523010253906 0.09558500349521637 28.10177040100098  14.26860186363399 0.8962998893940018 28.76304024589591  17.02544975280762 9.71726131439209 22.62701988220215  17.70636940002441 9.166142463684082 22.92539978027344  17.44457054138184 9.441779136657715 22.20199012756348  17.24413670523961 8.686283092001378 23.11706573022736  9.516697495174787 3.361655800729649 18.7117940637308  7.773248684704234 2.792522100254617 19.59741631533982  8.09777957171627 4.159760009283453 18.81990084457015  9.152567852576004 4.408923062264841 19.97710349125446  11.34232075310654 10.21074257491787 24.4265620156904  12.23448344386505 10.15476546945671 26.01045628217506  12.36047176741179 9.489286034207009 24.81774945309512  10.88167072924191 9.70563326606608 25.2735668689523  4.02503776550293 10.40275001525879 22.00705909729004  4.840386867523193 9.825771331787109 22.01609039306641  5.032009787077012 9.879154907805528 22.8418319107321  4.042827591458906 9.966188156901065 22.77030418233764  15.10013961791992 9.86546802520752 29.11652946472168  15.54895973205566 10.27204990386963 28.50665092468262  14.4602852615372 10.70894889723005 28.92264518513157  14.51703939445483 9.879484892892048 28.21751871562706  18.96104049682617 7.825235843658447 26.68133926391602  19.79015390121104 7.020314677930913 26.57189602545551  18.62636265863724 7.502942463600287 25.81784977505643  18.38425400898137 6.9154182567824 26.65382549655616  4.124124050140381 0.7161189913749695 26.70215034484863  3.338845014572144 0.09558500349521637 26.64773941040039  3.000479810048755 1.014179511804993 26.18683505348272  3.061164721040992 1.103216606063491 27.21710560724785  4.814870834350586 0.9924589991569519 39.89208984375  5.204606056213379 0.4639959931373596 38.86196899414062  5.153764571086372 1.363555033230949 38.36821259456691  5.780478817358538 1.577516686092104 39.24196304409652  9.022880554199219 4.869105815887451 23.39876937866211  9.596207618713379 4.258718013763428 23.61586952209473  8.937583923339844 3.994426965713501 23.16554069519043  9.61470009363652 4.38965288473522 22.96849665201074  18.41871733131307 2.181151151254709 28.32657805006649  18.28440285915734 3.530964867688151 29.40069084485169  19.35220921895721 2.801268866417136 28.44053197439563  18.85950943430372 2.567317065668881 29.42444227549026  3.106514930725098 0.09558500349521637 24.58004951477051  2.221836090087891 0.09558500349521637 24.1338996887207  1.985139399235706 1.025796627469854 24.63661427257967  2.447232725895193 1.095129799714786 23.72987635038141  10.65577983856201 5.681509017944336 26.8709602355957  10.35818004608154 4.973543167114258 27.11243057250977  10.87691974639893 4.989037990570068 26.59758949279785  11.01518645242453 4.716271982191934 27.26412996070284  3.119940042495728 7.278544902801514 26.59510040283203  3.099049753304223 8.410002825033178 26.47487664698666  2.304414875507706 7.936102918469949 25.79525872985419  1.949142373172263 8.085771720188131 26.88847876049708  9.310087203979492 7.721371173858643 24.60479927062988  9.97292423248291 7.475716114044189 24.87092018127441  9.58549976348877 6.921122074127197 24.48695945739746  10.34156087118312 7.992109768550137 24.29892539168162  18.87026977539062 3.923463106155396 25.78803062438965  19.41661071777344 4.312838077545166 25.24838066101074  18.71119394318229 4.829421733635419 25.03112367968264  18.49095349146005 4.692810949219037 26.11445425442576  18.83731079101562 4.087762832641602 23.74139022827148  18.08009845251352 4.559156836252775 23.40043604157604  18.9624938803594 4.961569727536028 23.72813613804041  18.23359652328603 4.42212969864937 24.22053364813143  16.92330932617188 5.794055938720703 27.32415008544922  17.57271573026096 6.292816600233106 26.20677060890071  17.061982245935 5.015928891971939 26.82073832116684  16.24644907596095 5.761196055119441 26.46940368482335  16.17094993591309 3.028398990631104 25.35478019714355  16.84943962097168 2.97537088394165 26.0648193359375  16.73089364961352 3.770612672385373 25.31024585372446  16.19394845057861 3.629106680367777 26.40768624206551  12.77493953704834 0.09558500349521637 27.11207962036133  12.23508518025742 0.8480799782870929 27.58311463911213  12.18946166901117 0.09558500349521637 26.97602479612186  12.55722914751562 0.71971167913789 26.73744234286441  3.99950909614563 5.82887601852417 28.87924957275391  3.667519092559814 5.910507202148438 28.16725921630859  3.821820020675659 5.208402156829834 28.38241004943848  3.227171086494382 5.77830603992701 28.69712659730207  3.009126901626587 5.75239896774292 24.29126930236816  2.329974489528505 5.264614845464756 25.09840875529934  2.254455047615822 6.300635338122938 25.13511709512789  2.428060459596307 5.979029706886498 24.01043853249661  15.3249397277832 9.161655426025391 22.0219898223877  15.11830043792725 8.356017112731934 21.6094799041748  16.02951718804351 8.776653050955392 21.87603807107938  15.58615611123262 8.063761483105406 21.95088537142065  10.66604042053223 14.61903953552246 27.81538009643555  11.24555015563965 14.19824981689453 27.59094047546387  10.55530596588087 13.78481589847955 27.5123444764762  10.75653485685761 14.47465041964371 27.13859412317042  2.182970455183949 5.274492594926175 34.16907667609062  1.661652912096198 4.525898799342969 32.80125540439614  0.857896524992287 5.298245553052253 34.16288633492784  0.8843882266914934 5.89144224253323 33.42244617281765  2.494317054748535 7.035478115081787 34.63919830322266  1.706445547108213 6.431456503514569 34.41598665100517  2.412793822994327 6.646190746091664 35.86241764570227  1.097198057929064 6.588907081464661 35.58674527752057  0.6285139918327332 1.426072955131531 23.25167083740234  1.710109984764338 1.962990205944546 23.63625375220012  1.536354894673013 2.07141553518102 22.28362333742632  1.027380133659841 2.927592181465144 22.80530366437548  9.736616134643555 0.09558500349521637 23.68322944641113  9.950895309448242 0.09558500349521637 23.03716087341309  9.351449536215341 0.9991291448737467 22.9413942445162  10.39504441665546 0.72296969617535 23.44920571250424  16.2021598815918 10.55117988586426 23.48386001586914  15.582200050354 1
[...]
<PointData  Vectors="u"> 
<DataArray  type="Float64"  Name="u"  NumberOfComponents="3" format="ascii">2.6772125495602932e+01 -3.3666430552066791e+00 1.7217420858245283e+01  3.1490252172548814e+01 2.8871302565627524e+00 1.6843447482431337e+01  3.0598297119399955e+01 2.6188768767054591e+00 2.2867230319457203e+01  2.7949896117475749e+01 7.3609159166442248e+00 1.7359730785601908e+01  2.0732099299957259e+01 6.9275702317282732e+00 7.8095922283415558e+00  2.2705375248869416e+01 6.9959819012221685e+00 8.0795441713416292e+00  1.9351372458846125e+01 8.8181609909146470e+00 1.0891395436184778e+01  2.1319475521780369e+01 6.5172992713336919e+00 1.0345767924928724e+01  2.0212021985963016e+01 1.0148061509214935e+01 1.4835658042220848e+01  2.2927737440945201e+01 9.1285344527688199e+00 1.3385156779021949e+01  2.2129404667155534e+01 6.7190805349558973e+00 1.2658599766737938e+01  2.2019654229486324e+01 7.7064786205770641e+00 1.0703715937499888e+01  4.1533572871700549e+01 1.4370919062348655e+01 2.7469438151687008e+01  2.1928328841644898e+01 1.5060413783971041e+01 2.0249255027593801e+01  2.9204351938884702e+01 1.1517523288729425e+01 1.4407481648655519e+01  2.7470168710890938e+01 8.4528024158776969e+00 1.3141794414299527e+01  2.2370775375743676e+01 5.9119020938572886e+00 1.4087565446400589e+01  2.3512949447217217e+01 9.9938230669699752e+00 1.1515305349935112e+01  2.1739926091058674e+01 7.6129858494072904e+00 8.8308826183473670e+00  2.6942790264987241e+01 -2.4048781200024161e+00 2.6052914901240074e+00  2.6418341338649551e+01 1.5584520413977139e+00 3.9360623265257582e+00  2.0851543309130317e+01 -9.4779537899175228e+00 -1.4657340729852260e+00  2.5487195300679826e+01 2.8939103423731334e+00 6.2278203893603994e+00  1.7096078219994219e+01 7.4627450255108330e-01 7.1004864084642572e+00  1.8446022890505507e+01 1.6935727199368183e-01 3.8859454205961392e+00  2.0076552967933470e+01 -3.2368630935288167e+00 1.5421207199666671e+00  2.7647275025371307e+01 8.2306506619093478e-01 3.6923505607943028e+00  3.5025601515854362e+01 -4.8971024345797662e+00 7.3467704109210208e-01  2.8980443942900401e+01 -1.3399330907435383e+01 -1.4944431162473184e+00  2.1503147807174738e+01 -1.8193162135300245e+00 -1.5757879844002709e+00  1.7651987676208091e+01 -4.4039332081362303e+00 -3.1992717693384853e+00  1.4697005071150217e+01 -1.9272326077287465e+00 1.5371448919077726e+00  2.5307522600467045e+01 -5.3647211377948167e+00 1.0937308220560639e-01  3.7674522421726223e+01 -9.3061286741846221e+00 -3.6986236079707195e+00  5.0926081071401526e+01 -1.2653082657101109e+01 -6.4548023836280786e+00  2.4474609930557275e+01 -8.1092967138936844e-01 -7.2504727110438771e-01  2.1236090949803593e+01 -6.4538164652693837e+00 -3.0871474904266982e+00  2.3765554644955419e+01 8.4435239368380355e+00 1.4810867780247126e+01  3.2199537815677942e+01 1.1020225973163019e+01 5.7547091023208781e+00  2.3647566808365102e+01 5.3107374395588121e+00 7.6978311733122800e+00  2.3865259602146008e+01 6.4016778291440879e+00 1.0483914039862022e+01  1.9178418049424316e+01 3.6486145993041563e+00 9.9633438984741396e+00  4.4308685068384122e+01 -2.1617555494210613e+01 -1.0833363921253413e+01  2.6660481119545352e+01 -1.6206485639329660e+00 1.1430964268077348e+00  1.7772255602359436e+01 -4.3906316910837955e+00 -2.3652499007983971e+00  5.2756621826611031e+01 6.8568228012659667e+00 1.7805162610514902e+01  5.5321022305782705e+01 -2.6021494014132678e+00 2.0027032039743640e+00  3.2928286270425787e+01 6.7177786344976820e-01 9.6982598445970485e+00  4.3815407417473331e+01 -2.8172953231685969e+00 8.7832312040146956e+00  4.9271837822632811e+00 3.0246978390735890e+00 -6.5285551004069386e+00  8.9288308960924354e+00 2.0559976638197504e+00 -1.0325656976686803e+01  9.7175720979396161e+00 2.1619628548624572e+00 -7.9880627774381088e+00  9.3284584621035798e+00 1.2821612388400752e+00 -6.4011123952154785e+00  8.4394972223849081e+00 -4.7979029815695844e+00 8.1423644695532427e-02  1.2664248453975949e+01 -5.1893809435099438e+00 -4.5286497276798752e+00  1.2900754031039956e+01 -3.4646590283386947e+00 -2.6293102458891191e+00  1.0954848455342059e+01 -9.1631287377270620e+00 -3.0139846097504597e+00  2.1077146815120367e+00 -9.8746362445329190e+00 8.7228427674106381e+00  6.4734052882719189e+00 -6.8727094470910295e+00 2.0482591700718736e+01  7.6166683997169384e+00 -2.8032141447893824e+00 6.5487297338655290e+00  5.9854024016495702e+00 -3.6592525439514496e+00 7.9582653987079723e+00  -4.5220721539767430e+00 2.6027426972060553e+01 1.1574499045081446e+01  6.9795583022747323e+00 2.0833970676281254e+01 5.6473537964771692e-01  8.4053392904214679e+00 2.0796949822018139e+01 4.7566839897121866e+00  2.8265294466221742e+00 1.8710595199181185e+01 3.1385735985753875e+00  9.3580868103399979e+00 3.6260655810125893e-02 6.5626997200478767e+00  1.0778822959374541e+01 2.2972204256329509e-01 5.0853036037581765e+00  1.1725415248531494e+01 -9.0762742548762565e-01 7.8626792413700288e+00  1.0946923243727261e+01 6.1993792621859045e-01 5.6950534573557823e+00  8.1959888363898248e+00 -6.1189141294761491e+00 -1.1074493143413907e+01  6.9608137915940924e+00 -1.0291524689672856e+01 -8.7347592388664026e+00  9.0590590197651686e+00 -5.4199267508142572e+00 -9.8059026464611243e+00  1.1197814438365933e+01 -8.3905040933824324e+00 -6.1654301550435955e+00  1.0905514492066205e+01 1.9022854917425449e+00 9.9730629612954769e-01  2.0105004294546646e+01 4.7970679391730826e+00 -2.1111785508724918e+00  1.4268417130783845e+01 6.0388742829458915e+00 -1.3767398666843571e+00  1.2911087651231458e+01 4.0179536230877444e+00 3.0044018417982894e+00  1.8689268618245144e+01 1.4031536384477221e+00 1.2501060781772299e+01  1.2085940470431185e+01 -4.5204174139511555e-01 5.4669547670033936e+00  1.8248378800692610e+01 5.2919665338809607e-01 6.3000684717150994e+00  1.3534482753770282e+01 1.1809761353898746e-01 1.3379387658334615e+01  3.9140689978293310e+01 1.5319445877681121e+01 -2.6146942160922633e+00  5.2323009979849338e+01 1.5898888611633623e+01 -7.4416684496165502e+00  4.8183332612271265e+01 1.1953646854335529e+01 -1.5148227299366651e+01  3.6762088358937845e+01 1.6249899386339873e+01 -1.0974321600895733e+01  1.7125357374856671e+00 1.3440136457720475e+00 -4.0339510858409700e+00  4.6246312281351312e+00 3.3040412375927870e+00 -5.1599443014271520e+00  5.5447106408658735e+00 1.9008349320673679e+00 -2.7253740222135621e+00  6.1652467968956781e+00 6.2023196504299760e-01 -2.2656404581833192e+00  4.7435411212818394e+01 -3.6551713299240984e+00 1.0893661568990412e+01  2.8549890267584143e+01 8.4775800990310408e+00 4.3804848302331294e+00  3.1195150360673445e+01 -7.8237495613867578e+00 3.3384589597605303e+00  2.8182240649048218e+01 -2.5874028942564991e+00 4.4553787635342861e+00  2.3691286309890369e+01 -6.3040201569485550e+00 -3.9274417988365627e+01  1.8298518159421302e+01 -6.6122790296920686e-01 -3.4022822981684904e+01  2.0564387053131330e+01 -6.4954498863259209e+00 -3.0464568628464647e+01  1.1018378523607170e+01 -5.2818865075731081e+00 -2.6676662401904260e+01  2.6030290303873731e+01 -2.3717412815945393e+00 2.7622750432690677e+00  2.9202483358389085e+01 -1.0562541832062154e-01 8.0315635025139311e+00  2.7770229973478596e+01 2.5350704138625488e+00 8.6287601027838541e+00  3.2856687452694466e+01 2.4346481352324965e+00 3.5402974582420423e+00  2.0318331675447638e+01 4.8188666729187881e+00 1.1985634378539212e+01  2.0625100288407179e+01 -3.1376007760130276e-01 1.7237461830682989e+01  2.8267642824882390e+01 9.7271131231119554e+00 9.4598454766742162e+00  2.0318717870234487e+01 4.0807232080749323e+00 1.2083135802961147e+01  1.7053865758209469e+01 2.3288412929418296e+00 -7.0540283692347430e+00  1.4406302292151750e+01 3.2197463251552825e+00 -8.9932719086588548e+00  2.0802673647666381e+01 4.3588674600560839e+00 -1.1327095381699037e+01  1.2696279262960921e+01 3.6209218721312135e+00 -1.1381378093733616e+01  2.8464970861406361e+01 -6.2273316439424097e-02 -2.8086493772858283e+01  2.2378544660525375e+01 -1.1599235241778494e+00 -3.0415790239609354e+01  2.1151653893738427e+01 -6.2138109785091356e+00 -2.6157425562452680e+01  2.5000543624917096e+01 -7.1844191703395861e+00 -2.5405084880938304e+01  -1.8893231265104653e+00 2.0909925945405727e+00 1.5721573210938404e+00  -2.4624107514705984e+00 4.1666062697456887e+00 2.8834218665154903e+00  -2.2888050909653934e+00 7.0387806432169970e+00 6.7909717383087216e+00  1.2062002961013178e+00 4.2390361175523692e+00 6.1599591954763380e+00  4.4216853662326754e+00 1.7975011684624043e+01 -1.6656489084436327e+01  1.0546729229426989e+01 1.7091172211239996e+01 -2.1089829801515638e+01  1.2268448769363632e+01 1.7128912644489372e+01 -1.7095789743572894e+01  1.0964165249603191e+01 1.4699325447129509e+01 -1.5921587548379637e+01  1.8274239071456336e+01 2.4189903502487855e+00 1.0103206800745765e+01  1.8041910291563848e+01 2.8882370457375681e+00 5.3692892427977341e+00  1.8251863615181325e+01 2.4626464377586830e+00 8.9672403261971709e+00  1.9233730283821224e+01 2.4007349623829333e+00 1.2019453949568437e+01  2.7366682245893280e+01 1.1681245010697609e+01 3.6872018907788568e+00  3.1727504018057363e+01 6.0238031992657355e+00 3.6020616511550427e+00  2.4610461078903430e+01 6.1283234544223006e+00 1.7926664127401887e-01  2.4137424610554032e+01 5.1976632501326945e+00 4.4952865534353881e-01  2.0688567441318799e+01 1.1496441536944841e+01 -7.6903578295548289e+00  2.1312828728371457e+01 4.7351986772519457e+00 -7.1797753529256028e+00  2.3896579653224787e+01 5.0730996172937992e+00 -4.3744234123893992e+00  2.0980029717217384e+01 7.6544119354229414e+00 -3.7066453508580568e+00  2.6038417143092140e+01 2.6678329052476442e+00 5.6094835404266572e+00  2.3727696949395433e+01 -8.1439272799802731e-01 1.6474952422772580e+00  2.1696636162753137e+01 3.0749550185858281e+00 7.8095658037556159e-01  2.1562311209152675e+01 1.8227259018003400e-01 -3.2715728283866574e-01  2.5238208594540367e+01 1.1875254317951778e+00 2.9226354351595329e+00  1.8084609180767046e+01 -4.9261660460840134e-01 2.4926140369485594e+00  2.0599278815269379e+01 3.7785636557874605e+00 9.3144994300859540e-01  2.0293140716479634e+01 2.2722607803632067e+00 1.9331764898959698e+00  7.8475941868468775e+00 1.2046975626573773e-01 1.2487630564557293e+01  7.5067371719820137e+00 9.2566029217022283e-01 1.1974073153499216e+01  9.1703599406728440e+00 -2.2544518588484011e-01 1.3514479222609692e+01  8.9803714975737705e+00 1.6772441069830921e+00 1.3012152953052603e+01  -5.7130292555469975e-01 4.7746253894090369e+00 -4.8888912838054903e+00  -3.2408687623159640e+00 7.2758993359384405e+00 -4.2532423892467328e+00  -1.5400247098130804e+00 2.3445767271355940e+00 -3.5721117471027810e+00  1.6806702753470633e+00 5.2536098010637371e+00 -7.3357257565366005e+00  -8.7761625078191341e-01 6.9563258989650856e-01 -8.4348899569836533e+00  5.6342124175927308e+00 -3.1113053640112085e+00 -1.4362344348086872e+01  6.4899020057959911e+00 7.6640015354176629e+00 -1.2903996430664021e+01  3.2519503583001708e+00 3.2144836105345576e+00 -7.7947987568114954e+00  6.9769084339307925e+00 -3.5761100361247640e+00 -1.5146745167213760e+01  1.1427011347290532e+00 -2.9804237167572106e-01 -1.1520981298659803e+01  8.0643965007302931e+00 -3.2793777594867466e+00 -9.1953383521519019e+00  8.1652040336243328e+00 -6.7025884418318349e-01 -1.1545100872517853e+01  7.7275385931151623e+00 -3.7214902092418267e+00 -4.8989938978170438e+00  1.1237226172489283e+01 -2.6065326720831816e+00 -4.6456748401905008e+00  7.8745645979907994e+00 -2.3241334483494178e+00 -4.0787740853770366e-01  9.6713438606676458e+00 -9.9008424062350431e-01 -1.7494135985051240e+00  1.0356335531855613e+01 4.6025006344973091e-01 1.7737501387096550e+01  9.4853250266014051e+00 1.3892299866088181e-01 7.0924136596932161e+00  1.6204127763108030e+01 4.7991924693044169e-01 1.3596918010733145e+01  1.4779026134464615e+01 6.3670538375699282e-01 1.0125011962651234e+01  1.3038784670367818e+01 -3.7038833573201093e+00 2.6644254051787915e+01  1.1747827195420582e+01 -6.6294140739344198e-01 1.7801935470541014e+01  1.8543391262270351e+01 2.0509340892148971e+00 1.8980429557455622e+01  1.4988134036873747e+01 3.9257529001194760e+00 1.7514267113967517e+01  1.0172810060510718e+01 -1.6305427942432114e+01 -2.3027616638900177e+01  2.1747802351403063e+01 -1.3248990330569253e+01 -2.3975759056855960e+01  2.3311284002253505e+01 -1.3829227422020361e+01 -2.0949816056039776e+01  2.1170648656536962e+01 -1.9083189060976899e+01 -2.0759042733888773e+01  2.4071920292393649e+01 -2.2564665993346340e-02 1.0599216916098458e+01  2.1811114075671814e+01 1.0569080990473809e-01 8.9855953353337572e+00  2.5402839313812560e+01 2.0867708684241393e+00 7.8228885689370786e+00  1.9820251703343583e+01 1.5859774746497568e+00 1.1091335464515684e+01  8.5925821266115658e+00 -1.4370477423437883e+01 -8.0744726403566736e-01  3.1668393639389514e+00 -8.4245839865985133e+00 6.3235631737357476e+00  1.4665583402982246e+01 -2.1918467996794316e+01 -9.4434162008072349e+00  1.8971210628194688e+00 1.7927776728453260e+01 -1.3382467615655997e+01  -9.1792528736668344e-01 1.2296906347784889e+01 -1.2931845918093398e+01  6.1529386239520063e+00 1.2347717839844083e+01 -1.3883233883935846e+01  4.0391032842278518e+00 1.3546355069347259e+01 -1.1780185493731784e+01  7.6522434746600621e-01 -2.2749899922121166e+00 1.4592173692450230e+00  1.9973336135647126e+00 -1.7700710197110199e+00 2.0253564191592037e+00  2.3906653115426972e+00 -3.3725381404229391e+00 2.0454624719124541e+00  6.4074745980236947e-01 -3.2636913181527203e+00 1.6691491885673353e+00  2.5721348827535856e+01 -3.0733277521419970e+00 1.8910938112180379e+01  2.0898325116637231e+01 6.8552180522390060e-01 1.1663699381660949e+01  2.0897748502125900e+01 -4.3806860211084719e-01 1.4167347305901787e+01  1.9510940330119123e+01 -5.1803068434778976e-01 1.4600497616850001e+01  2.2915034419886624e+01 4.6782210854529591e+00 -7.7979647994504724e+00  2.9195006990936044e+01 1.2170663477435019e+01 5.0763821486291094e-01  2.5081412363324674e+01 8.5801148398828335e+00 -5.1623128537135354e+00  2.2039168903476266e+01 3.6947736617192484e+00 -3.2096679181449557e+00  -4.0397096903585844e-01 1.4936340096356617e+00 -3.3161073065889832e+00  2.7899734642288863e+00 4.6583971674357089e-01 -7.1414608504572930e-01  4.9200386260616256e+00 -3.0613127724302230e-02 -2.1454848582104589e+00  2.5855958191842863e+00 -6.8953852554800210e-01 -3.7402889789861415e-01  4.3809390603730103e+00 -1.1309790743523156e-02 3.1965578132015445e+01  9.7061666115239422e+00 6.5491037917833390e+00 2.7109540018398420e+01  6.4085642997986003e+00 -8.8128089059741321e-01 1.6410707178157541e+01  1.5943784054829930e+01 1.2058656919848978e+00 1.9078329499036766e+01  1.3761845368874905e+01 -3.8611363966202930e+01 -2.2999647880671127e+01  2.9082545763224516e+01 -2.8286353900948825e+01 -3.3157262530529998e+01  2.6767492068103532e+01 -2.1923178019741925e+01 -2.3886507216786573e+01  1.8588261204920240e+01 -2.1809389543620416e+01 -2.3708872910446232e+01  2.2703040885272987e+00 -1.0638202770579410e+00 2.4523941430210154e+00  3.1306712531213092e+00 -3.5015431934556016e+00 4.5715945263804389e+00  -4.8468511338402603e-01 -2.1541957259347444e+00 4.6506717615929087e+00  3.7529386917018934e+00 -3.1116192720715024e+00 4.6437116617365453e+00  8.8445068339061272e+00 8.1325277500150364e+00 1.9507424968118592e+01  1.1531331844575856e+01 6.2134743245140536e+00 1.9761982231153265e+01  1.4460916669405892e+01 5.6831022004028577e+00 1.3724301748052445e+01  9.8438055481132540e+00 7.5890581106339274e+00 1.5786413234103149e+01  5.0212364733334613e+00 -1.3932495083233791e+00 1.2682848997654028e+00  3.3215269649593431e+00 -2.5092047008194651e+00 2.3660226742488821e+00  4.0754834684864667e+00 -2.3363471799002533e+00 2.1639596928738891e+00  4.6180748602516193e+00 -1.7598933887327273e+00 1.3984517676023376e+00  6.3881544116162488e+00 -2.6109820847043048e+00 5.4165890660937324e+00  8.2731501951221684e+00 -2.7271730763827438e+00 1.0402538027273270e+01  4.3904979060823797e+00 -5.6229912597879519e+00 5.2878298389751563e+00  2.8262294702772817e+01 -5.4760275253449588e+00 9.5917762219172475e-02  2.8235307156369533e+01 -5.5940965552406920e+00 -4.9104356654094552e+00  2.1060899915111214e+01 -9.9759975923874684e+00 -8.2144087870419096e+00  2.6383121510320020e+01 -5.9697484439990101e+00 -1.0340025676570241e+01  2.0298374361770232e+01 8.3889229537976515e+00 9.3373611733946955e+00  1.4209724671135149e+01 1.4292603105256354e+01 1.1580777038877493e+01  1.8119713513707271e+01 5.3608327737553081e+00 5.2548025624206174e+00  1.3328816724913858e+01 4.9029156107320500e+00 8.1830707318045075e+00  7.3584447501814205e+00 -1.5817085088066701e+01 -2.2763377946053133e+01  1.1396912545287458e+01 -7.2947379410658151e+00 -2.1029519656997085e+01  7.0448696559955710e+00 -6.8101538451642440e+00 -1.5467861464612813e+01  7.1540523095399289e+00 -7.2095240245543026e+00 -1.5763808421294090e+01  1.2200982350289096e+00 -3.5974967739797110e+00 -4.9069554157437306e-01  2.2056588171970266e+00 -1.7793165074242037e+00 2.1014813690717240e+00  4.2646467005423370e+00 -1.9506012427532573e+00 7.7704708992417715e-01  3.2741840746066604e+00 -1.6299459652703456e+00 1.0433241034963401e+00  9.8697583269633657e+00 -2.4262334227676020e-02 -2.9868590262202153e+00  5.5177890913220144e+00 6.6554563480614448e-01 -3.5484735505408853e+00  9.3317342299931809e+00 5.3044862600451426e-01 -2.7019070320763436e+00  1.9787243075850871e+01 -1.0160899135775550e+01 -1.6730406231305164e+01  2.0463263223729449e+01 -1.4258202453533537e+01 -2.0054195608516981e+01  2.0755045785273136e+01 -1.6090829369571793e+01 -1.9659155997168600e+01  1.7449283628863171e+01 -1.3029978466892029e+01 -2.0103387486296526e+01  2.0047905180728648e+01 6.7916331127679372e+00 -1.3623355450564551e+01  1.9959825913459493e+01 7.7334166526681587e+00 -1.2911432770398054e+01  1.9955810416213868e+01 1.1940024217171299e+00 -1.3458329832289129e+01  1.5927381851290841e+01 8.6917541108676577e+00 -1.3193946789640394e+01  2.0517589334714586e+01 1.9316286841900820e+00 1.5190061721038886e+01  2.0002623079788062e+01 4.0338624222997338e-01 1.4956866817064006e+01  1.7658640525274631e+01 2.9300803749718507e+00 1.4170530554478560e+01  1.7669817166652244e+01 -3.5941910588200593e-01 1.3339897553947576e+01  9.8221733152841288e+00 2.7024629223960446e+00 2.5713249018929649e+00  6.7257315302852785e+00 2.5305157708836963e+00 4.2249669897293662e+00  7.2888352609810996e+00 -9.9194361160587685e-01 1.6075736061626167e+00  6.4197329507039695e+00 3.4732614598223974e+00 3.5821916452759508e+00  2.0160392230978523e+01 7.6967524702913810e+00 1.4904609581695656e+01  1.7005082204016109e+01 2.6051176244053713e+00 1.4744507640828509e+01  1.5863327569089750e+01 1.5115623582640228e-01 1.0627562242200961e+01  1.7221774817807727e+01 3.2902031119474406e+00 1.5857117259079757e+01  2.0006275823352979e+01 -1.4057791611575865e-01 5.1970657287660238e+00  2.0022356725809441e+01 -6.2643478582805268e-01 1.0914486516008518e+01  1.9872671541045619e+01 -2.0148146437017362e+00 6.4328960193965505e+00  2.6287815174926568e+00 -1.9120157653347731e+00 2.2422462867914268e+00  5.3765451386061534e+00 -7.2610391775599425e-01 2.7076138384155062e+00  3.8742479619732304e+00 -2.1345523656600460e+00 3.6310645489799049e+00  2.5176236032393811e+00 8.5215812409574632e-01 4.1735742764575168e+00  3.0519733599684788e+01 6.0150031368189145e+00 -1.6449292910581253e+01  2.2061000440939164e+01 -4.6329742151160955e+00 -1.6927954095433275e+01  2.2021178260996496e+01 -3.1309476796679686e-01 -9.7063122154550552e+00  2.2171810501427121e+01 3.5981275535834341e+00 -1.4357851989857851e+01  2.1812048257593560e+01 7.3253954998688267e+00 4.6314545562194844e+00  1.9425382622585150e+01 4.5366941999202428e+00 8.8252416671722163e+00  1.6301214773594662e+01 3.4807484427554720e+00 7.7771899356728724e+00  1.6642855207570236e+01 5.2234108912197312e+00 4.9547833222590061e+00  1.7213688931131639e+01 -2.7495311049495545e+01 -1.1974666451211277e+01  -4.8744663449610294e-02 -2.4578898950696790e+00 2.7049838319454680e+00  1.4340073469182526e+01 -8.5303970573442189e+00 4.6923621756975393e+00  8.3997552183351516e+00 -2.2238921993225458e+00 6