<?xml version="1.0"?>
<VTKFile type="UnstructuredGrid"  version="0.1"  >
<UnstructuredGrid>
<Piece  NumberOfPoints="5332" NumberOfCells="21511">
<Points>
<DataArray  type="Float64"  NumberOfComponents="3"  format="ascii">34.9128303527832 7.159039974212646 27.23946952819824  34.3791389465332 6.51554012298584 27.14228057861328  35.13011932373047 6.536996841430664 26.4462890625  34.60470692251231 7.36625243761215 26.5142861285684  27.11422573886168 10.71728622047777 29.33648317416864  26.57271051141805 11.00537178931799 28.74267009920055  27.87300627704928 10.72223837078246 28.02426118216048  26.24597961613497 10.00380187972843 28.26936163005118  29.92853927612305 11.57324028015137 18.9993896484375  29.92925071716309 10.72019958496094 19.44116020202637  30.51594176280439 11.02709247024003 18.67815661363122  30.64437377264134 11.37147853416973 19.82816663019022  31.81641006469727 11.10233974456787 25.7568302154541  32.75207138061523 10.93136024475098 26.34918975830078  32.72372817993164 11.34926986694336 25.56191062927246  32.38903036944704 10.22437810473418 26.16369264268148  22.97236061096191 2.993769884109497 15.90116024017334  22.88225936889648 2.331434965133667 16.58629035949707  22.57789039611816 2.195597887039185 15.56179046630859  21.92419230913754 2.438811646629931 16.59073105095517  35.6425895690918 7.805421829223633 27.36277008056641  35.69223022460938 7.19580078125 26.58629035949707  35.52007950851419 8.251850567500551 27.13849051169577  30.70338886822507 5.734390739998017 27.18571970880863  30.15785481847991 5.052454602881958 26.49104451023474  30.97375729578255 5.75192237596054 25.70307588750977  30.26149693945942 6.231904514906795 25.78636559528348  25.67308044433594 13.08121013641357 23.76271057128906  25.86035919189453 12.50069046020508 23.40933990478516  26.27835845264035 12.23044980441888 23.96776073122843  26.35236955816999 13.52415096613267 23.93956501781522  23.8199291229248 8.929689407348633 22.68943977355957  23.74138069152832 8.989166259765625 21.50762939453125  24.55989074707031 8.955435752868652 22.0098705291748  24.0846482367765 7.687041359233702 22.20357387134313  36.39913940429688 7.861127853393555 26.6499195098877  37.13685989379883 8.569181442260742 26.28104019165039  36.7947998046875 7.939727783203125 25.97591018676758  36.37075892412741 8.932036658771425 26.54225885579558  24.61955393501369 5.729207607017445 26.26435319543223  24.82826324934565 6.616697868169569 24.87611641271513  25.98533158028808 6.28840527690646 25.60545615796469  25.44044759890467 5.82680295349591 24.77999641866277  26.55034593237134 9.555521565422465 24.36133021681851  25.38264039425704 8.124286298877308 24.207668627426  25.85953571375595 8.579836451747065 25.67396541173117  25.23962944173181 9.599908125301022 24.80666332143565  32.01638849884263 10.94415653337042 18.71429619226365  31.06505478830908 11.64268835655244 17.86154741542174  30.77636097890473 11.83784141278829 18.64145513050224  31.58766724653982 12.35453557960035 18.74514318948447  23.1141300201416 11.18826007843018 28.74068069458008  23.81983947753906 11.53730010986328 29.13941955566406  23.94433553246686 11.5177459489256 28.19656390979959  23.31738192497723 12.16090308934126 28.74067131549063  18.76734924316406 3.675134897232056 19.03319931030273  19.6100337675173 3.712265476703991 18.04249454596504  19.1108732586529 4.431009590924694 18.79817783316137  19.48087632082498 3.948030797941988 19.25313153101177  32.43262100219727 13.13720989227295 19.24402046203613  33.02611923217773 12.49501037597656 19.59691047668457  31.86906769124938 12.29548022790067 19.80836176930703  32.43860119471369 12.00252268420827 18.61876351303395  26.64352035522461 8.937213897705078 15.49726963043213  26.2082616960591 10.44989776852018 15.21573969412434  26.18368041635972 9.933506945265862 16.49325415919154  25.39171479065532 9.626462619580256 15.64745773586351  28.37132172231807 1.815638967417659 28.01688162019653  27.35397670858199 2.943730053507057 27.40006098175672  27.29205505871813 1.667704273203172 28.49651133407856  27.42059800864293 1.629655847642148 27.37736051231298  32.78384017944336 13.59123039245605 22.52379035949707  32.50217819213867 13.9898099899292 21.7236499786377  31.98473335241294 13.15635594094828 21.90917149976723  32.50635483741166 13.03006565315718 22.33883736507179  32.15467071533203 2.395050048828125 30.3059196472168  32.67388916015625 1.752380013465881 29.96747970581055  32.15990048507312 2.39112800075908 29.28738278008032  31.33457809965556 1.987156326960982 29.99459865079309  23.6441593170166 6.357312202453613 13.85284996032715  23.89887046813965 6.976089000701904 12.96965980529785  23.19639015197754 6.379508972167969 12.74133968353271  23.32776281726468 7.360948585087058 13.40343695457615  28.07114028930664 0.6767489910125732 19.59878921508789  28.74773025512695 1.12375795841217 19.21920013427734  28.79262924194336 0.09558500349521637 19.26589965820312  28.67484092712402 0.09558500349521637 18.9843807220459  34.09929999453565 6.99294867487819 23.80117912218894  32.79286346475775 6.385607427889191 24.38233316397244  34.13446862217507 5.807023155062696 24.86819283031606  33.50918129774659 5.985656593939081 23.67434762494567  31.52791023254395 7.211616039276123 20.71873092651367  32.63322883210785 7.914206222199187 21.00983252958887  32.93562199325006 6.865736083906026 21.17592602658605  32.32074858707963 7.043793635225046 20.09070446401957  17.42807960510254 5.748912811279297 17.58735084533691  18.6133781463354 6.184669935715985 17.44164725493554  17.64428974949532 6.523560370337231 16.36898035243292  18.3682967494074 5.636346886063809 16.31129784190046  21.04126930236816 4.437547206878662 22.4107608795166  20.44255065917969 4.6079421043396 22.34630012512207  21.11223729940306 5.154036298132295 21.63578030882639  21.29768598159615 5.452971961007542 22.80612993718397  31.91970062255859 1.372066974639893 31.30632972717285  31.67433929443359 0.9463019967079163 31.6031608581543  31.9261302947998 0.6777639985084534 30.82041931152344  31.25417668521919 1.034649462579695 31.00057690160329  29.0406494140625 12.68523979187012 19.80326080322266  29.43202972412109 12.09687995910645 20.07287979125977  29.63458061218262 12.11688041687012 19.39958953857422  30.08014251808489 12.7635262852644 19.73915705168776  30.40435028076172 2.698007106781006 25.9854793548584  30.00985908508301 2.195823907852173 25.81509971618652  30.6250858734521 1.443885988901736 27.07549839973395  29.93984415669546 2.949302872875071 26.81838582529727  26.60330066641777 10.68885751030027 27.18944905136354  26.02539558059046 12.15786413145117 26.84440330996682  25.45862835690849 11.19367992844953 28.18064674721684  25.50228674918538 10.81925439215312 26.70713932858495  33.85465801853636 7.103128021119278 22.02097134617921  34.2691834791265 7.539064220751516 20.89305990489548  34.1967267067445 6.572871929190475 21.24889109205525  32.05913162231445 17.21154022216797 21.19997024536133  31.80595016479492 17.58989906311035 20.39641952514648  31.87335968017578 16.5517406463623 20.45520973205566  30.86700053459136 17.18287099296495 21.12694247581706  27.70214080810547 4.590053081512451 18.93095970153809  27.57827949523926 3.958134889602661 19.35154914855957  28.04389953613281 4.070477962493896 18.53952026367188  26.67304923690006 3.656550479544511 18.7540385778899  25.30088043212891 9.012157440185547 21.9420108795166  25.66917991638184 9.322795867919922 21.58011054992676  26.31483012170623 8.362244869045234 21.7233742313048  25.00121132511576 8.337268632682127 21.64787395517196  22.63207054138184 8.500511169433594 28.00999069213867  22.06409318685417 8.704418778516809 27.23256235412425  22.60975919258574 9.510727188544623 27.34042719249306  23.30486131158517 8.875340589139704 27.15789110388815  28.03070573701256 8.338661032423285 17.47645689688087  28.82516360193499 8.099631526054823 18.50184865009664  27.90992340501571 8.932048273091548 18.74635734349923  28.50086798230015 9.536351986198989 18.4870364611775  24.75156021118164 4.805139064788818 16.95774078369141  23.94850921630859 4.607131958007812 16.58736038208008  24.34898948669434 3.841404914855957 16.92926025390625  23.86775453666483 4.923458052808762 17.26611647738093  18.8632661656536 7.23903399705552 18.44948664628291  20.09467856971356 7.670324165746222 17.00622918433185  18.29146070101621 7.704578282894412 17.13743947937338  26.96346855163574 10.26774597167969 31.82569885253906  26.64209747314453 9.712685585021973 30.9571647644043  26.83680725097656 9.368141174316406 31.87141418457031  27.88900028097448 9.606246273604775 31.81748713943611  27.55731964111328 3.413367986679077 25.7889404296875  26.30305118063678 3.194510616063683 26.49240801830609  26.62412576127626 3.1731698531949 25.48396760176555  26.64489338469321 4.227366782400557 26.10270268937625  22.84641704043763 5.603362972809657 27.58125138389545  24.01423760049768 4.858803040373278 28.01048890998938  23.56584011829993 3.966304061312855 26.98242340025655  21.98395919799805 12.81534957885742 29.69577980041504  22.3332691192627 11.85361957550049 29.2259693145752  22.25907085958011 12.26026478939569 28.42938584569326  22.32478697539813 13.13736957578194 29.0660235351529  26.80032920837402 12.13191032409668 17.59622001647949  27.76788936059844 11.37215999083897 17.43501609312118  26.67156591465839 10.82761297743237 17.45225463722604  27.26837998857403 11.93388121714753 16.88309057699749  29.15962028503418 10.64204216003418 30.51924705505371  29.44381141662598 10.513014793396 29.47478485107422  28.00786650634896 10.15435105734787 30.24012742129997  28.67897336961173 10.36994323966545 29.04326164070187  29.38232040405273 8.204757690429688 19.14327049255371  29.48900032043457 7.251358985900879 18.71705055236816  30.27136993408203 7.945767879486084 19.23913955688477  29.98695962346847 8.077476253138903 18.40580592313498  29.19551086425781 0.09558500349521637 26.10866928100586  29.91847991943359 0.09558500349521637 26.68227005004883  29.71139907836914 0.878229022026062 25.7229404
[...]
<PointData  Vectors="u"> 
<DataArray  type="Float64"  Name="u"  NumberOfComponents="3" format="ascii">1.2845104454731378e+02 1.3260250952893142e+02 8.0239233629686666e+00  1.0526845042424762e+02 9.2492211784151593e+01 -1.3745586298571340e+01  8.7733956100194249e+01 9.0465630813597599e+01 8.9611575233350269e+00  1.0978186371602773e+02 9.3209883970434646e+01 1.7854140858875816e+01  2.9342788822572388e+01 1.2259803572290817e+01 1.5843203066369473e+01  3.8092988002411417e+01 4.0687763486951187e+00 1.2115852560208578e+01  3.8123892995403253e+01 7.4254466359883886e-01 -7.3293776062750959e+00  4.1663083940233911e+01 1.3498986250611704e+01 7.9612153566411354e+00  1.5804466153124656e+01 7.1496740721636955e+00 -5.2480531177428045e+00  2.2674388114617816e+01 8.4605936324149571e+00 3.8336672206683851e+01  6.6749139105708849e+01 7.0697536831078382e+00 -9.8009999152338878e+00  4.2736856724707685e+01 -2.4520817462465310e+01 -3.1138622525581578e+01  1.3635792836931961e+02 1.4694023707343179e+01 -1.2669043570086643e+01  1.9219300271374479e+02 4.0895708162512925e+01 -1.4984149543505103e+00  1.5852529349688351e+02 4.2351984632781246e+01 3.3654829381954954e+01  1.4319168669369654e+02 3.2080498585577637e+01 -4.4217255764818892e+00  1.5572942033751152e+01 1.1591577181279979e+01 3.4698552787486975e+01  3.6178496684087627e+01 1.5189020958530685e+01 5.8631957598782229e+01  7.7904910218692924e+00 7.9196929098962805e+00 1.8409387102833104e+01  3.3268945728853318e+01 -6.1376479766725767e-01 2.1645052286661262e+01  1.9868568932831980e+02 1.7542048880121820e+02 1.1771410785689481e+02  9.2190951121999106e+01 1.2675256491589820e+02 4.5380109923804945e+01  1.6911813043390146e+02 1.2197115921230926e+02 1.1068237228668742e+02  6.5205940640405260e+01 4.0182731030232468e+01 -3.4927574685701707e+01  6.8423115855263276e+01 4.3350767741350488e+01 -3.2387372151680530e+01  7.1402354646087090e+01 4.1289284166541329e+01 -4.9279661372065732e+01  7.7497490327304590e+01 3.1612717393296833e+01 -4.4376052062006522e+01  2.5044778360851275e+01 6.6264641931066599e+00 -4.2929989548646901e+01  1.9842656075937828e+01 1.7501573447452337e+01 -4.3500126338564428e+01  3.3531419686026638e+01 1.8952562269897935e+01 -3.3185380187558330e+01  3.2479744563662969e+01 2.4391032818502265e+00 -3.6542120216193254e+01  7.5934166306397088e+01 1.1250942435347007e+01 1.2232569103326954e+01  7.4029708754464181e+01 3.0720226127261796e-01 -6.5120991379753068e+00  8.2035146640579143e+01 7.3256881813868189e+00 -3.7909320228757692e-01  6.6323305887861196e+01 2.2918791613359240e+01 -4.1435236144780490e+00  1.2156395713022928e+02 1.5895335702112106e+02 1.6061585229463384e+02  1.5147347182977086e+02 1.1305602496798963e+02 2.0406298871106605e+02  5.1761952384597500e+01 1.5010670975578128e+02 1.1786519297315803e+02  1.3269131023957740e+02 8.3534692662217282e+01 1.4043713471896092e+02  6.7147812333347687e+01 1.9776977930030807e+01 5.1607757116384256e+00  6.1069252465518318e+01 2.8334815937639895e+01 4.8979384798255703e+00  5.9421014054660795e+01 3.1209569869591316e+01 1.2855301163458860e+01  4.6270488313930976e+01 2.7254574901012660e+01 1.2360473590139327e+01  6.0484424355083377e+01 3.7533652749781631e+01 -4.8735368633636815e+00  6.2187789478034951e+01 3.8301228092985681e+01 2.8728410153782558e+00  6.2222365380420449e+01 3.1805872062643399e+01 -1.6085561047193431e-01  5.8503194054696358e+01 4.1696934782999044e+01 -7.6997822971538579e+00  6.7256733582405673e+01 -1.8569987556689660e+00 -4.0529214961566332e+01  8.1839796059124225e+01 1.3589782958726683e+01 -4.5301813822745828e+01  5.6523717715108106e+01 -3.2644807218746266e+00 -3.7665633149193113e+01  6.3326888075677815e+01 -2.2253068873889298e+01 -5.7394532395092881e+01  3.7517384242053453e+01 7.2825987477311802e+00 1.3194546938714380e+01  3.4888455170377668e+01 -1.9184364318842417e+00 5.4853720726708888e-01  4.0853550026188309e+01 7.1643719903071448e+00 3.2398207500698453e+00  3.2018328855060446e+01 3.5711749949499421e+00 2.1720940847256824e+00  4.8321927879372581e+01 -5.9913969655057663e+01 -4.6537141044828644e+01  4.8679803614728819e+01 -4.0005829243777889e+01 -1.4412325770188115e+01  6.4494945046614546e+01 -5.0120614352839610e+01 -3.2286687811271264e+01  6.6422581839573439e+01 -4.4742890347393434e+01 -3.4334369038677472e+01  6.6684824805049843e+01 -6.6794474415725176e+01 -7.5521140694014875e+01  6.6111545154745627e+01 -4.0220358646363820e+01 -6.9511875134947374e+01  5.4190131031296161e+01 -3.4822017451850272e+01 -4.4248976190699196e+01  7.0953258953307312e+01 -1.0300754388690869e+01 -6.5194516294162142e+01  1.2308334272658466e+02 1.9558233944696508e+00 6.3133408679304792e-01  8.7776131216111906e+01 5.0390601887748474e+00 2.1133137324728978e+01  8.6299088928307995e+01 2.8597014381424234e+01 1.0607640439661242e+01  9.6660293759180419e+01 3.4655894149206965e+01 1.4673787092107871e+01  3.6812072145868129e+01 5.6284013275711198e+00 1.1108130482783245e+01  4.7848763414482214e+01 9.4137934297881412e+00 1.4773621319597380e+01  3.2743014564076788e+01 -1.9650520300850085e+00 2.0587974395296751e+01  4.2575892931141013e+01 3.7344966348258142e+00 1.6631402741724525e+01  7.6779581256136467e+01 -7.0822080414334152e+01 9.3822218902263703e+00  4.2399130056736638e+01 -6.9408027625572387e+01 -6.2464891782368834e+00  5.4236085554904264e+01 -4.7626746252492467e+01 -1.1558208568902289e+01  6.7847085735223672e+01 -4.9913369501819687e+01 2.3565089352472950e+00  7.1807345003368770e+00 8.0287618931330638e+00 -1.2937054848158191e+01  4.3354358116830181e+00 8.4300048123932996e+00 -9.4320481729270593e+00  9.8891113132937356e+00 1.6753229025203545e+01 -1.4416843836930290e+01  1.2073499684745366e+01 7.6551114169012111e+00 -7.2368974450176866e+00  2.2966057995482146e+01 4.7928659882660590e+01 -1.7239103118448547e+01  6.5855631760585041e+01 6.3418399244705626e+01 -6.4026500925812272e+01  3.9996285648754338e+01 5.6307746534436966e+01 -3.8170507359846766e+01  5.9195192262014679e+01 3.7281110693153231e+01 -3.3958627741407128e+01  1.2294844734223807e+02 -1.4769210742452524e+01 -1.2210842302406684e+02  1.3791114935184356e+02 -3.6891210700547843e+00 -7.5417133438827619e+01  3.3083403257804356e+01 -6.1171085946224295e+00 -2.4365317989066721e+01  5.4944307941994765e+01 -1.0516278821698715e+00 -3.3888446458248190e+01  4.4323732313250183e+01 3.1253751255335999e+01 -1.6511335072088034e+01  5.5303266993045654e+01 3.2028247271477412e+01 -4.8066364423264240e+01  5.7328884076427805e+01 5.1802950277632824e+01 -3.0257856833174500e+01  3.5493300263594911e+01 2.6638546742435690e+01 -4.4468148965801333e+01  7.2378169774762302e+00 -2.2310246461488113e+01 -7.9710432154344586e+00  2.7590962549739036e+01 -9.9527389438371952e+00 -2.4365483884197815e+01  1.9188058795614538e+01 -8.0301540254122550e+00 -2.5821432357900338e+01  2.3839962942925990e+01 -1.0796252528789418e+01 -1.0606025140006182e+01  1.4212392226277836e+02 -1.0871703053902996e+02 -1.4299758405659810e+01  9.8232344988978895e+01 -5.6231277840195759e+01 -1.8301826420958193e+01  1.4320271504214597e+02 -6.8252478931657009e+01 -2.8172216845554484e+01  8.5072933926774027e+01 -6.7904057212646080e+01 -2.6661316043781611e+01  1.2848449674544719e+02 -5.7279881942585895e+01 1.1064178540918499e+01  1.5163704669527587e+02 7.6356460259864170e+00 -2.7722281037937559e+01  1.0993742415747774e+02 -1.2289809144265224e+01 -1.0034435230875845e+01  1.1035901159640572e+02 -8.7783713134502896e+00 -9.5835712076743604e+00  1.2297262253832315e+00 1.5464234410514683e+00 -4.5285328558708180e+00  1.6962486525920482e+00 1.7596617795746847e+00 -1.1732469758080089e+00  5.5305847762315334e+00 1.3116578228353257e+00 -5.0267266561593633e+00  5.4612269256598038e+00 1.5831126920252290e+00 -1.7067123071321129e+00  4.0682807510953296e+01 -2.8476882643226336e+01 -4.6389589684235844e+01  5.0177525696611298e+01 -3.5802435577740667e+01 -5.3236471957409755e+01  4.1471948073755406e+01 -4.4431573377904556e+01 -4.2824679371620320e+01  4.5733514620375232e+01 -3.2887897546538873e+01 -3.9818399611520867e+01  5.0062434419426346e+01 4.1967041391940420e+01 4.0763434176929341e+00  4.6209436185295417e+01 2.6196925238901848e+01 1.5834389639959761e+01  2.9614848464564325e+01 1.5817590858459301e+01 1.5193359270992732e+00  4.6618075551786795e+01 3.0879116878517777e+01 -1.4608428524060491e+00  4.5927248953071256e+01 9.8991287434219082e+00 -6.9067799373404757e+00  4.0738333813430081e+01 3.5647968030120980e+00 -1.6593426839241435e+01  4.4651372570377511e+01 3.5711247969684439e+00 3.4150317434193931e+00  4.8525438090554182e+01 1.7503411575748373e+01 -8.2076506624187306e+00  2.4054423679379003e+01 4.8145409543489412e+00 -2.8234759311113390e+01  2.7557408730890693e+01 3.3883250126699740e+00 -2.7663381826454042e+01  1.8587943839451633e+01 5.3762110435403743e-01 -3.0208540130357932e+01  1.5768005809640020e-02 -2.0118517247070482e+01 -3.9309361765576756e+00  -6.6679401386586012e-01 -1.9347029749720136e+01 5.5584374149384075e-01  -2.5242535091534943e+00 -2.9193271127711153e+01 -3.9560475247278810e+00  7.2888514541935576e+00 -1.9153573507085618e+01 -6.3038504381975642e+00  6.5762631426231948e+01 -2.8383741966153124e+00 -9.3072736638057563e+01  5.2411650603755426e+01 -1.8067087891318479e+01 -8.1782096617492428e+01  9.9612300740481842e+01 -1.2092563154576101e+01 -1.0436634213511564e+02  8.2076461034231059e+01 -1.0154385473315378e+01 -5.4790681161493467e+01  9.1294789172392086e+01 3.0740099619930646e+01 -4.8320252776123462e+00  6.6001063920910170e+01 6.3112000563327939e+01 -5.7409739531580124e+00  4.0113054664127532e+01 4.1266789996165066e+01 -1.2951373570474741e+01  7.1596164900974458e+01 2.7388563488623642e+01 -9.7907558623747821e+00  7.4653591694870286e+01 6.0717471861670411e+01 -1.5605227679922471e+01  6.5130289636879496e+01 5.8759263242165233e+01 3.8764350643773970e-01  5.9054073352039346e+01 5.1371110665033278e+01 5.2212103518349045e+00  7.0615778372879021e+01 4.3432024889391727e+01 3.1741645119763433e+00  1.1354803143486768e+02 9.8146529755426943e+00 -3.1679223880191653e+01  1.3069631998383935e+02 1.6658766287894789e+01 -4.0994672120448051e+01  9.9367783363642701e+01 2.0162793914713568e+01 -4.4034819563111760e+01  1.1569519211653325e+02 1.3954463781640989e+01 -3.4630045941697055e+01  1.1083107410847984e+02 -1.0215201539174457e+01 2.8488917435588910e+01  7.3475901971401470e+01 2.5745259660268349e+00 5.8157661714820769e+01  1.0977561141508323e+02 -1.8966661527402483e+01 3.7512225858446847e+01  8.0980796983349364e+01 1.5127095163507745e-01 2.4925562534239315e+01  1.0690864343920205e+02 -4.4184690882411353e+01 -1.6375570533926400e+01  1.0569690908295860e+02 -2.9736818550468612e+01 -1.8359134363640141e+01  1.1718400024428701e+02 -4.5580974731575949e+01 -1.6974165822430084e+01  8.4408409157057438e+00 6.1449983532360896e+01 1.9076232589547121e+01  1.8298568617729813e+01 4.3470007273087745e+01 1.0178183126777695e+01  1.5829879150929310e+01 6.3252700385531618e+01 -1.2709901603176359e+00  1.8125193052294470e+01 5.6150308851781702e+01 3.9392468241050707e+00  5.6473983709543909e+01 1.3783759934898320e+01 4.0492235231502313e+01  4.9663268366486406e+01 7.1193902673198979e+00 1.6665582406371449e+01  3.6975837017016381e+01 2.0923475183280127e+00 2.3795945376806614e+01  5.1360582987818873e+01 1.6089068664209769e+01 2.5097684175330016e+01  9.1811759377219687e+01 2.0751204660137439e+01 -6.3388683741580500e+00  8.9790172250431880e+01 1.3774093722351669e+01 6.5665747654727724e+00  8.0465607618824166e+01 6.7075350031524898e+00 -6.2731033612986051e+00  1.9405301514723170e+01 -5.4708031866210591e+00 4.8299278379167578e+00  2.4527655742718817e+01 4.8524919384253868e+00 9.2351521160639933e+00  2.6107937558265711e+01 8.3635797943409571e+00 5.8782884291568669e+00  2.4596004135741815e+01 -4.7778039317232501e+00 1.5055937250808156e+00  2.5199770203042281e+01 2.1682033572222402e+01 1.5302851004748762e+01  7.6005126468665424e+01 2.8308414451323789e+00 -1.2454286755772385e-01  5.8063328650391917e+01 3.1983075571791652e+01 4.4240636558926907e+00  5.1641990516653408e+01 3.0600978098466989e+00 2.0890744169355649e+01  -5.7655397935807091e+00 2.3575590549175679e+01 1.5662372148364435e+01  9.5779304759289801e+00 -7.4094011997557505e+00 -1.6279457237688622e+01  1.9143195888964474e+01 2.6210630411741136e+01 9.8295632198076497e+00  2.5590259022042112e+01 1.3888949520908171e+00 -8.3988164071128342e+00  1.9095043599440427e+02 1.9267846690622338e+01 -1.4344397231239409e+01  1.7301884474286419e+02 2.0253191066526984e+01 -3.4382738539184395e+01  1.1037700563173537e+02 -1.5953910040674595e+01 5.7528779248354560e+01  1.2237989046423448e+02 1.5481267617878594e+00 -2.0053453415355258e+00  3.4526587033460288e+01 1.9714317627438500e+00 1.5273684613802658e+01  3.9966246985819552e+01 8.0111928768470142e-01 8.8917350036658700e+00  4.0511012358499940e+01 9.2167816883233655e+00 1.5546874870629230e+01  3.7468213785885006e+01 7.1168813974372513e+00 8.9545277921638284e+00  5.0111825268362715e+01 -3.6451051943203954e+00 -6.8046186129126539e+01  4.3316794259556744e+01 -1.2080033107648212e+01 -6.0650904524067151e+01  4.3652797944892200e+01 9.4016769124272361e+00 -4.8058035883099265e+01  6.2144345981921347e+01 -3.8794420606673690e+00 -4.6817907399897088e+01  2.1460586841271034e-01 -6.4158164771219042e+00 -1.9996154124100711e+00  2.3396576195694221e-01 -4.5688538382308606e+00 -7.5028439549671100e-01  -5.3657322107186445e-01 -1.0651951516442379e+01 -1.0912693573529615e+00  3.4947338211434276e+00 -5.6998395677474001e+00 -6.9241939303352318e-01  2.7476729498647170e+01 -1.9406360509321480e+01 -5.2237723304485037e+01  4.5521377696389969e+01 8.0292048051922205e+00 -1.9983009284108864e+01  3.4343235944561876e+01 -1.5867691990828741e+01 -2.9206115069831430e+01  2.3939233631099235e+01 -7.8651975025804051e+00 -3.5306951522580171e+01  5.4848438312991199e+01 7.7710860448098327e+00 -2.8018640130196527e+01  4.9135466300375363e+01 3.3998037727126338e+01 -1.7673861643797501e+01  4.9289588697263035e+01 1.8751746562013434e+01 -2.5198499215075181e+01  3.1725154147205345e+01 1.4906453735724289e+01 -2.6876403444589908e+01  1.4705145550401559e+01 -8.7759896596034253e+00 -2.2066143084433779e+01  1.5149850131861701e+01 -7.4129442313278187e+00 -2.1798500013798765e+01  2.3231482549034318e+01 2.7664861558200209e+00 -2.5075227632529963e+01  1.8766216960603226e+00 -2.1622389824143330e+01 -6.4995990571643842e+00  6.0891928118105527e+00 -2.7416768082245181e+01 -8.7532165961915993e+00  9.3607086627557088e+00 -3.0107993834340785e+01 -1.1924751661692863e+01  1.1399321334790175e+01 -1.7348411881582162e+01 -9.2532306908449478e+00  3.7552104436997524e+01 -4.7628341539921919e+01 -1.6203924938640725e+01  3.6786363459871119e+01 -3.3463319051442774e+01 -9.0382802738281853e+00  3.6728021468936710e+01 -2.6799175491712198e+01 -1.0475793066813523e+01  5.1684917328121102e+01 -4.0007195987120397e+01 -1.7511621214971768e+01  8.4761477246948061e+01 -9.5478898476233383e+00 -5.5247445942281610e+00  7.8741031624045689e+01 -1.8695983105154582e+01 -6.8041696023888818e+00  9.2381638708447397e+01 -2.6868782656992053e+01 -7.3353384976543339e+00  7.4723287746262187e+01 -1.5511956529676935e+01 -4.1773464696591294e+00  1.3708348187433970e+01 3.8582497971164848e+01 -2.1628046966148506e+01  2.0268122840833758e+01 4.5744572702849943e+01 -1.3452834360103619e+01  2.8198290851150666e+01 2.7461518812796072e+01 -2.3674422840104590e+01  1.6035720313345898e+01 3.6304514185309124e+01 -3.7639338415950085e+00  6.1007319907145494e+01 1.7693306455749472e+01 1.1220550137537124e+01  5.8624409522194320e+01 2.4170398369442818e+01 1.5834438528240590e+01  6.2968377522311748e+01 2.6659992955856957e+01 7.3042216064714527e+00  5.0468575322014544e+01 -3.2819778670705162e+01 -4.2383642852971725e+01  5.2286512645524084e+01 -1.0436150576765735e+01 -3.7257107556804378e+01  6.6057365235260875e+01 -9.0457649021424267e+00 -3.9773147680133135e+01  5.1789334013859815e+01 -1.9600253993073192e+01 -4.8848919329519340e+01  3.2068132118049952e+01 -1.4495198829120714e+01 -1.5507172020321269e+01  2.6158403668136380e+01 1.5773697067971377e+00 -8.3719487942085582e+00  3.8069269071347335e+01 -1.6346900512655200e+00 -1.5464746939357809e+01  2.5680531974565920e+01 -4.4991574591288890e+00 -3.3531673493661645e+00  8.1687812937371874e+01 -7.2372817035977084e+00 -1.6557465787625176e+01  6.8558231248906779e+01 -2.7732762092005192e+00 -2.0737132720568869e+01  6.3795998146739677e+01 -6.1318228175827469e+00 -3.5688297544082346e+01  7.9858493509373389e+01 -6.0409003924092195e+00 -2.2750213115566826e+01  4.4184490539300370e+01 3.2648926596724039e+01 -3.5726115144420724e+01  3.3366395979569454e+01 3.6998102521631623e+01 -3.3663589566437849e+01  4.4468616981096623e+01 5.2783708256198260e+01 -2.4692446667112936e+01  4.5279851454902307e+01 2.3200558866055125e+01 -2.2246463812575232e+01  8.2752836580653664e+01 8.6768644979899648e+01 -3.5353724442121759e+01  1.4742593199096927e+02 4.5343218166755832e+01 -1.7518044907953914e+01  8.1115574081833074e+01 3.6266471700966996e+01 -1.1771470490706029e+01  1.0709005576527794e+02 1.7683459493854055e+01 -1.2786630361593140e+01  2.8381629210160114e+01 9.4169428860512010e+00 -4.5478445217499441e+01  3.4308234298733256e+00 1.1279038380719275e+01 -3.4128191605649064e+01  1.8235145958977991e+01 -1.6587642301290846e+00 -2.1307756546614794e+01  2.2593545656104812e+01 6.9795052691646937e+00 -3.0767934330977585e+01  8.8485850516674901e+01 2.3913308245777031e+01 8.1487592845602688e+00  8.1803422604093512e+01 3.8032967597468151e+01 6.5828135148085778e+00  7.7449904691783559e+01 3.2606280824084905e+01 1.6863416704891572e+00  7.3798031953820015e+01 3.8015640937380951e+01 4.7412598416652294e+00  6.2872183295395885e+01 -5.0136551159507325e+00 -2.5255859392503574e+01  6.1580137181706831e+01 -4.9792194124623830e+00 -4.4406366874694911e+01  5.5477861577506367e+01 -1.4663152348749323e+01 -3.2350536998884898e+01  4.1513142429564397e+01 1.7621832097146111e+01 -2.8284227201921116e+01  8.5523652482578534e+00 5.3040231392250154e+00 4.3908775425126663e+01  2.6700420197729759e+01 -5.4557605993098912e-01 8.8214857164051068e+00  6.0130826039563111e+01 1.6474326503353968e+01 4.7310818771185545e+01  3.3074313924023343e+01 2.2630161101339752e+01 4.3831385144720933e+01  1.0989192626648442e+02 -1.8984664685745287e+01 3.8780126995160607e+01  1.1278354137060251e+02 -2.4179002906720552e+01 5.5735550807314960e+00  1.0112020053767979e+02 -1.5244474391237024e+01 4.6326420047686465e+00  3.4034264426657451e+01 -1.1560310006907635e+00 -3.4670458621968749e+01  2.4038393387226751e+01 -8.2423766971487278e-01 -3.6002918366994933e+01  3.9597362822833290e+01 -1.7934568782490083e+00 -3.3499407168139868e+01  3.8262663042235182e+01 4.4465332226013041e+00 -3.0945015817946601e+01  1.0200160783430924e+02 4.8288549416073518e+00 -5.5812202274968769e+01  7.9985056232536138e+01 2.4233136309394656e+01 -6.6271805942144738e+01  8.5927881409692233e+01 2.1865837858332437e+01 -3.8448306437997033e+01  8.7617251938895336e+01 1.3626351807817683e+01 -4.1297957191046159e+01  9.6207414468480152e+01 4.7411149894880991e+00 -1.3903384550374925e+01  1.1229743754694240e+02 -2.0152652407723892e+01 -1.0606022640945021e+01  9.2792323298073114e+01 -2.7891676228146199e+01 -2.3544902271384158e+00  1.1089643878698701e+02 -2.2706398685015234e+01 -1.9004781236998078e+01  1.2100918561753839e+02 1.8564710515889516e+01 2.7203327562847232e+01  1.4540309041371270e+02 2.1063250901556117e+01 -3.2194825596832530e+01  1.4398592582541139e+02 1.5870298999044635e+01 -1.1227787646534518e+01  9.5187405299026281e+01 2.4475605280825249e+01 -2.3768660795555505e+01  1.3976284599709276e+01 -9.3380011458186737e-02 6.6651475345590838e-01  5.2231651868588047e+00 1.1430691614273543e+00 -2.7733519816310062e+00  9.8819253816601957e+00 7.7358334848939470e-01 -3.0044667850986877e+00  9.8273727140283977e+00 3.9672338896133046e+00 -3.5225505204037799e+00  3.4416964498225738e+01 -5.5412243139534132e+00 -1.0590870599863781e+01  3.9153172105061003e+01 -1.7974622623203309e+00 -4.1005514743375402e+00  1.8119650912385996e+01 -2.4933328248266683e+01 1.6462846466935297e+0