<?xml version="1.0"?>
<VTKFile type="UnstructuredGrid"  version="0.1"  >
<UnstructuredGrid>
<Piece  NumberOfPoints="8445" NumberOfCells="37303">
<Points>
<DataArray  type="Float64"  NumberOfComponents="3"  format="ascii">3.358305 23.902931 25.784184  2.4856424478 23.91786425055 26.05625264695  2.58002861615 23.23540303185 26.09444764545  2.9656079478 24.07446875055 26.45084714695  2.8783395 23.7463265 25.3895895  3.05999411615 23.39200753185 26.48904214545  2.398374 23.589722 24.994995  2.7616832323 22.8810840637 27.1939002909  2.66729706395 23.5635452824 27.1557052924  2.5729108956 24.2460065011 27.1175102939  1.982411 20.299242 26.070995  1.9944557346 19.87390867815 25.1447420564  2.3329952346 20.31891317815 25.5142810564  1.80047306605 20.0962516563 25.1979447441  1.6438715 19.8542375 25.701456  1.305332 19.409233 25.331917  1.46193356605 19.6512471563 24.8284057441  1.6185351321 19.8932613126 24.3248944882  2.15105730065 20.11592283445 24.6412308005  2.6835794692 20.3385843563 24.9575671128  3.50005 18.729382 24.045242  2.297087 18.821168 23.9724595  2.5791215 18.585935 24.4321155  2.5987855 18.262766 23.963788  1.697521 17.79615 23.882334  1.3958225 18.354552 23.8910055  1.677857 18.119319 24.3506615  1.658193 18.442488 24.818989  1.3761585 18.677721 24.359333  1.094124 18.912954 23.899677  4.059003 20.771589 24.44783  3.3712912346 20.55508667815 24.7026985564  3.8422595 20.2188755 24.3890465  3.937143 20.3138645 24.9369  3.815283 19.85614 25.42597  3.2494312346 20.09736217815 25.1917685564  3.7203995 19.761151 24.8781165  3.625516 19.666162 24.330263  3.1545477346 20.00237317815 24.6439150564  0.980069 24.125446 29.294247  2.01587559355 23.7005354063 29.5049939143  1.4269080346 23.89300152835 28.72378370065  1.95006962855 24.365141535 29.09583337385  2.9200702571 24.60483707 28.8974197477  2.46271462815 23.46809093465 28.93453061495  2.9858762221 23.9402309413 29.30658028815  2.39690866315 24.13269706335 28.5253700745  1.8737470692 23.6605570567 28.1533204013  3.0516821871 23.2756248126 29.7157408286  0.46783 23.137754 27.895309  1.1707885346 23.39915552835 28.02431470065  0.6726595 22.900621 28.311464  0.7239495 23.6316 28.594778  0.928779 23.394467 29.010933  0.877489 22.663488 28.727619  1.3756180346 23.16202252835 28.44046970065  6.261693 22.961756 27.378405  5.6924095319 22.7386074681 27.8235035781  6.21946999885 22.22342932385 27.6518704556  6.04928514335 22.43864430745 28.3402197749  5.8368772867 21.9155326149 29.3020345498  5.65018653075 22.00028079195 28.0969690337  5.48000167525 22.21549577555 28.785318353  6.007062142200001 21.7003176313 28.6136852305  6.1772469977 21.4851026477 27.9253359112  5.1231260638 22.5154589362 28.2686021562  3.962688 21.997189 24.206047  2.7762049861 22.2426189629 24.98323654985  3.4486434861 21.9431694629 25.12182254985  3.6669525 22.4857295 24.468358  3.2902495 22.2966385 24.067461  3.371217 22.97427 24.730669  3.1529079861 22.4317099629 25.38413354985  2.994514 22.785179 24.329772  2.617811 22.596088 23.928875  2.9345989722 21.8891499258 26.0375980997  2.6506952346 21.46733617815 24.4432210564  3.3231337346 21.16788667815 24.5818070564  2.8090892207 21.11386714105 25.49758260625  4.103745 21.6296515 24.8192405  4.244802 21.262114 25.432434  3.5897004861 21.5756319629 25.73501604985  3.4641907346 20.80034917815 25.1950005564  2.0913433393 22.40178109315 24.67770598325  2.0826955 22.8483885 24.214349  2.5080925 23.092905 24.461935  1.9816248393 22.89859809315 25.21076598325  1.972977 23.3452055 24.747409  1.54758 23.100689 24.499823  1.5562278393 22.65408159315 24.96317998325  1.5648756786 22.2074741863 25.4265369665  4.970185 21.728434 26.232796  4.0255449861 22.3607429629 26.38264504985  4.638658 22.767412 26.1671695  4.565505 22.215461 25.9197215  3.9523919861 21.8087919629 26.13519704985  5.043338 22.280385 26.480244  5.116491 22.832336 26.727692  4.160825 22.702488 25.606647  3.5477119861 22.2958189629 25.82212254985  6.667275 19.87348 31.034523  5.33106211345 19.9361100001 30.67101866505  5.7665041313 19.63631520545 29.99508330195  5.78012711345 20.4683415001 30.65136816505  6.21821 19.3412485 31.0541735  6.215569131300001 20.16854670545 29.97543280195  5.769145 18.809017 31.073824  5.7638632626 20.4636134109 28.9163426039  5.32842124475 20.76340820555 29.592277967  4.8929792269 21.0632030002 30.2682133301  4.3444320697 22.4419152833 29.4199326501  4.51236797545 23.4094071419 28.73424056735  4.769714189849999 22.94410970875 29.3189747729  4.3129750345 23.43534160465 29.4777903728  4.0870858553 22.90721271645 28.83519844455  3.8297396409 23.3725101496 28.250464239  4.0556288201 23.9006390378 28.89305616725  4.2815179993 24.428767926 29.5356480955  4.73825715465 23.9375360301 29.3768324956  5.19499631 23.4463041342 29.2180168957  2.59824452515 22.79641362095 28.42964299435  2.85174335505 23.51653360315 28.20189232015  3.1872120841 22.6039474989 29.210853208  3.576240811 22.6523901674 28.4782149132  3.440710914 23.3240674811 28.9831025338  3.3227419811 21.9322701852 28.7059655874  2.644488 20.834743 28.320293  2.47913099055 21.8736695926 28.5357477937  2.98361499055 21.3835065926 28.5131292937  2.5022175 21.1303315 28.9099835  2.140004 21.324906 28.3429115  2.359947 21.42592 29.499674  1.9977335 21.6204945 28.932602  2.84134449055 21.6790950926 29.1028197937  1.63552 21.815069 28.36553  6.739183848150001 21.7197530174 28.72649140525  6.54372914335 22.66556930745 28.6122942749  5.64686899885 22.15871932385 27.3265139556  5.689092 22.897046 27.0530485  5.6474925 22.3141065 26.601973  6.174579 23.845503 28.409262  5.267527155 24.0478945671 28.84705594785  5.216280155 23.5991945671 28.42906644785  5.684787654999999 23.6459035671 28.81363944785  5.7573185 24.247494 28.4426785  5.288811 24.200785 28.0581055  5.7060715 23.798794 28.024689  5.237564 23.752085 27.640116  5.340058 24.649485 28.476095  3.3734486912 21.35929817875 23.8856058467  4.0108455 21.384389 24.3269385  3.4216061912 20.74649817875 24.0064973467  2.7842093824 20.7214073575 23.5651646934  2.7338944258 20.5299958569 24.2613659031  6.921852 21.751766 30.330708  5.99144514335 22.10104930745 30.0142367749  6.13586064335 21.52986130745 30.1200427749  6.37936464335 21.83364930745 29.8163712749  6.533932500000001 22.019166 30.5285735  6.2904285 21.715378 30.832245  6.678348 21.447978 30.6343795  6.434844 21.14419 30.938051  6.146013 22.286566 30.726439  5.66391161345 21.1036965001 30.60313216505  6.0993536313 20.80390170545 29.92719680195  5.80037027465 21.1895730129 29.10918857685  5.3649282568 21.48936780755 29.78512393995  4.70301178145 22.1492093753 27.3102199594  5.0466555319 22.1219464681 27.2506990781  4.62985878145 21.5972583753 27.0627719594  5.1198085319 22.6738974681 27.4981470781  4.2895325629 21.4660827506 27.8927479188  4.70632931335 21.9907708434 28.0806750375  6.904065 23.712593 29.137798  6.049530655 23.5794485671 29.17790744785  6.4572085 24.0701625 29.3683155  6.5379345 23.575053 29.680824  6.171804 23.437513 30.22385  5.683400154999999 23.4419085671 29.72093344785  6.091078 23.9326225 29.9113415  6.010352 24.427732 29.598833  5.602674155 23.9370180671 29.40842494785  2.4585049861 21.0941959629 26.05429654985  1.7736433393 21.25335809315 25.74876598325  1.7018 20.7491425 26.2269255  1.421189 21.199043 26.382856  2.1778939861 21.5440964629 26.21022704985  1.4930323393 21.70325859315 25.90469648325  2.2497373254 22.04831205605 25.7320675331  3.983419 19.316029 28.073164  4.5641521313 20.23525120545 28.67955230195  4.13647578145 20.3910558753 27.9829559594  4.8736411313 19.88982120545 28.49475330195  3.67393 19.661459 28.257963  3.364441 20.006889 28.442762  3.82698678145 20.7364858753 28.1677549594  5.02669791275 20.96484808075 28.40454526135  1.855477 19.77346 22.245756  1.9439296912 20.32051867875 23.3736478467  2.3198431912 20.24743367875 22.9054603467  1.6738605 20.415841 22.5104615  1.4795635 19.846545 22.7139435  1.492244 21.058222 22.775167  2.1382266912 20.88981467875 23.1701658467  1.297947 20.488926 22.978649  1.10365 19.91963 23.182131  4.22293402245 22.2238645607 28.4872838718  4.733779066749999 22.47868710975 28.84426740315  4.3169823163 21.95399901695 28.65634028445  3.8335870254 22.18709273425 29.06294911875  3.806137272 21.6991764679 28.2993567531  3.61206576755 21.6776163382 26.96517300925  3.7322034861 21.1220174629 26.15265654985  4.40967028145 20.9104838753 27.0802314594  4.7499965 21.0416595 26.2502555  4.529808 20.354885 26.267715  2.469481 19.17437 25.792868  2.04400806605 19.5338156563 25.0588812441  2.063837 18.808429 25.3059285  1.8874065 19.2918015 25.5623925  1.63836406605 19.1678746563 24.5719417441  1.4817625 18.9258605 25.075453  5.51949611345 21.6748845001 30.49732616505  6.5510595 20.508835 30.986287  4.521058 18.753788 30.22142  4.70701861345 19.9084955001 30.24481666505  4.117246 19.330779 30.407786  4.580970499999999 19.084981 30.6772985  4.640883 19.416174 31.133177  4.766931113449999 20.2396885001 30.70069516505  4.1771585 19.661972 30.8636645  3.713434 19.90777 30.594152  4.30320661345 20.4854865001 30.43118266505  3.6980571284 22.85877004795 29.56783673935  3.6666000932 23.8521963693 29.62569446205  3.72161378145 20.7137818753 27.4825384594  3.8417515 20.158183 26.670022  3.153695 19.961481 27.072329  3.0441469861 20.9253154629 26.55496354985  5.57371599885 21.60676832385 27.0790659556  3.139161 20.379963 29.473085  3.23095149055 21.1561165926 29.0895252937  2.749554 20.9029415 29.4863795  2.8918245 20.607353 28.896689  0.490433 22.891573 25.612312  0.9890748393 22.34668159315 26.10560648325  1.0429003393 22.99570409315 26.00223448325  1.0276543393 22.54952359315 25.51942448325  0.4518535 22.688731 26.198494  0.4670995 23.1349115 26.681304  0.505679 23.3377535 26.095122  0.520925 23.783934 26.577932  0.413274 22.485889 26.784676  2.153213 21.145361 27.127131  2.1375649861 21.8008009629 26.63841054985  2.5439059861 21.5172554629 26.58236454985  2.45744811615 22.01322253185 27.16051564545  1.746872 21.4289065 27.183177  1.340531 21.712452 27.239223  2.051
[...]
<PointData  Scalars="p"> 
<DataArray  type="Float64"  Name="p"  format="ascii">0.0000000000000000e+00  0.0000000000000000e+00  0.0000000000000000e+00  0.0000000000000000e+00  0.0000000000000000e+00  0.0000000000000000e+00  0.0000000000000000e+00  0.0000000000000000e+00  0.0000000000000000e+00  0.0000000000000000e+00  0.0000000000000000e+00  0.0000000000000000e+00  0.0000000000000000e+00  0.0000000000000000e+00  0.0000000000000000e+00  0.0000000000000000e+00  0.0000000000000000e+00  0.0000000000000000e+00  0.0000000000000000e+00  0.0000000000000000e+00  0.0000000000000000e+00  0.0000000000000000e+00  0.0000000000000000e+00  0.0000000000000000e+00  0.0000000000000000e+00  0.0000000000000000e+00  0.0000000000000000e+00  0.0000000000000000e+00  0.0000000000000000e+00  0.0000000000000000e+00  0.0000000000000000e+00  0.0000000000000000e+00  0.0000000000000000e+00  0.0000000000000000e+00  0.0000000000000000e+00  0.0000000000000000e+00  0.0000000000000000e+00  0.0000000000000000e+00  0.0000000000000000e+00  0.0000000000000000e+00  0.0000000000000000e+00  0.0000000000000000e+00  0.0000000000000000e+00  0.0000000000000000e+00  0.0000000000000000e+00  0.0000000000000000e+00  0.0000000000000000e+00  0.0000000000000000e+00  0.0000000000000000e+00  0.0000000000000000e+00  0.0000000000000000e+00  0.0000000000000000e+00  0.0000000000000000e+00  0.0000000000000000e+00  0.0000000000000000e+00  0.0000000000000000e+00  0.0000000000000000e+00  0.0000000000000000e+00  0.0000000000000000e+00  0.0000000000000000e+00  0.0000000000000000e+00  0.0000000000000000e+00  0.0000000000000000e+00  0.0000000000000000e+00  0.0000000000000000e+00  0.0000000000000000e+00  0.0000000000000000e+00  0.0000000000000000e+00  0.0000000000000000e+00  0.0000000000000000e+00  0.0000000000000000e+00  0.0000000000000000e+00  0.0000000000000000e+00  0.0000000000000000e+00  0.0000000000000000e+00  0.0000000000000000e+00  0.0000000000000000e+00  0.0000000000000000e+00  0.0000000000000000e+00  0.0000000000000000e+00  0.0000000000000000e+00  0.0000000000000000e+00  0.0000000000000000e+00  0.0000000000000000e+00  0.0000000000000000e+00  0.0000000000000000e+00  0.0000000000000000e+00  0.0000000000000000e+00  0.0000000000000000e+00  0.0000000000000000e+00  0.0000000000000000e+00  0.0000000000000000e+00  0.0000000000000000e+00  0.0000000000000000e+00  0.0000000000000000e+00  0.0000000000000000e+00  0.0000000000000000e+00  0.0000000000000000e+00  0.0000000000000000e+00  0.0000000000000000e+00  0.0000000000000000e+00  0.0000000000000000e+00  0.0000000000000000e+00  0.0000000000000000e+00  0.0000000000000000e+00  0.0000000000000000e+00  0.0000000000000000e+00  0.0000000000000000e+00  0.0000000000000000e+00  0.0000000000000000e+00  0.0000000000000000e+00  0.0000000000000000e+00  0.0000000000000000e+00  0.0000000000000000e+00  0.0000000000000000e+00  0.0000000000000000e+00  0.0000000000000000e+00  0.0000000000000000e+00  0.0000000000000000e+00  0.0000000000000000e+00  0.0000000000000000e+00  0.0000000000000000e+00  0.0000000000000000e+00  0.0000000000000000e+00  0.0000000000000000e+00  0.0000000000000000e+00  0.0000000000000000e+00  0.0000000000000000e+00  0.0000000000000000e+00  0.0000000000000000e+00  0.0000000000000000e+00  0.0000000000000000e+00  0.0000000000000000e+00  0.0000000000000000e+00  0.0000000000000000e+00  0.0000000000000000e+00  0.0000000000000000e+00  0.0000000000000000e+00  0.0000000000000000e+00  0.0000000000000000e+00  0.0000000000000000e+00  0.0000000000000000e+00  0.0000000000000000e+00  0.0000000000000000e+00  0.0000000000000000e+00  0.0000000000000000e+00  0.0000000000000000e+00  0.0000000000000000e+00  0.0000000000000000e+00  0.0000000000000000e+00  0.0000000000000000e+00  0.0000000000000000e+00  0.0000000000000000e+00  0.0000000000000000e+00  0.0000000000000000e+00  0.0000000000000000e+00  0.0000000000000000e+00  0.0000000000000000e+00  0.0000000000000000e+00  0.0000000000000000e+00  0.0000000000000000e+00  0.0000000000000000e+00  0.0000000000000000e+00  0.0000000000000000e+00  0.0000000000000000e+00  0.0000000000000000e+00  0.0000000000000000e+00  0.0000000000000000e+00  0.0000000000000000e+00  0.0000000000000000e+00  0.0000000000000000e+00  0.0000000000000000e+00  0.0000000000000000e+00  0.0000000000000000e+00  0.0000000000000000e+00  0.0000000000000000e+00  0.0000000000000000e+00  0.0000000000000000e+00  0.0000000000000000e+00  0.0000000000000000e+00  0.0000000000000000e+00  0.0000000000000000e+00  0.0000000000000000e+00  0.0000000000000000e+00  0.0000000000000000e+00  0.0000000000000000e+00  0.0000000000000000e+00  0.0000000000000000e+00  0.0000000000000000e+00  0.0000000000000000e+00  0.0000000000000000e+00  0.0000000000000000e+00  0.0000000000000000e+00  0.0000000000000000e+00  0.0000000000000000e+00  0.0000000000000000e+00  0.0000000000000000e+00  0.0000000000000000e+00  0.0000000000000000e+00  0.0000000000000000e+00  0.0000000000000000e+00  0.0000000000000000e+00  0.0000000000000000e+00  0.0000000000000000e+00  0.0000000000000000e+00  0.0000000000000000e+00  0.0000000000000000e+00  0.0000000000000000e+00  0.0000000000000000e+00  0.0000000000000000e+00  0.0000000000000000e+00  0.0000000000000000e+00  0.0000000000000000e+00  0.0000000000000000e+00  0.0000000000000000e+00  0.0000000000000000e+00  0.0000000000000000e+00  0.0000000000000000e+00  0.0000000000000000e+00  0.0000000000000000e+00  0.0000000000000000e+00  0.0000000000000000e+00  0.0000000000000000e+00  0.0000000000000000e+00  0.0000000000000000e+00  0.0000000000000000e+00  0.0000000000000000e+00  0.0000000000000000e+00  0.0000000000000000e+00  0.0000000000000000e+00  0.0000000000000000e+00  0.0000000000000000e+00  0.0000000000000000e+00  0.0000000000000000e+00  0.0000000000000000e+00  0.0000000000000000e+00  0.0000000000000000e+00  0.0000000000000000e+00  0.0000000000000000e+00  0.0000000000000000e+00  0.0000000000000000e+00  0.0000000000000000e+00  0.0000000000000000e+00  0.0000000000000000e+00  0.0000000000000000e+00  0.0000000000000000e+00  0.0000000000000000e+00  0.0000000000000000e+00  0.0000000000000000e+00  0.0000000000000000e+00  0.0000000000000000e+00  0.0000000000000000e+00  0.0000000000000000e+00  0.0000000000000000e+00  0.0000000000000000e+00  0.0000000000000000e+00  0.0000000000000000e+00  0.0000000000000000e+00  0.0000000000000000e+00  0.0000000000000000e+00  0.0000000000000000e+00  0.0000000000000000e+00  0.0000000000000000e+00  0.0000000000000000e+00  0.0000000000000000e+00  0.0000000000000000e+00  0.0000000000000000e+00  0.0000000000000000e+00  0.0000000000000000e+00  0.0000000000000000e+00  0.0000000000000000e+00  0.0000000000000000e+00  0.0000000000000000e+00  0.0000000000000000e+00  0.0000000000000000e+00  0.0000000000000000e+00  0.0000000000000000e+00  0.0000000000000000e+00  0.0000000000000000e+00  0.0000000000000000e+00  0.0000000000000000e+00  0.0000000000000000e+00  0.0000000000000000e+00  0.0000000000000000e+00  0.0000000000000000e+00  0.0000000000000000e+00  0.0000000000000000e+00  0.0000000000000000e+00  0.0000000000000000e+00  0.0000000000000000e+00  0.0000000000000000e+00  0.0000000000000000e+00  0.0000000000000000e+00  0.0000000000000000e+00  0.0000000000000000e+00  0.0000000000000000e+00  0.0000000000000000e+00  0.0000000000000000e+00  0.0000000000000000e+00  0.0000000000000000e+00  0.0000000000000000e+00  0.0000000000000000e+00  0.0000000000000000e+00  0.0000000000000000e+00  0.0000000000000000e+00  0.0000000000000000e+00  0.0000000000000000e+00  0.0000000000000000e+00  0.0000000000000000e+00  0.0000000000000000e+00  0.0000000000000000e+00  0.0000000000000000e+00  0.0000000000000000e+00  0.0000000000000000e+00  0.0000000000000000e+00  0.0000000000000000e+00  0.0000000000000000e+00  0.0000000000000000e+00  0.0000000000000000e+00  0.0000000000000000e+00  0.0000000000000000e+00  0.0000000000000000e+00  0.0000000000000000e+00  0.0000000000000000e+00  0.0000000000000000e+00  0.0000000000000000e+00  0.0000000000000000e+00  0.0000000000000000e+00  0.0000000000000000e+00  0.0000000000000000e+00  0.0000000000000000e+00  0.0000000000000000e+00  0.0000000000000000e+00  0.0000000000000000e+00  0.0000000000000000e+00  0.0000000000000000e+00  0.0000000000000000e+00  0.0000000000000000e+00  0.0000000000000000e+00  0.0000000000000000e+00  0.0000000000000000e+00  0.0000000000000000e+00  0.0000000000000000e+00  0.0000000000000000e+00  0.0000000000000000e+00  0.0000000000000000e+00  0.0000000000000000e+00  0.0000000000000000e+00  0.0000000000000000e+00  0.0000000000000000e+00  0.0000000000000000e+00  0.0000000000000000e+00  0.0000000000000000e+00  0.0000000000000000e+00  0.0000000000000000e+00  0.0000000000000000e+00  0.0000000000000000e+00  0.0000000000000000e+00  0.0000000000000000e+00  0.0000000000000000e+00  0.0000000000000000e+00  0.0000000000000000e+00  0.0000000000000000e+00  0.0000000000000000e+00  0.0000000000000000e+00  0.0000000000000000e+00  0.0000000000000000e+00  0.0000000000000000e+00  0.0000000000000000e+00  0.0000000000000000e+00  0.0000000000000000e+00  0.0000000000000000e+00  0.0000000000000000e+00  0.0000000000000000e+00  0.0000000000000000e+00  0.0000000000000000e+00  0.0000000000000000e+00  0.0000000000000000e+00  0.0000000000000000e+00  0.0000000000000000e+00  0.0000000000000000e+00  0.0000000000000000e+00  0.0000000000000000e+00  0.0000000000000000e+00  0.0000000000000000e+00  0.0000000000000000e+00  0.0000000000000000e+00  0.0000000000000000e+00  0.0000000000000000e+00  0.0000000000000000e+00  0.0000000000000000e+00  0.0000000000000000e+00  0.0000000000000000e+00  0.0000000000000000e+00  0.0000000000000000e+00  0.0000000000000000e+00  0.0000000000000000e+00  0.0000000000000000e+00  0.0000000000000000e+00  0.0000000000000000e+00  0.0000000000000000e+00  0.0000000000000000e+00  0.0000000000000000e+00  0.0000000000000000e+00  0.0000000000000000e+00  0.0000000000000000e+00  0.0000000000000000e+00  0.0000000000000000e+00  0.0000000000000000e+00  0.0000000000000000e+00  0.0000000000000000e+00  0.0000000000000000e+00  0.0000000000000000e+00  0.0000000000000000e+00  0.0000000000000000e+00  0.0000000000000000e+00  0.0000000000000000e+00  0.0000000000000000e+00  0.0000000000000000e+00  0.0000000000000000e+00  0.0000000000000000e+00  0.0000000000000000e+00  0.0000000000000000e+00  0.0000000000000000e+00  0.0000000000000000e+00  0.0000000000000000e+00  0.0000000000000000e+00  0.0000000000000000e+00  0.0000000000000000e+00  0.0000000000000000e+00  0.0000000000000000e+00  0.0000000000000000e+00  0.0000000000000000e+00  0.0000000000000000e+00  0.0000000000000000e+00  0.0000000000000000e+00  0.0000000000000000e+00  0.0000000000000000e+00  0.0000000000000000e+00  0.0000000000000000e+00  0.0000000000000000e+00  0.0000000000000000e+00  0.0000000000000000e+00  0.0000000000000000e+00  0.0000000000000000e+00  0.0000000000000000e+00  0.0000000000000000e+00  0.0000000000000000e+00  0.0000000000000000e+00  0.0000000000000000e+00  0.0000000000000000e+00  0.0000000000000000e+00  0.0000000000000000e+00  0.0000000000000000e+00  0.0000000000000000e+00  0.0000000000000000e+00  0.0000000000000000e+00  0.0000000000000000e+00  0.0000000000000000e+00  0.0000000000000000e+00  0.0000000000000000e+00  0.0000000000000000e+00  0.0000000000000000e+00  0.0000000000000000e+00  0.0000000000000000e+00  0.0000000000000000e+00  0.0000000000000000e+00  0.0000000000000000e+00  0.0000000000000000e+00  0.0000000000000000e+00  0.0000000000000000e+00  0.0000000000000000e+00  0.0000000000000000e+00  0.0000000000000000e+00  0.0000000000000000e+00  0.0000000000000000e+00  0.0000000000000000e+00  0.0000000000000000e+00  0.0000000000000000e+00  0.0000000000000000e+00  0.0000000000000000e+00  0.0000000000000000e+00  0.0000000000000000e+00  0.0000000000000000e+00  0.0000000000000000e+00  0.0000000000000000e+00  0.0000000000000000e+00  0.0000000000000000e+00  0.0000000000000000e+00  0.0000000000000000e+00  0.0000000000000000e+00  0.0000000000000000e+00  0.0000000000000000e+00  0.0000000000000000e+00  0.0000000000000000e+00  0.0000000000000000e+00  0.0000000000000000e+00  0.0000000000000000e+00  0.0000000000000000e+00  0.0000000000000000e+00  0.0000000000000000e+00  0.0000000000000000e+00  0.0000000000000000e+00  0.0000000000000000e+00  0.0000000000000000e+00  0.0000000000000000e+00  0.0000000000000000e+00  0.0000000000000000e+00  0.0000000000000000e+00  0.0000000000000000e+00  0.0000000000000000e+00  0.0000000000000000e+00  0.0000000000000000e+00  0.0000000000000000e+00  0.0000000000000000e+00  0.0000000000000000e+00  0.0000000000000000e+00  0.0000000000000000e+00  0.0000000000000000e+00  0.0000000000000000e+00  0.0000000000000000e+00  0.0000000000000000e+00  0.0000000000000000e+00  0.0000000000000000e+00  0.0000000000000000e+00  0.0000000000000000e+00  0.0000000000000000e+00  0.0000000000000000e+00  0.0000000000000000e+00  0.0000000000000000e+00  0.0000000000000000e+00  0.0000000000000000e+00  0.0000000000000000e+00  0.0000000000000000e+00  0.0000000000000000e+00  0.0000000000000000e+00  0.0000000000000000e+00  0.0000000000000000e+00  0.0000000000000000e+00  0.0000000000000000e+00  0.0000000000000000e+00  0.0000000000000000e+00  0.0000000000000000e+00  0.0000000000000000e+00  0.0000000000000000e+00  0.0000000000000000e+00  0.0000000000000000e+00  0.0000000000000000e+00  0.0000000000000000e+00  0.0000000000000000e+00  0.0000000000000000e+00  0.0000000000000000e+00  0.0000000000000000e+00  0.0000000000000000e+00  0.0000000000000000e+00  0.0000000000000000e+00  0.0000000000000000e+00  0.0000000000000000e+00  0.0000000000000000e+00  0.0000000000000000e+00  0.0000000000000000e+00  0.0000000000000000e+00  0.0000000000000000e+00  0.0000000000000000e+00  0.0000000000000000e+00  0.0000000000000000e+00  0.0000000000000000e+00  0.0000000000000000e+00  0.0000000000000000e+00  0.0000000000000000e+00  0.0000000000000000e+00  0.0000000000000000e+00  0.0000000000000000e+00  0.0000000000000000e+00  0.0000000000000000e+00  0.0000000000000000e+00  0.0000000000000000e+00  0.0000000000000000e+00  0.0000000000000000e+00  0.0000000000000000e+00  0.0000000000000000e+00  0.0000000000000000e+00  0.0000000000000000e+00  0.0000000000000000e+00  0.0000000000000000e+00  0.0000000000000000e+00  0.0000000000000000e+00  0.0000000000000000e+00  0.0000000000000000e+00  0.0000000000000000e+00  0.0000000000000000e+00  0.0000000000000000e+00  0.0000000000000000e+00  0.0000000000000000e+00  0.0000000000000000e+00  0.0000000000000000e+00  0.0000000000000000e+00  0.0000000000000000e+00  0.0000000000000000e+00  0.0000000000000000e+00  0.0000000000000000e+00  0.0000000000000000e+00  0.0000000000000000e+00  0.0000000000000000e+00  0.0000000000000000e+00  0.0000000000000000e+00  0.0000000000000000e+00  0.0000000000000000e+00  0.0000000000000000e+00  0.0000000000000000e+00  0.0000000000000000e+00  0.0000000000000000e+00  0.0000000000000000e+00  0.0000000000000000e+00  0.0000000000000000e+00  0.0000000000000000e+00  0.0000000000000000e+00  0.0000000000000000e+00  0.0000000000000000e+00  0.0000000000000000e+00  0.0000000000000000e+00  0.0000000000000000e+00  0.0000000000000000e+00  0.0000000000000000e+00  0.0000000000000000e+00  0.0000000000000000e+00  0.0000000000000000e+00  0.0000000000000000e+00  0.0000000000000000e+00  0.0000000000000000e+00  0.0000000000000000e+00  0.0000000000000000e+00  0.0000000000000000e+00  0.0000000000000000e+00  0.0000000000000000e+00  0.0000000000000000e+00  0.0000000000000000e+00  0.0000000000000000e+00  0.0000000000000000e+00  0.0000000000000000e+00  0.0000000000000000e+00  0.0000000000000000e+00  0.0000000000000000e+00  0.0000000000000000e+00  0.0000000000000000e+00  0.0000000000000000e+00  0.0000000000000000e+00  0.0000000000000000e+00  0.0000000000000000e+00  0.0000000000000000e+00  0.0000000000000000e+00  0.0000000000000000e+00  0.0000000000000000e+00  0.0000000000000000e+00  0.0000000000000000e+00  0.0000000000000000e+00  0.0000000000000000e+00  0.0000000000000000e+00  0.0000000000000000e+00  0.0000000000000000e+00  0.0000000000000000e+00  0.0000000000000000e+00  0.0000000000000000e+00  0.0000000000000000e+00  0.0000000000000000e+00  0.0000000000000000e+00  0.0000000000000000e+00  0.0000000000000000e+00  0.0000000000000000e+00  0.0000000000000000e+00  0.0000000000000000e+00  0.0000000000000000e+00  0.0000000000000000e+00  0.0000000000000000e+00  0.0000000000000000e+00  0.0000000000000000e+00  0.0000000000000000e+00  0.0000000000000000e+00  0.0000000000000000e+00  0.0000000000000000e+00  0.0000000000000000e+00  0.0000000000000000e+00  0.0000000000000000e+00  0.0000000000000000e+00  0.0000000000000000e+00  0.0000000000000000e+00  0.0000000000000000e+00  0.0000000000000000e+00  0.0000000000000000e+00  0.0000000000000000e+00  0.0000000000000000e+00  0.0000000000000000e+00  0.0000000000000000e+00  0.0000000000000000e+00  0.0000000000000000e+00  0.0000000000000000e+00  0.0000000000000000e+00  0.0000000000000000e+00  0.0000000000000000e+00  0.0000000000000000e+00  0.0000000000000000e+00  0.0000000000000000e+00  0.0000000000000000e+00  0.0000000000000000e+00  0.0000000000000000e+00  0.0000000000000000e+00  0.0000000000000000e+00  0.0000000000000000e+00  0.0000000000000000e+00  0.0000000000000000e+00  0.0000000000000000e+00  0.0000000000000000e+00  0.0000000000000000e+00  0.0000000000000000e+00  0.0000000000000000e+00  0.0000000000000000e+00  0.0000000000000000e+00  0.0000000000000000e+00  0.0000000000000000e+00  0.0000000000000000e+00  0.0000000000000000e+00  0.0000000000000000e+00  0.0000000000000000e+00  0.0000000000000000e+00  0.0000000000000000e+00  0.0000000000000000e+00  0.0000000000000000e+00  0.0000000000000000e+00  0.0000000000000000e+00  0.0000000000000000e+00  0.0000000000000000e+00  0.0000000000000000e+00  0.0000000000000000e+00  0.0000000000000000e+00  0.0000000000000000e+00  0.0000000000000000e+00  0.0000000000000000e+00  0.0000000000000000e+00  0.0000000000000000e+00  0.0000000000000000e+00  0.0000000000000000e+00  0.0000000000000000e+00  0.0000000000000000e+00  0.0000000000000000e+00  0.0000000000000000e+00  0.0000000000000000e+00  0.0000000000000000e+00  0.0000000000000000e+00  0.0000000000000000e+00  0.0000000000000000e+00  0.0000000000000000e+00  0.0000000000000000e+00  0.0000000000000000e+00  0.0000000000000000e+00  0.0000000000000000e+00  0.0000000000000000e+00  0.0000000000000000e+00  0.0000000000000000e+00  0.0000000000000000e+00  0.0000000000000000e+00  0.0000000000000000e+00  0.0000000000000000e+00  0.0000000000000000e+00  0.0000000000000000e+00  0.0000000000000000e+00  0.0000000000000000e+00  0.0000000000000000e+00  0.0000000000000000e+00  0.0000000000000000e+00  0.0000000000000000e+00  0.0000000000000000e+00  0.0000000000000000e+00  0.0000000000000000e+00  0.0000000000000000e+00  0.0000000000000000e+00  0.0000000000000000e+00  0.0000000000000000e+00  0.0000000000000000e+00  0.0000000000000000e+00  0.0000000000000000e+00  0.0000000000000000e+00  0.0000000000000000e+00  0.0000000000000000e+00  0.0000000000000000e+00  0.0000000000000000e+00  0.0000000000000000e+00  0.0000000000000000e+00  0.0000000000000000e+00  0.0000000000000000e+00  0.0000000000000000e+00  0.0000000000000000e+00  0.0000000000000000e+00  0.0000000000000000e+00  0.0000000000000000e+00  0.0000000000000000e+00  0.0000000000000000e+00  0.0000000000000000e+00  0.0000000000000000e+00  0.0000000000000000e+00  0.0000000000000000e+00  0.0000000000000000e+00  0.0000000000000000e+00  0.0000000000000000e+00  0.0000000000000000e+00  0.0000000000000000e+00  0.0000000000000000e+00  0.0000000000000000e+00  0.0000000000000000e+00  0.0000000000000000e+00  0.0000000000000000e+00  0.0000000000000000e+00  0.0000000000000000e+00  0.0000000000000000e+00  0.0000000000000000e+00  0.0000000000000000e+00  0.0000000000000000e+00  0.0000000000000000e+00  0.0000000000000000e+00  0.0000000000000000e+00  0.0000000000000000e+00  0.0000000000000000e+00  0.0000000000000000e+00  0.0000000000000000e+00  0.0000000000000000e+00  0.0000000000000000e+00  0.0000000000000000e+00  0.0000000000000000e+00  0.0000000000000000e+00  0.0000000000000000e+00  0.0000000000000000e+00  0