<?xml version="1.0"?>
<VTKFile type="UnstructuredGrid"  version="0.1"  >
<UnstructuredGrid>
<Piece  NumberOfPoints="8476" NumberOfCells="37421">
<Points>
<DataArray  type="Float64"  NumberOfComponents="3"  format="ascii">18.8280468444 2.4898470874 28.3324248887  19.70270711925 3.70735858915 28.278491396  18.7616423961 3.12397877535 28.7177542212  18.64154816655 3.29187805895 28.010933869  19.76911156755 3.0732269012 27.8931620635  18.4550494887 4.0939090305 27.6894428493  19.5826128897 3.87525787275 27.5716710438  18.57514371825 3.9260097469 28.3962632015  18.6952379478 3.7581104633 29.1030835537  20.084337 2.38593 26.764826  20.280651 1.6020655 27.854133  19.656205 1.9195 27.837037  20.16798 1.691548 26.9372905  20.197008 2.2964475 27.6816685  19.543534 2.0089825 26.9201945  20.309679 2.206965 28.598511  19.002731 1.632035 27.075563  19.627177 1.3146005 27.092659  20.251623 0.997166 27.109755  20.93512 1.678835 28.136913  20.7325675 0.6910704999999999 27.7448045  20.4963035 1.1779975 28.0389805  20.5933715 1.3380005 27.623334  21.171384 1.191908 27.842737  20.154555 0.837163 27.5254015  20.8296355 0.8510735 27.329158  21.407648 0.704981 27.548561  20.057487 0.67716 27.941048  20.6223995 1.9429 28.367712  20.083144 1.813701 28.6555205  19.42967 1.526236 27.8940465  20.054116 1.2088015 27.9111425  19.856609 1.420437 28.71253  18.902525 5.733763 28.749542  19.02344974435 4.51539301525 28.51530442465  19.7526104157 4.88115827895 28.3725966163  19.4079479157 5.27960127895 28.0767846163  18.67878724435 4.91383601525 28.21949242465  19.2471875 5.335319999999999 29.045354  19.59185 4.936877 29.341166  19.9133708314 4.8254395579 27.4040272326  19.18421016005 4.4596742942 27.54673504095  17.388044 5.925519 27.510271  17.63769414695 4.45691748305 26.95764938615  17.52646824435 4.69322101525 27.81226992465  17.92154674435 5.00971401525 27.59985692465  16.9929655 5.609026 27.722684  16.597887 5.292533 27.935097  20.84656 3.059537 28.708565  19.8373034222 2.7746920437 28.52049494435  19.7708989739 3.40882373165 28.90582427685  19.530109 1.1545975 27.5083055  19.957048 1.0487985 28.326789  18.458006 6.402479 27.773632  18.1726850545 5.4790908842 27.29566432775  18.120147 5.9249825 28.0701085  17.923025 6.163999 27.6419515  17.585166 5.6865025 27.938428  17.782288 5.447486 28.366585  17.6917104571 5.165310851999999 26.22529978925  17.9755630545 5.7181073842 26.86750732775  17.2334984026 5.7774734678 26.6907479615  18.563082109 5.5106957684 26.2247436555  19.0385245 1.116896 27.827994  18.979144 1.1180995 27.34127  19.4654635 1.011097 28.6464775  19.406083 1.0123005 28.1597535  18.955557 0.604164 27.606977  19.0149375 0.6029605 28.093701  19.074318 0.601757 28.580425  19.60359 0.800665 27.358366  19.506522 0.6406620000000001 27.7740125  19.5659025 0.6394584999999999 28.2607365  20.3958645 1.549636 28.4247215  18.195951 3.191298 26.325089  18.32550024435 3.64260351525 27.00726592465  18.3795165545 4.3509968842 26.27491632775  17.5081449026 4.0056119678 26.2754724615  18.50906579885 4.802302399449999 26.9570932524  18.11866874435 4.770697515249999 28.02801392465  19.149855 2.964456 26.697031  19.93001564535 3.3105313575 27.07546511915  19.5316129157 3.89494777895 27.0505291163  18.80245224435 3.52918251525 27.19323692465  18.24962 3.666924 25.314665  17.7203045 3.404083 25.5258295  18.2227855 3.429111 25.819877  17.69347 3.16627 26.0310415  17.190989 3.141242 25.736994  18.45652774435 5.24819401525 27.73153742465  19.1856884157 5.61395927895 27.5888296163  18.6802655 6.068121 28.261587  20.11022 3.783091 29.510555  19.4027289739 3.77060073165 29.30681927685  19.4691334222 3.1364690437 28.92148994435  20.47839 3.421314 29.10956  19.4561919222 2.4378885437 27.54862544435  19.5688629222 2.3484060437 28.46546794435  19.177937 3.849252 25.934355  18.4063510545 4.5888098842 25.76970432775  18.8705095545 4.6799738842 26.07954932775  18.7137785 3.758088 25.62451  18.686944 3.520275 26.129722  18.35313424435 3.20888251525 27.28819792465  18.672903 3.077877 26.51106  18.700537 2.644156 26.791992  18.223585 2.757577 26.606021  18.251219 2.323856 26.886953  18.9889509222 2.7271515437 27.51472794435  19.076293 2.2982455 26.886297  18.5396329222 2.4068515437 27.60968894435  18.626975 1.9779455 26.981258  18.9153889222 2.0609410437 27.70399394435  18.9511824222 1.5458020437 28.45642494435  18.8918019222 1.5470055437 27.96970094435  20.372223 2.808632 29.1057485  20.004053 3.170409 29.5067435  19.897886 2.557727 29.502932  19.3629664222 2.5237870437 28.91767844435  19.3043043896 4.2917750106 28.25355539315  20.0117954157 4.30426527895 28.4572911163  19.096025 4.273391 25.045582  18.6728225 3.9701575 25.1801235  19.136981 4.0613215 25.4899685  18.8295535545 4.8920433842 25.63516282775  19.2965619739 3.15791873165 29.30300777685  18.3424065 5.5906245 28.5580635  20.328304 3.487699 26.121637  19.7390795 3.2260775 26.409334  18.7988814739 4.74593673165 28.92631277685  19.1435439739 4.34749373165 29.22212477685  17.8588234739 4.35454523165 29.02225727685  17.73872924435 4.52244451525 28.31543692465  18.2387629739 4.60279823165 28.73483427685  17.4023485 5.199233 28.654008  17.022409 4.95098 28.941431  19.851035 4.359984 29.4258605  19.617096 2.675193 26.7309285  19.163896 3.406854 26.315693  19.7531205 3.6684755 26.027996  19.384308 6.459585 28.213907  19.1434165 6.096674 28.4817245  18.921157 6.431032 27.9937695  19.504595 5.903343 28.786127  19.7454865 6.266254 28.5183095  20.106665 6.072923 28.822712  19.8492575 5.5049 29.081939  20.1851205 4.774664 29.21114  20.778391 4.612451 29.081114  20.4443055 4.197771 29.2958345  18.0134935 5.2381595 29.031107  18.244699 5.028833 29.695629  18.4699684739 4.39347173165 29.39935627685  17.633554 4.9899065 29.31853  18.9182745 4.982855 29.5183975  18.573612 5.381297999999999 29.2225855  17.64127 1.30374 27.334593  18.4362209222 1.4650575437 28.26295694435  18.2346584222 1.8967935437 27.83350894435  18.2984135 0.9539519999999999 27.470785  17.8428325 0.872004 27.764041  18.499976 0.522216 27.900233  18.044395 0.440268 28.193489  19.3423279222 1.9551420437 28.52247744435  19.8772475 1.989082 29.107731  20.1037825 2.382346 29.0507215  19.0105379222 1.9590760437 29.03014044435  19.5454575 1.993016 29.615394  19.524819 1.424371 29.220193  19.193029 1.428305 29.727856  20.5781195 2.633251 28.653538  17.1900875 5.3700095 28.150841  16.810148 5.1217565 28.438264  19.1336735 1.015031 29.1541405  18.3220005 1.4678875 27.205078  17.9462445 1.813798 27.110773  18.81649324435 3.97158051525 26.81189892465  20.442528 5.342687 28.951913  20.2063205 2.9368145 26.4432315  18.5593565 0.5210125 28.386957  18.02975889425 5.154359643099999 25.61638378645  18.562834 6.931257 32.090378  18.71710151395 6.80401483065 33.3478257453  17.85793567765 6.2668249214 32.733835114  18.36411832945 6.25875897855 33.25774053645  18.1654026589 5.5862609571 34.4251030729  18.0122031916 6.13958275205 33.9912828593  18.5183858434 6.131516809200001 34.51518828175  17.6592200071 5.59432689995 33.90119765045  17.1530373553 5.6023928428 33.377292228  18.8713690279 6.6767726613 34.6052734906  16.893433 9.050226 32.727936  17.3704604676 8.26112226515 33.56746193595  16.69885569995 7.96671131265 33.176816369  17.2641595 8.531572499999999 32.451609  17.634886 8.012919 32.175282  17.7411869676 7.74246876515 33.29113493595  17.06958219995 7.44805781265 32.900489369  16.5042783999 6.8831966253 33.625696738  17.17588316755 7.1776075778 34.01634230495  17.8474879352 7.4720185303 34.4069878719  12.848216 7.633997 35.110062  12.2665777617 6.5840074827 34.7883785686  12.1799422617 6.765354482699999 34.2982265686  12.9966947617 6.7747869827 34.7574360686  12.118099 7.443217499999999 35.1410045  12.0314635 7.6245645 34.6508525  11.214711 7.615132 34.191643  11.3013465 7.433785 34.681795  11.387982 7.252438 35.171947  13.1451735234 5.9155769654 34.4048101372  17.62138 6.645711 31.478065  17.79920044005 5.43117718595 31.86135751545  18.149192 5.6906835 31.2353765  17.610921 6.061918 31.160321  17.26092944005 5.80241168595 31.78630201545  18.159651 6.2744765 31.5531205  18.697922 5.903242 31.628176  17.600462 5.478125 30.842577  17.25047044005 5.21861868595 31.46855801545  16.9004788801 4.9591123719 32.0945390309  13.985016 7.223471 35.310749  14.15402094245 6.297318254 34.30936914095  13.9050065612 7.08233554635 34.54489891365  14.57394218075 6.9512652713 34.76233857235  13.5650947617 6.5695239827 34.8577795686  13.4850853229 6.42838852905 34.09192948225  15.1628683615 6.6790595426 34.2139281447  14.49393274195 6.81012981765 33.996488486  13.8249971224 6.9412000927 33.7790488273  14.141278 2.757101 33.034393  14.9511477053 3.05025717365 31.89340447795  14.6220409303 3.8214679178 32.1935523217  14.1417215139 3.17718881185 32.1334577939  15.4310236078 3.27444846775 32.85443421185001  14.9507041914 2.6301693618 32.79433968405  14.6215974164 3.40138010595 33.0944875278  15.1019168328 4.0456592119 33.1545820556  15.7601303828 2.5032377236 32.5542863681  14.1421650278 3.5972766237 31.2325225878  13.599271 3.561223 33.478668  13.37533631455 4.331504589150001 33.9994453919  13.8809273072 4.2424203476 34.4512422142  13.66651081455 4.249408589150001 33.5649628919  13.3080965 3.643319 33.9131505  14.1721018072 4.1603243476 34.0167597142  13.016922 3.725415 34.347633  14.7449326144 4.7594256952 34.5548514284  14.23934162175 4.84850993675 34.1030546061  13.7337506291 4.9375941783 33.6512577838  15.5402617636 6.371969834650001 33.3451916858  16.13568229485 6.15860959655 33.70048986255  16.2109667828 6.474038376 33.05107598245  15.8335733807 6.78112808395 33.91981244135  15.46497727565 6.0565410552 33.9946055659  15.9176551657 6.0648801267 32.4764552269  15.84237067775 5.74945134725 33.125869107  15.7670861898 5.4340225678 33.7752829871  11.628658 5.504924 32.509418  12.38995273835 5.6659063523 33.3147067415  12.18319223835 6.0928018523 33.2331617415  12.19680723835 6.0559603523 32.73488574149999  11.615043 5.5417655 33.007694  11.8218035 5.11487 33.089239  11.601428 5.578607 33.505
[...]
<PointData  Scalars="p"> 
<DataArray  type="Float64"  Name="p"  format="ascii">0.0000000000000000e+00  0.0000000000000000e+00  0.0000000000000000e+00  0.0000000000000000e+00  0.0000000000000000e+00  0.0000000000000000e+00  0.0000000000000000e+00  0.0000000000000000e+00  0.0000000000000000e+00  0.0000000000000000e+00  0.0000000000000000e+00  0.0000000000000000e+00  0.0000000000000000e+00  0.0000000000000000e+00  0.0000000000000000e+00  0.0000000000000000e+00  0.0000000000000000e+00  0.0000000000000000e+00  0.0000000000000000e+00  0.0000000000000000e+00  0.0000000000000000e+00  0.0000000000000000e+00  0.0000000000000000e+00  0.0000000000000000e+00  0.0000000000000000e+00  0.0000000000000000e+00  0.0000000000000000e+00  0.0000000000000000e+00  0.0000000000000000e+00  0.0000000000000000e+00  0.0000000000000000e+00  0.0000000000000000e+00  0.0000000000000000e+00  0.0000000000000000e+00  0.0000000000000000e+00  0.0000000000000000e+00  0.0000000000000000e+00  0.0000000000000000e+00  0.0000000000000000e+00  0.0000000000000000e+00  0.0000000000000000e+00  0.0000000000000000e+00  0.0000000000000000e+00  0.0000000000000000e+00  0.0000000000000000e+00  0.0000000000000000e+00  0.0000000000000000e+00  0.0000000000000000e+00  0.0000000000000000e+00  0.0000000000000000e+00  0.0000000000000000e+00  0.0000000000000000e+00  0.0000000000000000e+00  0.0000000000000000e+00  0.0000000000000000e+00  0.0000000000000000e+00  0.0000000000000000e+00  0.0000000000000000e+00  0.0000000000000000e+00  0.0000000000000000e+00  0.0000000000000000e+00  0.0000000000000000e+00  0.0000000000000000e+00  0.0000000000000000e+00  0.0000000000000000e+00  0.0000000000000000e+00  0.0000000000000000e+00  0.0000000000000000e+00  0.0000000000000000e+00  0.0000000000000000e+00  0.0000000000000000e+00  0.0000000000000000e+00  0.0000000000000000e+00  0.0000000000000000e+00  0.0000000000000000e+00  0.0000000000000000e+00  0.0000000000000000e+00  0.0000000000000000e+00  0.0000000000000000e+00  0.0000000000000000e+00  0.0000000000000000e+00  0.0000000000000000e+00  0.0000000000000000e+00  0.0000000000000000e+00  0.0000000000000000e+00  0.0000000000000000e+00  0.0000000000000000e+00  0.0000000000000000e+00  0.0000000000000000e+00  0.0000000000000000e+00  0.0000000000000000e+00  0.0000000000000000e+00  0.0000000000000000e+00  0.0000000000000000e+00  0.0000000000000000e+00  0.0000000000000000e+00  0.0000000000000000e+00  0.0000000000000000e+00  0.0000000000000000e+00  0.0000000000000000e+00  0.0000000000000000e+00  0.0000000000000000e+00  0.0000000000000000e+00  0.0000000000000000e+00  0.0000000000000000e+00  0.0000000000000000e+00  0.0000000000000000e+00  0.0000000000000000e+00  0.0000000000000000e+00  0.0000000000000000e+00  0.0000000000000000e+00  0.0000000000000000e+00  0.0000000000000000e+00  0.0000000000000000e+00  0.0000000000000000e+00  0.0000000000000000e+00  0.0000000000000000e+00  0.0000000000000000e+00  0.0000000000000000e+00  0.0000000000000000e+00  0.0000000000000000e+00  0.0000000000000000e+00  0.0000000000000000e+00  0.0000000000000000e+00  0.0000000000000000e+00  0.0000000000000000e+00  0.0000000000000000e+00  0.0000000000000000e+00  0.0000000000000000e+00  0.0000000000000000e+00  0.0000000000000000e+00  0.0000000000000000e+00  0.0000000000000000e+00  0.0000000000000000e+00  0.0000000000000000e+00  0.0000000000000000e+00  0.0000000000000000e+00  0.0000000000000000e+00  0.0000000000000000e+00  0.0000000000000000e+00  0.0000000000000000e+00  0.0000000000000000e+00  0.0000000000000000e+00  0.0000000000000000e+00  0.0000000000000000e+00  0.0000000000000000e+00  0.0000000000000000e+00  0.0000000000000000e+00  0.0000000000000000e+00  0.0000000000000000e+00  0.0000000000000000e+00  0.0000000000000000e+00  0.0000000000000000e+00  0.0000000000000000e+00  0.0000000000000000e+00  0.0000000000000000e+00  0.0000000000000000e+00  0.0000000000000000e+00  0.0000000000000000e+00  0.0000000000000000e+00  0.0000000000000000e+00  0.0000000000000000e+00  0.0000000000000000e+00  0.0000000000000000e+00  0.0000000000000000e+00  0.0000000000000000e+00  0.0000000000000000e+00  0.0000000000000000e+00  0.0000000000000000e+00  0.0000000000000000e+00  0.0000000000000000e+00  0.0000000000000000e+00  0.0000000000000000e+00  0.0000000000000000e+00  0.0000000000000000e+00  0.0000000000000000e+00  0.0000000000000000e+00  0.0000000000000000e+00  0.0000000000000000e+00  0.0000000000000000e+00  0.0000000000000000e+00  0.0000000000000000e+00  0.0000000000000000e+00  0.0000000000000000e+00  0.0000000000000000e+00  0.0000000000000000e+00  0.0000000000000000e+00  0.0000000000000000e+00  0.0000000000000000e+00  0.0000000000000000e+00  0.0000000000000000e+00  0.0000000000000000e+00  0.0000000000000000e+00  0.0000000000000000e+00  0.0000000000000000e+00  0.0000000000000000e+00  0.0000000000000000e+00  0.0000000000000000e+00  0.0000000000000000e+00  0.0000000000000000e+00  0.0000000000000000e+00  0.0000000000000000e+00  0.0000000000000000e+00  0.0000000000000000e+00  0.0000000000000000e+00  0.0000000000000000e+00  0.0000000000000000e+00  0.0000000000000000e+00  0.0000000000000000e+00  0.0000000000000000e+00  0.0000000000000000e+00  0.0000000000000000e+00  0.0000000000000000e+00  0.0000000000000000e+00  0.0000000000000000e+00  0.0000000000000000e+00  0.0000000000000000e+00  0.0000000000000000e+00  0.0000000000000000e+00  0.0000000000000000e+00  0.0000000000000000e+00  0.0000000000000000e+00  0.0000000000000000e+00  0.0000000000000000e+00  0.0000000000000000e+00  0.0000000000000000e+00  0.0000000000000000e+00  0.0000000000000000e+00  0.0000000000000000e+00  0.0000000000000000e+00  0.0000000000000000e+00  0.0000000000000000e+00  0.0000000000000000e+00  0.0000000000000000e+00  0.0000000000000000e+00  0.0000000000000000e+00  0.0000000000000000e+00  0.0000000000000000e+00  0.0000000000000000e+00  0.0000000000000000e+00  0.0000000000000000e+00  0.0000000000000000e+00  0.0000000000000000e+00  0.0000000000000000e+00  0.0000000000000000e+00  0.0000000000000000e+00  0.0000000000000000e+00  0.0000000000000000e+00  0.0000000000000000e+00  0.0000000000000000e+00  0.0000000000000000e+00  0.0000000000000000e+00  0.0000000000000000e+00  0.0000000000000000e+00  0.0000000000000000e+00  0.0000000000000000e+00  0.0000000000000000e+00  0.0000000000000000e+00  0.0000000000000000e+00  0.0000000000000000e+00  0.0000000000000000e+00  0.0000000000000000e+00  0.0000000000000000e+00  0.0000000000000000e+00  0.0000000000000000e+00  0.0000000000000000e+00  0.0000000000000000e+00  0.0000000000000000e+00  0.0000000000000000e+00  0.0000000000000000e+00  0.0000000000000000e+00  0.0000000000000000e+00  0.0000000000000000e+00  0.0000000000000000e+00  0.0000000000000000e+00  0.0000000000000000e+00  0.0000000000000000e+00  0.0000000000000000e+00  0.0000000000000000e+00  0.0000000000000000e+00  0.0000000000000000e+00  0.0000000000000000e+00  0.0000000000000000e+00  0.0000000000000000e+00  0.0000000000000000e+00  0.0000000000000000e+00  0.0000000000000000e+00  0.0000000000000000e+00  0.0000000000000000e+00  0.0000000000000000e+00  0.0000000000000000e+00  0.0000000000000000e+00  0.0000000000000000e+00  0.0000000000000000e+00  0.0000000000000000e+00  0.0000000000000000e+00  0.0000000000000000e+00  0.0000000000000000e+00  0.0000000000000000e+00  0.0000000000000000e+00  0.0000000000000000e+00  0.0000000000000000e+00  0.0000000000000000e+00  0.0000000000000000e+00  0.0000000000000000e+00  0.0000000000000000e+00  0.0000000000000000e+00  0.0000000000000000e+00  0.0000000000000000e+00  0.0000000000000000e+00  0.0000000000000000e+00  0.0000000000000000e+00  0.0000000000000000e+00  0.0000000000000000e+00  0.0000000000000000e+00  0.0000000000000000e+00  0.0000000000000000e+00  0.0000000000000000e+00  0.0000000000000000e+00  0.0000000000000000e+00  0.0000000000000000e+00  0.0000000000000000e+00  0.0000000000000000e+00  0.0000000000000000e+00  0.0000000000000000e+00  0.0000000000000000e+00  0.0000000000000000e+00  0.0000000000000000e+00  0.0000000000000000e+00  0.0000000000000000e+00  0.0000000000000000e+00  0.0000000000000000e+00  0.0000000000000000e+00  0.0000000000000000e+00  0.0000000000000000e+00  0.0000000000000000e+00  0.0000000000000000e+00  0.0000000000000000e+00  0.0000000000000000e+00  0.0000000000000000e+00  0.0000000000000000e+00  0.0000000000000000e+00  0.0000000000000000e+00  0.0000000000000000e+00  0.0000000000000000e+00  0.0000000000000000e+00  0.0000000000000000e+00  0.0000000000000000e+00  0.0000000000000000e+00  0.0000000000000000e+00  0.0000000000000000e+00  0.0000000000000000e+00  0.0000000000000000e+00  0.0000000000000000e+00  0.0000000000000000e+00  0.0000000000000000e+00  0.0000000000000000e+00  0.0000000000000000e+00  0.0000000000000000e+00  0.0000000000000000e+00  0.0000000000000000e+00  0.0000000000000000e+00  0.0000000000000000e+00  0.0000000000000000e+00  0.0000000000000000e+00  0.0000000000000000e+00  0.0000000000000000e+00  0.0000000000000000e+00  0.0000000000000000e+00  0.0000000000000000e+00  0.0000000000000000e+00  0.0000000000000000e+00  0.0000000000000000e+00  0.0000000000000000e+00  0.0000000000000000e+00  0.0000000000000000e+00  0.0000000000000000e+00  0.0000000000000000e+00  0.0000000000000000e+00  0.0000000000000000e+00  0.0000000000000000e+00  0.0000000000000000e+00  0.0000000000000000e+00  0.0000000000000000e+00  0.0000000000000000e+00  0.0000000000000000e+00  0.0000000000000000e+00  0.0000000000000000e+00  0.0000000000000000e+00  0.0000000000000000e+00  0.0000000000000000e+00  0.0000000000000000e+00  0.0000000000000000e+00  0.0000000000000000e+00  0.0000000000000000e+00  0.0000000000000000e+00  0.0000000000000000e+00  0.0000000000000000e+00  0.0000000000000000e+00  0.0000000000000000e+00  0.0000000000000000e+00  0.0000000000000000e+00  0.0000000000000000e+00  0.0000000000000000e+00  0.0000000000000000e+00  0.0000000000000000e+00  0.0000000000000000e+00  0.0000000000000000e+00  0.0000000000000000e+00  0.0000000000000000e+00  0.0000000000000000e+00  0.0000000000000000e+00  0.0000000000000000e+00  0.0000000000000000e+00  0.0000000000000000e+00  0.0000000000000000e+00  0.0000000000000000e+00  0.0000000000000000e+00  0.0000000000000000e+00  0.0000000000000000e+00  0.0000000000000000e+00  0.0000000000000000e+00  0.0000000000000000e+00  0.0000000000000000e+00  0.0000000000000000e+00  0.0000000000000000e+00  0.0000000000000000e+00  0.0000000000000000e+00  0.0000000000000000e+00  0.0000000000000000e+00  0.0000000000000000e+00  0.0000000000000000e+00  0.0000000000000000e+00  0.0000000000000000e+00  0.0000000000000000e+00  0.0000000000000000e+00  0.0000000000000000e+00  0.0000000000000000e+00  0.0000000000000000e+00  0.0000000000000000e+00  0.0000000000000000e+00  0.0000000000000000e+00  0.0000000000000000e+00  0.0000000000000000e+00  0.0000000000000000e+00  0.0000000000000000e+00  0.0000000000000000e+00  0.0000000000000000e+00  0.0000000000000000e+00  0.0000000000000000e+00  0.0000000000000000e+00  0.0000000000000000e+00  0.0000000000000000e+00  0.0000000000000000e+00  0.0000000000000000e+00  0.0000000000000000e+00  0.0000000000000000e+00  0.0000000000000000e+00  0.0000000000000000e+00  0.0000000000000000e+00  0.0000000000000000e+00  0.0000000000000000e+00  0.0000000000000000e+00  0.0000000000000000e+00  0.0000000000000000e+00  0.0000000000000000e+00  0.0000000000000000e+00  0.0000000000000000e+00  0.0000000000000000e+00  0.0000000000000000e+00  0.0000000000000000e+00  0.0000000000000000e+00  0.0000000000000000e+00  0.0000000000000000e+00  0.0000000000000000e+00  0.0000000000000000e+00  0.0000000000000000e+00  0.0000000000000000e+00  0.0000000000000000e+00  0.0000000000000000e+00  0.0000000000000000e+00  0.0000000000000000e+00  0.0000000000000000e+00  0.0000000000000000e+00  0.0000000000000000e+00  0.0000000000000000e+00  0.0000000000000000e+00  0.0000000000000000e+00  0.0000000000000000e+00  0.0000000000000000e+00  0.0000000000000000e+00  0.0000000000000000e+00  0.0000000000000000e+00  0.0000000000000000e+00  0.0000000000000000e+00  0.0000000000000000e+00  0.0000000000000000e+00  0.0000000000000000e+00  0.0000000000000000e+00  0.0000000000000000e+00  0.0000000000000000e+00  0.0000000000000000e+00  0.0000000000000000e+00  0.0000000000000000e+00  0.0000000000000000e+00  0.0000000000000000e+00  0.0000000000000000e+00  0.0000000000000000e+00  0.0000000000000000e+00  0.0000000000000000e+00  0.0000000000000000e+00  0.0000000000000000e+00  0.0000000000000000e+00  0.0000000000000000e+00  0.0000000000000000e+00  0.0000000000000000e+00  0.0000000000000000e+00  0.0000000000000000e+00  0.0000000000000000e+00  0.0000000000000000e+00  0.0000000000000000e+00  0.0000000000000000e+00  0.0000000000000000e+00  0.0000000000000000e+00  0.0000000000000000e+00  0.0000000000000000e+00  0.0000000000000000e+00  0.0000000000000000e+00  0.0000000000000000e+00  0.0000000000000000e+00  0.0000000000000000e+00  0.0000000000000000e+00  0.0000000000000000e+00  0.0000000000000000e+00  0.0000000000000000e+00  0.0000000000000000e+00  0.0000000000000000e+00  0.0000000000000000e+00  0.0000000000000000e+00  0.0000000000000000e+00  0.0000000000000000e+00  0.0000000000000000e+00  0.0000000000000000e+00  0.0000000000000000e+00  0.0000000000000000e+00  0.0000000000000000e+00  0.0000000000000000e+00  0.0000000000000000e+00  0.0000000000000000e+00  0.0000000000000000e+00  0.0000000000000000e+00  0.0000000000000000e+00  0.0000000000000000e+00  0.0000000000000000e+00  0.0000000000000000e+00  0.0000000000000000e+00  0.0000000000000000e+00  0.0000000000000000e+00  0.0000000000000000e+00  0.0000000000000000e+00  0.0000000000000000e+00  0.0000000000000000e+00  0.0000000000000000e+00  0.0000000000000000e+00  0.0000000000000000e+00  0.0000000000000000e+00  0.0000000000000000e+00  0.0000000000000000e+00  0.0000000000000000e+00  0.0000000000000000e+00  0.0000000000000000e+00  0.0000000000000000e+00  0.0000000000000000e+00  0.0000000000000000e+00  0.0000000000000000e+00  0.0000000000000000e+00  0.0000000000000000e+00  0.0000000000000000e+00  0.0000000000000000e+00  0.0000000000000000e+00  0.0000000000000000e+00  0.0000000000000000e+00  0.0000000000000000e+00  0.0000000000000000e+00  0.0000000000000000e+00  0.0000000000000000e+00  0.0000000000000000e+00  0.0000000000000000e+00  0.0000000000000000e+00  0.0000000000000000e+00  0.0000000000000000e+00  0.0000000000000000e+00  0.0000000000000000e+00  0.0000000000000000e+00  0.0000000000000000e+00  0.0000000000000000e+00  0.0000000000000000e+00  0.0000000000000000e+00  0.0000000000000000e+00  0.0000000000000000e+00  0.0000000000000000e+00  0.0000000000000000e+00  0.0000000000000000e+00  0.0000000000000000e+00  0.0000000000000000e+00  0.0000000000000000e+00  0.0000000000000000e+00  0.0000000000000000e+00  0.0000000000000000e+00  0.0000000000000000e+00  0.0000000000000000e+00  0.0000000000000000e+00  0.0000000000000000e+00  0.0000000000000000e+00  0.0000000000000000e+00  0.0000000000000000e+00  0.0000000000000000e+00  0.0000000000000000e+00  0.0000000000000000e+00  0.0000000000000000e+00  0.0000000000000000e+00  0.0000000000000000e+00  0.0000000000000000e+00  0.0000000000000000e+00  0.0000000000000000e+00  0.0000000000000000e+00  0.0000000000000000e+00  0.0000000000000000e+00  0.0000000000000000e+00  0.0000000000000000e+00  0.0000000000000000e+00  0.0000000000000000e+00  0.0000000000000000e+00  0.0000000000000000e+00  0.0000000000000000e+00  0.0000000000000000e+00  0.0000000000000000e+00  0.0000000000000000e+00  0.0000000000000000e+00  0.0000000000000000e+00  0.0000000000000000e+00  0.0000000000000000e+00  0.0000000000000000e+00  0.0000000000000000e+00  0.0000000000000000e+00  0.0000000000000000e+00  0.0000000000000000e+00  0.0000000000000000e+00  0.0000000000000000e+00  0.0000000000000000e+00  0.0000000000000000e+00  0.0000000000000000e+00  0.0000000000000000e+00  0.0000000000000000e+00  0.0000000000000000e+00  0.0000000000000000e+00  0.0000000000000000e+00  0.0000000000000000e+00  0.0000000000000000e+00  0.0000000000000000e+00  0.0000000000000000e+00  0.0000000000000000e+00  0.0000000000000000e+00  0.0000000000000000e+00  0.0000000000000000e+00  0.0000000000000000e+00  0.0000000000000000e+00  0.0000000000000000e+00  0.0000000000000000e+00  0.0000000000000000e+00  0.0000000000000000e+00  0.0000000000000000e+00  0.0000000000000000e+00  0.0000000000000000e+00  0.0000000000000000e+00  0.0000000000000000e+00  0.0000000000000000e+00  0.0000000000000000e+00  0.0000000000000000e+00  0.0000000000000000e+00  0.0000000000000000e+00  0.0000000000000000e+00  0.0000000000000000e+00  0.0000000000000000e+00  0.0000000000000000e+00  0.0000000000000000e+00  0.0000000000000000e+00  0.0000000000000000e+00  0.0000000000000000e+00  0.0000000000000000e+00  0.0000000000000000e+00  0.0000000000000000e+00  0.0000000000000000e+00  0.0000000000000000e+00  0.0000000000000000e+00  0.0000000000000000e+00  0.0000000000000000e+00  0.0000000000000000e+00  0.0000000000000000e+00  0.0000000000000000e+00  0.0000000000000000e+00  0.0000000000000000e+00  0.0000000000000000e+00  0.0000000000000000e+00  0.0000000000000000e+00  0.0000000000000000e+00  0.0000000000000000e+00  0.0000000000000000e+00  0.0000000000000000e+00  0.0000000000000000e+00  0.0000000000000000e+00  0.0000000000000000e+00  0.0000000000000000e+00  0.0000000000000000e+00  0.0000000000000000e+00  0.0000000000000000e+00  0.0000000000000000e+00  0.0000000000000000e+00  0.0000000000000000e+00  0.0000000000000000e+00  0.0000000000000000e+00  0.0000000000000000e+00  0.0000000000000000e+00  0.0000000000000000e+00  0.0000000000000000e+00  0.0000000000000000e+00  0.0000000000000000e+00  0.0000000000000000e+00  0.0000000000000000e+00  0.0000000000000000e+00  0.0000000000000000e+00  0.0000000000000000e+00  0.0000000000000000e+00  0.0000000000000000e+00  0.0000000000000000e+00  0.0000000000000000e+00  0.0000000000000000e+00  0.0000000000000000e+00  0.0000000000000000e+00  0.0000000000000000e+00  0.0000000000000000e+00  0.0000000000000000e+00  0.0000000000000000e+00  0.0000000000000000e+00  0.0000000000000000e+00  0.0000000000000000e+00  0.0000000000000000e+00  0.0000000000000000e+00  0.0000000000000000e+00  0.0000000000000000e+00  0.0000000000000000e+00  0.0000000000000000e+00  0.0000000000000000e+00  0.0000000000000000e+00  0.0000000000000000e+00  0.0000000000000000e+00  0.0000000000000000e+00  0.0000000000000000e+00  0.0000000000000000e+00  0.0000000000000000e+00  0.0000000000000000e+00  0.0000000000000000e+00  0.0000000000000000e+00  0.0000000000000000e+00  0.0000000000000000e+00  0.0000000000000000e+00  0.0000000000000000e+00  0.0000000000000000e+00  0.0000000000000000e+00  0.0000000000000000e+00  0.0000000000000000e+00  0.0000000000000000e+00  0.0000000000000000e+00  0.0000000000000000e+00  0.0000000000000000e+00  0.0000000000000000e+00  0.0000000000000000e+00  0.0000000000000000e+00  0.0000000000000000e+00  0.0000000000000000e+00  0.0000000000000000e+00  0.0000000000000000e+00  0.0000000000000000e+00  0.0000000000000000e+00  0.0000000000000000e+00  0.0000000000000000e+00  0.0000000000000000e+00  0.0000000000000000e+00  0.0000000000000000e+00  0.0000000000000000e+00  0.0000000000000000e+00  0.0000000000000000e+00  0.0000000000000000e+00  0.0000000000000000e+00  0.0000000000000000e+00  0.0000000000000000e+00  0.0000000000000000e+00  0.0000000000000000e+00  0.0000000000000000e+00  0.0000000000000000e+00  0.0000000000000000e+00  0.0000000000000000e+00  0.0000000000000000e+00  0.0000000000000000e+00  0.0000000000000000e+00  0.0000000000000000e+00  0.0000000000000000e+00  0.0000000000000000e+00  0.0000000000000000e+00  0.0000000000000000e+00  0.0000000000000000e+00  0.0000000000000000e+00  0.0000000000000000e+00  0.0000000000000000e+00  0.0000000000000000e+00  0.0000000000000000e+00  0.0000000000000000e+00  0.0000000000000000e+00  0.0000000000000000e+00  0.0000000000000000e+00  0.0000000000000000e+00  0.0000000000000000e+00  0.0000000000000000e+00  0.0000000000000000e+00  0.0000000000000000e+00  0.0000000000000000e+00  0.0000000000000000e+00  0.0000000000000000e+00  0.0000000000000000e+00  0.0000000000000000e+00  0