<?xml version="1.0"?>
<VTKFile type="UnstructuredGrid"  version="0.1"  >
<UnstructuredGrid>
<Piece  NumberOfPoints="8374" NumberOfCells="37895">
<Points>
<DataArray  type="Float64"  NumberOfComponents="3"  format="ascii">14.350296 7.882366 17.923571  15.2978289878 6.85846971445 17.4776943642  14.6351915 6.7353205 18.225763  14.3640675 7.140167 17.747923  14.62142 7.4775195 18.401411  15.2840574878 7.60066871445 17.6533423642  14.892544 7.072673 18.879251  15.5551814878 7.195822214450001 18.1311823642  14.377839 6.397968 17.572275  16.2178189756 7.3189714289 17.3831137284  14.427409 9.272387999999999 18.183792  15.39709612375 8.69622245 18.15147062215  15.3952992469 8.6289729309 18.50057112535  15.43565262375 9.39123345 18.28158112215  14.3888525 8.577377 18.0536815  15.3567427469 7.933961930900001 18.37046062535  16.4438962475 9.5100789 18.3793702443  16.40354287065 8.7478183809 18.5983602475  16.3631894938 7.9855578618 18.8173502507  17.013054 10.070643 14.711295  16.74216999175 9.633050691000001 15.72641941995  16.43166399175 10.215186691 15.79838141995  17.08157299175 10.128329191 15.67933441995  16.363145 10.1575005 14.830342  15.713236 10.244358 14.949389  16.023742 9.662222 14.877427  16.334248 9.080086 14.805465  17.1500919835 10.186015382 16.6473738399  15.754540108 8.73846939025 17.44733681515  14.70773998425 7.92461294025 17.219437193  16.33085761155 8.41452516445 17.88124198635  15.64150147205 7.6429156547 16.9492085572  15.0651839685 7.9668598805 16.515303386  17.576382 10.884881 19.03974  17.17036107225 10.3267795762 18.2544114918  17.6350149729 10.21610397745 18.40067445625  17.879055 10.8564755 18.602501  18.181728 10.82807 18.165262  17.47303407225 10.2983740762 17.8171724918  17.9376879729 10.18769847745 17.96343545625  17.6936479458 9.547326954900001 17.7616089125  17.22899404515 9.65800255365 17.61534594805  16.7643401445 9.7686781524 17.4690829836  14.646094 8.2032135 18.6009125  14.6846505 8.8982245 18.731023  14.941892 8.524061 19.278254  15.6525407469 8.2548094309 19.04780212535  14.999272 6.2631435 18.082982  15.2566245 6.600496 18.73647  15.620705 6.128319 18.593689  15.9192619878 6.72364521445 17.9884013642  15.682755 5.94466 16.91251  15.37396948425 6.95575994025 16.713906693  15.030297 6.171314 17.2423925  14.72151148425 7.18241394025 17.043789193  16.48188 11.273232 15.026086  16.81598599175 10.729623691 15.83672991995  16.747467 10.6719375 14.8686905  16.097558 10.758795 14.9877375  18.03967399175 10.475894691 16.91145091995  17.66590999175 10.507042691 17.40631791995  17.78959299175 10.841910691 16.97289291995  17.1464119994 8.83738587635 18.8643475344  16.96706184785 8.851770673499999 17.9376675325  17.06877209665 9.52870292745 18.0704895784  16.09008979375 9.5724279983 16.00781733525  15.55529238125 9.3990871487 15.56962427315  15.24478638125 9.9812231487 15.64158627315  15.77958379375 10.1545639983 16.07977933525  14.7763367625 9.7180882974 16.3337835463  15.311134175 9.891429147 16.7719766084  15.8459315875 10.0647699966 17.2101696705  16.03187528155 8.691870712750001 17.29664169945  16.1449139175 9.787424448300001 17.7947699574  15.455557778 9.015814938550001 16.86273652825  14.74629648425 8.619623940249999 17.349547693  15.13667029375 9.668578998299999 17.69698083525  16.49107956005 8.54382479065 17.426098356  16.604118196 9.6393785262 17.92422661395  16.305135866 9.916724074499999 17.33962632705  18.049047 10.083234 19.218225  17.8713474729 9.815280477449999 18.48991695625  17.24647162375 9.79665645 18.79879762215  15.8015202469 7.194699930900001 19.35991262535  15.6278667469 7.5291154309 18.84830062535  15.6804927469 7.700329930900001 19.42248812535  14.917218 7.798367 19.0787525  17.043329 11.559077 19.471418  16.6627420298 10.71616525555 19.0829134706  16.9081405298 11.01808325555 18.5422519706  16.6416140298 11.35518125555 18.7580909706  17.3098555 11.221979 19.255579  17.064457 10.920061 19.7962405  17.3309835 10.582963 19.5804015  17.085585 10.281045 20.121063  16.2398990596 11.1512855111 18.0447639412  18.429094 11.497806 17.298412  17.3344965298 11.32454575555 17.6715879706  18.305411 11.162938 17.731837  17.2108135298 10.98967775555 18.1050129706  16.69499552155 10.66865044655 17.34606889055  17.890831 12.017817 18.33498  17.0653650298 11.58455125555 18.1898719706  18.0362795 11.4229435 18.250121  18.1599625 11.7578115 17.816696  16.76474062375 9.895561950000001 19.25021662215  17.01013912375 10.19747995 18.70955512215  16.34189765355 10.33068220555 18.21206709275  17.7336065 11.451349 18.68736  15.9643599878 6.87099171445 16.4218728642  15.696828 6.183835999999999 16.186571  16.2732345 6.051491 16.438749  15.710901 6.423012 15.460632  18.436848 11.62802 14.983681  18.42981066985 10.84665723325 15.37530036345  18.3835545 10.897949 14.602253  17.978616 11.3448405 14.907117  17.520384 11.061661 14.830553  16.55601732815 9.220795998650001 19.3871106146  16.00045162375 9.69189695 19.34082712215  17.001132 11.1674465 14.9283195  17.33523799175 10.623838191 15.73896341995  17.266719 10.566152 14.770924  18.2570460037 11.0952495353 16.6756814582  18.0069650037 11.4612655353 16.7371234582  17.36746399545 10.8053702263 16.41160437815  17.5848360074 11.4247250706 16.1758349164  16.957216064 9.9773467672 17.05822841175  16.86268548345 9.2513246243 16.42426148165  17.32015971585 9.189738914500001 17.0716693303  16.66980956395 9.0426560095 16.8351160535  17.12728379635 8.981070299700001 17.48252390215  17.567316 10.1821395 19.669644  17.8127145 10.4840575 19.1289825  17.0333580037 11.3489785353 15.6009604582  17.5526100037 11.2431930353 15.5031939582  15.9919472469 7.056938430900001 18.70551962535  16.2905042347 7.65226464535 18.10023198955  15.67580787295 9.017361082000001 16.26746633485  15.8524804917 8.783590433299999 15.4416575617  16.4547634917 8.698359933300001 15.5033070617  15.731965 9.165316499999999 14.7438155  15.129682 9.250546999999999 14.682166  14.95300938125 9.484317648699999 15.50797477315  16.5752789834 8.3166338666 16.2011491234  18.00380467355 10.74500976855 15.97137732165  16.21060528545 9.1907019316 16.70565939695  15.430278 6.2660805 19.248082  15.7675252469 8.177860430900001 19.75036512535  15.8050152044 8.727787048650001 19.83655249245  16.50211960205 10.45998183175 17.7569234624  15.4693925 8.586259 14.7750685  16.0716755 8.5010285 14.836718  15.809103 7.921971 14.867971  16.1921909917 8.1193024333 15.5345600617  15.69289412375 9.01706995 18.82881212215  14.762556 9.784284 19.219965  15.60322612375 9.64718145 18.79966762215  14.852224 9.1541725 19.2491095  14.5949825 9.528335999999999 18.7018785  18.0108420037 11.5263725353 15.5797579582  15.30424379375 9.924526998299999 18.21506733525  15.9147620565 8.86776901645 16.9921931848  17.42186996465 9.866671168450001 17.2044913762  16.4980117855 10.1253926893 16.9287717552  16.04291532355 10.60802775385 17.62746680585  15.09743298425 8.60870344025 15.598734693  14.9207603655 8.84247408895 16.42454346615  15.82023147595 8.14174687355 16.3582262547  15.43714348425 7.94441544025 15.691637193  15.38804248425 7.19493594025 15.987967693  16.1430899917 7.3698229333 15.8308905617  16.3965489795 7.81780264775 16.7921314259  18.951092 11.70382 16.141142  18.2679640037 11.5642725353 16.1584884582  18.690093 11.600813 16.719777  17.46708 11.788447 18.903199  15.5012275298 10.46778475555 18.6323644706  16.708816 8.516544 14.773624  17.3585927044 9.50737354865 19.80653799245  18.1153875 10.455652 18.6917435  15.86970798425 7.52181444025 15.864999193  15.760002 7.1724915 15.1643015  18.68693266985 10.88455723325 15.95403086345  17.677458 9.858662000000001 20.1874055  18.69397 11.66592 15.5624115  15.65173 6.0364895 17.7530995  14.60187288125 9.4952381487 17.25878777315  15.421459 9.7474525 14.8157775  18.154606 0.457811 1.590546  17.62621723955 1.10761885355 2.26585124285  17.20782349725 1.15274919385 1.7177730616  17.4100895 0.4316095 1.6687935  16.665573 0.405408 1.747041  16.88170073955 1.08141735355 2.34409874285  16.46330699725 1.12654769385 1.7960205616  16.2610409945 1.8476873877 1.8450001232  16.6794347368 1.8025570474 2.39307830445  17.0978284791 1.7574267071 2.9411564857  16.744368 3.204 2.269527  17.40952323955 2.45704285355 2.09914074285  16.92109823955 2.48071335355 2.60534174285  17.56353519 2.5631336274 2.3645899471  17.232793 3.1803295 1.763326  17.721218 3.156659 1.257125  18.05196019 2.5394631274 1.8583889471  18.38270238 1.9222672548 2.4596528942  17.74026542955 1.83984698095 2.70040468995  16.574218 0.6458805000000001 0.8404335000000001  16.288434 0.544342 1.308434  16.708145 0.8934225 1.0778905  16.951357 0.5069465 1.2790405  16.750717 1.381437 0.40874  16.331006 1.0323565 0.6392835  16.993929 0.994961 0.60989  17.237141 0.6084850000000001 0.81104  15.911295 0.683276 0.869827  16.402235 2.719922 3.648031  16.33163799725 2.28380469385 2.7465155616  16.5733015 2.961961 2.958779  15.9089585 2.97305 3.234208  15.415682 3.226178 2.820385  15.83836149725 2.53693269385 2.3326925616  16.080025 3.215089 2.544956  16.50270449725 2.52584369385 2.0572635616  16.319445 1.984095 4.620707  15.4862415 1.572416 4.203304  15.9150271913 1.82832911705 3.88088925165  16.013617 1.283333 4.373708000000001  15.7920695 2.273178 4.450303  15.264694 2.562261 4.279899  15.3876516913 2.11741211705 3.71048525165  15.707789 0.5825709999999999 4.126709  15.6091991913 1.12756711705 3.63389025165  15.5106093826 1.6725632341 3.1410715033  17.231995 0.401413 2.710624  17.16491173955 1.07941985355 2.82589024285  16.948784 0.4034105 2.2288325  17.6933005 0.429612 2.150585  15.529031 0.5041724999999999 3.221937  15.996342 0.507728 3.577667  16.284895 0.432885 3.028625  15.4304411913 1.04916861705 2.72911825165  15.8977521913 1.05272411705 3.08484825165  15.817584 0.4293295 2.672895  15.350273 0.425774 2.317165  17.643209 2.9557 3.385586  17.1937885 3.07985 2.8275565  17.022722 2.837811 3.5168085  17.37051873955 2.35656335355 3.16337124285  16.75003173955 2.23867435355 3.29459374285  18.26865419 1.1900391274 2.0250994471  18.7379495 0.5803
[...]
<PointData  Scalars="p"> 
<DataArray  type="Float64"  Name="p"  format="ascii">0.0000000000000000e+00  0.0000000000000000e+00  0.0000000000000000e+00  0.0000000000000000e+00  0.0000000000000000e+00  0.0000000000000000e+00  0.0000000000000000e+00  0.0000000000000000e+00  0.0000000000000000e+00  0.0000000000000000e+00  0.0000000000000000e+00  0.0000000000000000e+00  0.0000000000000000e+00  0.0000000000000000e+00  0.0000000000000000e+00  0.0000000000000000e+00  0.0000000000000000e+00  0.0000000000000000e+00  0.0000000000000000e+00  0.0000000000000000e+00  0.0000000000000000e+00  0.0000000000000000e+00  0.0000000000000000e+00  0.0000000000000000e+00  0.0000000000000000e+00  0.0000000000000000e+00  0.0000000000000000e+00  0.0000000000000000e+00  0.0000000000000000e+00  0.0000000000000000e+00  0.0000000000000000e+00  0.0000000000000000e+00  0.0000000000000000e+00  0.0000000000000000e+00  0.0000000000000000e+00  0.0000000000000000e+00  0.0000000000000000e+00  0.0000000000000000e+00  0.0000000000000000e+00  0.0000000000000000e+00  0.0000000000000000e+00  0.0000000000000000e+00  0.0000000000000000e+00  0.0000000000000000e+00  0.0000000000000000e+00  0.0000000000000000e+00  0.0000000000000000e+00  0.0000000000000000e+00  0.0000000000000000e+00  0.0000000000000000e+00  0.0000000000000000e+00  0.0000000000000000e+00  0.0000000000000000e+00  0.0000000000000000e+00  0.0000000000000000e+00  0.0000000000000000e+00  0.0000000000000000e+00  0.0000000000000000e+00  0.0000000000000000e+00  0.0000000000000000e+00  0.0000000000000000e+00  0.0000000000000000e+00  0.0000000000000000e+00  0.0000000000000000e+00  0.0000000000000000e+00  0.0000000000000000e+00  0.0000000000000000e+00  0.0000000000000000e+00  0.0000000000000000e+00  0.0000000000000000e+00  0.0000000000000000e+00  0.0000000000000000e+00  0.0000000000000000e+00  0.0000000000000000e+00  0.0000000000000000e+00  0.0000000000000000e+00  0.0000000000000000e+00  0.0000000000000000e+00  0.0000000000000000e+00  0.0000000000000000e+00  0.0000000000000000e+00  0.0000000000000000e+00  0.0000000000000000e+00  0.0000000000000000e+00  0.0000000000000000e+00  0.0000000000000000e+00  0.0000000000000000e+00  0.0000000000000000e+00  0.0000000000000000e+00  0.0000000000000000e+00  0.0000000000000000e+00  0.0000000000000000e+00  0.0000000000000000e+00  0.0000000000000000e+00  0.0000000000000000e+00  0.0000000000000000e+00  0.0000000000000000e+00  0.0000000000000000e+00  0.0000000000000000e+00  0.0000000000000000e+00  0.0000000000000000e+00  0.0000000000000000e+00  0.0000000000000000e+00  0.0000000000000000e+00  0.0000000000000000e+00  0.0000000000000000e+00  0.0000000000000000e+00  0.0000000000000000e+00  0.0000000000000000e+00  0.0000000000000000e+00  0.0000000000000000e+00  0.0000000000000000e+00  0.0000000000000000e+00  0.0000000000000000e+00  0.0000000000000000e+00  0.0000000000000000e+00  0.0000000000000000e+00  0.0000000000000000e+00  0.0000000000000000e+00  0.0000000000000000e+00  0.0000000000000000e+00  0.0000000000000000e+00  0.0000000000000000e+00  0.0000000000000000e+00  0.0000000000000000e+00  0.0000000000000000e+00  0.0000000000000000e+00  0.0000000000000000e+00  0.0000000000000000e+00  0.0000000000000000e+00  0.0000000000000000e+00  0.0000000000000000e+00  0.0000000000000000e+00  0.0000000000000000e+00  0.0000000000000000e+00  0.0000000000000000e+00  0.0000000000000000e+00  0.0000000000000000e+00  0.0000000000000000e+00  0.0000000000000000e+00  0.0000000000000000e+00  0.0000000000000000e+00  0.0000000000000000e+00  0.0000000000000000e+00  0.0000000000000000e+00  0.0000000000000000e+00  0.0000000000000000e+00  0.0000000000000000e+00  0.0000000000000000e+00  0.0000000000000000e+00  0.0000000000000000e+00  0.0000000000000000e+00  0.0000000000000000e+00  0.0000000000000000e+00  0.0000000000000000e+00  0.0000000000000000e+00  0.0000000000000000e+00  0.0000000000000000e+00  0.0000000000000000e+00  0.0000000000000000e+00  0.0000000000000000e+00  0.0000000000000000e+00  0.0000000000000000e+00  0.0000000000000000e+00  0.0000000000000000e+00  0.0000000000000000e+00  0.0000000000000000e+00  0.0000000000000000e+00  0.0000000000000000e+00  0.0000000000000000e+00  0.0000000000000000e+00  0.0000000000000000e+00  0.0000000000000000e+00  0.0000000000000000e+00  0.0000000000000000e+00  0.0000000000000000e+00  0.0000000000000000e+00  0.0000000000000000e+00  0.0000000000000000e+00  0.0000000000000000e+00  0.0000000000000000e+00  0.0000000000000000e+00  0.0000000000000000e+00  0.0000000000000000e+00  0.0000000000000000e+00  0.0000000000000000e+00  0.0000000000000000e+00  0.0000000000000000e+00  0.0000000000000000e+00  0.0000000000000000e+00  0.0000000000000000e+00  0.0000000000000000e+00  0.0000000000000000e+00  0.0000000000000000e+00  0.0000000000000000e+00  0.0000000000000000e+00  0.0000000000000000e+00  0.0000000000000000e+00  0.0000000000000000e+00  0.0000000000000000e+00  0.0000000000000000e+00  0.0000000000000000e+00  0.0000000000000000e+00  0.0000000000000000e+00  0.0000000000000000e+00  0.0000000000000000e+00  0.0000000000000000e+00  0.0000000000000000e+00  0.0000000000000000e+00  0.0000000000000000e+00  0.0000000000000000e+00  0.0000000000000000e+00  0.0000000000000000e+00  0.0000000000000000e+00  0.0000000000000000e+00  0.0000000000000000e+00  0.0000000000000000e+00  0.0000000000000000e+00  0.0000000000000000e+00  0.0000000000000000e+00  0.0000000000000000e+00  0.0000000000000000e+00  0.0000000000000000e+00  0.0000000000000000e+00  0.0000000000000000e+00  0.0000000000000000e+00  0.0000000000000000e+00  0.0000000000000000e+00  0.0000000000000000e+00  0.0000000000000000e+00  0.0000000000000000e+00  0.0000000000000000e+00  0.0000000000000000e+00  0.0000000000000000e+00  0.0000000000000000e+00  0.0000000000000000e+00  0.0000000000000000e+00  0.0000000000000000e+00  0.0000000000000000e+00  0.0000000000000000e+00  0.0000000000000000e+00  0.0000000000000000e+00  0.0000000000000000e+00  0.0000000000000000e+00  0.0000000000000000e+00  0.0000000000000000e+00  0.0000000000000000e+00  0.0000000000000000e+00  0.0000000000000000e+00  0.0000000000000000e+00  0.0000000000000000e+00  0.0000000000000000e+00  0.0000000000000000e+00  0.0000000000000000e+00  0.0000000000000000e+00  0.0000000000000000e+00  0.0000000000000000e+00  0.0000000000000000e+00  0.0000000000000000e+00  0.0000000000000000e+00  0.0000000000000000e+00  0.0000000000000000e+00  0.0000000000000000e+00  0.0000000000000000e+00  0.0000000000000000e+00  0.0000000000000000e+00  0.0000000000000000e+00  0.0000000000000000e+00  0.0000000000000000e+00  0.0000000000000000e+00  0.0000000000000000e+00  0.0000000000000000e+00  0.0000000000000000e+00  0.0000000000000000e+00  0.0000000000000000e+00  0.0000000000000000e+00  0.0000000000000000e+00  0.0000000000000000e+00  0.0000000000000000e+00  0.0000000000000000e+00  0.0000000000000000e+00  0.0000000000000000e+00  0.0000000000000000e+00  0.0000000000000000e+00  0.0000000000000000e+00  0.0000000000000000e+00  0.0000000000000000e+00  0.0000000000000000e+00  0.0000000000000000e+00  0.0000000000000000e+00  0.0000000000000000e+00  0.0000000000000000e+00  0.0000000000000000e+00  0.0000000000000000e+00  0.0000000000000000e+00  0.0000000000000000e+00  0.0000000000000000e+00  0.0000000000000000e+00  0.0000000000000000e+00  0.0000000000000000e+00  0.0000000000000000e+00  0.0000000000000000e+00  0.0000000000000000e+00  0.0000000000000000e+00  0.0000000000000000e+00  0.0000000000000000e+00  0.0000000000000000e+00  0.0000000000000000e+00  0.0000000000000000e+00  0.0000000000000000e+00  0.0000000000000000e+00  0.0000000000000000e+00  0.0000000000000000e+00  0.0000000000000000e+00  0.0000000000000000e+00  0.0000000000000000e+00  0.0000000000000000e+00  0.0000000000000000e+00  0.0000000000000000e+00  0.0000000000000000e+00  0.0000000000000000e+00  0.0000000000000000e+00  0.0000000000000000e+00  0.0000000000000000e+00  0.0000000000000000e+00  0.0000000000000000e+00  0.0000000000000000e+00  0.0000000000000000e+00  0.0000000000000000e+00  0.0000000000000000e+00  0.0000000000000000e+00  0.0000000000000000e+00  0.0000000000000000e+00  0.0000000000000000e+00  0.0000000000000000e+00  0.0000000000000000e+00  0.0000000000000000e+00  0.0000000000000000e+00  0.0000000000000000e+00  0.0000000000000000e+00  0.0000000000000000e+00  0.0000000000000000e+00  0.0000000000000000e+00  0.0000000000000000e+00  0.0000000000000000e+00  0.0000000000000000e+00  0.0000000000000000e+00  0.0000000000000000e+00  0.0000000000000000e+00  0.0000000000000000e+00  0.0000000000000000e+00  0.0000000000000000e+00  0.0000000000000000e+00  0.0000000000000000e+00  0.0000000000000000e+00  0.0000000000000000e+00  0.0000000000000000e+00  0.0000000000000000e+00  0.0000000000000000e+00  0.0000000000000000e+00  0.0000000000000000e+00  0.0000000000000000e+00  0.0000000000000000e+00  0.0000000000000000e+00  0.0000000000000000e+00  0.0000000000000000e+00  0.0000000000000000e+00  0.0000000000000000e+00  0.0000000000000000e+00  0.0000000000000000e+00  0.0000000000000000e+00  0.0000000000000000e+00  0.0000000000000000e+00  0.0000000000000000e+00  0.0000000000000000e+00  0.0000000000000000e+00  0.0000000000000000e+00  0.0000000000000000e+00  0.0000000000000000e+00  0.0000000000000000e+00  0.0000000000000000e+00  0.0000000000000000e+00  0.0000000000000000e+00  0.0000000000000000e+00  0.0000000000000000e+00  0.0000000000000000e+00  0.0000000000000000e+00  0.0000000000000000e+00  0.0000000000000000e+00  0.0000000000000000e+00  0.0000000000000000e+00  0.0000000000000000e+00  0.0000000000000000e+00  0.0000000000000000e+00  0.0000000000000000e+00  0.0000000000000000e+00  0.0000000000000000e+00  0.0000000000000000e+00  0.0000000000000000e+00  0.0000000000000000e+00  0.0000000000000000e+00  0.0000000000000000e+00  0.0000000000000000e+00  0.0000000000000000e+00  0.0000000000000000e+00  0.0000000000000000e+00  0.0000000000000000e+00  0.0000000000000000e+00  0.0000000000000000e+00  0.0000000000000000e+00  0.0000000000000000e+00  0.0000000000000000e+00  0.0000000000000000e+00  0.0000000000000000e+00  0.0000000000000000e+00  0.0000000000000000e+00  0.0000000000000000e+00  0.0000000000000000e+00  0.0000000000000000e+00  0.0000000000000000e+00  0.0000000000000000e+00  0.0000000000000000e+00  0.0000000000000000e+00  0.0000000000000000e+00  0.0000000000000000e+00  0.0000000000000000e+00  0.0000000000000000e+00  0.0000000000000000e+00  0.0000000000000000e+00  0.0000000000000000e+00  0.0000000000000000e+00  0.0000000000000000e+00  0.0000000000000000e+00  0.0000000000000000e+00  0.0000000000000000e+00  0.0000000000000000e+00  0.0000000000000000e+00  0.0000000000000000e+00  0.0000000000000000e+00  0.0000000000000000e+00  0.0000000000000000e+00  0.0000000000000000e+00  0.0000000000000000e+00  0.0000000000000000e+00  0.0000000000000000e+00  0.0000000000000000e+00  0.0000000000000000e+00  0.0000000000000000e+00  0.0000000000000000e+00  0.0000000000000000e+00  0.0000000000000000e+00  0.0000000000000000e+00  0.0000000000000000e+00  0.0000000000000000e+00  0.0000000000000000e+00  0.0000000000000000e+00  0.0000000000000000e+00  0.0000000000000000e+00  0.0000000000000000e+00  0.0000000000000000e+00  0.0000000000000000e+00  0.0000000000000000e+00  0.0000000000000000e+00  0.0000000000000000e+00  0.0000000000000000e+00  0.0000000000000000e+00  0.0000000000000000e+00  0.0000000000000000e+00  0.0000000000000000e+00  0.0000000000000000e+00  0.0000000000000000e+00  0.0000000000000000e+00  0.0000000000000000e+00  0.0000000000000000e+00  0.0000000000000000e+00  0.0000000000000000e+00  0.0000000000000000e+00  0.0000000000000000e+00  0.0000000000000000e+00  0.0000000000000000e+00  0.0000000000000000e+00  0.0000000000000000e+00  0.0000000000000000e+00  0.0000000000000000e+00  0.0000000000000000e+00  0.0000000000000000e+00  0.0000000000000000e+00  0.0000000000000000e+00  0.0000000000000000e+00  0.0000000000000000e+00  0.0000000000000000e+00  0.0000000000000000e+00  0.0000000000000000e+00  0.0000000000000000e+00  0.0000000000000000e+00  0.0000000000000000e+00  0.0000000000000000e+00  0.0000000000000000e+00  0.0000000000000000e+00  0.0000000000000000e+00  0.0000000000000000e+00  0.0000000000000000e+00  0.0000000000000000e+00  0.0000000000000000e+00  0.0000000000000000e+00  0.0000000000000000e+00  0.0000000000000000e+00  0.0000000000000000e+00  0.0000000000000000e+00  0.0000000000000000e+00  0.0000000000000000e+00  0.0000000000000000e+00  0.0000000000000000e+00  0.0000000000000000e+00  0.0000000000000000e+00  0.0000000000000000e+00  0.0000000000000000e+00  0.0000000000000000e+00  0.0000000000000000e+00  0.0000000000000000e+00  0.0000000000000000e+00  0.0000000000000000e+00  0.0000000000000000e+00  0.0000000000000000e+00  0.0000000000000000e+00  0.0000000000000000e+00  0.0000000000000000e+00  0.0000000000000000e+00  0.0000000000000000e+00  0.0000000000000000e+00  0.0000000000000000e+00  0.0000000000000000e+00  0.0000000000000000e+00  0.0000000000000000e+00  0.0000000000000000e+00  0.0000000000000000e+00  0.0000000000000000e+00  0.0000000000000000e+00  0.0000000000000000e+00  0.0000000000000000e+00  0.0000000000000000e+00  0.0000000000000000e+00  0.0000000000000000e+00  0.0000000000000000e+00  0.0000000000000000e+00  0.0000000000000000e+00  0.0000000000000000e+00  0.0000000000000000e+00  0.0000000000000000e+00  0.0000000000000000e+00  0.0000000000000000e+00  0.0000000000000000e+00  0.0000000000000000e+00  0.0000000000000000e+00  0.0000000000000000e+00  0.0000000000000000e+00  0.0000000000000000e+00  0.0000000000000000e+00  0.0000000000000000e+00  0.0000000000000000e+00  0.0000000000000000e+00  0.0000000000000000e+00  0.0000000000000000e+00  0.0000000000000000e+00  0.0000000000000000e+00  0.0000000000000000e+00  0.0000000000000000e+00  0.0000000000000000e+00  0.0000000000000000e+00  0.0000000000000000e+00  0.0000000000000000e+00  0.0000000000000000e+00  0.0000000000000000e+00  0.0000000000000000e+00  0.0000000000000000e+00  0.0000000000000000e+00  0.0000000000000000e+00  0.0000000000000000e+00  0.0000000000000000e+00  0.0000000000000000e+00  0.0000000000000000e+00  0.0000000000000000e+00  0.0000000000000000e+00  0.0000000000000000e+00  0.0000000000000000e+00  0.0000000000000000e+00  0.0000000000000000e+00  0.0000000000000000e+00  0.0000000000000000e+00  0.0000000000000000e+00  0.0000000000000000e+00  0.0000000000000000e+00  0.0000000000000000e+00  0.0000000000000000e+00  0.0000000000000000e+00  0.0000000000000000e+00  0.0000000000000000e+00  0.0000000000000000e+00  0.0000000000000000e+00  0.0000000000000000e+00  0.0000000000000000e+00  0.0000000000000000e+00  0.0000000000000000e+00  0.0000000000000000e+00  0.0000000000000000e+00  0.0000000000000000e+00  0.0000000000000000e+00  0.0000000000000000e+00  0.0000000000000000e+00  0.0000000000000000e+00  0.0000000000000000e+00  0.0000000000000000e+00  0.0000000000000000e+00  0.0000000000000000e+00  0.0000000000000000e+00  0.0000000000000000e+00  0.0000000000000000e+00  0.0000000000000000e+00  0.0000000000000000e+00  0.0000000000000000e+00  0.0000000000000000e+00  0.0000000000000000e+00  0.0000000000000000e+00  0.0000000000000000e+00  0.0000000000000000e+00  0.0000000000000000e+00  0.0000000000000000e+00  0.0000000000000000e+00  0.0000000000000000e+00  0.0000000000000000e+00  0.0000000000000000e+00  0.0000000000000000e+00  0.0000000000000000e+00  0.0000000000000000e+00  0.0000000000000000e+00  0.0000000000000000e+00  0.0000000000000000e+00  0.0000000000000000e+00  0.0000000000000000e+00  0.0000000000000000e+00  0.0000000000000000e+00  0.0000000000000000e+00  0.0000000000000000e+00  0.0000000000000000e+00  0.0000000000000000e+00  0.0000000000000000e+00  0.0000000000000000e+00  0.0000000000000000e+00  0.0000000000000000e+00  0.0000000000000000e+00  0.0000000000000000e+00  0.0000000000000000e+00  0.0000000000000000e+00  0.0000000000000000e+00  0.0000000000000000e+00  0.0000000000000000e+00  0.0000000000000000e+00  0.0000000000000000e+00  0.0000000000000000e+00  0.0000000000000000e+00  0.0000000000000000e+00  0.0000000000000000e+00  0.0000000000000000e+00  0.0000000000000000e+00  0.0000000000000000e+00  0.0000000000000000e+00  0.0000000000000000e+00  0.0000000000000000e+00  0.0000000000000000e+00  0.0000000000000000e+00  0.0000000000000000e+00  0.0000000000000000e+00  0.0000000000000000e+00  0.0000000000000000e+00  0.0000000000000000e+00  0.0000000000000000e+00  0.0000000000000000e+00  0.0000000000000000e+00  0.0000000000000000e+00  0.0000000000000000e+00  0.0000000000000000e+00  0.0000000000000000e+00  0.0000000000000000e+00  0.0000000000000000e+00  0.0000000000000000e+00  0.0000000000000000e+00  0.0000000000000000e+00  0.0000000000000000e+00  0.0000000000000000e+00  0.0000000000000000e+00  0.0000000000000000e+00  0.0000000000000000e+00  0.0000000000000000e+00  0.0000000000000000e+00  0.0000000000000000e+00  0.0000000000000000e+00  0.0000000000000000e+00  0.0000000000000000e+00  0.0000000000000000e+00  0.0000000000000000e+00  0.0000000000000000e+00  0.0000000000000000e+00  0.0000000000000000e+00  0.0000000000000000e+00  0.0000000000000000e+00  0.0000000000000000e+00  0.0000000000000000e+00  0.0000000000000000e+00  0.0000000000000000e+00  0.0000000000000000e+00  0.0000000000000000e+00  0.0000000000000000e+00  0.0000000000000000e+00  0.0000000000000000e+00  0.0000000000000000e+00  0.0000000000000000e+00  0.0000000000000000e+00  0.0000000000000000e+00  0.0000000000000000e+00  0.0000000000000000e+00  0.0000000000000000e+00  0.0000000000000000e+00  0.0000000000000000e+00  0.0000000000000000e+00  0.0000000000000000e+00  0.0000000000000000e+00  0.0000000000000000e+00  0.0000000000000000e+00  0.0000000000000000e+00  0.0000000000000000e+00  0.0000000000000000e+00  0.0000000000000000e+00  0.0000000000000000e+00  0.0000000000000000e+00  0.0000000000000000e+00  0.0000000000000000e+00  0.0000000000000000e+00  0.0000000000000000e+00  0.0000000000000000e+00  0.0000000000000000e+00  0.0000000000000000e+00  0.0000000000000000e+00  0.0000000000000000e+00  0.0000000000000000e+00  0.0000000000000000e+00  0.0000000000000000e+00  0.0000000000000000e+00  0.0000000000000000e+00  0.0000000000000000e+00  0.0000000000000000e+00  0.0000000000000000e+00  0.0000000000000000e+00  0.0000000000000000e+00  0.0000000000000000e+00  0.0000000000000000e+00  0.0000000000000000e+00  0.0000000000000000e+00  0.0000000000000000e+00  0.0000000000000000e+00  0.0000000000000000e+00  0.0000000000000000e+00  0.0000000000000000e+00  0.0000000000000000e+00  0.0000000000000000e+00  0.0000000000000000e+00  0.0000000000000000e+00  0.0000000000000000e+00  0.0000000000000000e+00  0.0000000000000000e+00  0.0000000000000000e+00  0.0000000000000000e+00  0.0000000000000000e+00  0.0000000000000000e+00  0.0000000000000000e+00  0.0000000000000000e+00  0.0000000000000000e+00  0.0000000000000000e+00  0.0000000000000000e+00  0.0000000000000000e+00  0.0000000000000000e+00  0.0000000000000000e+00  0.0000000000000000e+00  0.0000000000000000e+00  0.0000000000000000e+00  0.0000000000000000e+00  0.0000000000000000e+00  0.0000000000000000e+00  0.0000000000000000e+00  0.0000000000000000e+00  0.0000000000000000e+00  0.0000000000000000e+00  0.0000000000000000e+00  0.0000000000000000e+00  0.0000000000000000e+00  0.0000000000000000e+00  0.0000000000000000e+00  0.0000000000000000e+00  0.0000000000000000e+00  0.0000000000000000e+00  0.0000000000000000e+00  0.0000000000000000e+00  0.0000000000000000e+00  0.0000000000000000e+00  0.0000000000000000e+00  0.0000000000000000e+00  0.0000000000000000e+00  0.0000000000000000e+00  0.0000000000000000e+00  0.0000000000000000e+00  0.0000000000000000e+00  0.0000000000000000e+00  0.0000000000000000e+00  0.0000000000000000e+00  0.0000000000000000e+00  0.0000000000000000e+00  0.0000000000000000e+00  0.0000000000000000e+00  0.0000000000000000e+00  0.0000000000000000e+00  0.0000000000000000e+00  0.0000000000000000e+00  0.0000000000000000e+00  0.0000000000000000e+00  0.0000000000000000e+00  0.0000000000000000e+00  0.0000000000000000e+00  0.0000000000000000e+00  0.0000000000000000e+00  0.0000000000000000e+00  0.0000000000000000e+00  0