<?xml version="1.0"?>
<VTKFile type="UnstructuredGrid"  version="0.1"  >
<UnstructuredGrid>
<Piece  NumberOfPoints="8600" NumberOfCells="38940">
<Points>
<DataArray  type="Float64"  NumberOfComponents="3"  format="ascii">21.336119 2.841438 25.75201  22.60044040985 2.8785244519 26.2102654799  21.93146106975 3.3284552167 25.69967474325  22.21706483485 2.67630975055 25.6692713895  22.0050983401 2.3915072352 26.26260073665  22.6740776802 1.9415764704 26.7731914733  22.88604417495 2.22637898575 26.17986212615  23.0980106697 2.5111815011 25.586532779  22.8124069046 3.16332696725 25.61693613275  22.5268031395 3.8154724334 25.6473394865  35.208382 6.988594 22.19405  34.4943608367 6.9545353407 22.86587495385  34.959488 6.4124125 22.852668  34.854626 6.527508 22.282552  34.3894988367 7.0696308407 22.29575895385  35.313244 6.8734985 22.764166  35.418106 6.758403 23.334282  34.50087 6.066422 22.371054  34.0357428367 6.6085448407 22.38426095385  33.5706156734 7.1506676814 22.3974679077  27.561886 13.881736 21.369867  28.47711646665 13.80382124115 22.3780051019  27.3989478447 13.72268466525 22.3812274207  27.8141423447 14.14405516525 22.1287094207  28.22486012195 13.5415020759 21.6191626812  27.80966562195 13.1201315759 21.8716806812  27.1466915 13.4603655 21.622385  26.731497 13.038995 21.874903  28.8878342439 13.2012681518 21.8684583624  28.0663986894 14.4063743305 22.8875518414  31.715004 8.799417999999999 28.517736  30.93022874825 7.833953877999999 28.53770754005  31.36677024825 7.918861377999999 28.13697454005  31.444229 8.127404 28.9005345  31.2784625 8.714510499999999 28.918469  30.841921 8.629602999999999 29.319202  31.0076875 8.0424965 29.3012675  31.173454 7.45539 29.283333  31.09599524825 7.246847378 28.51977304005  31.0185364965 7.038304756 27.7562130801  26.6920458444 3.143712706 27.6491080284  27.18572402335 3.4256916902 27.25915643505  26.83638519755 2.96061555635 27.01718175255  26.6004841094 3.61392711735 27.121508916  26.5089223744 4.0841415287 26.5939098036  27.09416228835 3.89590610155 26.73155732265  26.74482346255 3.4308299677 26.48958264015  26.9807245507 2.7775184067 26.3852554767  27.3300633765 3.24259454055 26.6272301592  27.6794022023 3.7076706744 26.8692048417  25.07011 8.831491 28.667561  25.6682071602 9.265316096799999 28.34042151475  25.7622870947 8.49370247845 28.5571793587  25.51026659975 8.50091400905 27.85378499425  25.9504231995 8.1703370181 27.0400089885  26.10836375995 8.934739105849999 27.526645509  26.20244369445 8.1631254875 27.74340335295  26.4544641894 8.155913956899999 28.4467977174  26.3603842549 8.92752757525 28.23003987345  26.2663043204 9.699141193599999 28.0132820295  30.782089 3.14797 30.857164  31.2715326269 2.0605711967 30.31128806035  31.3937281269 2.4069171967 29.92853756035  30.7580411269 2.5476126967 30.26335906035  31.2955805 2.6609285 30.905093  31.417776 3.0072745 30.5223425  32.053463 2.866579 30.187521  31.9312675 2.520233 30.5702715  31.809072 2.173887 30.953022  30.7339932538 1.9472553934 29.6695541207  30.963520563 3.095830506 29.86760623895  31.599207563 2.955135006 29.53278473895  30.9394726899 2.4954732027 29.2738012993  31.144952126 3.043691012 28.8780484779  35.882164 9.083622999999999 22.449665  34.63279655275 9.57909537205 22.75515903755  35.2792047578 9.247634462499999 21.96951604975  34.95957358290001 8.7923741224 22.4338770807  35.23575579495 9.415083909549999 23.2353079878  34.0369831658 8.501125244800001 22.4180891614  34.31316537785 9.123835031950001 23.2195200685  34.35661434070001 8.956385584900001 21.95372813045  34.5893475899 9.7465448191 24.0209509756  34.6762455156 9.411645925 21.4893670995  27.678762 8.287782999999999 23.56731  26.6720377029 8.456830838449999 23.49715964425  26.5534628868 7.969050796749999 23.6656679844  27.0837322029 8.90100333845 23.70413264425  27.2670675 7.8436105 23.360337  26.855373 7.399438 23.153364  26.1417683868 7.52487829675 23.4586949844  26.4887024058 9.5142236769 23.8409552885  25.9584330897 8.582271135199999 23.80249062865  25.4281637736 7.6503185935 23.7640259688  30.334087 13.414559 24.377708  29.72492663315 13.1074649105 24.09370563835  29.67857398815 12.66493187865 24.3042309082  29.62891913315 13.5796204105 24.10316963835  30.4300945 12.9424035 24.368244  30.526102 12.470248 24.35878  29.77458148815 12.19277637865 24.2947669082  28.9237512663 13.744681821 23.8286312767  28.9734061213 12.82999328915 24.02969254655  29.0230609763 11.9153047573 24.2307538164  31.4956538101 7.5100471539 26.5035053869  32.5764670406 7.6034875045 25.7131389105  32.70435152595 8.244322683850001 26.243529536  32.3343671441 7.46568678555 26.49908360495  31.86563819195 8.2886830522 26.24795131795  31.7377537066 7.647847872850001 25.71756069245  32.2356225738 9.067318950500001 25.992397249  32.10773808845 8.42648377115 25.4620066235  31.9798536031 7.7856485918 24.931615998  33.1730804781 7.4213264172 26.494661823  27.7151631418 10.7205223853 23.9722250647  28.06614186065 10.9680285577 24.566341273  28.79574945425 10.27095844465 24.4084092095  28.81382228175 10.9329901886 23.8110337687  29.9124814217 11.1454579919 23.6498424727  29.1648010006 11.180496361 24.405149977  29.8944085942 10.48342624795 24.2472179135  29.8763357667 9.821394504000001 24.8445933543  29.1467281731 10.51846461705 25.0025254178  28.4171205795 11.2155347301 25.1604574813  20.130621 7.919657 24.384375  20.3030683248 6.942363619249999 25.3784624181  20.66051534715 7.51747081435 24.6294415963  20.1746960614 7.0237971662 24.47822871845  19.77317397765 7.3445498049 25.1333958218  20.2187711228 6.1279373324 24.5720824369  19.81724903905 6.4486899711 25.22724954025  20.70459040855 6.62161098055 24.72329531475  19.4157269553 6.7694426098 25.8824166436  21.1904096943 7.1152846287 24.8745081926  24.3444351296 3.1055225276 25.5122849681  25.31909114745 3.51010869695 24.8900340439  24.5874318255 3.4422667944 24.85263799385  24.63057025415 4.11866169135 25.63509138655  25.07609445155 3.17336443015 25.54968101815  24.9167053787 5.1318008551 25.757897805  24.87356695005 4.45540595815 24.9754444123  25.3622295761 4.186503593899999 25.6724874366  25.8077537735 3.2412063327 25.5870770682  24.8304285214 3.7790110612 24.1929910196  24.07931905505 3.037373747 24.2900619147  23.7931837667 3.6097790904 24.9801657418  23.2419324038 4.1140356532 24.4480465155  24.0361804626 3.9465233572 24.32051876755  23.52806769215 3.5416303098 23.7579426884  26.780172 5.003313 25.32358  26.56193665495 5.09372991475 26.81221004015  26.69756146775 5.5533156504 26.17704513835  26.33397325765 5.00400751475 26.40543483095  26.6445471872 4.54372726435 25.9587449018  25.8877745153 5.0047020295 27.4872896619  26.2513627254 5.55401016515 27.2588999693  26.19834844485 4.5444217791 27.04059973275  26.6149509355 6.1033183008 27.0305102767  27.725686158 9.6460285046 28.4825676346  27.9633613961 10.65006346605 28.06403173875  27.8858059316 10.03404986285 27.80083247885  27.28743455225 10.38065979335 28.2042863019  27.8032416225 10.2620421078 28.7457668945  26.8491829465 11.1152910821 27.9260049692  27.44755432585 10.7686811516 27.52255114615  27.36499001675 10.99667339655 28.4674855618  27.880797087 10.878055711 29.0089661544  28.0459257052 10.4220712211 27.1190973231  28.586178 19.753378 19.582481  28.9427165 18.896897 19.555917  29.131981 19.2428845 19.699707  28.332445 18.9696045 19.806427  28.3969135 19.4073905 19.438691  28.207649 19.061403 19.294901  28.878248 18.459111 19.923653  28.1431805 18.623617 19.662637  28.078712 18.185831 20.030373  29.677784 18.732391 19.816933  32.311974 5.496776 24.139025  32.982947411 6.232158714 25.6164578042  33.17915136465 5.65277056495 25.05665641775  32.37135854635 5.53109914905 25.21608388645  32.92356286464999 6.197835564949999 24.53939891775  32.5675625 4.951711 24.6562825  32.823151 4.406646 25.17354  32.62694704635 4.98603414905 25.73334138645  33.5351517293 6.8988951299 24.9397728355  32.4307430927 5.5654222981 26.2931427729  25.828955 9.758979 29.482292  26.74078575615 8.78803307415 29.86869728335  26.77128175615 9.45778407415 29.73595028335  26.0687715 9.330562499999999 30.079478  25.798459 9.089228 29.615039  26.308588 8.902146 30.676664  27.01109825615 9.029367574150001 30.33313628335  26.0382755 8.660811500000001 30.212225  25.767963 8.419477000000001 29.747786  27.7136085123 9.1565891483 29.9896085667  28.940832 20.186499 22.431368  29.9224574234 19.7759038607 22.21180169285  29.6561394234 19.8589443607 21.58565519285  29.4601944234 19.5857463607 22.00416469285  29.59904 20.6498545 22.2204955  29.403095 20.3766565 22.639005  29.136777 20.459697 22.0128585  29.332722 20.732895 21.594349  29.865358 20.566814 22.846642  29.9795568468 18.9849937214 21.5769613857  24.684406 13.261369 25.420055  25.1850670636 12.47904652465 25.86914764055  25.3651645636 12.84892502465 25.67383864055  24.828736 12.7914885 25.2140405  24.5043085 12.8914905 25.615364  24.973066 12.321608 25.008026  25.5094945636 12.37904452465 25.46782414055  24.6486385 12.42161 25.4093495  24.324211 12.521612 25.810673  26.0459231272 12.4364810493 25.9276222811  26.651556 10.212738 30.506777  27.28726525615 9.33179407415 30.96673178335  27.18258225615 9.684663574150001 30.24819278335  26.480072 9.557442 30.5917205  26.756239 9.859868500000001 31.225316  26.584755 9.204572500000001 31.3102595  26.860922 9.506999 31.943855  26.6295425925 9.9461175443 26.5436201893  26.82131233735 9.23384084145 27.6275057135  27.1561150128 10.06060620735 27.5661896763  27.0029314734 9.3573290168 26.8926747934  26.44792345645 9.82262936895 27.2784511094  27.71112302975 9.595305855199999 27.1804133603  27.33773414885 10.1840943827 26.8313587562  27.3763203543 8.768540489299999 27.2417293975  31.4358087462 8.6941613072 25.3958312328  31.1937088497 8.556360588250001 26.18177592725  31.56369323155 9.334996486550001 25.9262218583  30.8917638893 9.6026740226 25.8600464676  27.053146554 8.0192388472 24.07245377815  27.223298 7.2920295 23.911417  27.6349925 7.736202 24.11839  27.464841054 8.463411347199999 24.27942677815  27.5912
[...]
<PointData  Vectors="u"> 
<DataArray  type="Float64"  Name="u"  NumberOfComponents="3" format="ascii">0.0000000000000000e+00 0.0000000000000000e+00 0.0000000000000000e+00  0.0000000000000000e+00 0.0000000000000000e+00 0.0000000000000000e+00  0.0000000000000000e+00 0.0000000000000000e+00 0.0000000000000000e+00  0.0000000000000000e+00 0.0000000000000000e+00 0.0000000000000000e+00  0.0000000000000000e+00 0.0000000000000000e+00 0.0000000000000000e+00  0.0000000000000000e+00 0.0000000000000000e+00 0.0000000000000000e+00  0.0000000000000000e+00 0.0000000000000000e+00 0.0000000000000000e+00  0.0000000000000000e+00 0.0000000000000000e+00 0.0000000000000000e+00  0.0000000000000000e+00 0.0000000000000000e+00 0.0000000000000000e+00  0.0000000000000000e+00 0.0000000000000000e+00 0.0000000000000000e+00  0.0000000000000000e+00 0.0000000000000000e+00 0.0000000000000000e+00  0.0000000000000000e+00 0.0000000000000000e+00 0.0000000000000000e+00  0.0000000000000000e+00 0.0000000000000000e+00 0.0000000000000000e+00  0.0000000000000000e+00 0.0000000000000000e+00 0.0000000000000000e+00  0.0000000000000000e+00 0.0000000000000000e+00 0.0000000000000000e+00  0.0000000000000000e+00 0.0000000000000000e+00 0.0000000000000000e+00  0.0000000000000000e+00 0.0000000000000000e+00 0.0000000000000000e+00  0.0000000000000000e+00 0.0000000000000000e+00 0.0000000000000000e+00  0.0000000000000000e+00 0.0000000000000000e+00 0.0000000000000000e+00  0.0000000000000000e+00 0.0000000000000000e+00 0.0000000000000000e+00  0.0000000000000000e+00 0.0000000000000000e+00 0.0000000000000000e+00  0.0000000000000000e+00 0.0000000000000000e+00 0.0000000000000000e+00  0.0000000000000000e+00 0.0000000000000000e+00 0.0000000000000000e+00  0.0000000000000000e+00 0.0000000000000000e+00 0.0000000000000000e+00  0.0000000000000000e+00 0.0000000000000000e+00 0.0000000000000000e+00  0.0000000000000000e+00 0.0000000000000000e+00 0.0000000000000000e+00  0.0000000000000000e+00 0.0000000000000000e+00 0.0000000000000000e+00  0.0000000000000000e+00 0.0000000000000000e+00 0.0000000000000000e+00  0.0000000000000000e+00 0.0000000000000000e+00 0.0000000000000000e+00  0.0000000000000000e+00 0.0000000000000000e+00 0.0000000000000000e+00  0.0000000000000000e+00 0.0000000000000000e+00 0.0000000000000000e+00  0.0000000000000000e+00 0.0000000000000000e+00 0.0000000000000000e+00  0.0000000000000000e+00 0.0000000000000000e+00 0.0000000000000000e+00  0.0000000000000000e+00 0.0000000000000000e+00 0.0000000000000000e+00  0.0000000000000000e+00 0.0000000000000000e+00 0.0000000000000000e+00  0.0000000000000000e+00 0.0000000000000000e+00 0.0000000000000000e+00  0.0000000000000000e+00 0.0000000000000000e+00 0.0000000000000000e+00  0.0000000000000000e+00 0.0000000000000000e+00 0.0000000000000000e+00  0.0000000000000000e+00 0.0000000000000000e+00 0.0000000000000000e+00  0.0000000000000000e+00 0.0000000000000000e+00 0.0000000000000000e+00  0.0000000000000000e+00 0.0000000000000000e+00 0.0000000000000000e+00  0.0000000000000000e+00 0.0000000000000000e+00 0.0000000000000000e+00  0.0000000000000000e+00 0.0000000000000000e+00 0.0000000000000000e+00  0.0000000000000000e+00 0.0000000000000000e+00 0.0000000000000000e+00  0.0000000000000000e+00 0.0000000000000000e+00 0.0000000000000000e+00  0.0000000000000000e+00 0.0000000000000000e+00 0.0000000000000000e+00  0.0000000000000000e+00 0.0000000000000000e+00 0.0000000000000000e+00  0.0000000000000000e+00 0.0000000000000000e+00 0.0000000000000000e+00  0.0000000000000000e+00 0.0000000000000000e+00 0.0000000000000000e+00  0.0000000000000000e+00 0.0000000000000000e+00 0.0000000000000000e+00  0.0000000000000000e+00 0.0000000000000000e+00 0.0000000000000000e+00  0.0000000000000000e+00 0.0000000000000000e+00 0.0000000000000000e+00  0.0000000000000000e+00 0.0000000000000000e+00 0.0000000000000000e+00  0.0000000000000000e+00 0.0000000000000000e+00 0.0000000000000000e+00  0.0000000000000000e+00 0.0000000000000000e+00 0.0000000000000000e+00  0.0000000000000000e+00 0.0000000000000000e+00 0.0000000000000000e+00  0.0000000000000000e+00 0.0000000000000000e+00 0.0000000000000000e+00  0.0000000000000000e+00 0.0000000000000000e+00 0.0000000000000000e+00  0.0000000000000000e+00 0.0000000000000000e+00 0.0000000000000000e+00  0.0000000000000000e+00 0.0000000000000000e+00 0.0000000000000000e+00  0.0000000000000000e+00 0.0000000000000000e+00 0.0000000000000000e+00  0.0000000000000000e+00 0.0000000000000000e+00 0.0000000000000000e+00  0.0000000000000000e+00 0.0000000000000000e+00 0.0000000000000000e+00  0.0000000000000000e+00 0.0000000000000000e+00 0.0000000000000000e+00  0.0000000000000000e+00 0.0000000000000000e+00 0.0000000000000000e+00  0.0000000000000000e+00 0.0000000000000000e+00 0.0000000000000000e+00  0.0000000000000000e+00 0.0000000000000000e+00 0.0000000000000000e+00  0.0000000000000000e+00 0.0000000000000000e+00 0.0000000000000000e+00  0.0000000000000000e+00 0.0000000000000000e+00 0.0000000000000000e+00  0.0000000000000000e+00 0.0000000000000000e+00 0.0000000000000000e+00  0.0000000000000000e+00 0.0000000000000000e+00 0.0000000000000000e+00  0.0000000000000000e+00 0.0000000000000000e+00 0.0000000000000000e+00  0.0000000000000000e+00 0.0000000000000000e+00 0.0000000000000000e+00  0.0000000000000000e+00 0.0000000000000000e+00 0.0000000000000000e+00  0.0000000000000000e+00 0.0000000000000000e+00 0.0000000000000000e+00  0.0000000000000000e+00 0.0000000000000000e+00 0.0000000000000000e+00  0.0000000000000000e+00 0.0000000000000000e+00 0.0000000000000000e+00  0.0000000000000000e+00 0.0000000000000000e+00 0.0000000000000000e+00  0.0000000000000000e+00 0.0000000000000000e+00 0.0000000000000000e+00  0.0000000000000000e+00 0.0000000000000000e+00 0.0000000000000000e+00  0.0000000000000000e+00 0.0000000000000000e+00 0.0000000000000000e+00  0.0000000000000000e+00 0.0000000000000000e+00 0.0000000000000000e+00  0.0000000000000000e+00 0.0000000000000000e+00 0.0000000000000000e+00  0.0000000000000000e+00 0.0000000000000000e+00 0.0000000000000000e+00  0.0000000000000000e+00 0.0000000000000000e+00 0.0000000000000000e+00  0.0000000000000000e+00 0.0000000000000000e+00 0.0000000000000000e+00  0.0000000000000000e+00 0.0000000000000000e+00 0.0000000000000000e+00  0.0000000000000000e+00 0.0000000000000000e+00 0.0000000000000000e+00  0.0000000000000000e+00 0.0000000000000000e+00 0.0000000000000000e+00  0.0000000000000000e+00 0.0000000000000000e+00 0.0000000000000000e+00  0.0000000000000000e+00 0.0000000000000000e+00 0.0000000000000000e+00  0.0000000000000000e+00 0.0000000000000000e+00 0.0000000000000000e+00  0.0000000000000000e+00 0.0000000000000000e+00 0.0000000000000000e+00  0.0000000000000000e+00 0.0000000000000000e+00 0.0000000000000000e+00  0.0000000000000000e+00 0.0000000000000000e+00 0.0000000000000000e+00  0.0000000000000000e+00 0.0000000000000000e+00 0.0000000000000000e+00  0.0000000000000000e+00 0.0000000000000000e+00 0.0000000000000000e+00  0.0000000000000000e+00 0.0000000000000000e+00 0.0000000000000000e+00  0.0000000000000000e+00 0.0000000000000000e+00 0.0000000000000000e+00  0.0000000000000000e+00 0.0000000000000000e+00 0.0000000000000000e+00  0.0000000000000000e+00 0.0000000000000000e+00 0.0000000000000000e+00  0.0000000000000000e+00 0.0000000000000000e+00 0.0000000000000000e+00  0.0000000000000000e+00 0.0000000000000000e+00 0.0000000000000000e+00  0.0000000000000000e+00 0.0000000000000000e+00 0.0000000000000000e+00  0.0000000000000000e+00 0.0000000000000000e+00 0.0000000000000000e+00  0.0000000000000000e+00 0.0000000000000000e+00 0.0000000000000000e+00  0.0000000000000000e+00 0.0000000000000000e+00 0.0000000000000000e+00  0.0000000000000000e+00 0.0000000000000000e+00 0.0000000000000000e+00  0.0000000000000000e+00 0.0000000000000000e+00 0.0000000000000000e+00  0.0000000000000000e+00 0.0000000000000000e+00 0.0000000000000000e+00  0.0000000000000000e+00 0.0000000000000000e+00 0.0000000000000000e+00  0.0000000000000000e+00 0.0000000000000000e+00 0.0000000000000000e+00  0.0000000000000000e+00 0.0000000000000000e+00 0.0000000000000000e+00  0.0000000000000000e+00 0.0000000000000000e+00 0.0000000000000000e+00  0.0000000000000000e+00 0.0000000000000000e+00 0.0000000000000000e+00  0.0000000000000000e+00 0.0000000000000000e+00 0.0000000000000000e+00  0.0000000000000000e+00 0.0000000000000000e+00 0.0000000000000000e+00  0.0000000000000000e+00 0.0000000000000000e+00 0.0000000000000000e+00  0.0000000000000000e+00 0.0000000000000000e+00 0.0000000000000000e+00  0.0000000000000000e+00 0.0000000000000000e+00 0.0000000000000000e+00  0.0000000000000000e+00 0.0000000000000000e+00 0.0000000000000000e+00  0.0000000000000000e+00 0.0000000000000000e+00 0.0000000000000000e+00  0.0000000000000000e+00 0.0000000000000000e+00 0.0000000000000000e+00  0.0000000000000000e+00 0.0000000000000000e+00 0.0000000000000000e+00  0.0000000000000000e+00 0.0000000000000000e+00 0.0000000000000000e+00  0.0000000000000000e+00 0.0000000000000000e+00 0.0000000000000000e+00  0.0000000000000000e+00 0.0000000000000000e+00 0.0000000000000000e+00  0.0000000000000000e+00 0.0000000000000000e+00 0.0000000000000000e+00  0.0000000000000000e+00 0.0000000000000000e+00 0.0000000000000000e+00  0.0000000000000000e+00 0.0000000000000000e+00 0.0000000000000000e+00  0.0000000000000000e+00 0.0000000000000000e+00 0.0000000000000000e+00  0.0000000000000000e+00 0.0000000000000000e+00 0.0000000000000000e+00  0.0000000000000000e+00 0.0000000000000000e+00 0.0000000000000000e+00  0.0000000000000000e+00 0.0000000000000000e+00 0.0000000000000000e+00  0.0000000000000000e+00 0.0000000000000000e+00 0.0000000000000000e+00  0.0000000000000000e+00 0.0000000000000000e+00 0.0000000000000000e+00  0.0000000000000000e+00 0.0000000000000000e+00 0.0000000000000000e+00  0.0000000000000000e+00 0.0000000000000000e+00 0.0000000000000000e+00  0.0000000000000000e+00 0.0000000000000000e+00 0.0000000000000000e+00  0.0000000000000000e+00 0.0000000000000000e+00 0.0000000000000000e+00  0.0000000000000000e+00 0.0000000000000000e+00 0.0000000000000000e+00  0.0000000000000000e+00 0.0000000000000000e+00 0.0000000000000000e+00  0.0000000000000000e+00 0.0000000000000000e+00 0.0000000000000000e+00  0.0000000000000000e+00 0.0000000000000000e+00 0.0000000000000000e+00  0.0000000000000000e+00 0.0000000000000000e+00 0.0000000000000000e+00  0.0000000000000000e+00 0.0000000000000000e+00 0.0000000000000000e+00  0.0000000000000000e+00 0.0000000000000000e+00 0.0000000000000000e+00  0.0000000000000000e+00 0.0000000000000000e+00 0.0000000000000000e+00  0.0000000000000000e+00 0.0000000000000000e+00 0.0000000000000000e+00  0.0000000000000000e+00 0.0000000000000000e+00 0.0000000000000000e+00  0.0000000000000000e+00 0.0000000000000000e+00 0.0000000000000000e+00  0.0000000000000000e+00 0.0000000000000000e+00 0.0000000000000000e+00  0.0000000000000000e+00 0.0000000000000000e+00 0.0000000000000000e+00  0.0000000000000000e+00 0.0000000000000000e+00 0.0000000000000000e+00  0.0000000000000000e+00 0.0000000000000000e+00 0.0000000000000000e+00  0.0000000000000000e+00 0.0000000000000000e+00 0.0000000000000000e+00  0.0000000000000000e+00 0.0000000000000000e+00 0.0000000000000000e+00  0.0000000000000000e+00 0.0000000000000000e+00 0.0000000000000000e+00  0.0000000000000000e+00 0.0000000000000000e+00 0.0000000000000000e+00  0.0000000000000000e+00 0.0000000000000000e+00 0.0000000000000000e+00  0.0000000000000000e+00 0.0000000000000000e+00 0.0000000000000000e+00  0.0000000000000000e+00 0.0000000000000000e+00 0.0000000000000000e+00  0.0000000000000000e+00 0.0000000000000000e+00 0.0000000000000000e+00  0.0000000000000000e+00 0.0000000000000000e+00 0.0000000000000000e+00  0.0000000000000000e+00 0.0000000000000000e+00 0.0000000000000000e+00  0.0000000000000000e+00 0.0000000000000000e+00 0.0000000000000000e+00  0.0000000000000000e+00 0.0000000000000000e+00 0.0000000000000000e+00  0.0000000000000000e+00 0.0000000000000000e+00 0.0000000000000000e+00  0.0000000000000000e+00 0.0000000000000000e+00 0.0000000000000000e+00  0.0000000000000000e+00 0.0000000000000000e+00 0.0000000000000000e+00  0.0000000000000000e+00 0.0000000000000000e+00 0.0000000000000000e+00  0.0000000000000000e+00 0.0000000000000000e+00 0.0000000000000000e+00  0.0000000000000000e+00 0.0000000000000000e+00 0.0000000000000000e+00  0.0000000000000000e+00 0.0000000000000000e+00 0.0000000000000000e+00  0.0000000000000000e+00 0.0000000000000000e+00 0.0000000000000000e+00  0.0000000000000000e+00 0.0000000000000000e+00 0.0000000000000000e+00  0.0000000000000000e+00 0.0000000000000000e+00 0.0000000000000000e+00  0.0000000000000000e+00 0.0000000000000000e+00 0.0000000000000000e+00  0.0000000000000000e+00 0.0000000000000000e+00 0.0000000000000000e+00  0.0000000000000000e+00 0.0000000000000000e+00 0.0000000000000000e+00  0.0000000000000000e+00 0.0000000000000000e+00 0.0000000000000000e+00  0.0000000000000000e+00 0.0000000000000000e+00 0.0000000000000000e+00  0.0000000000000000e+00 0.0000000000000000e+00 0.0000000000000000e+00  0.0000000000000000e+00 0.0000000000000000e+00 0.0000000000000000e+00  0.0000000000000000e+00 0.0000000000000000e+00 0.0000000000000000e+00  0.0000000000000000e+00 0.0000000000000000e+00 0.0000000000000000e+00  0.0000000000000000e+00 0.0000000000000000e+00 0.0000000000000000e+00  0.0000000000000000e+00 0.0000000000000000e+00 0.0000000000000000e+00  0.0000000000000000e+00 0.0000000000000000e+00 0.0000000000000000e+00  0.0000000000000000e+00 0.0000000000000000e+00 0.0000000000000000e+00  0.0000000000000000e+00 0.0000000000000000e+00 0.0000000000000000e+00  0.0000000000000000e+00 0.0000000000000000e+00 0.0000000000000000e+00  0.0000000000000000e+00 0.0000000000000000e+00 0.0000000000000000e+00  0.0000000000000000e+00 0.0000000000000000e+00 0.0000000000000000e+00  0.0000000000000000e+00 0.0000000000000000e+00 0.0000000000000000e+00  0.0000000000000000e+00 0.0000000000000000e+00 0.0000000000000000e+00  0.0000000000000000e+00 0.0000000000000000e+00 0.0000000000000000e+00  0.0000000000000000e+00 0.0000000000000000e+00 0.0000000000000000e+00  0.0000000000000000e+00 0.0000000000000000e+00 0.0000000000000000e+00  0.0000000000000000e+00 0.0000000000000000e+00 0.0000000000000000e+00  0.0000000000000000e+00 0.0000000000000000e+00 0.0000000000000000e+00  0.0000000000000000e+00 0.0000000000000000e+00 0.0000000000000000e+00  0.0000000000000000e+00 0.0000000000000000e+00 0.0000000000000000e+00  0.0000000000000000e+00 0.0000000000000000e+00 0.0000000000000000e+00  0.0000000000000000e+00 0.0000000000000000e+00 0.0000000000000000e+00  0.0000000000000000e+00 0.0000000000000000e+00 0.0000000000000000e+00  0.0000000000000000e+00 0.0000000000000000e+00 0.0000000000000000e+00  0.0000000000000000e+00 0.0000000000000000e+00 0.0000000000000000e+00  0.0000000000000000e+00 0.0000000000000000e+00 0.0000000000000000e+00  0.0000000000000000e+00 0.0000000000000000e+00 0.0000000000000000e+00  0.0000000000000000e+00 0.0000000000000000e+00 0.0000000000000000e+00  0.0000000000000000e+00 0.0000000000000000e+00 0.0000000000000000e+00  0.0000000000000000e+00 0.0000000000000000e+00 0.0000000000000000e+00  0.0000000000000000e+00 0.0000000000000000e+00 0.0000000000000000e+00  0.0000000000000000e+00 0.0000000000000000e+00 0.0000000000000000e+00  0.0000000000000000e+00 0.0000000000000000e+00 0.0000000000000000e+00  0.0000000000000000e+00 0.0000000000000000e+00 0.0000000000000000e+00  0.0000000000000000e+00 0.0000000000000000e+00 0.0000000000000000e+00  0.0000000000000000e+00 0.0000000000000000e+00 0.0000000000000000e+00  0.0000000000000000e+00 0.0000000000000000e+00 0.0000000000000000e+00  0.0000000000000000e+00 0.0000000000000000e+00 0.0000000000000000e+00  0.0000000000000000e+00 0.0000000000000000e+00 0.0000000000000000e+00  0.0000000000000000e+00 0.0000000000000000e+00 0.0000000000000000e+00  0.0000000000000000e+00 0.0000000000000000e+00 0.0000000000000000e+00  0.0000000000000000e+00 0.0000000000000000e+00 0.0000000000000000e+00  0.0000000000000000e+00 0.0000000000000000e+00 0.0000000000000000e+00  0.0000000000000000e+00 0.0000000000000000e+00 0.0000000000000000e+00  0.0000000000000000e+00 0.0000000000000000e+00 0.0000000000000000e+00  0.0000000000000000e+00 0.0000000000000000e+00 0.0000000000000000e+00  0.0000000000000000e+00 0.0000000000000000e+00 0.0000000000000000e+00  0.0000000000000000e+00 0.0000000000000000e+00 0.0000000000000000e+00  0.0000000000000000e+00 0.0000000000000000e+00 0.0000000000000000e+00  0.0000000000000000e+00 0.0000000000000000e+00 0.0000000000000000e+00  0.0000000000000000e+00 0.0000000000000000e+00 0.0000000000000000e+00  0.0000000000000000e+00 0.0000000000000000e+00 0.0000000000000000e+00  0.0000000000000000e+00 0.0000000000000000e+00 0.0000000000000000e+00  0.0000000000000000e+00 0.0000000000000000e+00 0.0000000000000000e+00  0.0000000000000000e+00 0.0000000000000000e+00 0.0000000000000000e+00  0.0000000000000000e+00 0.0000000000000000e+00 0.0000000000000000e+00  0.0000000000000000e+00 0.0000000000000000e+00 0.0000000000000000e+00  0.0000000000000000e+00 0.0000000000000000e+00 0.0000000000000000e+00  0.0000000000000000e+00 0.0000000000000000e+00 0.0000000000000000e+00  0.0000000000000000e+00 0.0000000000000000e+00 0.0000000000000000e+00  0.0000000000000000e+00 0.0000000000000000e+00 0.0000000000000000e+00  0.0000000000000000e+00 0.0000000000000000e+00 0.0000000000000000e+00  0.0000000000000000e+00 0.0000000000000000e+00 0.0000000000000000e+00  0.0000000000000000e+00 0.0000000000000000e+00 0.0000000000000000e+00  0.0000000000000000e+00 0.0000000000000000e+00 0.0000000000000000e+00  0.0000000000000000e+00 0.0000000000000000e+00 0.0000000000000000e+00  0.0000000000000000e+00 0.0000000000000000e+00 0.0000000000000000e+00  0.0000000000000000e+00 0.0000000000000000e+00 0.0000000000000000e+00  0.0000000000000000e+00 0.0000000000000000e+00 0.0000000000000000e+00  0.0000000000000000e+00 0.0000000000000000e+00 0.0000000000000000e+00  0.0000000000000000e+00 0.0000000000000000e+00 0.0000000000000000e+00  0.0000000000000000e+00 0.0000000000000000e+00 0.0000000000000000e+00  0.0000000000000000e+00 0.0000000000000000e+00 0.0000000000000000e+00  0.0000000000000000e+00 0.0000000000000000e+00 0.0000000000000000e+00  0.0000000000000000e+00 0.0000000000000000e+00 0.0000000000000000e+00  0.0000000000000000e+00 0.0000000000000000e+00 0.0000000000000000e+00  0.0000000000000000e+00 0.0000000000000000e+00 0.0000000000000000e+00  0.0000000000000000e+00 0.0000000000000000e+00 0.0000000000000000e+00  0.0000000000000000e+00 0.0000000000000000e+00 0.0000000000000000e+00  0.0000000000000000e+00 0.0000000000000000e+00 0.0000000000000000e+00  0.0000000000000000e+00 0.0000000000000000e+00 0.0000000000000000e+00  0.0000000000000000e+00 0.0000000000000000e+00 0.0000000000000000e+00  0.0000000000000000e+00 0.0000000000000000e+00 0.0000000000000000e+00  0.0000000000000000e+00 0.0000000000000000e+00 0.0000000000000000e+00  0.0000000000000000e+00 0.0000000000000000e+00 0.0000000000000000e+00  0.0000000000000000e+00 0.0000000000000000e+00 0.0000000000000000e+00  0.0000000000000000e+00 0.0000000000000000e+00 0.0000000000000000e+00  0.0000000000000000e+00 0.0000000000000000e+00 0.0000000000000000e+00  0.0000000000000000e+00 0.0000000000000000e+00 0.0000000000000000e+00  0.0000000000000000e+00 0.0000000000000000e+00 0.0000000000000000e+00  0.0000000000000000e+00 0.0000000000000000e+00 0.0000000000000000e+00  0.0000000000000000e+00 0.0000000000000000e+00 0.0000000000000000e+00  0.0000000000000000e+00 0.0000000000000000e+00 0.0000000000000000e+00  0.0000000000000000e+00 0.0000000000000000e+00 0.0000000000000000e+00  0.0000000000000000e+00 0.0000000000000000e+00 0.0000000000000000e+00  0.0000000000000000e+00 0.0000000000000000e+00 0.0000000000000000e+00  0.0000000000000000e+00 0.0000000000000000e+00 0.0000000000000000e+00  0.0000000000000000e+00 0.0000000000000000e+00 0.0000000000000000e+00  0.0000000000000000e+00 0.0000000000000000e+00 0.0000000000000000e+00  0.0000000000000000e+00 0.0000000000000000e+00 0.0000000000000000e+00  0.0000000000000000e+00 0.0000000000000000e+00 0.0000000000000000e+00  0.0000000000000000