<?xml version="1.0"?>
<VTKFile type="UnstructuredGrid"  version="0.1"  >
<UnstructuredGrid>
<Piece  NumberOfPoints="8517" NumberOfCells="38183">
<Points>
<DataArray  type="Float64"  NumberOfComponents="3"  format="ascii">40.359165 12.320337 39.952274  40.877516 12.1748325 41.0902825  40.839636 12.8127945 40.9784415  41.0337315 12.511129 40.2001095  40.1650695 12.6220025 40.730606  39.970974 12.923668 41.508938  41.708298 12.701921 40.447945  42.964298 12.982582 43.750057  43.40649520185 12.4661751138 43.3526635826  43.1969415 12.484279 44.0376415  42.7250115 12.333002 43.5295255  43.429585 11.985976 44.325226  40.5713025 12.2093775 41.959175  40.5334225 12.8473395 41.847334  41.4020845 12.736466 41.3168375  41.095871 12.771011 42.18573  42.125854 12.740696 42.832443  42.98727320185 12.3452321138 42.89385658259999  42.54507599999999 12.861639 43.29125  35.43536 39.583889 40.931168  36.63739399985 39.15790124735 40.1812567969  36.8366858045 39.80733524675 40.1562039329  36.418338109 39.72484422485 40.95635652049999  36.21904630435 39.07541022545 40.9814093845  35.85370769550001 39.6663800219 40.1310154124  36.272055391 39.7488710438 39.3308628248  37.401316218 39.8657994497 40.981545041  37.20202441335 39.2163654503 41.006597905  37.0027326087 38.5669314509 41.031650769  40.678139 40.163158 43.219727  40.71959743095 41.1199340024 43.05647408385001  40.09418023465 40.6827639522 42.6730375675  40.46335693095 40.8134570024 43.58224658385  40.93437950000001 40.469635 42.6939545  39.83793973465 40.3762869522 43.1988100675  41.19062 40.776112 42.168182  38.9977404693 40.5894159044 43.177893135  39.6231576656 41.02658595459999 43.56132965135  40.2485748619 41.4637560048 43.9447661677  37.335831 37.863255 43.765728  38.05966710654999 38.54433487105 43.3610038009  37.45117168225 38.5498767584 43.0166494213  37.65387461775 37.90956631195 42.76465727825  37.9719182355 37.9558776239 41.7635865565  38.3777107243 38.590646183 42.35993307915  37.7692153 38.59618807035 42.01557869955001  37.5665123645 39.2364985168 42.2675708426  38.1750077888 39.23095662945 42.6119252222  38.7835032131 39.2254147421 42.9562796018  42.8723038886 43.4897016002 40.244232484  43.45081293955 42.6478279741 40.38136190365  42.81916866395 42.8861140436 39.9649018802  43.48424052785001 42.83745371095 39.94302804495  43.5039481642 43.2514155307 40.66069250745  44.0961771671 42.1852058217 39.6418236059  43.4311053032 42.23386615435 39.66369744115  44.11588480345 42.59916764145 40.3594880684  44.1355924398 43.0131294612 41.0771525309  42.7660334393 42.282526487 39.6855712764  36.9972439279 40.306815387 37.8646485984  37.24448630720001 40.1029075768 38.87862649905  37.60708057565 40.3818797484 38.14551938585  36.88263859725 40.5456833101 38.99929823465  36.63464965945001 40.0278432154 38.5977557116  37.492475245 40.6207476715 39.2801690221  36.5200443288 40.2667111385 39.73240534785  36.7680332666 40.7845512332 40.1339478709  38.2169172234 40.4569441098 38.4263901733  41.1815628749 41.194384644 38.0130149617  40.85494874135 40.4881097743 37.65085870835  40.366257464 40.6544356536 38.0434541035  40.74402480475 41.0038462174 37.56646923705  41.2924868115 40.6786482009 38.097404433  40.80379553415 40.8449740802 38.48999982815  40.4260281934 40.4955635164 38.9669846946  40.91471947075 40.3292376371 38.57438929945  41.4034107481 40.1629117578 38.1817939043  40.3064867346 40.8133077908 37.1199235124  38.015854 36.847763 34.123085  37.9137944226 36.40528473945 33.403458035  38.291441 37.029375 33.593054  37.8704355 37.2023295 33.19047550000001  38.567028 37.210987 33.063023  39.893356 38.37553 42.994122  38.61004047785 38.07064498645 42.88729854825  39.33842960654999 38.80047237105 42.9752008009  38.93263711775 38.16570381195 42.37885427825  39.1649668713 37.6457026154 42.90621974734999  38.20424798905 37.43587642735 42.2909520256  38.4365777426 36.9158752308 42.8183174947  40.427792 45.515015 43.375946  40.8306736704 44.8751582177 43.1300019424  40.36946308995 44.7265522831 43.59972883175  40.31058444195 44.6146283872 42.7878416353  40.1933768839 43.7142417744 42.1997372706  40.71346611235001 43.9747716049 42.5418975777  40.2522555319 43.8261656703 43.01162446705  40.3111341799 43.9380895662 43.8235116635  40.77234476035 44.0866955008 43.35378477415  41.2335553408 44.2353014354 42.8840578848  41.422932 36.614067 39.235374  41.737291844 37.04052597224999 38.1714583621  42.288397 37.034477 38.8160475  41.607178 37.276983 39.157024  42.104151 36.371561 38.8943975  41.553045844 36.37760997225 38.2498083621  42.78537 36.129055 38.553421  42.234264844 36.13510397225 37.9088318621  41.791424 37.939899 39.078674  41.683159688 36.1411529445 37.2642427242  44.0079491783 38.021158537 37.0764374081  43.0884412164 39.0952810217 36.96274825645  43.43478514195 38.36407897325 36.59565037095  43.2662843306 38.0851354546 37.2896671819  43.66160525275 38.75236058545 37.4435352936  42.5246194829 38.1491123722 37.5028969557  42.69312029425 38.42805589085 36.80888014475001  42.91994040505 38.81633750305 37.6567650674  43.3152613272 39.4835626339 37.8106331791  42.8616211056 38.7069994095 36.1148633338  39.2767339793 42.2976648911 43.0719067393  40.4610508261 42.02495512255 42.11730544175  40.03176590155 42.67277859665001 41.80407191975  40.16434035615 42.35812985865 42.94905552695  39.57344444925 41.964490155 42.2401566541  39.7350554316 43.00595333275 42.63582200495  40.62266180845 43.0664183003 42.5129707926  39.8701549192 41.6313154189 41.4084065689  41.051946733 42.4185948262 42.8262043146  39.5865700353 40.8995189147 38.2075253441  38.30042799345 41.11729909565 37.95065803244999  38.90174362935 40.67823151225 38.3169577587  39.0153808598 40.6909956589 37.6511143455  38.87161716895 41.32582235145 38.50706903104999  38.1566643026 41.7521257882 38.806612718  38.186790763 41.104534949 38.61650144565  38.4441916843 40.4824724031 37.0947033469  38.33055445385 40.46970825645 37.7605467601  41.6864113836 39.4497751632 37.4381636446  42.27401624460001 39.07838728635 36.7765134892  42.10551543325001 38.7994437677 37.47053030015  42.5008363554 39.46666889855 37.62439841185  40.0983140259 35.5385389222 37.2182522198  40.55436673365 35.47050694844999 36.66334076515  40.53043314925 36.1211153694 36.3524147123  40.89073685695 35.83984593335 37.241247472  41.3467895647 35.7718139596 36.68633601735  41.32285598030001 36.42242238055 36.3754099645  40.9625522726 36.7036918166 35.4865772048  40.98648585700001 36.05308339565 35.79750325765  41.0104194414 35.4024749747 36.1084293105  39.7172447454 41.57202115625 38.8406042306  39.4162540006 40.88377865795 38.7592633411  39.85390927575 41.21251971325 38.9438095504  39.8875607801 41.587761413 38.2888662336  40.1212485162 41.5255205118 39.6800937567  39.68359324105 41.1967794565 39.4955475474  40.15490002055 41.90076221155 39.0251504399  40.1885515249 42.2760039113 38.3702071231  39.2459379659 40.8680384012 39.3110013381  45.573441 42.218494 40.163437  44.77026058355 42.66302991085 39.91574530295  44.8545167199 42.6158117306 40.62029476545  44.83480908355 42.20184991085 39.90263030295  45.5088925 42.679674 40.176552  45.444344 43.140854 40.189667  44.7899682199 43.0769917306 40.63340976545  39.940239 45.522903 37.059216  40.63916756335 44.8108030822 37.92789230939999  40.53927 45.5736655 37.904371  40.5433825 45.5608345 37.271288  40.64328006335 44.7979720822 37.29480930939999  39.9361265 45.53573400000001 37.692299  39.932014 45.548565 38.325382  41.146526 45.598766 37.48336  41.24642356335 44.8359035822 37.5068813094  41.3463211267 44.0730411644 37.5304026188  39.575264 35.376835 40.438457  39.5059245038 36.07074997305 38.9570704738  39.27404201365 35.1024660353 39.37761692805  39.0024110038 36.04090597305 39.4164169738  40.0787775 35.406679 39.9791105  40.582291 35.436523 39.519764  39.77755551365 35.1323100353 38.91827042805  38.4295580076 36.7049769461 38.3943769476  38.70118901745001 35.76653700835 38.35557690185  38.9728200273 34.8280970706 38.3167768561  40.822002 44.302395 35.73465  41.08652506335 44.6800485822 36.8285213094  40.328874287 44.65847630035 36.6943878631  41.08416156334999 44.1877180822 36.6325263094  40.8243655 44.7947255 35.930645  40.326510787 44.16614580034999 36.4983928631  40.826729 45.287056 36.12664  39.831019574 44.0298966007 37.2621357262  40.58867035035 44.05146888255 37.3962691725  42.359177 41.531216 41.570435  43.05476994430001 42.67258730010001 41.246648742  43.2473847199 42.2721727306 41.32379376545001  42.6157404443 42.5104588001 40.90733374200001  42.79820650000001 41.6933445 41.90975  43.237236 41.855473 42.249065  43.6864142199 42.4343012306 41.66310876545  34.566792 41.809082 38.746025  35.3546399904 41.1163975556 39.0320364654  35.3037139904 41.5142760556 38.5771034654  35.061636 41.85804349999999 39.1551075  34.617718 41.4112035 39.200958  34.668644 41.013325 39.655891  35.112562 41.460165 39.6100405  35.55648 41.907005 39.56419  35.7985579904 41.5632375556 38.9861859654  36.0406359808 41.2194701112 38.4081819308  36.243389 38.744274 42.523312  37.39082811775 38.28404931195 42.53900827825  36.90495068225 38.99038625839999 42.3954414213  37.10765361775 38.35007581195 42.14344927825  36.5265635 38.6782475 42.918871  36.809738 38.612221 43.31443  37.18812518225 38.9243597584 42.7910004213  39.5207688026 36.53949114945 37.7008145075  39.56462799955 35.86971852045 38.2475553124  39.49170782965 35.8530906254 37.22077373305  40.12737499885 36.22493944625 37.69829299425  38.92896083035 35.4978696996 37.77003605119999  39.53556702660001 35.1833179964 37.76751453795  40.1564359718 36.9113399703 38.1783337687  38.8851016334 36.1676423286 37.2232952463  40.737907 39.265724 35.87989  40.57912781945 39.5446965842 37.2807303797  40.10487562765 39.4526710026 36.5015935574  40.50546413335 39.36496194185 37.02471754495  41.2121591918 39.3577495816 36.65902682230001  40.97971632515 39.45698752345 37.80385436725  40.2730212667 39.4641998837 38.1695450899  39.872432761 39.55190894445 37.64642110235  39.4718442553 39.6396180052 3
[...]
<PointData  Vectors="u"> 
<DataArray  type="Float64"  Name="u"  NumberOfComponents="3" format="ascii">0.0000000000000000e+00 0.0000000000000000e+00 0.0000000000000000e+00  0.0000000000000000e+00 0.0000000000000000e+00 0.0000000000000000e+00  0.0000000000000000e+00 0.0000000000000000e+00 0.0000000000000000e+00  0.0000000000000000e+00 0.0000000000000000e+00 0.0000000000000000e+00  0.0000000000000000e+00 0.0000000000000000e+00 0.0000000000000000e+00  0.0000000000000000e+00 0.0000000000000000e+00 0.0000000000000000e+00  0.0000000000000000e+00 0.0000000000000000e+00 0.0000000000000000e+00  0.0000000000000000e+00 0.0000000000000000e+00 0.0000000000000000e+00  0.0000000000000000e+00 0.0000000000000000e+00 0.0000000000000000e+00  0.0000000000000000e+00 0.0000000000000000e+00 0.0000000000000000e+00  0.0000000000000000e+00 0.0000000000000000e+00 0.0000000000000000e+00  0.0000000000000000e+00 0.0000000000000000e+00 0.0000000000000000e+00  0.0000000000000000e+00 0.0000000000000000e+00 0.0000000000000000e+00  0.0000000000000000e+00 0.0000000000000000e+00 0.0000000000000000e+00  0.0000000000000000e+00 0.0000000000000000e+00 0.0000000000000000e+00  0.0000000000000000e+00 0.0000000000000000e+00 0.0000000000000000e+00  0.0000000000000000e+00 0.0000000000000000e+00 0.0000000000000000e+00  0.0000000000000000e+00 0.0000000000000000e+00 0.0000000000000000e+00  0.0000000000000000e+00 0.0000000000000000e+00 0.0000000000000000e+00  0.0000000000000000e+00 0.0000000000000000e+00 0.0000000000000000e+00  0.0000000000000000e+00 0.0000000000000000e+00 0.0000000000000000e+00  0.0000000000000000e+00 0.0000000000000000e+00 0.0000000000000000e+00  0.0000000000000000e+00 0.0000000000000000e+00 0.0000000000000000e+00  0.0000000000000000e+00 0.0000000000000000e+00 0.0000000000000000e+00  0.0000000000000000e+00 0.0000000000000000e+00 0.0000000000000000e+00  0.0000000000000000e+00 0.0000000000000000e+00 0.0000000000000000e+00  0.0000000000000000e+00 0.0000000000000000e+00 0.0000000000000000e+00  0.0000000000000000e+00 0.0000000000000000e+00 0.0000000000000000e+00  0.0000000000000000e+00 0.0000000000000000e+00 0.0000000000000000e+00  0.0000000000000000e+00 0.0000000000000000e+00 0.0000000000000000e+00  0.0000000000000000e+00 0.0000000000000000e+00 0.0000000000000000e+00  0.0000000000000000e+00 0.0000000000000000e+00 0.0000000000000000e+00  0.0000000000000000e+00 0.0000000000000000e+00 0.0000000000000000e+00  0.0000000000000000e+00 0.0000000000000000e+00 0.0000000000000000e+00  0.0000000000000000e+00 0.0000000000000000e+00 0.0000000000000000e+00  0.0000000000000000e+00 0.0000000000000000e+00 0.0000000000000000e+00  0.0000000000000000e+00 0.0000000000000000e+00 0.0000000000000000e+00  0.0000000000000000e+00 0.0000000000000000e+00 0.0000000000000000e+00  0.0000000000000000e+00 0.0000000000000000e+00 0.0000000000000000e+00  0.0000000000000000e+00 0.0000000000000000e+00 0.0000000000000000e+00  0.0000000000000000e+00 0.0000000000000000e+00 0.0000000000000000e+00  0.0000000000000000e+00 0.0000000000000000e+00 0.0000000000000000e+00  0.0000000000000000e+00 0.0000000000000000e+00 0.0000000000000000e+00  0.0000000000000000e+00 0.0000000000000000e+00 0.0000000000000000e+00  0.0000000000000000e+00 0.0000000000000000e+00 0.0000000000000000e+00  0.0000000000000000e+00 0.0000000000000000e+00 0.0000000000000000e+00  0.0000000000000000e+00 0.0000000000000000e+00 0.0000000000000000e+00  0.0000000000000000e+00 0.0000000000000000e+00 0.0000000000000000e+00  0.0000000000000000e+00 0.0000000000000000e+00 0.0000000000000000e+00  0.0000000000000000e+00 0.0000000000000000e+00 0.0000000000000000e+00  0.0000000000000000e+00 0.0000000000000000e+00 0.0000000000000000e+00  0.0000000000000000e+00 0.0000000000000000e+00 0.0000000000000000e+00  0.0000000000000000e+00 0.0000000000000000e+00 0.0000000000000000e+00  0.0000000000000000e+00 0.0000000000000000e+00 0.0000000000000000e+00  0.0000000000000000e+00 0.0000000000000000e+00 0.0000000000000000e+00  0.0000000000000000e+00 0.0000000000000000e+00 0.0000000000000000e+00  0.0000000000000000e+00 0.0000000000000000e+00 0.0000000000000000e+00  0.0000000000000000e+00 0.0000000000000000e+00 0.0000000000000000e+00  0.0000000000000000e+00 0.0000000000000000e+00 0.0000000000000000e+00  0.0000000000000000e+00 0.0000000000000000e+00 0.0000000000000000e+00  0.0000000000000000e+00 0.0000000000000000e+00 0.0000000000000000e+00  0.0000000000000000e+00 0.0000000000000000e+00 0.0000000000000000e+00  0.0000000000000000e+00 0.0000000000000000e+00 0.0000000000000000e+00  0.0000000000000000e+00 0.0000000000000000e+00 0.0000000000000000e+00  0.0000000000000000e+00 0.0000000000000000e+00 0.0000000000000000e+00  0.0000000000000000e+00 0.0000000000000000e+00 0.0000000000000000e+00  0.0000000000000000e+00 0.0000000000000000e+00 0.0000000000000000e+00  0.0000000000000000e+00 0.0000000000000000e+00 0.0000000000000000e+00  0.0000000000000000e+00 0.0000000000000000e+00 0.0000000000000000e+00  0.0000000000000000e+00 0.0000000000000000e+00 0.0000000000000000e+00  0.0000000000000000e+00 0.0000000000000000e+00 0.0000000000000000e+00  0.0000000000000000e+00 0.0000000000000000e+00 0.0000000000000000e+00  0.0000000000000000e+00 0.0000000000000000e+00 0.0000000000000000e+00  0.0000000000000000e+00 0.0000000000000000e+00 0.0000000000000000e+00  0.0000000000000000e+00 0.0000000000000000e+00 0.0000000000000000e+00  0.0000000000000000e+00 0.0000000000000000e+00 0.0000000000000000e+00  0.0000000000000000e+00 0.0000000000000000e+00 0.0000000000000000e+00  0.0000000000000000e+00 0.0000000000000000e+00 0.0000000000000000e+00  0.0000000000000000e+00 0.0000000000000000e+00 0.0000000000000000e+00  0.0000000000000000e+00 0.0000000000000000e+00 0.0000000000000000e+00  0.0000000000000000e+00 0.0000000000000000e+00 0.0000000000000000e+00  0.0000000000000000e+00 0.0000000000000000e+00 0.0000000000000000e+00  0.0000000000000000e+00 0.0000000000000000e+00 0.0000000000000000e+00  0.0000000000000000e+00 0.0000000000000000e+00 0.0000000000000000e+00  0.0000000000000000e+00 0.0000000000000000e+00 0.0000000000000000e+00  0.0000000000000000e+00 0.0000000000000000e+00 0.0000000000000000e+00  0.0000000000000000e+00 0.0000000000000000e+00 0.0000000000000000e+00  0.0000000000000000e+00 0.0000000000000000e+00 0.0000000000000000e+00  0.0000000000000000e+00 0.0000000000000000e+00 0.0000000000000000e+00  0.0000000000000000e+00 0.0000000000000000e+00 0.0000000000000000e+00  0.0000000000000000e+00 0.0000000000000000e+00 0.0000000000000000e+00  0.0000000000000000e+00 0.0000000000000000e+00 0.0000000000000000e+00  0.0000000000000000e+00 0.0000000000000000e+00 0.0000000000000000e+00  0.0000000000000000e+00 0.0000000000000000e+00 0.0000000000000000e+00  0.0000000000000000e+00 0.0000000000000000e+00 0.0000000000000000e+00  0.0000000000000000e+00 0.0000000000000000e+00 0.0000000000000000e+00  0.0000000000000000e+00 0.0000000000000000e+00 0.0000000000000000e+00  0.0000000000000000e+00 0.0000000000000000e+00 0.0000000000000000e+00  0.0000000000000000e+00 0.0000000000000000e+00 0.0000000000000000e+00  0.0000000000000000e+00 0.0000000000000000e+00 0.0000000000000000e+00  0.0000000000000000e+00 0.0000000000000000e+00 0.0000000000000000e+00  0.0000000000000000e+00 0.0000000000000000e+00 0.0000000000000000e+00  0.0000000000000000e+00 0.0000000000000000e+00 0.0000000000000000e+00  0.0000000000000000e+00 0.0000000000000000e+00 0.0000000000000000e+00  0.0000000000000000e+00 0.0000000000000000e+00 0.0000000000000000e+00  0.0000000000000000e+00 0.0000000000000000e+00 0.0000000000000000e+00  0.0000000000000000e+00 0.0000000000000000e+00 0.0000000000000000e+00  0.0000000000000000e+00 0.0000000000000000e+00 0.0000000000000000e+00  0.0000000000000000e+00 0.0000000000000000e+00 0.0000000000000000e+00  0.0000000000000000e+00 0.0000000000000000e+00 0.0000000000000000e+00  0.0000000000000000e+00 0.0000000000000000e+00 0.0000000000000000e+00  0.0000000000000000e+00 0.0000000000000000e+00 0.0000000000000000e+00  0.0000000000000000e+00 0.0000000000000000e+00 0.0000000000000000e+00  0.0000000000000000e+00 0.0000000000000000e+00 0.0000000000000000e+00  0.0000000000000000e+00 0.0000000000000000e+00 0.0000000000000000e+00  0.0000000000000000e+00 0.0000000000000000e+00 0.0000000000000000e+00  0.0000000000000000e+00 0.0000000000000000e+00 0.0000000000000000e+00  0.0000000000000000e+00 0.0000000000000000e+00 0.0000000000000000e+00  0.0000000000000000e+00 0.0000000000000000e+00 0.0000000000000000e+00  0.0000000000000000e+00 0.0000000000000000e+00 0.0000000000000000e+00  0.0000000000000000e+00 0.0000000000000000e+00 0.0000000000000000e+00  0.0000000000000000e+00 0.0000000000000000e+00 0.0000000000000000e+00  0.0000000000000000e+00 0.0000000000000000e+00 0.0000000000000000e+00  0.0000000000000000e+00 0.0000000000000000e+00 0.0000000000000000e+00  0.0000000000000000e+00 0.0000000000000000e+00 0.0000000000000000e+00  0.0000000000000000e+00 0.0000000000000000e+00 0.0000000000000000e+00  0.0000000000000000e+00 0.0000000000000000e+00 0.0000000000000000e+00  0.0000000000000000e+00 0.0000000000000000e+00 0.0000000000000000e+00  0.0000000000000000e+00 0.0000000000000000e+00 0.0000000000000000e+00  0.0000000000000000e+00 0.0000000000000000e+00 0.0000000000000000e+00  0.0000000000000000e+00 0.0000000000000000e+00 0.0000000000000000e+00  0.0000000000000000e+00 0.0000000000000000e+00 0.0000000000000000e+00  0.0000000000000000e+00 0.0000000000000000e+00 0.0000000000000000e+00  0.0000000000000000e+00 0.0000000000000000e+00 0.0000000000000000e+00  0.0000000000000000e+00 0.0000000000000000e+00 0.0000000000000000e+00  0.0000000000000000e+00 0.0000000000000000e+00 0.0000000000000000e+00  0.0000000000000000e+00 0.0000000000000000e+00 0.0000000000000000e+00  0.0000000000000000e+00 0.0000000000000000e+00 0.0000000000000000e+00  0.0000000000000000e+00 0.0000000000000000e+00 0.0000000000000000e+00  0.0000000000000000e+00 0.0000000000000000e+00 0.0000000000000000e+00  0.0000000000000000e+00 0.0000000000000000e+00 0.0000000000000000e+00  0.0000000000000000e+00 0.0000000000000000e+00 0.0000000000000000e+00  0.0000000000000000e+00 0.0000000000000000e+00 0.0000000000000000e+00  0.0000000000000000e+00 0.0000000000000000e+00 0.0000000000000000e+00  0.0000000000000000e+00 0.0000000000000000e+00 0.0000000000000000e+00  0.0000000000000000e+00 0.0000000000000000e+00 0.0000000000000000e+00  0.0000000000000000e+00 0.0000000000000000e+00 0.0000000000000000e+00  0.0000000000000000e+00 0.0000000000000000e+00 0.0000000000000000e+00  0.0000000000000000e+00 0.0000000000000000e+00 0.0000000000000000e+00  0.0000000000000000e+00 0.0000000000000000e+00 0.0000000000000000e+00  0.0000000000000000e+00 0.0000000000000000e+00 0.0000000000000000e+00  0.0000000000000000e+00 0.0000000000000000e+00 0.0000000000000000e+00  0.0000000000000000e+00 0.0000000000000000e+00 0.0000000000000000e+00  0.0000000000000000e+00 0.0000000000000000e+00 0.0000000000000000e+00  0.0000000000000000e+00 0.0000000000000000e+00 0.0000000000000000e+00  0.0000000000000000e+00 0.0000000000000000e+00 0.0000000000000000e+00  0.0000000000000000e+00 0.0000000000000000e+00 0.0000000000000000e+00  0.0000000000000000e+00 0.0000000000000000e+00 0.0000000000000000e+00  0.0000000000000000e+00 0.0000000000000000e+00 0.0000000000000000e+00  0.0000000000000000e+00 0.0000000000000000e+00 0.0000000000000000e+00  0.0000000000000000e+00 0.0000000000000000e+00 0.0000000000000000e+00  0.0000000000000000e+00 0.0000000000000000e+00 0.0000000000000000e+00  0.0000000000000000e+00 0.0000000000000000e+00 0.0000000000000000e+00  0.0000000000000000e+00 0.0000000000000000e+00 0.0000000000000000e+00  0.0000000000000000e+00 0.0000000000000000e+00 0.0000000000000000e+00  0.0000000000000000e+00 0.0000000000000000e+00 0.0000000000000000e+00  0.0000000000000000e+00 0.0000000000000000e+00 0.0000000000000000e+00  0.0000000000000000e+00 0.0000000000000000e+00 0.0000000000000000e+00  0.0000000000000000e+00 0.0000000000000000e+00 0.0000000000000000e+00  0.0000000000000000e+00 0.0000000000000000e+00 0.0000000000000000e+00  0.0000000000000000e+00 0.0000000000000000e+00 0.0000000000000000e+00  0.0000000000000000e+00 0.0000000000000000e+00 0.0000000000000000e+00  0.0000000000000000e+00 0.0000000000000000e+00 0.0000000000000000e+00  0.0000000000000000e+00 0.0000000000000000e+00 0.0000000000000000e+00  0.0000000000000000e+00 0.0000000000000000e+00 0.0000000000000000e+00  0.0000000000000000e+00 0.0000000000000000e+00 0.0000000000000000e+00  0.0000000000000000e+00 0.0000000000000000e+00 0.0000000000000000e+00  0.0000000000000000e+00 0.0000000000000000e+00 0.0000000000000000e+00  0.0000000000000000e+00 0.0000000000000000e+00 0.0000000000000000e+00  0.0000000000000000e+00 0.0000000000000000e+00 0.0000000000000000e+00  0.0000000000000000e+00 0.0000000000000000e+00 0.0000000000000000e+00  0.0000000000000000e+00 0.0000000000000000e+00 0.0000000000000000e+00  0.0000000000000000e+00 0.0000000000000000e+00 0.0000000000000000e+00  0.0000000000000000e+00 0.0000000000000000e+00 0.0000000000000000e+00  0.0000000000000000e+00 0.0000000000000000e+00 0.0000000000000000e+00  0.0000000000000000e+00 0.0000000000000000e+00 0.0000000000000000e+00  0.0000000000000000e+00 0.0000000000000000e+00 0.0000000000000000e+00  0.0000000000000000e+00 0.0000000000000000e+00 0.0000000000000000e+00  0.0000000000000000e+00 0.0000000000000000e+00 0.0000000000000000e+00  0.0000000000000000e+00 0.0000000000000000e+00 0.0000000000000000e+00  0.0000000000000000e+00 0.0000000000000000e+00 0.0000000000000000e+00  0.0000000000000000e+00 0.0000000000000000e+00 0.0000000000000000e+00  0.0000000000000000e+00 0.0000000000000000e+00 0.0000000000000000e+00  0.0000000000000000e+00 0.0000000000000000e+00 0.0000000000000000e+00  0.0000000000000000e+00 0.0000000000000000e+00 0.0000000000000000e+00  0.0000000000000000e+00 0.0000000000000000e+00 0.0000000000000000e+00  0.0000000000000000e+00 0.0000000000000000e+00 0.0000000000000000e+00  0.0000000000000000e+00 0.0000000000000000e+00 0.0000000000000000e+00  0.0000000000000000e+00 0.0000000000000000e+00 0.0000000000000000e+00  0.0000000000000000e+00 0.0000000000000000e+00 0.0000000000000000e+00  0.0000000000000000e+00 0.0000000000000000e+00 0.0000000000000000e+00  0.0000000000000000e+00 0.0000000000000000e+00 0.0000000000000000e+00  0.0000000000000000e+00 0.0000000000000000e+00 0.0000000000000000e+00  0.0000000000000000e+00 0.0000000000000000e+00 0.0000000000000000e+00  0.0000000000000000e+00 0.0000000000000000e+00 0.0000000000000000e+00  0.0000000000000000e+00 0.0000000000000000e+00 0.0000000000000000e+00  0.0000000000000000e+00 0.0000000000000000e+00 0.0000000000000000e+00  0.0000000000000000e+00 0.0000000000000000e+00 0.0000000000000000e+00  0.0000000000000000e+00 0.0000000000000000e+00 0.0000000000000000e+00  0.0000000000000000e+00 0.0000000000000000e+00 0.0000000000000000e+00  0.0000000000000000e+00 0.0000000000000000e+00 0.0000000000000000e+00  0.0000000000000000e+00 0.0000000000000000e+00 0.0000000000000000e+00  0.0000000000000000e+00 0.0000000000000000e+00 0.0000000000000000e+00  0.0000000000000000e+00 0.0000000000000000e+00 0.0000000000000000e+00  0.0000000000000000e+00 0.0000000000000000e+00 0.0000000000000000e+00  0.0000000000000000e+00 0.0000000000000000e+00 0.0000000000000000e+00  0.0000000000000000e+00 0.0000000000000000e+00 0.0000000000000000e+00  0.0000000000000000e+00 0.0000000000000000e+00 0.0000000000000000e+00  0.0000000000000000e+00 0.0000000000000000e+00 0.0000000000000000e+00  0.0000000000000000e+00 0.0000000000000000e+00 0.0000000000000000e+00  0.0000000000000000e+00 0.0000000000000000e+00 0.0000000000000000e+00  0.0000000000000000e+00 0.0000000000000000e+00 0.0000000000000000e+00  0.0000000000000000e+00 0.0000000000000000e+00 0.0000000000000000e+00  0.0000000000000000e+00 0.0000000000000000e+00 0.0000000000000000e+00  0.0000000000000000e+00 0.0000000000000000e+00 0.0000000000000000e+00  0.0000000000000000e+00 0.0000000000000000e+00 0.0000000000000000e+00  0.0000000000000000e+00 0.0000000000000000e+00 0.0000000000000000e+00  0.0000000000000000e+00 0.0000000000000000e+00 0.0000000000000000e+00  0.0000000000000000e+00 0.0000000000000000e+00 0.0000000000000000e+00  0.0000000000000000e+00 0.0000000000000000e+00 0.0000000000000000e+00  0.0000000000000000e+00 0.0000000000000000e+00 0.0000000000000000e+00  0.0000000000000000e+00 0.0000000000000000e+00 0.0000000000000000e+00  0.0000000000000000e+00 0.0000000000000000e+00 0.0000000000000000e+00  0.0000000000000000e+00 0.0000000000000000e+00 0.0000000000000000e+00  0.0000000000000000e+00 0.0000000000000000e+00 0.0000000000000000e+00  0.0000000000000000e+00 0.0000000000000000e+00 0.0000000000000000e+00  0.0000000000000000e+00 0.0000000000000000e+00 0.0000000000000000e+00  0.0000000000000000e+00 0.0000000000000000e+00 0.0000000000000000e+00  0.0000000000000000e+00 0.0000000000000000e+00 0.0000000000000000e+00  0.0000000000000000e+00 0.0000000000000000e+00 0.0000000000000000e+00  0.0000000000000000e+00 0.0000000000000000e+00 0.0000000000000000e+00  0.0000000000000000e+00 0.0000000000000000e+00 0.0000000000000000e+00  0.0000000000000000e+00 0.0000000000000000e+00 0.0000000000000000e+00  0.0000000000000000e+00 0.0000000000000000e+00 0.0000000000000000e+00  0.0000000000000000e+00 0.0000000000000000e+00 0.0000000000000000e+00  0.0000000000000000e+00 0.0000000000000000e+00 0.0000000000000000e+00  0.0000000000000000e+00 0.0000000000000000e+00 0.0000000000000000e+00  0.0000000000000000e+00 0.0000000000000000e+00 0.0000000000000000e+00  0.0000000000000000e+00 0.0000000000000000e+00 0.0000000000000000e+00  0.0000000000000000e+00 0.0000000000000000e+00 0.0000000000000000e+00  0.0000000000000000e+00 0.0000000000000000e+00 0.0000000000000000e+00  0.0000000000000000e+00 0.0000000000000000e+00 0.0000000000000000e+00  0.0000000000000000e+00 0.0000000000000000e+00 0.0000000000000000e+00  0.0000000000000000e+00 0.0000000000000000e+00 0.0000000000000000e+00  0.0000000000000000e+00 0.0000000000000000e+00 0.0000000000000000e+00  0.0000000000000000e+00 0.0000000000000000e+00 0.0000000000000000e+00  0.0000000000000000e+00 0.0000000000000000e+00 0.0000000000000000e+00  0.0000000000000000e+00 0.0000000000000000e+00 0.0000000000000000e+00  0.0000000000000000e+00 0.0000000000000000e+00 0.0000000000000000e+00  0.0000000000000000e+00 0.0000000000000000e+00 0.0000000000000000e+00  0.0000000000000000e+00 0.0000000000000000e+00 0.0000000000000000e+00  0.0000000000000000e+00 0.0000000000000000e+00 0.0000000000000000e+00  0.0000000000000000e+00 0.0000000000000000e+00 0.0000000000000000e+00  0.0000000000000000e+00 0.0000000000000000e+00 0.0000000000000000e+00  0.0000000000000000e+00 0.0000000000000000e+00 0.0000000000000000e+00  0.0000000000000000e+00 0.0000000000000000e+00 0.0000000000000000e+00  0.0000000000000000e+00 0.0000000000000000e+00 0.0000000000000000e+00  0.0000000000000000e+00 0.0000000000000000e+00 0.0000000000000000e+00  0.0000000000000000e+00 0.0000000000000000e+00 0.0000000000000000e+00  0.0000000000000000e+00 0.0000000000000000e+00 0.0000000000000000e+00  0.0000000000000000e+00 0.0000000000000000e+00 0.0000000000000000e+00  0.0000000000000000e+00 0.0000000000000000e+00 0.0000000000000000e+00  0.0000000000000000e+00 0.0000000000000000e+00 0.0000000000000000e+00  0.0000000000000000e+00 0.0000000000000000e+00 0.0000000000000000e+00  0.0000000000000000e+00 0.0000000000000000e+00 0.0000000000000000e+00  0.0000000000000000e+00 0.0000000000000000e+00 0.0000000000000000e+00  0.0000000000000000e+00 0.0000000000000000e+00 0.0000000000000000e+00  0.0000000000000000e+00 0.0000000000000000e+00 0.0000000000000000e+00  0.0000000000000000e+00 0.0000000000000000e+00 0.0000000000000000e+00  0.0000000000000000e+00 0.0000000000000000e+00 0.0000000000000000e+00  0.0000000000000000e+00 0.0000000000000000e+00 0.0000000000000000e+00  0.0000000000000000e+00 0.0000000000000000e+00 0.0000000000000000e+00  0.0000000000000000e+00 0.0000000000000000e+00 0.0000000000000000e+00  0.0000000000000000e+00 0.0000000000000000e+00 0.0000000000000000e+00  0.0000000000000000