<?xml version="1.0"?>
<VTKFile type="UnstructuredGrid"  version="0.1"  >
<UnstructuredGrid>
<Piece  NumberOfPoints="7839" NumberOfCells="37230">
<Points>
<DataArray  type="Float64"  NumberOfComponents="3"  format="ascii">20.8995287763 40.5695733875 26.1494182807  21.85503996135 41.2286058698 26.46505515935  21.1768867354 41.7585679718 26.4195511855  21.1840471324 40.9238526696 26.6720992181  21.57052160525 40.8743265877 25.94237422195  20.8923683793 41.4042886897 25.8968702481  20.8852079823 42.2390039919 25.6443222155  21.56336120825 41.7090418899 25.68982618935  22.2415144342 41.1790797879 25.7353301632  21.4685654885 41.2781319517 27.1947801555  24.027988 45.50264 23.169275  24.62518140255 44.69785963895 23.8476493848  24.7141899586 44.54643450325 22.97424958415  24.592205 45.5031985 23.3548925  25.156422 45.503757 23.54051  25.18939840255 44.69841813895 24.0332668848  25.2784069586 44.54699300325 23.15986708415  25.4003919172 43.5902290065 22.7792241683  25.31138336115 43.74165414220001 23.65262396895  25.2223748051 43.8930792779 24.5260237696  26.115559 35.826401 23.642103  25.6389356775 36.4242837283 23.1839749555  26.014368 36.31587399999999 23.897212  26.294392 36.257374 23.429018  26.473225 36.688347 23.215933  26.193201 36.746847 23.684127  25.913177 36.805347 24.152321  18.932867 35.484184 27.152039  20.08312596075 35.1835627228 27.65106792065  19.49592785355 35.7638859823 27.592053657  20.04692575905 35.6949799275 27.3643884193  19.5200651072 34.9038607405 27.21105326365  21.1609845181 35.905775855 27.5767378386  20.6099866126 35.9746819098 27.8044030763  20.63412386625 35.114656668 27.42340268295  20.1072632144 34.323537481 27.2700675273  20.0589887071 36.0435879646 28.032068314  17.992567 38.15276 33.432854  17.8147073331 38.17420849605 32.0435335707  18.3230447832 38.4809404883 32.4614174662  17.342820714 38.26457355105 32.5237446065  17.4842295499 37.84602800775 33.01497010449999  16.693074428 38.3763871021 31.614635213  17.6732984972 38.59275403935 31.5523080727  16.8344832639 37.9578415588 32.105860711  16.9758920998 37.5392960155 32.597086209  18.6535225664 38.8091209766 31.4899809324  21.292803 41.153671 22.084639  20.89901524345 42.32068453665 21.92101659225  21.36075574345 41.87023903665001 22.22746459225  20.783539 41.479263 22.2674275  20.8310625 41.6041165 21.778191  20.274275 41.804855 22.450216  20.85149174345 42.19583103665001 22.41025309225  20.3217985 41.9297085 21.9609795  20.369322 42.054562 21.471743  21.4287084869 42.5868070733 22.3702901845  16.5814129561 41.380809682 33.2718556934  15.96389542945 41.7507241102 32.71864086235  16.39015503295 42.44017817610001 32.96506787555  16.65469705435 41.8555900418 32.78927874765  15.6260693098 41.8605318847 33.377006936  15.8906113312 41.2759437504 33.2012178081  16.3168709347 41.9653978163 33.4476448213  16.0523289133 42.5499859506 33.6234339492  15.1998097063 41.1710778188 33.1305799228  16.7279811526 42.3303704016 32.3067018019  28.331511 42.513363 27.013714  27.54606961665 42.94391979605 27.34654712535  27.618440869 42.27740953735 27.39224108475  28.224091 42.705265 27.638667  28.116671 42.897167 28.26362  27.43864961665 43.13582179605 27.97150012535  27.511020869 42.46931153735 28.01719408475  26.905370738 42.0414560747 27.7707681695  26.83299948565 42.7079663334 27.7250742101  26.7606282333 43.3744765921 27.6793802507  26.564312 37.893353 25.962317  26.420395793 38.306683273 26.5894655844  26.199980793 38.361990773 26.1667715844  26.0025745849 37.97862658535 26.6230861211  26.784727 37.8380455 26.385011  27.005142 37.782738 26.807705  26.2229895849 37.92331908535 27.0457801211  25.4408371698 38.0639001707 27.2838552422  25.6382433779 38.44726435835 26.8275407055  25.835649586 38.830628546 26.3712261688  26.83813838155 42.6339238432 28.39294602595  27.44378851255 43.06177930585 28.6393719412  26.7709060251 43.2263916117 29.0151238824  26.7657671292 43.3004341019 28.34725206655  20.245415 39.175674 32.33009  19.2755887832 39.3115829883 32.1842834662  19.4494687832 38.9923974883 31.9100354662  19.6302185 39.043024 32.61413  20.071535 39.4948595 32.604338  19.015022 38.910374 32.89817  18.8342722832 38.8597474883 32.1940754662  19.4563385 39.3622095 32.888378  19.897655 39.814045 32.878586  22.1537078006 41.0168607132 29.8819666338  22.4547243003 41.1396518997 28.60897229735  22.5161230818 40.37946062589999 28.8508996587  22.61267537355 41.31284742915 29.35820712185  21.99575672735 40.84366518375001 29.1327318093  23.133041728 40.8486428713 29.07637497125  22.67407415505 40.55265615535 29.6001344832  23.1944405095 40.0884515975 29.3183023326  21.8378056541 40.6704696543 28.3834969848  23.0716429465 41.6088341451 28.8344476099  17.0469241129 42.3233203409 33.52158991909999  17.29565100695 41.79080714095 33.23595165015  18.0098890578 42.2008045999 33.2000476069  17.12020821115 42.7981007007 33.03901297335  17.3689351052 42.26558750075 32.7533747044  17.76116216375 42.73331779985 33.48568587585  17.5124352697 43.2658309998 33.7713241448  20.4301156022 43.5250412849 30.6849289796  20.84066254595 42.6244164442 31.4861393607  20.2377568719 42.85435338825 31.08779271785  20.785432309 42.7993327503 30.63014067835  20.48534583915 43.3501249788 31.54092766195  20.5405760761 43.1752086727 32.3969263443  20.29298710885 42.67943708215 31.9437914002  21.1407490158 42.0736242157 30.5753523771  20.5930735787 42.12864485365 31.0330044166  20.0453981416 42.1836654916 31.4906564561  20.3668258534 38.3588099882 27.008170198  20.67185376785 38.4567386926 25.8636395677  20.88587530055 37.9556613223 26.4265750241  21.2849246843 39.02900279055 26.16983857235  20.1528043207 38.8598873585 26.4452347416  19.938782788 39.3609647288 25.8822992852  21.0709031516 39.53008016085 25.60690311595  22.2030235152 39.6991955929 25.3315069467  21.80397413145 38.62585412465 25.58824339845  21.4049247477 37.5525126564 25.8449798502  26.7793387528 41.487278147 26.3149538947  25.7357552442 41.1233385471 26.344244303  26.27886104055 41.31931811595 26.7819088644  26.11374589275 41.83090052075 26.3138235462  26.40134810425 40.77971617335 26.3453746515  26.0233574557 40.0721541997 26.3757954083  25.900870392 40.6117561423 26.8123296212  25.4481530327 42.1745228945 26.3126931977  25.6132681805 41.6629404897 26.7807785159  25.7783833283 41.1513580849 27.2488638341  20.278397 40.485611 33.55225  20.3537045703 41.46520322405 32.55219549225  19.75876122475 40.9366208392 33.00675128505  20.3423844726 40.649897456 32.4166888578  20.87334034555 41.01419338485 33.0976942072  20.4063719452 40.814183912 31.2811277156  19.82274869735 41.1009072952 31.87119014285  20.93732781815 41.17847984085 31.962133065  21.4682836911 41.5427757697 32.6431384144  19.2391254495 41.3876306784 32.4612525701  23.972128 45.503517 29.530716  24.12058764905 43.9695909864 30.10508755555  23.75522313395 44.75212290125 30.44992056355  23.54830063395 44.75427040125 29.90142906355  24.1790505 45.5013695 30.0792075  24.5444150151 44.71883758515 29.734374492  24.385973 45.499222 30.627699  24.7513375151 44.71669008515001 30.282865992  25.1167020302 43.9341581703 29.938032984  23.1244732679 44.0050238025 30.2721421271  22.842368486 41.3201408633 27.366652327  22.655377196 42.0719223961 28.4044993663  22.95700571625 41.46448750419999 28.10054996845  23.4503377985 41.97115783695 27.69448565945  22.54073996575 41.9275757552 27.67060172485  22.2391114455 42.5350106471 27.9745511227  23.14870927825 42.57859272885 27.9984350573  24.058307111 42.6221748106 28.0223189919  23.56497502875 42.11550447785 28.4283833009  17.837328259 42.8066362224 31.676471926  18.14157712985 42.4207614434 30.61718164835  18.31400807245 42.27157091745 31.32115497165  17.5960592483 42.17033698405 30.94734576825  17.3547902376 41.5340377457 30.2182196105  17.90030811915 41.78446220505 29.8880554906  18.07273906175 41.6352716791 30.5920288139  18.7906878859 41.7365056125 30.9658380173  18.6182569433 41.88569613845 30.261864694  18.4458260007 42.0348866644 29.5578913707  18.2830795884 43.3918354786 29.4607029919  17.2377080555 42.9603477784 29.03967648035  17.47317374205 43.1822977591 29.6084151324  17.5791397191 43.7905975518 29.11658592275  18.04761390185 43.1698854979 28.89196433985  16.8751998498 44.189359625 28.7724688536  16.76923387275 43.5810598323 29.26429806325  17.34367403255 43.5686475711 28.5478472707  17.8121482153 42.9479355172 28.3232256878  16.6632678957 42.9727600396 29.7561272729  17.575235 35.569782 33.902325  16.3252493344 35.80319886725 33.96390224709999  16.4341929194 35.30977179025 33.36336419405  17.0723675 35.4787365 34.340813  16.5695 35.387691 34.779301  15.8223818344 35.71215336725 34.4023902471  15.9313254194 35.21872629025 33.80185219405  15.2931508388 35.0497615805 32.8244033881  15.1842072538 35.5431886575 33.42494144115  15.0752636688 36.0366157345 34.0254794942  21.38866 45.502319 23.534412  21.2742501462 44.1861154111 22.6568182056  21.7936125924 44.1123448705 23.09284317895  20.8806336347 44.8742081546 23.4800540319  21.7822765115 44.8142262565 22.7111761737  21.3999960809 44.800437614 23.91607900525  21.4113321618 44.098556228 24.2977460105  20.8919697156 44.1723267686 23.86172103715  22.175893023 44.126133513 21.8879403474  20.3726072694 44.2460973092 23.4256960638  26.709929 36.563545 26.431606  25.9234435242 37.1608350508 26.9288279089  25.9083825242 36.8958355508 26.3271519089  26.0753830849 37.31372258535 26.8577306211  26.72499 36.8285445 27.033282  26.740051 37.093544 27.634958  26.0904440849 37.57872208535 27.4594066211  25.2738366091 37.64601313615 26.75327653  25.1068360484 37.2281261016 26.2226978178  23.336495901 37.4258246625 27.2491418938  22.4753978838 37.31523322629999 28.4386056292  22.0677644059 37.81358480785 28.23651944965  22.88832060445 37.82418201755 28.2779067502  22.51593970245 37.4152274528 27.20775459325  22.92357318035 36.91687587125 27.4098407728  21.6953835039 37.4046302431 27.1663672927  22.1030169818 36.90627866155 27.36845347225  22.4401453079 38.2225393726 29.3066716066  22.510650459
[...]
<PointData  Vectors="u"> 
<DataArray  type="Float64"  Name="u"  NumberOfComponents="3" format="ascii">0.0000000000000000e+00 0.0000000000000000e+00 0.0000000000000000e+00  0.0000000000000000e+00 0.0000000000000000e+00 0.0000000000000000e+00  0.0000000000000000e+00 0.0000000000000000e+00 0.0000000000000000e+00  0.0000000000000000e+00 0.0000000000000000e+00 0.0000000000000000e+00  0.0000000000000000e+00 0.0000000000000000e+00 0.0000000000000000e+00  0.0000000000000000e+00 0.0000000000000000e+00 0.0000000000000000e+00  0.0000000000000000e+00 0.0000000000000000e+00 0.0000000000000000e+00  0.0000000000000000e+00 0.0000000000000000e+00 0.0000000000000000e+00  0.0000000000000000e+00 0.0000000000000000e+00 0.0000000000000000e+00  0.0000000000000000e+00 0.0000000000000000e+00 0.0000000000000000e+00  0.0000000000000000e+00 0.0000000000000000e+00 0.0000000000000000e+00  0.0000000000000000e+00 0.0000000000000000e+00 0.0000000000000000e+00  0.0000000000000000e+00 0.0000000000000000e+00 0.0000000000000000e+00  0.0000000000000000e+00 0.0000000000000000e+00 0.0000000000000000e+00  0.0000000000000000e+00 0.0000000000000000e+00 0.0000000000000000e+00  0.0000000000000000e+00 0.0000000000000000e+00 0.0000000000000000e+00  0.0000000000000000e+00 0.0000000000000000e+00 0.0000000000000000e+00  0.0000000000000000e+00 0.0000000000000000e+00 0.0000000000000000e+00  0.0000000000000000e+00 0.0000000000000000e+00 0.0000000000000000e+00  0.0000000000000000e+00 0.0000000000000000e+00 0.0000000000000000e+00  0.0000000000000000e+00 0.0000000000000000e+00 0.0000000000000000e+00  0.0000000000000000e+00 0.0000000000000000e+00 0.0000000000000000e+00  0.0000000000000000e+00 0.0000000000000000e+00 0.0000000000000000e+00  0.0000000000000000e+00 0.0000000000000000e+00 0.0000000000000000e+00  0.0000000000000000e+00 0.0000000000000000e+00 0.0000000000000000e+00  0.0000000000000000e+00 0.0000000000000000e+00 0.0000000000000000e+00  0.0000000000000000e+00 0.0000000000000000e+00 0.0000000000000000e+00  0.0000000000000000e+00 0.0000000000000000e+00 0.0000000000000000e+00  0.0000000000000000e+00 0.0000000000000000e+00 0.0000000000000000e+00  0.0000000000000000e+00 0.0000000000000000e+00 0.0000000000000000e+00  0.0000000000000000e+00 0.0000000000000000e+00 0.0000000000000000e+00  0.0000000000000000e+00 0.0000000000000000e+00 0.0000000000000000e+00  0.0000000000000000e+00 0.0000000000000000e+00 0.0000000000000000e+00  0.0000000000000000e+00 0.0000000000000000e+00 0.0000000000000000e+00  0.0000000000000000e+00 0.0000000000000000e+00 0.0000000000000000e+00  0.0000000000000000e+00 0.0000000000000000e+00 0.0000000000000000e+00  0.0000000000000000e+00 0.0000000000000000e+00 0.0000000000000000e+00  0.0000000000000000e+00 0.0000000000000000e+00 0.0000000000000000e+00  0.0000000000000000e+00 0.0000000000000000e+00 0.0000000000000000e+00  0.0000000000000000e+00 0.0000000000000000e+00 0.0000000000000000e+00  0.0000000000000000e+00 0.0000000000000000e+00 0.0000000000000000e+00  0.0000000000000000e+00 0.0000000000000000e+00 0.0000000000000000e+00  0.0000000000000000e+00 0.0000000000000000e+00 0.0000000000000000e+00  0.0000000000000000e+00 0.0000000000000000e+00 0.0000000000000000e+00  0.0000000000000000e+00 0.0000000000000000e+00 0.0000000000000000e+00  0.0000000000000000e+00 0.0000000000000000e+00 0.0000000000000000e+00  0.0000000000000000e+00 0.0000000000000000e+00 0.0000000000000000e+00  0.0000000000000000e+00 0.0000000000000000e+00 0.0000000000000000e+00  0.0000000000000000e+00 0.0000000000000000e+00 0.0000000000000000e+00  0.0000000000000000e+00 0.0000000000000000e+00 0.0000000000000000e+00  0.0000000000000000e+00 0.0000000000000000e+00 0.0000000000000000e+00  0.0000000000000000e+00 0.0000000000000000e+00 0.0000000000000000e+00  0.0000000000000000e+00 0.0000000000000000e+00 0.0000000000000000e+00  0.0000000000000000e+00 0.0000000000000000e+00 0.0000000000000000e+00  0.0000000000000000e+00 0.0000000000000000e+00 0.0000000000000000e+00  0.0000000000000000e+00 0.0000000000000000e+00 0.0000000000000000e+00  0.0000000000000000e+00 0.0000000000000000e+00 0.0000000000000000e+00  0.0000000000000000e+00 0.0000000000000000e+00 0.0000000000000000e+00  0.0000000000000000e+00 0.0000000000000000e+00 0.0000000000000000e+00  0.0000000000000000e+00 0.0000000000000000e+00 0.0000000000000000e+00  0.0000000000000000e+00 0.0000000000000000e+00 0.0000000000000000e+00  0.0000000000000000e+00 0.0000000000000000e+00 0.0000000000000000e+00  0.0000000000000000e+00 0.0000000000000000e+00 0.0000000000000000e+00  0.0000000000000000e+00 0.0000000000000000e+00 0.0000000000000000e+00  0.0000000000000000e+00 0.0000000000000000e+00 0.0000000000000000e+00  0.0000000000000000e+00 0.0000000000000000e+00 0.0000000000000000e+00  0.0000000000000000e+00 0.0000000000000000e+00 0.0000000000000000e+00  0.0000000000000000e+00 0.0000000000000000e+00 0.0000000000000000e+00  0.0000000000000000e+00 0.0000000000000000e+00 0.0000000000000000e+00  0.0000000000000000e+00 0.0000000000000000e+00 0.0000000000000000e+00  0.0000000000000000e+00 0.0000000000000000e+00 0.0000000000000000e+00  0.0000000000000000e+00 0.0000000000000000e+00 0.0000000000000000e+00  0.0000000000000000e+00 0.0000000000000000e+00 0.0000000000000000e+00  0.0000000000000000e+00 0.0000000000000000e+00 0.0000000000000000e+00  0.0000000000000000e+00 0.0000000000000000e+00 0.0000000000000000e+00  0.0000000000000000e+00 0.0000000000000000e+00 0.0000000000000000e+00  0.0000000000000000e+00 0.0000000000000000e+00 0.0000000000000000e+00  0.0000000000000000e+00 0.0000000000000000e+00 0.0000000000000000e+00  0.0000000000000000e+00 0.0000000000000000e+00 0.0000000000000000e+00  0.0000000000000000e+00 0.0000000000000000e+00 0.0000000000000000e+00  0.0000000000000000e+00 0.0000000000000000e+00 0.0000000000000000e+00  0.0000000000000000e+00 0.0000000000000000e+00 0.0000000000000000e+00  0.0000000000000000e+00 0.0000000000000000e+00 0.0000000000000000e+00  0.0000000000000000e+00 0.0000000000000000e+00 0.0000000000000000e+00  0.0000000000000000e+00 0.0000000000000000e+00 0.0000000000000000e+00  0.0000000000000000e+00 0.0000000000000000e+00 0.0000000000000000e+00  0.0000000000000000e+00 0.0000000000000000e+00 0.0000000000000000e+00  0.0000000000000000e+00 0.0000000000000000e+00 0.0000000000000000e+00  0.0000000000000000e+00 0.0000000000000000e+00 0.0000000000000000e+00  0.0000000000000000e+00 0.0000000000000000e+00 0.0000000000000000e+00  0.0000000000000000e+00 0.0000000000000000e+00 0.0000000000000000e+00  0.0000000000000000e+00 0.0000000000000000e+00 0.0000000000000000e+00  0.0000000000000000e+00 0.0000000000000000e+00 0.0000000000000000e+00  0.0000000000000000e+00 0.0000000000000000e+00 0.0000000000000000e+00  0.0000000000000000e+00 0.0000000000000000e+00 0.0000000000000000e+00  0.0000000000000000e+00 0.0000000000000000e+00 0.0000000000000000e+00  0.0000000000000000e+00 0.0000000000000000e+00 0.0000000000000000e+00  0.0000000000000000e+00 0.0000000000000000e+00 0.0000000000000000e+00  0.0000000000000000e+00 0.0000000000000000e+00 0.0000000000000000e+00  0.0000000000000000e+00 0.0000000000000000e+00 0.0000000000000000e+00  0.0000000000000000e+00 0.0000000000000000e+00 0.0000000000000000e+00  0.0000000000000000e+00 0.0000000000000000e+00 0.0000000000000000e+00  0.0000000000000000e+00 0.0000000000000000e+00 0.0000000000000000e+00  0.0000000000000000e+00 0.0000000000000000e+00 0.0000000000000000e+00  0.0000000000000000e+00 0.0000000000000000e+00 0.0000000000000000e+00  0.0000000000000000e+00 0.0000000000000000e+00 0.0000000000000000e+00  0.0000000000000000e+00 0.0000000000000000e+00 0.0000000000000000e+00  0.0000000000000000e+00 0.0000000000000000e+00 0.0000000000000000e+00  0.0000000000000000e+00 0.0000000000000000e+00 0.0000000000000000e+00  0.0000000000000000e+00 0.0000000000000000e+00 0.0000000000000000e+00  0.0000000000000000e+00 0.0000000000000000e+00 0.0000000000000000e+00  0.0000000000000000e+00 0.0000000000000000e+00 0.0000000000000000e+00  0.0000000000000000e+00 0.0000000000000000e+00 0.0000000000000000e+00  0.0000000000000000e+00 0.0000000000000000e+00 0.0000000000000000e+00  0.0000000000000000e+00 0.0000000000000000e+00 0.0000000000000000e+00  0.0000000000000000e+00 0.0000000000000000e+00 0.0000000000000000e+00  0.0000000000000000e+00 0.0000000000000000e+00 0.0000000000000000e+00  0.0000000000000000e+00 0.0000000000000000e+00 0.0000000000000000e+00  0.0000000000000000e+00 0.0000000000000000e+00 0.0000000000000000e+00  0.0000000000000000e+00 0.0000000000000000e+00 0.0000000000000000e+00  0.0000000000000000e+00 0.0000000000000000e+00 0.0000000000000000e+00  0.0000000000000000e+00 0.0000000000000000e+00 0.0000000000000000e+00  0.0000000000000000e+00 0.0000000000000000e+00 0.0000000000000000e+00  0.0000000000000000e+00 0.0000000000000000e+00 0.0000000000000000e+00  0.0000000000000000e+00 0.0000000000000000e+00 0.0000000000000000e+00  0.0000000000000000e+00 0.0000000000000000e+00 0.0000000000000000e+00  0.0000000000000000e+00 0.0000000000000000e+00 0.0000000000000000e+00  0.0000000000000000e+00 0.0000000000000000e+00 0.0000000000000000e+00  0.0000000000000000e+00 0.0000000000000000e+00 0.0000000000000000e+00  0.0000000000000000e+00 0.0000000000000000e+00 0.0000000000000000e+00  0.0000000000000000e+00 0.0000000000000000e+00 0.0000000000000000e+00  0.0000000000000000e+00 0.0000000000000000e+00 0.0000000000000000e+00  0.0000000000000000e+00 0.0000000000000000e+00 0.0000000000000000e+00  0.0000000000000000e+00 0.0000000000000000e+00 0.0000000000000000e+00  0.0000000000000000e+00 0.0000000000000000e+00 0.0000000000000000e+00  0.0000000000000000e+00 0.0000000000000000e+00 0.0000000000000000e+00  0.0000000000000000e+00 0.0000000000000000e+00 0.0000000000000000e+00  0.0000000000000000e+00 0.0000000000000000e+00 0.0000000000000000e+00  0.0000000000000000e+00 0.0000000000000000e+00 0.0000000000000000e+00  0.0000000000000000e+00 0.0000000000000000e+00 0.0000000000000000e+00  0.0000000000000000e+00 0.0000000000000000e+00 0.0000000000000000e+00  0.0000000000000000e+00 0.0000000000000000e+00 0.0000000000000000e+00  0.0000000000000000e+00 0.0000000000000000e+00 0.0000000000000000e+00  0.0000000000000000e+00 0.0000000000000000e+00 0.0000000000000000e+00  0.0000000000000000e+00 0.0000000000000000e+00 0.0000000000000000e+00  0.0000000000000000e+00 0.0000000000000000e+00 0.0000000000000000e+00  0.0000000000000000e+00 0.0000000000000000e+00 0.0000000000000000e+00  0.0000000000000000e+00 0.0000000000000000e+00 0.0000000000000000e+00  0.0000000000000000e+00 0.0000000000000000e+00 0.0000000000000000e+00  0.0000000000000000e+00 0.0000000000000000e+00 0.0000000000000000e+00  0.0000000000000000e+00 0.0000000000000000e+00 0.0000000000000000e+00  0.0000000000000000e+00 0.0000000000000000e+00 0.0000000000000000e+00  0.0000000000000000e+00 0.0000000000000000e+00 0.0000000000000000e+00  0.0000000000000000e+00 0.0000000000000000e+00 0.0000000000000000e+00  0.0000000000000000e+00 0.0000000000000000e+00 0.0000000000000000e+00  0.0000000000000000e+00 0.0000000000000000e+00 0.0000000000000000e+00  0.0000000000000000e+00 0.0000000000000000e+00 0.0000000000000000e+00  0.0000000000000000e+00 0.0000000000000000e+00 0.0000000000000000e+00  0.0000000000000000e+00 0.0000000000000000e+00 0.0000000000000000e+00  0.0000000000000000e+00 0.0000000000000000e+00 0.0000000000000000e+00  0.0000000000000000e+00 0.0000000000000000e+00 0.0000000000000000e+00  0.0000000000000000e+00 0.0000000000000000e+00 0.0000000000000000e+00  0.0000000000000000e+00 0.0000000000000000e+00 0.0000000000000000e+00  0.0000000000000000e+00 0.0000000000000000e+00 0.0000000000000000e+00  0.0000000000000000e+00 0.0000000000000000e+00 0.0000000000000000e+00  0.0000000000000000e+00 0.0000000000000000e+00 0.0000000000000000e+00  0.0000000000000000e+00 0.0000000000000000e+00 0.0000000000000000e+00  0.0000000000000000e+00 0.0000000000000000e+00 0.0000000000000000e+00  0.0000000000000000e+00 0.0000000000000000e+00 0.0000000000000000e+00  0.0000000000000000e+00 0.0000000000000000e+00 0.0000000000000000e+00  0.0000000000000000e+00 0.0000000000000000e+00 0.0000000000000000e+00  0.0000000000000000e+00 0.0000000000000000e+00 0.0000000000000000e+00  0.0000000000000000e+00 0.0000000000000000e+00 0.0000000000000000e+00  0.0000000000000000e+00 0.0000000000000000e+00 0.0000000000000000e+00  0.0000000000000000e+00 0.0000000000000000e+00 0.0000000000000000e+00  0.0000000000000000e+00 0.0000000000000000e+00 0.0000000000000000e+00  0.0000000000000000e+00 0.0000000000000000e+00 0.0000000000000000e+00  0.0000000000000000e+00 0.0000000000000000e+00 0.0000000000000000e+00  0.0000000000000000e+00 0.0000000000000000e+00 0.0000000000000000e+00  0.0000000000000000e+00 0.0000000000000000e+00 0.0000000000000000e+00  0.0000000000000000e+00 0.0000000000000000e+00 0.0000000000000000e+00  0.0000000000000000e+00 0.0000000000000000e+00 0.0000000000000000e+00  0.0000000000000000e+00 0.0000000000000000e+00 0.0000000000000000e+00  0.0000000000000000e+00 0.0000000000000000e+00 0.0000000000000000e+00  0.0000000000000000e+00 0.0000000000000000e+00 0.0000000000000000e+00  0.0000000000000000e+00 0.0000000000000000e+00 0.0000000000000000e+00  0.0000000000000000e+00 0.0000000000000000e+00 0.0000000000000000e+00  0.0000000000000000e+00 0.0000000000000000e+00 0.0000000000000000e+00  0.0000000000000000e+00 0.0000000000000000e+00 0.0000000000000000e+00  0.0000000000000000e+00 0.0000000000000000e+00 0.0000000000000000e+00  0.0000000000000000e+00 0.0000000000000000e+00 0.0000000000000000e+00  0.0000000000000000e+00 0.0000000000000000e+00 0.0000000000000000e+00  0.0000000000000000e+00 0.0000000000000000e+00 0.0000000000000000e+00  0.0000000000000000e+00 0.0000000000000000e+00 0.0000000000000000e+00  0.0000000000000000e+00 0.0000000000000000e+00 0.0000000000000000e+00  0.0000000000000000e+00 0.0000000000000000e+00 0.0000000000000000e+00  0.0000000000000000e+00 0.0000000000000000e+00 0.0000000000000000e+00  0.0000000000000000e+00 0.0000000000000000e+00 0.0000000000000000e+00  0.0000000000000000e+00 0.0000000000000000e+00 0.0000000000000000e+00  0.0000000000000000e+00 0.0000000000000000e+00 0.0000000000000000e+00  0.0000000000000000e+00 0.0000000000000000e+00 0.0000000000000000e+00  0.0000000000000000e+00 0.0000000000000000e+00 0.0000000000000000e+00  0.0000000000000000e+00 0.0000000000000000e+00 0.0000000000000000e+00  0.0000000000000000e+00 0.0000000000000000e+00 0.0000000000000000e+00  0.0000000000000000e+00 0.0000000000000000e+00 0.0000000000000000e+00  0.0000000000000000e+00 0.0000000000000000e+00 0.0000000000000000e+00  0.0000000000000000e+00 0.0000000000000000e+00 0.0000000000000000e+00  0.0000000000000000e+00 0.0000000000000000e+00 0.0000000000000000e+00  0.0000000000000000e+00 0.0000000000000000e+00 0.0000000000000000e+00  0.0000000000000000e+00 0.0000000000000000e+00 0.0000000000000000e+00  0.0000000000000000e+00 0.0000000000000000e+00 0.0000000000000000e+00  0.0000000000000000e+00 0.0000000000000000e+00 0.0000000000000000e+00  0.0000000000000000e+00 0.0000000000000000e+00 0.0000000000000000e+00  0.0000000000000000e+00 0.0000000000000000e+00 0.0000000000000000e+00  0.0000000000000000e+00 0.0000000000000000e+00 0.0000000000000000e+00  0.0000000000000000e+00 0.0000000000000000e+00 0.0000000000000000e+00  0.0000000000000000e+00 0.0000000000000000e+00 0.0000000000000000e+00  0.0000000000000000e+00 0.0000000000000000e+00 0.0000000000000000e+00  0.0000000000000000e+00 0.0000000000000000e+00 0.0000000000000000e+00  0.0000000000000000e+00 0.0000000000000000e+00 0.0000000000000000e+00  0.0000000000000000e+00 0.0000000000000000e+00 0.0000000000000000e+00  0.0000000000000000e+00 0.0000000000000000e+00 0.0000000000000000e+00  0.0000000000000000e+00 0.0000000000000000e+00 0.0000000000000000e+00  0.0000000000000000e+00 0.0000000000000000e+00 0.0000000000000000e+00  0.0000000000000000e+00 0.0000000000000000e+00 0.0000000000000000e+00  0.0000000000000000e+00 0.0000000000000000e+00 0.0000000000000000e+00  0.0000000000000000e+00 0.0000000000000000e+00 0.0000000000000000e+00  0.0000000000000000e+00 0.0000000000000000e+00 0.0000000000000000e+00  0.0000000000000000e+00 0.0000000000000000e+00 0.0000000000000000e+00  0.0000000000000000e+00 0.0000000000000000e+00 0.0000000000000000e+00  0.0000000000000000e+00 0.0000000000000000e+00 0.0000000000000000e+00  0.0000000000000000e+00 0.0000000000000000e+00 0.0000000000000000e+00  0.0000000000000000e+00 0.0000000000000000e+00 0.0000000000000000e+00  0.0000000000000000e+00 0.0000000000000000e+00 0.0000000000000000e+00  0.0000000000000000e+00 0.0000000000000000e+00 0.0000000000000000e+00  0.0000000000000000e+00 0.0000000000000000e+00 0.0000000000000000e+00  0.0000000000000000e+00 0.0000000000000000e+00 0.0000000000000000e+00  0.0000000000000000e+00 0.0000000000000000e+00 0.0000000000000000e+00  0.0000000000000000e+00 0.0000000000000000e+00 0.0000000000000000e+00  0.0000000000000000e+00 0.0000000000000000e+00 0.0000000000000000e+00  0.0000000000000000e+00 0.0000000000000000e+00 0.0000000000000000e+00  0.0000000000000000e+00 0.0000000000000000e+00 0.0000000000000000e+00  0.0000000000000000e+00 0.0000000000000000e+00 0.0000000000000000e+00  0.0000000000000000e+00 0.0000000000000000e+00 0.0000000000000000e+00  0.0000000000000000e+00 0.0000000000000000e+00 0.0000000000000000e+00  0.0000000000000000e+00 0.0000000000000000e+00 0.0000000000000000e+00  0.0000000000000000e+00 0.0000000000000000e+00 0.0000000000000000e+00  0.0000000000000000e+00 0.0000000000000000e+00 0.0000000000000000e+00  0.0000000000000000e+00 0.0000000000000000e+00 0.0000000000000000e+00  0.0000000000000000e+00 0.0000000000000000e+00 0.0000000000000000e+00  0.0000000000000000e+00 0.0000000000000000e+00 0.0000000000000000e+00  0.0000000000000000e+00 0.0000000000000000e+00 0.0000000000000000e+00  0.0000000000000000e+00 0.0000000000000000e+00 0.0000000000000000e+00  0.0000000000000000e+00 0.0000000000000000e+00 0.0000000000000000e+00  0.0000000000000000e+00 0.0000000000000000e+00 0.0000000000000000e+00  0.0000000000000000e+00 0.0000000000000000e+00 0.0000000000000000e+00  0.0000000000000000e+00 0.0000000000000000e+00 0.0000000000000000e+00  0.0000000000000000e+00 0.0000000000000000e+00 0.0000000000000000e+00  0.0000000000000000e+00 0.0000000000000000e+00 0.0000000000000000e+00  0.0000000000000000e+00 0.0000000000000000e+00 0.0000000000000000e+00  0.0000000000000000e+00 0.0000000000000000e+00 0.0000000000000000e+00  0.0000000000000000e+00 0.0000000000000000e+00 0.0000000000000000e+00  0.0000000000000000e+00 0.0000000000000000e+00 0.0000000000000000e+00  0.0000000000000000e+00 0.0000000000000000e+00 0.0000000000000000e+00  0.0000000000000000e+00 0.0000000000000000e+00 0.0000000000000000e+00  0.0000000000000000e+00 0.0000000000000000e+00 0.0000000000000000e+00  0.0000000000000000e+00 0.0000000000000000e+00 0.0000000000000000e+00  0.0000000000000000e+00 0.0000000000000000e+00 0.0000000000000000e+00  0.0000000000000000e+00 0.0000000000000000e+00 0.0000000000000000e+00  0.0000000000000000e+00 0.0000000000000000e+00 0.0000000000000000e+00  0.0000000000000000e+00 0.0000000000000000e+00 0.0000000000000000e+00  0.0000000000000000e+00 0.0000000000000000e+00 0.0000000000000000e+00  0.0000000000000000e+00 0.0000000000000000e+00 0.0000000000000000e+00  0.0000000000000000e+00 0.0000000000000000e+00 0.0000000000000000e+00  0.0000000000000000e+00 0.0000000000000000e+00 0.0000000000000000e+00  0.0000000000000000e+00 0.0000000000000000e+00 0.0000000000000000e+00  0.0000000000000000e+00 0.0000000000000000e+00 0.0000000000000000e+00  0.0000000000000000e+00 0.0000000000000000e+00 0.0000000000000000e+00  0.0000000000000000e+00 0.0000000000000000e+00 0.0000000000000000e+00  0.0000000000000000e+00 0.0000000000000000e+00 0.0000000000000000e+00  0.0000000000000000e+00 0.0000000000000000e+00 0.0000000000000000e+00  0.0000000000000000e+00 0.0000000000000000e+00 0.0000000000000000e+00  0.0000000000000000e+00 0.0000000000000000e+00 0.0000000000000000e+00  0.0000000000000000e+00 0.0000000000000000e+00 0.0000000000000000e+00  0.0000000000000000