<?xml version="1.0"?>
<VTKFile type="UnstructuredGrid"  version="0.1"  >
<UnstructuredGrid>
<Piece  NumberOfPoints="8403" NumberOfCells="38586">
<Points>
<DataArray  type="Float64"  NumberOfComponents="3"  format="ascii">23.018473 36.852486 7.408037  22.78179173985 36.28712139755 7.84288982125  23.01307701865 36.6588814269 8.453671066150001  23.25786273985 36.40336639755 8.267499821249999  23.0076810373 36.4652768538 9.4993051323  22.7763957585 36.09351682445 8.8885238874  22.5451104797 35.7217567951 8.2777426425  21.865969 35.267998 9.841313  21.8296479841 36.14287326 9.1191841617  21.4318155 35.9803085 9.783951  21.3826755 35.4559575 9.273687499999999  20.899382 35.643917 8.706061999999999  21.3463544841 36.33083276 8.5515586617  20.948522 36.168268 9.2163255  20.997662 36.692619 9.726589000000001  21.3954944841 36.85518376 9.0618221617  21.7933269682 37.01774852 8.3970553234  20.212835 36.951077 8.460709  21.0030809841 36.98441276 8.428882161699999  20.6482498267 37.64496556029999 8.175154386899999  21.1065604841 37.41408676 9.0208671617  20.7517293267 38.0746395603 8.7671393869  20.3163145 37.380751 9.052693999999999  21.0836646534 38.3388541206 7.8895997738  21.4384958108 37.67830132029999 8.1433275486  22.232676 36.606464 6.372682  21.3810919255 36.6696314973 6.332598444549999  21.3697844255 36.99159199730001 6.66386744455  21.7388354255 36.5544084973 6.82690094455  21.863625 37.04364750000001 6.2096485  21.8749325 36.721687 5.878379499999999  21.494574 37.480831 6.046615  21.5058815 37.15887050000001 5.715346  21.517189 36.83691 5.384077  21.244994851 36.5023529946 7.2811198891  22.502483 33.798828 9.241614  22.9228688513 35.0252568577 9.307414564950001  23.2411258513 34.2906718577 9.007565064950001  23.5060528513 34.6014593577 9.670824064950001  22.184226 34.533413 9.541463499999999  22.76741 34.1096155 9.904873  23.9797687026 34.7825157154 8.773516129900001  18.951284 38.502419 5.513726  20.1251667946 38.6777980726 5.00784026  20.1452178514 37.96987445305 5.127924361  19.42454243255 38.0045531507 4.83490701425  19.67195941885 38.46774030235 5.80674334675  20.3926348377 38.4330616047 6.0997606935  19.8978008651 37.5066873014 4.1560880285  21.259617 37.700737 4.662793  20.57870893255 37.6037121507 4.40944051425  20.55865787575 38.31163577025 4.28935641325  20.82612591885 38.06689930235 5.38127684675  21.769377 38.128403 6.468002  21.1140868241 39.21535406530001 6.53882617925  22.04555 38.7824515 6.245020999999999  21.749422 38.4321975 6.036419  22.065505 38.478657 6.676604  21.1340418241 38.9115595653 6.97040917925  21.729467 38.735992 5.604836  21.06105091885 38.58452680235 5.85229834675  20.94360441885 37.95694630235 6.073187846750001  21.494542 38.2183645 5.1338145  21.3770955 37.590784 5.354704  21.6120205 38.1084115 5.8257255  26.322525 33.232594 8.218423  25.522402193 33.70865555265 8.61793447855  26.1336785 33.731562 7.9537645  26.381236 33.839476 8.436940499999999  25.944832 34.23053 7.689106  22.162109 37.614868 6.968604  21.7226488267 38.5838825603 7.3874028869  21.6228868267 37.9768610603 7.4291018869  22.0625738267 38.1415780603 7.8321623869  19.097343 39.375763 6.935513  19.8502716527 40.31286212785 6.07916323005  19.8686581527 39.59085812785 6.26623123005  19.035775 39.699236 6.2554105  18.974207 40.022709 5.575308  19.8070901527 39.91433112785 5.58612873005  19.0173885 40.42124 6.0683425  20.6399733054 39.8059532557 5.5969494601  19.7980248241 39.5352395653 7.204164679250001  20.4987066482 39.6947161306 7.4728163585  20.5693399768 39.75033469314999 6.5348829093  19.250948 37.823483 6.769688  19.65330491885 37.75528230235 5.94227484675  19.7562799855 37.3707023155 6.33837028035  19.82179141885 38.12827230235 6.43472434675  19.0824615 37.450493 6.2772385  18.913975 37.077503 5.784789  19.5877934855 36.9977123155 5.84592078035  20.32712340435 37.67549161785 6.0034066271  20.261611971 36.917921631 5.9070525607  21.89505266535 36.11205489485 7.7794312658  22.1317339255 36.6774194973 7.344578444550001  22.4058999841 36.93511726 7.9025461617  21.5191609096 36.7600507573 7.839087606250001  22.16921872395 36.36975265754999 8.337398982949999  22.8819709841 37.05136226 8.3271561617  22.40050400275 36.74151268689999 8.948180227849999  23.904173 32.257965 10.146128  24.302289193 33.23995305265 9.701173978549999  24.502072693 32.72237305265 9.846445478549999  24.455823193 33.26513205265 10.22931697855  23.7043895 32.775545 10.0008565  23.8579235 32.800724 10.5289995  23.504606 33.293125 9.855585  25.099972386 33.1867811053 9.5467629571  20.6725010131 36.13966646645 6.020607471150001  20.8894004855 36.8774158155 5.64556478035  21.3002895276 36.09916065095 5.7591196908  21.0833900552 35.3614113019 6.1341623816  21.1641924531 35.93188214825 6.70764113535  20.753303411 36.7101373128 6.5940862249  19.529165 36.519238 6.984602  20.3870799255 36.5107954973 7.13286094455  20.1548143955 37.1194170369 6.96393586325  19.8953884855 36.7185798155 6.445827280350001  20.521037881 37.31875885239999 6.4251611436  20.780463791 37.7195960738 6.9432697265  21.012729321 37.1109745342 7.1121948078  19.3900565 37.17136050000001 6.877145000000001  19.600029 37.0702365 7.35879  19.670893 37.621235 7.732978  20.0157058955 37.7715395369 6.85647886325  20.2256783955 37.67041553689999 7.33812386325  19.4609205 37.722359 7.251333000000001  19.6064479855 37.7101703155 5.71038928035  18.9326295 37.78996100000001 5.6492575  20.8780929855 37.1993763155 5.976833780350001  20.7606144855 37.30932931549999 5.28492278035  21.406893 34.358604 8.520049  21.4689202435 35.22324263055 7.953988593949999  21.97600173985 35.04018039755 8.398895821250001  21.7226757435 34.58058613055 7.86098209395  21.1531375 35.0012605 8.6130555  21.72224623985 35.68283689755 8.491902321249999  22.038458487 34.8025682611 7.2019151879  22.29178448335 35.2621625281 7.7398289152  19.68342091885 39.22788530235 5.83753434675  19.74498891885 38.90441230235 6.51763684675  19.0243135 38.939091 6.2246195  18.9627455 39.262564 5.544517  20.90721941885 38.81810280235 5.14788134675  20.0392065 37.753981 8.676193  19.865578 38.556885 8.891677  20.4746213267 38.4478695603 8.390638386899999  21.4265208267 38.2336285603 7.1788008869  21.965743 37.8716355 6.718303000000001  22.261871 38.2218895 6.926905  22.38889323985 36.16411039755 7.32521232125  22.1355672435 35.70451613055 6.78729859395  21.641726669 35.65246062785 7.2415175385  22.00267151865 36.5789479269 9.612947066149999  22.43682501865 35.8666374269 9.670309066150001  19.5884179855 36.4656348155 5.96883078035  19.22157 36.7983705 6.384695499999999  19.2221945 36.266293 6.5076055  18.915224 36.013348 6.030609  18.9145995 36.5454255 5.907699  21.08100591885 38.28073230235 6.28388134675  21.6319755 37.804617 6.257308500000001  22.52379673985 34.76029239755 8.75967832125  21.954688 34.078716 8.880831499999999  22.20553973985 35.49487739755 9.059527821250001  21.636431 34.813301 9.180681  20.9144429255 35.6198744973 7.47251644455  21.0721884255 36.0731349973 7.99359094455  20.549847 35.7061555 8.206637000000001  20.7416365 35.1906565 8.1849875  20.583891 34.737396 7.663913  20.3921015 35.252895 7.6855625  20.200312 35.768394 7.707212  20.7226534255 36.1353734973 7.49416594455  21.1375188955 37.6002135369 6.49494236325  20.58654931435 38.07632883925 6.52151521  20.07970641805 37.2123044662 5.0315702946  19.101116 38.16295100000001 6.141707  19.1741455 38.599623 6.8526005  21.3111747435 34.76998213055 7.43291409395  19.379972 38.545338 7.821583  19.88630341885 38.48919980235 6.96067184675  19.2386575 38.9605505 7.378548  19.31546 38.1844105 7.2956355  19.40588793255 37.2920951507 4.97043851425  21.9777179841 37.31630826 7.6828296617  22.4174049841 37.48102526 8.0858901617  21.2868953796 37.3686722969 7.670162524949999  21.7035519255 37.0586104973 7.12486194455  21.4712863955 37.6672320369 6.95593686325  20.0802178955 38.1324670369 7.38242636325  20.2318183267 38.4420960603 7.8555913869  20.9320642222 38.0292250972 7.41643475015  20.73814974555 38.38595786265 6.99468023365  24.49264552375 32.5098799347 10.4650252223  25.09054521675 32.97428798735 10.16534270085  25.0811180475 32.7617948694 10.7839224446  20.1821423241 39.1258005653 8.182246679249999  19.622775 38.5511115 8.356629999999999  19.9393393241 39.1200270653 7.647199679250001  20.7911856508 39.01678512559999 7.68120806615  20.3062775276 35.94032465095 6.5593821908  19.531475 35.814013 6.8995335  19.8647385 36.143816 7.345907  19.8670485 35.438591 7.2608385  20.6418510276 35.56490265095 6.920687190800001  19.533785 35.108788 6.814465  20.3085875276 35.23509965095 6.474313690800001  20.51630407155 39.1195074302 5.848355076800001  20.4579439255 37.0617939973 7.50704894455  21.1847201527 39.27097262785 5.60089273005  19.941864 37.286156 8.0968435  20.3772788267 37.9800445603 7.8112888869  19.7682355 38.08906 8.3123275  19.5254325 38.0832865 7.7772805  21.2749203955 37.9239995369 6.70563586325  21.388403 37.2688235 5.023434999999999  19.7956286527 39.15418612785 5.555337730050001  20.4966493955 37.3353365369 7.70198936325  20.7289149255 36.7267149973 7.870914444549999  22.590291 37.233677 7.1883205  22.601796 37.779585 7.3716645  22.6255745 36.729475 6.890359500000001  19.8976984855 36.01335481549999 6.36075878035  23.958031 32.468071 11.387192  23.931102 32.363018 10.76666  22.1973925 37.110666 6.670643  20.5561085 36.297497 8.583385499999999  20.2065735 36.3597355 8.0839605  20.44567074295 39.06388886765 6.786288526  24.207699 36.180504 7.606123  23.37640473985 35.95113039755 7.94193282125  23.60769001865 36.3228904269 8.552714066149999  24.0937338513 35.4815098577 8.18981956495  23.26243959115 35.25213625525 8.5256293862  23.49372486995 35.6238962846 9.1364106311  19.871 36.7351575 7.7226555  21.6580330276 35.98393765095 6.2534221908  21.5609242711 35.0819897815 6.66803878475  20.8336405276 35.04940365095 6.8990376908  20.058838 34.923092 7.239189  20.6052485 36.821848 9.093648999999999  23.0035445 33.5459765 9.5485995  23.7421873513 34.0378203577 9.31455056495  20.995392 
[...]
<PointData  Vectors="u"> 
<DataArray  type="Float64"  Name="u"  NumberOfComponents="3" format="ascii">0.0000000000000000e+00 0.0000000000000000e+00 0.0000000000000000e+00  0.0000000000000000e+00 0.0000000000000000e+00 0.0000000000000000e+00  0.0000000000000000e+00 0.0000000000000000e+00 0.0000000000000000e+00  0.0000000000000000e+00 0.0000000000000000e+00 0.0000000000000000e+00  0.0000000000000000e+00 0.0000000000000000e+00 0.0000000000000000e+00  0.0000000000000000e+00 0.0000000000000000e+00 0.0000000000000000e+00  0.0000000000000000e+00 0.0000000000000000e+00 0.0000000000000000e+00  0.0000000000000000e+00 0.0000000000000000e+00 0.0000000000000000e+00  0.0000000000000000e+00 0.0000000000000000e+00 0.0000000000000000e+00  0.0000000000000000e+00 0.0000000000000000e+00 0.0000000000000000e+00  0.0000000000000000e+00 0.0000000000000000e+00 0.0000000000000000e+00  0.0000000000000000e+00 0.0000000000000000e+00 0.0000000000000000e+00  0.0000000000000000e+00 0.0000000000000000e+00 0.0000000000000000e+00  0.0000000000000000e+00 0.0000000000000000e+00 0.0000000000000000e+00  0.0000000000000000e+00 0.0000000000000000e+00 0.0000000000000000e+00  0.0000000000000000e+00 0.0000000000000000e+00 0.0000000000000000e+00  0.0000000000000000e+00 0.0000000000000000e+00 0.0000000000000000e+00  0.0000000000000000e+00 0.0000000000000000e+00 0.0000000000000000e+00  0.0000000000000000e+00 0.0000000000000000e+00 0.0000000000000000e+00  0.0000000000000000e+00 0.0000000000000000e+00 0.0000000000000000e+00  0.0000000000000000e+00 0.0000000000000000e+00 0.0000000000000000e+00  0.0000000000000000e+00 0.0000000000000000e+00 0.0000000000000000e+00  0.0000000000000000e+00 0.0000000000000000e+00 0.0000000000000000e+00  0.0000000000000000e+00 0.0000000000000000e+00 0.0000000000000000e+00  0.0000000000000000e+00 0.0000000000000000e+00 0.0000000000000000e+00  0.0000000000000000e+00 0.0000000000000000e+00 0.0000000000000000e+00  0.0000000000000000e+00 0.0000000000000000e+00 0.0000000000000000e+00  0.0000000000000000e+00 0.0000000000000000e+00 0.0000000000000000e+00  0.0000000000000000e+00 0.0000000000000000e+00 0.0000000000000000e+00  0.0000000000000000e+00 0.0000000000000000e+00 0.0000000000000000e+00  0.0000000000000000e+00 0.0000000000000000e+00 0.0000000000000000e+00  0.0000000000000000e+00 0.0000000000000000e+00 0.0000000000000000e+00  0.0000000000000000e+00 0.0000000000000000e+00 0.0000000000000000e+00  0.0000000000000000e+00 0.0000000000000000e+00 0.0000000000000000e+00  0.0000000000000000e+00 0.0000000000000000e+00 0.0000000000000000e+00  0.0000000000000000e+00 0.0000000000000000e+00 0.0000000000000000e+00  0.0000000000000000e+00 0.0000000000000000e+00 0.0000000000000000e+00  0.0000000000000000e+00 0.0000000000000000e+00 0.0000000000000000e+00  0.0000000000000000e+00 0.0000000000000000e+00 0.0000000000000000e+00  0.0000000000000000e+00 0.0000000000000000e+00 0.0000000000000000e+00  0.0000000000000000e+00 0.0000000000000000e+00 0.0000000000000000e+00  0.0000000000000000e+00 0.0000000000000000e+00 0.0000000000000000e+00  0.0000000000000000e+00 0.0000000000000000e+00 0.0000000000000000e+00  0.0000000000000000e+00 0.0000000000000000e+00 0.0000000000000000e+00  0.0000000000000000e+00 0.0000000000000000e+00 0.0000000000000000e+00  0.0000000000000000e+00 0.0000000000000000e+00 0.0000000000000000e+00  0.0000000000000000e+00 0.0000000000000000e+00 0.0000000000000000e+00  0.0000000000000000e+00 0.0000000000000000e+00 0.0000000000000000e+00  0.0000000000000000e+00 0.0000000000000000e+00 0.0000000000000000e+00  0.0000000000000000e+00 0.0000000000000000e+00 0.0000000000000000e+00  0.0000000000000000e+00 0.0000000000000000e+00 0.0000000000000000e+00  0.0000000000000000e+00 0.0000000000000000e+00 0.0000000000000000e+00  0.0000000000000000e+00 0.0000000000000000e+00 0.0000000000000000e+00  0.0000000000000000e+00 0.0000000000000000e+00 0.0000000000000000e+00  0.0000000000000000e+00 0.0000000000000000e+00 0.0000000000000000e+00  0.0000000000000000e+00 0.0000000000000000e+00 0.0000000000000000e+00  0.0000000000000000e+00 0.0000000000000000e+00 0.0000000000000000e+00  0.0000000000000000e+00 0.0000000000000000e+00 0.0000000000000000e+00  0.0000000000000000e+00 0.0000000000000000e+00 0.0000000000000000e+00  0.0000000000000000e+00 0.0000000000000000e+00 0.0000000000000000e+00  0.0000000000000000e+00 0.0000000000000000e+00 0.0000000000000000e+00  0.0000000000000000e+00 0.0000000000000000e+00 0.0000000000000000e+00  0.0000000000000000e+00 0.0000000000000000e+00 0.0000000000000000e+00  0.0000000000000000e+00 0.0000000000000000e+00 0.0000000000000000e+00  0.0000000000000000e+00 0.0000000000000000e+00 0.0000000000000000e+00  0.0000000000000000e+00 0.0000000000000000e+00 0.0000000000000000e+00  0.0000000000000000e+00 0.0000000000000000e+00 0.0000000000000000e+00  0.0000000000000000e+00 0.0000000000000000e+00 0.0000000000000000e+00  0.0000000000000000e+00 0.0000000000000000e+00 0.0000000000000000e+00  0.0000000000000000e+00 0.0000000000000000e+00 0.0000000000000000e+00  0.0000000000000000e+00 0.0000000000000000e+00 0.0000000000000000e+00  0.0000000000000000e+00 0.0000000000000000e+00 0.0000000000000000e+00  0.0000000000000000e+00 0.0000000000000000e+00 0.0000000000000000e+00  0.0000000000000000e+00 0.0000000000000000e+00 0.0000000000000000e+00  0.0000000000000000e+00 0.0000000000000000e+00 0.0000000000000000e+00  0.0000000000000000e+00 0.0000000000000000e+00 0.0000000000000000e+00  0.0000000000000000e+00 0.0000000000000000e+00 0.0000000000000000e+00  0.0000000000000000e+00 0.0000000000000000e+00 0.0000000000000000e+00  0.0000000000000000e+00 0.0000000000000000e+00 0.0000000000000000e+00  0.0000000000000000e+00 0.0000000000000000e+00 0.0000000000000000e+00  0.0000000000000000e+00 0.0000000000000000e+00 0.0000000000000000e+00  0.0000000000000000e+00 0.0000000000000000e+00 0.0000000000000000e+00  0.0000000000000000e+00 0.0000000000000000e+00 0.0000000000000000e+00  0.0000000000000000e+00 0.0000000000000000e+00 0.0000000000000000e+00  0.0000000000000000e+00 0.0000000000000000e+00 0.0000000000000000e+00  0.0000000000000000e+00 0.0000000000000000e+00 0.0000000000000000e+00  0.0000000000000000e+00 0.0000000000000000e+00 0.0000000000000000e+00  0.0000000000000000e+00 0.0000000000000000e+00 0.0000000000000000e+00  0.0000000000000000e+00 0.0000000000000000e+00 0.0000000000000000e+00  0.0000000000000000e+00 0.0000000000000000e+00 0.0000000000000000e+00  0.0000000000000000e+00 0.0000000000000000e+00 0.0000000000000000e+00  0.0000000000000000e+00 0.0000000000000000e+00 0.0000000000000000e+00  0.0000000000000000e+00 0.0000000000000000e+00 0.0000000000000000e+00  0.0000000000000000e+00 0.0000000000000000e+00 0.0000000000000000e+00  0.0000000000000000e+00 0.0000000000000000e+00 0.0000000000000000e+00  0.0000000000000000e+00 0.0000000000000000e+00 0.0000000000000000e+00  0.0000000000000000e+00 0.0000000000000000e+00 0.0000000000000000e+00  0.0000000000000000e+00 0.0000000000000000e+00 0.0000000000000000e+00  0.0000000000000000e+00 0.0000000000000000e+00 0.0000000000000000e+00  0.0000000000000000e+00 0.0000000000000000e+00 0.0000000000000000e+00  0.0000000000000000e+00 0.0000000000000000e+00 0.0000000000000000e+00  0.0000000000000000e+00 0.0000000000000000e+00 0.0000000000000000e+00  0.0000000000000000e+00 0.0000000000000000e+00 0.0000000000000000e+00  0.0000000000000000e+00 0.0000000000000000e+00 0.0000000000000000e+00  0.0000000000000000e+00 0.0000000000000000e+00 0.0000000000000000e+00  0.0000000000000000e+00 0.0000000000000000e+00 0.0000000000000000e+00  0.0000000000000000e+00 0.0000000000000000e+00 0.0000000000000000e+00  0.0000000000000000e+00 0.0000000000000000e+00 0.0000000000000000e+00  0.0000000000000000e+00 0.0000000000000000e+00 0.0000000000000000e+00  0.0000000000000000e+00 0.0000000000000000e+00 0.0000000000000000e+00  0.0000000000000000e+00 0.0000000000000000e+00 0.0000000000000000e+00  0.0000000000000000e+00 0.0000000000000000e+00 0.0000000000000000e+00  0.0000000000000000e+00 0.0000000000000000e+00 0.0000000000000000e+00  0.0000000000000000e+00 0.0000000000000000e+00 0.0000000000000000e+00  0.0000000000000000e+00 0.0000000000000000e+00 0.0000000000000000e+00  0.0000000000000000e+00 0.0000000000000000e+00 0.0000000000000000e+00  0.0000000000000000e+00 0.0000000000000000e+00 0.0000000000000000e+00  0.0000000000000000e+00 0.0000000000000000e+00 0.0000000000000000e+00  0.0000000000000000e+00 0.0000000000000000e+00 0.0000000000000000e+00  0.0000000000000000e+00 0.0000000000000000e+00 0.0000000000000000e+00  0.0000000000000000e+00 0.0000000000000000e+00 0.0000000000000000e+00  0.0000000000000000e+00 0.0000000000000000e+00 0.0000000000000000e+00  0.0000000000000000e+00 0.0000000000000000e+00 0.0000000000000000e+00  0.0000000000000000e+00 0.0000000000000000e+00 0.0000000000000000e+00  0.0000000000000000e+00 0.0000000000000000e+00 0.0000000000000000e+00  0.0000000000000000e+00 0.0000000000000000e+00 0.0000000000000000e+00  0.0000000000000000e+00 0.0000000000000000e+00 0.0000000000000000e+00  0.0000000000000000e+00 0.0000000000000000e+00 0.0000000000000000e+00  0.0000000000000000e+00 0.0000000000000000e+00 0.0000000000000000e+00  0.0000000000000000e+00 0.0000000000000000e+00 0.0000000000000000e+00  0.0000000000000000e+00 0.0000000000000000e+00 0.0000000000000000e+00  0.0000000000000000e+00 0.0000000000000000e+00 0.0000000000000000e+00  0.0000000000000000e+00 0.0000000000000000e+00 0.0000000000000000e+00  0.0000000000000000e+00 0.0000000000000000e+00 0.0000000000000000e+00  0.0000000000000000e+00 0.0000000000000000e+00 0.0000000000000000e+00  0.0000000000000000e+00 0.0000000000000000e+00 0.0000000000000000e+00  0.0000000000000000e+00 0.0000000000000000e+00 0.0000000000000000e+00  0.0000000000000000e+00 0.0000000000000000e+00 0.0000000000000000e+00  0.0000000000000000e+00 0.0000000000000000e+00 0.0000000000000000e+00  0.0000000000000000e+00 0.0000000000000000e+00 0.0000000000000000e+00  0.0000000000000000e+00 0.0000000000000000e+00 0.0000000000000000e+00  0.0000000000000000e+00 0.0000000000000000e+00 0.0000000000000000e+00  0.0000000000000000e+00 0.0000000000000000e+00 0.0000000000000000e+00  0.0000000000000000e+00 0.0000000000000000e+00 0.0000000000000000e+00  0.0000000000000000e+00 0.0000000000000000e+00 0.0000000000000000e+00  0.0000000000000000e+00 0.0000000000000000e+00 0.0000000000000000e+00  0.0000000000000000e+00 0.0000000000000000e+00 0.0000000000000000e+00  0.0000000000000000e+00 0.0000000000000000e+00 0.0000000000000000e+00  0.0000000000000000e+00 0.0000000000000000e+00 0.0000000000000000e+00  0.0000000000000000e+00 0.0000000000000000e+00 0.0000000000000000e+00  0.0000000000000000e+00 0.0000000000000000e+00 0.0000000000000000e+00  0.0000000000000000e+00 0.0000000000000000e+00 0.0000000000000000e+00  0.0000000000000000e+00 0.0000000000000000e+00 0.0000000000000000e+00  0.0000000000000000e+00 0.0000000000000000e+00 0.0000000000000000e+00  0.0000000000000000e+00 0.0000000000000000e+00 0.0000000000000000e+00  0.0000000000000000e+00 0.0000000000000000e+00 0.0000000000000000e+00  0.0000000000000000e+00 0.0000000000000000e+00 0.0000000000000000e+00  0.0000000000000000e+00 0.0000000000000000e+00 0.0000000000000000e+00  0.0000000000000000e+00 0.0000000000000000e+00 0.0000000000000000e+00  0.0000000000000000e+00 0.0000000000000000e+00 0.0000000000000000e+00  0.0000000000000000e+00 0.0000000000000000e+00 0.0000000000000000e+00  0.0000000000000000e+00 0.0000000000000000e+00 0.0000000000000000e+00  0.0000000000000000e+00 0.0000000000000000e+00 0.0000000000000000e+00  0.0000000000000000e+00 0.0000000000000000e+00 0.0000000000000000e+00  0.0000000000000000e+00 0.0000000000000000e+00 0.0000000000000000e+00  0.0000000000000000e+00 0.0000000000000000e+00 0.0000000000000000e+00  0.0000000000000000e+00 0.0000000000000000e+00 0.0000000000000000e+00  0.0000000000000000e+00 0.0000000000000000e+00 0.0000000000000000e+00  0.0000000000000000e+00 0.0000000000000000e+00 0.0000000000000000e+00  0.0000000000000000e+00 0.0000000000000000e+00 0.0000000000000000e+00  0.0000000000000000e+00 0.0000000000000000e+00 0.0000000000000000e+00  0.0000000000000000e+00 0.0000000000000000e+00 0.0000000000000000e+00  0.0000000000000000e+00 0.0000000000000000e+00 0.0000000000000000e+00  0.0000000000000000e+00 0.0000000000000000e+00 0.0000000000000000e+00  0.0000000000000000e+00 0.0000000000000000e+00 0.0000000000000000e+00  0.0000000000000000e+00 0.0000000000000000e+00 0.0000000000000000e+00  0.0000000000000000e+00 0.0000000000000000e+00 0.0000000000000000e+00  0.0000000000000000e+00 0.0000000000000000e+00 0.0000000000000000e+00  0.0000000000000000e+00 0.0000000000000000e+00 0.0000000000000000e+00  0.0000000000000000e+00 0.0000000000000000e+00 0.0000000000000000e+00  0.0000000000000000e+00 0.0000000000000000e+00 0.0000000000000000e+00  0.0000000000000000e+00 0.0000000000000000e+00 0.0000000000000000e+00  0.0000000000000000e+00 0.0000000000000000e+00 0.0000000000000000e+00  0.0000000000000000e+00 0.0000000000000000e+00 0.0000000000000000e+00  0.0000000000000000e+00 0.0000000000000000e+00 0.0000000000000000e+00  0.0000000000000000e+00 0.0000000000000000e+00 0.0000000000000000e+00  0.0000000000000000e+00 0.0000000000000000e+00 0.0000000000000000e+00  0.0000000000000000e+00 0.0000000000000000e+00 0.0000000000000000e+00  0.0000000000000000e+00 0.0000000000000000e+00 0.0000000000000000e+00  0.0000000000000000e+00 0.0000000000000000e+00 0.0000000000000000e+00  0.0000000000000000e+00 0.0000000000000000e+00 0.0000000000000000e+00  0.0000000000000000e+00 0.0000000000000000e+00 0.0000000000000000e+00  0.0000000000000000e+00 0.0000000000000000e+00 0.0000000000000000e+00  0.0000000000000000e+00 0.0000000000000000e+00 0.0000000000000000e+00  0.0000000000000000e+00 0.0000000000000000e+00 0.0000000000000000e+00  0.0000000000000000e+00 0.0000000000000000e+00 0.0000000000000000e+00  0.0000000000000000e+00 0.0000000000000000e+00 0.0000000000000000e+00  0.0000000000000000e+00 0.0000000000000000e+00 0.0000000000000000e+00  0.0000000000000000e+00 0.0000000000000000e+00 0.0000000000000000e+00  0.0000000000000000e+00 0.0000000000000000e+00 0.0000000000000000e+00  0.0000000000000000e+00 0.0000000000000000e+00 0.0000000000000000e+00  0.0000000000000000e+00 0.0000000000000000e+00 0.0000000000000000e+00  0.0000000000000000e+00 0.0000000000000000e+00 0.0000000000000000e+00  0.0000000000000000e+00 0.0000000000000000e+00 0.0000000000000000e+00  0.0000000000000000e+00 0.0000000000000000e+00 0.0000000000000000e+00  0.0000000000000000e+00 0.0000000000000000e+00 0.0000000000000000e+00  0.0000000000000000e+00 0.0000000000000000e+00 0.0000000000000000e+00  0.0000000000000000e+00 0.0000000000000000e+00 0.0000000000000000e+00  0.0000000000000000e+00 0.0000000000000000e+00 0.0000000000000000e+00  0.0000000000000000e+00 0.0000000000000000e+00 0.0000000000000000e+00  0.0000000000000000e+00 0.0000000000000000e+00 0.0000000000000000e+00  0.0000000000000000e+00 0.0000000000000000e+00 0.0000000000000000e+00  0.0000000000000000e+00 0.0000000000000000e+00 0.0000000000000000e+00  0.0000000000000000e+00 0.0000000000000000e+00 0.0000000000000000e+00  0.0000000000000000e+00 0.0000000000000000e+00 0.0000000000000000e+00  0.0000000000000000e+00 0.0000000000000000e+00 0.0000000000000000e+00  0.0000000000000000e+00 0.0000000000000000e+00 0.0000000000000000e+00  0.0000000000000000e+00 0.0000000000000000e+00 0.0000000000000000e+00  0.0000000000000000e+00 0.0000000000000000e+00 0.0000000000000000e+00  0.0000000000000000e+00 0.0000000000000000e+00 0.0000000000000000e+00  0.0000000000000000e+00 0.0000000000000000e+00 0.0000000000000000e+00  0.0000000000000000e+00 0.0000000000000000e+00 0.0000000000000000e+00  0.0000000000000000e+00 0.0000000000000000e+00 0.0000000000000000e+00  0.0000000000000000e+00 0.0000000000000000e+00 0.0000000000000000e+00  0.0000000000000000e+00 0.0000000000000000e+00 0.0000000000000000e+00  0.0000000000000000e+00 0.0000000000000000e+00 0.0000000000000000e+00  0.0000000000000000e+00 0.0000000000000000e+00 0.0000000000000000e+00  0.0000000000000000e+00 0.0000000000000000e+00 0.0000000000000000e+00  0.0000000000000000e+00 0.0000000000000000e+00 0.0000000000000000e+00  0.0000000000000000e+00 0.0000000000000000e+00 0.0000000000000000e+00  0.0000000000000000e+00 0.0000000000000000e+00 0.0000000000000000e+00  0.0000000000000000e+00 0.0000000000000000e+00 0.0000000000000000e+00  0.0000000000000000e+00 0.0000000000000000e+00 0.0000000000000000e+00  0.0000000000000000e+00 0.0000000000000000e+00 0.0000000000000000e+00  0.0000000000000000e+00 0.0000000000000000e+00 0.0000000000000000e+00  0.0000000000000000e+00 0.0000000000000000e+00 0.0000000000000000e+00  0.0000000000000000e+00 0.0000000000000000e+00 0.0000000000000000e+00  0.0000000000000000e+00 0.0000000000000000e+00 0.0000000000000000e+00  0.0000000000000000e+00 0.0000000000000000e+00 0.0000000000000000e+00  0.0000000000000000e+00 0.0000000000000000e+00 0.0000000000000000e+00  0.0000000000000000e+00 0.0000000000000000e+00 0.0000000000000000e+00  0.0000000000000000e+00 0.0000000000000000e+00 0.0000000000000000e+00  0.0000000000000000e+00 0.0000000000000000e+00 0.0000000000000000e+00  0.0000000000000000e+00 0.0000000000000000e+00 0.0000000000000000e+00  0.0000000000000000e+00 0.0000000000000000e+00 0.0000000000000000e+00  0.0000000000000000e+00 0.0000000000000000e+00 0.0000000000000000e+00  0.0000000000000000e+00 0.0000000000000000e+00 0.0000000000000000e+00  0.0000000000000000e+00 0.0000000000000000e+00 0.0000000000000000e+00  0.0000000000000000e+00 0.0000000000000000e+00 0.0000000000000000e+00  0.0000000000000000e+00 0.0000000000000000e+00 0.0000000000000000e+00  0.0000000000000000e+00 0.0000000000000000e+00 0.0000000000000000e+00  0.0000000000000000e+00 0.0000000000000000e+00 0.0000000000000000e+00  0.0000000000000000e+00 0.0000000000000000e+00 0.0000000000000000e+00  0.0000000000000000e+00 0.0000000000000000e+00 0.0000000000000000e+00  0.0000000000000000e+00 0.0000000000000000e+00 0.0000000000000000e+00  0.0000000000000000e+00 0.0000000000000000e+00 0.0000000000000000e+00  0.0000000000000000e+00 0.0000000000000000e+00 0.0000000000000000e+00  0.0000000000000000e+00 0.0000000000000000e+00 0.0000000000000000e+00  0.0000000000000000e+00 0.0000000000000000e+00 0.0000000000000000e+00  0.0000000000000000e+00 0.0000000000000000e+00 0.0000000000000000e+00  0.0000000000000000e+00 0.0000000000000000e+00 0.0000000000000000e+00  0.0000000000000000e+00 0.0000000000000000e+00 0.0000000000000000e+00  0.0000000000000000e+00 0.0000000000000000e+00 0.0000000000000000e+00  0.0000000000000000e+00 0.0000000000000000e+00 0.0000000000000000e+00  0.0000000000000000e+00 0.0000000000000000e+00 0.0000000000000000e+00  0.0000000000000000e+00 0.0000000000000000e+00 0.0000000000000000e+00  0.0000000000000000e+00 0.0000000000000000e+00 0.0000000000000000e+00  0.0000000000000000e+00 0.0000000000000000e+00 0.0000000000000000e+00  0.0000000000000000e+00 0.0000000000000000e+00 0.0000000000000000e+00  0.0000000000000000e+00 0.0000000000000000e+00 0.0000000000000000e+00  0.0000000000000000e+00 0.0000000000000000e+00 0.0000000000000000e+00  0.0000000000000000e+00 0.0000000000000000e+00 0.0000000000000000e+00  0.0000000000000000e+00 0.0000000000000000e+00 0.0000000000000000e+00  0.0000000000000000e+00 0.0000000000000000e+00 0.0000000000000000e+00  0.0000000000000000e+00 0.0000000000000000e+00 0.0000000000000000e+00  0.0000000000000000e+00 0.0000000000000000e+00 0.0000000000000000e+00  0.0000000000000000e+00 0.0000000000000000e+00 0.0000000000000000e+00  0.0000000000000000e+00 0.0000000000000000e+00 0.0000000000000000e+00  0.0000000000000000e+00 0.0000000000000000e+00 0.0000000000000000e+00  0.0000000000000000e+00 0.0000000000000000e+00 0.0000000000000000e+00  0.0000000000000000e+00 0.0000000000000000e+00 0.0000000000000000e+00  0.0000000000000000e+00 0.0000000000000000e+00 0.0000000000000000e+00  0.0000000000000000e+00 0.0000000000000000e+00 0.0000000000000000e+00  0.0000000000000000e+00 0.0000000000000000e+00 0.0000000000000000e+00  0.0000000000000000