<?xml version="1.0"?>
<VTKFile type="UnstructuredGrid"  version="0.1"  >
<UnstructuredGrid>
<Piece  NumberOfPoints="8509" NumberOfCells="37819">
<Points>
<DataArray  type="Float64"  NumberOfComponents="3"  format="ascii">17.646658 6.735021 27.15564  17.0981074894 6.78787916065 26.3536072379  17.2334984026 5.7774734678 26.6907479615  17.0192795 6.510911 27.154177  16.391901 6.286801 27.152714  16.684947892 5.83033162845 25.8887151994  16.4707289894 6.56376916065 26.3521442379  16.6061199026 5.5533634678 26.6892849615  16.8203388052 4.8199259356 26.225855923  16.5495569788 6.8407373213 25.5515744758  16.332626 9.834792 21.463484  16.07078849015 8.880317436950001 21.6598993013  15.92741699015 8.954616436950001 22.1807598013  16.45437699015 9.192735436950001 21.7534768013  15.9490375 9.522373999999999 21.3699065  15.805666 9.596672999999999 21.890767  15.278706 9.358554 22.31805  15.4220775 9.284255 21.7971895  15.565449 9.209956 21.276329  16.5761279803 8.550678873900001 22.0434696026  19.521254 4.597309 24.293394  18.72271976035 4.8229204335 23.9539087395  19.2120993786 5.093178036999999 24.6151775652  19.25358224875 5.2189795488 23.8185330516  18.9859104975 5.8406500976 23.3436721032  18.41356513895 5.318789470500001 24.2756923047  18.4550480091 5.4445909823 23.4790477911  18.94442762735 5.7148485858 24.1403166168  18.9029447572 5.589047074 24.9369611304  17.9241855207 5.048531867 23.614423479  15.968246 5.757829 19.821428  16.67080206965 6.215920537800001 20.37733264375  16.17520106965 6.4029905378 20.70156914375  15.817614 5.674306 20.351894  16.162583 5.403713 20.5581235  15.666982 5.590783 20.88236  16.331242 3.342121 23.140209  15.93316767235 3.81036421525 23.97239345585  15.88619567235 4.135850215250001 23.46413145585  16.37839567235 4.10544421525 23.63001645585  15.839042 3.372527 22.974324  15.886014 3.047041 23.482586  15.346842 3.402933 22.808439  15.393814 3.077447 23.316701  15.440786 2.751961 23.824963  16.4255493447 4.8687674305 24.1198239117  15.946157 4.008523 22.257109  16.88436267235 4.27723571525 23.18496445585  16.18585317235 4.43864521525 23.18846645585  16.1386995 3.675322 22.698659  16.6446665 3.8471135 22.253607  17.343176 3.685704 22.250105  16.837209 3.5139125 22.695157  16.5864929732 5.40471065515 21.6111701348  16.198284 5.065139 21.036623  16.658184 5.216643 20.233887  17.0820939732 5.21764065515 21.2869336348  16.693885 4.878069 20.7123865  16.729586 4.539495 21.190886  17.1177949732 4.87906665515 21.7654331348  17.5060039464 5.2186383103 22.3399802696  17.7415080109 6.0660595369 24.4857924556  17.98264196705 6.80508996555 25.7169955597  17.5563195439 6.175716544849999 25.88815906565  17.14553249485 6.4533984291 25.0186834657  18.15229505995 5.78837765265 25.35526805555  18.5786174831 6.41775107335 25.1841045496  18.563082109 5.5106957684 26.2247436555  19.390854 4.247706 23.161982  18.65751976035 4.6481189335 23.3882027395  18.4484289732 4.73317215515 22.7509811348  19.18838224875 5.0441780488 23.2528270516  18.24595722195 5.52964420395 22.8418261864  17.71509473355 5.13358508865 22.9772018743  16.51815717235 3.96691721525 24.06609195585  16.4710035 3.203594 23.5762845  16.610765 3.065067 24.01236  16.0257755 2.908514 23.9186615  18.127726 8.632134000000001 23.233679  17.86874357375 8.1396857335 23.80210996095  17.15861625965 8.37567965655 23.2922169225  17.393472486 7.555188005750001 22.92898432775  16.659218972 6.4782420115 22.6242896555  17.13449005975 7.06273973925 23.4974152887  16.42436274565 7.2987336623 22.98752225025  16.1895065193 8.119225313099999 23.350754845  16.8996338334 7.88323139005 23.86064788345  17.6097611475 7.647237467 24.3705409219  17.388044 5.925519 27.510271  17.63769414695 4.45691748305 26.95764938615  17.1041914026 5.3727224678 26.8680634615  16.9929655 5.609026 27.722684  16.597887 5.292533 27.935097  16.7091129026 5.0562294678 27.0804764615  15.68766199655 4.1465430364 23.1929615549  15.49511949655 4.4797440364 22.7514115549  15.7348156689 4.90986625165 23.68276901075  15.0440819931 4.9509650728 23.2457141098  17.519119 3.375286 23.420206  16.97233417235 4.12202671525 23.77001495585  17.064942 3.2201765 23.716283  17.481676 3.323637 23.988903  17.444233 3.271988 24.5576  16.93489117235 4.07037771525 24.33871195585  17.027499 3.1685275 24.28498  19.096025 4.273391 25.045582  19.5009585473 4.75810717085 25.56946205175  18.9994848786 4.931219037 24.9912715652  18.8295535545 4.8920433842 25.63516282775  15.096667 8.275629 21.863068  15.22806510935 7.6461044375 22.6690034618  15.6302503688 7.8020970219 21.7992877918  15.64308675965 8.197427156549999 22.6069114225  15.76164847815 7.1725724594 22.6052232536  15.774484869 7.56790259405 23.4128468843  16.17667012845 7.72389517845 22.5431312143  16.1638337376 7.3285650438 21.7355075836  15.3594632187 7.016579875 23.4749389236  18.24962 3.666924 25.314665  17.34371233975 3.9696327589 25.3725089587  17.87302783975 4.232473758899999 25.1613444587  17.5349794026 4.243424967799999 25.7702604615  17.7203045 3.404083 25.5258295  17.190989 3.141242 25.736994  17.0056639026 3.9805839678 25.9814249615  17.15838724235 4.8089747267 25.6169399202  17.4964356795 4.7980235178 25.0080239174  15.171861 8.370163 20.68338  15.92764056965 7.7926805378 20.60207914375  15.110982 7.651293 20.9090005  15.0848285 7.892632499999999 20.355503  14.997796 7.415102 20.027626  15.84060806965 7.315150037800001 20.27420214375  15.0239495 7.1737625 20.5811235  15.050103 6.932423 21.134621  15.86676156965 7.0738105378 20.82769964375  16.6834201393 7.2151980756 20.5207782875  17.8328467658 5.55729570195 24.0501079673  18.3637092542 5.95335481725 23.9147322794  18.32222638405 5.827553305449999 24.711376793  17.6917104571 5.165310851999999 26.22529978925  15.4586923688 6.5202835219 21.7656017918  15.9154078688 6.4596740219 21.3089337918  15.6069683688 7.130494021900001 21.4350642918  15.3585425 6.261603 21.0084905  14.901827 6.3222125 21.4651585  15.2102665 5.6513925 21.339028  14.753551 5.712002 21.795696  16.27504296975 5.08480169155 22.7928471897  16.96577664555 5.043702870400001 23.22990209065  16.7260804732 4.613580655150001 22.2985446348  16.299433487 7.20704055375 23.685358661  16.00934109535 6.747410943249999 23.04961428955  16.53428971335 6.38654890295 23.32212606625  16.4093604547 6.2948557944 24.019962477  15.8844118367 6.6557178347 23.7474507003  16.42362693845 7.271881559700001 21.12814293555  17.1579349563 7.15479345505 21.0955699347  16.6297740598 7.88293847475 21.28212394505  16.36998085895 7.939621958850001 21.8894885931  17.1042888768 7.8225338542 21.85691559225  17.6324497733 7.0943888345 21.6703615819  16.89814175545 7.21147693915 21.70293458275  17.836639 9.36543 23.878874  17.00983261835 8.43044672405 24.20760455695  17.2688150446 8.922894990550001 23.639173596  17.1232715446 9.28954299055 23.961771096  17.9821825 8.998782 23.5562765  17.72320007375 8.5063337335 24.12470746095  16.4099040892 9.213655981100001 24.044668192  18.3795165545 4.3509968842 26.27491632775  17.5081449026 4.0056119678 26.2754724615  17.7103106001 4.9232776924 24.3112236982  17.6189718452 5.43204152735 24.7469081865  18.19969021835 5.1935352959 24.9724925239  15.6678473688 7.8493640219 21.2094437918  15.87399449015 8.460420936950001 21.3634248013  15.134264 8.322896 21.273224  15.83639749015 8.41315393695 21.9532688013  17.053652 9.696120000000001 22.763365  17.35192699015 8.591406436950001 22.6385743013  16.81488999015 9.123399436950001 22.4034173013  17.499094 9.327961999999999 22.4376925  17.590689 9.164127000000001 22.998522  17.944536 8.959804 22.11202  17.26033199015 8.755241436950001 22.0777448013  18.036131 8.795968999999999 22.6728495  18.822451 8.614523999999999 24.723392  18.5127440514 7.208340038399999 25.12647878275  18.09405157375 8.081597733500001 25.30614696095  18.21610607375 8.1308807335 24.54696646095  18.7003965 8.565241 25.4825725  19.11908897765 7.691983304899999 25.3029043218  18.578342 8.515957999999999 26.241753  18.99703447765 7.6427003049 26.0620848218  19.4157269553 6.7694426098 25.8824166436  19.24222147765 7.241175804899999 24.7128968218  19.476536 8.2670905 24.5538835  18.9455835 8.1637165 24.1333845  20.130621 7.919657 24.384375  19.77317397765 7.3445498049 25.1333958218  19.5996685 7.816283 23.963876  19.068716 7.712909 23.543377  18.7275248786 4.763794537 24.5002235652  19.0366795 4.2679255 24.17844  18.552105 3.938542 24.063486  18.23814526035 4.4935369335 23.8389547395  15.4534165 5.9973125 20.3924175  17.0835286778 5.4674134837 24.30280818365  17.1748674327 4.958649648750001 23.86712369535  16.9609925121 4.83339547415 24.56392391455  19.5522538786 4.975435537 25.0080570652  19.3086395 4.43535 24.669488  19.648794 4.3176075 25.0623675  19.8614085 4.479566500000001 24.6862735  20.201563 4.361824 25.079153  15.7675252469 8.177860430900001 19.75036512535  15.6804927469 7.700329930900001 19.42248812535  16.52330481655 7.6003779687 19.6690642691  16.3631894938 7.9855578618 18.8173502507  15.331058 8.7427925 21.5696985  15.1876865 8.8170915 22.090559  16.6681384088 8.9315130973 20.3948509849  17.25853308005 8.548102974999999 19.8720879047  17.6843452044 8.77113654865 20.75635949245  17.4687347044 9.18389604865 20.32429949245  16.85643233975 3.9027767589 25.0131729587  17.47033433975 4.0350057589 24.7828119587  17.317611 3.206615 25.147297  16.830331 3.139759 24.787961  16.703709 3.074386 25.377658  16.216429 3.00753 25.018322  16.62157925965 8.90767265655 23.0570599225  16.3828172498 8.3349520935 22.6971122238  16.67131955565 6.84672004355 21.5725339715  16.64971588665 6.34258591725 21.27636079095  16.163100486 6.03451250575 21.75332482775  17.14583437265 6.786315423 22.1473256187  15.19546199655 4.1769490364 23.0270765549  16.9528980671 5.5464396561 24.5139931972  17.02299632915 5.81938041955 25.2797991966  17.0754342328 6.18045766565 24.2528774663  16.47945871675 6.56779655785 24.7857684764  16.106718986 5.65468800575 22.15726532775  15.706384986 6.09512200575 22.20999282775  15.6106005 5.2109585 21.2863005  15.153885 5.2
[...]
<PointData  Vectors="u"> 
<DataArray  type="Float64"  Name="u"  NumberOfComponents="3" format="ascii">0.0000000000000000e+00 0.0000000000000000e+00 0.0000000000000000e+00  0.0000000000000000e+00 0.0000000000000000e+00 0.0000000000000000e+00  0.0000000000000000e+00 0.0000000000000000e+00 0.0000000000000000e+00  0.0000000000000000e+00 0.0000000000000000e+00 0.0000000000000000e+00  0.0000000000000000e+00 0.0000000000000000e+00 0.0000000000000000e+00  0.0000000000000000e+00 0.0000000000000000e+00 0.0000000000000000e+00  0.0000000000000000e+00 0.0000000000000000e+00 0.0000000000000000e+00  0.0000000000000000e+00 0.0000000000000000e+00 0.0000000000000000e+00  0.0000000000000000e+00 0.0000000000000000e+00 0.0000000000000000e+00  0.0000000000000000e+00 0.0000000000000000e+00 0.0000000000000000e+00  0.0000000000000000e+00 0.0000000000000000e+00 0.0000000000000000e+00  0.0000000000000000e+00 0.0000000000000000e+00 0.0000000000000000e+00  0.0000000000000000e+00 0.0000000000000000e+00 0.0000000000000000e+00  0.0000000000000000e+00 0.0000000000000000e+00 0.0000000000000000e+00  0.0000000000000000e+00 0.0000000000000000e+00 0.0000000000000000e+00  0.0000000000000000e+00 0.0000000000000000e+00 0.0000000000000000e+00  0.0000000000000000e+00 0.0000000000000000e+00 0.0000000000000000e+00  0.0000000000000000e+00 0.0000000000000000e+00 0.0000000000000000e+00  0.0000000000000000e+00 0.0000000000000000e+00 0.0000000000000000e+00  0.0000000000000000e+00 0.0000000000000000e+00 0.0000000000000000e+00  0.0000000000000000e+00 0.0000000000000000e+00 0.0000000000000000e+00  0.0000000000000000e+00 0.0000000000000000e+00 0.0000000000000000e+00  0.0000000000000000e+00 0.0000000000000000e+00 0.0000000000000000e+00  0.0000000000000000e+00 0.0000000000000000e+00 0.0000000000000000e+00  0.0000000000000000e+00 0.0000000000000000e+00 0.0000000000000000e+00  0.0000000000000000e+00 0.0000000000000000e+00 0.0000000000000000e+00  0.0000000000000000e+00 0.0000000000000000e+00 0.0000000000000000e+00  0.0000000000000000e+00 0.0000000000000000e+00 0.0000000000000000e+00  0.0000000000000000e+00 0.0000000000000000e+00 0.0000000000000000e+00  0.0000000000000000e+00 0.0000000000000000e+00 0.0000000000000000e+00  0.0000000000000000e+00 0.0000000000000000e+00 0.0000000000000000e+00  0.0000000000000000e+00 0.0000000000000000e+00 0.0000000000000000e+00  0.0000000000000000e+00 0.0000000000000000e+00 0.0000000000000000e+00  0.0000000000000000e+00 0.0000000000000000e+00 0.0000000000000000e+00  0.0000000000000000e+00 0.0000000000000000e+00 0.0000000000000000e+00  0.0000000000000000e+00 0.0000000000000000e+00 0.0000000000000000e+00  0.0000000000000000e+00 0.0000000000000000e+00 0.0000000000000000e+00  0.0000000000000000e+00 0.0000000000000000e+00 0.0000000000000000e+00  0.0000000000000000e+00 0.0000000000000000e+00 0.0000000000000000e+00  0.0000000000000000e+00 0.0000000000000000e+00 0.0000000000000000e+00  0.0000000000000000e+00 0.0000000000000000e+00 0.0000000000000000e+00  0.0000000000000000e+00 0.0000000000000000e+00 0.0000000000000000e+00  0.0000000000000000e+00 0.0000000000000000e+00 0.0000000000000000e+00  0.0000000000000000e+00 0.0000000000000000e+00 0.0000000000000000e+00  0.0000000000000000e+00 0.0000000000000000e+00 0.0000000000000000e+00  0.0000000000000000e+00 0.0000000000000000e+00 0.0000000000000000e+00  0.0000000000000000e+00 0.0000000000000000e+00 0.0000000000000000e+00  0.0000000000000000e+00 0.0000000000000000e+00 0.0000000000000000e+00  0.0000000000000000e+00 0.0000000000000000e+00 0.0000000000000000e+00  0.0000000000000000e+00 0.0000000000000000e+00 0.0000000000000000e+00  0.0000000000000000e+00 0.0000000000000000e+00 0.0000000000000000e+00  0.0000000000000000e+00 0.0000000000000000e+00 0.0000000000000000e+00  0.0000000000000000e+00 0.0000000000000000e+00 0.0000000000000000e+00  0.0000000000000000e+00 0.0000000000000000e+00 0.0000000000000000e+00  0.0000000000000000e+00 0.0000000000000000e+00 0.0000000000000000e+00  0.0000000000000000e+00 0.0000000000000000e+00 0.0000000000000000e+00  0.0000000000000000e+00 0.0000000000000000e+00 0.0000000000000000e+00  0.0000000000000000e+00 0.0000000000000000e+00 0.0000000000000000e+00  0.0000000000000000e+00 0.0000000000000000e+00 0.0000000000000000e+00  0.0000000000000000e+00 0.0000000000000000e+00 0.0000000000000000e+00  0.0000000000000000e+00 0.0000000000000000e+00 0.0000000000000000e+00  0.0000000000000000e+00 0.0000000000000000e+00 0.0000000000000000e+00  0.0000000000000000e+00 0.0000000000000000e+00 0.0000000000000000e+00  0.0000000000000000e+00 0.0000000000000000e+00 0.0000000000000000e+00  0.0000000000000000e+00 0.0000000000000000e+00 0.0000000000000000e+00  0.0000000000000000e+00 0.0000000000000000e+00 0.0000000000000000e+00  0.0000000000000000e+00 0.0000000000000000e+00 0.0000000000000000e+00  0.0000000000000000e+00 0.0000000000000000e+00 0.0000000000000000e+00  0.0000000000000000e+00 0.0000000000000000e+00 0.0000000000000000e+00  0.0000000000000000e+00 0.0000000000000000e+00 0.0000000000000000e+00  0.0000000000000000e+00 0.0000000000000000e+00 0.0000000000000000e+00  0.0000000000000000e+00 0.0000000000000000e+00 0.0000000000000000e+00  0.0000000000000000e+00 0.0000000000000000e+00 0.0000000000000000e+00  0.0000000000000000e+00 0.0000000000000000e+00 0.0000000000000000e+00  0.0000000000000000e+00 0.0000000000000000e+00 0.0000000000000000e+00  0.0000000000000000e+00 0.0000000000000000e+00 0.0000000000000000e+00  0.0000000000000000e+00 0.0000000000000000e+00 0.0000000000000000e+00  0.0000000000000000e+00 0.0000000000000000e+00 0.0000000000000000e+00  0.0000000000000000e+00 0.0000000000000000e+00 0.0000000000000000e+00  0.0000000000000000e+00 0.0000000000000000e+00 0.0000000000000000e+00  0.0000000000000000e+00 0.0000000000000000e+00 0.0000000000000000e+00  0.0000000000000000e+00 0.0000000000000000e+00 0.0000000000000000e+00  0.0000000000000000e+00 0.0000000000000000e+00 0.0000000000000000e+00  0.0000000000000000e+00 0.0000000000000000e+00 0.0000000000000000e+00  0.0000000000000000e+00 0.0000000000000000e+00 0.0000000000000000e+00  0.0000000000000000e+00 0.0000000000000000e+00 0.0000000000000000e+00  0.0000000000000000e+00 0.0000000000000000e+00 0.0000000000000000e+00  0.0000000000000000e+00 0.0000000000000000e+00 0.0000000000000000e+00  0.0000000000000000e+00 0.0000000000000000e+00 0.0000000000000000e+00  0.0000000000000000e+00 0.0000000000000000e+00 0.0000000000000000e+00  0.0000000000000000e+00 0.0000000000000000e+00 0.0000000000000000e+00  0.0000000000000000e+00 0.0000000000000000e+00 0.0000000000000000e+00  0.0000000000000000e+00 0.0000000000000000e+00 0.0000000000000000e+00  0.0000000000000000e+00 0.0000000000000000e+00 0.0000000000000000e+00  0.0000000000000000e+00 0.0000000000000000e+00 0.0000000000000000e+00  0.0000000000000000e+00 0.0000000000000000e+00 0.0000000000000000e+00  0.0000000000000000e+00 0.0000000000000000e+00 0.0000000000000000e+00  0.0000000000000000e+00 0.0000000000000000e+00 0.0000000000000000e+00  0.0000000000000000e+00 0.0000000000000000e+00 0.0000000000000000e+00  0.0000000000000000e+00 0.0000000000000000e+00 0.0000000000000000e+00  0.0000000000000000e+00 0.0000000000000000e+00 0.0000000000000000e+00  0.0000000000000000e+00 0.0000000000000000e+00 0.0000000000000000e+00  0.0000000000000000e+00 0.0000000000000000e+00 0.0000000000000000e+00  0.0000000000000000e+00 0.0000000000000000e+00 0.0000000000000000e+00  0.0000000000000000e+00 0.0000000000000000e+00 0.0000000000000000e+00  0.0000000000000000e+00 0.0000000000000000e+00 0.0000000000000000e+00  0.0000000000000000e+00 0.0000000000000000e+00 0.0000000000000000e+00  0.0000000000000000e+00 0.0000000000000000e+00 0.0000000000000000e+00  0.0000000000000000e+00 0.0000000000000000e+00 0.0000000000000000e+00  0.0000000000000000e+00 0.0000000000000000e+00 0.0000000000000000e+00  0.0000000000000000e+00 0.0000000000000000e+00 0.0000000000000000e+00  0.0000000000000000e+00 0.0000000000000000e+00 0.0000000000000000e+00  0.0000000000000000e+00 0.0000000000000000e+00 0.0000000000000000e+00  0.0000000000000000e+00 0.0000000000000000e+00 0.0000000000000000e+00  0.0000000000000000e+00 0.0000000000000000e+00 0.0000000000000000e+00  0.0000000000000000e+00 0.0000000000000000e+00 0.0000000000000000e+00  0.0000000000000000e+00 0.0000000000000000e+00 0.0000000000000000e+00  0.0000000000000000e+00 0.0000000000000000e+00 0.0000000000000000e+00  0.0000000000000000e+00 0.0000000000000000e+00 0.0000000000000000e+00  0.0000000000000000e+00 0.0000000000000000e+00 0.0000000000000000e+00  0.0000000000000000e+00 0.0000000000000000e+00 0.0000000000000000e+00  0.0000000000000000e+00 0.0000000000000000e+00 0.0000000000000000e+00  0.0000000000000000e+00 0.0000000000000000e+00 0.0000000000000000e+00  0.0000000000000000e+00 0.0000000000000000e+00 0.0000000000000000e+00  0.0000000000000000e+00 0.0000000000000000e+00 0.0000000000000000e+00  0.0000000000000000e+00 0.0000000000000000e+00 0.0000000000000000e+00  0.0000000000000000e+00 0.0000000000000000e+00 0.0000000000000000e+00  0.0000000000000000e+00 0.0000000000000000e+00 0.0000000000000000e+00  0.0000000000000000e+00 0.0000000000000000e+00 0.0000000000000000e+00  0.0000000000000000e+00 0.0000000000000000e+00 0.0000000000000000e+00  0.0000000000000000e+00 0.0000000000000000e+00 0.0000000000000000e+00  0.0000000000000000e+00 0.0000000000000000e+00 0.0000000000000000e+00  0.0000000000000000e+00 0.0000000000000000e+00 0.0000000000000000e+00  0.0000000000000000e+00 0.0000000000000000e+00 0.0000000000000000e+00  0.0000000000000000e+00 0.0000000000000000e+00 0.0000000000000000e+00  0.0000000000000000e+00 0.0000000000000000e+00 0.0000000000000000e+00  0.0000000000000000e+00 0.0000000000000000e+00 0.0000000000000000e+00  0.0000000000000000e+00 0.0000000000000000e+00 0.0000000000000000e+00  0.0000000000000000e+00 0.0000000000000000e+00 0.0000000000000000e+00  0.0000000000000000e+00 0.0000000000000000e+00 0.0000000000000000e+00  0.0000000000000000e+00 0.0000000000000000e+00 0.0000000000000000e+00  0.0000000000000000e+00 0.0000000000000000e+00 0.0000000000000000e+00  0.0000000000000000e+00 0.0000000000000000e+00 0.0000000000000000e+00  0.0000000000000000e+00 0.0000000000000000e+00 0.0000000000000000e+00  0.0000000000000000e+00 0.0000000000000000e+00 0.0000000000000000e+00  0.0000000000000000e+00 0.0000000000000000e+00 0.0000000000000000e+00  0.0000000000000000e+00 0.0000000000000000e+00 0.0000000000000000e+00  0.0000000000000000e+00 0.0000000000000000e+00 0.0000000000000000e+00  0.0000000000000000e+00 0.0000000000000000e+00 0.0000000000000000e+00  0.0000000000000000e+00 0.0000000000000000e+00 0.0000000000000000e+00  0.0000000000000000e+00 0.0000000000000000e+00 0.0000000000000000e+00  0.0000000000000000e+00 0.0000000000000000e+00 0.0000000000000000e+00  0.0000000000000000e+00 0.0000000000000000e+00 0.0000000000000000e+00  0.0000000000000000e+00 0.0000000000000000e+00 0.0000000000000000e+00  0.0000000000000000e+00 0.0000000000000000e+00 0.0000000000000000e+00  0.0000000000000000e+00 0.0000000000000000e+00 0.0000000000000000e+00  0.0000000000000000e+00 0.0000000000000000e+00 0.0000000000000000e+00  0.0000000000000000e+00 0.0000000000000000e+00 0.0000000000000000e+00  0.0000000000000000e+00 0.0000000000000000e+00 0.0000000000000000e+00  0.0000000000000000e+00 0.0000000000000000e+00 0.0000000000000000e+00  0.0000000000000000e+00 0.0000000000000000e+00 0.0000000000000000e+00  0.0000000000000000e+00 0.0000000000000000e+00 0.0000000000000000e+00  0.0000000000000000e+00 0.0000000000000000e+00 0.0000000000000000e+00  0.0000000000000000e+00 0.0000000000000000e+00 0.0000000000000000e+00  0.0000000000000000e+00 0.0000000000000000e+00 0.0000000000000000e+00  0.0000000000000000e+00 0.0000000000000000e+00 0.0000000000000000e+00  0.0000000000000000e+00 0.0000000000000000e+00 0.0000000000000000e+00  0.0000000000000000e+00 0.0000000000000000e+00 0.0000000000000000e+00  0.0000000000000000e+00 0.0000000000000000e+00 0.0000000000000000e+00  0.0000000000000000e+00 0.0000000000000000e+00 0.0000000000000000e+00  0.0000000000000000e+00 0.0000000000000000e+00 0.0000000000000000e+00  0.0000000000000000e+00 0.0000000000000000e+00 0.0000000000000000e+00  0.0000000000000000e+00 0.0000000000000000e+00 0.0000000000000000e+00  0.0000000000000000e+00 0.0000000000000000e+00 0.0000000000000000e+00  0.0000000000000000e+00 0.0000000000000000e+00 0.0000000000000000e+00  0.0000000000000000e+00 0.0000000000000000e+00 0.0000000000000000e+00  0.0000000000000000e+00 0.0000000000000000e+00 0.0000000000000000e+00  0.0000000000000000e+00 0.0000000000000000e+00 0.0000000000000000e+00  0.0000000000000000e+00 0.0000000000000000e+00 0.0000000000000000e+00  0.0000000000000000e+00 0.0000000000000000e+00 0.0000000000000000e+00  0.0000000000000000e+00 0.0000000000000000e+00 0.0000000000000000e+00  0.0000000000000000e+00 0.0000000000000000e+00 0.0000000000000000e+00  0.0000000000000000e+00 0.0000000000000000e+00 0.0000000000000000e+00  0.0000000000000000e+00 0.0000000000000000e+00 0.0000000000000000e+00  0.0000000000000000e+00 0.0000000000000000e+00 0.0000000000000000e+00  0.0000000000000000e+00 0.0000000000000000e+00 0.0000000000000000e+00  0.0000000000000000e+00 0.0000000000000000e+00 0.0000000000000000e+00  0.0000000000000000e+00 0.0000000000000000e+00 0.0000000000000000e+00  0.0000000000000000e+00 0.0000000000000000e+00 0.0000000000000000e+00  0.0000000000000000e+00 0.0000000000000000e+00 0.0000000000000000e+00  0.0000000000000000e+00 0.0000000000000000e+00 0.0000000000000000e+00  0.0000000000000000e+00 0.0000000000000000e+00 0.0000000000000000e+00  0.0000000000000000e+00 0.0000000000000000e+00 0.0000000000000000e+00  0.0000000000000000e+00 0.0000000000000000e+00 0.0000000000000000e+00  0.0000000000000000e+00 0.0000000000000000e+00 0.0000000000000000e+00  0.0000000000000000e+00 0.0000000000000000e+00 0.0000000000000000e+00  0.0000000000000000e+00 0.0000000000000000e+00 0.0000000000000000e+00  0.0000000000000000e+00 0.0000000000000000e+00 0.0000000000000000e+00  0.0000000000000000e+00 0.0000000000000000e+00 0.0000000000000000e+00  0.0000000000000000e+00 0.0000000000000000e+00 0.0000000000000000e+00  0.0000000000000000e+00 0.0000000000000000e+00 0.0000000000000000e+00  0.0000000000000000e+00 0.0000000000000000e+00 0.0000000000000000e+00  0.0000000000000000e+00 0.0000000000000000e+00 0.0000000000000000e+00  0.0000000000000000e+00 0.0000000000000000e+00 0.0000000000000000e+00  0.0000000000000000e+00 0.0000000000000000e+00 0.0000000000000000e+00  0.0000000000000000e+00 0.0000000000000000e+00 0.0000000000000000e+00  0.0000000000000000e+00 0.0000000000000000e+00 0.0000000000000000e+00  0.0000000000000000e+00 0.0000000000000000e+00 0.0000000000000000e+00  0.0000000000000000e+00 0.0000000000000000e+00 0.0000000000000000e+00  0.0000000000000000e+00 0.0000000000000000e+00 0.0000000000000000e+00  0.0000000000000000e+00 0.0000000000000000e+00 0.0000000000000000e+00  0.0000000000000000e+00 0.0000000000000000e+00 0.0000000000000000e+00  0.0000000000000000e+00 0.0000000000000000e+00 0.0000000000000000e+00  0.0000000000000000e+00 0.0000000000000000e+00 0.0000000000000000e+00  0.0000000000000000e+00 0.0000000000000000e+00 0.0000000000000000e+00  0.0000000000000000e+00 0.0000000000000000e+00 0.0000000000000000e+00  0.0000000000000000e+00 0.0000000000000000e+00 0.0000000000000000e+00  0.0000000000000000e+00 0.0000000000000000e+00 0.0000000000000000e+00  0.0000000000000000e+00 0.0000000000000000e+00 0.0000000000000000e+00  0.0000000000000000e+00 0.0000000000000000e+00 0.0000000000000000e+00  0.0000000000000000e+00 0.0000000000000000e+00 0.0000000000000000e+00  0.0000000000000000e+00 0.0000000000000000e+00 0.0000000000000000e+00  0.0000000000000000e+00 0.0000000000000000e+00 0.0000000000000000e+00  0.0000000000000000e+00 0.0000000000000000e+00 0.0000000000000000e+00  0.0000000000000000e+00 0.0000000000000000e+00 0.0000000000000000e+00  0.0000000000000000e+00 0.0000000000000000e+00 0.0000000000000000e+00  0.0000000000000000e+00 0.0000000000000000e+00 0.0000000000000000e+00  0.0000000000000000e+00 0.0000000000000000e+00 0.0000000000000000e+00  0.0000000000000000e+00 0.0000000000000000e+00 0.0000000000000000e+00  0.0000000000000000e+00 0.0000000000000000e+00 0.0000000000000000e+00  0.0000000000000000e+00 0.0000000000000000e+00 0.0000000000000000e+00  0.0000000000000000e+00 0.0000000000000000e+00 0.0000000000000000e+00  0.0000000000000000e+00 0.0000000000000000e+00 0.0000000000000000e+00  0.0000000000000000e+00 0.0000000000000000e+00 0.0000000000000000e+00  0.0000000000000000e+00 0.0000000000000000e+00 0.0000000000000000e+00  0.0000000000000000e+00 0.0000000000000000e+00 0.0000000000000000e+00  0.0000000000000000e+00 0.0000000000000000e+00 0.0000000000000000e+00  0.0000000000000000e+00 0.0000000000000000e+00 0.0000000000000000e+00  0.0000000000000000e+00 0.0000000000000000e+00 0.0000000000000000e+00  0.0000000000000000e+00 0.0000000000000000e+00 0.0000000000000000e+00  0.0000000000000000e+00 0.0000000000000000e+00 0.0000000000000000e+00  0.0000000000000000e+00 0.0000000000000000e+00 0.0000000000000000e+00  0.0000000000000000e+00 0.0000000000000000e+00 0.0000000000000000e+00  0.0000000000000000e+00 0.0000000000000000e+00 0.0000000000000000e+00  0.0000000000000000e+00 0.0000000000000000e+00 0.0000000000000000e+00  0.0000000000000000e+00 0.0000000000000000e+00 0.0000000000000000e+00  0.0000000000000000e+00 0.0000000000000000e+00 0.0000000000000000e+00  0.0000000000000000e+00 0.0000000000000000e+00 0.0000000000000000e+00  0.0000000000000000e+00 0.0000000000000000e+00 0.0000000000000000e+00  0.0000000000000000e+00 0.0000000000000000e+00 0.0000000000000000e+00  0.0000000000000000e+00 0.0000000000000000e+00 0.0000000000000000e+00  0.0000000000000000e+00 0.0000000000000000e+00 0.0000000000000000e+00  0.0000000000000000e+00 0.0000000000000000e+00 0.0000000000000000e+00  0.0000000000000000e+00 0.0000000000000000e+00 0.0000000000000000e+00  0.0000000000000000e+00 0.0000000000000000e+00 0.0000000000000000e+00  0.0000000000000000e+00 0.0000000000000000e+00 0.0000000000000000e+00  0.0000000000000000e+00 0.0000000000000000e+00 0.0000000000000000e+00  0.0000000000000000e+00 0.0000000000000000e+00 0.0000000000000000e+00  0.0000000000000000e+00 0.0000000000000000e+00 0.0000000000000000e+00  0.0000000000000000e+00 0.0000000000000000e+00 0.0000000000000000e+00  0.0000000000000000e+00 0.0000000000000000e+00 0.0000000000000000e+00  0.0000000000000000e+00 0.0000000000000000e+00 0.0000000000000000e+00  0.0000000000000000e+00 0.0000000000000000e+00 0.0000000000000000e+00  0.0000000000000000e+00 0.0000000000000000e+00 0.0000000000000000e+00  0.0000000000000000e+00 0.0000000000000000e+00 0.0000000000000000e+00  0.0000000000000000e+00 0.0000000000000000e+00 0.0000000000000000e+00  0.0000000000000000e+00 0.0000000000000000e+00 0.0000000000000000e+00  0.0000000000000000e+00 0.0000000000000000e+00 0.0000000000000000e+00  0.0000000000000000e+00 0.0000000000000000e+00 0.0000000000000000e+00  0.0000000000000000e+00 0.0000000000000000e+00 0.0000000000000000e+00  0.0000000000000000e+00 0.0000000000000000e+00 0.0000000000000000e+00  0.0000000000000000e+00 0.0000000000000000e+00 0.0000000000000000e+00  0.0000000000000000e+00 0.0000000000000000e+00 0.0000000000000000e+00  0.0000000000000000e+00 0.0000000000000000e+00 0.0000000000000000e+00  0.0000000000000000e+00 0.0000000000000000e+00 0.0000000000000000e+00  0.0000000000000000e+00 0.0000000000000000e+00 0.0000000000000000e+00  0.0000000000000000e+00 0.0000000000000000e+00 0.0000000000000000e+00  0.0000000000000000e+00 0.0000000000000000e+00 0.0000000000000000e+00  0.0000000000000000e+00 0.0000000000000000e+00 0.0000000000000000e+00  0.0000000000000000e+00 0.0000000000000000e+00 0.0000000000000000e+00  0.0000000000000000e+00 0.0000000000000000e+00 0.0000000000000000e+00  0.0000000000000000e+00 0.0000000000000000e+00 0.0000000000000000e+00  0.0000000000000000e+00 0.0000000000000000e+00 0.0000000000000000e+00  0.0000000000000000e+00 0.0000000000000000e+00 0.0000000000000000e+00  0.0000000000000000