<?xml version="1.0"?>
<VTKFile type="UnstructuredGrid"  version="0.1"  >
<UnstructuredGrid>
<Piece  NumberOfPoints="7557" NumberOfCells="38692">
<Points>
<DataArray  type="Float64"  NumberOfComponents="3"  format="ascii">2.5 25 22.5  3.75 26.25 22.5  3.75 25 22.5  3.75 26.25 21.25  5 25 22.5  5 26.25 22.5  5 27.5 22.5  2.5 26.25 22.5  2.5 27.5 22.5  3.75 27.5 22.5  0 25 22.5  1.25 25 23.75  1.25 25 22.5  1.25 23.75 23.75  2.5 25 23.75  2.5 25 25  0 25 23.75  0 23.75 23.75  0 25 25  1.25 25 25  5 25 23.75  5 23.75 23.75  3.75 23.75 23.75  5 25 25  3.75 25 23.75  3.75 25 25  6.25 25 23.75  6.25 23.75 23.75  6.25 25 25  7.5 25 25  2.5 26.25 23.75  1.25 26.25 23.75  2.5 27.5 23.75  2.5 27.5 25  2.5 26.25 25  1.25 26.25 25  0 27.5 22.5  1.25 27.5 23.75  1.25 27.5 22.5  0 26.25 23.75  0 26.25 25  0 27.5 25  1.25 27.5 25  0 26.25 22.5  0 27.5 23.75  3.75 26.25 23.75  5 26.25 23.75  5 27.5 23.75  5 27.5 25  5 26.25 25  3.75 26.25 25  3.75 27.5 23.75  3.75 27.5 25  7.5 27.5 22.5  7.5 27.5 23.75  7.5 26.25 23.75  6.25 26.25 23.75  7.5 27.5 25  7.5 26.25 25  6.25 26.25 25  6.25 27.5 23.75  6.25 27.5 25  8.75 26.25 25  8.75 25 25  8.75 26.25 23.75  10 25 25  10 26.25 25  10 27.5 25  8.75 27.5 25  8.75 27.5 23.75  1.25 28.75 23.75  2.5 28.75 23.75  2.5 28.75 25  2.5 30 25  1.25 28.75 25  0 28.75 23.75  0 28.75 25  0 30 25  1.25 30 25  0 30 22.5  1.25 30 23.75  0 30 23.75  5 30 22.5  5 30 23.75  5 28.75 23.75  3.75 28.75 23.75  5 30 25  5 28.75 25  3.75 28.75 25  3.75 30 23.75  3.75 30 25  7.5 28.75 23.75  6.25 28.75 23.75  7.5 28.75 25  7.5 30 25  6.25 28.75 25  6.25 30 25  6.25 30 23.75  8.75 28.75 23.75  8.75 28.75 25  10 28.75 25  10 30 25  8.75 30 25  11.25 30 25  11.25 28.75 25  11.25 28.75 23.75  12.5 30 25  11.25 30 23.75  17.5 40 22.5  18.75 41.25 22.5  18.75 40 22.5  18.75 41.25 21.25  17.5 41.25 22.5  17.5 42.5 22.5  18.75 42.5 22.5  20 42.5 22.5  18.75 42.5 21.25  5 42.5 22.5  5 43.75 22.5  5 43.75 21.25  3.75 43.75 21.25  5 45 22.5  2.5 42.5 22.5  3.75 43.75 22.5  3.75 42.5 22.5  2.5 43.75 22.5  2.5 45 22.5  3.75 45 22.5  3.75 45 21.25  6.25 43.75 22.5  6.25 42.5 22.5  6.25 43.75 21.25  7.5 42.5 22.5  7.5 43.75 22.5  7.5 45 22.5  6.25 45 22.5  6.25 45 21.25  15 42.5 22.5  15 43.75 22.5  15 43.75 21.25  13.75 43.75 21.25  15 45 22.5  12.5 42.5 22.5  13.75 43.75 22.5  13.75 42.5 22.5  12.5 43.75 22.5  12.5 45 22.5  13.75 45 22.5  17.5 43.75 22.5  17.5 43.75 21.25  16.25 43.75 21.25  17.5 45 22.5  16.25 43.75 22.5  16.25 42.5 22.5  16.25 45 22.5  16.25 45 21.25  18.75 43.75 22.5  18.75 43.75 21.25  18.75 45 22.5  20 45 22.5  18.75 45 21.25  3.75 46.25 22.5  3.75 46.25 21.25  5 46.25 22.5  5 47.5 22.5  2.5 46.25 22.5  2.5 47.5 22.5  3.75 47.5 22.5  7.5 47.5 20  7.5 47.5 21.25  7.5 46.25 21.25  6.25 46.25 21.25  7.5 47.5 22.5  7.5 46.25 22.5  6.25 46.25 22.5  6.25 47.5 21.25  6.25 47.5 22.5  8.75 46.25 22.5  8.75 45 22.5  8.75 46.25 21.25  10 45 22.5  10 46.25 22.5  10 47.5 22.5  8.75 47.5 22.5  8.75 47.5 21.25  15 47.5 20  15 47.5 21.25  15 46.25 21.25  13.75 46.25 21.25  15 47.5 22.5  15 46.25 22.5  13.75 46.25 22.5  13.75 47.5 21.25  12.5 46.25 22.5  12.5 47.5 22.5  13.75 47.5 22.5  17.5 47.5 20  17.5 47.5 21.25  17.5 46.25 21.25  16.25 46.25 21.25  17.5 47.5 22.5  17.5 46.25 22.5  16.25 46.25 22.5  16.25 47.5 21.25  16.25 47.5 20  16.25 47.5 22.5  18.75 46.25 22.5  18.75 46.25 21.25  20 46.25 22.5  20 47.5 22.5  20 47.5 20  20 47.5 21.25  18.75 47.5 21.25  18.75 47.5 22.5  7.5 48.75 21.25  7.5 48.75 20  6.25 48.75 21.25  7.5 50 20  7.5 50 21.25  7.5 50 22.5  7.5 48.75 22.5  6.25 48.75 22.5  6.25 50 21.25  5 48.75 22.5  5 50 22.5  6.25 50 22.5  10 50 22.5  10 50 21.25  10 48.75 21.25  8.75 48.75 21.25  10 48.75 22.5  8.75 48.75 22.5  8.75 50 21.25  8.75 50 22.5  12.5 50 22.5  12.5 50 21.25  12.5 48.75 21.25  11.25 48.75 21.25  12.5 48.75 22.5  11.25 48.75 22.5  11.25 47.5 22.5  11.25 50 21.25  11.25 50 22.5  15 50 22.5  15 50 21.25  15 48.75 21.25  13.75 48.75 21.25  15 48.75 22.5  13.75 48.75 22.5  13.75 50 21.25  13.75 50 22.5  17.5 48.75 21.25  17.5 48.75 20  16.25 48.75 21.25  17.5 50 20  17.5 50 21.25  17.5 50 22.5  17.5 48.75 22.5  16.25 48.75 22.5  16.25 50 21.25  16.25 50 22.5  20 48.75 21.25  20 48.75 20  18.75 48.75 21.25  20 50 20  20 50 21.25  20 50 22.5  20 48.75 22.5  18.75 48.75 22.5  18.75 50 21.25  18.75 50 20  18.75 50 22.5  2.5 32.5 22.5  2.5 32.5 23.75  2.5 31.25 23.75  1.25 31.25 23.75  2.5 32.5 25  2.5 31.25 25  1.25 31.25 25  1.25 32.5 23.75  0 31.25 23.75  0 31.25 25  0 32.5 25  1.25 32.5 25  0 32.5 23.75  5 31.25 23.75  5 31.25 22.5  3.75 31.25 23.75  5 32.5 22.5  5 32.5 23.75  5 32.5 25  5 31.25 25  3.75 31.25 25  3.75 32.5 23.75  3.75 32.5 22.5  3.75 32.5 25  7.5 32.5 22.5  7.5 32.5 23.75  7.5 31.25 23.75  6.25 31.25 23.75  7.5 32.5 25  7.5 31.25 25  6.25 31.25 25  6.25 32.5 23.75  6.25 32.5 25  10 31.25 25  10 31.25 23.75  8.75 31.25 23.75  10 32.5 25  8.75 31.25 25  8.75 32.5 25  8.75 32.5 23.75  11.25 31.25 25  11.25 31.25 23.75  12.5 31.25 25  12.5 32.5 25  11.25 32.5 25  2.5 35 25  2.5 35 23.75  2.5 33.75 23.75  1.25 33.75 23.75  2.5 33.75 25  1.25 33.75 25  1.25 35 23.75  0 33.75 25  0 33.75 23.75  0 35 25  1.25 35 25  0 35 23.75  5 35 25  5 35 23.75  5 33.75 23.75  3.75 33.75 23.75  5 33.75 25  3.75 33.75 25  3.75 35 23.75  3.75 35 25  7.5 35 22.5  7.5 35 23.75  7.5 33.75 23.75  6.25 33.75 23.75  7.5 35 25  7.5 33.75 25  6.25 33.75 25  6.25 35 23.75  6.25 35 25  8.75 33.75 23.75  8.75 33.75 25  10 33.75 25  10 35 25  8.75 35 25  8.75 35 23.75  2.5 36.25 25  2.5 36.25 23.75  1.25 36.25 23.75  2.5 37.5 25  1.25 36.25 25  0 36.25 25  0 36.25 23.75  0 37.5 25  1.25 37.5 25  1.25 37.5 23.75  0 37.5 23.75  5 37.5 22.5  5 37.5 23.75  5 36.25 23.75  3.75 36.25 23.75  5 37.5 25  5 36.25 25  3.75 36.25 25  3.75 37.5 23.75  3.75 37.5 25  7.5 36.25 23.75  6.25 36.25 23.75  7.5 36.25 25  7.5 37.5 25  6.25 36.25 25  6.25 37.5 25  6.25 37.5 23.75  8.75 36.25 23.75  8.75 36.25 25  10 36.25 25  10 37.5 25  8.75 37.5 25  17.5 35 25  18.75 36.25 25  18.75 35 25  18.75 36.25 23.75  20 35 25  17.5 36.25 25  17.5 37.5 25  18.75 37.5 25  20 37.5 25  18.75 37.5 23.75  2.5 40 25  2.5 40 23.75  2.5 38.75 23.75  1.25 38.75 23.75  2.5 38.75 25  1.25 38.75 25  1.25 40 23.75  0 38.75 25  0 38.75 23.75  0 40 25  1.25 40 25  0 40 22.5  0 40 23.75  5 38.75 23.75  5 38.75 22.5  3.75 38.75 23.75  5 40 22.5  5 40 23.75  5 40 25  5 38.75 25  3.75 38.75 25  3.75 40 23.75  3.75 40 25  6.25 38.75 23.75  6.25 38.75 25  7.5 38.75 25  7.5 40 25  6.25 40 25  6.25 40 23.75  12.5 37.5 25  13.75 38.75 25  13.75 37.5 25  13.75 38.75 23.75  15 37.5 25  15 38.75 25  15 40 25  12.5 38.75 25  12.5 40 25  13.75 40 25  13.75 40 23.75  17.5 40 23.75  17.5 38.75 23.75  16.25 38.75 23.75  17.5 40 25  17.5 38.75 25  16.25 38.75 25  16.25 37.5 25  16.25 40 23.75  16.25 40 25  18.75 38.75 25  18.75 38.75 23.75  20 38.75 25  20 40 25  18.75 40 23.75  18.75 40 25  2.5 42.5 23.75  2.5 41.25 23.75  1.25 41.25 23.75  2.5 42.5 25  2.5 41.25 25  1.25 41.25 25  1.25 42.5 23.75  0 41.25 23.75  0 41.25 25  0 42.5 25  1.25 42.5 25  5 42.5 23.75  5 41.25 23.75  3.75 41.25 23.75  5 42.5 25  5 41.25 25  3.75 41.25 25  3.75 42.5 23.75  3.75 42.5 25  7.5 42.5 23.75  7.5 41.25 23.75  6.25 41.25 23.75  7.5 42.5 25  7.5 41.25 25  6.25 41.25 25  6.25 42.5 23.75  6.25 42.5 25  10 40 25  10 41.25 25  10 41.25 23.75  8.75 41.25 23.75  10 42.5 25  8.75 41.25 25  8.75 40 25  8.75 42.5 25  8.75 42.5 23.75  12.5 42.5 23.75  12.5 41.25 23.75  11.25 41.25 23.75  12.5 42.5 25  12.5 41.25 25  11.25 41.25 25  11.25 40 25  11.25 42.5 23.75  11.25 42.5 25  15 42.5 23.75  15 41.25 23.75  13.75 41.25 23.75  15 42.5 25  15 41.25 25  13.75 41.25 25  13.75 42.5 23.75  13.75 42.5 25  17.5 41.25 23.75  16.25 41.25 23.75  17.5 42.5 23.75  17.5 42.5 25  17.5 41.25 25  16.25 41.25 25  16.25 42.5 23.75  16.25 42.5 25  18.75 41.25 23.75  18.75 41.25 25  20 41.25 25  20 42.5 25  18.75 42.5 23.75  20 42.5 23.75  18.75 42.5 25  2.5 43.75 23.75  1.25 43.75 23.75  2.5 45 23.75  2.5 45 25  2.5 43.75 25  1.25 43.75 25  0 45 22.5  1.25 45 23.75  1.25 45 22.5  0 43.75 25  0 43.75 23.75  0 45 25  1.25 45 25  0 45 23.75  3.75 43.75 23.75  5 43.75 23.75  5 45 23.75  5 45 25  5 43.75 25  3.75 43.75 25  3.75 45 23.75  3.75 45 25  6.25 43.75 23.75  7.5 43.75 23.75  7.5 45 23.75  7.5 45 25  7.5 43.75 25  6.25 43.75 25  6.25 45 23.75  6.25 45 25  10 45 23.75  10 43.75 23.75  8.75 43.75 23.75  10 45 25  10 43.75 25  8.75 43.75 25  8.75 45 23.75  8.75 45 25  12.5 43.75 23.75  11.25 43.75 23.75  12.5 45 23.75  12.5 45 25  12.5 43.75 25  11.25 43.75 25  11.25 45 23.75  11.25 45 22.5  11.25 45 25  13.75 43.75 23.75  15 43.75 23.75  15 45 23.75  15 45 25  15 43.75 25  13.75 43.75 25  13.75 45 23.75  13.75 45 25  16.25 43.75 23.75  17.5 43.75 23.75  17.5 45 23.75  17.5 45 25  17.5 43.75 25  16.25 43.75 25  16.25 45 23.75  16.25 45 25  18.75 43.75 23.75  18.75 43.75 25  20 43.75 25  20 45 25  18.75 45 23.75  20 45 23.75  18.75 45 25  2.5 46.25 23.75  1.25 46.25 23.75  2.5 47.5 23.75  2.5 47.5 25  2.5 46.25 25  1.25 46.25 25  0 47.5 22.5  1.25 47.5 23.75  1.25 47.5 22.5  0 46.25 23.75  0 46.25 25  0 47.5 25  1.25 47.5 25  0 46.25 22.5  0 47.5 23.75  3.75 46.25 23.75  5 46.25 23.75  5 47.5 23.75  5 47.5 25  5 46.25 25  3.75 46.25 25  3.75 47.5 23.75  3.75 47.5 25  6.25 46.25 23.75  7.5 46.25 23.75  7.5 47.5 23.75  7.5 47.5 25  7.5 46.25 25  6.25 46.25 25  6.25 47.5 23.75  6.25 47.5 25  8.75 46.25 23.75  10 46.25 23.75  10 47.5 23.75  10 47.5 25  10 46.25 25  8.75 46.25 25  8.75 47.5 23.75  8.75 47.5 25  12.5 46.25 23.75  11.25 46.25 23.75  12.5 47.5 23.75  12.5 47.5 25  12.5 46.25 25  11.25 46.25 25  11.25 47.5 23.75  11.25 47.5 25  13.75 46.25 23.75  15 46.25 23.75  15 47.5 23.75  15 47.5 25  15 46.25 25  13.75 46.25 25  13.75 47.5 23.75  13.75 47.5 25  16.25 46.25 23.75  17.5 46.25 23.75  17.5 47.5 23.75  17.5 47.5 25  17.5 46.25 25  16.25 46.25 25  16.25 47.5 23.75  16.25 47.5 25  18.75 46.25 23.75  20 46.25 23.75  20 47.5 23.75  20 47.5 25  20 46.25 25  18.75 46.25 25  18.75 47.5 23.75  18.75 47.5 25  21.
[...]
<PointData  Scalars="c_HbCO2"> 
<DataArray  type="Float64"  Name="c_HbCO2"  format="ascii">8.4663871748395472e-23  -1.6345200387590376e-23  -3.2853193717024570e-25  -2.9935646621296937e-23  9.3034765945435138e-24  5.6903091794424991e-24  9.3034765941340759e-24  5.7719264980527474e-23  8.4663871748222851e-23  -3.2853193745756651e-25  6.3999999999999997e-22  -1.1825888548904766e-22  3.7447279917542079e-23  -3.1892146464743882e-22  5.7719264980702270e-23  8.4663871748569257e-23  6.3999999999999997e-22  6.3999999999999997e-22  6.3999999999999997e-22  3.7447279917623077e-23  5.6903091798556560e-24  7.7343833362899173e-25  -2.9935646620707685e-23  9.3034765949557788e-24  -1.6345200387301211e-23  -3.2853193688101500e-25  -1.7753890897142776e-24  -3.0543118321089646e-24  -1.3609046942266706e-25  9.9170731871020360e-25  1.6045446859680615e-23  -3.1892146464743882e-22  5.7719264980527509e-23  8.4663871748395508e-23  5.7719264980702247e-23  -1.1825888548904768e-22  6.3999999999999997e-22  -1.1825888548912700e-22  3.7447279917461646e-23  6.3999999999999997e-22  6.3999999999999997e-22  6.3999999999999997e-22  3.7447279917542138e-23  6.3999999999999997e-22  6.3999999999999997e-22  -2.9935646620707679e-23  7.7343833362901716e-25  5.6903091794425307e-24  9.3034765945435770e-24  5.6903091798556494e-24  -1.6345200387301193e-23  -1.6345200387590370e-23  -3.2853193717022316e-25  9.9170731732892151e-25  5.9470016173301534e-25  7.0717341472540405e-26  -3.0543118321089738e-24  9.9170731801714131e-25  5.9470016242653718e-25  -1.7753890897142434e-24  -1.7753890902676111e-24  -1.3609046997449216e-25  -1.7910671042029612e-25  -8.5847678291833377e-27  -3.0996842163659653e-25  1.1219068188696748e-25  7.0218012865252381e-26  1.1219068090048373e-25  -8.5847686714378497e-27  -1.7910671126527544e-25  -3.1892146464759850e-22  1.6045446859316706e-23  5.7719264980338866e-23  8.4663871747830342e-23  -1.1825888548921063e-22  6.3999999999999997e-22  6.3999999999999997e-22  6.3999999999999997e-22  3.7447279917277281e-23  6.3999999999999997e-22  -1.1825888548938658e-22  6.3999999999999997e-22  9.3034765928094289e-24  5.6903091781054735e-24  7.7343833277595054e-25  -2.9935646621296890e-23  9.3034765932100418e-24  5.6903091789986920e-24  -1.6345200387894368e-23  -1.6345200388530972e-23  -3.2853193811026259e-25  7.0717340047758417e-26  -3.0543118332366663e-24  5.9470016099288544e-25  9.9170731579310049e-25  -1.7753890908470505e-24  -1.3609047175524699e-25  -1.7753890920542600e-24  -3.0996842335575329e-25  -1.7910671214560155e-25  7.0218010834880074e-26  1.1219067776425668e-25  -8.5847713646273105e-27  7.2295678816048052e-27  -1.0592188516688720e-26  -2.4223736320286409e-26  1.9930383990467946e-26  -1.0592190932885652e-26  9.2588594660478407e-27  9.1172500101433384e-27  9.1373456518908089e-27  9.1023027264953249e-27  9.2072898631261575e-27  9.2586002161935714e-27  9.1213703272351022e-27  9.1495133270643940e-27  9.1006460654885290e-27  9.3034769266761277e-24  5.6903055078265032e-24  7.7343347038359780e-25  -2.9935646101886855e-23  9.3034829144001903e-24  8.4663872147329608e-23  -1.6345202163169694e-23  -3.2853266041031305e-25  5.7719265344172023e-23  8.4663869094488295e-23  -3.2856132503712975e-25  -1.6345222024944444e-23  -1.7753915490728463e-24  -1.3609166507040878e-25  -3.0543117587717573e-24  9.9170729299447866e-25  5.9469105330727391e-25  9.9172385527087115e-25  -1.3613187312556435e-25  -1.7754239545876160e-24  1.0270567062666853e-26  9.7725831234829297e-27  9.1717602382333694e-27  5.6525807219686185e-27  1.0205090084125474e-26  1.9930630680312928e-26  7.0761682746773943e-27  8.9312755831707587e-27  1.5504902896909189e-26  1.9919036926976674e-26  8.8448573407703967e-27  9.1534910381191190e-27  9.0976107673994440e-27  8.7697156989042666e-27  9.1126741004265662e-27  8.9163781960680388e-27  9.1077112615150990e-27  8.9693892571950375e-27  8.7394850121090962e-27  9.0894650841935658e-27  9.0779189539161583e-27  8.9074029320529796e-27  8.9017879402435618e-27  8.8423131502216894e-27  -1.6345147656679118e-23  -2.9935590974485715e-23  5.6902158861963694e-24  9.3033777775355896e-24  5.7719184500183365e-23  8.4663980182268488e-23  -3.2864454570386702e-25  9.9120497451563366e-25  5.9415709368999617e-25  7.0626316956539775e-26  -3.0542633649768852e-24  9.9120497497119429e-25  5.9457425545538411e-25  -1.7753397261801585e-24  -1.7757826265522332e-24  -1.3636832230967307e-25  -1.7914612994507126e-25  -8.6337463059484927e-27  -3.1000036159164842e-25  1.1220487085386735e-25  6.9995011020342771e-26  1.1123275957948008e-25  -9.2471002676916071e-27  -1.7990630942689503e-25  8.5130866899496408e-27  8.0080257738379401e-27  8.7053691609462398e-27  5.2622610993892952e-27  8.5130874523674449e-27  9.2220621333509747e-27  6.6565010636882221e-27  5.4519965354735004e-27  1.5144884517476108e-26  1.8543863377482335e-26  7.4189543388180714e-27  7.1937967764376002e-27  7.1154484016502298e-27  8.4228068321475000e-27  8.1569185668923223e-27  7.1937975744145820e-27  8.3997192068065234e-27  8.2691150946087760e-27  6.9741899340440997e-27  7.2441301030373176e-27  7.2441309314277777e-27  8.2226670678000161e-27  8.2449442579492127e-27  8.1108036313228982e-27  6.8346071645695753e-27  6.8346063504595147e-27  6.8108591934767629e-27  6.8982727502034335e-27  6.9703506197403818e-27  6.8452202248447967e-26  5.9229692442753845e-25  -3.0563470897591018e-24  9.8707521324589674e-25  5.9013006741053038e-25  9.8707521325024772e-25  5.9229692462716237e-25  -1.7775301482924702e-24  -1.7800151583370091e-24  5.6887433941434491e-24  9.2990120410742711e-24  -1.4078152248088657e-25  1.0751014097949379e-25  6.5586025937953864e-26  1.2355286466622873e-26  -3.1264066373083188e-25  6.7312633163185127e-26  -1.8184084400915343e-25  -1.8377237247474074e-25  -1.3327436759742242e-26  1.5218195393258850e-26  1.0848580400735992e-26  6.5668880623319433e-27  -2.7302021728647142e-26  1.2307849164313935e-26  -1.3692295434114679e-26  6.1239480308156054e-27  -1.5287893885700177e-26  2.4775093691816976e-27  5.5307073704336326e-27  5.0925961374563178e-27  5.7718746324600369e-27  2.3044188603203062e-27  6.3741491942419644e-27  3.7284292596011640e-27  2.3518066341465329e-27  4.1754931291269731e-27  5.5482155584187601e-27  5.6188529801788610e-27  5.2436550168696193e-27  4.4962476855320258e-27  4.4654801127426871e-27  4.4962476854204471e-27  5.6188533290268763e-27  5.3996963944187363e-27  4.1775812204584550e-27  4.3411062227252747e-27  5.4180689312757302e-27  5.4352104838691358e-27  5.4321570455731747e-27  4.3707010407506002e-27  4.3799908938850715e-27  4.3707010192302108e-27  5.4352108450083308e-27  5.4571275703967174e-27  4.3508274386726003e-27  4.3454339127680110e-27  4.3454339755861507e-27  8.4663871746568437e-23  5.7719264978848421e-23  1.6045446858494421e-23  -3.1892146464796257e-22  8.4663871746731031e-23  5.7719264979518512e-23  -1.1825888548958335e-22  -1.1825888548990821e-22  6.3999999999999997e-22  6.3999999999999997e-22  6.3999999999999997e-22  3.7447279916743895e-23  6.3999999999999997e-22  7.7343833086525555e-25  5.6903091766853220e-24  -2.9935646622625151e-23  9.3034765902555176e-24  5.6903091755196989e-24  9.3034765906406756e-24  5.6903091770805820e-24  -1.6345200389232468e-23  -1.6345200390377805e-23  -3.2853194022366566e-25  -3.2853193995323345e-25  9.9170731092761660e-25  5.9470015526538546e-25  7.0717336895068666e-26  -3.0543118357500033e-24  9.9170731157383856e-25  5.9470015782290429e-25  -1.7753890933728987e-24  -1.7753890955022340e-24  -1.3609047518724797e-25  7.0218006406429105e-26  1.5195564178762957e-26  -3.0996842713650643e-25  1.1219067192767431e-25  -1.7910671594204981e-25  -8.5847764662761838e-27  -1.7910671909216108e-25  -1.0592193523215945e-26  -2.4223741307519250e-26  1.5528356056463229e-26  1.9930376738726943e-26  7.2295612217797697e-27  8.4663871744760409e-23  5.7719264976782478e-23  1.6045446857003377e-23  -3.1892146464862282e-22  5.7719264978036872e-23  -1.1825888549028214e-22  -1.1825888549086927e-22  6.3999999999999997e-22  6.3999999999999997e-22  6.3999999999999997e-22  3.7447279915701396e-23  6.3999999999999997e-22  9.3034765862149732e-24  5.6903091709326246e-24  7.7343832741675957e-25  -2.9935646625042585e-23  5.6903091736362711e-24  -1.6345200391700043e-23  -1.6345200393806155e-23  -3.2853194344006143e-25  9.9170730402774779e-25  5.9470014808729845e-25  7.0717331275703903e-26  -3.0543118402494937e-24  9.9170730463381303e-25  5.9470015221000941e-25  -1.7753890979413488e-24  -1.7753891017127604e-24  -1.3609048145367085e-25  -3.0996843373307101e-25  -1.7910672262892454e-25  7.0217998726984904e-26  1.1219066268723495e-25  -8.5847854121889106e-27  -1.7910672798440035e-25  5.7719264975237173e-23  1.6045446854031936e-23  -3.1892146464962524e-22  8.4663871742711898e-23  -1.1825888549180113e-22  6.3999999999999997e-22  6.3999999999999997e-22  6.3999999999999997e-22  3.7447279911118931e-23  -1.1825888549401132e-22  6.3999999999999997e-22  9.3034765801361819e-24  5.6903091631395562e-24  7.7343832110060609e-25  -2.9935646628719067e-23  9.3034765804653923e-24  5.6903091675515840e-24  -1.6345200395964339e-23  -1.6345200401017393e-23  -3.2853195168330515e-25  7.0717321448345548e-26  -3.0543118470151514e-24  5.9470014268053936e-25  9.9170729461179395e-25  -1.7753891055150761e-24  -1.3609049477643431e-25  -1.7753891138898695e-24  -3.0996844370135388e-25  -1.7910673385573490e-25  7.0217985620690312e-26  1.1219065001557457e-25  -8.5848066278318088e-27  9.2588843845036421e-27  9.1180434028763524e-27  9.1384706477146732e-27  9.1024460748222263e-27  9.1530476995784781e-27  9.2106295514610128e-27  9.2588751566201865e-27  9.1383957231219773e-27  9.1530376741764047e-27  9.1179844103800526e-27  8.4663871724710637e-23  5.7719264936845939e-23  1.6045446852705658e-23  -3.1892146464212116e-22  5.7719264974278946e-23  -1.1825888549074643e-22  -1.1825888550203160e-22  6.3999999999999997e-22  6.3999999999999997e-22  6.3999999999999997e-22  3.7447279881055681e-23  6.3999999999999997e-22  6.3999999999999997e-22  7.7343830447239196e-25  5.6903091533383468e-24  -2.9935646629137660e-23  9.3034765757396582e-24  5.6903091285271721e-24  9.3034765760255590e-24  5.6903091536483018e-24  -1.6345200407135703e-23  -1.6345200459313314e-23  -3.2853203806597849e-25  -3.0543118547322762e-24  -1.7753891282607556e-24  5.9470010947707097e-25  9.9170732565695369e-25  -1.3609062648439168e-25  -1.7753892120117221e-24  1.9930353022799509e-26  7.0748039277219691e-27  8.9394117689451721e-27  5.6496072044528633e-27  1.0270008382092613e-26  9.8089961437503816e-27  1.0270026855105514e-26  1.5528255584181973e-26  1.9930399453120319e-26  8.9390354212646761e-27  7.0744721053250842e-27  9.2103985076237891e-27  9.1473080096689954e-27  8.7753473981905324e-27  9.2588605739931275e-27  9.2104507591541437e-27  8.9244159547430651e-27  9.1195475531616364e-27  8.9238509306412546e-27  9.1189054481880114e-27  9.1179598707363544e-27  9.1024338589726823e-27  9.1476870542622545e-27  9.1529785788013631e-27  9.1170314068178121e-27  9.1373468005853436e-27  5.7719265241415844e-23  1.6045446667355366e-23  -3.1892146457173134e-22  8.4663872147427656e-23  5.7719264818840847e-23  -1.1825888554436908e-22  -1.1825888622654388e-22  6.3999999999999997e-22  6.3999999999999997e-22  6.3999999999999997e-22  3.7447278893740919e-23  5.6903090784645045e-24  7.7343806240814003e-25  -2.9935646456111833e-23  9.3034769269073210e-24  5.6903089404948709e-24  -1.6345200358927222e-23  -1.6345200917057517e-23  -3.2853266024721137e-25  5.9469935044404626e-25  7.0716968930787553e-26  -3.0543116170286053e-24  9.9170729337940383e-25  5.9469982180079923e-25  -1.7753890531281194e-24  -1.7753900188933613e-24  -1.3609166476200562e-25  1.1219070363624316e-25  7.0217377177085968e-26  1.5194861471825233e-26  -3.0996826588793624e-25  1.1219057189398734e-25  -1.7910682741477577e-25  -8.5849711206066580e-27  -8.5876117406659436e-27  -1.7910899451690010e-25  1.5527517442213096e-26  9.7646756785742792e-27  -2.4223693309815166e-26  1.9930631363272204e-26  1.5527156702298624e-26  -1.0592535482975859e-26  7.2292901975690818e-27  -1.0596522499134028e-26  7.2243090128926239e-27  9.8085551330136602e-27  9.2036273730938597e-27  5.6496022115524629e-27  1.0270567861656471e-26  9.8070568981262645e-27  7.0743413997401361e-27  7.0677415658440899e-27  8.9312763283684071e-27  9.1438129707699115e-27  8.7753255981088125e-27  9.2091277764909574e-27  9.2586010999788440e-27  9.2072908635102316e-27  8.9238700518248117e-27  8.9133055644002589e-27  9.1077121073430693e-27  9.1023048285978790e-27  9.1172510510068863e-27  9.1427264528368682e-27  9.1495142640261082e-27  9.1006479202437899e-27  9.1429009528859604e-27  9.1213712421127328e-27  1.6045446981336952e-23  -3.1892146249195570e-22  5.7719259676928195e-23  8.4663869094558354e-23  5.7719265344257353e-23  -1.1825888472783421e-22  6.3999999999999997e-22  -1.1825889223378816e-22  3.7447267330489218e-23  6.3999999999999997e-22  6.3999999999999997e-22  6.3999999999999997e-22  3.7447267330522796e-23  6.3999999999999997e-22  -2.9935646101596026e-23  7.7343347080074952e-25  5.6903136454525726e-24  9.3034829145654413e-24  5.6903055080267619e-24  -1.6345202163027921e-23  -1.6345222024701208e-23  -3.2856132492009611e-25  -3.0543117582217416e-24  7.0705835018769749e-26  5.9471646353686084e-25  9.9172385554586355e-25  5.9469105363971730e-25  -1.7753915488045633e-24  -1.7754239541306375e-24  -1.3613187290532299e-25  7.0231618075685011e-26  1.5177750802808208e-26  -3.0996637283621808e-25  1.1220487123939370e-25  7.0202822540963812e-26  -1.7910677552021595e-25  -1.7915541121213822e-25  -8.6337459748408889e-27  9.7414937359650380e-27  -2.4219483796832207e-26  1.5513446803559842e-26  1.9919037410783009e-26  1.5504903483796580e-26  -1.0589563584851501e-26  -1.0665458904103065e-26  7.1665474209343623e-27  7.1665478574237044e-27  5.6525820329057386e-27  9.1717616383059260e-27  9.7358245264934201e-27  1.0205090644801677e-26  9.7725838082720296e-27  7.0761689202466676e-27  6.9575163505500269e-27  8.8448578662098986e-27  8.7697171771230075e-27  9.0976123087738875e-27  9.0507045152157538e-27  9.1126747126312146e-27  9.1534917934275901e-27  8.9163789266435061e-27  8.7394862166932789e-27  8.9693898489419199e-27  9.0779205402851865e-27  9.0894658712390197e-27  9.0606564438539167e-27  8.9017885790089929e-27  8.8423144354138202e-27  8.8781817707557268e-27  8.9074035657928768e-27  1.6045365790724164e-23  -3.1892143760440116e-22  5.7719411511153587e-23  8.4663980182307455e-23  5.7719184500237873e-23  -1.1825887617454557e-22  6.3999999999999997e-22  -1.1825919477576598e-22  3.7446965461987763e-23  6.3999999999999997e-22  6.3999999999999997e-22  6.3999999999999997e-22  3.7446965462005936e-23  6.3999999999999997e-22  6.3999999999999997e-22  -2.9935590974293651e-23  7.7335602090230763e-25  5.6902110014205469e-24  9.3033777776245818e-24  5.6902158863241897e-24  -1.6345147656586065e-23  -1.6345368343356389e-23  -3.2864454564009778e-25  -3.0542633646157637e-24  7.0626317397775045e-26  5.9415709398351343e-25  9.9120497511136134e-25  5.9457425566665828e-25  -1.7753397260048857e-24  -1.7757826263099874e-24  -1.3636832219255439e-25  -3.1000036105600434e-25  1.5032523294480312e-26  6.9200542926973332e-26  1.1123275976443456e-25  6.9995011312984477e-26  -1.7914612968440614e-25  -1.7990630908154942e-25  -9.2471000999409108e-27  9.4605913780375701e-27  -2.4407721083967956e-26  1.4084894319000694e-26  1.8543863597019311e-26  1.5144884878716482e-26  -1.0796379674596582e-26  -1.1825406198959142e-26  6.1239482398663537e-27  5.2622619093906630e-27  8.7053700129567235e-27  8.0080262782436881e-27  8.5130876954005073e-27  9.2220625444627081e-27  6.6565014599986292e-27  5.4519970258167272e-27  7.4189545777822101e-27  8.1569194552064108e-27  8.4228077466984172e-27  7.1154489362794745e-27  7.1937978307810980e-27  8.3997196479701330e-27  8.2691155306767122e-27  6.9741904627372901e-27  7.2441311894425414e-27  8.2449451865237014e-27  8.1841111404768034e-27  6.8108597460373774e-27  6.8346074259943775e-27  8.1108040847676844e-27  8.2226675254662161e-27  6.8982732980781318e-27  6.9703508879962842e-27  8.0457159000577604e-27  -3.1892131190213363e-22  -1.1825862862858298e-22  1.6045234581022721e-23  5.7718890801157346e-23  8.4660295892583612e-23  5.7715287645857593e-23  8.4660295892583952e-23  5.7718890801178294e-23  -1.1825862862857172e-22  6.3999999999999997e-22  6.3999999999999997e-22  -1.1826146508699828e-22  3.7445575833431354e-23  6.3999999999999997e-22  6.3999999999999997e-22  6.3999999999999997e-22  3.7445575833433211e-23  6.3999999999999997e-22  7.7207349150450251e-25  -2.9936724203494327e-23  5.6858363537734743e-24  9.2990120410752115e-24  5.6887433941854715e-24  -1.6346341156019471e-23  -1.6349642877438671e-23  -3.3277907519315870e-25  -3.0563470896516275e-24  6.8452202377509946e-26  5.9013006742338827e-25  9.8707521325356519e-25  5.9229692468887316e-25  -1.7775301482409542e-24  -1.7800151583211983e-24  -1.4078152247687591e-25  -3.1264066358483732e-25  1.2355286631225522e-26  6.5586025957369793e-26  1.0751014098565775e-25  6.7312633242917704e-26  -1.8184084393851322e-25  -1.8377237245100783e-25  -1.3327436752621622e-26  -2.7302021548066472e-26  6.5668882574283303e-27  1.0848580425891848e-26  1.5218195401783374e-26  1.2307849259233974e-26  -1.3692295346132055e-26  -1.5287893854020702e-26  2.4775093795025441e-27  2.3044190699481571e-27  5.7718748518933240e-27  5.0925961670809802e-27  5.5307073803043492e-27  6.3741493005765563e-27  3.7284293619479588e-27  2.3518066735054358e-27  4.1754931422438061e-27  5.2436552491248865e-27  5.5482157962691365e-27  4.4654801456463129e-27  4.4962476954600930e-27  5.6188534426434197e-27  5.3996965076312559e-27  4.1775812674750930e-27  4.3411062380103352e-27  5.4321572949054390e-27  5.4180691839879310e-27  4.3799909293279775e-27  4.3707010279395642e-27  5.4352109622194532e-27  5.4571276914528966e-27  4.3508274943886591e-27  4.3454339927655193e-27  5.3581750399027732e-27  -3.1892146464759845e-22  -1.1825888548938658e-22  5.7719264979958758e-23  8.4663871747661306e-23  6.3999999999999997e-22  6.3999999999999997e-22  6.3999999999999997e-22  3.7447279917198570e-23  -3.1892146464796257e-22  1.6045446858494380e-23  5.7719264978848386e-23  8.4663871746568413e-23  5.7719264979351192e-23  -1.1825888548965941e-22  -1.1825888548990821e-22  6.3999999999999997e-22  6.3999999999999997e-22  6.3999999999999997e-22  3.7447279916668111e-23  6.3999999999999997e-22  -2.9935646622625181e-23  7.7343833086528475e-25  5.6903091755196761e-24  9.3034765902554999e-24  -1.6345200388530992e-23  5.6903091781054323e-24  9.3034765928093819e-24  5.6903091766853933e-24  -1.6345200389509336e-23  -3.2853193839153102e-25  -1.6345200390377750e-23  -3.2853194022366616e-25  -3.0543118357500084e-24  7.0717336895138874e-26  5.9470015526538013e-25  9.9170731092761054e-25  -1.7753890920542776e-24  5.9470015950640579e-25  9.9170731512014834e-25  5.9470015716035867e-25  -1.7753890939021199e-24  -1.3609047229138393e-25  -1.7753890955021925e-24  -1.3609047570240341e-25  -3.0996842713653747e-25  1.5195564178795682e-26  7.0218002877493632e-26  1.1219067101045092e-25  -1.7910671396857970e-25  7.0218008741976862e-26  1.1219067680766470e-25  7.0218005465971039e-26  -1.7910671674882611e-25  -8.5847721819040527e-27  -1.7910671909215607e-25  -8.5847772504737229e-27  -2.4223741307504993e-26  9.7660466918853744e-27  1.5528351682954453e-26  1.9930375568109479e-26  -1.0592197613755869e-26  -1.0592194602968291e-26  7.2295601729461749e-27  1.0270030219537068e-26  9.8091346268023009e-27  9.2060018407397915e-27  5.6496278454776850e-27  7.0748579329021762e-27  8.9394652706235637e-27  9.2588976621783294e-27  9.2106612018262068e-27  9.1475471676811135e-27  8.7753737113327802e-27  9.2588961113619112e-27  8.9244920186834640e-27  9.1196161110530908e-27  9.1530611872976808e-27  9.1480143562302652e-27  9.1414163259781031e-27  9.1024730141470345e-27  9.1530595237034607e-27  9.1180702007250345e-27  9.1384882588037531e-27  9.1384866448537431e-27  9.1383161611233482e-27  9.136690749939585