<?xml version="1.0"?>
<VTKFile type="UnstructuredGrid"  version="0.1"  >
<UnstructuredGrid>
<Piece  NumberOfPoints="3819" NumberOfCells="18971">
<Points>
<DataArray  type="Float64"  NumberOfComponents="3"  format="ascii">25 27.5 32.5  25 28.75 33.75  25 28.75 32.5  23.75 28.75 33.75  25 30 32.5  25 30 33.75  25 30 35  25 27.5 33.75  25 27.5 35  25 28.75 35  26.25 28.75 33.75  26.25 30 33.75  26.25 30 35  27.5 30 35  26.25 31.25 33.75  26.25 31.25 35  27.5 31.25 35  27.5 32.5 35  25 31.25 35  25 32.5 35  26.25 32.5 35  26.25 32.5 33.75  26.25 33.75 35  26.25 33.75 33.75  27.5 33.75 35  27.5 35 35  26.25 35 35  26.25 35 33.75  27.5 36.25 35  26.25 36.25 35  26.25 36.25 33.75  27.5 37.5 35  26.25 31.25 36.25  27.5 31.25 36.25  27.5 32.5 36.25  27.5 32.5 37.5  26.25 32.5 36.25  26.25 33.75 36.25  27.5 33.75 36.25  27.5 35 36.25  27.5 35 37.5  27.5 33.75 37.5  26.25 33.75 37.5  26.25 35 36.25  27.5 36.25 36.25  26.25 36.25 36.25  27.5 37.5 36.25  27.5 37.5 37.5  27.5 36.25 37.5  27.5 33.75 38.75  26.25 33.75 38.75  27.5 35 38.75  27.5 35 40  26.25 35 38.75  27.5 36.25 38.75  26.25 36.25 38.75  32.5 25 25  32.5 25 26.25  32.5 23.75 26.25  31.25 23.75 26.25  32.5 25 27.5  32.5 23.75 27.5  31.25 23.75 27.5  30 25 25  31.25 25 26.25  31.25 25 25  30 25 27.5  31.25 25 27.5  30 25 26.25  35 22.5 27.5  35 23.75 27.5  33.75 23.75 27.5  33.75 23.75 26.25  35 25 27.5  33.75 25 27.5  33.75 25 26.25  27.5 25 25  27.5 26.25 26.25  27.5 26.25 25  26.25 26.25 26.25  26.25 26.25 25  27.5 27.5 25  27.5 27.5 26.25  27.5 27.5 27.5  27.5 25 26.25  27.5 25 27.5  27.5 26.25 27.5  25 25 27.5  26.25 26.25 27.5  26.25 25 27.5  25 27.5 27.5  26.25 27.5 27.5  28.75 26.25 26.25  28.75 26.25 25  28.75 25 25  30 26.25 26.25  30 26.25 25  30 27.5 25  30 27.5 26.25  30 27.5 27.5  28.75 25 26.25  30 26.25 27.5  28.75 26.25 27.5  28.75 25 27.5  28.75 27.5 26.25  28.75 27.5 25  28.75 27.5 27.5  31.25 26.25 26.25  32.5 26.25 26.25  32.5 26.25 27.5  32.5 27.5 27.5  31.25 26.25 27.5  31.25 27.5 27.5  31.25 27.5 26.25  33.75 26.25 26.25  33.75 25 25  35 25 25  35 26.25 26.25  35 25 26.25  35 26.25 27.5  35 27.5 27.5  33.75 26.25 27.5  33.75 27.5 27.5  36.25 26.25 26.25  36.25 25 26.25  36.25 25 25  37.5 25 25  37.5 26.25 26.25  37.5 25 26.25  37.5 25 27.5  37.5 26.25 27.5  37.5 27.5 27.5  36.25 26.25 27.5  36.25 25 27.5  36.25 27.5 27.5  38.75 26.25 26.25  38.75 25 26.25  38.75 25 25  40 25 25  40 26.25 26.25  40 25 26.25  40 25 27.5  40 26.25 27.5  40 27.5 27.5  38.75 26.25 27.5  38.75 25 27.5  38.75 27.5 27.5  41.25 26.25 26.25  41.25 25 26.25  41.25 25 25  42.5 25 25  42.5 26.25 26.25  42.5 25 26.25  42.5 25 27.5  42.5 26.25 27.5  42.5 27.5 27.5  41.25 26.25 27.5  41.25 25 27.5  41.25 27.5 27.5  43.75 26.25 26.25  43.75 26.25 27.5  43.75 27.5 27.5  45 27.5 27.5  28.75 28.75 26.25  30 28.75 26.25  30 28.75 27.5  30 30 27.5  28.75 28.75 27.5  27.5 28.75 26.25  27.5 28.75 27.5  27.5 30 27.5  28.75 30 27.5  31.25 28.75 26.25  31.25 28.75 27.5  32.5 28.75 27.5  32.5 30 27.5  31.25 30 27.5  27.5 25 28.75  27.5 23.75 28.75  26.25 23.75 28.75  27.5 25 30  26.25 25 28.75  25 25 30  26.25 25 30  26.25 23.75 30  30 25 28.75  30 23.75 28.75  28.75 23.75 28.75  30 25 30  30 23.75 30  28.75 23.75 30  28.75 25 28.75  28.75 25 30  32.5 25 28.75  32.5 23.75 28.75  31.25 23.75 28.75  32.5 25 30  32.5 22.5 30  32.5 23.75 30  31.25 23.75 30  31.25 25 28.75  31.25 25 30  35 23.75 28.75  33.75 23.75 28.75  35 25 28.75  35 25 30  35 22.5 28.75  35 22.5 30  35 23.75 30  33.75 23.75 30  33.75 22.5 30  33.75 25 28.75  33.75 25 30  36.25 23.75 28.75  36.25 23.75 27.5  36.25 22.5 27.5  37.5 22.5 27.5  37.5 23.75 28.75  37.5 23.75 27.5  37.5 25 28.75  37.5 25 30  36.25 22.5 28.75  37.5 22.5 28.75  37.5 22.5 30  37.5 23.75 30  36.25 23.75 30  36.25 22.5 30  36.25 25 28.75  36.25 25 30  38.75 23.75 28.75  38.75 22.5 28.75  38.75 23.75 30  38.75 22.5 30  40 22.5 30  40 23.75 30  40 25 30  38.75 23.75 27.5  38.75 25 28.75  40 25 28.75  38.75 25 30  26.25 26.25 28.75  27.5 26.25 28.75  27.5 27.5 28.75  27.5 27.5 30  27.5 26.25 30  26.25 26.25 30  26.25 27.5 28.75  25 27.5 30  26.25 27.5 30  28.75 26.25 28.75  30 26.25 28.75  30 27.5 28.75  30 27.5 30  30 26.25 30  28.75 26.25 30  28.75 27.5 28.75  28.75 27.5 30  31.25 26.25 28.75  32.5 26.25 28.75  32.5 27.5 28.75  32.5 27.5 30  32.5 26.25 30  31.25 26.25 30  31.25 27.5 28.75  31.25 27.5 30  33.75 26.25 28.75  35 26.25 28.75  35 27.5 28.75  35 27.5 30  35 26.25 30  33.75 26.25 30  33.75 27.5 28.75  33.75 27.5 30  36.25 26.25 28.75  37.5 26.25 28.75  37.5 27.5 28.75  37.5 27.5 30  37.5 26.25 30  36.25 26.25 30  36.25 27.5 28.75  36.25 27.5 30  38.75 26.25 28.75  40 26.25 28.75  40 27.5 28.75  40 27.5 30  40 26.25 30  38.75 26.25 30  38.75 27.5 28.75  38.75 27.5 30  41.25 26.25 28.75  42.5 26.25 28.75  42.5 27.5 28.75  42.5 27.5 30  41.25 25 28.75  42.5 25 28.75  42.5 25 30  42.5 26.25 30  41.25 26.25 30  41.25 25 30  41.25 27.5 28.75  41.25 27.5 30  43.75 26.25 28.75  43.75 25 28.75  43.75 26.25 30  43.75 25 30  45 25 30  45 26.25 30  45 27.5 30  43.75 27.5 28.75  45 27.5 28.75  43.75 27.5 30  26.25 28.75 28.75  26.25 28.75 27.5  27.5 28.75 28.75  27.5 30 28.75  27.5 30 30  27.5 28.75 30  26.25 28.75 30  25 30 30  26.25 30 30  28.75 28.75 28.75  30 28.75 28.75  30 30 28.75  30 30 30  30 28.75 30  28.75 28.75 30  28.75 30 28.75  28.75 30 30  31.25 28.75 28.75  32.5 28.75 28.75  32.5 30 28.75  32.5 30 30  32.5 28.75 30  31.25 28.75 30  31.25 30 28.75  31.25 30 30  33.75 28.75 28.75  33.75 28.75 27.5  35 28.75 28.75  35 28.75 27.5  35 30 27.5  35 30 28.75  35 30 30  35 28.75 30  33.75 28.75 30  33.75 30 28.75  33.75 30 27.5  33.75 30 30  36.25 28.75 28.75  36.25 28.75 27.5  37.5 28.75 28.75  37.5 28.75 27.5  37.5 30 27.5  37.5 30 28.75  37.5 30 30  37.5 28.75 30  36.25 28.75 30  36.25 30 28.75  36.25 30 27.5  36.25 30 30  38.75 28.75 28.75  38.75 28.75 27.5  40 28.75 28.75  40 28.75 27.5  40 30 27.5  40 30 28.75  40 30 30  40 28.75 30  38.75 28.75 30  38.75 30 28.75  38.75 30 27.5  38.75 30 30  41.25 28.75 28.75  41.25 28.75 27.5  42.5 28.75 28.75  42.5 28.75 27.5  42.5 30 27.5  42.5 30 28.75  42.5 30 30  42.5 28.75 30  41.25 28.75 30  41.25 30 28.75  41.25 30 27.5  41.25 30 30  43.75 28.75 28.75  43.75 28.75 27.5  45 28.75 28.75  45 28.75 27.5  45 30 27.5  45 30 28.75  45 30 30  45 28.75 30  43.75 28.75 30  43.75 30 28.75  43.75 30 27.5  43.75 30 30  46.25 28.75 28.75  46.25 27.5 28.75  46.25 27.5 27.5  47.5 27.5 27.5  47.5 28.75 28.75  47.5 27.5 28.75  47.5 27.5 30  47.5 28.75 30  47.5 30 30  46.25 28.75 30  46.25 27.5 30  46.25 30 30  46.25 30 28.75  48.75 28.75 28.75  48.75 27.5 28.75  48.75 27.5 27.5  50 27.5 27.5  50 28.75 28.75  50 27.5 28.75  50 27.5 30  50 28.75 30  50 30 30  48.75 28.75 30  48.75 27.5 30  48.75 30 30  28.75 31.25 28.75  30 31.25 28.75  30 31.25 30  30 32.5 30  28.75 31.25 30  27.5 31.25 28.75  27.5 31.25 30  27.5 32.5 30  28.75 32.5 30  31.25 31.25 28.75  31.25 31.25 27.5  32.5 31.25 28.75  32.5 31.25 27.5  32.5 32.5 27.5  32.5 32.5 28.75  32.5 32.5 30  32.5 31.25 30  31.25 31.25 30  31.25 32.5 30  33.75 31.25 28.75  33.75 31.25 27.5  35 31.25 28.75  35 31.25 27.5  35 32.5 27.5  35 32.5 28.75  35 32.5 30  35 31.25 30  33.75 31.25 30  33.75 32.5 28.75  33.75 32.5 27.5  33.75 32.5 30  36.25 31.25 28.75  36.25 31.25 27.5  37.5 31.25 28.75  37.5 31.25 27.5  37.5 32.5 27.5  37.5 32.5 28.75  37.5 32.5 30  37.5 31.25 30  36.25 31.25 30  36.25 32.5 28.75  36.25 32.5 27.5  36.25 32.5 30  38.75 31.25 28.75  40 31.25 28.75  40 31.25 30  40 32.5 30  38.75 31.25 30  38.75 32.5 30  38.75 32.5 28.75  41.25 31.25 28.75  42.5 31.25 28.75  42.5 31.25 30  42.5 32.5 30  41.25 31.25 30  41.25 32.5 30  43.75 31.25 28.75  45 31.25 28.75  45 31.25 30  45 32.5 30  43.75 31.25 30  43.75 32.5 30  46.25 31.25 28.75  46.25 31.25 30  47.5 31.25 30  47.5 32.5 30  46.25 32.5 30  33.75 33.75 28.75  35 33.75 28.75  35 33.75 30  35 35 30  33.75 33.75 30  36.25 33.75 28.75  37.5 33.75 28.75  37.5 33.75 30  37.5 35 30  36.25 33.75 30  36.25 35 30  38.75 33.75 28.75  38.75 33.75 30  40 33.75 30  40 35 30  38.75 35 30  27.5 25 31.25  27.5 23.75 31.25  26.25 23.75 31.25  27.5 25 32.5  26.25 25 31.25  30 25 31.25  30 23.75 31.25  28.75 23.75 31.25  30 25 32.5  28.75 25 31.25  28.75 25 32.5  32.5 23.75 31.25  31.25 23.75 31.25  32.5 25 31.25  32.5 25 32.5  32.5 22.5 31.25  32.5 22.5 32.5  32.5 23.75 32.5  31.25 25 31.25  31.25 25 32.5  33.75 23.75 31.25  35 23.75 31.25  35 25 31.25  35 25 32.5  33.75 25 31.25  33.75 25 32.5  36.25 23.75 31.25  37.5 23.75 31.25  37.5 25 31.25  37.5 25 32.5  36.25 25 31.25  36.25 25 32.5  38.75 23.75 31.25  40 23.75 31.25  40 25 31.25  40 25 32.5  38.75 25 31.25  38.75 25 32.5  41.25 23.75 31.25  41.25 23.75 30  41.25 25 31.25  42.5 25 31.25  42.5 25 32.5  41.25 25 32.5  26.25 26.25 31.25  27.5 26.25 31.25  27.5 27.5 31.25  27.5 27.5 32.5  27.5 26.25 32.5  26.25 26.25 32.5  26.25 27.5 31.25  26.25 27.5 32.5  28.75 26.25 31.25  30 26.25 31.25  30 27.5 31.25  30 27.5 32.5  30 26.25 32.5  28.75 26.25 32.5  28.75 27.5 31.25  28.75 27.5 32.5  31.25 26.25 31.25  32.5 26.25 31.25  32.5 27.5 31.25  32.5 27.5 32.5  32.5 26.25 32.5  31.25 26.25 32.5  31.25 27.5 31.25  31.25 27.5 32.5  33.75 26.25 31.25  35 26.25 31.25  35 27.5 31.25  35 27.5 32.5  35 26.25 32.5  33.75 26.25 32.5  33.75 27.5 31.25  33.75 27.5 32.5  36.25 26.25 31.25  37.5 26.25 31.25  37.5 27.5 31.25  37.5 27.5 32.5  37.5 26.25 32.5  36.25 26.25 32.5  36.25 27.5 31.25  36.25 27.5 32.5  38.75 26.25 31.25  40 26.25 31.25  40 27.5 31.25  40 27.5 32.5  40 26.25 32.5  38.75 26.25 32.5  38.75 27.5 31.25  38.75 27.5 32.5  41.25 26.25 31.25  42.5 26.25 31.25  42.5 27.5 31.25  42.5 27.5 32.5  42.5 26.25 32.5  41.25 26.25 32.5  41.25 27.5 31.25  41.25 27.5 32.5  43.75 26.25 31.25  45 26.25 31.25  45 27.5 31.25  45 27.5 32.5  43.75 25 31.25  45 25 31.25  45 25 32.5  45 26.25 32.5  43.75 26.25 32.5  43.75 25 32.5  43.75 27.5 31.25  43.75 27.5 32.5  46.25 26.25 31.25  46.25 25 31.25  46.25 26.25 32.5  46.25 25 32.5  47.5 25 32.5  47.5 26.25 32.5  47.5 27.5 32.5  46.25 27.5 32.
[...]
<PointData  Scalars="c_HbCO2"> 
<DataArray  type="Float64"  Name="c_HbCO2"  format="ascii">1.0106299968622332e-36  3.9064518322596988e-38  1.0175477167880486e-36  5.5615570792757756e-37  4.1862126754283987e-37  7.2556400602453586e-37  2.3148559506315348e-36  1.3511126929374779e-37  -1.9256089199585642e-36  -4.0774574661010297e-37  -4.2482690391996511e-37  -2.1745377674631823e-37  -2.7462826945298061e-37  -3.4457415468183569e-38  1.2523773164373605e-38  -1.3571615640346560e-37  -1.3057593794437315e-37  -3.4343875413061347e-37  -6.9313527852666710e-37  1.1389921214698073e-36  -5.7112748945227523e-37  -1.0166844378532213e-36  2.0104612646388180e-37  -4.5919260820430645e-37  4.2875604871067813e-37  3.5178180155848856e-37  1.2031306019443458e-36  1.7989967234592932e-37  3.6528270463972697e-37  2.2040884788374433e-36  -1.0251417727776272e-36  -2.2385238385205967e-36  -5.1420736584047018e-37  -4.2516100419372511e-38  -9.7123411021349045e-38  -8.0127040194867739e-37  2.0281712433877283e-37  -1.3249307392921076e-37  4.5545703438523543e-37  1.3312007751471959e-37  7.7397283330719335e-37  7.5710321155535578e-37  1.1562790528330270e-37  -1.9293827812580113e-36  4.8791097643718938e-37  -6.3350971956471631e-37  -6.5624061464308393e-37  -1.1738138844111030e-38  1.8066312327068702e-37  7.1498169127594323e-37  -9.6636176491789482e-37  2.3954615227911200e-37  -6.2564795853981686e-38  -4.7897723296338139e-36  -1.4678796438428246e-36  -1.9219668543177477e-37  3.1932150711117044e-38  -6.3549803730485676e-38  8.2839300525138445e-38  1.5539672362583788e-37  -2.6313371786034880e-38  -1.8660816362901563e-38  7.4539926986886784e-38  -1.2484923676350178e-38  -1.5526400495353246e-37  -1.4451084547243148e-37  -2.6520817500213833e-38  -7.9778410225541279e-39  -9.7203797780008914e-38  3.5981421771164552e-38  3.3261431844604635e-38  4.9808314835953534e-38  -3.1681969357430868e-38  1.3618603643684569e-38  -8.8859926066241052e-38  -1.3858656494706150e-38  6.0118202598915541e-37  -7.6941202012781125e-37  -1.3264988194378580e-36  7.3405501979874879e-37  1.3706100916138301e-36  -1.1852298523820842e-37  6.7007898190759135e-37  -1.7352520372506047e-37  4.0804679667086977e-37  -1.0714306740923803e-36  6.0969857238024343e-38  1.5201772083717646e-36  5.3552358580584832e-37  1.1593424833037598e-36  -1.1245096927459844e-36  2.8768852609217275e-37  1.2419091336126297e-38  4.9555334425165418e-37  4.2878859298383216e-37  -2.4258323921876292e-37  -2.1586134400130619e-37  -6.2287951160242774e-38  -3.2473246287612452e-37  -1.1014575779208692e-38  1.5780762357243220e-37  -1.1452925559680352e-37  -1.2830134999690495e-37  2.1188897673249222e-39  2.0427833304606740e-37  4.0647841958816281e-38  3.9208972442421497e-38  7.8669509556840981e-38  7.6282258239568036e-38  9.5233975756107272e-39  -9.5409040796731111e-39  6.6989826716150156e-38  1.6776680206540755e-37  -2.1829944410784599e-38  -2.5585597652755993e-38  8.7035221133276901e-38  -8.2127581221166857e-39  1.5028783555066889e-38  2.5009804336383612e-38  5.5884195597893876e-39  2.6433375438795873e-38  -4.5909538341063744e-38  -4.2413845231559130e-39  -4.1488576350043684e-39  2.2335291238153891e-38  1.0027826708096847e-38  -1.8293020661364080e-39  1.9467192340223169e-41  5.8459580872414113e-40  -7.2914945902735496e-39  -1.4910760684000437e-38  -1.1125384668967421e-38  -2.7494772777695616e-39  2.7892864811176703e-39  -2.3202549683373200e-39  1.5792714259151694e-39  1.3728459567266617e-39  -3.1080872991928935e-39  7.4780466911494667e-40  -1.5861543931375664e-39  -6.3463163293970111e-40  1.7799805914210462e-39  1.1173186344959312e-38  6.1515796139867655e-39  2.6218647486561250e-38  7.1215789488436802e-39  8.3951790576536830e-39  -4.9540427351300954e-39  -4.1356174569773625e-39  -2.6667613246901891e-40  6.4558142827586939e-40  -5.5814275860120670e-40  3.8037546511197889e-40  -1.2627383623674385e-40  -3.2179464084187619e-39  -1.1709387690146636e-39  -9.3185355900040308e-39  -2.9268784811926288e-39  -2.5373962157869741e-39  1.1913329336380428e-39  3.7300034304071440e-39  1.6802857176320352e-39  2.7328942761170726e-40  9.1748494029481540e-38  1.4005692851189236e-37  1.3460975336101671e-38  4.3138619583440885e-38  -1.8826967436849317e-38  -1.9079926818390185e-37  7.5395710900636144e-37  7.3962181521835327e-38  -3.1002590411307003e-37  5.8485610404769064e-38  -6.8078999557079173e-38  -3.7865246037874403e-38  9.6946760876843961e-39  1.0550661015200557e-37  -1.6597132120333866e-38  2.6838761293315585e-37  3.6507426607385065e-37  1.5861285714121017e-37  1.0945215247529455e-36  2.2230310486317190e-36  -3.2519225467076925e-38  -3.9795899779457525e-37  -1.3275446978927003e-37  -3.7799347134791182e-37  4.7690457066624361e-38  1.9512690854910728e-37  -4.3616963274455320e-38  1.1037249721182156e-36  -3.5689354073964265e-37  3.2680931532536160e-37  -7.1209382752389565e-38  8.4845826690429817e-38  7.5221929385730191e-38  1.1496738731902003e-38  -1.7801651893348025e-38  5.3450797482332524e-38  -8.9752923738368903e-38  6.1924148240945934e-38  -4.9447404188327457e-38  3.7858167533859427e-38  -6.0300350026835215e-38  -1.7422100625491019e-38  9.0885069623576243e-39  -2.9912646477655866e-38  -1.1188797227566711e-39  5.0173526465889984e-39  1.4286744956281743e-40  -2.2238798377938982e-37  -2.6706798418897502e-38  5.5190285491444243e-38  -1.5947706465377823e-38  2.3747764647394664e-38  8.6631966206571231e-38  -4.0684389608865772e-39  -1.6000098217223171e-38  -4.0187042970153210e-39  -2.4735491259527955e-38  -5.2629332057391624e-39  2.1282484234913184e-38  1.9361306616591072e-38  6.3337602911518134e-39  -1.2097067149762044e-38  8.0532514434853059e-39  1.0173831399832846e-37  -2.4576923859887861e-38  -2.5045930704625006e-38  -4.7059373250155862e-39  -2.0980818571676449e-39  -1.9203197171115461e-39  -1.1203831015592884e-38  -1.0278467750716878e-38  -3.4662957628971189e-39  -1.9430271558151298e-39  -6.9983370091699581e-39  7.4665143283624646e-39  8.1800201869839058e-39  3.9034466504189207e-39  -5.6404146369721802e-37  4.1698143566342406e-37  -5.8822159962969221e-37  3.2070863622979026e-37  -3.4485465717616365e-37  3.1363793153560495e-37  5.7137827628205555e-38  -1.3667447814314507e-37  4.2889480334305355e-37  -4.6654730269731336e-38  -2.9790969037681154e-38  1.4169749644008400e-37  -1.4709944545246626e-37  1.3502950891148074e-38  -3.4389410487962610e-37  1.6087387482787317e-37  7.7031587115433416e-38  3.0279925075404037e-39  -2.8055635593660151e-38  1.6197199888665506e-38  1.4053042079318881e-38  2.0410104019400006e-38  -2.3689463156924976e-38  1.1699203398256523e-37  -8.5616516987043893e-38  -9.5967747050584380e-39  -1.1315001926056508e-38  1.6215935660404220e-38  -6.4794047269354713e-39  -1.2463000811072339e-38  7.0364131839778907e-38  -1.2707622279855906e-38  2.4557520603815805e-38  -2.7483619532938715e-38  -1.2579166594478830e-38  -1.9857664201467302e-38  6.6685191302341993e-39  -3.8261757216242444e-39  -3.2584609653292792e-38  -2.2450589840182849e-39  3.9329222068447171e-39  8.4553092155481209e-39  1.1769134750498511e-38  1.0183574534173779e-38  1.0923916225061611e-39  5.2580429224326938e-39  1.3485226231190922e-38  5.9112610436814498e-39  6.2116819676288161e-40  -3.1608502213525072e-39  -3.7491981065563872e-39  -2.5226172594369331e-39  -1.0861982138534973e-39  -1.8650673049936625e-39  -2.1125985515612867e-39  -8.2073829114494396e-40  -3.0294646009483547e-39  -4.0592873557837384e-39  -1.0174623037046424e-39  4.0573917101839598e-40  1.2111150503221458e-39  7.2497362194875934e-40  1.1146216274274743e-39  4.6240321893261633e-40  4.9644734579140057e-40  2.8782751320929174e-40  9.1148483895136927e-40  3.6487512380749980e-40  2.1944603076284658e-41  9.3662636197613741e-40  -1.1944682769183361e-39  4.3874375588051174e-37  -5.7067304253286579e-37  1.5857033367281953e-37  -2.5219376644115528e-37  4.7686857986373681e-37  5.0408541206069850e-37  5.7706931441354834e-37  1.0366399442082879e-36  -4.8323795330286579e-37  8.3629107563484657e-38  -1.7225262115518858e-37  -2.0673035594956942e-38  -1.6863735174580474e-37  -1.9923956397943545e-37  8.9506350783055089e-38  -1.5464917914511571e-37  -3.6197633265717954e-37  -5.7340921084197849e-38  -3.9001151142696677e-38  -1.1735545081996144e-37  -3.8762313302051310e-38  7.3084308856473967e-38  -5.6045338472618802e-38  -1.5900853070261103e-37  -2.6477322932531166e-38  3.8827126690599047e-38  5.2891248472211637e-39  5.7358473547786049e-38  9.2016140439607357e-38  1.8126041977118298e-38  5.4524481514029961e-38  2.9041905807791468e-39  1.2923989176459075e-38  -2.0710075951857430e-39  3.7525193139445050e-38  -1.3248176077898385e-38  5.0504084714672083e-38  -6.9800641737998430e-39  -9.6845719142159873e-39  -2.9602825082895724e-38  -5.0031077949923038e-38  -7.5892118328647156e-39  -8.8426774609660163e-39  8.3816559991739640e-39  2.8295658227432597e-39  1.5806289396871175e-38  6.5325719421481610e-39  9.7667242377633936e-39  -2.4406360475992378e-38  -3.1438726613505529e-39  9.8278253600700858e-40  7.5728096155539523e-39  1.4974466743522845e-38  3.9394607131862667e-39  9.6185120982703500e-41  8.4792786679491378e-40  5.7052123752613875e-40  -1.5191350416917008e-38  -1.8963171164030575e-38  -1.2958399254970714e-38  8.9368851933623093e-39  2.6086650795032477e-39  1.0968418205526247e-39  -1.1632192443075687e-39  -4.0347643899291677e-39  -1.7995640681162922e-39  -2.1284879344417166e-39  -8.8431673798532212e-40  6.2296500646724218e-40  8.9453481334036970e-39  1.0009753980456435e-38  5.8433178044683166e-39  4.4375451392135458e-39  -6.3876153162853137e-40  -4.6253056632561933e-40  9.5072713237548653e-40  1.1202643447644757e-39  7.3120502897776661e-40  1.7030596294394228e-39  5.2749372005552138e-40  3.7950551597764807e-40  -3.0898835758612650e-39  -3.8303396673535465e-39  -1.8468906710961269e-39  -3.3225767671367245e-39  6.6226441409361966e-41  1.0554760233739301e-41  -2.1957029918054930e-40  -5.0888698720707092e-41  -2.5826749161099018e-40  -3.0847806278563768e-40  -1.3529259445989599e-40  -3.9528574653213687e-40  -2.5076250997186897e-40  4.6081033216411993e-40  1.6737376556669174e-40  9.0190887162459566e-40  1.5807178728127241e-39  9.7978307563089919e-42  -1.8212223244453654e-41  3.5863464951080002e-41  1.1439076295595336e-41  1.0359058974467405e-40  6.9875020686087006e-41  1.2336889262679217e-41  6.7899154589605142e-41  1.5403083150579255e-41  -1.2682882677278641e-40  -5.1770507990291847e-41  -2.7021512721071678e-40  2.0043095528955475e-37  -6.4185690831133134e-38  2.2675547667989899e-37  -2.1661189868148404e-39  -2.2354953652248284e-37  -4.4847924880759962e-37  -7.7808435336745313e-38  -4.4258570082427018e-37  -5.4738029809614673e-37  -7.4380730211526589e-38  -6.2705318808605840e-40  -1.2129575944091243e-37  7.7480047972230357e-38  4.9453326104566331e-38  1.0167993597523182e-37  -2.2980617432788937e-38  -2.0953152432039396e-37  1.6893735842794441e-38  9.1416664688428288e-38  4.2159865263754179e-38  4.4700469849733201e-38  -4.6650203240868904e-38  -2.6483226200633310e-38  -3.9951105115849088e-38  -8.9980676955303018e-38  -3.2711319599120222e-38  5.9490906123298775e-38  1.9206968227538597e-37  1.0758790238990524e-37  1.1928274625637789e-37  1.2405194806906329e-37  -8.3719119497825375e-39  -3.4435817543132654e-39  3.1515921948980071e-38  5.2716492584262997e-39  -1.9583483327340336e-39  1.4941508554257591e-38  5.8927896716581851e-39  -2.9323917274560631e-39  -7.4177783728632421e-38  -3.0883728772462862e-38  -4.2266850207500238e-38  -7.4102212994993580e-38  -7.9441654865064075e-39  -1.8581909819100670e-38  -4.9605721398374131e-39  -1.3765546520603673e-39  4.6846511621565174e-39  1.0067164046611773e-39  -1.7017081194452295e-38  3.4289574828430071e-39  8.9292171135317581e-40  4.0107470902873884e-40  -4.8683580178848020e-40  5.5690025309989038e-39  5.5341899691091855e-39  -1.3339502090003788e-39  4.6089309329477114e-40  1.9956028689427383e-40  4.9890019270868148e-40  -4.4907735071697548e-39  -3.2798892498035110e-39  3.3749081763661060e-40  1.4282957216590791e-39  -3.3998057208365117e-40  -2.7202992030347272e-40  1.4028750316118019e-39  7.2143719380682620e-39  -4.1480403481368083e-38  -2.4276465138966159e-38  -2.7954344234414425e-38  5.5547756239506117e-38  2.6295547987487067e-38  4.7855234487113262e-38  2.9497099522563924e-38  6.6515478985443225e-39  2.9882710075880602e-39  -1.6521897919755220e-38  -1.1780238299009660e-38  -1.7401935467538411e-38  -1.5866007603390390e-38  -3.5624462253509968e-40  2.5353034114068740e-39  -1.0128134318328368e-36  6.2055714831887323e-37  -1.5388305114319990e-36  1.0225585038228996e-37  6.5486656177485200e-37  -5.6498016597047666e-38  -5.7535636214783297e-37  4.2302269284035655e-37  5.0729032605039810e-37  2.2969872712110089e-37  7.6017554053356304e-37  -4.2278886606360206e-38  2.8769260520206826e-37  -3.3147369119931026e-38  1.0371356673618773e-37  -2.4740961911898751e-37  -1.0892179503359073e-37  -2.5154516210178893e-38  -2.8102668456714835e-37  -3.3213616216814061e-37  -3.0101396903011912e-38  1.1564168673963331e-38  1.7155355158548542e-38  -1.4891883572118036e-39  7.6768418641019331e-38  3.4408457402776569e-38  -1.9214945770821055e-38  -1.4298901073601843e-38  -5.4102384084868363e-40  -1.0210339515360825e-39  -2.0249994331532373e-38  -3.3056899645262544e-38  1.6660974770033144e-38  -2.2381730720756531e-38  -4.0254957569275572e-40  2.5806786976815900e-39  5.1873962795991252e-39  1.1653498982185156e-38  -1.1915092722114505e-39  -3.1204655554496933e-39  -4.1213017548719814e-39  -1.4924268349555867e-39  -2.7549092437499433e-40  4.6573286155923717e-39  -9.6875786373140540e-37  -1.3129564438123894e-37  -4.1209197719986604e-38  -6.0716605505596734e-38  -1.3388745915559677e-37  -1.1597213508754590e-36  1.1055264604080298e-36  -2.9445054436910348e-37  8.8279761059620798e-38  -1.6218589526991433e-37  -6.2261650110385539e-38  1.8720316736764056e-38  2.0978686842730690e-37  -1.2199895190585322e-37  -9.3027117703140867e-38  -1.9221048032751118e-37  2.7163371365862754e-38  1.1273670813421219e-37  1.2492385543827795e-37  3.9894161707479612e-40  4.7873960040354722e-38  1.7638242541916795e-37  1.1127850701481247e-38  -4.7873052415451316e-38  3.0570213674268265e-38  -1.4296962827663485e-38  -5.0233277709390713e-38  -1.1333150525567545e-38  -4.5174744060575944e-38  -4.1833379380035927e-38  -9.7851877500859709e-39  -1.1559793897282000e-37  -8.2065754720106146e-39  -1.1107780193412332e-38  7.7129055879742469e-39  -7.7405425765772427e-40  6.9317551792931929e-39  -4.1757128862880395e-39  9.4314349620490429e-39  3.1482292372730237e-38  3.2560778666759699e-39  3.7743626112490014e-39  -1.0707448534655885e-39  -8.9102424042536710e-40  8.6720446804587491e-40  5.8433331067394910e-39  -1.0102366577689212e-39  -2.3493495236191927e-39  -6.7905340414643685e-40  -1.7857526047303562e-39  -4.8814961012119736e-40  -7.6700665030569843e-40  -1.4691070666878873e-39  6.9126127865102959e-40  9.6421975637776414e-40  1.5652222357728447e-39  4.4810997940659361e-41  3.5639099338532162e-40  3.6772276189245922e-40  6.9840863857367743e-40  4.8553551431909874e-40  5.6886953016581950e-40  1.3258981310451276e-40  3.3773565703625275e-40  -3.3686860152199210e-40  1.1032855492970249e-39  -1.0254587213499634e-39  -6.0888081161345444e-40  -2.6164329911647943e-41  -2.1687845856572901e-41  3.2924991858134684e-40  1.3072243209933485e-40  5.6459566217097947e-41  -1.4058942319769208e-40  -9.4550834736302959e-41  4.1144535977179968e-40  2.2578273470965089e-40  7.6012842624089186e-37  4.3710208852141952e-37  1.0376366287169257e-36  4.2537376011983307e-37  4.4034705912496992e-38  6.9902372929310203e-37  -4.3551140470155559e-37  2.3075978408931410e-37  -1.6409037324202402e-37  -2.2277331739837255e-37  -3.0453546286068772e-37  -1.0092601907130033e-37  -5.0508869282198187e-37  -1.7683561893547093e-37  -3.0660818529157692e-37  -1.0310818046283629e-37  5.7043219520268897e-38  1.1308248855672302e-37  -5.6745164454667212e-38  -1.3030585116011152e-38  1.4837253325204348e-37  -5.2737795507386809e-38  4.0112617122866278e-38  2.7304743242955792e-38  1.1592462903862130e-38  -3.7541730671806153e-40  5.6108529051661330e-38  4.0323246976411605e-39  -2.7214908581942184e-38  -5.2484375779858859e-38  3.4760501149584483e-38  -2.6832887711533113e-38  8.2687720840020127e-40  9.2661815034958658e-39  -7.9156931683531213e-39  -1.6713012678431957e-39  8.7173184706122688e-39  4.0264918175281283e-38  -1.2945702187617708e-38  -2.0598281152327526e-38  -4.6307520405507760e-39  -9.1023850796117033e-39  -1.1629012685567643e-39  -3.5513512967008570e-40  -3.4613876806063657e-39  -5.6180524024583178e-39  1.8056273911947795e-39  1.2135544295483363e-38  3.2319659512854013e-39  3.6114121592268128e-39  1.7273577109130606e-39  -3.9708933595451942e-41  6.8304781262622525e-40  1.7770437921365315e-39  3.2533141552654160e-39  -1.1949497490479470e-39  -7.0322746040582216e-40  -6.5109675137384345e-40  -1.0227811352292524e-40  3.3312477741185814e-40  1.3288660479852045e-40  -7.3022517826523701e-40  -1.6037473433459200e-39  1.5169757835984051e-40  -2.0384351257997780e-41  -1.8223119032012565e-40  -2.1981229128526647e-40  -1.3799795650736654e-40  -1.4276692982235921e-40  -1.1930653485925803e-40  1.5670061514255232e-40  4.4393147542620381e-40  4.1488273203013761e-40  2.9900344701663816e-41  1.0560491828180704e-40  3.9403045035858289e-41  1.3990549923663370e-40  -7.1305093963673618e-42  5.8900012970889040e-41  3.0200545749501249e-41  2.8093786066488791e-40  -4.4421851852825939e-41  8.9839646949465148e-42  -1.4267627706426844e-40  -1.0997172514620091e-40  4.8251270772683537e-37  -6.7467207847227200e-37  4.6071076068811009e-37  -1.4142112064344226e-37  4.8941324587125303e-38  1.8337459848916364e-37  -1.0910149190506494e-36  7.5409092944743455e-38  3.4807643485435845e-37  2.8404615866816430e-37  3.7181610992581239e-38  -1.2440573942250250e-38  2.5913471861773347e-37  -2.3949713933231970e-37  4.9067267497425439e-37  -1.2310097758891893e-37  -3.9793903182592137e-37  -2.7083706194441332e-37  -7.0072214932803379e-38  -2.1202807232131175e-37  -1.3547423096941114e-38  -1.1188114334719865e-37  -1.6266830963537221e-37  9.5016479105190877e-38  1.7742384952247534e-37  8.6846882779470768e-38  -9.9246505999022536e-40  9.4780886104919644e-38  3.0993230545851530e-38  1.0207342226080270e-37  -4.6197728815909175e-39  -2.4382957014583054e-38  -1.9651576592369749e-38  -7.9835200563385985e-39  5.3434561838148919e-40  -2.1102377043214392e-38  -2.8493971713290224e-38  -1.5058904541721301e-38  -1.9420019203510995e-39  -2.1059074196889185e-39  -3.6991350743340011e-39  -6.7700483105651992e-39  -1.9023682853033246e-39  1.6791238241875542e-39  9.7982092688808398e-39  -5.5394002480549810e-39  -2.1765173913611245e-39  3.7911881297651127e-39  5.5919420586538383e-39  6.1909741384803302e-39  2.3180897020112478e-40  7.6859430542000925e-40  3.5627876702278522e-40  1.0005245903883948e-38  1.3822915413835029e-39  -1.4064797119411130e-39  -9.9871330942415795e-40  -1.0293544241714266e-39  1.3510658940436216e-40  1.9232900801385165e-41  -1.5459337567121541e-39  -3.1234983626719361e-39  -1.5117351690759409e-39  2.4985224985617146e-40  -1.4288042712679264e-40  -1.1607873048680013e-40  -1.2478146828258511e-40  -8.5932479719339107e-41  8.8490566404944712e-40  1.0990206841718856e-39  8.1658427190390112e-40  -2.9297072199348079e-41  -3.3095402374985993e-40  1.8851391074897955e-40  4.1712883200324251e-41  -5.6527136782111874e-42  3.1862707953650002e-41  3.1506325597791473e-41  5.0392801257490475e-41  -1.5034430736811643e-40  -2.8561805077750158e-40  -3.5957544599146835e-40  -1.9157061570736379e-40  2.0855564672046528e-38  9.2128208323882855e-39  -3.5896360121909333e-38  1.1231737915444974e-38  -2.9016746193172062e-38  2.3039797812292120e-38  4.6499088872625473e-38  1.1141980085922247e-38  -1.7916599151319923e-39  2.3368250264899963e-38  2.8004817068416085e-38  2.2203433132613203e-38  3.2567820351772950e-39  -1.0190486989916797e-38  -2.2621278562620787e-38  -3.6302162894009751e-40  -1.0520851124820678e-39  -1.3806212370747555e-38  -9.4148706896492947e-39  -2.55192258