<?xml version="1.0"?>
<VTKFile type="UnstructuredGrid"  version="0.1"  >
<UnstructuredGrid>
<Piece  NumberOfPoints="4075" NumberOfCells="20137">
<Points>
<DataArray  type="Float64"  NumberOfComponents="3"  format="ascii">27.5 37.5 37.5  27.5 37.5 38.75  27.5 36.25 38.75  26.25 36.25 38.75  27.5 37.5 40  27.5 35 40  27.5 36.25 40  26.25 37.5 38.75  27.5 38.75 38.75  27.5 38.75 37.5  26.25 38.75 38.75  27.5 40 37.5  27.5 40 38.75  27.5 40 40  27.5 38.75 40  27.5 38.75 41.25  26.25 38.75 41.25  27.5 40 41.25  27.5 40 42.5  27.5 37.5 41.25  27.5 37.5 42.5  27.5 38.75 42.5  26.25 40 41.25  27.5 41.25 41.25  27.5 41.25 40  26.25 41.25 41.25  27.5 42.5 40  27.5 42.5 41.25  27.5 42.5 42.5  27.5 41.25 42.5  45 37.5 35  45 37.5 36.25  45 36.25 36.25  43.75 36.25 36.25  45 37.5 37.5  45 35 37.5  45 36.25 37.5  42.5 35 37.5  43.75 36.25 37.5  43.75 35 37.5  42.5 37.5 35  43.75 37.5 36.25  43.75 37.5 35  47.5 37.5 35  47.5 37.5 36.25  47.5 36.25 36.25  46.25 36.25 36.25  47.5 37.5 37.5  47.5 35 37.5  47.5 36.25 37.5  46.25 36.25 37.5  46.25 35 37.5  46.25 37.5 36.25  46.25 37.5 37.5  50 37.5 35  50 37.5 36.25  50 36.25 36.25  48.75 36.25 36.25  50 37.5 37.5  50 35 37.5  50 36.25 37.5  48.75 36.25 37.5  48.75 35 37.5  48.75 37.5 36.25  48.75 37.5 35  48.75 37.5 37.5  42.5 35 38.75  42.5 33.75 38.75  41.25 33.75 38.75  42.5 35 40  42.5 32.5 37.5  42.5 32.5 38.75  42.5 32.5 40  42.5 33.75 40  43.75 35 38.75  43.75 33.75 38.75  45 35 38.75  45 35 40  43.75 33.75 40  43.75 35 40  47.5 35 38.75  46.25 35 38.75  46.25 33.75 38.75  47.5 35 40  48.75 35 38.75  48.75 33.75 38.75  46.25 36.25 38.75  47.5 36.25 38.75  47.5 37.5 38.75  47.5 37.5 40  47.5 36.25 40  48.75 36.25 38.75  50 36.25 38.75  50 37.5 38.75  50 37.5 40  50 35 38.75  50 35 40  50 36.25 40  48.75 36.25 40  48.75 35 40  48.75 37.5 38.75  48.75 37.5 40  45 35 41.25  45 33.75 41.25  43.75 33.75 41.25  45 35 42.5  47.5 35 41.25  47.5 33.75 41.25  46.25 33.75 41.25  47.5 35 42.5  46.25 35 41.25  46.25 35 40  46.25 35 42.5  48.75 35 41.25  48.75 33.75 41.25  50 35 41.25  50 35 42.5  48.75 35 42.5  48.75 33.75 42.5  30 37.5 32.5  30 38.75 33.75  30 37.5 33.75  28.75 38.75 33.75  30 37.5 35  30 38.75 35  30 40 35  27.5 37.5 35  28.75 38.75 35  28.75 37.5 35  27.5 38.75 35  27.5 38.75 33.75  27.5 40 35  28.75 40 35  32.5 37.5 32.5  32.5 38.75 33.75  32.5 38.75 32.5  31.25 38.75 33.75  32.5 40 32.5  32.5 40 33.75  32.5 40 35  32.5 37.5 33.75  32.5 37.5 35  32.5 38.75 35  31.25 38.75 35  31.25 37.5 35  31.25 40 35  35 40 32.5  35 40 33.75  35 38.75 33.75  33.75 38.75 33.75  35 40 35  35 37.5 35  35 38.75 35  33.75 38.75 35  33.75 37.5 35  33.75 40 33.75  33.75 40 32.5  33.75 40 35  37.5 40 32.5  37.5 40 33.75  37.5 38.75 33.75  36.25 38.75 33.75  37.5 38.75 32.5  36.25 38.75 32.5  37.5 40 35  37.5 37.5 35  37.5 38.75 35  36.25 38.75 35  36.25 37.5 35  36.25 40 33.75  36.25 40 32.5  36.25 40 35  40 40 32.5  40 40 33.75  40 38.75 33.75  38.75 38.75 33.75  40 38.75 32.5  38.75 38.75 32.5  40 40 35  40 37.5 35  40 38.75 35  38.75 38.75 35  38.75 40 33.75  38.75 40 32.5  38.75 40 35  42.5 37.5 32.5  42.5 38.75 33.75  42.5 37.5 33.75  41.25 38.75 33.75  42.5 38.75 35  42.5 40 35  41.25 38.75 35  41.25 37.5 35  41.25 40 35  41.25 40 33.75  43.75 38.75 35  43.75 38.75 33.75  45 38.75 35  45 40 35  43.75 40 35  33.75 41.25 33.75  35 41.25 33.75  35 41.25 35  35 42.5 35  33.75 41.25 35  36.25 41.25 33.75  37.5 41.25 33.75  37.5 41.25 35  37.5 42.5 35  36.25 41.25 35  36.25 42.5 35  38.75 41.25 33.75  40 41.25 33.75  40 41.25 35  40 42.5 35  38.75 41.25 35  38.75 42.5 35  41.25 41.25 33.75  41.25 41.25 35  42.5 41.25 35  42.5 42.5 35  41.25 42.5 35  30 37.5 36.25  30 36.25 36.25  28.75 36.25 36.25  30 37.5 37.5  30 35 37.5  30 36.25 37.5  28.75 36.25 37.5  28.75 37.5 36.25  28.75 37.5 37.5  27.5 37.5 36.25  32.5 37.5 36.25  32.5 36.25 36.25  31.25 36.25 36.25  32.5 37.5 37.5  32.5 35 37.5  32.5 36.25 37.5  31.25 36.25 37.5  31.25 35 37.5  31.25 37.5 36.25  31.25 37.5 37.5  35 37.5 36.25  35 36.25 36.25  33.75 36.25 36.25  35 37.5 37.5  35 35 37.5  35 36.25 37.5  33.75 36.25 37.5  33.75 35 37.5  33.75 37.5 36.25  33.75 37.5 37.5  37.5 37.5 36.25  37.5 36.25 36.25  36.25 36.25 36.25  37.5 37.5 37.5  37.5 35 37.5  37.5 36.25 37.5  36.25 36.25 37.5  36.25 35 37.5  36.25 37.5 36.25  36.25 37.5 37.5  40 37.5 36.25  40 36.25 36.25  38.75 36.25 36.25  40 37.5 37.5  40 35 37.5  40 36.25 37.5  38.75 36.25 37.5  38.75 35 37.5  38.75 37.5 36.25  38.75 37.5 37.5  42.5 37.5 36.25  42.5 36.25 36.25  41.25 36.25 36.25  42.5 37.5 37.5  42.5 36.25 37.5  41.25 36.25 37.5  41.25 37.5 36.25  41.25 37.5 37.5  43.75 37.5 37.5  28.75 38.75 36.25  30 38.75 36.25  30 40 36.25  30 40 37.5  30 38.75 37.5  28.75 38.75 37.5  28.75 40 36.25  27.5 38.75 36.25  28.75 40 37.5  27.5 40 36.25  31.25 38.75 36.25  32.5 38.75 36.25  32.5 40 36.25  32.5 40 37.5  32.5 38.75 37.5  31.25 38.75 37.5  31.25 40 36.25  31.25 40 37.5  33.75 38.75 36.25  35 38.75 36.25  35 40 36.25  35 40 37.5  35 38.75 37.5  33.75 38.75 37.5  33.75 40 36.25  33.75 40 37.5  36.25 38.75 36.25  37.5 38.75 36.25  37.5 40 36.25  37.5 40 37.5  37.5 38.75 37.5  36.25 38.75 37.5  36.25 40 36.25  36.25 40 37.5  40 38.75 36.25  38.75 38.75 36.25  40 40 36.25  40 40 37.5  40 38.75 37.5  38.75 38.75 37.5  38.75 40 36.25  38.75 40 37.5  41.25 38.75 36.25  42.5 38.75 36.25  42.5 40 36.25  42.5 40 37.5  42.5 38.75 37.5  41.25 38.75 37.5  41.25 40 36.25  41.25 40 37.5  43.75 38.75 36.25  45 38.75 36.25  45 40 36.25  45 40 37.5  45 38.75 37.5  43.75 38.75 37.5  43.75 40 36.25  43.75 40 37.5  47.5 38.75 36.25  47.5 38.75 35  46.25 38.75 36.25  46.25 38.75 35  47.5 40 35  47.5 40 36.25  47.5 40 37.5  47.5 38.75 37.5  46.25 38.75 37.5  46.25 40 36.25  46.25 40 35  46.25 40 37.5  48.75 38.75 36.25  48.75 38.75 35  50 38.75 36.25  50 38.75 35  50 40 35  50 40 36.25  50 40 37.5  50 38.75 37.5  48.75 38.75 37.5  48.75 40 36.25  48.75 40 35  48.75 40 37.5  28.75 41.25 36.25  28.75 41.25 35  30 41.25 36.25  30 41.25 35  30 42.5 35  30 42.5 36.25  30 42.5 37.5  30 41.25 37.5  28.75 41.25 37.5  27.5 42.5 35  28.75 42.5 36.25  28.75 42.5 35  27.5 41.25 37.5  27.5 42.5 37.5  28.75 42.5 37.5  31.25 41.25 36.25  31.25 41.25 35  32.5 41.25 36.25  32.5 41.25 35  32.5 42.5 35  32.5 42.5 36.25  32.5 42.5 37.5  32.5 41.25 37.5  31.25 41.25 37.5  31.25 42.5 36.25  31.25 42.5 35  31.25 42.5 37.5  33.75 41.25 36.25  35 41.25 36.25  35 42.5 36.25  35 42.5 37.5  35 41.25 37.5  33.75 41.25 37.5  33.75 42.5 36.25  33.75 42.5 35  33.75 42.5 37.5  36.25 41.25 36.25  37.5 41.25 36.25  37.5 42.5 36.25  37.5 42.5 37.5  37.5 41.25 37.5  36.25 41.25 37.5  36.25 42.5 36.25  36.25 42.5 37.5  38.75 41.25 36.25  40 41.25 36.25  40 42.5 36.25  40 42.5 37.5  40 41.25 37.5  38.75 41.25 37.5  38.75 42.5 36.25  38.75 42.5 37.5  41.25 41.25 36.25  42.5 41.25 36.25  42.5 42.5 36.25  42.5 42.5 37.5  42.5 41.25 37.5  41.25 41.25 37.5  41.25 42.5 36.25  41.25 42.5 37.5  43.75 41.25 36.25  43.75 41.25 35  45 41.25 36.25  45 41.25 35  45 42.5 35  45 42.5 36.25  45 42.5 37.5  45 41.25 37.5  43.75 41.25 37.5  43.75 42.5 36.25  43.75 42.5 35  43.75 42.5 37.5  46.25 41.25 36.25  46.25 41.25 35  47.5 41.25 36.25  47.5 41.25 35  47.5 42.5 35  47.5 42.5 36.25  47.5 42.5 37.5  47.5 41.25 37.5  46.25 41.25 37.5  46.25 42.5 36.25  46.25 42.5 35  46.25 42.5 37.5  48.75 41.25 36.25  48.75 41.25 35  50 41.25 36.25  50 41.25 35  50 42.5 35  50 42.5 36.25  50 42.5 37.5  50 41.25 37.5  48.75 41.25 37.5  48.75 42.5 36.25  48.75 42.5 35  48.75 42.5 37.5  28.75 43.75 36.25  28.75 43.75 35  30 43.75 36.25  30 43.75 35  30 45 35  30 45 36.25  30 45 37.5  30 43.75 37.5  28.75 43.75 37.5  27.5 43.75 35  27.5 45 35  28.75 45 36.25  28.75 45 35  31.25 43.75 36.25  31.25 43.75 35  32.5 43.75 36.25  32.5 43.75 35  32.5 45 35  32.5 45 36.25  32.5 45 37.5  32.5 43.75 37.5  31.25 43.75 37.5  31.25 45 36.25  31.25 45 35  31.25 45 37.5  33.75 43.75 36.25  33.75 43.75 35  35 43.75 36.25  35 43.75 35  35 45 35  35 45 36.25  35 45 37.5  35 43.75 37.5  33.75 43.75 37.5  33.75 45 36.25  33.75 45 35  33.75 45 37.5  36.25 43.75 36.25  36.25 43.75 35  37.5 43.75 36.25  37.5 43.75 35  37.5 45 35  37.5 45 36.25  37.5 45 37.5  37.5 43.75 37.5  36.25 43.75 37.5  36.25 45 36.25  36.25 45 35  36.25 45 37.5  38.75 43.75 36.25  38.75 43.75 35  40 43.75 36.25  40 43.75 35  40 45 35  40 45 36.25  40 45 37.5  40 43.75 37.5  38.75 43.75 37.5  38.75 45 36.25  38.75 45 35  38.75 45 37.5  41.25 43.75 36.25  41.25 43.75 35  42.5 43.75 36.25  42.5 43.75 35  42.5 45 35  42.5 45 36.25  42.5 45 37.5  42.5 43.75 37.5  41.25 43.75 37.5  41.25 45 36.25  41.25 45 35  41.25 45 37.5  43.75 43.75 36.25  43.75 43.75 35  45 43.75 36.25  45 43.75 35  45 45 35  45 45 36.25  45 45 37.5  45 43.75 37.5  43.75 43.75 37.5  43.75 45 36.25  43.75 45 35  43.75 45 37.5  46.25 43.75 36.25  46.25 43.75 35  47.5 43.75 36.25  47.5 43.75 35  47.5 45 35  47.5 45 36.25  47.5 45 37.5  47.5 43.75 37.5  46.25 43.75 37.5  46.25 45 36.25  46.25 45 35  46.25 45 37.5  48.75 43.75 36.25  48.75 43.75 35  50 43.75 36.25  50 43.75 35  50 45 35  50 45 36.25  50 45 37.5  50 43.75 37.5  48.75 43.75 37.5  48.75 45 36.25  48.75 45 35  48.75 45 37.5  28.75 46.25 36.25  28.75 46.25 35  30 46.25 36.25  30 46.25 35  30 47.5 35  30 47.5 36.25  30 47.5 37.5  30 46.25 37.5  28.75 46.25 37.5  28.75 47.5 36.25  27.5 47.5 37.5  28.75 47.5 37.5  31.25 46.25 36.25  31.25 46.25 35  32.5 46.25 36.25  32.5 46.25 35  32.5 47.5 35  32.5 47.5 36.25  32.5 47.5 37.5  32.5 46.25 37.5  31.25 46.25 37.5  31.25 47.5 36.25  31.25 47.5 35  31.25 47.5 37.5  33.75 46.25 36.25  33.75 46.25 35  35 46.25 36.25  35 46.25 35  35 47.5 35  35 47.5 36.25  35 47.5 37.5  35 46.25 37.5  33.75 46.25 37.5  33.75 47.5 36.25  33.75 47.5 35  33.75 47.5 37.5  36.25 46.25 36.25  36.25 46.25 35  37.5 46.25 36.25  37.5 46.25 35  37.5 47.5 35  37.5 47.5 36.25  37.5 47.5 37.5  37.5 46.25 37.5  36.25 46.25 37.5  36.25 47.5 36.25  36.25 47.5 35  36.25 47.5 37.5  38.75 46.25 36.25  38.75 46.25 35  40 46.25 36.25  40 46.25 35  40 47.5 35  40 47.5 36.25  40 47.5 37.5  40
[...]
<PointData  Scalars="c_HbCO2"> 
<DataArray  type="Float64"  Name="c_HbCO2"  format="ascii">1.4180321127366799e-32  8.3923188454617497e-33  8.1857728440723012e-34  -4.3832506925212258e-32  1.4180232554381811e-32  1.4179840584735412e-32  8.3918101703948263e-33  -2.5941429419376691e-32  8.1890329953460036e-34  8.3924096768919193e-33  -4.3832350525561000e-32  1.4180205743146353e-32  8.3923687855407066e-33  1.4180107518054956e-32  8.3922642279207459e-33  8.1884635233120687e-34  -4.3832434971311343e-32  8.3922222606180968e-33  1.4180080502704930e-32  8.3923801064261599e-33  1.4180160016120357e-32  8.3922465650868027e-33  -2.5941463774313705e-32  8.1875750010233413e-34  8.3922319840951803e-33  -4.3832423245843622e-32  1.4180125711628771e-32  8.3922628710585739e-33  1.4180120914814330e-32  8.3922293338644716e-33  1.9380988417747074e-39  1.0045354690583996e-39  1.4493441199093683e-41  -5.8331585766118269e-39  1.9187379710004609e-39  2.0601798652342911e-39  1.0270711662242743e-39  1.8232039255310016e-38  -3.5820203790645221e-39  -2.2947609754011777e-41  1.8911398593645898e-38  -3.4860115581514981e-39  -2.9996270774777671e-40  1.9285164594762216e-40  1.1937504941987841e-40  1.4111243315164106e-40  -6.7313204896314443e-40  1.9702051734169052e-40  3.7775765807047951e-40  2.6416724789262096e-40  -2.8426339033706698e-40  -5.7455324407045040e-41  -3.4097845502650129e-40  -2.2606192487381212e-41  -2.0146204030212224e-41  -4.6641258344123159e-41  -2.7505669855659631e-40  -1.6927072552646825e-40  4.9112695663579124e-41  -3.0126654962313363e-40  -3.1052622872249251e-40  -6.8446883559893762e-41  1.0417878199685440e-40  -2.1463751747674496e-42  -2.2591815621368083e-41  9.0925616367779608e-42  1.0545194806460165e-38  -1.9709400780102580e-40  -5.7667666629831697e-38  1.8376723409253973e-38  1.8396092916191151e-38  9.9907633679844167e-39  1.8482501085021904e-38  1.0468805003529376e-38  -3.2398231827963873e-39  -5.5204714967170810e-39  1.0086681088641372e-39  1.4018802553730793e-39  -3.1679111853398614e-39  -1.2491291542258211e-40  3.7600390133076515e-40  -4.7300718482601708e-40  -6.2249638950623092e-40  5.5098931942291370e-40  7.5238301010821443e-41  -1.1446020173059129e-40  -6.7652527723891055e-40  1.8705178272704085e-40  7.8690048998129450e-41  2.0121084141788136e-40  7.1288708361922762e-41  -8.1785957794718187e-41  -1.8377150578166531e-40  1.2359601870886633e-40  9.6802444522936241e-41  -6.8598490565460149e-40  -3.4168133821846233e-40  -1.6256240451774098e-40  -7.5893501984412671e-42  3.4363245665131637e-40  -1.5160454466487951e-41  3.2235148241698346e-42  3.6181149749378093e-40  -2.1205359994482596e-40  -6.2154278230265285e-39  2.0485357176140478e-39  1.5927744990239327e-40  1.9415937566679460e-40  -5.5219853102532884e-40  3.4055015246854335e-40  -4.8150122480278488e-40  1.0975374014223705e-40  1.4500221114167379e-40  -1.8642141767223032e-40  -1.8248333693844096e-40  -2.2223002568773087e-40  -1.4346959630242755e-40  -1.4662345265271645e-40  -1.2423883938659542e-40  1.4840189984411109e-33  8.5696842265274665e-35  8.7829166684293336e-34  -4.5873905263617752e-33  1.4840300655696499e-33  8.7831666423520363e-34  1.4840434607093336e-33  1.4180210665340954e-32  -2.7149782055177221e-33  -2.6497181445980284e-34  8.3921985988286751e-33  8.1876643707131376e-34  1.4180129815643031e-32  -2.6490529870846268e-34  1.5532260426090611e-34  8.9722736584625580e-36  9.1920340099422929e-35  -4.8010934525935493e-34  1.5530997538214437e-34  9.1925157331612046e-35  1.5531722719980544e-34  9.1926478430151113e-35  1.5532340462118894e-34  9.1918864630823290e-35  -2.8413817024685424e-34  -2.7728842653226992e-35  -2.7719244673955795e-35  1.6254358899670316e-35  9.6164558209515259e-36  9.3237027564930582e-37  -5.0243870022499738e-35  1.6254364291496600e-35  1.6254477638028881e-35  9.6152901699868998e-36  -2.9737527495794671e-35  -2.8950084412095578e-36  -2.9735864732332705e-35  -2.8996056635682399e-36  -2.9003465288312305e-36  1.7009808679393326e-36  1.0058453384433666e-36  9.6678801298966129e-38  -5.2621125808861726e-36  1.0071079855322492e-36  -3.1086006169706928e-36  1.7007196373024641e-36  1.7031388155156393e-36  1.0052565776988335e-36  -3.1153191540814632e-36  -3.0435053773147414e-37  -3.1143065401848817e-36  -3.0237694741745852e-37  -3.0329508699404211e-37  1.7802744641309658e-37  1.0504013637125479e-37  9.4681117295471408e-39  -5.5067480155877730e-37  1.0584131020923251e-37  -3.2556887846030572e-37  1.7777093421632261e-37  1.7766282987724336e-37  1.0484445001552759e-37  -3.2565593657449644e-37  -3.2526000353389607e-37  -3.1978236206852873e-38  -3.1738136185958146e-38  1.8446560174086197e-38  1.2027066609886050e-39  1.0873253794946152e-38  -5.7919017479018929e-38  1.1293532304806362e-38  1.8601756650414084e-38  -3.3787034453531963e-38  -3.6144585588264163e-39  -3.1808273884324459e-39  -3.3967128299694477e-38  -3.5123395565438705e-39  -5.9906782319915414e-39  1.1510548236196514e-39  1.9641739759836075e-39  -3.5899437324919378e-40  -5.0246099925230669e-35  9.3839732581945029e-37  9.6210912234019780e-36  1.6254924973659503e-35  -2.9737310991478705e-35  -5.2583799039884148e-36  9.8562593034640524e-38  1.0072442837547499e-36  1.7012111075826241e-36  -3.1115469112965572e-36  -3.0362071773391809e-37  -5.5033952360988923e-37  1.0353592222529423e-38  1.0548576346987532e-37  1.7801988635755777e-37  -3.2556954212474180e-37  -3.1829294428243596e-38  -5.7576204493031760e-38  -3.4074410670908400e-38  1.1027584082057793e-38  1.8629932221500151e-38  -3.3258398711615124e-39  8.7828727465985276e-34  8.5707641099347857e-35  -4.5872239144553276e-33  1.4840420663479017e-33  1.4840725224950219e-33  8.7834262104212314e-34  -2.7147865531006519e-33  -2.7149209679916234e-33  -2.6476032183479016e-34  8.3925393105486096e-33  9.1928747291626682e-35  9.0009709137732428e-36  -4.8008484234667900e-34  1.5532280191578887e-34  1.5534642386207417e-34  9.1924287050205326e-35  -2.8414991841889323e-34  -2.7712949253156643e-35  -2.8413413876966016e-34  -2.7722118090242397e-35  9.6243668994261716e-36  9.5851424174541161e-37  -5.0216011847662202e-35  1.6257582196441783e-35  1.6266761455506485e-35  9.6230688706613056e-36  -2.9709752180013469e-35  -2.8597416993502083e-36  -2.9723485433318412e-35  -2.8988300506465951e-36  1.0065400248808621e-36  1.0072964030864490e-37  -5.2555545036569215e-36  1.7009911375944652e-36  1.6888182553001452e-36  1.0099665570240027e-36  -3.1104492627716369e-36  -3.2289654724641840e-37  -3.1128050887651634e-36  -3.0592464715777270e-37  1.0514454925886392e-37  1.0239875579984598e-38  -5.5053147637285029e-37  1.7771379274576380e-37  1.7903851510664824e-37  1.0507470718258958e-37  -3.2548071999326101e-37  -2.6840759850693494e-38  -3.2532925887825834e-37  -3.1970833691660249e-38  1.1281278516869218e-38  1.3384374448077770e-39  -5.8075239697324755e-38  1.8465655134519229e-38  1.0598770505392889e-38  -3.5566397892556835e-38  -3.4098946219804473e-38  -3.5335798581568913e-39  -2.2443270330030453e-40  -4.5873203331234396e-33  8.5663574232645087e-35  8.7830943213724611e-34  1.4840413294259070e-33  8.7828064196523245e-34  -2.7148949348474495e-33  -2.7149417724383940e-33  8.1896618434914774e-34  -2.6493042692708599e-34  8.3923714530507473e-33  -4.8009726999481393e-34  8.9687197336169450e-36  9.1919453384642161e-35  1.5531677861686487e-34  9.1920270087639268e-35  -2.8413808043768018e-34  -2.8413615649621555e-34  -2.7717989385277144e-35  -5.0248752368863908e-35  9.3674678777371148e-37  9.6213356136919256e-36  1.6255002018142633e-35  9.6175533888898572e-36  -2.9740701460616662e-35  -2.9738047021154354e-35  -2.9020061517190372e-36  -5.2585155918537161e-36  9.7620753509908126e-38  1.0067385975694634e-36  1.7010089697040327e-36  1.0061889535530778e-36  -3.1129467347116490e-36  -3.1113709839240305e-36  -3.0320037636471649e-37  9.4172304470604731e-39  -5.5179547905892490e-37  1.0510367854041486e-37  1.7789702523718093e-37  1.0513618136250990e-37  -3.2672087873163568e-37  -3.2658494732057838e-37  -3.2034269295092549e-38  -5.7393085892947362e-38  1.1696007307589177e-39  1.0975067490804175e-38  1.8584839409713844e-38  1.1135320071091384e-38  -3.3802080840026105e-38  -3.4004578509135951e-38  -3.3179570056454141e-39  -5.9878999800115517e-39  1.4445435801698419e-40  1.1630027928072135e-39  1.9525399796089794e-39  1.1708958287441428e-39  -3.5364943026130653e-39  -3.5715159657156073e-39  -3.5576693561188704e-40  5.9589199762906203e-41  1.5297478891562139e-40  -5.7588558384996970e-40  -3.1998825214775135e-40  2.1620253797131932e-40  1.3388497930287995e-40  2.1299035890392695e-40  1.2431954432027287e-40  -3.2372168505564260e-40  -3.3490468534722735e-40  -1.5224824923948658e-41  -2.4168460334499756e-41  -7.6665553621784895e-41  -3.9037877470699863e-41  1.9524311453266430e-41  4.7049297819569841e-41  4.8487330726696357e-41  2.1933890536446552e-41  4.2417197577675000e-41  4.7606266584485938e-41  -5.8053752331779867e-41  -4.8943311184540901e-41  -2.4389107560741964e-42  -5.6676609592506024e-42  -4.5873785242833204e-33  -2.7149846790012488e-33  8.5692809367247970e-35  8.7829109208852252e-34  1.4840436196824700e-33  8.7830013408590381e-34  1.4840460108596266e-33  8.7831403629339713e-34  -2.7149601018590271e-33  1.4180076869209456e-32  -2.7149840937241536e-33  -2.6489598713524261e-34  8.3922197788515210e-33  1.4180104372388817e-32  -2.6488210336849886e-34  -4.8010100711949993e-34  -2.8413424880823874e-34  8.9671017907500865e-36  9.1921701170981777e-35  1.5531713312397370e-34  9.1920277273009554e-35  1.5531648414710746e-34  9.1921011268772610e-35  -2.8413811548903939e-34  -2.8413769744720551e-34  -2.7716207468174099e-35  -2.7721899897656293e-35  -5.0245886045884003e-35  9.3917795273629812e-37  9.6202402827807051e-36  1.6254956439942396e-35  9.6203279204391751e-36  -2.9737140890407077e-35  -2.9737459801896237e-35  -2.9022589588184761e-36  -2.9010424752420426e-36  -5.2583718793539728e-36  9.8219343644771469e-38  1.0067538802748176e-36  1.7011600528518454e-36  1.0068731122050196e-36  -3.1122067227833593e-36  -3.1122835812209936e-36  -3.0369960055588809e-37  -5.5019504964137238e-37  1.0380691998558178e-38  1.0536405296722057e-37  1.7803033213448982e-37  1.0539975546405609e-37  -3.2562874445563029e-37  -3.2573864538679364e-37  -3.1792979272860462e-38  -5.7557970316178723e-38  1.0712387764452646e-39  1.1029007514965492e-38  1.8632580672716443e-38  1.1036619313588251e-38  -3.4086785028857014e-38  -3.4094635472106248e-38  -3.3300383972648585e-39  -6.0255307179346898e-39  -3.5736588737272140e-39  1.0636799738421878e-40  1.1477765189861955e-39  1.9514744406201323e-39  1.1576252619753826e-39  1.9515326031465825e-39  1.1507932128831774e-39  -3.5696489722997189e-39  -3.5692065524677291e-39  -3.5633491027028752e-40  -3.4921849335583101e-40  -6.3880488143207229e-40  -3.8230543772932096e-40  8.3250720319774825e-42  1.1978426958656431e-40  2.0698218497543922e-40  1.2306823108633992e-40  2.0658756189299950e-40  1.2169540798370271e-40  -3.7877441707610032e-40  -3.7096021806778745e-40  -3.1722254215881141e-41  -3.6635160608229664e-41  -7.4778718908373169e-41  -4.2732478537541322e-41  5.9486466297198117e-43  3.2323754243366878e-41  4.5433636082347076e-41  2.4301283981783083e-41  4.2687838617452405e-41  2.4024400183872716e-41  -4.2632840301857392e-41  -4.3155292743165015e-41  -3.5948407205611104e-42  -4.2782411831332879e-42  -4.5873847713239400e-33  -2.7149530969214974e-33  8.5689202120883206e-35  8.7831244166118840e-34  1.4840523281252666e-33  8.7831000872484117e-34  1.4840564007608595e-33  8.7830977073936934e-34  -2.7149476496498227e-33  8.3922175522612505e-33  1.4180113357969839e-32  -2.7149546347153764e-33  -2.6488614575682829e-34  -4.8010013774764897e-34  -2.8413739919626937e-34  8.9672095096323909e-36  9.1920969594677566e-35  1.5531681243804127e-34  9.1920764920789690e-35  1.5531597782258926e-34  9.1920874318469645e-35  -2.8413813429632040e-34  -2.8413844732139206e-34  -2.7719191212048714e-35  -2.7718386232825811e-35  -5.0246142964100313e-35  -2.9737468639615558e-35  9.3867883913504600e-37  9.6202403075080778e-36  1.6254858699427051e-35  9.6203185108136074e-36  1.6254986093255307e-35  9.6201881381358338e-36  -2.9737100395751521e-35  -2.9737221902551773e-35  -2.9018910504284833e-36  -2.9013210855442769e-36  -5.2585782464908702e-36  -3.1121792639763766e-36  9.8205627481110812e-38  1.0068025266641772e-36  1.7012065790189749e-36  1.0068171012580533e-36  1.7011958726205275e-36  1.0068247955017738e-36  -3.1122294960553914e-36  -3.1121944319041431e-36  -3.0360694504074471e-37  -3.0363939885373638e-37  -5.5035540137423475e-37  -3.2573048833543750e-37  1.0287228546140069e-38  1.0537397299264135e-37  1.7804401555602123e-37  1.0537269288239410e-37  1.7804382685663452e-37  1.0537384979480126e-37  -3.2571014578456112e-37  -3.2571311403172964e-37  -3.1782185994168319e-38  -3.1774400814395519e-38  -5.7597068854005182e-38  -3.4089162952586230e-38  1.0759196095387767e-39  1.1024687863916987e-38  1.8633010957798269e-38  1.1028473616545622e-38  1.8633775313893352e-38  1.1027550992504782e-38  -3.4088741667692195e-38  -3.4088225535782036e-38  -3.3256402525927098e-39  -3.3259433328171009e-39  -6.0292468445533501e-39  -3.5690417784104210e-39  1.1364827976600979e-40  1.1558351159973484e-39  1.9497089424044449e-39  1.1540992381903923e-39  1.9503217790582908e-39  1.1541831425122922e-39  -3.5681156749789467e-39  -3.5675908308420375e-39  -3.4818133619477763e-40  -3.4809544462357981e-40  -6.3074944383025013e-40  -3.7072276989082871e-40  1.1696214442682552e-41  1.2243265692882269e-40  2.0618608026956425e-40  1.2201123295301661e-40  2.0622865588614464e-40  1.2190287533288737e-40  -3.7424810589970077e-40  -3.7404944815572049e-40  -3.6640807085324587e-41  -3.6584465547446209e-41  -7.2642360047804421e-41  -4.2799530549859333e-41  1.9888005331107668e-42  2.3962849328641480e-41  4.2604095674533926e-41  2.5293450117801350e-41  4.2670932286326270e-41  2.5331863605054684e-41  -4.3223440711089111e-41  -4.3147543334729348e-41  -4.0627814635258418e-42  -4.1969277693522074e-42  -4.5873761919819580e-33  -2.7149625011194476e-33  8.5691351801402426e-35  8.7830908447472677e-34  1.4840494288424233e-33  8.7830790739218676e-34  1.4840497774536147e-33  8.7831082124920681e-34  -2.7149568598664952e-33  -2.7149555085720392e-33  1.4180121910551407e-32  -2.6487722648837412e-34  -4.8010103736160512e-34  -2.8413855468481151e-34  8.9677277124733875e-36  9.1921426406999325e-35  1.5531668441651804e-34  9.1921020403061309e-35  1.5531639606300143e-34  9.1920882234107459e-35  -2.8413818430452101e-34  -2.8413948426287581e-34  -2.7720569763636244e-35  -2.7721512950051092e-35  -5.0246041338886248e-35  -2.9737595228761548e-35  9.3866481952994586e-37  9.6201976998890669e-36  1.6254940513359213e-35  9.6202333006903350e-36  1.6254978149024457e-35  9.6202163181187579e-36  -2.9737221378051960e-35  -2.9737244792413611e-35  -2.9013902949440656e-36  -2.9011872179319916e-36  -5.2585849876747844e-36  -3.1121611026344573e-36  9.8215445999962558e-38  1.0068217932317087e-36  1.7011996211393335e-36  1.0068197060092234e-36  1.7011969675126103e-36  1.0068235818004842e-36  -3.1122151302726520e-36  -3.1122002230484708e-36  -3.0361869475363224e-37  -3.0363941843848356e-37  -5.5035445832084364e-37  -3.2571777211546174e-37  1.0280270501245429e-38  1.0537108775801106e-37  1.7804311372214895e-37  1.0537161117895425e-37  1.7804286653820363e-37  1.0537103990765694e-37  -3.2571388631428636e-37  -3.2571644561467309e-37  -3.1776156473944847e-38  -3.1776558740207878e-38  -5.7598391630227963e-38  -3.4088778287608711e-38  1.0759797686818975e-39  1.1028006678547284e-38  1.8633481427672741e-38  1.1027839825153980e-38  1.8633463049944850e-38  1.1027909093312457e-38  -3.4088576378419801e-38  -3.4088331624017097e-38  -3.3257348474707791e-39  -3.3257239918732238e-39  -6.0280556154466837e-39  -3.5675699841470533e-39  1.1259023920378167e-40  1.1541049806303231e-39  1.9503111935566888e-39  1.1542831945540207e-39  1.9503524123544915e-39  1.1542966975210079e-39  -3.5675807218474884e-39  -3.5676149832567878e-39  -3.4795180091879878e-40  -3.4806265526491274e-40  -6.3151938525980141e-40  -3.7369240076046602e-40  1.1953181809570385e-41  1.2211204785802059e-40  2.0628134124207613e-40  1.2210173785774168e-40  2.0632569341912380e-40  1.2212047909835382e-40  -3.7376505178052794e-40  -3.7380362464289365e-40  -3.6498288241466034e-41  -3.6475095977901546e-41  -7.2886974793784930e-41  -4.3017049924750663e-41  2.5018490896884702e-42  2.5330534809394613e-41  4.2694645471395014e-41  2.5281210163475506e-41  4.2720068159536519e-41  2.5275884485669614e-41  -4.3157930803995509e-41  -4.3170401300935044e-41  -4.2238107722367176e-42  -4.2131793126621735e-42  8.5689928528944843e-35  8.7830390358647794e-34  -4.5873787899081566e-33  -2.7149679995293523e-33  1.4840469450145009e-33  8.7830376966141124e-34  1.4840488528927366e-33  8.7830869480931693e-34  -2.7149528868475172e-33  1.4180122561466922e-32  -2.7149656814920772e-33  -2.6489312782892680e-34  -2.6487665991696237e-34  -4.8010057283787655e-34  -2.8413940381767364e-34  8.9679702230791022e-36  9.1920787997905140e-35  1.5531612940094331e-34  9.1921118091704188e-35  1.5531652873013785e-34  9.1921203139565524e-35  -2.8413935302056197e-34  -2.8413813000435125e-34  -2.7719002356163622e-35  -2.7720937693563704e-35  -5.0246141937920644e-35  -2.9737160763806223e-35  9.3858689289835540e-37  9.6202681402356726e-36  1.6255015784411772e-35  9.6202115572300174e-36  1.6254985804287059e-35  9.6202203248241095e-36  -2.9737182314337342e-35  -2.9737321214397434e-35  -2.9010675287299224e-36  -2.9012240115742171e-36  -5.2586030178479083e-36  -3.1122108830950252e-36  9.8225391144944096e-38  1.0068195771911909e-36  1.7011981377999147e-36  1.0068240178981594e-36  1.7011969666971458e-36  1.0068230815458597e-36  -3.1122106996410045e-36  -3.1122121304434236e-36  -3.0364431826186065e-37  -3.0363542255506099e-37  -5.5035100878237113e-37  -3.2571553785668429e-37  1.0280310618887303e-38  1.0537135572378361e-37  1.7804280672702667e-37  1.0537114424131949e-37  1.7804262051665186e-37  1.0537108470137024e-37  -3.2571489020120155e-37  -3.2571416738498687e-37  -3.1776082038195847e-38  -3.1777270859449511e-38  -5.7598169223870761e-38  -3.4088447915177234e-38  1.0759243184810687e-39  1.1027903954473249e-38  1.8633511369526602e-38  1.1027857923434504e-38  1.8633465963477921e-38  1.1027872916116597e-38  -3.4088451823221602e-38  -3.4088454933361742e-38  -3.3258734514870753e-39  -3.3257506713749409e-39  -6.0281308206958480e-39  -3.5676272147490761e-39  1.1260378452824766e-40  1.1543322072551138e-39  1.9504075070883895e-39  1.1542754708469153e-39  1.9503547607374965e-39  1.1542731493068751e-39  -3.5676374467518532e-39  -3.5676424786805521e-39  -3.4809607155188792e-40  -3.4807407017648754e-40  -6.3160000774765401e-40  -3.7378979461457859e-40  1.1911858384094864e-41  1.2211870279676499e-40  2.0634505190630677e-40  1.2211352097929956e-40  2.0633160653994967e-40  1.2211112093597471e-40  -3.7380311814506189e-40  -3.7380515993594239e-40  -3.6472545249169143e-41  -3.6466719261935390e-41  -7.2938409119737496e-41  2.4708096282183828e-42  2.5283838003631965e-41  4.2720669333594928e-41  -4.3166522166771620e-41  -4.2110022674476265e-42  -4.3165809190460461e-41  8.7839797891295831e-34  8.5814214709154029e-35  -4.5875043504096516e-33  1.4841001668020594e-33  -2.7152682592151974e-33  -2.6526549836322818e-34  9.1912687606060903e-35  8.9584757156937800e-36  -4.8003459916667931e-34  1.5531236139279383e-34  -2.8408916400483867e-34  -2.7675174755903387e-35  -2.8410753158023126e-34  9.6109070449754022e-36  9.4022411265591476e-37  -5.0245863065443061e-35  1.6259554242432227e-35  -2.9716884117986250e-35  -2.8838119637768408e-36  1.0034862374983919e-36  9.1883048280884500e-38  -5.2761748518234094e-36  1.6966699830743925e-36  -3.1258929860116061e-36  -3.0631105106584062e-37  1.0649394230522937e-37  1.5887821184198553e-38  -5.4623906548306108e-37  1.7832705095706620e-37  -3.2419605821654848e-37  -3.1760062622639121e-38  -3.5782546156429722e-38  -3.5834902851355272e-38  -4.1812