<?xml version="1.0"?>
<VTKFile type="UnstructuredGrid"  version="0.1"  >
<UnstructuredGrid>
<Piece  NumberOfPoints="3917" NumberOfCells="19156">
<Points>
<DataArray  type="Float64"  NumberOfComponents="3"  format="ascii">25 27.5 35  26.25 28.75 35  25 28.75 35  26.25 28.75 33.75  25 30 35  26.25 30 35  27.5 30 35  25 28.75 36.25  23.75 28.75 36.25  25 30 36.25  25 30 37.5  25 27.5 36.25  25 27.5 37.5  25 28.75 37.5  26.25 28.75 36.25  26.25 30 36.25  27.5 30 36.25  27.5 30 37.5  26.25 28.75 37.5  26.25 30 37.5  26.25 31.25 36.25  27.5 31.25 36.25  27.5 31.25 37.5  27.5 32.5 37.5  26.25 31.25 37.5  25 32.5 37.5  26.25 32.5 37.5  25 32.5 35  26.25 32.5 36.25  25 32.5 36.25  26.25 33.75 36.25  26.25 33.75 37.5  26.25 28.75 38.75  26.25 30 38.75  27.5 30 38.75  27.5 30 40  25 27.5 40  26.25 28.75 40  25 28.75 40  25 30 40  26.25 30 40  25 30 38.75  26.25 31.25 38.75  27.5 31.25 38.75  27.5 32.5 38.75  27.5 32.5 40  27.5 31.25 40  26.25 31.25 40  26.25 32.5 38.75  26.25 33.75 38.75  27.5 33.75 38.75  27.5 33.75 40  27.5 35 40  26.25 33.75 40  26.25 28.75 41.25  26.25 30 41.25  27.5 30 41.25  27.5 30 42.5  25 27.5 42.5  26.25 28.75 42.5  25 28.75 42.5  25 30 42.5  26.25 30 42.5  25 30 41.25  26.25 31.25 41.25  27.5 31.25 41.25  27.5 32.5 41.25  27.5 32.5 42.5  27.5 31.25 42.5  26.25 31.25 42.5  26.25 32.5 41.25  27.5 33.75 41.25  26.25 33.75 41.25  27.5 35 41.25  27.5 35 42.5  27.5 33.75 42.5  26.25 33.75 42.5  26.25 35 41.25  27.5 36.25 41.25  27.5 36.25 40  26.25 36.25 41.25  27.5 37.5 40  27.5 37.5 41.25  27.5 37.5 42.5  27.5 36.25 42.5  26.25 36.25 42.5  26.25 37.5 41.25  26.25 38.75 41.25  27.5 38.75 41.25  25 28.75 43.75  23.75 28.75 43.75  25 30 43.75  25 30 45  25 27.5 43.75  25 27.5 45  25 28.75 45  26.25 28.75 43.75  26.25 30 43.75  27.5 30 43.75  27.5 30 45  26.25 28.75 45  26.25 30 45  26.25 31.25 43.75  27.5 31.25 43.75  27.5 32.5 43.75  27.5 32.5 45  27.5 31.25 45  26.25 31.25 45  26.25 32.5 43.75  25 31.25 45  25 32.5 45  26.25 32.5 45  27.5 33.75 43.75  26.25 33.75 43.75  27.5 35 43.75  27.5 35 45  27.5 33.75 45  26.25 33.75 45  26.25 35 43.75  26.25 35 45  27.5 36.25 43.75  26.25 36.25 43.75  27.5 37.5 43.75  27.5 37.5 45  27.5 36.25 45  26.25 36.25 45  26.25 28.75 46.25  26.25 30 46.25  27.5 30 46.25  27.5 30 47.5  25 28.75 46.25  25 27.5 46.25  25 27.5 47.5  26.25 28.75 47.5  25 28.75 47.5  25 30 47.5  26.25 30 47.5  25 30 46.25  26.25 31.25 46.25  27.5 31.25 46.25  27.5 32.5 46.25  27.5 32.5 47.5  27.5 31.25 47.5  26.25 31.25 47.5  26.25 32.5 46.25  26.25 33.75 46.25  27.5 33.75 46.25  27.5 35 46.25  27.5 35 47.5  27.5 33.75 47.5  26.25 33.75 47.5  26.25 35 46.25  25 35 47.5  26.25 35 47.5  27.5 36.25 46.25  26.25 36.25 46.25  27.5 37.5 46.25  27.5 37.5 47.5  27.5 36.25 47.5  26.25 36.25 47.5  26.25 37.5 46.25  27.5 38.75 46.25  27.5 38.75 45  26.25 38.75 46.25  27.5 40 45  27.5 40 46.25  27.5 40 47.5  27.5 38.75 47.5  26.25 38.75 47.5  25 28.75 48.75  23.75 28.75 48.75  25 30 48.75  25 30 50  26.25 28.75 48.75  26.25 30 48.75  27.5 30 48.75  27.5 30 50  26.25 30 50  26.25 31.25 48.75  27.5 31.25 48.75  27.5 32.5 48.75  27.5 32.5 50  27.5 31.25 50  26.25 31.25 50  26.25 32.5 48.75  26.25 32.5 50  27.5 33.75 48.75  26.25 33.75 48.75  27.5 35 48.75  27.5 35 50  27.5 33.75 50  26.25 33.75 50  26.25 35 48.75  26.25 35 50  26.25 36.25 48.75  27.5 36.25 48.75  27.5 37.5 48.75  27.5 37.5 50  27.5 36.25 50  26.25 36.25 50  26.25 37.5 48.75  27.5 38.75 48.75  26.25 38.75 48.75  27.5 40 48.75  27.5 40 50  27.5 38.75 50  25 22.5 37.5  26.25 22.5 38.75  26.25 22.5 37.5  26.25 21.25 38.75  27.5 22.5 37.5  27.5 22.5 38.75  27.5 22.5 40  25 22.5 38.75  25 22.5 40  26.25 22.5 40  25 23.75 38.75  25 23.75 37.5  23.75 23.75 38.75  23.75 23.75 37.5  25 25 37.5  25 25 38.75  25 25 40  25 23.75 40  26.25 23.75 38.75  26.25 23.75 37.5  27.5 23.75 38.75  27.5 23.75 37.5  27.5 25 37.5  27.5 25 38.75  27.5 25 40  27.5 23.75 40  26.25 23.75 40  26.25 25 38.75  26.25 25 37.5  26.25 25 40  26.25 26.25 38.75  26.25 26.25 37.5  27.5 26.25 38.75  27.5 26.25 37.5  27.5 27.5 37.5  27.5 27.5 38.75  27.5 27.5 40  27.5 26.25 40  26.25 26.25 40  25 26.25 37.5  26.25 27.5 38.75  26.25 27.5 37.5  25 26.25 38.75  25 26.25 40  26.25 27.5 40  25 27.5 38.75  27.5 28.75 38.75  27.5 28.75 40  27.5 22.5 41.25  27.5 21.25 41.25  26.25 21.25 41.25  27.5 22.5 42.5  27.5 20 42.5  27.5 21.25 42.5  25 20 42.5  26.25 21.25 42.5  26.25 20 42.5  26.25 22.5 41.25  25 22.5 42.5  26.25 22.5 42.5  25 22.5 41.25  26.25 23.75 41.25  27.5 23.75 41.25  27.5 25 41.25  27.5 25 42.5  27.5 23.75 42.5  26.25 23.75 42.5  26.25 25 41.25  25 23.75 41.25  25 23.75 42.5  25 25 42.5  26.25 25 42.5  25 25 41.25  26.25 26.25 41.25  27.5 26.25 41.25  27.5 27.5 41.25  27.5 27.5 42.5  27.5 26.25 42.5  26.25 26.25 42.5  26.25 27.5 41.25  25 26.25 42.5  26.25 27.5 42.5  25 27.5 41.25  27.5 28.75 41.25  27.5 28.75 42.5  26.25 21.25 43.75  27.5 21.25 43.75  27.5 22.5 43.75  27.5 22.5 45  26.25 20 43.75  27.5 20 43.75  27.5 20 45  27.5 21.25 45  25 20 45  26.25 21.25 45  26.25 20 45  26.25 22.5 43.75  25 22.5 45  26.25 22.5 45  26.25 23.75 43.75  27.5 23.75 43.75  27.5 25 43.75  27.5 25 45  27.5 23.75 45  26.25 23.75 45  26.25 25 43.75  25 25 45  26.25 25 45  25 25 43.75  25 26.25 43.75  23.75 26.25 43.75  25 26.25 45  26.25 26.25 43.75  27.5 26.25 43.75  27.5 27.5 43.75  27.5 27.5 45  27.5 26.25 45  26.25 26.25 45  26.25 27.5 43.75  26.25 27.5 45  27.5 28.75 43.75  27.5 28.75 45  27.5 20 46.25  27.5 18.75 46.25  26.25 18.75 46.25  27.5 20 47.5  27.5 17.5 47.5  27.5 18.75 47.5  26.25 18.75 47.5  26.25 20 46.25  25 20 47.5  26.25 20 47.5  26.25 21.25 46.25  27.5 21.25 46.25  27.5 22.5 46.25  27.5 22.5 47.5  27.5 21.25 47.5  26.25 21.25 47.5  26.25 22.5 46.25  25 21.25 47.5  25 22.5 47.5  26.25 22.5 47.5  25 22.5 46.25  26.25 23.75 46.25  27.5 23.75 46.25  27.5 25 46.25  27.5 25 47.5  27.5 23.75 47.5  26.25 23.75 47.5  26.25 25 46.25  25 23.75 47.5  25 25 47.5  26.25 25 47.5  25 25 46.25  26.25 26.25 46.25  27.5 26.25 46.25  27.5 27.5 46.25  27.5 27.5 47.5  27.5 26.25 47.5  26.25 26.25 47.5  26.25 27.5 46.25  25 26.25 46.25  25 26.25 47.5  26.25 27.5 47.5  27.5 28.75 46.25  27.5 28.75 47.5  27.5 18.75 48.75  26.25 18.75 48.75  27.5 20 48.75  27.5 20 50  27.5 17.5 50  27.5 18.75 50  26.25 18.75 50  26.25 20 48.75  25 20 50  26.25 20 50  26.25 21.25 48.75  27.5 21.25 48.75  27.5 22.5 48.75  27.5 22.5 50  27.5 21.25 50  26.25 21.25 50  26.25 22.5 48.75  25 22.5 50  26.25 22.5 50  25 22.5 48.75  26.25 23.75 48.75  27.5 23.75 48.75  27.5 25 48.75  27.5 25 50  27.5 23.75 50  26.25 23.75 50  26.25 25 48.75  25 25 50  26.25 25 50  25 25 48.75  25 26.25 48.75  23.75 26.25 48.75  25 27.5 48.75  25 27.5 50  25 26.25 50  26.25 26.25 48.75  27.5 26.25 48.75  27.5 27.5 48.75  27.5 27.5 50  27.5 26.25 50  26.25 26.25 50  26.25 27.5 48.75  26.25 27.5 50  25 28.75 50  27.5 28.75 48.75  27.5 28.75 50  26.25 28.75 50  25 22.5 35  25 23.75 35  25 23.75 33.75  23.75 23.75 33.75  25 25 35  23.75 23.75 35  27.5 22.5 35  27.5 23.75 35  26.25 23.75 35  26.25 23.75 33.75  27.5 25 35  26.25 25 35  25 25 32.5  26.25 25 33.75  25 25 33.75  25 26.25 33.75  25 26.25 32.5  23.75 26.25 33.75  25 27.5 32.5  25 27.5 33.75  25 26.25 35  26.25 26.25 33.75  26.25 26.25 35  27.5 26.25 35  27.5 27.5 35  26.25 27.5 35  26.25 27.5 33.75  27.5 28.75 35  25 23.75 36.25  23.75 23.75 36.25  25 25 36.25  23.75 25 36.25  27.5 23.75 36.25  26.25 23.75 36.25  27.5 25 36.25  26.25 25 36.25  25 26.25 36.25  23.75 26.25 36.25  26.25 26.25 36.25  27.5 26.25 36.25  27.5 27.5 36.25  26.25 27.5 36.25  27.5 28.75 36.25  27.5 28.75 37.5  27.5 22.5 32.5  27.5 23.75 32.5  27.5 23.75 31.25  26.25 23.75 31.25  27.5 25 32.5  26.25 23.75 32.5  26.25 25 32.5  26.25 25 31.25  30 22.5 32.5  30 23.75 32.5  30 23.75 31.25  28.75 23.75 31.25  30 25 32.5  28.75 23.75 32.5  28.75 25 32.5  31.25 23.75 32.5  31.25 22.5 32.5  31.25 23.75 31.25  32.5 22.5 32.5  32.5 23.75 32.5  32.5 25 32.5  31.25 25 32.5  32.5 22.5 30  33.75 23.75 31.25  33.75 22.5 31.25  33.75 22.5 30  35 22.5 30  35 23.75 31.25  35 22.5 31.25  35 22.5 32.5  35 23.75 32.5  35 25 32.5  32.5 22.5 31.25  33.75 23.75 32.5  33.75 22.5 32.5  33.75 25 32.5  36.25 23.75 31.25  36.25 22.5 31.25  36.25 22.5 30  37.5 22.5 30  37.5 23.75 31.25  37.5 22.5 31.25  37.5 22.5 32.5  37.5 23.75 32.5  37.5 25 32.5  36.25 23.75 32.5  36.25 22.5 32.5  36.25 25 32.5  38.75 23.75 31.25  38.75 22.5 31.25  38.75 22.5 30  40 22.5 30  40 23.75 31.25  40 22.5 31.25  40 22.5 32.5  40 23.75 32.5  40 25 32.5  38.75 23.75 32.5  38.75 22.5 32.5  38.75 25 32.5  41.25 23.75 31.25  41.25 23.75 32.5  41.25 25 32.5  42.5 25 32.5  26.25 26.25 32.5  26.25 26.25 31.25  32.5 22.5 33.75  32.5 21.25 33.75  31.25 21.25 33.75  32.5 22.5 35  32.5 20 35  32.5 21.25 35  31.25 21.25 35  31.25 22.5 33.75  30 22.5 35  31.25 22.5 35  30 22.5 33.75  33.75 22.5 33.75  33.75 21.25 33.75  33.75 21.25 32.5  35 22.5 33.75  35 22.5 35  33.75 21.25 35  33.75 22.5 35  27.5 23.75 33.75  27.5 25 33.75  30 23.75 33.75  28.75 23.75 33.75  30 25 33.75  30 25 35  30 23.75 35  28.75 23.75 35  28.75 25 33.75  28.75 25 35  31.25 23.75 33.75  32.5 23.75 33.75  32.5 25 33.75  32.5 25 35  32.5 23.75 35  31.25 23.75 35  31.25 25 33.75  31.25 25 35  33.75 23.75 33.75  35 23.75 33.75  35 25 33.75  35 25 35  35 23.75 35  33.75 23.75 35  33.75 25 33.75  33.75 25 35  36.25 23.75 33.75  37.5 23.75 33.75  37.5 25 33.75  37.5 25 35  36.25 22.5 33.75  37.5 22.5 33.75  37.5 22.5 35  37.5 23.75 35  36.25 23.75 35  36.25 22.5 35  36.25 25 33.75  36.25 25 35  38.75 23.75 33.75  40 23.75 33.75  40 25 33.75  40 25 35  38.75 22.5 33.75  40 22.5 33.75  40 22.5 35  40 23.75 35  38.75 23.75 35  38.75 22.5 35  38.75 25 33.75  38.75 25 35  41.25 23.75 33.75  41.25 22.5 32.5  42.5 22.5 32.5  42.5 23.75 33.75  42.5 23.75 32.5  42.5 25 33.75  42.5 25 35  41.25 22.5 33.75  42.5 22.5 33.75  42.5 22.5 35  42.5 23.75 35  41.25 23.75 35  41.25 22.5 35  41.25 25 33.75  41.25 25 35  43.75 23.75 33.75  43.75 22.5 33.75  43.75 23.75 35  43.75 22.5 35  45 22.5 35  45 23.75 35  45 25 35  43.75 2
[...]
<PointData  Scalars="c_HbCO2"> 
<DataArray  type="Float64"  Name="c_HbCO2"  format="ascii">-1.9256089199585642e-36  -7.3119392007987566e-38  -4.0774574661010297e-37  -4.2482690391996511e-37  2.3148559506315348e-36  -2.7462826945298061e-37  -3.4457415468183569e-38  -5.1075867841557105e-37  7.3075252963534365e-37  4.3718931726909292e-37  2.8060568123747046e-37  3.2155434269977872e-37  -1.2992719511005160e-36  3.1321603940784175e-38  6.3810091813380761e-38  4.2622678231358156e-37  3.1148352276335922e-37  3.0093358675545066e-37  8.5268698987482844e-37  5.9185588885535624e-37  -5.1420736584047018e-37  -4.2516100419372511e-38  -1.1888799096773926e-37  -8.0127040194867739e-37  -7.2815946018012979e-37  2.2667165088298571e-37  -6.4890130927292325e-37  1.1389921214698073e-36  2.0281712433877283e-37  8.4870710282080043e-37  -1.3249307392921076e-37  1.1562790528330270e-37  -1.2970342285481085e-37  1.1009547907749494e-36  8.5650054904817234e-37  4.2593447126453255e-37  3.0238178672920620e-37  -9.4277674804095601e-37  -5.0767957141398721e-36  -2.7297885009206945e-37  -1.4326797013255051e-36  2.2647447178495378e-36  -2.0350446064025302e-37  3.8606767116625814e-37  6.9061120593383001e-37  7.0367612714871736e-37  6.9524834771824405e-37  -7.0446783052290308e-38  2.7723853964094873e-36  -9.6636176491789482e-37  7.1498169127594323e-37  -7.6031316849238873e-38  -6.2564795853981686e-38  -1.4829619930873680e-36  6.4489457586740344e-37  3.8908806447031270e-37  -5.4046623566407048e-38  -1.4529720731596417e-37  1.1022167954020092e-36  7.7075540261927885e-37  2.4529508057280764e-36  -1.7873706139929956e-36  -8.4684115703346523e-37  -2.6916520816496266e-36  -1.7742541456307463e-36  1.8379598520632579e-36  5.1376406451630498e-37  -6.3259327355359290e-37  5.0793437563168728e-37  -1.7978463953816900e-36  3.8143733222400283e-37  -1.6594437353180502e-37  -1.5931388425914951e-37  1.3221877996678161e-37  -1.8320833788859580e-36  4.9614327053254620e-37  -2.3015505295835781e-37  -2.2365368674274351e-36  -8.5473385588819428e-37  1.8471647082605412e-36  -9.1503230132159539e-37  9.1887536752728961e-37  1.2075768748705757e-36  -9.4469763362157114e-37  -1.1240270587575060e-36  -2.4709599672007376e-36  -8.8733821764341007e-36  2.6824713479111273e-37  -1.7826239408073409e-37  -7.4284737496236055e-37  -1.8481479671782111e-36  -5.9208830276144494e-37  -5.4794582187934703e-37  8.3652088486340913e-37  1.0811649162077329e-36  -1.0321385467917601e-37  -3.3920722709737355e-37  7.3443464572228165e-37  1.1570947901292429e-36  4.1260442527823337e-37  -1.0278227263829598e-36  -3.4604336126050205e-37  9.8251199099531766e-37  1.2939584310065685e-37  1.0402197300660082e-37  -6.0361702512184727e-38  -3.9289080033613272e-37  -6.0113407493012869e-37  -1.1231568174724659e-36  1.4992893646576715e-36  1.0821143966831137e-36  -3.0266737711879754e-37  4.1408921425730188e-37  -2.5633065724495046e-37  -1.1377992179180125e-36  -9.0637878537467999e-39  -5.8796087745644911e-37  6.2756917760989685e-37  -1.7970637680340351e-36  3.5408439103132747e-36  -2.0824200813001184e-36  -9.5499883874775314e-37  3.5556995700803805e-36  -2.4441609344479511e-36  -1.5549599028523941e-36  -1.0027932300470373e-36  3.2496868586337301e-37  8.5568815248433955e-38  -8.4912431264328676e-37  -3.2722358253637793e-37  3.1240380281913437e-37  1.7850010228788137e-36  3.1444948579163628e-37  -3.3209686568526038e-37  -1.5887841836903858e-36  2.1466734979616408e-37  1.0518625582095910e-37  3.0519157669329575e-37  -3.4100183761203006e-37  -2.4400259292678581e-36  -1.0522048654664053e-36  8.1060593603599450e-37  -1.6065385633272666e-36  -4.9334302268446746e-37  -5.9368456184742841e-37  -2.7072189887860994e-37  9.4337926369699742e-37  5.6586970295301775e-37  3.8870668315361121e-37  -1.1176678821116856e-36  1.8908900120851300e-37  2.9647093655826949e-36  2.8796440795244033e-37  2.9959844162121164e-38  -6.9496667390814394e-37  -3.1959236324644512e-36  -1.5185372063187913e-36  7.4616500556879064e-37  -5.3916973152660662e-37  1.3619392476474744e-37  -1.2780474327327430e-36  -4.1435101053368700e-37  -3.4758672711128984e-36  1.0462218685606436e-36  1.0433010938946629e-37  -2.1710164691774843e-37  -1.0078908404497864e-36  -8.7454860383493850e-37  -1.2430050364922780e-35  8.7459378307642006e-37  -3.9773190371812142e-36  1.0444348039587393e-36  -1.4867393269479115e-36  2.2479275105598420e-37  -9.4568254099302028e-38  -7.2089524150035028e-37  -3.7976581368045208e-37  -1.1477385190348893e-36  -4.4378358674843461e-38  -1.5965590093917797e-37  -2.7858286638116580e-37  -2.2410571462380600e-37  3.5355411601744771e-37  -2.6507757686318726e-36  -4.2593587417897833e-36  -2.0574296819701752e-36  -4.9682482715187968e-37  -1.7789243563194791e-36  -1.4193300511451352e-36  -9.8628794105762021e-39  -5.9599660673597005e-37  6.1322600598388038e-36  -2.2667142470755961e-36  -6.8691596818304300e-37  -1.1278644489808455e-36  -2.1525737388792046e-38  -4.7562178391001207e-37  -1.5140989066486685e-36  -9.2256115018514501e-38  1.9022295895303327e-36  -2.0262673516502683e-36  -1.3001709461320201e-37  -2.7721933402708137e-36  -2.1804215138114853e-37  -8.7498222410746967e-37  2.8642363090548208e-36  -3.4552561002915237e-37  -1.7516301860148338e-37  5.3540322224595804e-37  -6.2041401425345619e-37  1.0417262553603245e-36  -1.0696136803755741e-36  -7.3583426080967800e-37  -3.1162800174671460e-36  -1.7510855473414884e-37  -1.7863078041643624e-36  -2.9312020814709866e-37  -1.0485259372674080e-36  5.0717467022047622e-36  -5.8046351254884627e-36  -1.9087463494510997e-36  -3.0587874684857985e-36  1.8864015520943123e-36  2.9017776554786244e-36  9.8127235582693227e-38  -2.8899011377560874e-37  -5.1358333494961278e-37  7.0814225570211222e-38  5.8948850793695477e-37  5.6301488579453888e-37  3.6794838602314455e-38  -6.7297746892707373e-37  -2.3320120090003066e-36  -3.5428047875574966e-37  1.6914368710123473e-36  -1.8477366867110760e-36  6.8031039471184529e-38  1.9751633686044703e-37  3.2206462721663321e-37  -3.6357041574638053e-37  -1.7922293249767684e-37  -6.5590627909608337e-37  -4.9296161022798821e-37  3.2967720498894848e-38  -3.4546952874567821e-37  6.8766252086676781e-36  6.1983044074665124e-37  -2.1973313829000779e-38  2.6862450016683834e-36  -4.2326916253330911e-37  -1.3179387813677348e-36  -5.1079165752561781e-37  8.1840378691046439e-37  1.8948425758594383e-37  5.6966888236717600e-37  8.3733566290639409e-39  4.3724951276996364e-37  -6.4532183306248449e-37  -4.5780833987064870e-37  -4.6461749292231803e-37  -1.8777780113261559e-36  4.8886834692447599e-37  7.1646172716916823e-37  3.0968103553751693e-37  -1.2483007780972482e-36  3.2521947779910652e-38  -1.4796799338847566e-36  -5.4543747408746459e-37  -1.2736693987839073e-37  4.4394521485953929e-37  7.4929100380644124e-38  6.4913018690307091e-37  5.4374932942811428e-37  -2.5810604917335117e-37  9.3354973430838841e-37  4.2338191174933465e-36  1.6553018451902426e-36  -7.3064582919956546e-37  2.7407817863899580e-36  -8.0259531102628747e-37  -4.4570469701159947e-37  -2.3438839066919176e-37  2.4252842465708233e-37  6.8196657913220816e-37  -3.1450076337493885e-38  7.9412372254090662e-37  -5.7614168611131395e-37  8.7842289502798608e-38  -1.5480840294401464e-36  9.2640183629489040e-37  5.8606682306027591e-38  3.3634453909103896e-37  -3.2745308859022793e-37  -8.6156494048562514e-37  8.1278343560543402e-38  1.7041815866282820e-36  -9.4052751540723180e-38  3.0050829864403071e-37  -2.1985911253789643e-38  -1.6911153390887397e-36  -3.2775630536702442e-38  6.1597040591243109e-37  -1.3582051982451103e-36  -2.5152403745883052e-38  6.4880139261707714e-37  -8.5615315315770889e-37  1.2871420204059593e-37  6.6137949777385617e-37  -6.1134917907166789e-37  4.4070287128268412e-37  -1.4172833981146419e-36  -2.1216574328861902e-36  -2.3204107886888345e-38  -5.5560605658194774e-37  -3.4816411555892486e-36  -1.7035592914607957e-37  -1.1837886700446053e-36  1.3276179049455184e-36  9.7527461955546662e-38  4.1722284030059200e-37  -8.4471190572549000e-37  -1.9594116085729842e-37  4.2127923732267114e-37  -2.3271546796037656e-37  -4.9032872142690146e-37  -1.1216101211882552e-36  7.8157776053091361e-37  3.4379432166940287e-37  1.8166276849190297e-37  1.8351081526100262e-36  1.1094431024425668e-36  -1.8235851358957073e-37  -7.6501033588910951e-37  -6.6751208397813888e-38  -7.9934598675881311e-37  -6.3976730732203844e-37  -1.8982181723085867e-36  -4.7667330895122674e-37  -1.3016885159128022e-36  5.9472490868183688e-37  1.4787242545272476e-36  9.7412990148487835e-38  8.4428660775575073e-37  -3.1660887549566551e-37  6.5392978294230526e-37  1.6999778489900347e-36  1.8500754245268391e-36  1.2400129879677525e-36  -4.8645851321278249e-36  -4.0931673106709482e-37  2.2336092251047888e-36  8.6936118126327621e-37  2.4772169131909487e-37  -6.7546898515835016e-37  -1.3268451094278847e-37  -5.3799032823000540e-37  -4.8322323095914744e-37  -5.1411685815067218e-37  6.7447785211909623e-37  1.3415687864490502e-37  5.8908689797556159e-37  5.7660125584523319e-37  -5.0864245085911012e-37  1.9825345601794792e-37  9.1868964274773859e-37  2.3418978225679303e-36  -3.1972063909848963e-38  7.0061817887823471e-37  -3.6995223194872422e-36  9.3992077136036072e-37  2.2875331535497709e-37  1.1439471406435709e-37  -4.2811629643959614e-37  -7.6225461066770504e-37  -1.5831803903016855e-37  2.0072320715633139e-37  4.3100176325297632e-37  -1.9599945036414255e-37  -1.3519242867762098e-36  -2.5440177313112188e-37  2.8577298107895420e-37  3.9668005316085261e-37  -5.4938737703240971e-38  -3.5750572685116302e-37  -3.5092848997002821e-37  -3.2613526219400915e-37  -2.9988444707651875e-37  -1.0408343327626408e-36  2.8952910152303966e-37  -1.2250102670637100e-36  1.8496779633505968e-37  8.4341948093245182e-37  4.7734886475527746e-37  -1.4602237821763711e-36  -5.3526335889795994e-37  -5.4396624388960463e-37  -6.5488314283636942e-37  -1.4236571082675636e-36  -5.2515337195663279e-37  -2.7496127858861808e-36  -3.4085648582093574e-37  1.2126207850696947e-36  -7.4998207890557816e-37  -1.2119225746157742e-36  1.5551756335464626e-36  -3.2747368865609946e-37  1.2385433959576855e-36  -8.6428605276437199e-37  -3.9001976407000030e-37  1.9417322345359244e-37  1.2432487084717062e-37  -9.9508614722960703e-37  -5.9437372789270448e-39  1.1909414142498741e-36  1.1223779058634445e-36  -1.4776925952567038e-36  6.9153381146899072e-37  3.3680137427165166e-37  -2.9453103381137060e-37  1.3353630153468419e-36  -9.9015759682072965e-38  6.7998050809249269e-37  1.8829731048819203e-37  -8.1377942768181902e-37  -1.5186268563954932e-36  3.5828528085034780e-38  4.0141074212410733e-37  -4.2372432882346008e-37  -7.3390597886520393e-37  -1.0259512636517892e-37  1.0284321774465202e-37  8.1521993307780658e-37  -8.6759553968310107e-37  -5.6375803234056749e-37  9.6789231848388733e-37  9.7704686556406876e-37  -2.8010093871241351e-37  1.0106299968622332e-36  1.3511126929374779e-37  5.6102792447225752e-37  9.3672206451993665e-37  -7.5319694576701582e-37  -4.1968450371399035e-37  6.9264407159678906e-37  -3.0842819638723430e-37  -1.1965824476129028e-36  -2.6310593021157333e-37  4.9524129510998337e-36  -2.7083518150601869e-36  -1.8950181152037902e-36  8.5372298282314266e-36  -6.7136414920601690e-37  6.0151781805045969e-37  1.2795009414487884e-36  -5.9613720854073104e-39  7.2635866936717957e-37  7.8590282722104099e-37  -4.0090433766262179e-37  -7.4743762669664750e-37  -1.0773595695803378e-36  -8.0085375279325873e-37  5.6878955612481009e-38  2.2724258687887421e-37  -2.3286539459295084e-37  -5.0335468248223111e-37  6.2055714831887323e-37  -1.5388305114319990e-36  1.0225585038228996e-37  -2.2034104219716519e-37  1.4572339736194836e-37  6.5486656177485200e-37  -3.2763265757633760e-37  4.7022602853130394e-38  -5.7535636214783297e-37  4.2302269284035655e-37  5.0729032605039810e-37  -9.2903366813402726e-39  7.6017554053356304e-37  -1.2216648741433842e-37  -2.0659763727335260e-37  2.8769260520206826e-37  -1.0892179503359073e-37  -2.5154516210178893e-38  1.0371356673618773e-37  -3.3213616216814061e-37  -1.7801651893348025e-38  -3.0101396903011912e-38  -7.0296954939118010e-38  -2.2238798377938982e-37  -1.1188797227566711e-39  1.1564168673963331e-38  -8.4118433702590068e-39  -9.7086242501993098e-39  5.0816997095748494e-38  -1.4891883572118036e-39  -2.4740961911898751e-37  -2.5284501982830624e-38  -5.3099679145404946e-38  3.4408457402776569e-38  -1.9214945770821055e-38  1.1297845951583343e-38  1.0173831399832846e-37  6.3337602911518134e-39  -1.4298901073601843e-38  5.0914276642652967e-39  3.1191144527918767e-39  -2.1307885252821355e-38  -1.0210339515360825e-39  6.2775055244314642e-39  3.4161562835325072e-38  -3.3056899645262544e-38  1.6660974770033144e-38  1.0376010568277753e-38  -1.1203831015592884e-38  -1.0278467750716878e-38  -2.2381730720756531e-38  -6.0297215663141563e-40  6.5519978234477211e-39  -7.1439561622075800e-40  2.5806786976815900e-39  -3.7298866533630947e-39  4.5379851453243983e-39  1.1653498982185156e-38  -1.1915092722114505e-39  -2.1814772830649743e-39  4.6573286155923717e-39  -2.7549092437499433e-40  -1.1597213508754590e-36  -9.6875786373140540e-37  2.1606480934692822e-38  1.0822371707242464e-36  2.1913196344680546e-37  5.9991447265133215e-38  1.2734285212670867e-37  7.0962985368941948e-38  -4.0723940051548930e-37  -1.4053543537606040e-37  1.5695582165629771e-37  -1.6741318051924850e-37  3.5727336429625371e-37  4.1385729433211661e-38  -1.2160113855096744e-37  2.1165342562275206e-37  -8.9615843002428241e-38  -1.6908568753601203e-38  -1.9881042885804579e-37  -6.8708390791950240e-38  -6.3712937584711868e-38  -7.0685634898294225e-37  -2.7463333518164831e-37  -1.3912604714363442e-37  2.7838258218213068e-37  1.4347234179935756e-37  2.5764150922136400e-37  -1.3597339328964761e-36  1.4761309013606001e-37  -1.4778503151540161e-37  -1.4845367917234514e-37  4.0970727502775041e-38  5.6307803674811433e-38  3.8681296366530761e-39  -1.1564884860479136e-37  -3.6860641263282807e-37  5.0699057681436486e-38  -1.2871469157356142e-37  1.5956040307321567e-38  -1.1708266959143896e-38  3.9045255799156745e-39  1.1274986226709035e-38  -1.0486891082927110e-38  9.6617261809540795e-38  1.0203973108348725e-38  9.1251943461244330e-39  2.1772590309442532e-38  -8.6638230380609892e-39  6.8732516526135521e-39  7.0067948091796290e-39  1.2176158671180694e-38  9.4082265294313558e-39  9.7094212970122421e-39  1.6036889903945025e-38  1.4248995520023583e-38  5.7324119475576303e-39  1.0291006121494349e-38  2.8575592982598227e-38  -1.6459546823746464e-39  -5.0211563934356485e-39  -2.5773542821363360e-39  -7.7957842828814466e-39  4.4484419250026333e-40  2.4954489775233219e-39  -5.6395115130904471e-39  -1.2979460581689456e-38  -1.2210338911550709e-38  1.1878626580903692e-39  -3.9072731209625000e-39  1.3687806420594970e-39  4.1593235122050172e-40  2.5219728431160549e-39  9.6459509568648894e-41  1.2260785335759623e-39  -9.3569006764556417e-40  1.3742645648749463e-39  6.5562235331882722e-40  3.8416337358193513e-39  5.9948064728541486e-41  5.1381526232593063e-40  1.5304220221605510e-39  1.3544507920062643e-39  5.0162241612773975e-40  2.1549474167498181e-39  -5.2705543721418339e-39  -4.2394475610125158e-40  -1.1332793040086083e-39  -4.0369807311250770e-40  -3.5977013561658391e-40  -1.4920641127449271e-40  -1.9984449908418029e-40  -3.4562945890432632e-40  1.1341832363493388e-39  -1.0701189715392930e-39  1.1032855492970249e-39  1.3258981310451276e-40  -3.4435711705972172e-40  1.9946040356541716e-40  -2.3394852083481208e-38  3.0409287515150393e-37  8.9482558032432085e-37  -4.9719825074917434e-38  3.6298859966595333e-37  -2.2317432507017055e-37  1.5588042977630556e-37  5.6151776496707070e-37  8.9664528769232816e-38  5.3705831744217199e-39  -1.1775810514312393e-37  1.7744925277551163e-38  1.4007677268530740e-37  -3.0751024170345661e-37  -3.3243464687916859e-38  3.2088422261666806e-40  -9.6689065292806017e-39  2.1846305310402007e-38  -2.6195399497231962e-38  2.8921862128299306e-38  2.7960427432551195e-39  6.9317551792931929e-39  5.7937057336061910e-39  -7.7405425765772427e-40  -7.3783955705972329e-40  -9.1172425921537424e-39  -1.9273446781163596e-39  -1.9553885569461875e-38  -4.0577684706530538e-38  -8.9102424042536710e-40  -2.7943870678662395e-39  -6.7414343797999615e-39  6.8935281548354253e-39  -2.9271517421303686e-39  -1.2977693663962397e-38  -7.5214160277130592e-39  -1.1086490896498859e-38  -5.5451285345814997e-39  1.9008584518887909e-40  -1.4691070666878873e-39  -1.0785141233046020e-39  -7.6700665030569843e-40  1.3068769584602449e-39  3.8854242362240909e-40  4.7694920677244346e-39  4.9675080137260655e-39  2.9608559798126811e-39  1.5652222357728447e-39  5.3621686825504137e-39  -8.7882536909499597e-40  3.3773565703625275e-40  -1.8762935453517231e-39  6.9840863857367743e-40  5.7154027402850322e-41  1.6838006353171902e-40  -1.8485764939493548e-39  -3.1141506978743257e-39  -1.8491176697140499e-39  -6.0888081161345444e-40  -2.5851933287550373e-39  5.6459566217097947e-41  2.5185028806975110e-40  -1.4058942319769208e-40  3.4306083280913472e-40  -9.4550834736302959e-41  4.2028829889822816e-42  -1.2808880938597388e-40  3.1654537358219258e-40  1.3072243209933485e-40  1.1504453030315761e-40  4.4565937256905349e-43  3.5163119691877955e-40  8.4143841263425478e-40  3.4802611825910285e-40  8.4760736536512839e-40  1.3171374351297248e-39  -1.2053443192326244e-42  -2.3589173606262124e-41  1.6941343096479289e-41  -1.0579452736349656e-41  3.0200545749501249e-41  -7.8096427162695781e-42  -1.5006746855881575e-41  -3.6310614098563459e-41  -2.9311139423922248e-41  1.2912488199670009e-43  -4.0457698454311343e-42  -9.9055826695540339e-41  -2.3167220201572263e-40  -1.1038108778709975e-40  -1.1312700939460250e-40  -3.0330953078699121e-40  2.4344526852468667e-37  1.2837657173602137e-37  -2.9741909568870079e-37  -9.7668573253275158e-38  -4.3225803816926716e-37  2.2467924091129900e-40  -3.7735153927534850e-39  -2.3870768265912528e-39  8.8308444906053052e-39  -1.1951319252953032e-38  -5.6196295954108534e-38  -1.6864653292157040e-38  1.1286087063847234e-38  5.3264156601747957e-39  -2.3725405542100257e-39  3.1969443182907864e-39  -9.8424652363226953e-40  9.6536473505716736e-39  1.0608501401553095e-39  -3.1301664412715269e-40  3.3281178684850384e-40  -8.0306041777536421e-41  1.7483197481704266e-40  -3.4532145330546372e-39  -4.2456751189161152e-39  -2.5354403959423858e-40  1.2565093172999845e-40  -1.1017363907982538e-40  -1.8395682573934903e-40  1.2383111062963607e-39  1.3602977640699043e-39  1.1714837910614331e-40  2.8093786066488791e-40  -1.0124958279606748e-40  1.3990549923663370e-40  3.5795184932292846e-41  7.3839717344520025e-42  3.5345502777849115e-41  -2.6138391759460648e-40  -1.2263051324479231e-40  -2.1677631558588997e-40  2.1702910762326079e-40  5.0392801257490475e-41  -1.4097385042178618e-40  1.5704923538339338e-41  3.8959196965479582e-41  -4.3596583425780619e-41  -1.7029251034585445e-40  4.6162925367820538e-41  -6.7784169717278216e-41  4.5754372515463137e-39  7.3597398490162978e-37  -1.3021547207023213e-37  -7.7867269002175836e-39  2.2794856397011292e-37  -7.3187785060893518e-38  1.3620798386012375e-37  1.7227631898946233e-37  -1.3167025269820740e-37  -6.2596748915474208e-38  -7.3077357564651399e-38  3.4654018489070220e-37  -9.6472265297102286e-38  2.8491273670126351e-39  -5.5589946468957896e-38  -4.7866822838575911e-38  2.7841401290197415e-38  1.4476198556018585e-38  1.9666495199823911e-38  1.0740484005678298e-37  -2.8953800994289021e-38  -1.2072688578350888e-37  -3.0460622654339409e-37  -6.2097489576207933e-38  -1.8127570815876833e-37  1.3167867285804000e-37  4.5669360989079635e-39  -1.1374031315215732e-38  -2.4016913997816715e-38  1.1116578016665478e-38  5.7188530677385931e-39  3.6876296277201570e-38  5.6806871963905593e-38  3.2519092541159135e-38  1.2051316023000189e-37  -2.4314767089689412e-37  2.6351122930267063e-37  4.4225452385153722e-38  1.9129857503611503e-37  4.9444599987681024e-38  -3.7959123010229493e-37  -5.8567715598933850e-37  -8.1011447810284531e-38  3.3511611688772262e-37  -1.38584033171