<?xml version="1.0"?>
<VTKFile type="UnstructuredGrid"  version="0.1"  >
<UnstructuredGrid>
<Piece  NumberOfPoints="14563" NumberOfCells="76248">
<Points>
<DataArray  type="Float64"  NumberOfComponents="3"  format="ascii">25 30 0  25 31.25 1.25  25 31.25 0  23.75 31.25 1.25  23.75 31.25 0  25 32.5 0  25 32.5 1.25  25 32.5 2.5  25 30 1.25  25 30 2.5  25 31.25 2.5  22.5 30 2.5  23.75 31.25 2.5  23.75 30 2.5  22.5 32.5 0  23.75 32.5 1.25  23.75 32.5 0  22.5 31.25 2.5  22.5 31.25 1.25  22.5 32.5 2.5  23.75 32.5 2.5  22.5 32.5 1.25  26.25 31.25 1.25  26.25 31.25 0  26.25 32.5 1.25  26.25 32.5 0  27.5 32.5 0  27.5 32.5 1.25  27.5 32.5 2.5  26.25 31.25 2.5  26.25 32.5 2.5  23.75 33.75 1.25  23.75 33.75 0  25 33.75 1.25  25 33.75 0  25 35 0  25 35 1.25  25 35 2.5  25 33.75 2.5  23.75 33.75 2.5  22.5 33.75 0  22.5 35 0  23.75 35 1.25  23.75 35 0  26.25 33.75 1.25  26.25 33.75 0  27.5 33.75 1.25  27.5 33.75 0  27.5 35 0  27.5 35 1.25  27.5 35 2.5  27.5 33.75 2.5  26.25 33.75 2.5  26.25 35 1.25  26.25 35 0  26.25 35 2.5  30 35 0  30 35 1.25  30 33.75 1.25  28.75 33.75 1.25  30 35 2.5  30 32.5 2.5  30 33.75 2.5  28.75 33.75 2.5  28.75 32.5 2.5  28.75 33.75 0  28.75 35 1.25  28.75 35 0  28.75 35 2.5  32.5 32.5 0  32.5 33.75 1.25  32.5 33.75 0  31.25 33.75 1.25  31.25 33.75 0  32.5 35 0  32.5 35 1.25  32.5 35 2.5  31.25 35 1.25  31.25 35 0  31.25 33.75 2.5  31.25 35 2.5  33.75 33.75 1.25  33.75 33.75 0  33.75 35 1.25  33.75 35 0  35 35 0  35 35 1.25  35 35 2.5  33.75 35 2.5  33.75 33.75 2.5  37.5 32.5 0  37.5 33.75 1.25  37.5 33.75 0  36.25 33.75 1.25  36.25 33.75 0  37.5 35 0  37.5 35 1.25  37.5 35 2.5  36.25 35 1.25  36.25 35 0  36.25 35 2.5  40 35 0  40 35 1.25  40 33.75 1.25  38.75 33.75 1.25  40 33.75 0  38.75 33.75 0  40 35 2.5  38.75 35 1.25  38.75 35 0  38.75 35 2.5  38.75 33.75 2.5  41.25 35 1.25  41.25 35 0  41.25 33.75 1.25  41.25 33.75 0  42.5 35 0  42.5 35 1.25  42.5 35 2.5  41.25 35 2.5  41.25 33.75 2.5  23.75 36.25 1.25  23.75 36.25 0  25 36.25 1.25  25 36.25 0  25 37.5 0  25 37.5 1.25  25 37.5 2.5  25 36.25 2.5  26.25 36.25 1.25  26.25 36.25 0  27.5 36.25 1.25  27.5 36.25 0  27.5 37.5 0  27.5 37.5 1.25  27.5 37.5 2.5  27.5 36.25 2.5  26.25 36.25 2.5  26.25 37.5 1.25  26.25 37.5 0  26.25 37.5 2.5  28.75 36.25 1.25  28.75 36.25 0  30 36.25 1.25  30 36.25 0  30 37.5 0  30 37.5 1.25  30 37.5 2.5  30 36.25 2.5  28.75 36.25 2.5  28.75 37.5 1.25  28.75 37.5 0  28.75 37.5 2.5  31.25 36.25 1.25  31.25 36.25 0  32.5 36.25 1.25  32.5 36.25 0  32.5 37.5 0  32.5 37.5 1.25  32.5 37.5 2.5  32.5 36.25 2.5  31.25 36.25 2.5  31.25 37.5 1.25  31.25 37.5 0  31.25 37.5 2.5  33.75 36.25 1.25  33.75 36.25 0  35 36.25 1.25  35 36.25 0  35 37.5 0  35 37.5 1.25  35 37.5 2.5  35 36.25 2.5  33.75 36.25 2.5  33.75 37.5 1.25  33.75 37.5 0  33.75 37.5 2.5  36.25 36.25 1.25  36.25 36.25 0  37.5 36.25 1.25  37.5 36.25 0  37.5 37.5 0  37.5 37.5 1.25  37.5 37.5 2.5  37.5 36.25 2.5  36.25 36.25 2.5  36.25 37.5 1.25  36.25 37.5 0  36.25 37.5 2.5  38.75 36.25 1.25  38.75 36.25 0  40 36.25 1.25  40 36.25 0  40 37.5 0  40 37.5 1.25  40 37.5 2.5  40 36.25 2.5  38.75 36.25 2.5  38.75 37.5 1.25  38.75 37.5 0  38.75 37.5 2.5  41.25 36.25 1.25  41.25 36.25 0  42.5 36.25 1.25  42.5 36.25 0  42.5 37.5 0  42.5 37.5 1.25  42.5 37.5 2.5  42.5 36.25 2.5  41.25 36.25 2.5  41.25 37.5 1.25  41.25 37.5 0  41.25 37.5 2.5  43.75 36.25 1.25  43.75 36.25 0  43.75 35 0  45 35 0  45 36.25 1.25  45 36.25 0  45 37.5 0  45 37.5 1.25  45 37.5 2.5  43.75 35 1.25  45 35 1.25  45 35 2.5  45 36.25 2.5  43.75 36.25 2.5  43.75 35 2.5  43.75 37.5 1.25  43.75 37.5 0  43.75 37.5 2.5  47.5 35 0  47.5 36.25 1.25  47.5 36.25 0  46.25 36.25 1.25  46.25 36.25 0  47.5 37.5 0  47.5 37.5 1.25  47.5 37.5 2.5  47.5 35 2.5  47.5 36.25 2.5  46.25 36.25 2.5  46.25 35 2.5  46.25 37.5 1.25  46.25 37.5 0  46.25 37.5 2.5  50 37.5 0  50 37.5 1.25  50 36.25 1.25  48.75 36.25 1.25  50 37.5 2.5  50 35 2.5  50 36.25 2.5  48.75 36.25 2.5  48.75 36.25 0  48.75 37.5 1.25  48.75 37.5 0  48.75 37.5 2.5  26.25 38.75 1.25  26.25 38.75 0  27.5 38.75 1.25  27.5 38.75 0  27.5 40 0  27.5 40 1.25  27.5 40 2.5  27.5 38.75 2.5  26.25 38.75 2.5  28.75 38.75 1.25  28.75 38.75 0  30 38.75 1.25  30 38.75 0  30 40 0  30 40 1.25  30 40 2.5  30 38.75 2.5  28.75 38.75 2.5  28.75 40 1.25  28.75 40 0  28.75 40 2.5  31.25 38.75 1.25  31.25 38.75 0  32.5 38.75 1.25  32.5 38.75 0  32.5 40 0  32.5 40 1.25  32.5 40 2.5  32.5 38.75 2.5  31.25 38.75 2.5  31.25 40 1.25  31.25 40 0  31.25 40 2.5  33.75 38.75 1.25  33.75 38.75 0  35 38.75 1.25  35 38.75 0  35 40 0  35 40 1.25  35 40 2.5  35 38.75 2.5  33.75 38.75 2.5  33.75 40 1.25  33.75 40 0  33.75 40 2.5  36.25 38.75 1.25  36.25 38.75 0  37.5 38.75 1.25  37.5 38.75 0  37.5 40 0  37.5 40 1.25  37.5 40 2.5  37.5 38.75 2.5  36.25 38.75 2.5  36.25 40 1.25  36.25 40 0  36.25 40 2.5  38.75 38.75 1.25  38.75 38.75 0  40 38.75 1.25  40 38.75 0  40 40 0  40 40 1.25  40 40 2.5  40 38.75 2.5  38.75 38.75 2.5  38.75 40 1.25  38.75 40 0  38.75 40 2.5  41.25 38.75 1.25  41.25 38.75 0  42.5 38.75 1.25  42.5 38.75 0  42.5 40 0  42.5 40 1.25  42.5 40 2.5  42.5 38.75 2.5  41.25 38.75 2.5  41.25 40 1.25  41.25 40 0  41.25 40 2.5  43.75 38.75 1.25  43.75 38.75 0  45 38.75 1.25  45 38.75 0  45 40 0  45 40 1.25  45 40 2.5  45 38.75 2.5  43.75 38.75 2.5  43.75 40 1.25  43.75 40 0  43.75 40 2.5  46.25 38.75 1.25  46.25 38.75 0  47.5 38.75 1.25  47.5 38.75 0  47.5 40 0  47.5 40 1.25  47.5 40 2.5  47.5 38.75 2.5  46.25 38.75 2.5  46.25 40 1.25  46.25 40 0  46.25 40 2.5  48.75 38.75 1.25  48.75 38.75 0  50 38.75 1.25  50 38.75 0  50 40 0  50 40 1.25  50 40 2.5  50 38.75 2.5  48.75 38.75 2.5  48.75 40 1.25  48.75 40 0  48.75 40 2.5  28.75 41.25 1.25  28.75 41.25 0  30 41.25 1.25  30 41.25 0  30 42.5 0  30 42.5 1.25  30 42.5 2.5  30 41.25 2.5  28.75 41.25 2.5  27.5 41.25 0  27.5 42.5 0  28.75 42.5 1.25  28.75 42.5 0  27.5 41.25 1.25  27.5 41.25 2.5  27.5 42.5 2.5  28.75 42.5 2.5  27.5 42.5 1.25  31.25 41.25 1.25  31.25 41.25 0  32.5 41.25 1.25  32.5 41.25 0  32.5 42.5 0  32.5 42.5 1.25  32.5 42.5 2.5  32.5 41.25 2.5  31.25 41.25 2.5  31.25 42.5 1.25  31.25 42.5 0  31.25 42.5 2.5  33.75 41.25 1.25  33.75 41.25 0  35 41.25 1.25  35 41.25 0  35 42.5 0  35 42.5 1.25  35 42.5 2.5  35 41.25 2.5  33.75 41.25 2.5  33.75 42.5 1.25  33.75 42.5 0  33.75 42.5 2.5  36.25 41.25 1.25  36.25 41.25 0  37.5 41.25 1.25  37.5 41.25 0  37.5 42.5 0  37.5 42.5 1.25  37.5 42.5 2.5  37.5 41.25 2.5  36.25 41.25 2.5  36.25 42.5 1.25  36.25 42.5 0  36.25 42.5 2.5  38.75 41.25 1.25  38.75 41.25 0  40 41.25 1.25  40 41.25 0  40 42.5 0  40 42.5 1.25  40 42.5 2.5  40 41.25 2.5  38.75 41.25 2.5  38.75 42.5 1.25  38.75 42.5 0  38.75 42.5 2.5  41.25 41.25 1.25  41.25 41.25 0  42.5 41.25 1.25  42.5 41.25 0  42.5 42.5 0  42.5 42.5 1.25  42.5 42.5 2.5  42.5 41.25 2.5  41.25 41.25 2.5  41.25 42.5 1.25  41.25 42.5 0  41.25 42.5 2.5  43.75 41.25 1.25  43.75 41.25 0  45 41.25 1.25  45 41.25 0  45 42.5 0  45 42.5 1.25  45 42.5 2.5  45 41.25 2.5  43.75 41.25 2.5  43.75 42.5 1.25  43.75 42.5 0  43.75 42.5 2.5  46.25 41.25 1.25  46.25 41.25 0  47.5 41.25 1.25  47.5 41.25 0  47.5 42.5 0  47.5 42.5 1.25  47.5 42.5 2.5  47.5 41.25 2.5  46.25 41.25 2.5  46.25 42.5 1.25  46.25 42.5 0  46.25 42.5 2.5  48.75 41.25 1.25  48.75 41.25 0  50 41.25 1.25  50 41.25 0  50 42.5 0  50 42.5 1.25  50 42.5 2.5  50 41.25 2.5  48.75 41.25 2.5  48.75 42.5 1.25  48.75 42.5 0  48.75 42.5 2.5  28.75 43.75 1.25  28.75 43.75 0  30 43.75 1.25  30 43.75 0  30 45 0  30 45 1.25  30 45 2.5  30 43.75 2.5  28.75 43.75 2.5  27.5 43.75 0  27.5 45 0  28.75 45 1.25  28.75 45 0  31.25 43.75 1.25  31.25 43.75 0  32.5 43.75 1.25  32.5 43.75 0  32.5 45 0  32.5 45 1.25  32.5 45 2.5  32.5 43.75 2.5  31.25 43.75 2.5  31.25 45 1.25  31.25 45 0  31.25 45 2.5  33.75 43.75 1.25  33.75 43.75 0  35 43.75 1.25  35 43.75 0  35 45 0  35 45 1.25  35 45 2.5  35 43.75 2.5  33.75 43.75 2.5  33.75 45 1.25  33.75 45 0  33.75 45 2.5  36.25 43.75 1.25  36.25 43.75 0  37.5 43.75 1.25  37.5 43.75 0  37.5 45 0  37.5 45 1.25  37.5 45 2.5  37.5 43.75 2.5  36.25 43.75 2.5  36.25 45 1.25  36.25 45 0  36.25 45 2.5  38.75 43.75 1.25  38.75 43.75 0  40 43.75 1.25  40 43.75 0  40 45 0  40 45 1.25  40 45 2.5  40 43.75 2.5  38.75 43.75 2.5  38.75 45 1.25  38.75 45 0  38.75 45 2.5  41.25 43.75 1.25  41.25 43.75 0  42.5 43.75 1.25  42.5 43.75 0  42.5 45 0  42.5 45 1.25  42.5 45 2.5  42.5 43.75 2.5  41.25 43.75 2.5  41.25 45 1.25  41.25 45 0  41.25 45 2.5  43.75 43.75 1.25  43.75 43.75 0  45 43.75 1.25  45 43.75 0  45 45 0  45 45 1.25  45 45 2.5  45 43.75 2.5  43.75 43.75 2.5  43.75 45 1.25  43.75 45 0  43.75 45 2.5  46.25 43.75 1.25  46.25 43.75 0  47.5 43.75 1.25  47.5 43.75 0  47.5 45 0  47.5 45 1.25  47.5 45 2.5  47.5 43.75 2.5  46.25 43.75 2.5  46.25 45 1.25  46.25 45 0  46.25 45 2.5  48.75 43.75 1.25  48.75 43.75 0  50 43.75 1.25  50 43.75 0  50 45 0  50 45 1.25  50 45 2.5  50 43.75 2.5  48.75 43.75 2.5  48.75 45 1.25  48.75 45 0  48.75 45 2.5  28.75 46.25 1.25  28.75 46.25 0  30 46.25 1.25  30 46.25 0  30 47.5 0  30 47.5 1.25  30 47.5 2.5  30 46.25 2.5  31.25 46.25 1.25  31.25 46.25 0  32.5 46.25 1.25  32.5 46.25 0  32.5 47.5 0  32.5 47.5 1.25  32.5 47.5 2.5  32.5 46.25 2.5  31.25 46.25 2.5  31.25 47.5 1.25  31.25 47.5 0  31.25 47.5 2.5  33.75 46.25 1.25  33.75 46.25 0  35 46.25 1.25  35 46.25 0  35 47.5 0  35 47.5 1.25  35 47.5 2.5  35 46.25 2.5  33.75 46.25 2.5  33.75 47.5 1.25  33.75 47.5 0  33.75 47.5 2.5  36.25 46.25 1.25  36.25 46.25 0  37.5 46.25 1.25  37.5 46.25 0  37.5 47.5 0  37.5 47.5 1.25  37.5 47.5 2.5  37.5 46.25 2.5  36.25 46.25 2.5  36.25 47.5 1.25  36.25 47.5 0  36.25 47.5 2.5  38.75 46.25 1.25  38.75 46.25 0  40 46.25 1.25  40 46.25 0  40 47.5 0  40 47.5 1.25  40 47.5 2.5  40 46.25 2.5  38.75 46.25 2.5  38.75 47.5 1.25  38.75 47.5 0  38.75 47.5 2.5  41.25 46.25 1.25  41.25 46.25 0  42.5 46.25 1.25  42.5 46.25 0  42.5 47.5 0  42.5 47.5 1.25  42.5 47.5 2.5  42.5 46.25 2.5  41.25 46.25 2.5  41.25 47.5 1.25  41.25 47.5 0  41.25 47.5 2.5  43.75 46.25 1.25  43.75 46.25 0  45 46.25 1.25  45 46.25 0  45 47.5 0  45 4
[...]
<PointData  Scalars="c_HbCO2"> 
<DataArray  type="Float64"  Name="c_HbCO2"  format="ascii">4.3277285888974412e-27  5.2395634581299985e-27  4.3384646526241941e-27  5.2741659671054742e-27  4.3411154225516094e-27  4.3277298447923210e-27  5.2509407139871316e-27  6.4393244447143150e-27  5.2509425198260821e-27  6.4393274553982172e-27  6.4339864715285428e-27  6.6145840204124618e-27  6.5141336487914977e-27  6.5367955223922655e-27  4.3430025832456800e-27  5.2835275854013555e-27  4.3222750734167084e-27  6.6034353449112210e-27  5.3195795924114006e-27  6.6145819554019431e-27  6.5367916377588424e-27  5.3316254712373737e-27  5.2017578487141597e-27  4.3285376678974640e-27  5.2103560451753109e-27  4.3116919239820393e-27  4.3154865542676357e-27  5.1835068976790668e-27  6.2922578385286089e-27  6.3588832915335079e-27  6.3731621528042290e-27  5.2741605261445689e-27  4.3411114002233070e-27  5.2395538673185791e-27  4.3384630435111912e-27  4.3277398983693891e-27  5.2509204570118934e-27  6.4392965078251111e-27  6.4339705739156609e-27  6.5141288076075706e-27  4.3547534988663768e-27  4.3430101584062666e-27  5.2834968713412920e-27  4.3222671310165847e-27  5.2017484498029126e-27  4.3285314825498500e-27  5.1725580821853134e-27  4.3251134611196396e-27  4.3154989692834590e-27  5.1834685031909540e-27  6.2922042855057993e-27  6.2903462301127749e-27  6.3588739392630498e-27  5.2103043568674215e-27  4.3116791026873901e-27  6.3731020582727257e-27  4.3049464130902038e-27  5.1257565800650653e-27  5.1153665965598847e-27  5.1400918595294688e-27  6.1664965243915165e-27  6.1665933076700010e-27  6.1668102143527498e-27  6.2262069127741574e-27  6.2349462932595618e-27  4.3173596126441969e-27  5.1480025702716268e-27  4.3022387184990117e-27  6.2348444107921979e-27  4.2956567094868992e-27  5.0658126313753442e-27  4.3035800978557734e-27  5.0869745566436434e-27  4.3074702421119381e-27  4.2956709245427996e-27  5.0756510970660713e-27  6.0576833346973103e-27  5.0942962459348180e-27  4.2937818351299084e-27  6.1115836335879142e-27  6.1163978361072675e-27  5.0406433046514179e-27  4.2986492487815160e-27  5.0474220219088423e-27  4.2861547938099637e-27  4.2874246171596548e-27  5.0316354718397515e-27  5.9624589762160965e-27  6.0136257661161821e-27  6.0114815814429439e-27  4.2800180165320954e-27  4.9838385661248293e-27  4.2867270734839667e-27  4.9997919476618847e-27  4.2907193899574576e-27  4.2800241367398134e-27  4.9925793170193820e-27  5.8783239862236396e-27  5.0060644802996644e-27  4.2792315343744102e-27  5.9234507660241390e-27  4.2733239261259974e-27  4.9576166657377386e-27  4.9494063617437982e-27  4.9634351910952868e-27  4.2795552279738616e-27  4.2835428690524991e-27  5.8033602456438715e-27  4.9692288790650683e-27  4.2729123333302167e-27  5.8435488724445613e-27  5.8447186595332162e-27  4.9361521418085905e-27  4.2671234988254421e-27  4.9308179101863928e-27  4.2770171336683069e-27  4.2671944760635879e-27  4.9260647720979508e-27  5.7360823251490313e-27  5.7721304597236391e-27  5.7743637003863629e-27  5.2741044475105465e-27  4.3410750008662916e-27  5.2394510927738680e-27  4.3384443481864192e-27  4.3278015322308402e-27  5.2506511829757883e-27  6.4389276450964838e-27  6.4337905883062311e-27  5.2016489711404836e-27  4.3284775172390392e-27  5.1723898894063891e-27  4.3250825915398153e-27  4.3155592592293046e-27  5.1830148818696004e-27  6.2915540080703925e-27  6.2900430115448732e-27  6.3587533318655449e-27  5.2097823174963806e-27  4.3115633255007173e-27  6.3724338721215800e-27  5.1399246391704546e-27  4.3172816135978804e-27  5.1151036454617109e-27  4.3135814756140553e-27  4.3049938437269941e-27  5.1250446352019583e-27  6.1654319210101072e-27  6.1663249805215176e-27  6.2259768417739046e-27  5.1472228164615949e-27  4.3020720716425855e-27  6.2337911574208774e-27  5.0867082451692925e-27  4.3073604360456769e-27  5.0654190269166561e-27  4.3035064635292184e-27  4.2956904892876109e-27  5.0745977126201211e-27  6.0560476763490738e-27  6.0586398403073631e-27  6.1111831612868700e-27  5.0931808507756626e-27  4.2935494721977091e-27  6.1148144627425451e-27  5.0402399103516105e-27  4.2984986707831278e-27  5.0217848758550651e-27  4.2945747031431052e-27  4.2873984202950490e-27  5.0301519664877246e-27  5.9600781941203572e-27  5.9639746852613882e-27  6.0108345766961591e-27  5.0458873015873435e-27  4.2858403175603819e-27  6.0113477934911696e-27  4.9992077362556946e-27  4.2905181125683640e-27  4.9830535301003814e-27  4.2865771017163874e-27  4.2799320753829827e-27  4.9905751149124374e-27  5.8750142034651837e-27  5.8800077435532561e-27  5.9222332854136756e-27  5.0040243870741187e-27  4.2788176403996729e-27  5.9203012100323472e-27  4.9626219697468754e-27  4.2832803952442684e-27  4.9483525227518594e-27  4.2793516243676576e-27  4.2731440940778849e-27  4.9550026797682179e-27  5.7989352032533566e-27  5.8049280410124287e-27  5.8432989781480684e-27  4.9665984213229042e-27  4.2723816982337409e-27  5.8393460258011234e-27  4.9297244782200074e-27  4.2766831666655313e-27  4.9170029038401828e-27  4.2727654595812233e-27  4.2669023939185957e-27  4.9227562486919072e-27  5.7303595299334349e-27  5.7373139058128904e-27  5.7723993242544647e-27  4.9328508768435082e-27  4.2664603318611677e-27  5.7666960571192935e-27  4.8999319611161962e-27  4.2706673596421947e-27  4.2618283987586018e-27  4.2614831064216848e-27  4.8884668741722317e-27  4.2666971899095911e-27  4.2610469258741719e-27  4.8932739778711294e-27  5.6681527140632633e-27  4.9062505603762046e-27  4.8973553985445500e-27  5.6753487829203552e-27  5.6760646026792126e-27  5.7082171721481509e-27  5.7077818855899895e-27  4.9022071434816493e-27  4.2610223008086818e-27  5.7009503257233458e-27  4.2559086123795238e-27  4.8623747702133859e-27  4.2610207432182708e-27  4.8728083295096241e-27  4.2652544792815136e-27  4.2552706640181170e-27  4.8660394364798104e-27  5.6115535925568449e-27  5.6203927620282979e-27  5.6204755301648530e-27  5.6496146678117596e-27  5.6493484668035046e-27  4.8742837057016832e-27  4.2561335372910401e-27  5.6409816927628872e-27  4.2492257458631193e-27  4.8425555383588765e-27  4.8418794051126680e-27  4.8482447654022321e-27  5.5640359536801065e-27  5.5745456066754923e-27  5.5748418324776860e-27  5.5957798782170277e-27  4.2606216222673375e-27  4.8493460318910109e-27  4.2521987704888851e-27  5.5865844865252871e-27  5.2005837713769759e-27  4.3280394529898045e-27  5.1707916879790755e-27  4.3247846698606417e-27  4.3155878846354380e-27  5.1784998311039722e-27  6.2844568844828068e-27  6.2869345098578874e-27  6.3570922854035061e-27  5.1383038195762510e-27  4.3166918504592709e-27  5.1128318410083439e-27  4.3131556122789032e-27  4.3047992710040909e-27  5.1188523530272724e-27  6.1552368166987321e-27  6.1618268150477812e-27  6.2232395644872379e-27  5.1409925792717768e-27  4.3008906506245259e-27  6.2240954781118431e-27  5.0843786908505147e-27  4.3065886467689556e-27  5.0623240758897903e-27  4.3029219146081618e-27  4.2952042457290689e-27  5.0665012522010570e-27  6.0422030535626191e-27  6.0524289332898168e-27  6.1070264491612316e-27  5.0851385438132412e-27  4.2920299216752424e-27  6.1016967188554411e-27  5.0370492338869621e-27  4.2975151099888675e-27  5.0177225324412523e-27  4.2938007970286437e-27  4.2865586688020622e-27  5.0199705270147419e-27  5.9421215027009540e-27  5.9557395996904589e-27  6.0049136700479929e-27  5.0358523158132304e-27  4.2839394750907550e-27  5.9943191995086432e-27  4.9950116613773873e-27  4.2892948765064665e-27  4.9778911624111129e-27  4.2855845329460572e-27  4.2786859032616819e-27  4.9781767568438652e-27  5.8525878493283222e-27  5.8694632242483150e-27  5.9142204294164359e-27  4.9918604186535655e-27  4.2764993216795800e-27  5.8989674190119178e-27  4.9572899925658125e-27  4.2817926675462816e-27  4.9419740909750990e-27  4.2781134272890677e-27  4.2714479281553536e-27  4.9403032159320071e-27  5.7717905789285222e-27  5.7918263621079493e-27  5.8328977391712656e-27  4.9522142222555927e-27  4.2696182725013454e-27  5.8134184779841373e-27  4.9231434762386190e-27  4.2749110124079756e-27  4.9093136010567561e-27  4.2712574908821723e-27  4.2647191800949145e-27  4.9057157949689822e-27  5.6983509859127370e-27  5.7214548426433196e-27  5.7593539592618402e-27  4.9161989351033448e-27  4.2632350300064353e-27  5.7359947779764182e-27  4.8920069593522581e-27  4.2686003867068122e-27  4.8794015513037073e-27  4.2648973955657513e-27  4.2583342696582223e-27  4.8738931718054337e-27  5.6312212756110067e-27  5.6573121472626314e-27  5.6923152979660477e-27  4.8832832628722520e-27  4.2573362997793699e-27  5.6654037743649100e-27  4.8634570660548830e-27  4.2629088609948161e-27  4.8519294573384269e-27  4.2589026052576043e-27  4.2519379879241884e-27  4.8443639133131298e-27  5.5697004413163379e-27  5.5988194366224185e-27  5.6306738519698629e-27  4.8531359301317819e-27  4.2520318110919428e-27  5.6006362722494151e-27  4.8373875855354872e-27  4.2581079570597336e-27  4.8304605411472506e-27  4.2536350415281011e-27  4.2450327044238224e-27  4.8189343461051660e-27  5.5176819114288433e-27  5.5509886725518068e-27  5.5736062775220014e-27  4.8261557864792279e-27  4.2478657677526968e-27  5.5417480410761572e-27  5.1251995452655938e-27  4.3129791356918573e-27  5.0967561701347781e-27  4.3101655179320961e-27  4.3006517060493931e-27  5.0790499607079404e-27  6.0794386911706471e-27  6.1274645202671675e-27  6.1967199847235730e-27  4.3224429944992052e-27  4.3128188896843847e-27  5.1025918667029497e-27  4.2941886936452167e-27  5.1581044230970864e-27  6.2600628901258374e-27  6.2227457158405526e-27  6.1525962109151331e-27  5.1449518256295371e-27  5.0677729639817979e-27  4.3021460344563640e-27  5.0426831112598444e-27  4.2992333669650247e-27  4.2896562760574534e-27  5.0207742729547374e-27  5.9528642376749825e-27  6.0102124357474334e-27  6.0725881119614557e-27  5.0409771614619167e-27  4.2841478262455547e-27  6.0166506314487948e-27  5.0168027646580853e-27  4.2923197597180971e-27  4.9944432163662835e-27  4.2893823804599067e-27  4.2796356846285225e-27  4.9687607913103936e-27  5.8401729921397019e-27  5.9055530895768880e-27  5.9622513442817433e-27  4.9863004946318391e-27  4.2748989687329149e-27  5.8964406138333256e-27  4.9710869614185707e-27  4.2833398230320325e-27  4.9509903843363766e-27  4.2804221663099739e-27  4.2704476135664676e-27  4.9219899906859214e-27  5.7391979523565441e-27  5.8114020637397730e-27  5.8632873693027673e-27  4.9373680981880920e-27  4.2663489357325244e-27  5.7892819178852637e-27  4.9297342865770526e-27  4.2750850961483923e-27  4.9115426736483907e-27  4.2722081718003596e-27  4.2619766002889267e-27  4.8796726685077784e-27  5.6482457542002990e-27  5.7261557737725941e-27  5.7738579592037320e-27  4.8932726531983549e-27  4.2584259722935903e-27  5.6931315224295193e-27  4.8920698274325881e-27  4.2674713669277360e-27  4.8755023266720675e-27  4.2646225774874257e-27  4.2541081429936105e-27  4.8411774653746388e-27  5.5659659076350940e-27  5.6485717990255942e-27  5.6925328009890301e-27  4.8533117851956531e-27  4.2510831759172889e-27  5.6063897864818714e-27  4.8575739198369858e-27  4.2604664946798376e-27  4.8424173314037778e-27  4.2575523015348447e-27  4.2466704397461792e-27  4.8059754884514419e-27  5.4912723869097646e-27  5.5777217399771189e-27  5.6181519374274211e-27  4.8169464919771484e-27  4.2443237058601840e-27  5.5277723610061417e-27  4.8258417174667352e-27  4.2541635355849089e-27  4.8120773836794514e-27  4.2508482447556661e-27  4.2392527974798196e-27  4.7736207234374403e-27  5.4233816862059472e-27  5.5131711620342473e-27  5.5496713886177098e-27  4.7838252246420197e-27  4.2383007468603665e-27  5.4562482310969966e-27  4.7967620478635512e-27  4.2490167009628775e-27  4.7887734984217916e-27  4.2447769992312204e-27  4.2312002936419124e-27  4.7464390135881854e-27  5.3666573556393742e-27  5.4610112964260640e-27  5.4863234627272515e-27  4.7543627374234658e-27  4.2337315394732551e-27  5.3920401584528034e-27  5.0491070060008004e-27  4.2958627567212662e-27  5.0145862125383726e-27  4.2951176576135478e-27  4.2743321354419247e-27  4.9193017401637992e-27  5.7303122493307578e-27  5.9416992912510208e-27  6.0234059638323073e-27  4.3091549683757487e-27  4.2891930398171208e-27  4.9470068711940475e-27  4.2664423557032548e-27  4.9837381756904876e-27  4.2835537131031942e-27  4.9534832664360209e-27  4.2825926920027332e-27  4.2612592419336432e-27  4.8577833811655145e-27  5.5967638668630497e-27  5.8096537666668141e-27  5.8815604488613471e-27  4.8814193111395422e-27  4.2547092328589520e-27  5.6630196809960925e-27  4.9261275028290037e-27  4.2724279571296471e-27  4.8994368959664153e-27  4.2713310298458763e-27  4.2496820535871894e-27  4.8041860560453906e-27  5.4817978056196656e-27  5.6932884654841716e-27  5.7570134998875337e-27  4.8245452665551673e-27  4.2441830256991520e-27  5.5383667081128010e-27  4.8749958314261616e-27  4.2623248910263365e-27  4.8513100795562359e-27  4.2611448931666256e-27  4.2393680632415335e-27  4.7571223647223637e-27  5.3820327452811079e-27  5.5902042105192275e-27  5.6470038195779126e-27  4.7748145941446966e-27  4.2347085223099906e-27  5.4308329683491956e-27  4.8293358780915896e-27  4.2531165337240253e-27  4.8082037857019741e-27  4.2518841275595438e-27  4.2301229989527796e-27  4.7155029911111291e-27  5.2948113948947820e-27  5.4984397991081181e-27  5.5492979388963950e-27  4.7310027149300138e-27  4.2261538146841187e-27  5.3372861838312160e-27  4.7883406413792445e-27  4.2447077441734288e-27  4.7693968391763673e-27  4.2434199429101610e-27  4.2217686779484901e-27  4.6784594158344522e-27  5.2180383703107751e-27  5.4163922953347371e-27  5.4620667672913895e-27  4.6921464440186820e-27  4.2184165695652873e-27  5.2552743741924259e-27  4.7513546852964455e-27  4.2370559919708050e-27  4.7343241869738987e-27  4.2356211080314627e-27  4.2140891610805453e-27  4.6452893958462181e-27  5.1500631455277758e-27  5.3427868305467636e-27  5.3837812126990736e-27  4.6574904858081622e-27  4.2114490447024185e-27  5.1828615160985308e-27  4.7178364706746065e-27  4.2302645433413235e-27  4.7027148079205897e-27  4.2282863943108356e-27  4.2066580124331486e-27  4.6154823030968444e-27  5.0896927176337819e-27  5.2768565745067975e-27  5.3130944564371172e-27  4.6264825877737545e-27  4.2053574867361490e-27  5.1185313145869423e-27  4.6875608198505733e-27  4.2249358003560157e-27  4.6791702400346238e-27  4.2214728664675600e-27  4.1988561110424392e-27  4.5915667286778046e-27  5.0409046144925767e-27  5.2247169825526895e-27  5.2491958786357166e-27  4.5992627562314581e-27  4.2008387057408922e-27  5.0622155928298560e-27  4.7947087109737898e-27  4.2451209569765080e-27  4.7628340863110873e-27  4.2464958614052237e-27  4.1997240125653581e-27  4.5723072372012413e-27  4.9810377123211677e-27  5.3816424506826355e-27  4.7349009140690431e-27  4.2328300006894603e-27  4.7078838893924944e-27  4.2337587591426465e-27  4.1896482130308863e-27  4.5309335008120378e-27  4.9024300597524971e-27  5.2702488786020541e-27  5.3259425974753996e-27  4.5494870880199831e-27  4.1862237249196205e-27  4.9406280140668331e-27  4.6840251914901788e-27  4.2220549942400460e-27  4.6608736663795197e-27  4.2226740970980315e-27  4.1810151829092161e-27  4.4957881330905153e-27  4.8361787747294562e-27  5.1756325268686104e-27  5.2232488568919152e-27  4.5115309015279387e-27  4.1781799129053216e-27  4.8682807858268296e-27  4.6402567551056688e-27  4.2125505897098779e-27  4.6202214913014540e-27  4.2129505089688499e-27  4.1735356040455502e-27  4.4655773264387057e-27  4.7796100356289945e-27  5.0944049752640281e-27  5.1355164771916508e-27  4.4790991953675778e-27  4.1711610922171587e-27  4.8069763903232340e-27  4.6022243721217568e-27  4.2041188232849171e-27  4.5847336136097729e-27  4.2043576659559367e-27  4.1669906461720915e-27  4.4393385432791312e-27  4.7307661647011716e-27  5.0240025364738750e-27  5.0597966670929248e-27  4.4510764029088149e-27  4.1649869491306355e-27  4.7543722243821677e-27  4.5688822700569996e-27  4.1966058065721619e-27  4.5534971775474762e-27  4.1967071497743550e-27  4.1612040500346441e-27  4.4163426663729501e-27  4.6881861748015972e-27  4.9624677264652817e-27  4.9938391984430866e-27  4.4266264056729418e-27  4.1595226265558151e-27  4.7087421182022027e-27  4.5394207440724314e-27  4.1899137779195936e-27  4.5258214926263315e-27  4.1898258824610909e-27  4.1560047562124488e-27  4.3960352746449628e-27  4.6507706644200610e-27  4.9083096031279620e-27  4.9358947561514550e-27  4.4051140179881754e-27  4.1546828805069712e-27  4.6687854116254546e-27  4.5132023527318825e-27  4.1840776851045270e-27  4.5013337510197101e-27  4.1834795571240970e-27  4.1511285509697785e-27  4.3780728769378989e-27  4.6177804139852465e-27  4.8605458388549264e-27  4.8845701377671843e-27  4.3860646560646082e-27  4.1504873089432985e-27  4.6335236932663940e-27  4.4899461910826944e-27  4.1796063074366556e-27  4.4836346306839047e-27  4.1775467993209033e-27  4.1463076561637515e-27  4.3643574317211558e-27  4.5918859284679937e-27  4.8235361235318895e-27  4.8392827147516671e-27  4.3694481497621573e-27  4.1473723840422906e-27  4.6030170927020386e-27  4.3446702798397351e-27  4.1459033735004833e-27  4.3320866028514174e-27  4.1427308661737478e-27  4.0698499711989542e-27  4.1427308662060309e-27  4.1896482130509675e-27  4.5309335007877760e-27  4.5494870879948065e-27  4.1494443231962050e-27  4.0698712559869254e-27  4.1459033735414771e-27  4.0728612425745755e-27  4.3554342735199273e-27  4.5723072371673253e-27  4.1997240125687187e-27  4.1862237249080952e-27  4.1494443231940677e-27  4.3230527959132344e-27  4.1400697612556622e-27  4.3122688617435279e-27  4.1370558726429715e-27  4.0698307009366551e-27  4.1370558726544818e-27  4.1810151829232052e-27  4.4957881330872989e-27  4.5115309015350258e-27  4.1400697612957132e-27  4.0729570999633460e-27  4.1781799129312163e-27  4.3045847994606775e-27  4.1350626436861985e-27  4.2952361818466303e-27  4.1321958381059930e-27  4.0698124054762493e-27  4.1321958381053724e-27  4.1735356040673066e-27  4.4655773264218812e-27  4.4790991953574931e-27  4.1350626437337112e-27  4.0729929280458503e-27  4.1711610922244517e-27  4.2886254189256904e-27  4.1307190489466212e-27  4.2804403926654876e-27  4.1279873570202309e-27  4.0697948423289560e-27  4.1279873570034573e-27  4.1669906461716969e-27  4.4393385432577400e-27  4.4510764028976160e-27  4.1307190489532046e-27  4.0729891161005014e-27  4.1649869491364491e-27  4.2746956025816459e-27  4.1269176381868185e-27  4.2674722367325876e-27  4.1243087851836565e-27  4.0697784804200537e-27  4.1243087851806690e-27  4.1612040500533900e-27  4.4163426663570697e-27  4.4266264056617645e-27  4.1269176382127204e-27  4.0729582047324477e-27  4.1595226265576533e-27  4.2624277150507222e-27  4.1235698819721754e-27  4.2560354012104446e-27  4.1210723405735195e-27  4.0697711316429148e-27  4.1210723405938998e-27  4.1560047562149262e-27  4.3960352746356630e-27  4.4051140179783598e-27  4.1235698820086191e-27  4.0729022855454493e-27  4.1546828805332885e-27  4.2515250258410036e-27  4.1206225770621410e-27  4.2460064790565147e-27  4.1182367368701215e-27  4.0698272390750550e-27  4.1182367368959244e-27  4.1511285509911403e-27  4.3780728769365091e-27  4.3860646560573769e-27  4.1206225771235036e-27  4.0727869191353083e-27  4.1504873089573257e-27  4.2418276914179508e-27  4.1180877274143552e-27  4.2390469500084554e-27  4.1161438185650230e-27  4.0703306043937596e-27  4.1161438185595056e-27  4.1463076561658006e-27  4.3643574317291764e-27  4.3694481497487285e-27  4.1180877274520458e-27  4.0724080541124015e-27  4.1473723840635742e-27  7.8294128429030129e-27  7.7431790090852455e-27  7.6834213147858303e-27  8.6310272988549993e-27  8.6067148916369899e-27  7.7989637847760388e-27  7.6272019743273470e-27  7.6018101353267597e-27  7.4975298571886041e-27  8.4888755038416197e-27  8.5528748741758533e-27  8.4966027302293855e-27  7.8294072061838693e-27  7.7431655327856346e-27  7.6834128998159221e-27  8.6310253150776779e-27  8.6067055279110826e-27  7.6271927775960084e-27  7.5471865110464544e-27  7.4975074891908667e-27  8.4888680622373162e-27  8.4639215483115484e-27  8.4965965560091191e-27  7.6017520990796558e-27  8.5528351135579155e-27  7.44290185467