<?xml version="1.0"?>
<VTKFile type="UnstructuredGrid"  version="0.1"  >
<UnstructuredGrid>
<Piece  NumberOfPoints="3871" NumberOfCells="18975">
<Points>
<DataArray  type="Float64"  NumberOfComponents="3"  format="ascii">10 40 0  10 41.25 1.25  10 41.25 0  8.75 41.25 1.25  8.75 41.25 0  10 42.5 0  10 42.5 1.25  10 42.5 2.5  10 40 1.25  10 40 2.5  10 41.25 2.5  8.75 41.25 2.5  7.5 42.5 0  8.75 42.5 1.25  8.75 42.5 0  7.5 42.5 2.5  8.75 42.5 2.5  7.5 42.5 1.25  11.25 41.25 1.25  11.25 41.25 0  11.25 42.5 1.25  11.25 42.5 0  12.5 42.5 0  12.5 42.5 1.25  12.5 42.5 2.5  11.25 41.25 2.5  11.25 42.5 2.5  7.5 43.75 1.25  7.5 43.75 0  6.25 43.75 1.25  6.25 43.75 0  7.5 45 0  7.5 45 1.25  7.5 45 2.5  7.5 43.75 2.5  6.25 45 1.25  6.25 45 0  8.75 43.75 1.25  8.75 43.75 0  10 43.75 1.25  10 43.75 0  10 45 0  10 45 1.25  10 45 2.5  10 43.75 2.5  8.75 43.75 2.5  8.75 45 1.25  8.75 45 0  8.75 45 2.5  11.25 43.75 1.25  11.25 43.75 0  12.5 43.75 1.25  12.5 43.75 0  12.5 45 0  12.5 45 1.25  12.5 45 2.5  12.5 43.75 2.5  11.25 43.75 2.5  11.25 45 1.25  11.25 45 0  11.25 45 2.5  13.75 43.75 1.25  13.75 43.75 0  13.75 45 1.25  13.75 45 0  15 45 0  15 45 1.25  15 45 2.5  13.75 43.75 2.5  13.75 45 2.5  7.5 46.25 1.25  7.5 46.25 0  6.25 46.25 1.25  6.25 46.25 0  7.5 47.5 0  7.5 47.5 1.25  7.5 47.5 2.5  7.5 46.25 2.5  6.25 46.25 2.5  5 47.5 0  6.25 47.5 1.25  6.25 47.5 0  6.25 47.5 2.5  8.75 46.25 1.25  8.75 46.25 0  10 46.25 1.25  10 46.25 0  10 47.5 0  10 47.5 1.25  10 47.5 2.5  10 46.25 2.5  8.75 46.25 2.5  8.75 47.5 1.25  8.75 47.5 0  8.75 47.5 2.5  11.25 46.25 1.25  11.25 46.25 0  12.5 46.25 1.25  12.5 46.25 0  12.5 47.5 0  12.5 47.5 1.25  12.5 47.5 2.5  12.5 46.25 2.5  11.25 46.25 2.5  11.25 47.5 1.25  11.25 47.5 0  11.25 47.5 2.5  13.75 46.25 1.25  13.75 46.25 0  15 46.25 1.25  15 46.25 0  15 47.5 0  15 47.5 1.25  15 47.5 2.5  15 46.25 2.5  13.75 46.25 2.5  13.75 47.5 1.25  13.75 47.5 0  13.75 47.5 2.5  6.25 48.75 1.25  6.25 48.75 0  7.5 48.75 1.25  7.5 48.75 0  7.5 50 0  7.5 50 1.25  7.5 50 2.5  7.5 48.75 2.5  6.25 48.75 2.5  5 50 0  6.25 50 1.25  6.25 50 0  5 50 2.5  6.25 50 2.5  5 50 1.25  8.75 48.75 1.25  8.75 48.75 0  10 48.75 1.25  10 48.75 0  10 50 0  10 50 1.25  10 50 2.5  10 48.75 2.5  8.75 48.75 2.5  8.75 50 1.25  8.75 50 0  8.75 50 2.5  11.25 48.75 1.25  11.25 48.75 0  12.5 48.75 1.25  12.5 48.75 0  12.5 50 0  12.5 50 1.25  12.5 50 2.5  12.5 48.75 2.5  11.25 48.75 2.5  11.25 50 1.25  11.25 50 0  11.25 50 2.5  13.75 48.75 1.25  13.75 48.75 0  15 48.75 1.25  15 48.75 0  15 50 0  15 50 1.25  15 50 2.5  15 48.75 2.5  13.75 48.75 2.5  13.75 50 1.25  13.75 50 0  13.75 50 2.5  10 40 5  11.25 40 5  11.25 38.75 5  11.25 38.75 3.75  12.5 40 5  11.25 40 3.75  10 40 3.75  10 41.25 3.75  8.75 41.25 3.75  10 42.5 3.75  10 42.5 5  10 41.25 5  8.75 42.5 3.75  11.25 41.25 3.75  11.25 41.25 5  12.5 41.25 5  12.5 42.5 5  11.25 42.5 3.75  12.5 42.5 3.75  11.25 42.5 5  8.75 43.75 3.75  10 43.75 3.75  10 45 3.75  10 45 5  10 43.75 5  8.75 43.75 5  8.75 45 3.75  7.5 45 5  8.75 45 5  7.5 45 3.75  11.25 43.75 3.75  12.5 43.75 3.75  12.5 45 3.75  12.5 45 5  12.5 43.75 5  11.25 43.75 5  11.25 45 3.75  11.25 45 5  13.75 43.75 3.75  13.75 45 3.75  15 45 3.75  15 45 5  13.75 43.75 5  13.75 45 5  7.5 46.25 3.75  6.25 46.25 3.75  7.5 47.5 3.75  7.5 47.5 5  7.5 46.25 5  6.25 46.25 5  6.25 47.5 3.75  6.25 47.5 5  8.75 46.25 3.75  10 46.25 3.75  10 47.5 3.75  10 47.5 5  10 46.25 5  8.75 46.25 5  8.75 47.5 3.75  8.75 47.5 5  11.25 46.25 3.75  12.5 46.25 3.75  12.5 47.5 3.75  12.5 47.5 5  12.5 46.25 5  11.25 46.25 5  11.25 47.5 3.75  11.25 47.5 5  13.75 46.25 3.75  15 46.25 3.75  15 47.5 3.75  15 47.5 5  15 46.25 5  13.75 46.25 5  13.75 47.5 3.75  13.75 47.5 5  7.5 48.75 3.75  6.25 48.75 3.75  7.5 50 3.75  7.5 50 5  7.5 48.75 5  6.25 48.75 5  6.25 50 3.75  5 50 5  6.25 50 5  5 50 3.75  8.75 48.75 3.75  10 48.75 3.75  10 50 3.75  10 50 5  10 48.75 5  8.75 48.75 5  8.75 50 3.75  8.75 50 5  11.25 48.75 3.75  12.5 48.75 3.75  12.5 50 3.75  12.5 50 5  12.5 48.75 5  11.25 48.75 5  11.25 50 3.75  11.25 50 5  13.75 48.75 3.75  15 48.75 3.75  15 50 3.75  15 50 5  15 48.75 5  13.75 48.75 5  13.75 50 3.75  13.75 50 5  11.25 40 6.25  11.25 38.75 6.25  12.5 40 6.25  12.5 40 7.5  11.25 41.25 6.25  12.5 41.25 6.25  12.5 42.5 6.25  12.5 42.5 7.5  12.5 41.25 7.5  11.25 41.25 7.5  11.25 42.5 6.25  10 42.5 7.5  11.25 42.5 7.5  10 42.5 6.25  10 43.75 6.25  8.75 43.75 6.25  10 45 6.25  10 45 7.5  10 43.75 7.5  8.75 43.75 7.5  8.75 45 6.25  7.5 45 7.5  8.75 45 7.5  7.5 45 6.25  11.25 43.75 6.25  12.5 43.75 6.25  12.5 45 6.25  12.5 45 7.5  12.5 43.75 7.5  11.25 43.75 7.5  11.25 45 6.25  11.25 45 7.5  13.75 43.75 6.25  13.75 45 6.25  15 45 6.25  15 45 7.5  13.75 43.75 7.5  13.75 45 7.5  7.5 46.25 6.25  6.25 46.25 6.25  7.5 47.5 6.25  7.5 47.5 7.5  7.5 46.25 7.5  6.25 46.25 7.5  6.25 47.5 6.25  6.25 47.5 7.5  8.75 46.25 6.25  10 46.25 6.25  10 47.5 6.25  10 47.5 7.5  10 46.25 7.5  8.75 46.25 7.5  8.75 47.5 6.25  8.75 47.5 7.5  11.25 46.25 6.25  12.5 46.25 6.25  12.5 47.5 6.25  12.5 47.5 7.5  12.5 46.25 7.5  11.25 46.25 7.5  11.25 47.5 6.25  11.25 47.5 7.5  13.75 46.25 6.25  15 46.25 6.25  15 47.5 6.25  15 47.5 7.5  15 46.25 7.5  13.75 46.25 7.5  13.75 47.5 6.25  13.75 47.5 7.5  7.5 48.75 6.25  6.25 48.75 6.25  7.5 50 6.25  7.5 50 7.5  7.5 48.75 7.5  6.25 48.75 7.5  6.25 50 6.25  5 50 7.5  6.25 50 7.5  5 50 6.25  8.75 48.75 6.25  10 48.75 6.25  10 50 6.25  10 50 7.5  10 48.75 7.5  8.75 48.75 7.5  8.75 50 6.25  8.75 50 7.5  11.25 48.75 6.25  12.5 48.75 6.25  12.5 50 6.25  12.5 50 7.5  12.5 48.75 7.5  11.25 48.75 7.5  11.25 50 6.25  11.25 50 7.5  13.75 48.75 6.25  15 48.75 6.25  15 50 6.25  15 50 7.5  15 48.75 7.5  13.75 48.75 7.5  13.75 50 6.25  13.75 50 7.5  12.5 41.25 8.75  11.25 41.25 8.75  12.5 42.5 8.75  12.5 42.5 10  12.5 40 8.75  12.5 40 10  12.5 41.25 10  11.25 41.25 10  11.25 42.5 8.75  10 42.5 10  11.25 42.5 10  10 42.5 8.75  13.75 41.25 8.75  13.75 41.25 10  13.75 42.5 10  15 42.5 10  13.75 42.5 8.75  10 43.75 8.75  8.75 43.75 8.75  10 45 8.75  10 45 10  10 43.75 10  8.75 43.75 10  8.75 45 8.75  7.5 45 10  8.75 45 10  7.5 45 8.75  11.25 43.75 8.75  12.5 43.75 8.75  12.5 45 8.75  12.5 45 10  12.5 43.75 10  11.25 43.75 10  11.25 45 8.75  11.25 45 10  13.75 43.75 8.75  13.75 43.75 10  15 43.75 10  15 45 10  13.75 45 8.75  15 45 8.75  13.75 45 10  7.5 46.25 8.75  6.25 46.25 8.75  7.5 47.5 8.75  7.5 47.5 10  7.5 46.25 10  6.25 46.25 10  6.25 47.5 8.75  5 47.5 10  6.25 47.5 10  8.75 46.25 8.75  10 46.25 8.75  10 47.5 8.75  10 47.5 10  10 46.25 10  8.75 46.25 10  8.75 47.5 8.75  8.75 47.5 10  11.25 46.25 8.75  12.5 46.25 8.75  12.5 47.5 8.75  12.5 47.5 10  12.5 46.25 10  11.25 46.25 10  11.25 47.5 8.75  11.25 47.5 10  13.75 46.25 8.75  15 46.25 8.75  15 47.5 8.75  15 47.5 10  15 46.25 10  13.75 46.25 10  13.75 47.5 8.75  13.75 47.5 10  7.5 48.75 8.75  6.25 48.75 8.75  7.5 50 8.75  7.5 50 10  7.5 48.75 10  6.25 48.75 10  6.25 50 8.75  5 50 10  6.25 50 10  5 50 8.75  8.75 48.75 8.75  10 48.75 8.75  10 50 8.75  10 50 10  10 48.75 10  8.75 48.75 10  8.75 50 8.75  8.75 50 10  11.25 48.75 8.75  12.5 48.75 8.75  12.5 50 8.75  12.5 50 10  12.5 48.75 10  11.25 48.75 10  11.25 50 8.75  11.25 50 10  13.75 48.75 8.75  15 48.75 8.75  15 50 8.75  15 50 10  15 48.75 10  13.75 48.75 10  13.75 50 8.75  13.75 50 10  12.5 40 11.25  12.5 38.75 11.25  11.25 38.75 11.25  12.5 40 12.5  12.5 37.5 12.5  12.5 38.75 12.5  11.25 38.75 12.5  11.25 40 11.25  10 40 12.5  11.25 40 12.5  10 42.5 11.25  10 41.25 11.25  8.75 41.25 11.25  10 42.5 12.5  10 41.25 12.5  8.75 41.25 12.5  8.75 42.5 11.25  7.5 42.5 12.5  8.75 42.5 12.5  12.5 41.25 11.25  11.25 41.25 11.25  12.5 42.5 11.25  12.5 42.5 12.5  12.5 41.25 12.5  11.25 41.25 12.5  11.25 42.5 11.25  11.25 42.5 12.5  13.75 41.25 11.25  13.75 42.5 11.25  15 42.5 11.25  15 42.5 12.5  13.75 41.25 12.5  13.75 42.5 12.5  7.5 45 11.25  7.5 43.75 11.25  6.25 43.75 11.25  7.5 45 12.5  7.5 43.75 12.5  6.25 45 11.25  10 43.75 11.25  8.75 43.75 11.25  10 45 11.25  10 45 12.5  10 43.75 12.5  8.75 43.75 12.5  8.75 45 11.25  8.75 45 12.5  11.25 43.75 11.25  12.5 43.75 11.25  12.5 45 11.25  12.5 45 12.5  12.5 43.75 12.5  11.25 43.75 12.5  11.25 45 11.25  11.25 45 12.5  13.75 43.75 11.25  15 43.75 11.25  15 45 11.25  15 45 12.5  15 43.75 12.5  13.75 43.75 12.5  13.75 45 11.25  13.75 45 12.5  7.5 46.25 11.25  6.25 46.25 11.25  7.5 47.5 11.25  7.5 47.5 12.5  7.5 46.25 12.5  6.25 46.25 12.5  6.25 47.5 11.25  6.25 47.5 12.5  8.75 46.25 11.25  10 46.25 11.25  10 47.5 11.25  10 47.5 12.5  10 46.25 12.5  8.75 46.25 12.5  8.75 47.5 11.25  8.75 47.5 12.5  11.25 46.25 11.25  12.5 46.25 11.25  12.5 47.5 11.25  12.5 47.5 12.5  12.5 46.25 12.5  11.25 46.25 12.5  11.25 47.5 11.25  11.25 47.5 12.5  13.75 46.25 11.25  15 46.25 11.25  15 47.5 11.25  15 47.5 12.5  15 46.25 12.5  13.75 46.25 12.5  13.75 47.5 11.25  13.75 47.5 12.5  6.25 48.75 11.25  7.5 48.75 11.25  7.5 50 11.25  7.5 50 12.5  7.5 48.75 12.5  6.25 48.75 12.5  6.25 50 11.25  5 50 12.5  6.25 50 12.5  5 50 11.25  8.75 48.75 11.25  10 48.75 11.25  10 50 11.25  10 50 12.5  10 48.75 12.5  8.75 48.75 12.5  8.75 50 11.25  8.75 50 12.5  11.25 48.75 11.25  12.5 48.75 11.25  12.5 50 11.25  12.5 50 12.5  12.5 48.75 12.5  11.25 48.75 12.5  11.25 50 11.25  11.25 50 12.5  13.75 48.75 11.25  15 48.75 11.25  15 50 11.25  15 50 12.5  15 48.75 12.5  13.75 48.75 12.5  13.75 50 11.25  13.75 50 12.5  11.25 40 13.75  11.25 38.75 13.75  12.5 40 13.75  12.5 40 15  10 40 13.75  10 40 15  11.25 40 15  10 41.25 13.75  8.75 41.25 13.75  10 42.5 13.75  10 42.5 15  10 41.25 15  8.75 41.25 15  8.75 42.5 13.75  7.5 42.5 15  8.75 42.5 15  7.5 42.5 13.75  11.25 41.25 13.75  12.5 41.25 13.75  12.5 42.5 13.75  12.5 42.5 15  12.5 41.25 15  11.25 41.25 15  11.25 42.5 13.75  11.25 42.5 15  13.75 41.25 13.75  13.75 42.5 13.75  15 42.5 13.75  15 42.5 15  13.75 41.25 15  13.75 42.5 15  8.75 43.75 13.75  10 43.75 13.75  10 45 13.75  10 45 15  10 43.75 15  8.75 43.75 15  8.75 45 13.75  7.5 43.75 13.75  7.5 43.75 15  7.5 45 15  8.75 45 15  7.5 45 13.75  11.25 43.75 13.75  12
[...]
<PointData  Scalars="c_HbCO2"> 
<DataArray  type="Float64"  Name="c_HbCO2"  format="ascii">6.6592979915275019e-28  1.7255709122688076e-29  2.6313720422803009e-28  -4.2437750328420749e-27  -1.5896404483976586e-27  6.6592994295180226e-28  2.6313745818230115e-28  6.6592995307520388e-28  2.6313740894982478e-28  6.6592988560204123e-28  2.6313741071504718e-28  -1.5896403229233458e-27  2.4825599971713494e-26  -1.5896402042571333e-27  -6.2773080186024504e-29  2.4825600029768259e-26  -6.2773055320067882e-29  1.0151011458314349e-26  -1.0997931171336681e-28  -4.2115031221652908e-29  -4.2115056358589808e-29  -2.0982321351917781e-30  1.7618420387253019e-29  6.8754762520228084e-30  1.7618441451167445e-29  -4.2114984142682417e-29  -2.0983251432544213e-30  8.5307106895865520e-28  1.0151011558106306e-26  -1.6767296390398057e-25  -5.8904454084240372e-26  2.4825600145100145e-26  1.0151011329909432e-26  2.4825600195600525e-26  1.0151011585012273e-26  -5.8904454871012540e-26  -6.4352116714852619e-28  -4.2437751258105061e-27  -1.5896401753184402e-27  1.7255791738529936e-29  2.6313752996313232e-28  6.6593001755764171e-28  2.6313726505891264e-28  6.6592987332352490e-28  2.6313719537144645e-28  -1.5896399932060532e-27  -1.5896401441502990e-27  -6.2773158478399499e-29  -6.2773189776048368e-29  -1.0997932551726476e-28  -4.2115041251623847e-29  4.0659983887625982e-31  6.8754391147851762e-30  1.7618473963267654e-29  6.8755174669028160e-30  1.7618417945292702e-29  6.8755601096641034e-30  -4.2115010234207905e-29  -4.2114989089897819e-29  -2.0982973729068849e-30  -2.0983022100021135e-30  -2.8742020179952925e-30  -1.1091609414515847e-30  -1.1091890759318152e-30  -5.9369801227308507e-32  4.6383440948852311e-31  1.8021545120806453e-31  4.6385221495880956e-31  -1.1091782484759596e-30  -5.9389608666920726e-32  8.5307084881083680e-28  1.0151011305758861e-26  -1.6767296386724697e-25  -5.8904454217358507e-26  2.4825599913934641e-26  1.0151011532671317e-26  2.4825600008967734e-26  1.0151011786429823e-26  -5.8904454631185312e-26  8.9028315456788282e-25  -5.8904454771988345e-26  -6.4352015267032483e-28  -6.4351967239099153e-28  -4.2437751391103968e-27  -1.5896401928708144e-27  1.7255773642851399e-29  2.6313748941218494e-28  6.6592990572023575e-28  2.6313730311605340e-28  6.6592988647360116e-28  2.6313731533328375e-28  -1.5896402367749130e-27  -1.5896401883107758e-27  -6.2773271225566886e-29  -6.2773011139136629e-29  -1.0997934799307922e-28  -4.2114994623133011e-29  4.0660550306068770e-31  6.8754158419628050e-30  1.7618482523482287e-29  6.8755813543293657e-30  1.7618416957843744e-29  6.8754765697408291e-30  -4.2114988884053426e-29  -4.2115035236965915e-29  -2.0982742144627781e-30  -2.0982725717362293e-30  -2.8742123785940632e-30  -1.1091683754229755e-30  1.0257601398646764e-32  1.8016345358881465e-31  4.6382482128589740e-31  1.8022175718391634e-31  4.6387281661229481e-31  1.8017706116406090e-31  -1.1091049973756651e-30  -1.1091721475966426e-30  -5.9396753209066952e-32  -5.9413318592916176e-32  -1.6767296421114358e-25  -5.8904454335913162e-26  8.5307087657487296e-28  1.0151011377089799e-26  2.4825600071059048e-26  1.0151011484065059e-26  2.4825600152854660e-26  1.0151011364476652e-26  -5.8904454558486463e-26  8.9028315434257380e-25  -5.8904453943128796e-26  -6.4351997817725685e-28  8.9028315481451880e-25  -6.4352028642806707e-28  3.9893620386284231e-25  -4.2437751326474866e-27  -1.5896401878039774e-27  1.7255806614744110e-29  2.6313729862219774e-28  6.6592989755112049e-28  2.6313721066439527e-28  6.6592999076080552e-28  2.6313739532016849e-28  -1.5896401430507691e-27  -1.5896401571692390e-27  -6.2773152268967223e-29  -6.2773098220615733e-29  -1.0997933005383655e-28  -4.2115050429933694e-29  4.0656879288594761e-31  6.8754584515255255e-30  1.7618446938484365e-29  6.8755522428110915e-30  1.7618447483013037e-29  6.8754951497366781e-30  -4.2115104265143238e-29  -4.2115014509934390e-29  -2.0983041621774894e-30  -2.0982461411251884e-30  -2.8742068664135172e-30  -1.1091646171139242e-30  1.0222396034659631e-32  1.8025261241350468e-31  4.6383881777509088e-31  1.8017498163439170e-31  4.6385292796955304e-31  1.8017403087306927e-31  -1.1091182434780079e-30  -1.1091617594531646e-30  -5.9393742973719716e-32  -5.9397902350916127e-32  6.6592994985964819e-28  -2.0983309558710798e-30  -4.2115114561404683e-29  -1.0997928374563638e-28  1.7618468645591678e-29  -4.2115013812610355e-29  2.6313753125085628e-28  1.7255931131060035e-29  -4.2437753529368800e-27  2.6313714554897671e-28  6.6593008429078084e-28  2.6313728287446712e-28  -1.5896402058676834e-27  -1.0997933363967351e-28  -4.2115001724568791e-29  6.8755882486404011e-30  1.7618459578137061e-29  -4.2114988860377832e-29  6.8755255088352897e-30  -2.0984116178944167e-30  -4.2437750861861205e-27  1.7255817239164792e-29  2.6313731551584083e-28  6.6592992982521553e-28  2.6313735411066084e-28  -1.5896403420807518e-27  -1.5896398778235570e-27  2.4825599911006208e-26  -6.2772955531244170e-29  1.0151011481024931e-26  -1.0997939198600609e-28  4.0655565927807357e-31  6.8755817761464105e-30  1.7618423373207927e-29  6.8755470070704039e-30  -4.2114966444218656e-29  -4.2115025430203812e-29  -2.0983883688298821e-30  -2.8742324557610629e-30  -1.1091398095902519e-30  1.8017490316060432e-31  4.6383746609785119e-31  -1.1091657161056961e-30  -5.9412057684702924e-32  8.5307082092282291e-28  -1.6767296409087650e-25  1.0151011298147986e-26  2.4825600073896127e-26  1.0151011788084007e-26  -5.8904454555612425e-26  -5.8904454669674809e-26  -6.4352018965369819e-28  -4.2437751326761845e-27  1.7255877479185875e-29  2.6313720069723270e-28  6.6592993150602393e-28  2.6313724814782489e-28  -1.5896400875660797e-27  -1.5896400744855380e-27  -6.2773076844349984e-29  -1.0997936562396830e-28  4.0654189507212835e-31  6.8756379520230813e-30  1.7618401679526303e-29  6.8755772468063058e-30  -4.2114952160299367e-29  -4.2115008090247269e-29  -2.0983526759030998e-30  -2.8742234897047842e-30  1.0238593215975730e-32  1.8021439032142929e-31  4.6386256569038212e-31  1.8018145990559298e-31  -1.1091253894993359e-30  -1.1092017296569899e-30  -5.9368415752447786e-32  8.5307098867137816e-28  -1.6767296398877196e-25  1.0151011106951893e-26  2.4825600045147011e-26  1.0151011530357392e-26  -5.8904454669402735e-26  -5.8904454230318103e-26  8.9028315417425568e-25  -6.4351976124776696e-28  3.9893620405658802e-25  -4.2437751643975984e-27  1.7255841936458785e-29  2.6313725734092123e-28  6.6592988597092136e-28  2.6313737312919045e-28  -1.5896402595454504e-27  -1.5896402586766238e-27  -6.2773053471233857e-29  -1.0997940045227126e-28  4.0653325306769568e-31  6.8755661208260915e-30  1.7618347980441299e-29  6.8755367480798497e-30  -4.2115078506474104e-29  -4.2114997734043145e-29  -2.0980285707495126e-30  -2.8741828537498512e-30  1.0215040725468200e-32  1.8021606995638990e-31  4.6383538156606445e-31  1.8018256409245830e-31  -1.1091127194624165e-30  -1.1092136251427928e-30  -5.9451228456146775e-32  -4.2115079178756358e-29  -1.0997940972182527e-28  6.8755796213173800e-30  1.7618406401699155e-29  -1.0997932830025109e-28  4.0653334237651601e-31  6.8755321648562597e-30  1.7618468010775744e-29  6.8755472394477493e-30  -4.2115047006025190e-29  -4.2115022338604781e-29  6.6592985893975848e-28  -2.0982628860187140e-30  2.6313716265721697e-28  1.7255796469386714e-29  -4.2437751349460739e-27  2.6313734700769537e-28  6.6592993893153849e-28  2.6313741399998772e-28  -1.5896406086391506e-27  -1.5896404409981694e-27  2.4825600247987529e-26  -6.2773057370546345e-29  1.0151011415816520e-26  -1.0997926930972704e-28  4.0653233030166085e-31  6.8755795611201091e-30  1.7618442178262408e-29  6.8754932302364050e-30  -4.2115057793207798e-29  -4.2115065317725903e-29  -2.0983883194435371e-30  -2.8742366126806329e-30  -1.1091546652927080e-30  1.8018641967776236e-31  4.6381969419875275e-31  -1.1091698297168004e-30  -5.9365931874852615e-32  8.5307084489549195e-28  -1.6767296422626652e-25  1.0151011108571557e-26  2.4825599999930275e-26  1.0151011502549078e-26  -5.8904453656506677e-26  -5.8904454067809510e-26  -6.4352052480144359e-28  -4.2437750574940834e-27  1.7255694426123347e-29  2.6313733163855398e-28  6.6592998663527693e-28  2.6313726474181530e-28  -1.5896403099664727e-27  -1.5896402616616163e-27  -6.2772931838058358e-29  -1.0997931788710891e-28  4.0647587940912455e-31  6.8755759440003727e-30  1.7618433264875533e-29  6.8755484204397135e-30  -4.2114904483216789e-29  -4.2114982301890663e-29  -2.0984270675497541e-30  -2.8742497399851851e-30  1.0273011637421052e-32  1.8018260704498964e-31  4.6383219530733130e-31  1.8018381269687172e-31  -1.1091425294184703e-30  -1.1091882216406650e-30  -5.9365223760096637e-32  8.5307110869937830e-28  -1.6767296412130789e-25  1.0151010999516813e-26  2.4825600147527351e-26  1.0151011441305250e-26  -5.8904454430391110e-26  -5.8904454072958393e-26  8.9028315399942955e-25  -6.4351995287321741e-28  3.9893620312904667e-25  -4.2437751235927177e-27  1.7255739644916423e-29  2.6313716779617708e-28  6.6593002639264656e-28  2.6313721959392378e-28  -1.5896403061248194e-27  -1.5896400930979261e-27  -6.2772880831041591e-29  -1.0997937877543335e-28  4.0657678811777068e-31  6.8755689858616245e-30  1.7618361829373748e-29  6.8754937061993731e-30  -4.2114934638315902e-29  -4.2114929101331043e-29  -2.0983640336354905e-30  -2.8742120875933752e-30  1.0242598391461842e-32  1.8020882569203459e-31  4.6381038955629178e-31  1.8023092544566748e-31  -1.1091649311043039e-30  -1.1092353318384505e-30  -5.9453396461559944e-32  4.0657085738044246e-31  -1.0997936305169137e-28  6.8755607553566000e-30  1.7618443704076008e-29  6.8755575315620354e-30  1.7618470711317586e-29  6.8755695602088973e-30  -4.2114971220775450e-29  -4.2115056044582739e-29  6.6592991519131944e-28  -2.0982678364805862e-30  2.6313722983130114e-28  -2.8741960630207272e-30  -1.1092088323529738e-30  -5.9363821611320638e-32  4.6382952322395739e-31  -1.1091582173233579e-30  1.7255694811596060e-29  -4.2437750110644443e-27  2.6313735955078474e-28  6.6592993546422521e-28  2.6313726564448810e-28  -1.5896403758282019e-27  -1.5896402265888921e-27  2.4825600146896536e-26  -6.2773196059466669e-29  1.0151011193837763e-26  -1.0997935606085586e-28  4.0662592467721059e-31  6.8754788987432868e-30  1.7618455654462161e-29  6.8754779007356282e-30  -4.2115035997758395e-29  -4.2115009315327165e-29  -2.0983422580624636e-30  -2.8742002805256450e-30  -1.1091932117036393e-30  1.8020526704412119e-31  4.6383544326024178e-31  -1.1091694744053885e-30  1.8017179256405250e-31  -5.9409957611709425e-32  8.5307108625159947e-28  -1.6767296422770087e-25  1.0151011227057471e-26  2.4825600195933560e-26  1.0151011518129403e-26  -5.8904454577904412e-26  -5.8904454456563193e-26  8.9028315466843681e-25  -6.4351987914186676e-28  -4.2437751679371371e-27  1.7255891570123483e-29  2.6313727939240070e-28  6.6592987549476517e-28  2.6313730775533792e-28  -1.5896402401077075e-27  -1.5896401899272715e-27  -6.2773013891459184e-29  -1.0997926981764286e-28  4.0648683986027737e-31  6.8756231007681643e-30  1.7618460372485906e-29  6.8755267714401867e-30  -4.2115012390525304e-29  -4.2115071635694377e-29  -2.0983590937187907e-30  -2.8742392599523296e-30  1.0268829473967350e-32  1.8017571834019413e-31  4.6383828819842341e-31  1.8018665813910067e-31  -1.1091551802552538e-30  -1.1091502077813081e-30  -5.9400703207429337e-32  8.5307079644517254e-28  -1.6767296362578686e-25  1.0151011598541349e-26  2.4825599897699976e-26  1.0151011568695801e-26  -5.8904454602537287e-26  -5.8904454536039594e-26  8.9028315369313154e-25  -6.4352035779430707e-28  3.9893620259842751e-25  -4.2437751596610636e-27  1.7255901745990905e-29  2.6313709137425213e-28  6.6592980001096124e-28  2.6313730247956884e-28  -1.5896401902086600e-27  -1.5896401728252125e-27  -6.2773055285346015e-29  -1.0997931371853439e-28  4.0651743307714471e-31  6.8757146014453694e-30  1.7618497589160688e-29  6.8754947907604818e-30  -4.2114969396549987e-29  -4.2115011798886185e-29  -2.0982293135878434e-30  -2.8742272369658541e-30  1.0204903404795365e-32  1.8023322629302239e-31  4.6381936467074079e-31  1.8020838668282371e-31  -1.1091543593052582e-30  -1.1091705029877539e-30  -5.9417179621636944e-32  6.8755259348214889e-30  4.0641835085339567e-31  -1.0997936500517813e-28  1.7618440712207431e-29  1.7618384555446654e-29  6.8756247874980349e-30  -4.2115048116256184e-29  -4.2114758263407727e-29  6.6592997451077330e-28  -2.0983583907506012e-30  2.6313764271584280e-28  1.7255895116477522e-29  -4.2437751935803857e-27  6.6592997100136636e-28  2.6313720741474131e-28  -1.5896403310777124e-27  -1.5896401997326201e-27  2.4825600224011181e-26  -6.2773123550033908e-29  4.0656571361028485e-31  -1.0997932271500905e-28  6.8755149497763688e-30  1.7618455612993866e-29  6.8755664338862213e-30  -4.2115016933771470e-29  -4.2115052802189482e-29  -2.0984214626715659e-30  -2.8742187443183827e-30  -1.1091519743802882e-30  1.8020665599626951e-31  4.6383418308128506e-31  -1.1091485309960408e-30  -5.9403371257699595e-32  1.0151011499482009e-26  8.5307078428001457e-28  -1.6767296414251030e-25  2.4825600163514913e-26  1.0151011449228827e-26  -5.8904454822209986e-26  1.7255868076682161e-29  -4.2437749463576258e-27  2.6313720956720382e-28  6.6592992543392469e-28  2.6313727715402178e-28  -1.5896402022763121e-27  -1.5896400666269154e-27  -6.2773144319551266e-29  -1.0997931649308065e-28  4.0662489980325136e-31  6.8755053540669429e-30  1.7618445054843770e-29  6.8755929215273667e-30  -4.2115071071618356e-29  -4.2115006004825505e-29  -2.0983332940916964e-30  -2.8742152018622405e-30  1.0255426121047070e-32  1.8022040143767772e-31  4.6383430989661627e-31  1.8018728782828635e-31  -1.1092016344270534e-30  -1.1091548785736655e-30  -5.9377049261366377e-32  8.5307105405490911e-28  -1.6767296416518156e-25  1.0151011186703085e-26  2.4825600068224384e-26  1.0151011747857962e-26  -5.8904454514248650e-26  -5.8904454246352684e-26  -6.4352001987436534e-28  -4.2437751538509567e-27  1.7255838335971283e-29  2.6313741339068773e-28  6.6592984381901004e-28  2.6313736093333199e-28  -1.5896402902556681e-27  -1.5896401855484171e-27  -6.2773069697395630e-29  -1.0997932416234620e-28  4.0653367164385738e-31  6.8755613149892917e-30  1.7618437513577332e-29  6.8755175894620991e-30  -4.2115006454120519e-29  -4.2115053656213897e-29  -2.0983254996188205e-30  -2.8742078807802255e-30  1.0272173549651178e-32  1.8021710763874585e-31  4.6383724593527212e-31  1.8019582675201856e-31  -1.1091798702063450e-30  -1.1091793531279192e-30  -5.9390690787282921e-32  -1.6767296385501680e-25  8.5307084570335948e-28  1.0151011431354982e-26  2.4825600103546514e-26  1.0151011379822552e-26  -5.8904454352265574e-26  -5.8904454309530695e-26  8.9028315415640011e-25  -6.4352004260802897e-28  3.9893620273764695e-25  -4.2437752082020287e-27  1.7255810779073328e-29  2.6313742403973164e-28  6.6592987657685798e-28  2.6313732058286576e-28  -1.5896400559716306e-27  -1.5896401537898536e-27  -6.2773156727009639e-29  -1.0997934270980981e-28  4.0656390971348182e-31  6.8755058103725942e-30  1.7618410003966673e-29  6.8755370959385266e-30  -4.2115032943309843e-29  -4.2115038216514436e-29  -2.0983584391384440e-30  -2.8741937470102194e-30  1.0234884254717594e-32  1.8017878220133737e-31  4.6383524878995779e-31  1.8021300468733973e-31  -1.1091759760502654e-30  -1.1091788971774436e-30  -5.9396674368837992e-32  -4.2114884958210203e-29  -1.0997949967303773e-28  6.8755408879337701e-30  1.7618434664633065e-29  2.6313729830546101e-28  6.6592995400021027e-28  -2.0983115984333301e-30  1.7255783203379788e-29  -4.2437751455161809e-27  2.6313735702534438e-28  6.6592990563696661e-28  2.6313728757792613e-28  -1.5896403349821435e-27  -1.5896402544257940e-27  2.4825600077091179e-26  -6.2772873765882250e-29  1.0151011534015290e-26  -1.0997936771747942e-28  4.0651661790217188e-31  6.8755174776154919e-30  1.7618442008092397e-29  6.8755191777371375e-30  -4.2115003513923828e-29  -4.2114948979091228e-29  -2.0983211324574655e-30  -2.8742363763162561e-30  -1.1091565919876935e-30  1.8021431429472802e-31  4.6383193896873167e-31  -1.1091450018929534e-30  -5.9376675755087339e-32  -4.2437751854489645e-27  1.7255728343762888e-29  2.6313738933217371e-28  6.6592989015626518e-28  2.6313720745897302e-28  -1.5896400534566379e-27  -1.5896401754626184e-27  8.5307069265316795e-28  1.0151011273173728e-26  2.4825600044651515e-26  -6.2772973401795645e-29  1.0151011418840520e-26  -1.0997930114450528e-28  4.0654656236742109e-31  6.8755631503840150e-30  1.7618435104206767e-29  6.8755821181296294e-30  -4.2115025120252617e-29  -4.2115061987025927e-29  -2.0982410844723597e-30  -2.8742373265792867e-30  1.0260218624874550e-32  1.8018370914546807e-31  4.6383674366391723e-31  1.8020656639162051e-31  -1.1091904882118818e-30  -1.1091463679199789e-30  -5.9391974394058386e-32  8.5307082093146280e-28  -1.6767296421058067e-25  1.0151011403492283e-26  2.4825600238503101e-26  1.0151011579916114e-26  -5.8904454194045056e-26  8.9028315432127715e-25  -6.4352013032587582e-28  -4.2437751487427378e-27  1.7255848640607956e-29  2.6313734988714000e-28  6.6592993458946125e-28  2.6313723894849028e-28  -1.5896401701227584e-27  -1.5896401324507567e-27  -6.2773059544502790e-29  -1.0997933441333412e-28  4.0655037303734645e-31  6.8755492118576655e-30  1.7618439873747731e-29  6.8755306079499740e-30  -4.2115066548853580e-29  -4.2115089333664103e-29  -2.0982854427441503e-30  -2.8742240820438024e-30  1.0257307693163371e-32  1.8020462104006945e-31  4.6383782083901085e-31  1.8022830848695266e-31  -1.1092074806795747e-30  -1.1091669858279591e-30  -5.9385432824964798e-32  8.5307086133315754e-28  -1.6767296412996284e-25  1.0151011330892384e-26  2.4825600203440857e-26  1.0151011606757641e-26  -5.8904454515016326e-26  -5.8904454022713081e-26  3.9893620429814509e-25  8.9028315427136988e-25  -6.4352003208234456e-28  3.9893620289234265e-25  -4.2437751658901605e-27  1.7255784386141455e-29  2.6313733479443969e-28  6.6592990215891817e-28  2.6313724300271503e-28  -1.5896400876878357e-27  -1.5896401985586914e-27  -6.2773078590061188e-29  -1.0997932956586142e-28  4.0652841233680604e-31  6.8755539920798055e-30  1.7618467672252326e-29  6.8755420848084000e-30  -4.2115045977587943e-29  -4.2115043942101069e-29  -2.0982352054503292e-30  -2.8742130419485764e-30  1.0231657749621715e-32  1.8020507385221492e-31  4.6386245432833837e-31  1.8019253807859001e-31  -1.1091677124375678e-30  -1.1091478576832639e-30  -5.9380932260297594e-32  6.6592994957927684e-28  1.7255869461411880e-29  2.6313736672167601e-28  -4.2437750174470988e-27  2.6313728298353747e-28  6.6592993477444610e-28  2.6313730305483943e-28  6.6592980519628500e-28  2.6313734170131794e-28  -1.5896401260163473e-27  -6.2773104515467922e-29  1.7255786704377874e-29  -4.2437751825072770e-27  2.6313741762310001e-28  6.6592992508912402e-28  2.6313729124841729e-28  -1.5896401078692144e-27  -1.5896400137127834e-27  -6.2773178228125812e-29  -1.0997934930265438e-28  4.0655890353963844e-31  6.8755705320095673e-30  1.7618444122567836e-29  -4.2115070898381208e-29  -4.2114988340987521e-29  -2.0983974764092665e-30  -2.8742170948795859e-30  -1.1091828670231685e-30  1.8019491306107162e-31  4.6384930897792888e-31  -5.9398854542971240e-32  -4.2437751558539779e-27  1.7255858628159914e-29  2.6313733323554456e-28  6.6592990522206917e-28  2.6313720484136332e-28  -1.5896402785304450e-27  1.0151011696725151e-26  2.4825600161357662e-26  -6.2773003946276297e-29  -1.0997932939008801e-28  4.0654454254071207e-31  6.8755215792102129e-30  1.7618465191499948e-29  6.8755528347449025e-30  -4.2114955108958096e-29  -4.2115035020165256e-29  -2.0983747514986814e-30  -2.8742380176348810e-30  1.0245764609997475e-32  1.8018452845886327e-31  4.6384215782470244e-31  1.8019883803580017e-31  -1.1091605699046472e-30  -1.1091227240349632e-30  -5.9375898655404460e-32  -4.2437753068988332e-27  1.7255839583802082e-29  2.6313730182106174e-28  6.6592988741374920e-28  2.6313731856420192e-28  -1.5896403119238039e-27  -1.5896402746179422e-27  -6.2773136323128056e-29  8.5307131697459900e-28  1.01510113