<?xml version="1.0"?>
<VTKFile type="UnstructuredGrid"  version="0.1"  >
<UnstructuredGrid>
<Piece  NumberOfPoints="7288" NumberOfCells="37255">
<Points>
<DataArray  type="Float64"  NumberOfComponents="3"  format="ascii">20 0 22.5  21.25 1.25 23.75  21.25 0 23.75  21.25 0 22.5  22.5 0 22.5  22.5 1.25 23.75  22.5 0 23.75  22.5 0 25  22.5 1.25 25  22.5 2.5 25  23.75 1.25 23.75  23.75 0 23.75  23.75 0 22.5  25 0 22.5  25 1.25 23.75  25 0 23.75  25 0 25  25 1.25 25  25 2.5 25  23.75 1.25 25  23.75 0 25  23.75 2.5 25  26.25 1.25 23.75  26.25 0 23.75  26.25 0 22.5  27.5 0 22.5  27.5 1.25 23.75  27.5 0 23.75  27.5 0 25  27.5 1.25 25  27.5 2.5 25  26.25 1.25 25  26.25 0 25  26.25 2.5 25  28.75 1.25 23.75  28.75 0 23.75  28.75 0 22.5  30 0 22.5  30 1.25 23.75  30 0 23.75  30 0 25  30 1.25 25  30 2.5 25  28.75 1.25 25  28.75 0 25  28.75 2.5 25  31.25 1.25 23.75  31.25 0 23.75  31.25 0 22.5  32.5 0 22.5  31.25 1.25 25  31.25 2.5 25  32.5 2.5 25  23.75 1.25 26.25  25 1.25 26.25  23.75 0 26.25  25 0 26.25  26.25 1.25 26.25  27.5 1.25 26.25  27.5 2.5 26.25  27.5 2.5 27.5  26.25 0 26.25  27.5 0 26.25  26.25 2.5 26.25  28.75 1.25 26.25  30 1.25 26.25  30 2.5 26.25  30 2.5 27.5  28.75 0 26.25  28.75 2.5 26.25  28.75 2.5 27.5  31.25 1.25 26.25  31.25 2.5 26.25  25 3.75 26.25  25 3.75 25  23.75 3.75 26.25  23.75 3.75 25  25 5 25  26.25 3.75 26.25  26.25 3.75 25  27.5 3.75 26.25  27.5 3.75 25  27.5 5 25  26.25 5 25  28.75 3.75 26.25  28.75 3.75 25  30 3.75 26.25  30 3.75 25  30 5 25  28.75 5 25  31.25 3.75 26.25  31.25 3.75 25  30 0 0  31.25 1.25 1.25  31.25 1.25 0  31.25 0 0  32.5 0 0  32.5 1.25 1.25  32.5 1.25 0  32.5 2.5 0  32.5 2.5 1.25  32.5 2.5 2.5  31.25 0 1.25  32.5 0 1.25  32.5 0 2.5  32.5 1.25 2.5  30 1.25 0  30 2.5 0  31.25 2.5 1.25  31.25 2.5 0  33.75 1.25 1.25  33.75 1.25 0  33.75 0 0  35 0 0  35 1.25 1.25  35 1.25 0  35 2.5 0  35 2.5 1.25  35 2.5 2.5  33.75 0 1.25  35 0 1.25  35 0 2.5  35 1.25 2.5  33.75 1.25 2.5  33.75 0 2.5  33.75 2.5 1.25  33.75 2.5 0  33.75 2.5 2.5  36.25 1.25 1.25  36.25 1.25 0  36.25 0 0  37.5 0 0  37.5 1.25 1.25  37.5 1.25 0  37.5 2.5 0  37.5 2.5 1.25  37.5 2.5 2.5  36.25 0 1.25  37.5 0 1.25  37.5 0 2.5  37.5 1.25 2.5  36.25 1.25 2.5  36.25 0 2.5  36.25 2.5 1.25  36.25 2.5 0  36.25 2.5 2.5  38.75 1.25 1.25  38.75 1.25 0  38.75 0 0  40 0 0  40 1.25 1.25  40 1.25 0  40 2.5 0  40 2.5 1.25  40 2.5 2.5  38.75 0 1.25  40 0 1.25  40 0 2.5  40 1.25 2.5  38.75 1.25 2.5  38.75 0 2.5  38.75 2.5 1.25  38.75 2.5 0  38.75 2.5 2.5  41.25 1.25 1.25  41.25 1.25 0  41.25 0 0  42.5 0 0  42.5 1.25 1.25  42.5 1.25 0  42.5 2.5 0  42.5 2.5 1.25  42.5 2.5 2.5  41.25 0 1.25  42.5 0 1.25  42.5 0 2.5  42.5 1.25 2.5  41.25 1.25 2.5  41.25 0 2.5  41.25 2.5 1.25  41.25 2.5 0  41.25 2.5 2.5  43.75 1.25 1.25  43.75 1.25 0  43.75 0 0  45 0 0  45 1.25 1.25  45 1.25 0  45 2.5 0  45 2.5 1.25  45 2.5 2.5  43.75 0 1.25  45 0 1.25  45 0 2.5  45 1.25 2.5  43.75 1.25 2.5  43.75 0 2.5  43.75 2.5 1.25  43.75 2.5 0  43.75 2.5 2.5  46.25 1.25 1.25  46.25 1.25 0  46.25 0 0  47.5 0 0  47.5 1.25 1.25  47.5 1.25 0  47.5 2.5 0  47.5 2.5 1.25  47.5 2.5 2.5  46.25 0 1.25  47.5 0 1.25  47.5 0 2.5  47.5 1.25 2.5  46.25 1.25 2.5  46.25 0 2.5  46.25 2.5 1.25  46.25 2.5 0  46.25 2.5 2.5  48.75 1.25 1.25  48.75 1.25 0  48.75 0 0  50 0 0  50 1.25 1.25  50 1.25 0  50 2.5 0  50 2.5 1.25  50 2.5 2.5  48.75 0 1.25  50 0 1.25  50 0 2.5  50 1.25 2.5  48.75 1.25 2.5  48.75 0 2.5  48.75 2.5 1.25  48.75 2.5 0  48.75 2.5 2.5  31.25 3.75 1.25  31.25 3.75 0  32.5 3.75 1.25  32.5 3.75 0  32.5 5 0  32.5 5 1.25  32.5 5 2.5  32.5 3.75 2.5  30 3.75 0  30 5 0  31.25 5 1.25  31.25 5 0  33.75 3.75 1.25  33.75 3.75 0  35 3.75 1.25  35 3.75 0  35 5 0  35 5 1.25  35 5 2.5  35 3.75 2.5  33.75 3.75 2.5  33.75 5 1.25  33.75 5 0  33.75 5 2.5  36.25 3.75 1.25  36.25 3.75 0  37.5 3.75 1.25  37.5 3.75 0  37.5 5 0  37.5 5 1.25  37.5 5 2.5  37.5 3.75 2.5  36.25 3.75 2.5  36.25 5 1.25  36.25 5 0  36.25 5 2.5  38.75 3.75 1.25  38.75 3.75 0  40 3.75 1.25  40 3.75 0  40 5 0  40 5 1.25  40 5 2.5  40 3.75 2.5  38.75 3.75 2.5  38.75 5 1.25  38.75 5 0  38.75 5 2.5  41.25 3.75 1.25  41.25 3.75 0  42.5 3.75 1.25  42.5 3.75 0  42.5 5 0  42.5 5 1.25  42.5 5 2.5  42.5 3.75 2.5  41.25 3.75 2.5  41.25 5 1.25  41.25 5 0  41.25 5 2.5  43.75 3.75 1.25  43.75 3.75 0  45 3.75 1.25  45 3.75 0  45 5 0  45 5 1.25  45 5 2.5  45 3.75 2.5  43.75 3.75 2.5  43.75 5 1.25  43.75 5 0  43.75 5 2.5  46.25 3.75 1.25  46.25 3.75 0  47.5 3.75 1.25  47.5 3.75 0  47.5 5 0  47.5 5 1.25  47.5 5 2.5  47.5 3.75 2.5  46.25 3.75 2.5  46.25 5 1.25  46.25 5 0  46.25 5 2.5  48.75 3.75 1.25  48.75 3.75 0  50 3.75 1.25  50 3.75 0  50 5 0  50 5 1.25  50 5 2.5  50 3.75 2.5  48.75 3.75 2.5  48.75 5 1.25  48.75 5 0  48.75 5 2.5  31.25 6.25 1.25  31.25 6.25 0  32.5 6.25 1.25  32.5 6.25 0  32.5 7.5 0  32.5 7.5 1.25  32.5 7.5 2.5  32.5 6.25 2.5  30 6.25 0  30 7.5 0  31.25 7.5 1.25  31.25 7.5 0  33.75 6.25 1.25  33.75 6.25 0  35 6.25 1.25  35 6.25 0  35 7.5 0  35 7.5 1.25  35 7.5 2.5  35 6.25 2.5  33.75 6.25 2.5  33.75 7.5 1.25  33.75 7.5 0  33.75 7.5 2.5  36.25 6.25 1.25  36.25 6.25 0  37.5 6.25 1.25  37.5 6.25 0  37.5 7.5 0  37.5 7.5 1.25  37.5 7.5 2.5  37.5 6.25 2.5  36.25 6.25 2.5  36.25 7.5 1.25  36.25 7.5 0  36.25 7.5 2.5  38.75 6.25 1.25  38.75 6.25 0  40 6.25 1.25  40 6.25 0  40 7.5 0  40 7.5 1.25  40 7.5 2.5  40 6.25 2.5  38.75 6.25 2.5  38.75 7.5 1.25  38.75 7.5 0  38.75 7.5 2.5  41.25 6.25 1.25  41.25 6.25 0  42.5 6.25 1.25  42.5 6.25 0  42.5 7.5 0  42.5 7.5 1.25  42.5 7.5 2.5  42.5 6.25 2.5  41.25 6.25 2.5  41.25 7.5 1.25  41.25 7.5 0  41.25 7.5 2.5  43.75 6.25 1.25  43.75 6.25 0  45 6.25 1.25  45 6.25 0  45 7.5 0  45 7.5 1.25  45 7.5 2.5  45 6.25 2.5  43.75 6.25 2.5  43.75 7.5 1.25  43.75 7.5 0  43.75 7.5 2.5  46.25 6.25 1.25  46.25 6.25 0  47.5 6.25 1.25  47.5 6.25 0  47.5 7.5 0  47.5 7.5 1.25  47.5 7.5 2.5  47.5 6.25 2.5  46.25 6.25 2.5  46.25 7.5 1.25  46.25 7.5 0  46.25 7.5 2.5  48.75 6.25 1.25  48.75 6.25 0  50 6.25 1.25  50 6.25 0  50 7.5 0  50 7.5 1.25  50 7.5 2.5  50 6.25 2.5  48.75 6.25 2.5  48.75 7.5 1.25  48.75 7.5 0  48.75 7.5 2.5  31.25 8.75 1.25  31.25 8.75 0  32.5 8.75 1.25  32.5 8.75 0  32.5 10 0  32.5 10 1.25  32.5 10 2.5  32.5 8.75 2.5  30 8.75 0  30 10 0  31.25 10 1.25  31.25 10 0  33.75 8.75 1.25  33.75 8.75 0  35 8.75 1.25  35 8.75 0  35 10 0  35 10 1.25  35 10 2.5  35 8.75 2.5  33.75 8.75 2.5  33.75 10 1.25  33.75 10 0  33.75 10 2.5  36.25 8.75 1.25  36.25 8.75 0  37.5 8.75 1.25  37.5 8.75 0  37.5 10 0  37.5 10 1.25  37.5 10 2.5  37.5 8.75 2.5  36.25 8.75 2.5  36.25 10 1.25  36.25 10 0  36.25 10 2.5  38.75 8.75 1.25  38.75 8.75 0  40 8.75 1.25  40 8.75 0  40 10 0  40 10 1.25  40 10 2.5  40 8.75 2.5  38.75 8.75 2.5  38.75 10 1.25  38.75 10 0  38.75 10 2.5  41.25 8.75 1.25  41.25 8.75 0  42.5 8.75 1.25  42.5 8.75 0  42.5 10 0  42.5 10 1.25  42.5 10 2.5  42.5 8.75 2.5  41.25 8.75 2.5  41.25 10 1.25  41.25 10 0  41.25 10 2.5  43.75 8.75 1.25  43.75 8.75 0  45 8.75 1.25  45 8.75 0  45 10 0  45 10 1.25  45 10 2.5  45 8.75 2.5  43.75 8.75 2.5  43.75 10 1.25  43.75 10 0  43.75 10 2.5  46.25 8.75 1.25  46.25 8.75 0  47.5 8.75 1.25  47.5 8.75 0  47.5 10 0  47.5 10 1.25  47.5 10 2.5  47.5 8.75 2.5  46.25 8.75 2.5  46.25 10 1.25  46.25 10 0  46.25 10 2.5  48.75 8.75 1.25  48.75 8.75 0  50 8.75 1.25  50 8.75 0  50 10 0  50 10 1.25  50 10 2.5  50 8.75 2.5  48.75 8.75 2.5  48.75 10 1.25  48.75 10 0  48.75 10 2.5  31.25 11.25 1.25  31.25 11.25 0  32.5 11.25 1.25  32.5 11.25 0  32.5 12.5 0  32.5 12.5 1.25  32.5 12.5 2.5  32.5 11.25 2.5  30 11.25 0  30 12.5 0  31.25 12.5 1.25  31.25 12.5 0  33.75 11.25 1.25  33.75 11.25 0  35 11.25 1.25  35 11.25 0  35 12.5 0  35 12.5 1.25  35 12.5 2.5  35 11.25 2.5  33.75 11.25 2.5  33.75 12.5 1.25  33.75 12.5 0  33.75 12.5 2.5  36.25 11.25 1.25  36.25 11.25 0  37.5 11.25 1.25  37.5 11.25 0  37.5 12.5 0  37.5 12.5 1.25  37.5 12.5 2.5  37.5 11.25 2.5  36.25 11.25 2.5  36.25 12.5 1.25  36.25 12.5 0  36.25 12.5 2.5  38.75 11.25 1.25  38.75 11.25 0  40 11.25 1.25  40 11.25 0  40 12.5 0  40 12.5 1.25  40 12.5 2.5  40 11.25 2.5  38.75 11.25 2.5  38.75 12.5 1.25  38.75 12.5 0  38.75 12.5 2.5  41.25 11.25 1.25  41.25 11.25 0  42.5 11.25 1.25  42.5 11.25 0  42.5 12.5 0  42.5 12.5 1.25  42.5 12.5 2.5  42.5 11.25 2.5  41.25 11.25 2.5  41.25 12.5 1.25  41.25 12.5 0  41.25 12.5 2.5  43.75 11.25 1.25  43.75 11.25 0  45 11.25 1.25  45 11.25 0  45 12.5 0  45 12.5 1.25  45 12.5 2.5  45 11.25 2.5  43.75 11.25 2.5  43.75 12.5 1.25  43.75 12.5 0  43.75 12.5 2.5  46.25 11.25 1.25  46.25 11.25 0  47.5 11.25 1.25  47.5 11.25 0  47.5 12.5 0  47.5 12.5 1.25  47.5 12.5 2.5  47.5 11.25 2.5  46.25 11.25 2.5  46.25 12.5 1.25  46.25 12.5 0  46.25 12.5 2.5  48.75 11.25 1.25  48.75 11.25 0  50 11.25 1.25  50 11.25 0  50 12.5 0  50 12.5 1.25  50 12.5 2.5  50 11.25 2.5  48.75 11.25 2.5  48.75 12.5 1.25  48.75 12.5 0  48.75 12.5 2.5  31.25 13.75 1.25  31.25 13.75 0  32.5 13.75 1.25  32.5 13.75 0  32.5 15 0  32.5 15 1.25  32.5 15 2.5  32.5 13.75 2.5  30 13.75 0  30 15 0  31.25 15 1.25  31.25 15 0  33.75 13.75 1.25  33.75 13.75 0  35 13.75 1.25  35 13.75 0  35 15 0  35 15 1.25  35 15 2.5  35 13.75 2.5  33.75 13.75 2.5  33.75 15 1.25  33.75 15 0  33.75 15 2.5  36.25 13.75 1.25  36.25 13.75 0  37.5 13.75 1.25  37.5 13.75 0  37.5 15 0  37.5 15 1.25  37.5 15 2.5  37.5 13.75 2.5  36.25 13.75 2.5  36.25 15 1.25  36.25 15 0  36.25 15 2.5  38.75 13.75 1.25  38.75 13.75 0  40 13.75 1.25  40 13.75 0  40 15 0  40 15 1.25  40 15 2.5  40 13.75 2.5  38.75 13.75 2.5  38.75 15 1.25  38.75 15 0  38.75 15 2.5  41.25 13.75 1.25  41.25 13.75 0  42.5 13.75 1.25  42.5 13.75 0  42.5 15 0  42.5 15 1.25  42.5 15 2.5  42.5 13.75 2.5  41.25 13.75 2.5  41.25 15 1.25  41.25 15 0  41.25 15 2.5  43.75 13.75 1.25  43.75 13.75 0  45 13.75 1.25  45 13.75 0  45 15 0  45 15 1.25  45 15 2.5  45 13.75 2.5  43.75 13.75 2.5  43.75 15 1.25  43.75 15 0  43.75 15 2.5  46.25 13.75 1.25  46.25 13.75 0  47.5 13.75 1.25  47.5 13.75 0  47.5 15 0  47.5 15 1.25  47.5 15 2.5  47.5 13.75 2.5  46.25 13.75 2.5  46.25 15 1.25  46.25 15 0  46.25 15 2.5  48.75 13.75 1.25  48.75
[...]
<PointData  Scalars="c_HbCO2"> 
<DataArray  type="Float64"  Name="c_HbCO2"  format="ascii">4.3707010192272039e-27  5.3581750398856495e-27  4.3537955676830461e-27  4.3340228179239446e-27  4.3430016828933513e-27  5.3195807369854150e-27  4.3547545436083558e-27  4.3430016883830053e-27  5.3316270473405688e-27  6.6145851091168978e-27  5.2741671675605708e-27  4.3411159998465687e-27  4.3222759648703842e-27  4.3277284775714717e-27  5.2395649711701415e-27  4.3384648730938814e-27  4.3277284774462654e-27  5.2509430530874277e-27  6.4393285813728847e-27  5.2835314497252317e-27  4.3222759862277325e-27  6.5367967866690429e-27  5.2017594113209247e-27  4.3285385150769967e-27  4.3116933975610163e-27  4.3154845987026579e-27  5.1725766562723495e-27  4.3251166454378019e-27  4.3154845899342012e-27  5.1835108071894532e-27  6.2922640840811879e-27  5.2103621192593568e-27  4.3116934229840649e-27  6.3731696763188651e-27  5.1401103587228864e-27  4.3173702429779886e-27  4.3022610731256329e-27  4.3049297204676577e-27  5.1153972457704159e-27  4.3136355951319821e-27  4.3049296992373387e-27  5.1258311635438479e-27  6.1666036618187102e-27  5.1480961064537361e-27  4.3022611057806321e-27  6.2349580965776889e-27  5.0870054608544145e-27  4.3074860443629757e-27  4.2938156668880809e-27  4.2956534089668134e-27  5.0944423918361691e-27  6.1165830928872808e-27  6.0578657297485894e-27  5.2741671675672526e-27  5.2395649711942132e-27  4.3411159998432404e-27  4.3384648730911536e-27  5.2017594113375476e-27  5.1725766563316717e-27  6.2903778648556914e-27  6.2922638270778429e-27  4.3285385151025213e-27  4.3251166454184676e-27  6.3588854081402553e-27  5.1401103587366395e-27  5.1153972458017390e-27  6.1668634392442071e-27  6.1666033949491672e-27  4.3173702430251360e-27  6.2262280844778473e-27  6.2349578011679545e-27  5.0870054608366113e-27  6.1116225186844747e-27  7.7431826443892685e-27  7.6834254822810994e-27  7.8294158603746409e-27  7.7989703858593186e-27  8.6310325244841185e-27  7.6272051443368832e-27  7.6018188188848929e-27  7.5472132352491814e-27  7.4975345904656338e-27  8.4888805577754080e-27  8.5528838313480165e-27  7.4429223426866339e-27  7.4225173391033155e-27  7.3693539903891918e-27  7.3286998951552646e-27  8.3446274293325320e-27  8.4137889738985269e-27  7.2762634940512200e-27  7.2602452109885937e-27  4.0698712559769405e-27  4.3446702798326251e-27  4.1459033735134077e-27  4.0728612425166201e-27  4.0698499711875450e-27  4.3320866028476700e-27  4.1427308662026042e-27  4.1896482130008554e-27  4.5309335007624955e-27  4.9024300596733141e-27  4.1459033735441977e-27  4.1427308661908464e-27  4.1896482130113871e-27  4.5309335007728901e-27  4.1494443232305500e-27  4.1997240125599412e-27  4.5494870879922624e-27  4.1862237249242073e-27  4.3230527959092173e-27  4.1400697612452059e-27  4.0729570999263449e-27  4.0698307009180764e-27  4.3122688617551114e-27  4.1370558726542623e-27  4.1810151829000390e-27  4.4957881330659436e-27  4.8361787746708651e-27  4.1400697612601040e-27  4.1370558726633274e-27  4.1810151828928816e-27  4.4957881330954680e-27  4.5115309015266092e-27  4.1781799129074970e-27  4.5115309015046892e-27  4.1781799129020485e-27  4.8682807857642839e-27  4.3045847994599765e-27  4.1350626436778106e-27  4.0729929280348645e-27  4.0698124054713605e-27  4.2952361818703332e-27  4.1321958380889123e-27  4.1735356040201799e-27  4.4655773264006930e-27  4.7796100355576132e-27  4.1350626436842118e-27  4.1321958381073634e-27  4.1735356040383648e-27  4.4655773264329861e-27  4.4790991953571250e-27  4.1711610922323051e-27  4.4790991953543714e-27  4.1711610922121522e-27  4.8069763902692577e-27  4.2886254189009048e-27  4.1307190489290447e-27  4.0729891160791002e-27  4.0697948423034946e-27  4.2804403926524778e-27  4.1279873570101771e-27  4.1669906461594297e-27  4.4393385432474817e-27  4.7307661646386187e-27  4.1307190489316771e-27  4.1279873570006355e-27  4.1669906461540229e-27  4.4393385432629179e-27  4.4510764029065420e-27  4.1649869491281495e-27  4.4510764028927509e-27  4.1649869491169721e-27  4.7543722243265383e-27  4.2746956025941671e-27  4.1269176381971184e-27  4.0729582046923493e-27  4.0697784804193233e-27  4.2674722367522770e-27  4.1243087851878889e-27  4.1612040500220203e-27  4.4163426663462640e-27  4.6881861747512599e-27  4.1269176381695814e-27  4.1243087851700233e-27  4.1612040500228368e-27  4.4163426663666665e-27  4.4266264056584691e-27  4.1595226265621188e-27  4.4266264056496544e-27  4.1595226265474086e-27  4.7087421181256306e-27  4.2624277150744172e-27  4.1235698819434087e-27  4.0729022855056343e-27  4.0697711316431551e-27  4.2560354012379694e-27  4.1210723405940254e-27  4.1560047561913639e-27  4.3960352746359823e-27  4.6507706643877844e-27  4.1235698819793264e-27  4.1210723406022963e-27  4.1560047562028477e-27  4.3960352746628098e-27  4.4051140179772269e-27  4.1546828805188818e-27  4.4051140179662497e-27  4.1546828805096337e-27  4.6687854115770222e-27  4.2515250258524529e-27  4.1206225770686829e-27  4.0727869191008248e-27  4.0698272390615645e-27  4.2460064790582209e-27  4.1182367368841975e-27  4.1511285509673083e-27  4.3780728769129655e-27  4.6177804139539428e-27  4.1206225770959114e-27  4.1182367369078932e-27  4.1511285509707715e-27  4.3780728769553785e-27  4.3860646560777679e-27  4.1504873089472561e-27  4.3860646560538656e-27  4.1504873089348009e-27  4.6335236932287981e-27  4.2418276914180175e-27  4.1180877274206610e-27  4.0724080540739504e-27  4.0703306043743206e-27  4.2390469500095789e-27  4.1161438185667054e-27  4.1463076561529523e-27  4.3643574317135364e-27  4.5918859284462345e-27  4.1180877274486414e-27  4.1161438185678957e-27  4.1463076561479623e-27  4.3643574317408847e-27  4.3694481497662640e-27  4.1473723840478833e-27  4.3694481497332642e-27  4.1473723840320675e-27  4.6030170926593739e-27  4.7349009141155521e-27  4.2328300007195960e-27  4.7078838894081136e-27  4.2337587591223588e-27  4.2612592419262031e-27  4.8577833811837575e-27  5.5967638668588533e-27  5.2702488786284956e-27  4.2464958614703408e-27  4.2743321354542874e-27  4.8814193111751349e-27  4.2547092328790503e-27  4.6840251914919294e-27  4.2220549942285257e-27  4.6608736663922174e-27  4.2226740970950310e-27  4.2496820535794027e-27  4.8041860560415658e-27  5.4817978056064800e-27  5.1756325268680049e-27  5.2232488569086716e-27  4.8245452665762026e-27  4.2441830257210182e-27  5.5383667081242840e-27  4.6402567551071869e-27  4.2125505897158895e-27  4.6202214912932606e-27  4.2129505089611092e-27  4.2393680632329046e-27  4.7571223647180302e-27  5.3820327452703417e-27  5.0944049752508719e-27  5.1355164771797424e-27  4.7748145941320699e-27  4.2347085222831179e-27  5.4308329683341576e-27  4.6022243721114160e-27  4.2041188232926133e-27  4.5847336136170494e-27  4.2043576659526916e-27  4.2301229989774439e-27  4.7155029911069492e-27  5.2948113948847920e-27  5.0240025364674810e-27  5.0597966670816426e-27  4.7310027149336442e-27  4.2261538146873702e-27  5.3372861838272413e-27  4.5688822700363495e-27  4.1966058065897060e-27  4.5534971775406115e-27  4.1967071497747977e-27  4.2217686779501195e-27  4.6784594158261554e-27  5.2180383702969467e-27  4.9624677264409897e-27  4.9938391984227795e-27  4.6921464440132874e-27  4.2184165695720107e-27  5.2552743741781455e-27  4.5394207440339624e-27  4.1899137779774306e-27  4.5258214926034551e-27  4.1898258825027175e-27  4.2140891610846069e-27  4.6452893958507855e-27  5.1500631455213645e-27  4.9083096031167933e-27  4.9358947561295170e-27  4.6574904858129936e-27  4.2114490447166954e-27  5.1828615160936305e-27  4.5132023527330498e-27  4.1840776851108127e-27  4.5013337510176524e-27  4.1834795571216275e-27  4.2066580124269468e-27  4.6154823030866586e-27  5.0896927176256071e-27  4.8605458388644708e-27  4.8845701377564073e-27  4.6264825877629007e-27  4.2053574867432663e-27  5.1185313145842267e-27  4.4899461910824870e-27  4.1796063074393138e-27  4.4836346306838014e-27  4.1775467993102734e-27  4.1988561110274886e-27  4.5915667286729790e-27  5.0409046144793546e-27  4.8235361235305235e-27  4.8392827147475475e-27  4.5992627562274410e-27  4.2008387057416499e-27  5.0622155928170357e-27  4.9837381757214512e-27  4.2835537131514193e-27  4.9534832664666538e-27  4.2825926919927303e-27  4.2896562760549732e-27  5.0207742729688492e-27  5.9528642376678796e-27  5.8096537666555528e-27  4.2951176576426862e-27  4.3006517060376862e-27  5.0409771614921585e-27  4.2841478262583844e-27  4.9261275028439449e-27  4.2724279571535745e-27  4.8994368959715523e-27  4.2713310298403590e-27  4.2796356846421041e-27  4.9687607913052336e-27  5.8401729921255284e-27  5.6932884654953361e-27  5.7570134999016154e-27  4.9863004946455606e-27  4.2748989687401541e-27  5.8964406138341657e-27  4.8749958314432889e-27  4.2623248910666631e-27  4.8513100795647063e-27  4.2611448931937716e-27  4.2704476135826758e-27  4.9219899907072358e-27  5.7391979523508897e-27  5.5902042105201358e-27  5.6470038196033776e-27  4.9373680982070575e-27  4.2663489357610716e-27  5.7892819178865537e-27  4.8293358781236696e-27  4.2531165337295469e-27  4.8082037857226191e-27  4.2518841275716977e-27  4.2619766002960677e-27  4.8796726685005664e-27  5.6482457541788640e-27  5.4984397991043980e-27  5.5492979388931298e-27  4.8932726532068856e-27  4.2584259723062220e-27  5.6931315224181238e-27  4.7883406413747970e-27  4.2447077441657849e-27  4.7693968391561040e-27  4.2434199429062393e-27  4.2541081429937418e-27  4.8411774653693633e-27  5.5659659076183555e-27  5.4163922953271420e-27  5.4620667672881680e-27  4.8533117851948431e-27  4.2510831759110110e-27  5.6063897864721871e-27  4.7513546853076050e-27  4.2370559919496907e-27  4.7343241869774021e-27  4.2356211080166801e-27  4.2466704397553742e-27  4.8059754884499582e-27  5.4912723868901965e-27  5.3427868305510397e-27  5.3837812127114218e-27  4.8169464919662436e-27  4.2443237058590390e-27  5.5277723610168620e-27  4.7178364706818436e-27  4.2302645433484602e-27  4.7027148079309972e-27  4.2282863943149811e-27  4.2392527974921794e-27  4.7736207234535510e-27  5.4233816862043272e-27  5.2768565745125932e-27  5.3130944564314793e-27  4.7838252246424903e-27  4.2383007468542982e-27  5.4562482310793649e-27  4.6875608198429474e-27  4.2249358003535655e-27  4.6791702400351762e-27  4.2214728664538277e-27  4.2312002936470645e-27  4.7464390135792128e-27  5.3666573556380497e-27  5.2247169825360278e-27  5.2491958786223337e-27  4.7543627374390756e-27  4.2337315394861135e-27  5.3920401584423514e-27  5.0677729639977084e-27  4.3021460344978141e-27  5.0426831112779956e-27  4.2992333669685776e-27  4.2952042456997619e-27  5.0665012521927129e-27  6.0422030535153726e-27  6.0102124357382563e-27  4.3101655179703843e-27  4.3047992710022944e-27  5.0851385438229349e-27  4.2920299216813702e-27  5.0168027646537662e-27  4.2923197597270324e-27  4.9944432163455847e-27  4.2893823804800359e-27  4.2865586688079849e-27  5.0199705269907470e-27  5.9421215026781968e-27  5.9055530895367997e-27  5.9622513442686280e-27  5.0358523158193855e-27  4.2839394751287096e-27  5.9943191994873969e-27  4.9710869613931725e-27  4.2833398230131087e-27  4.9509903843118731e-27  4.2804221663202287e-27  4.2786859032674791e-27  4.9781767568541938e-27  5.8525878493061762e-27  5.8114020637396402e-27  5.8632873692691569e-27  4.9918604186346661e-27  4.2764993216935569e-27  5.8989674189919185e-27  4.9297342865756836e-27  4.2750850961626520e-27  4.9115426736358365e-27  4.2722081717934045e-27  4.2714479281697962e-27  4.9403032159032124e-27  5.7717905789085143e-27  5.7261557737718903e-27  5.7738579592030296e-27  4.9522142222340027e-27  4.2696182724973821e-27  5.8134184779748834e-27  4.8920698274183838e-27  4.2674713669348647e-27  4.8755023266987120e-27  4.2646225774980873e-27  4.2647191800963774e-27  4.9057157949830459e-27  5.6983509859082205e-27  5.6485717990319208e-27  5.6925328009868167e-27  4.9161989350875212e-27  4.2632350300153304e-27  5.7359947779584428e-27  4.8575739198321903e-27  4.2604664947021515e-27  4.8424173314123128e-27  4.2575523015331580e-27  4.2583342696790603e-27  4.8738931718094300e-27  5.6312212756302333e-27  5.5777217399958067e-27  5.6181519374296496e-27  4.8832832628843829e-27  4.2573362997849847e-27  5.6654037743739436e-27  4.8258417174783926e-27  4.2541635356159163e-27  4.8120773836895224e-27  4.2508482447651646e-27  4.2519379879219636e-27  4.8443639133128285e-27  5.5697004413116005e-27  5.5131711620283153e-27  5.5496713886265490e-27  4.8531359301433639e-27  4.2520318111290716e-27  5.6006362722712031e-27  4.7967620478749295e-27  4.2490167009736438e-27  4.7887734984243286e-27  4.2447769992476374e-27  4.2450327044277498e-27  4.8189343461171541e-27  5.5176819114199912e-27  5.4610112964297840e-27  5.4863234627306257e-27  4.8261557864774787e-27  4.2478657677621580e-27  5.5417480410702755e-27  5.0843786908827433e-27  4.3065886467722538e-27  5.0623240759098320e-27  4.3029219145796469e-27  4.2956904892825069e-27  5.0745977126372706e-27  6.0560476763599627e-27  6.0524289333129056e-27  4.3131556123299077e-27  4.3049938437051236e-27  5.0931808508073896e-27  4.2935494722006198e-27  5.0370492338932765e-27  4.2975151100149258e-27  5.0177225324476528e-27  4.2938007970302250e-27  4.2873984203107299e-27  5.0301519664917230e-27  5.9600781941232386e-27  5.9557395996787943e-27  6.0049136700587836e-27  5.0458873016123371e-27  4.2858403175700749e-27  6.0113477935333988e-27  4.9950116613913893e-27  4.2892948765065698e-27  4.9778911624245230e-27  4.2855845329586530e-27  4.2799320753871181e-27  4.9905751149272552e-27  5.8750142034685450e-27  5.8694632242321634e-27  5.9142204294051323e-27  5.0040243870757652e-27  4.2788176404005927e-27  5.9203012100402113e-27  4.9572899925566232e-27  4.2817926675355282e-27  4.9419740909475649e-27  4.2781134273145341e-27  4.2731440940962792e-27  4.9550026797391613e-27  5.7989352032423565e-27  5.7918263620544128e-27  5.8328977391362282e-27  4.9665984213370770e-27  4.2723816982339067e-27  5.8393460258114600e-27  4.9231434762338350e-27  4.2749110124278279e-27  4.9093136010543906e-27  4.2712574909070568e-27  4.2669023939261534e-27  4.9227562486947304e-27  5.7303595299317970e-27  5.7214548426221702e-27  5.7593539592306871e-27  4.9328508768113909e-27  4.2664603318793992e-27  5.7666960571098301e-27  4.8920069593519417e-27  4.2686003866962490e-27  4.8794015513009644e-27  4.2648973955438873e-27  4.2610469258707224e-27  4.8932739778590466e-27  5.6681527140606360e-27  5.6573121472784242e-27  5.6923152979741809e-27  4.9022071434828353e-27  4.2610223008150795e-27  5.7009503257108275e-27  4.8634570660558437e-27  4.2629088609631630e-27  4.8519294573142857e-27  4.2589026052651283e-27  4.2552706640231472e-27  4.8660394364615646e-27  5.6115535925334950e-27  5.5988194366154677e-27  5.6306738519669815e-27  4.8742837056935141e-27  4.2561335372963178e-27  5.6409816927445998e-27  4.8373875855226367e-27  4.2581079570437277e-27  4.8304605411405767e-27  4.2536350415183694e-27  4.2492257458547637e-27  4.8425555383432709e-27  5.5640359536638947e-27  5.5509886725305333e-27  5.5736062775076578e-27  4.8493460318614485e-27  4.2521987704920054e-27  5.5865844865068411e-27  5.0867082451999720e-27  4.3073604360692054e-27  5.0654190269334670e-27  4.3035064634980769e-27  4.2956709245227479e-27  5.0756510970601565e-27  6.0576833346798242e-27  6.0586398403219606e-27  4.3135814756654301e-27  4.3049464131015190e-27  5.0942962459595218e-27  4.2937818351638854e-27  5.0402399103469950e-27  4.2984986708063443e-27  5.0217848758459296e-27  4.2945747031400208e-27  4.2874246171537831e-27  5.0316354718228164e-27  5.9624589762104966e-27  5.9639746852813524e-27  6.0108345767206139e-27  5.0474220219204982e-27  4.2861547938177905e-27  6.0136257661248017e-27  4.9992077362574137e-27  4.2905181125631179e-27  4.9830535301063593e-27  4.2865771017135936e-27  4.2800241367346813e-27  4.9925793170019146e-27  5.8783239862112289e-27  5.8800077435604774e-27  5.9222332854139834e-27  5.0060644802908281e-27  4.2792315343531238e-27  5.9234507660260604e-27  4.9626219697393787e-27  4.2832803952568470e-27  4.9483525227364848e-27  4.2793516243635315e-27  4.2733239261137331e-27  4.9576166657524775e-27  5.8033602456259729e-27  5.8049280410118956e-27  5.8432989781659131e-27  4.9692288790437022e-27  4.2729123333363109e-27  5.8435488724211820e-27  4.9297244782135122e-27  4.2766831666786760e-27  4.9170029038395593e-27  4.2727654595910095e-27  4.2671944760660969e-27  4.9260647721009842e-27  5.7360823251333253e-27  5.7373139058262008e-27  5.7723993242503092e-27  4.9361521418080574e-27  4.2671234988329777e-27  5.7721304597139864e-27  4.8999319611073140e-27  4.2706673596602899e-27  4.8884668741510572e-27  4.2666971899204966e-27  4.2614831063967436e-27  4.8973553985269255e-27  5.6753487829180457e-27  5.6760646026623615e-27  5.7082171721628819e-27  4.9062505603656076e-27  4.2618283987225571e-27  5.7077818855861238e-27  4.8728083294902777e-27  4.2652544792658456e-27  4.8623747701898086e-27  4.2610207432013200e-27  4.2559086123683945e-27  4.8709644771022114e-27  5.6203927620057602e-27  5.6204755301428175e-27  5.6496146677919669e-27  4.8791211917027549e-27  4.2570757872574404e-27  5.6493484667832986e-27  4.8482447653857226e-27  4.2606216222489237e-27  4.8418794051023314e-27  4.2561134341251066e-27  4.2501943891993192e-27  4.8483059050711086e-27  5.5745456066530134e-27  5.5748418324622763e-27  5.5957798781961524e-27  4.8549608370251178e-27  4.2532146938199360e-27  5.5965267731112181e-27  5.0869745566969166e-27  4.3074702420953668e-27  5.0658126313907797e-27  4.3035800978299131e-27  4.2956567094806408e-27  5.0757631542490934e-27  6.0578480080806317e-27  6.0593798139978853e-27  4.3136301871246202e-27  4.3049323487714934e-27  5.0944266033890269e-27  4.2938118281580536e-27  5.0406433046448724e-27  4.2986492487546915e-27  5.0223509182528174e-27  4.2946816901017615e-27  4.2874126923124711e-27  5.0318107967262035e-27  5.9627239204134879e-27  5.9650547390148043e-27  6.0114815814024760e-27  5.0476172095264671e-27  4.2861984567594590e-27  6.0138858547023740e-27  4.9997919476380850e-27  4.2907193899078406e-27  4.9838385660823396e-27  4.2867270734683676e-27  4.2800180165143303e-27  4.9928406917875658e-27  5.8787294841801102e-27  5.8815235009293074e-27  5.9232164254723497e-27  5.0063462615353371e-27  4.2792931937288656e-27  5.9238420422636756e-27  4.9634351910951290e-27  4.2835428690435394e-27  4.9494063617376538e-27  4.2795552279908791e-27  4.2733283810012351e-27  4.9579903946906121e-27  5.8039542040410167e-27  5.8069822086804061e-27  5.8447186594939329e-27  4.9696222122414037e-27  4.2729968997411126e-27  5.8441159039471908e-27  4.9308179101605777e-27  4.2770171336761079e-27  4.9183764760536883e-27  4.2730341920100533e-27  4.2672160291851702e-27  4.9265802123378669e-27  5.7369196940943890e-27  5.7400117872342785e-27  5.7743637003566685e-27  4.9366844963767145e-27  4.2672361023741145e-27  5.7729242850474902e-27  4.9013586339525497e-27  4.2710809396380108e-27  4.8902081734634169e-27  4.2670433923362636e-27  4.2615317057283766e-27  4.8980445222346346e-27  5.6764910482450084e-27  5.6795054262738868e-27  5.7108399911001424e-27  4.9069505758703252e-27  4.2619732862292920e-27  5.7088582102709694e-27  4.8746235211444304e-27  4.2657472979377671e-27  4.8645161708745460e-27  4.2614583753672537e-27  4.2560032775271761e-27  4.8718620538918175e-27  5.6219079238557756e-27  5.6247246701913473e-27  5.6530187047136674e-27  4.8800150741864955e-27  4.2572529090353177e-27  5.6507633847430970e-27  4.8505081109895277e-27  4.2611629568342980e-27  4.8443179239649875e-27  4.2566546953261213e-27  4.2503767170894116e-27  4.8494309946219402e-27  5.5764722911942571e-27  5.5797201194756175e-27  5.6001159615476416e-27  4.8560556720016929e-27  4.2534090403031750e-27  5.5983155452413098e-27  5.0870020242586320e-27  4.3074841442687584e-27  5.0658565166411349e-27  4.3035880719112971e-27  4.2956538178600510e-27  5.0757738217886509e-27  6.0578635970496113e-27  6.0594577762931414e-27  4.3136350456541280e-27  4.3049300082642517e-27  5.0944405697464110e-27  4.2938152765578629e-27  5.0406880460889875e-27  4.2986694323251948e-27  5.0224190015954029e-27  4.2946942774578405e-27  4.2874094073221473e-27  5.03182893675