<?xml version="1.0"?>
<VTKFile type="UnstructuredGrid"  version="0.1"  >
<UnstructuredGrid>
<Piece  NumberOfPoints="7449" NumberOfCells="38221">
<Points>
<DataArray  type="Float64"  NumberOfComponents="3"  format="ascii">30 25 30  30 26.25 31.25  30 25 31.25  28.75 26.25 31.25  30 25 32.5  30 26.25 32.5  30 27.5 32.5  28.75 26.25 32.5  32.5 27.5 30  32.5 27.5 31.25  32.5 26.25 31.25  31.25 26.25 31.25  32.5 27.5 32.5  32.5 25 32.5  32.5 26.25 32.5  31.25 25 31.25  31.25 26.25 32.5  31.25 25 32.5  31.25 27.5 31.25  31.25 27.5 32.5  33.75 26.25 32.5  33.75 25 32.5  33.75 26.25 31.25  35 25 32.5  35 26.25 32.5  35 27.5 32.5  33.75 27.5 32.5  33.75 27.5 31.25  37.5 25 32.5  37.5 26.25 32.5  37.5 26.25 31.25  36.25 26.25 31.25  37.5 27.5 32.5  36.25 26.25 32.5  36.25 25 32.5  36.25 27.5 32.5  40 25 32.5  40 26.25 32.5  38.75 26.25 32.5  38.75 26.25 31.25  40 27.5 32.5  38.75 27.5 32.5  32.5 30 30  32.5 30 31.25  32.5 28.75 31.25  31.25 28.75 31.25  32.5 30 32.5  32.5 28.75 32.5  31.25 28.75 32.5  31.25 30 31.25  30 28.75 32.5  30 30 32.5  31.25 30 32.5  35 30 30  35 30 31.25  35 28.75 31.25  33.75 28.75 31.25  35 30 32.5  35 28.75 32.5  33.75 28.75 32.5  33.75 30 31.25  33.75 30 30  33.75 30 32.5  37.5 28.75 32.5  37.5 28.75 31.25  36.25 28.75 31.25  37.5 30 32.5  36.25 28.75 32.5  36.25 30 32.5  38.75 28.75 32.5  38.75 28.75 31.25  40 28.75 32.5  40 30 32.5  38.75 30 32.5  32.5 31.25 31.25  32.5 31.25 30  31.25 31.25 31.25  32.5 32.5 30  32.5 32.5 31.25  32.5 32.5 32.5  32.5 31.25 32.5  31.25 31.25 32.5  31.25 32.5 31.25  30 31.25 32.5  30 32.5 32.5  31.25 32.5 32.5  35 32.5 30  35 32.5 31.25  35 31.25 31.25  33.75 31.25 31.25  35 32.5 32.5  35 31.25 32.5  33.75 31.25 32.5  33.75 32.5 31.25  33.75 32.5 32.5  37.5 31.25 32.5  37.5 31.25 31.25  36.25 31.25 31.25  37.5 32.5 32.5  36.25 31.25 32.5  36.25 32.5 32.5  36.25 32.5 31.25  38.75 31.25 32.5  38.75 31.25 31.25  40 31.25 32.5  40 32.5 32.5  38.75 32.5 32.5  38.75 32.5 31.25  41.25 31.25 32.5  41.25 30 32.5  41.25 31.25 31.25  42.5 30 32.5  42.5 31.25 32.5  42.5 32.5 32.5  41.25 32.5 32.5  27.5 32.5 32.5  28.75 33.75 32.5  28.75 32.5 32.5  28.75 33.75 31.25  30 33.75 32.5  30 35 32.5  32.5 35 30  32.5 35 31.25  32.5 33.75 31.25  31.25 33.75 31.25  32.5 35 32.5  32.5 33.75 32.5  31.25 33.75 32.5  31.25 35 31.25  31.25 35 32.5  35 33.75 31.25  33.75 33.75 31.25  35 33.75 32.5  35 35 32.5  33.75 33.75 32.5  33.75 35 32.5  33.75 35 31.25  37.5 33.75 32.5  37.5 33.75 31.25  36.25 33.75 31.25  37.5 35 32.5  36.25 33.75 32.5  36.25 35 32.5  36.25 35 31.25  38.75 33.75 32.5  38.75 33.75 31.25  40 33.75 32.5  40 35 32.5  38.75 35 32.5  38.75 35 31.25  41.25 33.75 32.5  41.25 33.75 31.25  42.5 33.75 32.5  42.5 35 32.5  41.25 35 32.5  41.25 35 31.25  45 32.5 32.5  45 33.75 32.5  45 33.75 31.25  43.75 33.75 31.25  45 35 32.5  43.75 33.75 32.5  43.75 32.5 32.5  43.75 35 32.5  47.5 32.5 32.5  47.5 33.75 32.5  47.5 33.75 31.25  46.25 33.75 31.25  47.5 35 32.5  46.25 33.75 32.5  46.25 32.5 32.5  46.25 35 32.5  46.25 35 31.25  50 32.5 32.5  50 33.75 32.5  50 33.75 31.25  48.75 33.75 31.25  50 35 32.5  48.75 33.75 32.5  48.75 32.5 32.5  48.75 35 32.5  32.5 36.25 31.25  32.5 36.25 30  31.25 36.25 31.25  32.5 37.5 30  32.5 37.5 31.25  32.5 37.5 32.5  32.5 36.25 32.5  31.25 36.25 32.5  31.25 37.5 31.25  30 36.25 32.5  30 36.25 31.25  30 37.5 32.5  31.25 37.5 32.5  30 37.5 30  30 37.5 31.25  35 37.5 30  35 37.5 31.25  35 36.25 31.25  33.75 36.25 31.25  35 37.5 32.5  35 36.25 32.5  33.75 36.25 32.5  33.75 37.5 31.25  33.75 37.5 32.5  37.5 36.25 32.5  37.5 36.25 31.25  36.25 36.25 31.25  37.5 37.5 32.5  36.25 36.25 32.5  36.25 37.5 32.5  36.25 37.5 31.25  40 36.25 32.5  40 36.25 31.25  38.75 36.25 31.25  40 37.5 32.5  38.75 36.25 32.5  38.75 37.5 32.5  38.75 37.5 31.25  41.25 36.25 32.5  41.25 36.25 31.25  42.5 36.25 32.5  42.5 37.5 32.5  41.25 37.5 32.5  43.75 36.25 32.5  43.75 36.25 31.25  45 36.25 32.5  45 37.5 32.5  43.75 37.5 32.5  47.5 36.25 32.5  47.5 36.25 31.25  46.25 36.25 31.25  47.5 37.5 32.5  46.25 36.25 32.5  46.25 37.5 32.5  50 36.25 32.5  50 36.25 31.25  48.75 36.25 31.25  50 37.5 32.5  48.75 36.25 32.5  48.75 37.5 32.5  32.5 38.75 31.25  32.5 38.75 30  31.25 38.75 31.25  32.5 40 30  32.5 40 31.25  32.5 40 32.5  32.5 38.75 32.5  31.25 38.75 32.5  35 40 30  35 40 31.25  35 38.75 31.25  33.75 38.75 31.25  35 40 32.5  35 38.75 32.5  33.75 38.75 32.5  33.75 40 31.25  33.75 40 30  33.75 40 32.5  36.25 38.75 31.25  36.25 38.75 32.5  37.5 38.75 32.5  37.5 40 32.5  36.25 40 32.5  36.25 40 31.25  38.75 38.75 32.5  38.75 38.75 31.25  40 38.75 32.5  40 40 32.5  38.75 40 32.5  46.25 38.75 32.5  46.25 38.75 31.25  47.5 38.75 32.5  47.5 40 32.5  45 38.75 32.5  45 40 32.5  46.25 40 32.5  50 38.75 32.5  50 38.75 31.25  48.75 38.75 31.25  50 40 32.5  48.75 38.75 32.5  48.75 40 32.5  35 42.5 30  35 42.5 31.25  35 41.25 31.25  33.75 41.25 31.25  35 42.5 32.5  35 41.25 32.5  33.75 41.25 32.5  33.75 42.5 31.25  37.5 41.25 32.5  37.5 41.25 31.25  36.25 41.25 31.25  37.5 42.5 32.5  36.25 41.25 32.5  36.25 42.5 32.5  36.25 42.5 31.25  38.75 41.25 32.5  38.75 41.25 31.25  40 41.25 32.5  40 42.5 32.5  38.75 42.5 32.5  41.25 41.25 32.5  41.25 40 32.5  41.25 41.25 31.25  42.5 40 32.5  42.5 41.25 32.5  42.5 42.5 32.5  41.25 42.5 32.5  47.5 42.5 30  47.5 42.5 31.25  47.5 41.25 31.25  46.25 41.25 31.25  47.5 42.5 32.5  47.5 41.25 32.5  46.25 41.25 32.5  46.25 42.5 31.25  45 41.25 32.5  45 42.5 32.5  46.25 42.5 32.5  50 42.5 30  50 42.5 31.25  50 41.25 31.25  48.75 41.25 31.25  50 42.5 32.5  50 41.25 32.5  48.75 41.25 32.5  48.75 42.5 31.25  48.75 42.5 30  48.75 42.5 32.5  35 43.75 31.25  33.75 43.75 31.25  35 43.75 32.5  35 45 32.5  37.5 43.75 32.5  37.5 43.75 31.25  36.25 43.75 31.25  37.5 45 32.5  36.25 43.75 32.5  36.25 45 32.5  36.25 45 31.25  38.75 43.75 32.5  38.75 43.75 31.25  40 43.75 32.5  40 45 32.5  38.75 45 32.5  38.75 45 31.25  47.5 43.75 31.25  46.25 43.75 31.25  47.5 43.75 32.5  47.5 45 32.5  46.25 43.75 32.5  45 43.75 32.5  45 45 32.5  46.25 45 32.5  48.75 43.75 31.25  50 43.75 31.25  50 43.75 32.5  50 45 32.5  48.75 43.75 32.5  48.75 45 32.5  36.25 46.25 32.5  36.25 46.25 31.25  37.5 46.25 32.5  37.5 47.5 32.5  35 46.25 32.5  35 47.5 32.5  36.25 47.5 32.5  38.75 46.25 32.5  38.75 46.25 31.25  40 46.25 32.5  40 47.5 32.5  38.75 47.5 32.5  41.25 46.25 32.5  41.25 45 32.5  41.25 46.25 31.25  42.5 45 32.5  42.5 46.25 32.5  42.5 47.5 32.5  41.25 47.5 32.5  47.5 47.5 32.5  47.5 47.5 31.25  47.5 46.25 31.25  46.25 46.25 31.25  47.5 46.25 32.5  46.25 46.25 32.5  46.25 47.5 31.25  45 46.25 32.5  45 47.5 32.5  46.25 47.5 32.5  50 46.25 32.5  50 46.25 31.25  48.75 46.25 31.25  50 47.5 32.5  48.75 46.25 32.5  48.75 47.5 32.5  48.75 47.5 31.25  36.25 48.75 32.5  36.25 48.75 31.25  35 50 30  36.25 50 31.25  36.25 50 30  35 48.75 32.5  35 48.75 31.25  35 50 32.5  36.25 50 32.5  37.5 50 32.5  35 50 31.25  45 50 30  45 50 31.25  45 48.75 31.25  43.75 48.75 31.25  45 50 32.5  45 48.75 32.5  43.75 48.75 32.5  43.75 50 31.25  42.5 50 32.5  43.75 50 32.5  47.5 50 30  47.5 50 31.25  47.5 48.75 31.25  46.25 48.75 31.25  47.5 50 32.5  47.5 48.75 32.5  46.25 48.75 32.5  46.25 50 31.25  46.25 50 30  46.25 50 32.5  50 50 30  50 50 31.25  50 48.75 31.25  48.75 48.75 31.25  50 50 32.5  50 48.75 32.5  48.75 48.75 32.5  48.75 50 31.25  48.75 50 30  48.75 50 32.5  33.75 25 33.75  33.75 23.75 33.75  35 25 33.75  35 25 35  32.5 25 33.75  32.5 25 35  33.75 25 35  36.25 25 33.75  36.25 23.75 33.75  37.5 25 33.75  37.5 25 35  36.25 25 35  30 26.25 33.75  28.75 26.25 33.75  30 27.5 33.75  30 27.5 35  30 25 33.75  30 25 35  30 26.25 35  28.75 27.5 33.75  31.25 26.25 33.75  32.5 26.25 33.75  32.5 27.5 33.75  32.5 27.5 35  31.25 25 33.75  32.5 26.25 35  31.25 26.25 35  31.25 25 35  31.25 27.5 33.75  31.25 27.5 35  33.75 26.25 33.75  35 26.25 33.75  35 27.5 33.75  35 27.5 35  35 26.25 35  33.75 26.25 35  33.75 27.5 33.75  33.75 27.5 35  36.25 26.25 33.75  37.5 26.25 33.75  37.5 27.5 33.75  37.5 27.5 35  37.5 26.25 35  36.25 26.25 35  36.25 27.5 33.75  36.25 27.5 35  40 26.25 33.75  38.75 26.25 33.75  40 27.5 33.75  40 27.5 35  40 25 33.75  40 25 35  40 26.25 35  38.75 26.25 35  38.75 27.5 33.75  38.75 27.5 35  42.5 27.5 32.5  42.5 27.5 33.75  42.5 26.25 33.75  41.25 26.25 33.75  42.5 27.5 35  42.5 25 32.5  42.5 25 33.75  42.5 25 35  42.5 26.25 35  41.25 26.25 35  41.25 25 35  41.25 27.5 33.75  41.25 27.5 32.5  41.25 27.5 35  45 25 35  45 26.25 35  43.75 26.25 35  43.75 26.25 33.75  45 27.5 35  43.75 27.5 35  43.75 27.5 33.75  46.25 26.25 35  46.25 26.25 33.75  46.25 27.5 35  47.5 27.5 35  30 28.75 33.75  28.75 28.75 33.75  30 30 33.75  30 30 35  30 28.75 35  27.5 30 32.5  28.75 30 33.75  28.75 30 32.5  31.25 28.75 33.75  32.5 28.75 33.75  32.5 30 33.75  32.5 30 35  32.5 28.75 35  31.25 28.75 35  31.25 30 33.75  31.25 30 35  33.75 28.75 33.75  35 28.75 33.75  35 30 33.75  35 30 35  35 28.75 35  33.75 28.75 35  33.75 30 33.75  33.75 30 35  36.25 28.75 33.75  37.5 28.75 33.75  37.5 30 33.75  37.5 30 35  37.5 28.75 35  36.25 28.75 35  36.25 30 33.75  36.25 30 35  38.75 28.75 33.75  40 28.75 33.75  40 30 33.75  40 30 35  40 28.75 35  38.75 28.75 35  38.75 30 33.75  38.75 30 35  41.25 28.75 33.75  41.25 28.75 32.5  42.5 28.75 33.75  42.5 28.75 32.5  42.5 30 33.75  42.5 30 35  42.5 28.75 35  41.25 28.75 35  41.25 30 33.75  41.25 30 35  45 30 32.5  45 30 33.75  45 28.75 33.75  43.75 28.75 33.75  45 30 35  45 28.75 35  43.75 28.75 35  43.75 30 33.75  43.75 30 35  46.25 28.75 35  46.25 28.75 33.75  47.5 28.75 35  47.5 30 35  46.25 30 35  46.25 30 33.75  30 31.25 33.75  28.75 31.25 33.75  30 32.5 33.75  30 32.5 35  30 31.25 35  28.75 32.5 33.75  31.25 31.25 33.75  32.5 31.25 33.75  32.5 32.5 33.75  32.5 32.5 35  32.5 31.25 35  31.25 31.25 35  31.25 32.5 33.75  31.25 32.5 35  33.75 31.25 33.75  35 31.25 33.75  35 32.5 33.75  35 32.5 35  35 31.25 35  33.75 31.25 35  33.75 32.5 33.75  33.75 32.5 35  36.25 31.25 33.75  37.5 31.25 33.75  37.5 32.5 33.75  37.5 32.5 35  37.5 31.25 35  36.25 31.25 35  36.25 32.5 33.75  36.25 32.5 35  38.75 31
[...]
<PointData  Scalars="c_HbO2"> 
<DataArray  type="Float64"  Name="c_HbO2"  format="ascii">1.9998396684151880e-17  1.9998396734671112e-17  1.9998396779539474e-17  1.9998396565968252e-17  1.9998396648696810e-17  1.9998396824645619e-17  1.9998396648702609e-17  1.9998397178945815e-17  1.9998396660652108e-17  1.9998396881823539e-17  1.9998396873124274e-17  1.9998396610869340e-17  1.9998396673754539e-17  1.9998396673610215e-17  1.9998396956220303e-17  1.9998396719546275e-17  1.9998397475407496e-17  1.9998397567608501e-17  1.9998396722061340e-17  1.9998397570321493e-17  1.9998397941729798e-17  1.9998398006973442e-17  1.9998396645504453e-17  1.9998396782959093e-17  1.9998397162895278e-17  1.9998396783420765e-17  1.9998398011093216e-17  1.9998396755439773e-17  1.9998397026252567e-17  1.9998397491434410e-17  1.9998397249450668e-17  1.9998396691089946e-17  1.9998397027369929e-17  1.9998398650301750e-17  1.9998398681281063e-17  1.9998398687523113e-17  1.9998397493360352e-17  1.9998398013364078e-17  1.9998399693193224e-17  1.9998396770996924e-17  1.9998397495763084e-17  1.9998399668190448e-17  1.9998396660305915e-17  1.9998396901188728e-17  1.9998396888506942e-17  1.9998396611412230e-17  1.9998396673419008e-17  1.9998396970334571e-17  1.9998397479798434e-17  1.9998396766969080e-17  1.9998396833623143e-17  1.9998396645948185e-17  1.9998397618019548e-17  1.9998396659973703e-17  1.9998397059225954e-17  1.9998397058161651e-17  1.9998396646731773e-17  1.9998396788730437e-17  1.9998397184955083e-17  1.9998397948087850e-17  1.9998396826316704e-17  1.9998396820125369e-17  1.9998398085084883e-17  1.9998397525359752e-17  1.9998397283959296e-17  1.9998396694036621e-17  1.9998397044602340e-17  1.9998398659688020e-17  1.9998398800216731e-17  1.9998399707270660e-17  1.9998396777579817e-17  1.9998398064486696e-17  1.9998397536614539e-17  1.9998399836248771e-17  1.9998397145210899e-17  1.9998396901188691e-17  1.9998396619562950e-17  1.9998396673412531e-17  1.9998397205008947e-17  1.9998396686680151e-17  1.9998397205009190e-17  1.9998397548717008e-17  1.9998397548705681e-17  1.9998396979815696e-17  1.9998396610581825e-17  1.9998398443225645e-17  1.9998396788732276e-17  1.9998397554462923e-17  1.9998397447821175e-17  1.9998396670356052e-17  1.9998396917673912e-17  1.9998397554469712e-17  1.9998398051304898e-17  1.9998398051304565e-17  1.9998399350458642e-17  1.9998398096067959e-17  1.9998397865691138e-17  1.9998396752559476e-17  1.9998397409862624e-17  1.9998398817450070e-17  1.9998400712340186e-17  1.9998398817452091e-17  1.9998399952911580e-17  1.9998396907705289e-17  1.9998398926197880e-17  1.9998398346337289e-17  1.9998402673461561e-17  1.9998399952920892e-17  1.9998401576795265e-17  1.9998401266418001e-17  1.9998397199253621e-17  1.9998398427721114e-17  1.9998400188975183e-17  1.9998400034988458e-17  1.9998405375336345e-17  1.9998396635377196e-17  1.9998397926269612e-17  1.9998397877948489e-17  1.9998396617661934e-17  1.9998399483611183e-17  1.9998396927434411e-17  1.9998398352905373e-17  1.9998402688477374e-17  1.9998401398943326e-17  1.9998396857356267e-17  1.9998398366143883e-17  1.9998401185925142e-17  1.9998398656771882e-17  1.9998410954550853e-17  1.9998412340459942e-17  1.9998403898378526e-17  1.9998397316816773e-17  1.9998403774957404e-17  1.9998401169295471e-17  1.9998399825888476e-17  1.9998420495542769e-17  1.9998418839238731e-17  1.9998407622219815e-17  1.9998407473893439e-17  1.9998398186194058e-17  1.9998406308355291e-17  1.9998401645154531e-17  1.9998432250066075e-17  1.9998430460576782e-17  1.9998404431011998e-17  1.9998399772067957e-17  1.9998413173705068e-17  1.9998415409752162e-17  1.9998448676398418e-17  1.9998447141468962e-17  1.9998408665602836e-17  1.9998402584771322e-17  1.9998420878999963e-17  1.9998431076563562e-17  1.9998470829316918e-17  1.9998470283711011e-17  1.9998402988745978e-17  1.9998430945309135e-17  1.9998427102576006e-17  1.9998407469083831e-17  1.9998457349159024e-17  1.9998415093244804e-17  1.9998408872954564e-17  1.9998499241737876e-17  1.9998408053644087e-17  1.9998442619425028e-17  1.9998435647599290e-17  1.9998415807462739e-17  1.9998500427896684e-17  1.9998424895325709e-17  1.9998412938653943e-17  1.9998532662488867e-17  1.9998537212148131e-17  1.9998416598533407e-17  1.9998451532361193e-17  1.9998439517675435e-17  1.9998429855505766e-17  1.9998569751954423e-17  1.9998440037731056e-17  1.9998416640121349e-17  1.9998565245778611e-17  1.9998471033873993e-17  1.9998468173932765e-17  1.9998405501265246e-17  1.9998456102892200e-17  1.9998499033828219e-17  1.9998456110080434e-17  1.9998468482851955e-17  1.9998418032511192e-17  1.9998634657964287e-17  1.9998442795725685e-17  1.9998445618962885e-17  1.9998423610952380e-17  1.9998638191348878e-17  1.9998423650808459e-17  1.9998458411423776e-17  1.9998515403127848e-17  1.9998567431171560e-17  1.9998507145500659e-17  1.9998414982144235e-17  1.9998515526304922e-17  1.9998506171957759e-17  1.9998430776218880e-17  1.9998755137239735e-17  1.9998751308598500e-17  1.9998560263446655e-17  1.9998557358816414e-17  1.9998431928929810e-17  1.9998617883549658e-17  1.9998451261961405e-17  1.9998908230153193e-17  1.9998926700605436e-17  1.9998635783082463e-17  1.9998625448401779e-17  1.9998461375898263e-17  1.9998784468070172e-17  1.9998484241872120e-17  1.9999121589555331e-17  1.9999164739125558e-17  1.9998536688363247e-17  1.9998510761960473e-17  1.9998737174897630e-17  1.9999042701509235e-17  1.9999403679526428e-17  1.9998618789052963e-17  1.9998590724336908e-17  1.9998864966406891e-17  1.9999428091845328e-17  1.9999761848023904e-17  1.9999007045089654e-17  1.9998947989515041e-17  1.9998716516629376e-17  1.9999988572854967e-17  1.9998746481559419e-17  2.0000188602499834e-17  1.9999107132417885e-17  1.9999034486144123e-17  1.9998911105341439e-17  2.0000789750964856e-17  1.9998947930618448e-17  2.0000640865673682e-17  1.9999510398358737e-17  1.9999542041086258e-17  1.9998644451181301e-17  2.0000221002407788e-17  2.0000570261985983e-17  2.0000220999711905e-17  1.9999542371382408e-17  1.9998753101944216e-17  2.0001528859026969e-17  2.0001967423226622e-17  1.9999989759605542e-17  1.9998872257552649e-17  2.0001528974519305e-17  2.0000077510049379e-17  1.9999005532796287e-17  2.0003742074473312e-17  2.0003300015249112e-17  2.0003301479564355e-17  1.9999245082824123e-17  1.9999407710240608e-17  2.0000809051223169e-17  2.0003402776115266e-17  2.0005213270322976e-17  2.0005918952795153e-17  2.0000012700970549e-17  1.9999816825526515e-17  2.0001776074531255e-17  2.0005953117993580e-17  2.0007677148186888e-17  2.0003717100812208e-17  2.0003397327907636e-17  2.0006118296878228e-17  2.0018837712103539e-17  2.0004485627304732e-17  2.0013535574359883e-17  2.0018719830906509e-17  2.0007490710877810e-17  2.0006712076817904e-17  2.0005530494084463e-17  2.0025358115051853e-17  2.0005963255972450e-17  2.0023340929937100e-17  2.0055384946522252e-17  2.0058852803794587e-17  2.0018539393891577e-17  2.0010131042995520e-17  2.0055384251378487e-17  2.0020964750342421e-17  2.0011248548204133e-17  2.0063219232640838e-17  2.0028398343706670e-17  2.0025230772977725e-17  2.0015952346948478e-17  2.0073963508636509e-17  2.0017340332020389e-17  2.0072756384559664e-17  2.0081178431296902e-17  2.0024977890509226e-17  2.0023303915473907e-17  2.0037218660027656e-17  2.0094951481663580e-17  2.0091873917778483e-17  2.0034230106685535e-17  2.0010751004251787e-17  2.0032265436208798e-17  2.0009290719537808e-17  2.0047368509059064e-17  2.0118102279037050e-17  2.0113149158205423e-17  2.0169946466843781e-17  2.0176015063859543e-17  2.0065045206413758e-17  2.0055275278737884e-17  2.0169961243439895e-17  2.0070571310019386e-17  2.0057926939155232e-17  2.0171951344122449e-17  2.0058650022339406e-17  2.0143172514946179e-17  2.0160835099892493e-17  2.0197824876600927e-17  2.0205618034590297e-17  2.0076293948484186e-17  2.0069578706796394e-17  2.0197856507342166e-17  2.0081465302256492e-17  2.0072931860905059e-17  2.0196530571928938e-17  2.0186202443715709e-17  2.0186232036141340e-17  2.0190407981853699e-17  2.0165137590484885e-17  2.0206891035215333e-17  2.0470473548378444e-17  2.0245704244430251e-17  2.0228946937227465e-17  2.0204107153567771e-17  2.0529208514247275e-17  2.0211568650483111e-17  2.0499227120155072e-17  2.0518569375830680e-17  2.0252349020703781e-17  2.0244759461253497e-17  2.0285654168518615e-17  2.0585234003245395e-17  2.0556583119134360e-17  2.0574013506155134e-17  2.0391874531288927e-17  2.0370765917861994e-17  2.0405710249182163e-17  2.0735472845806213e-17  2.0378217501990812e-17  2.0366394453316934e-17  2.0688421202398316e-17  2.0712147205141041e-17  2.0412832973808577e-17  2.0429283764114194e-17  2.0440980728055594e-17  2.0777850247628468e-17  2.0420854383284236e-17  2.0758162241569733e-17  2.0943935483344088e-17  2.0939808603066504e-17  2.0973844968321731e-17  2.1426357797030555e-17  2.0919017235713620e-17  2.1389586626417811e-17  2.1406608375455085e-17  2.0996676943686168e-17  2.0993576563285021e-17  2.1023625096774138e-17  2.1459093024516187e-17  2.1441510982297885e-17  2.1044666284254528e-17  2.0611279487272297e-17  2.1042370062245046e-17  2.0638332764650861e-17  2.1068945017314827e-17  2.1488439519827053e-17  2.1472677364330730e-17  2.1538789767067820e-17  2.1537251709572269e-17  2.1144520318835052e-17  2.1127459715896375e-17  2.1148094687266938e-17  2.1128710389179587e-17  2.1524946962923385e-17  2.1110308784705805e-17  2.1514894137234442e-17  2.1526157305390736e-17  2.1180246520059892e-17  2.1176951844639868e-17  2.1164770420366689e-17  2.1558680886905885e-17  2.1165768255805003e-17  2.1549118205720074e-17  2.1548021280392098e-17  2.1808274959983246e-17  2.1811113786668236e-17  2.2123015493298894e-17  2.2121553908159540e-17  2.2126565161579576e-17  2.1797127074839299e-17  2.1801238765982045e-17  2.2123014022030076e-17  2.2126568648008118e-17  2.2126251284331974e-17  2.2119826262873215e-17  2.2134343024932091e-17  2.2131906987900950e-17  2.1858995667121836e-17  2.1854142627845156e-17  2.2134344299818991e-17  2.1855687525693313e-17  2.1851788602320541e-17  2.2130133413626101e-17  2.2131855789082742e-17  2.2134151010033338e-17  2.2136759662279848e-17  2.2134343417279861e-17  2.1870205605842339e-17  2.1865812403983577e-17  2.2136764569292396e-17  2.1867149803950584e-17  2.1863580523794497e-17  2.2132461080707260e-17  2.2136205042389801e-17  2.2136217517839653e-17  2.2139214968475519e-17  2.2136436661773182e-17  2.1879019247442269e-17  2.1876326795452431e-17  2.2139227811476430e-17  2.1876969834564498e-17  2.1874069605315872e-17  2.2134463619089108e-17  2.2137886389269137e-17  2.2137900310105406e-17  1.9998398525065240e-17  1.9998397291819324e-17  1.9998403246500331e-17  1.9998401035051131e-17  1.9998400860499524e-17  1.9998398352978303e-17  1.9998419148200569e-17  1.9998399633748790e-17  1.9998398124563843e-17  1.9998406767438999e-17  1.9998405925941008e-17  1.9998430213472455e-17  1.9998399502231172e-17  1.9998396615144325e-17  1.9998399283567493e-17  1.9998396965227695e-17  1.9998399282679605e-17  1.9998396965208072e-17  1.9998400089555077e-17  1.9998397404420424e-17  1.9998396848557814e-17  1.9998401126472187e-17  1.9998400861799123e-17  1.9998398353132568e-17  1.9998397826877440e-17  1.9998402438847339e-17  1.9998410880580590e-17  1.9998411462351776e-17  1.9998397829415874e-17  1.9998411465095262e-17  1.9998397291795073e-17  1.9998403484948994e-17  1.9998403248383336e-17  1.9998401035510368e-17  1.9998406129775008e-17  1.9998418728692540e-17  1.9998398528980196e-17  1.9998419152358002e-17  1.9998398124542384e-17  1.9998406856781410e-17  1.9998406770254881e-17  1.9998405927076259e-17  1.9998411957832334e-17  1.9998430292142151e-17  1.9998399639808234e-17  1.9998430219730901e-17  1.9998411530466803e-17  1.9998399635204928e-17  1.9998411803038658e-17  1.9998414560637226e-17  1.9998411798798771e-17  1.9998414558215867e-17  1.9998421253189502e-17  1.9998446880181516e-17  1.9998401385367548e-17  1.9998445663570162e-17  1.9998398342253927e-17  1.9998418674072766e-17  1.9998417721600473e-17  1.9998402303723733e-17  1.9998429383962249e-17  1.9998398337447181e-17  1.9998418667530739e-17  1.9998429379121759e-17  1.9998436206764015e-17  1.9998469871773550e-17  1.9998466452568754e-17  1.9998404151259886e-17  1.9998401022216120e-17  1.9998466466132370e-17  1.9998454170777466e-17  1.9998460517640787e-17  1.9998500095181085e-17  1.9998406924277338e-17  1.9998454179992949e-17  1.9998493131810278e-17  1.9998408630419174e-17  1.9998536119709548e-17  1.9998414795417032e-17  1.9998524521960022e-17  1.9998494726012486e-17  1.9998399512421819e-17  1.9998396615488986e-17  1.9998399295939469e-17  1.9998396962544215e-17  1.9998400098582841e-17  1.9998396685337686e-17  1.9998397432704631e-17  1.9998397347412056e-17  1.9998396849095589e-17  1.9998401141894208e-17  1.9998400881257702e-17  1.9998398352892468e-17  1.9998402453063056e-17  1.9998410885050353e-17  1.9998397874408507e-17  1.9998411513027504e-17  1.9998397293046560e-17  1.9998403508188466e-17  1.9998403278607204e-17  1.9998401040941888e-17  1.9998406151973409e-17  1.9998418735153822e-17  1.9998398600002250e-17  1.9998419226746122e-17  1.9998398127499179e-17  1.9998406891374566e-17  1.9998406817069520e-17  1.9998405944380419e-17  1.9998411991962198e-17  1.9998430301681266e-17  1.9998399750337372e-17  1.9998430333025144e-17  1.9998399641821912e-17  1.9998411581010739e-17  1.9998411876234510e-17  1.9998414601504603e-17  1.9998421304557844e-17  1.9998446894488815e-17  1.9998401554243402e-17  1.9998445832443900e-17  1.9998402317570242e-17  1.9998401188339152e-17  1.9998417793415929e-17  1.9998398926445924e-17  1.9998418790520179e-17  1.9998429469407145e-17  1.9998436281765542e-17  1.9998469893669722e-17  1.9998404402917851e-17  1.9998466711437303e-17  1.9998399990289800e-17  1.9998427547322864e-17  1.9998425441876287e-17  1.9998406951856701e-17  1.9998454346600954e-17  1.9998460622168964e-17  1.9998500129820377e-17  1.9998408992115733e-17  1.9998493476031124e-17  1.9998536176951221e-17  1.9998414848079854e-17  1.9998501119833452e-17  1.9998495035799933e-17  1.9998524980683378e-17  1.9998416623161250e-17  1.9998399679087476e-17  1.9998396617653510e-17  1.9998399483594962e-17  1.9998396927416215e-17  1.9998400245304803e-17  1.9998397926256858e-17  1.9998396857350288e-17  1.9998401398939089e-17  1.9998401185920745e-17  1.9998398366136244e-17  1.9998402688476009e-17  1.9998410954534737e-17  1.9998398656760234e-17  1.9998412340443234e-17  1.9998397316812604e-17  1.9998403898387028e-17  1.9998403774964954e-17  1.9998401169279866e-17  1.9998406522450002e-17  1.9998418839237800e-17  1.9998399825885943e-17  1.9998420495538637e-17  1.9998398186179827e-17  1.9998407473887063e-17  1.9998407622211177e-17  1.9998406308335255e-17  1.9998412563834308e-17  1.9998430460553844e-17  1.9998401645144892e-17  1.9998432250042030e-17  1.9998399772054509e-17  1.9998412433467983e-17  1.9998413173696517e-17  1.9998415409729122e-17  1.9998422167726603e-17  1.9998447141448091e-17  1.9998404431000356e-17  1.9998448676393026e-17  1.9998402584757129e-17  1.9998419007614669e-17  1.9998420878986580e-17  1.9998431076549649e-17  1.9998437546263678e-17  1.9998470283701175e-17  1.9998408665602818e-17  1.9998470829311054e-17  1.9998430945298686e-17  1.9998427102571646e-17  1.9998407469071305e-17  1.9998457349142122e-17  1.9998462393313925e-17  1.9998500756905081e-17  1.9998415093235782e-17  1.9998499241720884e-17  1.9998442619416400e-17  1.9998435647587167e-17  1.9998415807455630e-17  1.9998500427880411e-17  1.9998503413438057e-17  1.9998537212140391e-17  1.9998424895319666e-17  1.9998532662485980e-17  1.9998451532356783e-17  1.9998439517668581e-17  1.9998429855499175e-17  1.9998569751938584e-17  1.9998560334443952e-17  1.9998573412354741e-17  1.9998571911604998e-17  1.9998555816002398e-17  1.9998440037730067e-17  1.9998565245760153e-17  1.9998396667192597e-17  1.9998402448918880e-17  1.9998402752698867e-17  1.9998397239146745e-17  1.9998402752720579e-17  1.9998397095262051e-17  1.9998405655745267e-17  1.9998406673914097e-17  1.9998400037467133e-17  1.9998406673926947e-17  1.9998412066058608e-17  1.9998412066050005e-17  1.9998426254456236e-17  1.9998397962887562e-17  1.9998410353349893e-17  1.9998412748625640e-17  1.9998405411934175e-17  1.9998412748629341e-17  1.9998420617950513e-17  1.9998420617941626e-17  1.9998441664953466e-17  1.9998399618678850e-17  1.9998417088162416e-17  1.9998422098050713e-17  1.9998415202841290e-17  1.9998422098053837e-17  1.9998433293691856e-17  1.9998433293688315e-17  1.9998463823280193e-17  1.9998402634676737e-17  1.9998426431570116e-17  1.9998436428493692e-17  1.9998432483405131e-17  1.9998436428496533e-17  1.9998451628303757e-17  1.9998451628304499e-17  1.9998494732624102e-17  1.9998407968964294e-17  1.9998438812184946e-17  1.9998458259294111e-17  1.9998462153887769e-17  1.9998458259290561e-17  1.9998477388486522e-17  1.9998477388486300e-17  1.9998536364475815e-17  1.9998417209864684e-17  1.9998454056826271e-17  1.9998491263473410e-17  1.9998511782292174e-17  1.9998491263459624e-17  1.9998512097306810e-17  1.9998512097314563e-17  1.9998589731543259e-17  1.9998432954945954e-17  1.9998470179520496e-17  1.9998540996849841e-17  1.9998592924715299e-17  1.9998540996853820e-17  1.9998555634336378e-17  1.9998555634344171e-17  1.9998652555460460e-17  1.9998459439156863e-17  1.9998477636746731e-17  1.9998615240477814e-17  1.9998723096270909e-17  1.9998615240470378e-17  1.9998602692416552e-17  1.9998602692424656e-17  1.9998714061251226e-17  1.9998405732862352e-17  1.9998475312790651e-17  1.9998503050363090e-17  1.9998457753833846e-17  1.9998473996175082e-17  1.9998431460979041e-17  1.9998635786242313e-17  1.9998448404468191e-17  1.9998446079235484e-17  1.9998423878376776e-17  1.9998652218597267e-17  1.9998460935172621e-17  1.9998415618956823e-17  1.9998513631371773e-17  1.9998573717256429e-17  1.9998519780032127e-17  1.9998515196670247e-17  1.9998451603575158e-17  1.9998756946175660e-17  1.9998772666824604e-17  1.9998433353002951e-17  1.9998567017341594e-17  1.9998688925196273e-17  1.9998626841370680e-17  1.9998574838831131e-17  1.9998482980623549e-17  1.9998929594560547e-17  1.9998940127414852e-17  1.9998464238303937e-17  1.9998639512001110e-17  1.9998869499185391e-17  1.9998801652449943e-17  1.9998659212406846e-17  1.9998531569271749e-17  1.9999169341146241e-17  1.9999168189494615e-17  1.9998516164438156e-17  1.9998734513078156e-17  1.9999142152936964e-17  1.9999073921162844e-17  1.9998774825598095e-17  1.9998605626247710e-17  1.9999491246093192e-17  1.9999470076206812e-17  1.9998600513238120e-17  1.9998852124234639e-17  1.9999543190771433e-17  1.9999482722602298e-17  1.9998925652111289e-17  1.9998716106181334e-17  1.9999903673465991e-17  1.9999853597958588e-17  1.9998733753503588e-17  1.9998982702866675e-17  2.0000130134004427e-17  2.0000081519122821e-17  1.9999105848439606e-17  1.9998877616859651e-17  2.0000393554397712e-17  2.0000310149887089e-17  1.9998940834987437e-17  1.9999072790239697e-17  2.0001002378509020e-17  2.0000944430470527e-17  1.9999271196140833e-17  1.9999111000121672e-17  2.0000891524015616e-17  2.0000791508740782e-17  1.9998644678838392e-17  1.9999514830442800e-17  2.0000574599943400e-17  2.0000222486237617e-17  1.9999548189504503e-17  1.9998766828300148e-17  1.9998872907558843e-17  1.9999996503494356e-17  2.0001974216276012e-17  2.0001532778594740e-17  2.0000087112923643e-17  1.9999026869221259e-17  2.0003744291368174e-17  2.0003324770778111e-17  1.9999246542310006e-17  2.0000648101587550e-17  2.0003956453049378e-17  2.0003410728832495e-17  2.0000824571061373e-17  1.9999440221444535e-17  2.0005922516829846e-17  2.0005248385383485e-17  1.9999819736141641e-17  2.0001505526137657e-17  2.0006628571183158e-17  2.0005968610416082e-17  2.0001800884858918e-17  2.0000061161279313e-17  2.0008712799192331e-17  2.0007728825948006e-17  2.0002595353064315e-17  2.0003004806020921e-17  2.0000654480419647e-17  2.0010099626859009e-17  2.0009319977726435e-17  2.0003044328983