<?xml version="1.0"?>
<VTKFile type="UnstructuredGrid"  version="0.1"  >
<UnstructuredGrid>
<Piece  NumberOfPoints="4029" NumberOfCells="19865">
<Points>
<DataArray  type="Float64"  NumberOfComponents="3"  format="ascii">0 37.5 30  1.25 38.75 30  1.25 37.5 30  1.25 38.75 28.75  2.5 37.5 30  2.5 38.75 30  2.5 40 30  0 37.5 27.5  0 38.75 28.75  0 37.5 28.75  0 38.75 30  0 40 30  1.25 40 30  7.5 37.5 30  7.5 38.75 30  7.5 38.75 28.75  6.25 38.75 28.75  7.5 40 30  5 37.5 30  6.25 38.75 30  6.25 37.5 30  5 38.75 30  5 40 30  6.25 40 30  10 37.5 30  10 38.75 30  10 38.75 28.75  8.75 38.75 28.75  10 40 30  8.75 38.75 30  8.75 37.5 30  8.75 40 30  11.25 38.75 30  11.25 38.75 28.75  11.25 40 30  12.5 40 30  7.5 30 32.5  7.5 28.75 32.5  7.5 28.75 31.25  6.25 28.75 31.25  7.5 27.5 32.5  6.25 28.75 32.5  5 30 32.5  6.25 30 32.5  10 27.5 32.5  10 28.75 32.5  8.75 28.75 32.5  8.75 28.75 31.25  10 30 32.5  8.75 30 32.5  0 30 32.5  1.25 31.25 32.5  1.25 30 32.5  1.25 31.25 31.25  2.5 30 32.5  2.5 31.25 32.5  2.5 32.5 32.5  0 31.25 32.5  0 31.25 31.25  0 32.5 32.5  1.25 32.5 32.5  0 32.5 30  1.25 32.5 31.25  0 32.5 31.25  0 31.25 30  2.5 35 32.5  2.5 35 31.25  2.5 33.75 31.25  1.25 33.75 31.25  2.5 33.75 32.5  1.25 33.75 32.5  1.25 35 31.25  0 33.75 31.25  0 33.75 32.5  0 35 32.5  1.25 35 32.5  0 33.75 30  0 35 30  0 35 31.25  5 35 32.5  5 35 31.25  5 33.75 31.25  3.75 33.75 31.25  5 32.5 32.5  5 33.75 32.5  3.75 33.75 32.5  3.75 32.5 32.5  3.75 35 31.25  3.75 35 32.5  7.5 35 30  7.5 35 31.25  7.5 33.75 31.25  6.25 33.75 31.25  7.5 35 32.5  7.5 32.5 32.5  7.5 33.75 32.5  6.25 33.75 32.5  6.25 32.5 32.5  6.25 35 31.25  6.25 35 32.5  10 35 30  10 35 31.25  10 33.75 31.25  8.75 33.75 31.25  10 35 32.5  10 32.5 32.5  10 33.75 32.5  8.75 33.75 32.5  8.75 32.5 32.5  8.75 35 31.25  8.75 35 32.5  2.5 37.5 31.25  2.5 36.25 31.25  1.25 36.25 31.25  2.5 37.5 32.5  2.5 36.25 32.5  1.25 36.25 32.5  1.25 37.5 31.25  0 36.25 31.25  0 36.25 32.5  0 37.5 32.5  1.25 37.5 32.5  0 36.25 30  0 37.5 31.25  5 37.5 31.25  5 36.25 31.25  3.75 36.25 31.25  5 37.5 32.5  5 36.25 32.5  3.75 36.25 32.5  3.75 37.5 31.25  3.75 37.5 30  3.75 37.5 32.5  7.5 37.5 31.25  7.5 36.25 31.25  6.25 36.25 31.25  7.5 37.5 32.5  7.5 36.25 32.5  6.25 36.25 32.5  6.25 37.5 31.25  6.25 37.5 32.5  10 36.25 31.25  10 36.25 30  8.75 36.25 31.25  10 37.5 31.25  10 37.5 32.5  10 36.25 32.5  8.75 36.25 32.5  8.75 37.5 31.25  8.75 37.5 32.5  1.25 38.75 31.25  2.5 38.75 31.25  2.5 40 31.25  2.5 40 32.5  2.5 38.75 32.5  1.25 38.75 32.5  1.25 40 31.25  0 38.75 31.25  0 38.75 32.5  0 40 32.5  1.25 40 32.5  0 40 31.25  3.75 38.75 31.25  3.75 38.75 30  5 38.75 31.25  5 40 31.25  5 40 32.5  5 38.75 32.5  3.75 38.75 32.5  3.75 40 31.25  3.75 40 30  3.75 40 32.5  6.25 38.75 31.25  7.5 38.75 31.25  7.5 40 31.25  7.5 40 32.5  7.5 38.75 32.5  6.25 38.75 32.5  6.25 40 31.25  6.25 40 32.5  8.75 38.75 31.25  10 38.75 31.25  10 40 31.25  10 40 32.5  10 38.75 32.5  8.75 38.75 32.5  8.75 40 31.25  8.75 40 32.5  11.25 38.75 31.25  11.25 40 31.25  12.5 40 31.25  12.5 40 32.5  11.25 38.75 32.5  11.25 40 32.5  1.25 41.25 31.25  1.25 41.25 30  2.5 41.25 31.25  2.5 41.25 30  2.5 42.5 30  2.5 42.5 31.25  2.5 42.5 32.5  2.5 41.25 32.5  1.25 41.25 32.5  0 41.25 30  0 42.5 30  1.25 42.5 31.25  1.25 42.5 30  0 41.25 31.25  0 41.25 32.5  0 42.5 32.5  1.25 42.5 32.5  0 42.5 31.25  3.75 41.25 31.25  3.75 41.25 30  5 41.25 31.25  5 41.25 30  5 42.5 30  5 42.5 31.25  5 42.5 32.5  5 41.25 32.5  3.75 41.25 32.5  3.75 42.5 31.25  3.75 42.5 30  3.75 42.5 32.5  6.25 41.25 31.25  6.25 41.25 30  7.5 41.25 31.25  7.5 41.25 30  7.5 42.5 30  7.5 42.5 31.25  7.5 42.5 32.5  7.5 41.25 32.5  6.25 41.25 32.5  6.25 42.5 31.25  6.25 42.5 30  6.25 42.5 32.5  8.75 41.25 31.25  8.75 41.25 30  10 41.25 31.25  10 41.25 30  10 42.5 30  10 42.5 31.25  10 42.5 32.5  10 41.25 32.5  8.75 41.25 32.5  8.75 42.5 31.25  8.75 42.5 30  8.75 42.5 32.5  11.25 41.25 31.25  11.25 41.25 30  12.5 41.25 31.25  12.5 41.25 30  12.5 42.5 30  12.5 42.5 31.25  12.5 42.5 32.5  12.5 41.25 32.5  11.25 41.25 32.5  11.25 42.5 31.25  11.25 42.5 30  11.25 42.5 32.5  13.75 41.25 31.25  13.75 41.25 30  13.75 41.25 32.5  13.75 42.5 32.5  13.75 42.5 31.25  1.25 43.75 31.25  1.25 43.75 30  2.5 43.75 31.25  2.5 43.75 30  2.5 45 30  2.5 45 31.25  2.5 45 32.5  2.5 43.75 32.5  1.25 43.75 32.5  0 43.75 30  0 45 30  1.25 45 31.25  1.25 45 30  0 43.75 31.25  0 43.75 32.5  0 45 32.5  1.25 45 32.5  0 45 31.25  3.75 43.75 31.25  3.75 43.75 30  5 43.75 31.25  5 43.75 30  5 45 30  5 45 31.25  5 45 32.5  5 43.75 32.5  3.75 43.75 32.5  3.75 45 31.25  3.75 45 30  3.75 45 32.5  6.25 43.75 31.25  6.25 43.75 30  7.5 43.75 31.25  7.5 43.75 30  7.5 45 30  7.5 45 31.25  7.5 45 32.5  7.5 43.75 32.5  6.25 43.75 32.5  6.25 45 31.25  6.25 45 30  6.25 45 32.5  8.75 43.75 31.25  8.75 43.75 30  10 43.75 31.25  10 43.75 30  10 45 30  10 45 31.25  10 45 32.5  10 43.75 32.5  8.75 43.75 32.5  8.75 45 31.25  8.75 45 30  8.75 45 32.5  11.25 43.75 31.25  11.25 43.75 30  12.5 43.75 31.25  12.5 43.75 30  12.5 45 30  12.5 45 31.25  12.5 45 32.5  12.5 43.75 32.5  11.25 43.75 32.5  11.25 45 31.25  11.25 45 30  11.25 45 32.5  13.75 43.75 31.25  13.75 43.75 32.5  13.75 43.75 30  13.75 45 31.25  13.75 45 30  13.75 45 32.5  1.25 46.25 31.25  1.25 46.25 30  2.5 46.25 31.25  2.5 46.25 30  2.5 47.5 30  2.5 47.5 31.25  2.5 47.5 32.5  2.5 46.25 32.5  1.25 46.25 32.5  0 46.25 30  0 47.5 30  1.25 47.5 31.25  1.25 47.5 30  0 46.25 31.25  0 46.25 32.5  0 47.5 32.5  1.25 47.5 32.5  0 47.5 31.25  3.75 46.25 31.25  3.75 46.25 30  5 46.25 31.25  5 46.25 30  5 47.5 30  5 47.5 31.25  5 47.5 32.5  5 46.25 32.5  3.75 46.25 32.5  3.75 47.5 31.25  3.75 47.5 30  3.75 47.5 32.5  6.25 46.25 31.25  6.25 46.25 30  7.5 46.25 31.25  7.5 46.25 30  7.5 47.5 30  7.5 47.5 31.25  7.5 47.5 32.5  7.5 46.25 32.5  6.25 46.25 32.5  6.25 47.5 31.25  6.25 47.5 30  6.25 47.5 32.5  8.75 46.25 31.25  8.75 46.25 30  10 46.25 31.25  10 46.25 30  10 47.5 30  10 47.5 31.25  10 47.5 32.5  10 46.25 32.5  8.75 46.25 32.5  8.75 47.5 31.25  8.75 47.5 30  8.75 47.5 32.5  11.25 46.25 31.25  11.25 46.25 30  12.5 46.25 31.25  12.5 46.25 30  12.5 47.5 30  12.5 47.5 31.25  12.5 47.5 32.5  12.5 46.25 32.5  11.25 46.25 32.5  11.25 47.5 31.25  11.25 47.5 30  11.25 47.5 32.5  13.75 46.25 31.25  13.75 46.25 30  13.75 46.25 32.5  13.75 47.5 31.25  13.75 47.5 30  13.75 47.5 32.5  1.25 48.75 31.25  1.25 48.75 30  2.5 48.75 31.25  2.5 48.75 30  2.5 50 30  2.5 50 31.25  2.5 50 32.5  2.5 48.75 32.5  1.25 48.75 32.5  0 48.75 30  0 50 30  1.25 50 31.25  1.25 50 30  0 48.75 31.25  0 48.75 32.5  0 50 32.5  1.25 50 32.5  0 50 31.25  3.75 48.75 31.25  3.75 48.75 30  5 48.75 31.25  5 48.75 30  5 50 30  5 50 31.25  5 50 32.5  5 48.75 32.5  3.75 48.75 32.5  3.75 50 31.25  3.75 50 30  3.75 50 32.5  6.25 48.75 31.25  6.25 48.75 30  7.5 48.75 31.25  7.5 48.75 30  7.5 50 30  7.5 50 31.25  7.5 50 32.5  7.5 48.75 32.5  6.25 48.75 32.5  6.25 50 31.25  6.25 50 30  6.25 50 32.5  8.75 48.75 31.25  8.75 48.75 30  10 48.75 31.25  10 48.75 30  10 50 30  10 50 31.25  10 50 32.5  10 48.75 32.5  8.75 48.75 32.5  8.75 50 31.25  8.75 50 30  8.75 50 32.5  11.25 48.75 31.25  12.5 48.75 31.25  12.5 48.75 32.5  12.5 50 32.5  11.25 48.75 32.5  11.25 50 32.5  11.25 50 31.25  13.75 48.75 31.25  13.75 48.75 32.5  7.5 28.75 33.75  6.25 28.75 33.75  7.5 30 33.75  7.5 30 35  7.5 27.5 35  7.5 28.75 35  6.25 28.75 35  6.25 30 33.75  5 30 35  6.25 30 35  5 30 33.75  10 28.75 33.75  8.75 28.75 33.75  10 30 33.75  10 30 35  10 27.5 33.75  10 27.5 35  10 28.75 35  8.75 28.75 35  8.75 27.5 35  8.75 30 33.75  8.75 30 35  1.25 31.25 33.75  2.5 31.25 33.75  2.5 32.5 33.75  2.5 32.5 35  2.5 30 33.75  2.5 30 35  2.5 31.25 35  0 30 35  1.25 31.25 35  1.25 30 35  1.25 32.5 33.75  0 31.25 35  0 31.25 33.75  0 32.5 35  1.25 32.5 35  0 32.5 33.75  3.75 31.25 33.75  3.75 31.25 32.5  3.75 30 32.5  5 31.25 33.75  5 31.25 32.5  5 32.5 33.75  5 32.5 35  3.75 30 33.75  5 31.25 35  3.75 31.25 35  3.75 30 35  3.75 32.5 33.75  3.75 32.5 35  6.25 31.25 33.75  6.25 31.25 32.5  7.5 31.25 33.75  7.5 31.25 32.5  7.5 32.5 33.75  7.5 32.5 35  7.5 31.25 35  6.25 31.25 35  6.25 32.5 33.75  6.25 32.5 35  8.75 31.25 33.75  8.75 31.25 32.5  10 31.25 33.75  10 31.25 32.5  10 32.5 33.75  10 32.5 35  10 31.25 35  8.75 31.25 35  8.75 32.5 33.75  8.75 32.5 35  1.25 33.75 33.75  2.5 33.75 33.75  2.5 35 33.75  2.5 35 35  2.5 33.75 35  1.25 33.75 35  1.25 35 33.75  0 33.75 33.75  0 33.75 35  0 35 35  1.25 35 35  0 35 33.75  3.75 33.75 33.75  5 33.75 33.75  5 35 33.75  5 35 35  5 33.75 35  3.75 33.75 35  3.75 35 33.75  3.75 35 35  6.25 33.75 33.75  7.5 33.75 33.75  7.5 35 33.75  7.5 35 35  7.5 33.75 35  6.25 33.75 35  6.25 35 33.75  6.25 35 35  8.75 33.75 33.75  10 33.75 33.75  10 35 33.75  10 35 35  10 33.75 35  8.75 33.75 35  8.75 35 33.75  8.75 35 35  1.25 36.25 33.75  2.5 36.25 33.75  2.5 37.5 33.75  2.5 37.5 35  2.5 36.25 35  1.25 36.25 35  1.25 37.5 33.75  0 36.25 33.75  0 36.25 35  0 37.5 35  1.25 37.5 35  0 37.5 33.75  3.75 36.25 33.75  5 36.25 33.75  5 37.5 33.75  5 37.5 35  5 36.25 35  3.75 36.25 35  3.75 37.5 33.75  3.75 37.5 35  6.25 36.25 33.75  7.5 36.25 33.75  7.5 37.5 33.75  7.5 37.5 35  7.5 36.25 35  6.25 36.25 35  6.25 37.5 33.75  6.25 37.5 35  8.75 36.25 33.75  10 36.25 33.75  10 37.5 33.75  10 37.5 35  10 36.25 35  8.75 36.25 35  8.75 37.5 33.75  8.75 37.5 35  1.25 38.75 33.75  2.5 38.75 33.75  2.5 40 33.75  2.5 40 35  2.5 38.75 35  1.25 38.75 35  1.25 40 33.75  0 38.75 33.75  0 38.75 35  0 40 35  1.25 40 35  0 40 33.75  3.75 38.75 33.75  5 38.75 33.75  5 40 33.75  5 40 35  5 38.75 35  3.75 38.75 35  3.75 40 33.75  3.75 40 35  6.25 38.75 33.75  7.5 38.75 33.75  7.5 40 33.75  7.5 40 35  7.5 38.75 35  6.25 38.75 35  6.25 40 33.75  6.25 40 35  8.75 38.75 33.75  10 38.75 33.75  10 40 33.75  10 40 35  10 38.75 35  8.75 38.75 35  8.75 40 33.75  8.75 40 35  11.25 38.75 33.75  11.25 40 33.75  12.5 40 33.75  12.5 40 35  11.25 38.75 35  11.25 40 35  1.25 41.25 33.75  2.5 41.25 33.75  2.5 42.5 33.75  2.5 42.5 35  2.5 41.25 35  1.25 41.25 35  1.25 42.5 
[...]
<PointData  Scalars="c_HbO2"> 
<DataArray  type="Float64"  Name="c_HbO2"  format="ascii">1.9999999999999003e-17  -3.6959328192650908e-18  1.1699564827067701e-18  -9.9667309216299568e-18  2.6455015509393482e-18  1.8034701733256004e-18  2.6455015509424528e-18  1.9999999999996005e-17  1.9999999999999003e-17  1.9999999999999003e-17  1.9999999999999003e-17  1.9999999999997003e-17  1.1699564827068728e-18  3.0705776992222819e-20  1.8299075984594087e-20  1.9243149639368061e-21  -9.5734608961472607e-20  3.0705776988480358e-20  2.9045295833078714e-19  -5.5767565996951209e-20  -4.5385963591113214e-21  1.7753960981569434e-19  2.9045295832617526e-19  -4.5385963551408580e-21  3.2203757450450391e-21  1.9087025555260402e-21  1.8921581591846627e-22  -9.9723568331404793e-21  3.2203757433749911e-21  -5.8828481577109720e-21  -5.5393567598645857e-22  -5.5393568760025699e-22  -6.1666717887578902e-22  -1.0426630193483632e-21  -5.9724845641560152e-23  3.3718403921604305e-22  3.0705776991868442e-20  1.8299075982256191e-20  1.9243149660179943e-21  -9.5734608952833848e-20  3.0705776986231269e-20  -5.5767565988424239e-20  2.9045295832980178e-19  -4.5385963588146913e-21  3.2203757450571405e-21  1.9087025579989361e-21  -5.8828481599280883e-21  -9.9723568368641174e-21  3.2203757441311116e-21  -5.5393568477792439e-22  1.9999999999999003e-17  -3.6959328192714372e-18  1.1699564827057095e-18  -9.9667309216322648e-18  2.6455015509391306e-18  1.8034701733209639e-18  2.6455015509458328e-18  1.9999999999999003e-17  1.9999999999999003e-17  1.9999999999996005e-17  1.1699564826998066e-18  1.9999999999997003e-17  -3.6959328192657418e-18  1.9999999999999003e-17  1.9999999999999003e-17  2.6455015509420345e-18  1.8034701733104452e-18  5.0114437172651072e-19  -9.9667309216409192e-18  1.8034701733228991e-18  -3.6959328192686777e-18  -3.6959328192820783e-18  1.9999999999999003e-17  1.9999999999999003e-17  1.9999999999996005e-17  1.1699564827126833e-18  1.9999999999999003e-17  1.9999999999997003e-17  1.9999999999999003e-17  2.9045295833599731e-19  1.7753960984223382e-19  2.3884871617226501e-20  -9.3579001379131772e-19  2.9045295833212629e-19  1.7753960983137827e-19  -5.1108164364529558e-19  -1.0552798564684016e-20  -5.1108164365946831e-19  -1.0552798575640931e-20  3.0705776987378238e-20  1.8299075974116345e-20  1.9243149584543001e-21  -9.5734608957634229e-20  3.0705776987409595e-20  3.0705776989884758e-20  1.8299075981089373e-20  -5.5767565990636940e-20  -4.5385963579914397e-21  -5.5767565986568292e-20  -4.5385963607916734e-21  3.2203757445554109e-21  1.9087025571185834e-21  1.8921581714746101e-22  -9.9723568350007305e-21  3.2203757438179625e-21  3.2203757429506790e-21  1.9087025560740090e-21  -5.8828481607273078e-21  -5.5393568518284092e-22  -5.8828481613836143e-21  -5.5393568278857531e-22  1.8034701733105381e-18  5.0114437169677937e-19  -9.9667309216454089e-18  2.6455015509392958e-18  1.8034701733099110e-18  -3.6959328192588994e-18  -3.6959328192655962e-18  1.9999999999999003e-17  1.9999999999999003e-17  1.9999999999996005e-17  1.1699564827142865e-18  1.9999999999999003e-17  1.9999999999999003e-17  1.7753960982484797e-19  2.3884871607122486e-20  -9.3579001379546347e-19  2.9045295833470665e-19  1.7753960982652622e-19  -5.1108164365561751e-19  -5.1108164365462864e-19  -1.0552798579188795e-20  -1.0552798579672348e-20  1.8299075981120663e-20  1.9243149587841374e-21  -9.5734608963110671e-20  3.0705776987646713e-20  1.8299075978651973e-20  -5.5767565994660665e-20  -5.5767565992701091e-20  -4.5385963596167320e-21  1.8921581290845385e-22  1.9087025550902805e-21  -9.9723568344227273e-21  1.9087025552987161e-21  3.2203757436721429e-21  1.9087025554177473e-21  -5.8828481600508828e-21  -5.8828481598855643e-21  -5.5393568420013620e-22  -9.9667309216227769e-18  5.0114437172765039e-19  1.8034701733177349e-18  2.6455015509414155e-18  1.8034701733215355e-18  -3.6959328192652649e-18  -3.6959328192775917e-18  1.9999999999999003e-17  1.9999999999999003e-17  1.9999999999996005e-17  1.1699564827109577e-18  1.9999999999999003e-17  -9.3579001380282187e-19  -5.1108164366422189e-19  2.3884871602236106e-20  1.7753960982766897e-19  2.9045295833369303e-19  1.7753960983009329e-19  -5.1108164366270714e-19  -5.1108164366242471e-19  -1.0552798590416703e-20  -1.0552798575974135e-20  -9.5734608958752532e-20  1.9243149643742612e-21  1.8299075982201022e-20  3.0705776989734024e-20  1.8299075981730515e-20  -5.5767565987807508e-20  -5.5767565987462153e-20  -4.5385963578560190e-21  -9.9723568364149890e-21  1.8921581368160030e-22  1.9087025561113969e-21  3.2203757439119099e-21  1.9087025560227285e-21  -5.8828481612286590e-21  -5.8828481615356003e-21  -5.5393568521248641e-22  -1.0426630188133628e-21  -6.1666717848962765e-22  1.9961707672452670e-22  3.3718403909246864e-22  -6.1666717857655245e-22  -5.9724846787743140e-23  -9.9667309216228971e-18  -3.6959328192673357e-18  5.0114437172483468e-19  1.8034701733248366e-18  2.6455015509423326e-18  1.8034701733200252e-18  2.6455015509393486e-18  1.8034701733179571e-18  -3.6959328192614162e-18  1.9999999999999003e-17  1.9999999999996005e-17  -3.6959328192765925e-18  1.1699564827145463e-18  1.9999999999999003e-17  1.9999999999999003e-17  1.9999999999996005e-17  1.1699564827069997e-18  1.9999999999999003e-17  -9.3579001379623385e-19  -5.1108164367687120e-19  2.3884871607702109e-20  1.7753960983159419e-19  2.9045295833340390e-19  1.7753960982528934e-19  2.9045295833443090e-19  1.7753960982593711e-19  -5.1108164365715344e-19  -5.1108164366389997e-19  -1.0552798583526827e-20  -1.0552798579896838e-20  -9.5734608959506798e-20  -5.5767565980862340e-20  1.9243149615452492e-21  1.8299075984430714e-20  3.0705776989402018e-20  1.8299075981453822e-20  3.0705776989458267e-20  1.8299075981087600e-20  -5.5767565990084029e-20  -5.5767565988384541e-20  -4.5385963572902666e-21  -4.5385963572496731e-21  -9.9723568372273914e-21  -5.8828481613664931e-21  1.8921581417436689e-22  1.9087025569612996e-21  3.2203757441959774e-21  1.9087025557962455e-21  3.2203757439765147e-21  1.9087025564402859e-21  -5.8828481612353757e-21  -5.8828481614734710e-21  -5.5393568497346600e-22  -5.5393568471142668e-22  -1.0426630190561753e-21  -6.1666717779676467e-22  1.9540207968674671e-23  1.9961707693430707e-22  3.3718403928506356e-22  1.9961707683647434e-22  3.3718403912245249e-22  1.9961707677964610e-22  -6.1666717841159806e-22  -6.1666717875251145e-22  -5.9724846360541527e-23  -5.9724846941973688e-23  -1.0910004427386314e-22  -6.4559880562733077e-23  -6.4559880914093522e-23  -6.2890359532562742e-24  -6.4559880919837810e-23  -9.9667309216226198e-18  -3.6959328192657333e-18  5.0114437173347700e-19  1.8034701733199986e-18  2.6455015509416347e-18  1.8034701733211700e-18  2.6455015509406482e-18  1.8034701733250003e-18  -3.6959328192602121e-18  1.9999999999999003e-17  1.9999999999996005e-17  -3.6959328192708409e-18  1.1699564827108993e-18  1.9999999999999003e-17  1.9999999999999003e-17  1.9999999999996005e-17  1.1699564827098162e-18  1.9999999999999003e-17  -9.3579001380033222e-19  -5.1108164366617372e-19  2.3884871610596445e-20  1.7753960982723063e-19  2.9045295833448651e-19  1.7753960982766686e-19  2.9045295833443634e-19  1.7753960982891146e-19  -5.1108164366401485e-19  -5.1108164366542598e-19  -1.0552798584580880e-20  -1.0552798583454396e-20  -9.5734608957807394e-20  -5.5767565991797926e-20  1.9243149631011448e-21  1.8299075980299359e-20  3.0705776988842818e-20  1.8299075981928570e-20  3.0705776989240872e-20  1.8299075981290644e-20  -5.5767565990402037e-20  -5.5767565988219801e-20  -4.5385963578845740e-21  -4.5385963575290352e-21  -9.9723568366810337e-21  -5.8828481607561042e-21  1.8921581416689801e-22  1.9087025563444303e-21  3.2203757436468549e-21  1.9087025558161800e-21  3.2203757437825209e-21  1.9087025561245696e-21  -5.8828481607853422e-21  -5.8828481611078543e-21  -5.5393568410272335e-22  -5.5393568446247672e-22  -1.0426630189297956e-21  -6.1666717827524485e-22  1.9540207783521318e-23  1.9961707679679595e-22  3.3718403911772145e-22  1.9961707673490791e-22  3.3718403905956923e-22  1.9961707671222019e-22  -6.1666717861464373e-22  -6.1666717865285464e-22  -5.9724846950085093e-23  -5.9724847025537712e-23  -1.0910004463409145e-22  -6.4559880879900519e-23  -6.4559880992446827e-23  -6.4559881205573392e-23  -6.2890361187660889e-24  -6.2890360491547909e-24  -9.9667309216293898e-18  -3.6959328192652965e-18  5.0114437172823732e-19  1.8034701733203619e-18  2.6455015509396128e-18  1.8034701733245704e-18  2.6455015509395689e-18  1.8034701733245465e-18  -3.6959328192658350e-18  1.9999999999999003e-17  1.9999999999996005e-17  -3.6959328192658258e-18  1.1699564827151196e-18  1.9999999999999003e-17  1.9999999999999003e-17  1.9999999999996005e-17  1.1699564827115948e-18  1.9999999999999003e-17  -9.3579001380502649e-19  -5.1108164366654774e-19  2.3884871613038337e-20  1.7753960983056158e-19  2.9045295833503290e-19  1.7753960982818190e-19  2.9045295833448964e-19  1.7753960982842784e-19  -5.1108164366694929e-19  -5.1108164366374301e-19  -1.0552798582730630e-20  -1.0552798586620301e-20  -9.5734608957594952e-20  -5.5767565988397083e-20  1.9243149627405050e-21  1.8299075982180421e-20  3.0705776988635064e-20  1.8299075981763848e-20  3.0705776988960167e-20  1.8299075981773544e-20  -5.5767565988472857e-20  -5.5767565988476010e-20  -4.5385963587682117e-21  -4.5385963575680782e-21  -9.9723568362154220e-21  -5.8828481608370106e-21  1.8921581390274184e-22  1.9087025559570479e-21  3.2203757437012211e-21  1.9087025559042405e-21  3.2203757437061514e-21  1.9087025557969809e-21  -5.8828481609680904e-21  -5.8828481610566779e-21  -5.5393568433693562e-22  -5.5393568432114892e-22  -1.0426630189693896e-21  -6.1666717856580721e-22  1.9540207885110600e-23  1.9961707695629547e-22  3.3718403924310810e-22  1.9961707673347964e-22  3.3718403911032510e-22  1.9961707680521376e-22  -6.1666717866390061e-22  -6.1666717870185742e-22  -5.9724846961068971e-23  -5.9724847037354005e-23  -1.0910004450784738e-22  -6.4559880384639711e-23  -6.4559880918717165e-23  -6.4559880970928345e-23  -6.2890353579300483e-24  -6.2890359760007697e-24  -9.9667309216301586e-18  -3.6959328192637935e-18  5.0114437172334796e-19  1.8034701733190603e-18  2.6455015509404348e-18  1.8034701733284022e-18  2.6455015509385197e-18  1.8034701733199682e-18  -3.6959328192699003e-18  1.9999999999999003e-17  1.9999999999999003e-17  -3.6959328192604401e-18  1.1699564827126411e-18  1.9999999999999003e-17  1.9999999999999003e-17  1.9999999999999003e-17  1.1699564827094998e-18  1.9999999999999003e-17  -9.3579001380346976e-19  -5.1108164366571699e-19  2.3884871609907407e-20  1.7753960982665117e-19  2.9045295833280330e-19  1.7753960982685816e-19  2.9045295833288895e-19  1.7753960982853952e-19  -5.1108164366524388e-19  -5.1108164366173792e-19  -1.0552798586334599e-20  -1.0552798584308203e-20  -9.5734608956209426e-20  -5.5767565989271540e-20  1.9243149624726409e-21  1.8299075981951696e-20  3.0705776988948064e-20  1.8299075981602245e-20  3.0705776989105455e-20  1.8299075981513748e-20  -5.5767565988389945e-20  -5.5767565988878217e-20  -4.5385963574062452e-21  -4.5385963577616680e-21  -9.9723568363247080e-21  -5.8828481609734010e-21  1.8921581392104753e-22  1.9087025559632853e-21  3.2203757438213581e-21  1.9087025559534439e-21  3.2203757437709311e-21  1.9087025558238928e-21  -5.8828481609009552e-21  -5.8828481611540066e-21  -5.5393568431926512e-22  -5.5393568435640764e-22  -1.0426630190746579e-21  1.9540207962412657e-23  1.9961707680600202e-22  3.3718403908716359e-22  -6.1666717866847884e-22  -5.9724846963298860e-23  -6.1666717862032504e-22  -1.0910004450628287e-22  -6.4559880937861865e-23  1.9243149631998069e-21  -9.5734608959675269e-20  1.8299075984508235e-20  3.0705776989223177e-20  3.0705776989010320e-20  1.8299075981954633e-20  -5.5767565990727471e-20  -5.5767565986170130e-20  2.9045295833432180e-19  -4.5385963585015915e-21  1.7753960982945978e-19  1.8921581398994619e-22  -9.9723568361672708e-21  1.9087025561019113e-21  3.2203757440758818e-21  1.9087025570291390e-21  3.2203757429437009e-21  1.9087025555348160e-21  -5.8828481605846626e-21  -5.5393568388968400e-22  -5.8828481605665995e-21  -5.5393568407454083e-22  -9.9667309216391196e-18  5.0114437172070240e-19  1.8034701733149596e-18  2.6455015509396972e-18  1.8034701733254066e-18  2.6455015509388698e-18  1.8034701733223494e-18  1.9999999999999003e-17  -3.6959328192697000e-18  1.1699564827054915e-18  -3.6959328192700751e-18  1.9999999999999003e-17  1.9999999999999003e-17  1.9999999999996005e-17  1.1699564827103200e-18  1.9999999999999003e-17  -9.3579001379883308e-19  -5.1108164366561337e-19  -1.0552798585115256e-20  2.3884871610424736e-20  1.7753960981584988e-19  1.7753960982595227e-19  2.9045295833302439e-19  -5.1108164365673647e-19  1.7753960982897822e-19  -5.1108164366471512e-19  -1.0552798584430794e-20  -5.1108164365273458e-19  -1.0552798586608017e-20  -9.5734608959281465e-20  -5.5767565996861136e-20  1.9243149657046007e-21  1.8299075983091440e-20  1.8299075982853838e-20  3.0705776989150341e-20  1.8299075982156729e-20  -5.5767565989350984e-20  -5.5767565989105175e-20  -4.5385963581179937e-21  -9.9723568366637650e-21  -5.8828481620729694e-21  1.8921581298697478e-22  1.9087025544432252e-21  1.9087025552692565e-21  3.2203757438854588e-21  1.9087025558650027e-21  -5.8828481607759097e-21  -5.8828481612280075e-21  -5.5393568405277622e-22  -9.9667309216269400e-18  5.0114437172902945e-19  1.8034701733242896e-18  2.6455015509404248e-18  1.8034701733252622e-18  -3.6959328192617174e-18  -3.6959328192687902e-18  1.9999999999999003e-17  1.9999999999999003e-17  1.9999999999996005e-17  1.1699564827136336e-18  1.9999999999999003e-17  -9.3579001380576566e-19  2.3884871606017492e-20  1.7753960982508154e-19  2.9045295833335368e-19  1.7753960982718236e-19  -5.1108164366802589e-19  -5.1108164366793710e-19  -1.0552798584189824e-20  -9.5734608956594889e-20  1.9243149634317389e-21  1.8299075982127362e-20  3.0705776989012414e-20  1.8299075982116357e-20  -5.5767565988854696e-20  -5.5767565987384538e-20  -4.5385963568730334e-21  -9.9723568366618767e-21  1.8921581365869276e-22  1.9087025560197076e-21  3.2203757438123416e-21  1.9087025560020439e-21  -5.8828481611143317e-21  -5.8828481615298255e-21  -5.5393568468185792e-22  -9.9667309216236475e-18  5.0114437172475610e-19  1.8034701733177927e-18  2.6455015509406779e-18  1.8034701733159715e-18  -3.6959328192737113e-18  -3.6959328192667078e-18  1.9999999999999003e-17  1.9999999999999003e-17  1.9999999999996005e-17  1.1699564827059942e-18  1.9999999999999003e-17  -9.3579001379900391e-19  2.3884871608870610e-20  1.7753960982567236e-19  2.9045295833276329e-19  1.7753960982753115e-19  -5.1108164366631663e-19  -5.1108164366508615e-19  -1.0552798581541269e-20  -9.5734608957322120e-20  1.9243149641571521e-21  1.8299075982892302e-20  3.0705776989308538e-20  1.8299075981668458e-20  -5.5767565988776732e-20  -5.5767565988274426e-20  -4.5385963577158685e-21  -9.9723568365725256e-21  1.8921581428490641e-22  1.9087025560707417e-21  3.2203757437178262e-21  1.9087025559721687e-21  -5.8828481610797605e-21  -5.8828481612202639e-21  -5.5393568499084855e-22  -9.9667309216279862e-18  5.0114437172770846e-19  1.8034701733180511e-18  2.6455015509398509e-18  1.8034701733258250e-18  -3.6959328192612605e-18  -3.6959328192665969e-18  1.9999999999999003e-17  1.9999999999999003e-17  1.9999999999996005e-17  1.1699564827082337e-18  1.9999999999999003e-17  -9.3579001379992778e-19  2.3884871608376191e-20  1.7753960982650591e-19  2.9045295833416931e-19  1.7753960982713804e-19  -5.1108164366731888e-19  -5.1108164366381099e-19  -1.0552798585504100e-20  -9.5734608958670247e-20  1.9243149630534983e-21  1.8299075982135171e-20  3.0705776989116559e-20  1.8299075981898014e-20  -5.5767565989844997e-20  -5.5767565989098892e-20  -4.5385963580962547e-21  -9.9723568364166697e-21  1.8921581424119805e-22  1.9087025558091177e-21  3.2203757436358331e-21  1.9087025560643414e-21  -5.8828481609173512e-21  -5.8828481604012569e-21  -5.5393568417442155e-22  -1.0426630189204330e-21  -6.1666717877785379e-22  1.9961707676089936e-22  3.3718403914201615e-22  -6.1666717852004945e-22  -5.9724846920421305e-23  -9.9667309216296332e-18  5.0114437172311839e-19  1.8034701733202452e-18  2.6455015509408632e-18  1.8034701733256543e-18  -3.6959328192614377e-18  -3.6959328192666986e-18  1.9999999999999003e-17  1.9999999999999003e-17  1.9999999999996005e-17  1.1699564827071214e-18  1.9999999999999003e-17  -9.3579001380265047e-19  2.3884871606950124e-20  1.7753960982732806e-19  2.9045295833351137e-19  1.7753960982624550e-19  -5.1108164366611334e-19  -5.1108164366207669e-19  -1.0552798581082952e-20  -9.5734608957963948e-20  1.9243149626479486e-21  1.8299075982375187e-20  3.0705776989060334e-20  1.8299075982072476e-20  -5.5767565988560763e-20  -5.5767565990066034e-20  -4.5385963567823462e-21  -9.9723568364695605e-21  1.8921581461294548e-22  1.9087025560491671e-21  3.2203757436413265e-21  1.9087025558665243e-21  -5.8828481604491757e-21  -5.8828481603747204e-21  -5.5393568466858386e-22  -1.0426630190405477e-21  1.9540207838799137e-23  1.9961707682633321e-22  3.3718403914387935e-22  1.9961707677986152e-22  -6.1666717865197659e-22  -6.1666717874989546e-22  -5.9724846891405661e-23  -1.0910004448046227e-22  -6.4559880757749658e-23  -6.4559880909875355e-23  -6.2890359220542916e-24  3.5291955578168187e-23  -9.9667309216239417e-18  5.0114437172141028e-19  1.8034701733259089e-18  2.6455015509415380e-18  1.8034701733196034e-18  -3.6959328192662549e-18  -3.6959328192693695e-18  1.9999999999999003e-17  1.9999999999999003e-17  1.9999999999996005e-17  1.1699564827033896e-18  1.9999999999999003e-17  -9.3579001379836181e-19  2.3884871607100623e-20  1.7753960982622210e-19  2.9045295833471705e-19  1.7753960982729041e-19  -5.1108164366620483e-19  -5.1108164366217896e-19  -1.0552798585046962e-20  -9.5734608959074716e-20  1.9243149632689531e-21  1.8299075982317448e-20  3.0705776989301219e-20  1.8299075982260835e-20  -5.5767565989907698e-20  -5.5767565989353295e-20  -4.5385963577978748e-21  -9.9723568364745800e-21  1.8921581451786294e-22  1.9087025557577890e-21  3.2203757436873980e-21  1.9087025557687920e-21  -5.8828481612579647e-21  -5.8828481611598596e-21  -5.5393568463169158e-22  -1.0426630188485798e-21  1.9540207677861565e-23  1.9961707669066809e-22  3.3718403909519720e-22  1.9961707671674733e-22  -6.1666717852426580e-22  -6.1666717870401422e-22  -5.9724846776904071e-23  -1.0910004436673702e-22  -6.4559880956575277e-23  -6.4559880944310592e-23  -6.2890360304118428e-24  -9.9667309216214257e-18  5.0114437172061063e-19  1.8034701733262317e-18  2.6455015509419752e-18  1.8034701733242865e-18  -3.6959328192678934e-18  -3.6959328192671238e-18  1.9999999999999003e-17  1.9999999999999003e-17  1.9999999999996005e-17  1.1699564827040975e-18  1.9999999999999003e-17  -9.3579001379973865e-19  2.3884871610290923e-20  1.7753960982860478e-19  2.9045295833389583e-19  1.7753960982582632e-19  -5.1108164366621291e-19  -5.1108164366423460e-19  -1.0552798580629385e-20  -9.5734608959754593e-20  1.9243149633669325e-21  1.8299075982399216e-20  3.0705776989536460e-20  1.8299075982027972e-20  -5.5767565989439276e-20  -5.5767565989692729e-20  -4.5385963566362802e-21  -9.9723568365753859e-21  1.8921581436052288e-22  1.9087025558689483e-21  3.2203757436454545e-21  1.9087025560608296e-21  -5.8828481608892740e-21  -5.8828481611783328e-21  -5.5393568498489190e-22  -1.0426630186260629e-21  1.9540207846258295e-23  1.9961707669315386e-22  3.3718403906702281e-22  1.9961707671514750e-22  -6.1666717852126265e-22  -6.1666717832526148e-22  -5.9724847071341778e-23  -1.0910004448017298e-22  -6.4559880968326541e-23  -6.4559880939151394e-23  -6.2890359694577580e-24  -9.9667309216229896e-18  5.0114437172936514e-19  1.8034701733326905e-18  2.6455015509398717e-18  1.8034701733256643e-18  -3.6959328192609031e-18  -3.6959328192613152e-18  1.9999999999999003e-17  1.9999999999999003e-17  1.9999999999999003e-17  1.1699564827050618e-18  1.9999999999999003e-17  -9.357900138046299