<?xml version="1.0"?>
<VTKFile type="UnstructuredGrid"  version="0.1"  >
<UnstructuredGrid>
<Piece  NumberOfPoints="4055" NumberOfCells="19818">
<Points>
<DataArray  type="Float64"  NumberOfComponents="3"  format="ascii">27.5 50 17.5  27.5 50 18.75  26.25 50 18.75  26.25 48.75 18.75  27.5 50 20  27.5 37.5 0  27.5 37.5 1.25  27.5 36.25 1.25  26.25 36.25 1.25  27.5 36.25 0  26.25 36.25 0  27.5 37.5 2.5  27.5 36.25 2.5  26.25 36.25 2.5  26.25 37.5 1.25  26.25 37.5 0  25 37.5 2.5  26.25 37.5 2.5  30 37.5 0  30 37.5 1.25  30 36.25 1.25  28.75 36.25 1.25  30 36.25 0  28.75 36.25 0  30 37.5 2.5  30 36.25 2.5  28.75 36.25 2.5  28.75 37.5 1.25  28.75 37.5 0  28.75 37.5 2.5  32.5 37.5 0  32.5 37.5 1.25  32.5 36.25 1.25  31.25 36.25 1.25  32.5 36.25 0  31.25 36.25 0  32.5 37.5 2.5  32.5 36.25 2.5  31.25 36.25 2.5  31.25 37.5 1.25  31.25 37.5 0  31.25 37.5 2.5  35 37.5 0  35 37.5 1.25  35 36.25 1.25  33.75 36.25 1.25  35 36.25 0  33.75 36.25 0  35 37.5 2.5  33.75 37.5 1.25  33.75 37.5 0  33.75 37.5 2.5  33.75 36.25 2.5  36.25 37.5 1.25  36.25 37.5 0  36.25 36.25 1.25  36.25 36.25 0  37.5 37.5 0  37.5 37.5 1.25  37.5 37.5 2.5  36.25 37.5 2.5  27.5 38.75 1.25  27.5 38.75 0  26.25 38.75 1.25  26.25 38.75 0  27.5 40 0  27.5 40 1.25  27.5 40 2.5  27.5 38.75 2.5  26.25 38.75 2.5  26.25 40 1.25  25 38.75 2.5  25 40 2.5  26.25 40 2.5  28.75 38.75 1.25  28.75 38.75 0  30 38.75 1.25  30 38.75 0  30 40 0  30 40 1.25  30 40 2.5  30 38.75 2.5  28.75 38.75 2.5  28.75 40 1.25  28.75 40 0  28.75 40 2.5  31.25 38.75 1.25  31.25 38.75 0  32.5 38.75 1.25  32.5 38.75 0  32.5 40 0  32.5 40 1.25  32.5 40 2.5  32.5 38.75 2.5  31.25 38.75 2.5  31.25 40 1.25  31.25 40 0  31.25 40 2.5  33.75 38.75 1.25  33.75 38.75 0  35 38.75 1.25  35 38.75 0  35 40 0  35 40 1.25  35 40 2.5  35 38.75 2.5  33.75 38.75 2.5  33.75 40 1.25  33.75 40 0  33.75 40 2.5  36.25 38.75 1.25  36.25 38.75 0  37.5 38.75 1.25  37.5 38.75 0  37.5 40 0  37.5 40 1.25  37.5 40 2.5  37.5 38.75 2.5  36.25 38.75 2.5  36.25 40 1.25  36.25 40 0  36.25 40 2.5  40 40 0  40 40 1.25  40 38.75 1.25  38.75 38.75 1.25  40 40 2.5  40 38.75 2.5  38.75 38.75 2.5  38.75 38.75 0  38.75 40 1.25  38.75 40 0  38.75 40 2.5  41.25 40 1.25  41.25 40 0  41.25 38.75 1.25  42.5 40 0  42.5 40 1.25  42.5 40 2.5  41.25 40 2.5  41.25 38.75 2.5  27.5 41.25 1.25  27.5 41.25 0  26.25 41.25 1.25  26.25 41.25 0  27.5 42.5 0  27.5 42.5 1.25  27.5 42.5 2.5  27.5 41.25 2.5  26.25 41.25 2.5  25 42.5 0  26.25 42.5 1.25  26.25 42.5 0  25 41.25 2.5  25 42.5 2.5  26.25 42.5 2.5  28.75 41.25 1.25  28.75 41.25 0  30 41.25 1.25  30 41.25 0  30 42.5 0  30 42.5 1.25  30 42.5 2.5  30 41.25 2.5  28.75 41.25 2.5  28.75 42.5 1.25  28.75 42.5 0  28.75 42.5 2.5  31.25 41.25 1.25  31.25 41.25 0  32.5 41.25 1.25  32.5 41.25 0  32.5 42.5 0  32.5 42.5 1.25  32.5 42.5 2.5  32.5 41.25 2.5  31.25 41.25 2.5  31.25 42.5 1.25  31.25 42.5 0  31.25 42.5 2.5  33.75 41.25 1.25  33.75 41.25 0  35 41.25 1.25  35 41.25 0  35 42.5 0  35 42.5 1.25  35 42.5 2.5  35 41.25 2.5  33.75 41.25 2.5  33.75 42.5 1.25  33.75 42.5 0  33.75 42.5 2.5  36.25 41.25 1.25  36.25 41.25 0  37.5 41.25 1.25  37.5 41.25 0  37.5 42.5 0  37.5 42.5 1.25  37.5 42.5 2.5  37.5 41.25 2.5  36.25 41.25 2.5  36.25 42.5 1.25  36.25 42.5 0  36.25 42.5 2.5  38.75 41.25 1.25  38.75 41.25 0  40 41.25 1.25  40 41.25 0  40 42.5 0  40 42.5 1.25  40 42.5 2.5  40 41.25 2.5  38.75 41.25 2.5  38.75 42.5 1.25  38.75 42.5 0  38.75 42.5 2.5  41.25 41.25 1.25  41.25 41.25 0  42.5 41.25 1.25  42.5 41.25 0  42.5 42.5 0  42.5 42.5 1.25  42.5 42.5 2.5  42.5 41.25 2.5  41.25 41.25 2.5  41.25 42.5 1.25  41.25 42.5 0  41.25 42.5 2.5  45 40 0  45 41.25 1.25  45 41.25 0  43.75 41.25 1.25  43.75 41.25 0  45 42.5 0  45 42.5 1.25  45 42.5 2.5  45 40 2.5  45 41.25 2.5  43.75 41.25 2.5  43.75 40 2.5  43.75 42.5 1.25  43.75 42.5 0  43.75 42.5 2.5  47.5 40 0  47.5 41.25 1.25  47.5 41.25 0  46.25 41.25 1.25  46.25 41.25 0  47.5 42.5 0  47.5 42.5 1.25  47.5 42.5 2.5  47.5 40 2.5  47.5 41.25 2.5  46.25 41.25 2.5  46.25 40 2.5  46.25 42.5 1.25  46.25 42.5 0  46.25 42.5 2.5  50 40 0  50 41.25 1.25  50 41.25 0  48.75 41.25 1.25  48.75 41.25 0  50 42.5 0  50 42.5 1.25  50 42.5 2.5  50 40 1.25  50 40 2.5  50 41.25 2.5  48.75 41.25 2.5  48.75 40 2.5  48.75 42.5 1.25  48.75 42.5 0  48.75 42.5 2.5  26.25 43.75 1.25  26.25 43.75 0  27.5 43.75 1.25  27.5 43.75 0  27.5 45 0  27.5 45 1.25  27.5 45 2.5  27.5 43.75 2.5  26.25 43.75 2.5  26.25 45 1.25  25 45 2.5  26.25 45 2.5  28.75 43.75 1.25  28.75 43.75 0  30 43.75 1.25  30 43.75 0  30 45 0  30 45 1.25  30 45 2.5  30 43.75 2.5  28.75 43.75 2.5  28.75 45 1.25  28.75 45 0  28.75 45 2.5  31.25 43.75 1.25  31.25 43.75 0  32.5 43.75 1.25  32.5 43.75 0  32.5 45 0  32.5 45 1.25  32.5 45 2.5  32.5 43.75 2.5  31.25 43.75 2.5  31.25 45 1.25  31.25 45 0  31.25 45 2.5  33.75 43.75 1.25  33.75 43.75 0  35 43.75 1.25  35 43.75 0  35 45 0  35 45 1.25  35 45 2.5  35 43.75 2.5  33.75 43.75 2.5  33.75 45 1.25  33.75 45 0  33.75 45 2.5  36.25 43.75 1.25  36.25 43.75 0  37.5 43.75 1.25  37.5 43.75 0  37.5 45 0  37.5 45 1.25  37.5 45 2.5  37.5 43.75 2.5  36.25 43.75 2.5  36.25 45 1.25  36.25 45 0  36.25 45 2.5  38.75 43.75 1.25  38.75 43.75 0  40 43.75 1.25  40 43.75 0  40 45 0  40 45 1.25  40 45 2.5  40 43.75 2.5  38.75 43.75 2.5  38.75 45 1.25  38.75 45 0  38.75 45 2.5  41.25 43.75 1.25  41.25 43.75 0  42.5 43.75 1.25  42.5 43.75 0  42.5 45 0  42.5 45 1.25  42.5 45 2.5  42.5 43.75 2.5  41.25 43.75 2.5  41.25 45 1.25  41.25 45 0  41.25 45 2.5  43.75 43.75 1.25  43.75 43.75 0  45 43.75 1.25  45 43.75 0  45 45 0  45 45 1.25  45 45 2.5  45 43.75 2.5  43.75 43.75 2.5  43.75 45 1.25  43.75 45 0  43.75 45 2.5  46.25 43.75 1.25  46.25 43.75 0  47.5 43.75 1.25  47.5 43.75 0  47.5 45 0  47.5 45 1.25  47.5 45 2.5  47.5 43.75 2.5  46.25 43.75 2.5  46.25 45 1.25  46.25 45 0  46.25 45 2.5  48.75 43.75 1.25  48.75 43.75 0  50 43.75 1.25  50 43.75 0  50 45 0  50 45 1.25  50 45 2.5  50 43.75 2.5  48.75 43.75 2.5  48.75 45 1.25  48.75 45 0  48.75 45 2.5  27.5 46.25 1.25  27.5 46.25 0  26.25 46.25 1.25  26.25 46.25 0  27.5 47.5 0  27.5 47.5 1.25  27.5 47.5 2.5  27.5 46.25 2.5  26.25 46.25 2.5  25 47.5 0  26.25 47.5 1.25  26.25 47.5 0  25 46.25 2.5  25 47.5 2.5  26.25 47.5 2.5  28.75 46.25 1.25  28.75 46.25 0  30 46.25 1.25  30 46.25 0  30 47.5 0  30 47.5 1.25  30 47.5 2.5  30 46.25 2.5  28.75 46.25 2.5  28.75 47.5 1.25  28.75 47.5 0  28.75 47.5 2.5  31.25 46.25 1.25  31.25 46.25 0  32.5 46.25 1.25  32.5 46.25 0  32.5 47.5 0  32.5 47.5 1.25  32.5 47.5 2.5  32.5 46.25 2.5  31.25 46.25 2.5  31.25 47.5 1.25  31.25 47.5 0  31.25 47.5 2.5  33.75 46.25 1.25  33.75 46.25 0  35 46.25 1.25  35 46.25 0  35 47.5 0  35 47.5 1.25  35 47.5 2.5  35 46.25 2.5  33.75 46.25 2.5  33.75 47.5 1.25  33.75 47.5 0  33.75 47.5 2.5  36.25 46.25 1.25  36.25 46.25 0  37.5 46.25 1.25  37.5 46.25 0  37.5 47.5 0  37.5 47.5 1.25  37.5 47.5 2.5  37.5 46.25 2.5  36.25 46.25 2.5  36.25 47.5 1.25  36.25 47.5 0  36.25 47.5 2.5  38.75 46.25 1.25  38.75 46.25 0  40 46.25 1.25  40 46.25 0  40 47.5 0  40 47.5 1.25  40 47.5 2.5  40 46.25 2.5  38.75 46.25 2.5  38.75 47.5 1.25  38.75 47.5 0  38.75 47.5 2.5  41.25 46.25 1.25  41.25 46.25 0  42.5 46.25 1.25  42.5 46.25 0  42.5 47.5 0  42.5 47.5 1.25  42.5 47.5 2.5  42.5 46.25 2.5  41.25 46.25 2.5  41.25 47.5 1.25  41.25 47.5 0  41.25 47.5 2.5  43.75 46.25 1.25  43.75 46.25 0  45 46.25 1.25  45 46.25 0  45 47.5 0  45 47.5 1.25  45 47.5 2.5  45 46.25 2.5  43.75 46.25 2.5  43.75 47.5 1.25  43.75 47.5 0  43.75 47.5 2.5  46.25 46.25 1.25  46.25 46.25 0  47.5 46.25 1.25  47.5 46.25 0  47.5 47.5 0  47.5 47.5 1.25  47.5 47.5 2.5  47.5 46.25 2.5  46.25 46.25 2.5  46.25 47.5 1.25  46.25 47.5 0  46.25 47.5 2.5  48.75 46.25 1.25  48.75 46.25 0  50 46.25 1.25  50 46.25 0  50 47.5 0  50 47.5 1.25  50 47.5 2.5  50 46.25 2.5  48.75 46.25 2.5  48.75 47.5 1.25  48.75 47.5 0  48.75 47.5 2.5  26.25 48.75 1.25  26.25 48.75 0  27.5 48.75 1.25  27.5 48.75 0  27.5 50 0  27.5 50 1.25  27.5 50 2.5  27.5 48.75 2.5  26.25 48.75 2.5  26.25 50 1.25  25 48.75 2.5  25 50 2.5  26.25 50 2.5  28.75 48.75 1.25  28.75 48.75 0  30 48.75 1.25  30 48.75 0  30 50 0  30 50 1.25  30 50 2.5  30 48.75 2.5  28.75 48.75 2.5  28.75 50 1.25  28.75 50 0  28.75 50 2.5  31.25 48.75 1.25  31.25 48.75 0  32.5 48.75 1.25  32.5 48.75 0  32.5 50 0  32.5 50 1.25  32.5 50 2.5  32.5 48.75 2.5  31.25 48.75 2.5  31.25 50 1.25  31.25 50 0  31.25 50 2.5  33.75 48.75 1.25  33.75 48.75 0  35 48.75 1.25  35 48.75 0  35 50 0  35 50 1.25  35 50 2.5  35 48.75 2.5  33.75 48.75 2.5  33.75 50 1.25  33.75 50 0  33.75 50 2.5  36.25 48.75 1.25  36.25 48.75 0  37.5 48.75 1.25  37.5 48.75 0  37.5 50 0  37.5 50 1.25  37.5 50 2.5  37.5 48.75 2.5  36.25 48.75 2.5  36.25 50 1.25  36.25 50 0  36.25 50 2.5  38.75 48.75 1.25  38.75 48.75 0  40 48.75 1.25  40 48.75 0  40 50 0  40 50 1.25  40 50 2.5  40 48.75 2.5  38.75 48.75 2.5  38.75 50 1.25  38.75 50 0  38.75 50 2.5  41.25 48.75 1.25  41.25 48.75 0  42.5 48.75 1.25  42.5 48.75 0  42.5 50 0  42.5 50 1.25  42.5 50 2.5  42.5 48.75 2.5  41.25 48.75 2.5  41.25 50 1.25  41.25 50 0  41.25 50 2.5  43.75 48.75 1.25  43.75 48.75 0  45 48.75 1.25  45 48.75 0  45 50 0  45 50 1.25  45 50 2.5  45 48.75 2.5  43.75 48.75 2.5  43.75 50 1.25  43.75 50 0  43.75 50 2.5  46.25 48.75 1.25  46.25 48.75 0  47.5 48.75 1.25  47.5 48.75 0  47.5 50 0  47.5 50 1.25  47.5 50 2.5  47.5 48.75 2.5  46.25 48.75 2.5  46.25 50 1.25  46.25 50 0  46.25 50 2.5  48.75 48.75 1.25  48.75 48.75 0  50 48.75 1.25  50 48.75 0  50 50 0  50 50 1.25  50 50 2.5  50 48.75 2.5  48.75 48.75 2.5  48.75 50 1.25  48.75 50 0  48.75 50 2.5  27.5 37.5 3.75  27.5 36.25 3.75  26.25 36.25 3.75  27.5 37.5 5  27.5 36.25 5  26.25 36.25 5  26.25 37.5 3.75  25 37.5 5  26.25 37.5 5  25 37.5 3.75  30 37.5 3.75  30 36.25 3.75  28.75 36.25 3.75  30 37.5 5  30 36.25 5  28.75 36.25 5  28.75 37.5 3.75  28.75 37.5 5  32.5 37.5 3.75  32.5 36.25 3.75  31.25 36.25 3.75  32.5 37.5 5  32.5 36.25 5  31.25 36.25 5  31.25 37.5 3.75  31.25 37.5 5  33.75 37.5 3.75  33.75 36.25 3.75  35 37.5 3.75  35 37.5 5  33.75 37.5 5  33.75 36
[...]
<PointData  Scalars="c_HbO2"> 
<DataArray  type="Float64"  Name="c_HbO2"  format="ascii">1.1526508968218233e-32  -1.3596728693271365e-32  -1.1831936136480768e-32  -1.8671606267432396e-32  1.5752495873717123e-32  -9.8280067999209555e-33  -1.1767491964062433e-32  -2.0745594049376522e-32  -2.1339276525577630e-32  -1.3319326922795204e-32  4.4156078990259644e-32  -1.1119759812768661e-32  -1.0349946474461877e-32  -2.1654996495762892e-32  1.2264780762747511e-32  3.3179645116092874e-32  3.1582380340059036e-32  -4.5370172148994889e-32  -1.8500628504794133e-33  -4.9773562031342441e-33  4.0106492655256372e-33  1.4042209825878056e-32  -1.7360653980137239e-32  1.2249854900263866e-32  -4.5285791908745566e-34  1.5141330873550381e-32  1.1007829690347633e-32  1.8888455082207092e-33  -3.1497144462483652e-33  1.2896808737262186e-33  1.1522510322920369e-33  8.1670770253089551e-33  2.6623693466465130e-34  8.2800171541657535e-33  1.9828403258394895e-33  2.4627844169694635e-33  4.8824166767860330e-33  4.1659671691990977e-33  4.4689973183291903e-33  3.1576860493098404e-33  1.5807385138477573e-33  1.1180434040029291e-32  -8.7625609708894228e-35  -2.1084883196724063e-33  3.7103771004987341e-33  -4.0657993596488203e-34  -2.6362820967493015e-33  -2.9143016060850475e-33  -1.0338899284709787e-33  -3.4313417494054517e-34  1.6587291227187002e-33  7.6501489401838630e-34  -4.1877008117021928e-33  -8.2240790148971131e-34  -8.5682348143167654e-34  -8.8636926664137809e-34  9.4680263554017101e-35  7.7345921018703764e-34  4.5754558511902770e-34  -5.9237522256362733e-34  -3.8564039849871639e-34  -1.4339916000021602e-32  -2.3450816802487383e-32  -6.4245554152567326e-32  -3.0638068468830797e-32  6.6852311119654240e-34  -7.7375581094168268e-33  1.2503170443045767e-32  1.6301986755448769e-33  -1.4202817276721995e-32  -8.1940201956835673e-32  1.2126577939142748e-31  6.0997978375757201e-32  1.5292831785466201e-32  -9.6990175809518979e-33  -1.3178648412232536e-32  -1.2004730557687218e-32  -7.6044749133160369e-33  -5.9901372810439186e-34  -1.2598929015544777e-32  -1.5491809668616889e-32  -1.4147015262267546e-32  -2.3408904263479656e-32  -3.6211391047167992e-33  -5.6548356621075077e-33  -1.8090505794936405e-32  7.5574069876488014e-33  8.9994760747084097e-33  1.2117365916183300e-32  8.3031366590872795e-33  3.1897281100922439e-33  1.2299115495712281e-32  6.6938763691229398e-33  1.5175129436377991e-32  9.8015171727975104e-33  5.9393100147320690e-33  9.1554013906449090e-33  3.3408442030197226e-33  3.4587379144324390e-33  -7.1423536355397779e-35  -2.8098545684624789e-33  -1.2439091817725631e-33  1.2998758809398291e-34  -2.6805670562113237e-33  -6.6556715521474217e-34  -3.0743694551876911e-33  2.0797367298452945e-34  6.7952224455990730e-34  -5.2598330476847780e-34  2.2021490061704874e-33  -1.1555054944457117e-33  -1.9049979804466929e-34  -4.4851285840988518e-34  -1.5047432416462687e-34  -1.2579536601342760e-34  -9.1418993578136111e-34  -1.0772283826726759e-33  -7.1385498731209225e-34  -9.2276128806440098e-34  4.0221619091027803e-34  7.6624370936151060e-34  -1.5526599517645493e-33  1.0248880531630128e-33  8.9322447296970855e-35  2.7006966766046220e-34  -2.9693834710053295e-34  -9.6035061132755369e-35  4.7406146165629247e-34  -3.6252483268756512e-34  5.7000167238185997e-34  -8.8403365251086163e-34  -7.6435687425665535e-34  -1.2368130645731998e-33  2.1140065003425572e-34  5.4897316675529085e-34  -2.1823672792102756e-34  -1.2966802075242106e-34  -3.7034551663100709e-34  -8.2065304448155556e-35  4.9291087667450546e-34  3.0920132876693457e-34  -2.0344068870979609e-32  -9.8248050159530539e-33  -2.2363459393387722e-32  -4.7744825969778147e-32  1.7533749875185731e-33  -1.0378519897389508e-33  7.9002492872308541e-33  3.6533482608431949e-33  3.4917076662802422e-34  -8.1499134189436206e-32  1.9928503448195990e-32  -2.1707121100192417e-32  7.0158840547716961e-32  2.0766471938834911e-32  -1.0682452642937306e-32  -1.6880298700611949e-32  -2.7629100046890407e-32  -2.2023822363084256e-32  -2.0338146076954179e-32  1.6630890778348030e-33  -1.7044325973438213e-32  -8.1541335559954008e-33  -1.5750966235047439e-32  -6.9318093609356731e-33  -1.3656209058976311e-32  -6.4986527749437101e-33  -3.5945899499440887e-33  5.9085046043287850e-33  1.3775837002019385e-32  1.3246686247948916e-32  6.2377960049056141e-33  2.2740480490918560e-33  1.2046821034605449e-32  3.0295294410414501e-33  1.1673109839187345e-32  -1.4095527125307530e-33  8.7678841484988932e-33  5.6286947405255493e-33  -4.7270282387949077e-33  2.2955498403652020e-33  -2.5790425131072729e-33  -3.3382942934144135e-33  -3.0208051214885230e-33  6.4764199939949272e-34  -2.9000994925084269e-33  -2.0257002304469874e-36  -3.8552387101769796e-33  2.5297489729717523e-33  2.5712877655125725e-33  1.6331711979825907e-33  6.3478990067725321e-33  -2.6065655845695709e-34  2.4634912981231615e-33  -5.2588018611393982e-34  -1.7032448345862589e-34  -4.2230253189997878e-35  -2.7777379306547894e-34  -4.6943461672031826e-34  -2.0065675702638973e-33  -1.1149678424288865e-33  -5.7537940293011644e-34  -1.9882283500936130e-34  -1.7456920989234745e-33  -9.0925295586567536e-34  -1.9527657838444823e-33  2.4548970216540460e-35  -2.3599072762561468e-34  -9.7172766135328145e-35  1.2363722864869135e-34  -1.3308161163491125e-34  -1.4524820950662332e-34  -1.2875177220189177e-33  -5.3421192923979023e-34  -9.5081659095392739e-34  -8.0308007195425756e-34  2.0401239293149267e-34  5.4983738723525474e-34  1.3896782259242674e-34  1.3554601843188538e-35  -2.2308172079275318e-35  7.3785744999453762e-35  8.4636702816646879e-36  3.3284825718372428e-34  8.9570568307814655e-34  4.9082359890964223e-34  4.7997393795005306e-34  9.0102445397340949e-34  1.1838513444449995e-35  3.4613173854003802e-34  5.0544590490140716e-35  -2.6714263867130061e-34  5.5848391201119765e-35  5.8771045585402610e-36  -3.6601648136618966e-37  3.8850717052404073e-36  1.7396687948608040e-35  -4.3785579583119896e-35  -1.9978581482108360e-34  -9.7127819800213104e-35  -1.2062312586873766e-34  -1.2512106143486113e-34  -3.3341798440877149e-34  -2.2365782230592190e-36  -2.1560778380106786e-36  -7.7535867547149769e-36  1.3063090485774035e-35  5.0142168361554561e-36  -2.5087093877835814e-36  -3.1155461857812001e-36  -3.6409622578610998e-36  -7.8067590798636845e-36  -1.0935795212624699e-35  5.1340413162803578e-35  9.5762416071770583e-36  5.1834391799608047e-35  1.6617931047625398e-35  8.6649844640559964e-35  -3.2314954173648636e-36  3.4723388635609497e-36  9.3853062503501940e-36  -6.0063910946896600e-36  8.6599169126204526e-36  1.5473715729924890e-36  -1.9196817046200174e-37  -1.2171782940879568e-36  5.1453841951189540e-36  2.7653909275697835e-37  2.5934646007067656e-36  -9.5764538249562088e-36  -2.1918545658677150e-36  -6.5435319034391653e-36  -1.5471538403088083e-36  -1.9072098272893817e-35  -2.1919465409819156e-32  4.1605884174695248e-32  -4.9127122528661261e-33  6.3696178242330815e-33  -1.8344507340160690e-32  8.1818188813405101e-33  2.2621914104486925e-32  -2.0499012368776387e-32  4.5885792088332103e-32  1.8380751897901325e-32  7.5163998927093420e-32  2.0237675770279112e-32  -1.8130083556160398e-33  6.5304758542329956e-33  7.5314049897994060e-33  2.8601212417093239e-33  1.1175657388413693e-33  1.1049801439514455e-32  8.7781951320864142e-33  -7.7126494631059943e-33  9.3028588903289616e-33  1.5656199159968863e-33  6.9687820853645651e-33  1.7239209149903987e-32  2.4766624152067328e-33  -1.8198409516510800e-33  4.3535071250041931e-33  4.0407527255054283e-33  -3.9158741028853379e-33  -2.7906595700555750e-33  -4.9507351828099179e-33  4.3948747225813413e-33  -1.0018516986478429e-32  -6.4772152405529947e-33  -8.2378253112493637e-33  -9.9705118186218594e-33  3.1795823191175618e-33  3.6657576794163318e-33  -1.0017135116496682e-33  -9.1750154745556834e-34  2.6505157484161809e-34  -2.3603509389730051e-33  -1.3731483895842103e-34  -1.9271590128067157e-33  9.0743724414215731e-33  1.9241580125844320e-33  2.1103172520839769e-33  4.8909245986872923e-33  -5.5417491260014008e-34  -4.4122472706279918e-34  4.2028247060117477e-34  5.9797518578009884e-35  4.3543513993745752e-34  1.4237709197230971e-33  2.9348813121456107e-34  8.2866680080976142e-34  -2.9309021012396779e-33  -8.5737682227744625e-34  2.5475410674054962e-34  -3.4251561261418319e-33  -3.9899608444922762e-34  -5.4108388737133767e-34  1.9965293856968265e-34  2.4594816453658618e-35  -1.7722215740718006e-34  -1.6142696851876305e-34  -1.1184877211361488e-34  -4.7340890838507338e-35  2.6027476008701069e-34  5.2647509718262991e-35  -4.5925337231720534e-34  1.2311617302533707e-33  2.6984211707534284e-34  5.8566365941375939e-34  -6.9178888646883312e-35  5.1247084761667167e-36  -2.3224510330174668e-35  -8.4001634333732952e-35  -5.9938256108347913e-35  1.2946972969528828e-35  5.4789894677832339e-34  1.5056320238172222e-34  3.0190573449393317e-34  8.3198072174870642e-35  -1.3862528421254010e-34  -2.3221537988015982e-34  1.1042405233637832e-35  -1.7162821781514716e-35  1.0425508362667384e-35  3.8167737696902425e-35  2.6652907736807942e-35  -4.6338825852630858e-36  -3.6092801843314626e-34  -1.6276889678466982e-34  -1.5414117082945257e-34  -2.5576433308467235e-34  2.7649812944281294e-35  4.6904316596638975e-35  -8.3615659386861425e-36  3.3289969266235634e-37  -3.8535120865294524e-36  -1.3890626513007412e-35  -5.5367068104187419e-36  -2.5169651222659548e-36  1.1740765937519328e-34  5.8738780229801504e-35  3.9803767129995789e-35  1.2331883349577412e-34  -3.2087392282468706e-36  -9.0380226969129161e-36  6.5026224710110338e-36  1.9259845754048505e-36  8.2305727271605480e-37  2.6169185900786465e-37  -2.4135182691591737e-36  -2.0668590323071511e-36  -2.1476072277500644e-35  -1.7277298140079478e-35  -7.8237790396931395e-36  -3.0669990174897022e-35  4.6290069622871781e-33  6.8602749754345783e-33  -4.2385200358097644e-33  2.1709199495946775e-32  2.5265813678755687e-33  -2.2896899942861218e-32  1.7572200788076610e-32  -4.6374948725610139e-32  2.4627059589843961e-32  2.0185440872405971e-32  1.1382178635435659e-32  5.4172549417874762e-32  5.7508064031720874e-32  2.3234466633634512e-32  -3.6444479500238277e-32  -9.2974457468813277e-34  -5.4094215962602008e-34  1.2293083829209236e-32  3.5594693335575998e-33  4.2715315796465883e-33  1.3892553686440353e-33  2.8551825598468777e-33  1.6531129716551471e-32  3.7647294462152245e-33  -1.4293068108107882e-33  -8.6771665245519190e-33  -3.7510499329660721e-32  -4.6692601464514529e-33  -6.9362201270182556e-33  -2.8230668243553513e-33  -3.7132838967540991e-34  -2.0573472901292377e-33  4.7195599132266424e-33  -4.6871537297162454e-33  -1.2968966861366324e-32  -9.0613216390013912e-33  2.8034222551432109e-33  -1.4284320994045874e-33  -1.7361467090662424e-33  1.2887341002871645e-33  -7.6013897193645132e-34  -2.0129159185435837e-33  -2.1475804972983591e-33  -4.5069341384279851e-34  -7.5556565290999491e-34  1.0526154672474138e-33  -1.4225349883643718e-33  5.6883563993846538e-33  3.5790964770943404e-33  3.8489486111093433e-33  7.3690955585938990e-33  -4.9296709811841764e-34  -1.2263194241850742e-34  1.9008213288653109e-33  1.1017273074202525e-33  2.7709236069342302e-34  1.3176817609869313e-33  1.3100767506430905e-35  1.6547373917100529e-33  -4.5733116108521443e-33  -5.5089154881369824e-34  -2.8039702439129661e-35  -3.8841612353367229e-33  -1.2586618510329888e-34  -8.2273128915578359e-34  -5.7639697983093496e-34  -4.5021728596848069e-34  -1.6731899684624235e-34  -4.8050034474066837e-34  -1.6640408890837670e-34  -4.8129667014295459e-34  1.5208671601998860e-33  -1.1697554080320354e-34  -5.7278228184177672e-34  1.1445373401849344e-33  1.5156012592642973e-34  6.1356522749757899e-34  2.7653078855123247e-35  1.0664916773600190e-34  -9.5166154025408158e-37  1.0651050801497038e-34  -8.1613777329347859e-36  3.0564512419708744e-35  -4.0203481614404475e-35  2.0043506656308868e-34  4.1597279619898666e-34  4.8300030796402634e-35  -8.4747629417275562e-35  -1.9109180976882196e-34  5.5347805927521933e-35  1.3755504583341290e-35  9.0661610979582873e-36  2.5404448911650209e-35  2.1384072008210799e-35  5.4842993236568972e-35  -2.1237342210567822e-34  -1.1794760025922521e-34  -1.3740150406455474e-34  -1.4352346541352893e-34  2.7004444548175737e-35  5.0710268314908730e-35  -2.5140568147313748e-35  -1.1797425557305080e-35  -3.7914183994863297e-36  -1.6483819287989371e-35  -6.9395118170486211e-36  -2.3571443319425596e-35  1.0104266897819178e-34  4.7351627677107652e-35  3.5456605333166695e-35  7.5763009236494948e-35  -2.6993989216630089e-36  -9.4546562633888773e-36  1.3384744124177842e-35  8.8601287944248797e-36  -5.7559477924445301e-38  2.3841109041951462e-36  -2.0773075061512183e-36  -9.3339445296391029e-38  -2.4079191032697158e-35  -1.2248798782292764e-35  -6.4341971497856690e-36  -2.1727591379262386e-35  -1.9362922695181923e-33  6.2572257617089364e-32  -4.1299929236214720e-32  -4.9953358602457568e-33  -4.9021896401239378e-32  -3.8602666880993829e-33  2.0303127148320267e-32  -3.9862754917954360e-33  5.8277293310194461e-33  -3.9423022228267371e-32  -3.8901080011364557e-32  4.5654337783937143e-32  -2.7575194503646728e-32  1.4660720220688894e-33  2.0087173547586684e-32  1.2342297138963148e-32  4.1592677417263106e-33  9.6699544700193971e-34  1.0327177414826038e-32  7.9013347395683576e-33  -1.9812225223416501e-33  -1.9863726785961666e-32  -1.0444324638399122e-32  6.1215769223569938e-33  2.1626734269278202e-32  -2.5721796395883488e-33  -1.3582404327422795e-32  8.7725012996116895e-33  4.4329061417714652e-33  8.4402625481646005e-35  5.5376115158359834e-33  -2.4043194452472493e-33  -5.4026108309159412e-33  -1.2979443037681246e-33  -4.6664179791306109e-33  -8.6650766347249003e-33  6.1332897322843385e-33  2.2193512347314204e-33  -1.4865199758052749e-33  -4.8579968098524091e-33  -4.6172526943211769e-33  -1.0321593920150920e-34  -4.0430099156309123e-33  8.6518966731071678e-34  2.5029836925284114e-33  3.1805621721122490e-33  3.0024207363306855e-33  1.6812705952584859e-33  -1.3881315614925683e-33  -1.7133255186033480e-33  -1.6831919802097921e-34  2.7366228911440340e-33  1.5260158998105574e-33  -8.9621539782610248e-35  1.8322963743306425e-33  -7.6088445251439596e-35  9.2637625997005353e-35  -1.3970653646319594e-33  3.7728808531954510e-34  -9.6151982667642149e-34  -1.0876740640976035e-33  -1.4714994666805586e-34  -1.0105905355724462e-33  -8.3045887770409369e-34  -6.9599186920192756e-34  -1.2656992768421100e-35  -4.4205644665560618e-34  -2.0396817171556358e-34  -1.4477048914461393e-34  7.0370746933853667e-34  5.5215826218489841e-34  3.1981401304438364e-35  4.6319594586052000e-34  2.1595643638249258e-34  6.3697985835587658e-34  1.4478508572682660e-34  2.1069028280955676e-34  -2.2183894216064023e-35  9.2960206045168081e-35  1.7427842779728693e-35  8.2066130847010310e-35  3.2674513098817817e-35  1.4110734445649355e-34  4.0164281730943246e-34  4.2482704187067178e-36  -1.0310645646829706e-34  -2.2455840482451609e-34  9.7082669548815476e-36  -2.8772329246351643e-35  1.0593991174691745e-35  -3.4347915938102303e-36  6.9679161042529245e-36  7.1579487109563437e-36  -1.4860622811715431e-34  -1.3961554985342878e-34  -1.6000367897697232e-34  -9.3406878400111132e-35  2.8408854051870494e-35  5.2461190237110849e-35  -1.4603422889311154e-35  -2.7893523913003771e-36  -2.8677809712636225e-36  -6.2014968342183391e-36  -3.8593129424120874e-36  -1.4321372360238179e-35  6.3200299457220546e-35  4.4843390051193737e-35  3.6171513240032958e-35  4.2815790445419629e-35  -3.6326941375386608e-36  -9.1552052696614827e-36  8.8319461783068227e-36  4.8293792891062206e-36  -3.7898679382769258e-37  3.4848111922840201e-36  -1.0887709377550171e-36  -7.9555486384602532e-37  -1.6413791972194520e-35  -8.6891594846683129e-36  -4.8233271822265558e-36  -1.1385290100229901e-35  1.1054086974772475e-32  -4.6849534017214154e-33  -4.9295236279519311e-33  4.7090231115576168e-33  -2.1755167575481020e-32  1.1019224635556884e-32  -2.1959753399189667e-32  -2.5105702821870157e-32  -2.8963120761148828e-33  5.9321078975008914e-32  -1.4871548379190157e-33  8.7988628673364261e-34  9.6837036233328162e-33  -2.9252434718604345e-34  -6.2627094142191311e-33  5.7229794675599966e-33  -7.5880141723253848e-33  3.4698869036663695e-33  3.9658364378306154e-33  -4.4188749255024546e-33  9.2900658482111041e-33  9.2159250987685199e-34  -1.5501271793932075e-33  -2.2460726989364227e-33  3.0138891848547726e-33  -1.4358832372962768e-33  -3.0184093286617429e-34  -5.2407308275663212e-34  -2.8024619222983232e-33  -1.7512133459538698e-34  4.0077575874648824e-34  -2.4737062836555542e-33  2.3995558485823660e-32  7.0555802798221555e-32  1.9885380139599987e-32  2.5999369262976067e-32  9.4559575706601109e-32  7.3841468276496242e-32  -9.2517559967609630e-32  1.4083829920541697e-31  4.8306698154372788e-32  -4.6157547659719498e-32  1.0165003192903527e-33  1.2520337871987867e-33  7.6525585694791870e-33  -5.7184326535893384e-33  -3.9256611717129773e-32  -3.4724164337330620e-32  -1.2657513404718158e-32  -7.1863400534660770e-33  -1.3103316186829871e-33  -8.5776603206436772e-33  -2.0151449779832157e-33  -1.3457600098509004e-33  5.2769742956387149e-33  -5.0656656892704257e-33  6.1079945059112012e-33  2.5289959320103173e-33  5.1735509241601848e-33  6.5825068131836976e-33  1.1095302111618071e-33  2.5851217867975331e-33  -8.7827374611190850e-35  3.7712138755164852e-33  2.7452369227519374e-33  3.1179916077495779e-34  -2.2331158314214769e-33  -3.5000460316939361e-33  -1.0345729486249808e-33  -1.4548719678623879e-33  2.9587730102291652e-34  -2.5025389260103604e-33  -2.6782035500123745e-33  -1.8074438493881484e-34  5.2697291368911305e-35  -1.6594506954715656e-34  -2.5384328446911133e-34  -5.8060698505991450e-34  9.3909578741393652e-34  -2.1187874815090561e-34  2.7200734543399833e-34  9.4108851186259106e-35  1.2062772718961400e-34  1.7530419780249869e-34  -2.8128874919244979e-34  1.9262738866019397e-34  3.3462078399494375e-34  -6.8594485081264718e-35  2.0659139173151611e-34  9.0509321859734223e-35  2.9889852696318540e-34  -5.3060996992242583e-34  -1.3410714408397141e-34  3.9345942306910875e-34  -6.4522867256798577e-35  -2.2456808751988278e-34  -1.7482517520993411e-34  3.0295011287403808e-34  6.9253620550202390e-35  -8.5609448028851982e-36  -9.6920965243676291e-36  -6.7529531939543889e-37  -5.3241298118692859e-36  -9.1247939956691952e-36  -1.4966114980809496e-35  2.0716961315946881e-35  1.6485173618534007e-35  3.3422159466234805e-35  -2.4643319874251972e-35  -5.2641978611831064e-36  -4.8998401776971468e-37  1.1212330897223309e-35  8.9080409386893800e-36  -8.4498189419423163e-36  1.7315254095944103e-36  1.4854644087361065e-32  5.0066149582526568e-32  8.4183448786530723e-32  3.3613206843620374e-32  7.7300620741164172e-32  -1.5023550697510368e-31  -1.2806863877806338e-32  1.3034028616081071e-32  5.1102261072672635e-33  -1.4266342258749364e-32  -1.3114476042741944e-32  -5.6683397351787140e-32  -1.6432875827573277e-32  1.9629314326272916e-32  1.3592177960895324e-33  -9.5895312058211305e-33  -1.8465639352728417e-32  -2.0313108654646740e-33  1.4505163258173384e-33  1.1891001856628254e-32  -6.6333666523737993e-33  -1.9114999046268262e-32  2.2657998549881222e-33  1.2106049681850596e-32  8.5674190238307616e-33  2.2800647121252639e-33  5.4358248642305843e-33  5.9585528542643223e-33  -5.2883492858764029e-33  6.1118969418210412e-33  1.3653237774352903e-33  -4.2360892232610005e-33  -3.1191731835585193e-33  5.9323370115227905e-34  -1.6054692054949700e-33  -6.0662192207278420e-34  3.2501883142678999e-33  3.1459811639003649e-33  -5.9571770055788442e-34  2.3195425861057001e-34  8.9506889117545941e-35  -7.9010104637535347e-35  -3.7079500553053809e-34  6.1961535794291560e-34  -7.3237432791700600e-34  1.5824524035579067e-34  -2.3008330820657833e-34  3.7927613572162252e-34  4.3769293016549458e-34  1.6853339921578661e-34  5.0358473802111979e-34  -3.9526986743169274e-34  -3.5617201101870855e-34  -7.7167915045006078e-34  2.8657313349023095e-34  6.0960232533800698e-35  -3.4784688484706307e-36  -3.1725301880289877e-35  -8.9114640612910178e-35  5