<?xml version="1.0"?>
<VTKFile type="UnstructuredGrid"  version="0.1"  >
<UnstructuredGrid>
<Piece  NumberOfPoints="7584" NumberOfCells="38663">
<Points>
<DataArray  type="Float64"  NumberOfComponents="3"  format="ascii">40 25 25  41.25 25 26.25  41.25 25 25  41.25 23.75 26.25  42.5 25 25  42.5 25 26.25  42.5 25 27.5  40 25 26.25  40 25 27.5  41.25 25 27.5  45 22.5 25  45 23.75 26.25  45 23.75 25  43.75 23.75 26.25  43.75 23.75 25  45 25 25  45 25 26.25  45 25 27.5  45 23.75 27.5  43.75 23.75 27.5  43.75 25 26.25  43.75 25 25  43.75 25 27.5  46.25 23.75 26.25  46.25 23.75 25  46.25 22.5 25  47.5 22.5 25  47.5 23.75 26.25  47.5 23.75 25  47.5 25 25  47.5 25 26.25  47.5 25 27.5  47.5 22.5 27.5  47.5 23.75 27.5  46.25 23.75 27.5  46.25 25 26.25  46.25 25 25  46.25 25 27.5  50 25 25  50 25 26.25  50 23.75 26.25  48.75 23.75 26.25  50 25 27.5  50 22.5 27.5  50 23.75 27.5  48.75 23.75 27.5  48.75 23.75 25  48.75 25 26.25  48.75 25 25  48.75 25 27.5  37.5 25 25  38.75 26.25 26.25  38.75 26.25 25  38.75 25 25  40 26.25 26.25  40 26.25 25  40 27.5 25  40 27.5 26.25  40 27.5 27.5  38.75 25 26.25  40 26.25 27.5  37.5 25 27.5  38.75 26.25 27.5  38.75 25 27.5  37.5 26.25 25  37.5 27.5 25  38.75 27.5 26.25  38.75 27.5 25  37.5 27.5 27.5  38.75 27.5 27.5  37.5 27.5 26.25  41.25 26.25 26.25  41.25 26.25 25  42.5 26.25 26.25  42.5 26.25 25  42.5 27.5 25  42.5 27.5 26.25  42.5 27.5 27.5  42.5 26.25 27.5  41.25 26.25 27.5  41.25 27.5 26.25  41.25 27.5 25  41.25 27.5 27.5  43.75 26.25 26.25  43.75 26.25 25  45 26.25 26.25  45 26.25 25  45 27.5 25  45 27.5 26.25  45 27.5 27.5  45 26.25 27.5  43.75 26.25 27.5  43.75 27.5 26.25  43.75 27.5 25  43.75 27.5 27.5  46.25 26.25 26.25  46.25 26.25 25  47.5 26.25 26.25  47.5 26.25 25  47.5 27.5 25  47.5 27.5 26.25  47.5 27.5 27.5  47.5 26.25 27.5  46.25 26.25 27.5  46.25 27.5 26.25  46.25 27.5 25  46.25 27.5 27.5  48.75 26.25 26.25  48.75 26.25 25  50 26.25 26.25  50 26.25 25  50 27.5 25  50 27.5 26.25  50 27.5 27.5  50 26.25 27.5  48.75 26.25 27.5  48.75 27.5 26.25  48.75 27.5 25  48.75 27.5 27.5  38.75 28.75 26.25  38.75 28.75 25  40 28.75 26.25  40 28.75 25  40 30 25  40 30 26.25  40 30 27.5  40 28.75 27.5  38.75 28.75 27.5  37.5 28.75 25  37.5 30 25  38.75 30 26.25  38.75 30 25  37.5 28.75 26.25  37.5 28.75 27.5  37.5 30 27.5  38.75 30 27.5  37.5 30 26.25  41.25 28.75 26.25  41.25 28.75 25  42.5 28.75 26.25  42.5 28.75 25  42.5 30 25  42.5 30 26.25  42.5 30 27.5  42.5 28.75 27.5  41.25 28.75 27.5  41.25 30 26.25  41.25 30 25  41.25 30 27.5  43.75 28.75 26.25  43.75 28.75 25  45 28.75 26.25  45 28.75 25  45 30 25  45 30 26.25  45 30 27.5  45 28.75 27.5  43.75 28.75 27.5  43.75 30 26.25  43.75 30 25  43.75 30 27.5  46.25 28.75 26.25  46.25 28.75 25  47.5 28.75 26.25  47.5 28.75 25  47.5 30 25  47.5 30 26.25  47.5 30 27.5  47.5 28.75 27.5  46.25 28.75 27.5  46.25 30 26.25  46.25 30 25  46.25 30 27.5  48.75 28.75 26.25  48.75 28.75 25  50 28.75 26.25  50 28.75 25  50 30 25  50 30 26.25  50 30 27.5  50 28.75 27.5  48.75 28.75 27.5  48.75 30 26.25  48.75 30 25  48.75 30 27.5  37.5 31.25 26.25  37.5 31.25 25  36.25 31.25 26.25  36.25 31.25 25  37.5 32.5 25  37.5 32.5 26.25  37.5 32.5 27.5  37.5 31.25 27.5  36.25 31.25 27.5  35 32.5 25  36.25 32.5 26.25  36.25 32.5 25  35 32.5 27.5  36.25 32.5 27.5  35 32.5 26.25  38.75 31.25 26.25  38.75 31.25 25  40 31.25 26.25  40 31.25 25  40 32.5 25  40 32.5 26.25  40 32.5 27.5  40 31.25 27.5  38.75 31.25 27.5  38.75 32.5 26.25  38.75 32.5 25  38.75 32.5 27.5  41.25 31.25 26.25  41.25 31.25 25  42.5 31.25 26.25  42.5 31.25 25  42.5 32.5 25  42.5 32.5 26.25  42.5 32.5 27.5  42.5 31.25 27.5  41.25 31.25 27.5  41.25 32.5 26.25  41.25 32.5 25  41.25 32.5 27.5  43.75 31.25 26.25  43.75 31.25 25  45 31.25 26.25  45 31.25 25  45 32.5 25  45 32.5 26.25  45 32.5 27.5  45 31.25 27.5  43.75 31.25 27.5  43.75 32.5 26.25  43.75 32.5 25  43.75 32.5 27.5  46.25 31.25 26.25  46.25 31.25 25  47.5 31.25 26.25  47.5 31.25 25  47.5 32.5 25  47.5 32.5 26.25  47.5 32.5 27.5  47.5 31.25 27.5  46.25 31.25 27.5  46.25 32.5 26.25  46.25 32.5 25  46.25 32.5 27.5  48.75 31.25 26.25  48.75 31.25 25  50 31.25 26.25  50 31.25 25  50 32.5 25  50 32.5 26.25  50 32.5 27.5  50 31.25 27.5  48.75 31.25 27.5  48.75 32.5 26.25  48.75 32.5 25  48.75 32.5 27.5  36.25 33.75 26.25  36.25 33.75 25  37.5 33.75 26.25  37.5 33.75 25  37.5 35 25  37.5 35 26.25  37.5 35 27.5  37.5 33.75 27.5  36.25 33.75 27.5  35 33.75 25  35 35 25  36.25 35 26.25  36.25 35 25  35 33.75 26.25  35 33.75 27.5  35 35 27.5  36.25 35 27.5  35 35 26.25  38.75 33.75 26.25  38.75 33.75 25  40 33.75 26.25  40 33.75 25  40 35 25  40 35 26.25  40 35 27.5  40 33.75 27.5  38.75 33.75 27.5  38.75 35 26.25  38.75 35 25  38.75 35 27.5  41.25 33.75 26.25  41.25 33.75 25  42.5 33.75 26.25  42.5 33.75 25  42.5 35 25  42.5 35 26.25  42.5 35 27.5  42.5 33.75 27.5  41.25 33.75 27.5  41.25 35 26.25  41.25 35 25  41.25 35 27.5  43.75 33.75 26.25  43.75 33.75 25  45 33.75 26.25  45 33.75 25  45 35 25  45 35 26.25  45 35 27.5  45 33.75 27.5  43.75 33.75 27.5  43.75 35 26.25  43.75 35 25  43.75 35 27.5  46.25 33.75 26.25  46.25 33.75 25  47.5 33.75 26.25  47.5 33.75 25  47.5 35 25  47.5 35 26.25  47.5 35 27.5  47.5 33.75 27.5  46.25 33.75 27.5  46.25 35 26.25  46.25 35 25  46.25 35 27.5  48.75 33.75 26.25  48.75 33.75 25  50 33.75 26.25  50 33.75 25  50 35 25  50 35 26.25  50 35 27.5  50 33.75 27.5  48.75 33.75 27.5  48.75 35 26.25  48.75 35 25  48.75 35 27.5  36.25 36.25 26.25  36.25 36.25 25  37.5 36.25 26.25  37.5 36.25 25  37.5 37.5 25  37.5 37.5 26.25  37.5 37.5 27.5  37.5 36.25 27.5  36.25 36.25 27.5  36.25 37.5 26.25  36.25 37.5 25  36.25 37.5 27.5  38.75 36.25 26.25  38.75 36.25 25  40 36.25 26.25  40 36.25 25  40 37.5 25  40 37.5 26.25  40 37.5 27.5  40 36.25 27.5  38.75 36.25 27.5  38.75 37.5 26.25  38.75 37.5 25  38.75 37.5 27.5  41.25 36.25 26.25  41.25 36.25 25  42.5 36.25 26.25  42.5 36.25 25  42.5 37.5 25  42.5 37.5 26.25  42.5 37.5 27.5  42.5 36.25 27.5  41.25 36.25 27.5  41.25 37.5 26.25  41.25 37.5 25  41.25 37.5 27.5  43.75 36.25 26.25  43.75 36.25 25  45 36.25 26.25  45 36.25 25  45 37.5 25  45 37.5 26.25  45 37.5 27.5  45 36.25 27.5  43.75 36.25 27.5  43.75 37.5 26.25  43.75 37.5 25  43.75 37.5 27.5  46.25 36.25 26.25  46.25 36.25 25  47.5 36.25 26.25  47.5 36.25 25  47.5 37.5 25  47.5 37.5 26.25  47.5 37.5 27.5  47.5 36.25 27.5  46.25 36.25 27.5  46.25 37.5 26.25  46.25 37.5 25  46.25 37.5 27.5  48.75 36.25 26.25  48.75 36.25 25  50 36.25 26.25  50 36.25 25  50 37.5 25  50 37.5 26.25  50 37.5 27.5  50 36.25 27.5  48.75 36.25 27.5  48.75 37.5 26.25  48.75 37.5 25  48.75 37.5 27.5  37.5 38.75 26.25  37.5 38.75 25  36.25 38.75 26.25  36.25 38.75 25  37.5 40 25  37.5 40 26.25  37.5 40 27.5  37.5 38.75 27.5  36.25 38.75 27.5  36.25 40 26.25  36.25 40 25  35 40 27.5  36.25 40 27.5  38.75 38.75 26.25  38.75 38.75 25  40 38.75 26.25  40 38.75 25  40 40 25  40 40 26.25  40 40 27.5  40 38.75 27.5  38.75 38.75 27.5  38.75 40 26.25  38.75 40 25  38.75 40 27.5  41.25 38.75 26.25  41.25 38.75 25  42.5 38.75 26.25  42.5 38.75 25  42.5 40 25  42.5 40 26.25  42.5 40 27.5  42.5 38.75 27.5  41.25 38.75 27.5  41.25 40 26.25  41.25 40 25  41.25 40 27.5  43.75 38.75 26.25  43.75 38.75 25  45 38.75 26.25  45 38.75 25  45 40 25  45 40 26.25  45 40 27.5  45 38.75 27.5  43.75 38.75 27.5  43.75 40 26.25  43.75 40 25  43.75 40 27.5  46.25 38.75 26.25  46.25 38.75 25  47.5 38.75 26.25  47.5 38.75 25  47.5 40 25  47.5 40 26.25  47.5 40 27.5  47.5 38.75 27.5  46.25 38.75 27.5  46.25 40 26.25  46.25 40 25  46.25 40 27.5  48.75 38.75 26.25  48.75 38.75 25  50 38.75 26.25  50 38.75 25  50 40 25  50 40 26.25  50 40 27.5  50 38.75 27.5  48.75 38.75 27.5  48.75 40 26.25  48.75 40 25  48.75 40 27.5  37.5 41.25 26.25  37.5 41.25 25  36.25 41.25 26.25  36.25 41.25 25  37.5 42.5 25  37.5 42.5 26.25  37.5 42.5 27.5  37.5 41.25 27.5  36.25 41.25 27.5  36.25 42.5 26.25  36.25 42.5 25  36.25 42.5 27.5  38.75 41.25 26.25  38.75 41.25 25  40 41.25 26.25  40 41.25 25  40 42.5 25  40 42.5 26.25  40 42.5 27.5  40 41.25 27.5  38.75 41.25 27.5  38.75 42.5 26.25  38.75 42.5 25  38.75 42.5 27.5  41.25 41.25 26.25  41.25 41.25 25  42.5 41.25 26.25  42.5 41.25 25  42.5 42.5 25  42.5 42.5 26.25  42.5 42.5 27.5  42.5 41.25 27.5  41.25 41.25 27.5  41.25 42.5 26.25  41.25 42.5 25  41.25 42.5 27.5  43.75 41.25 26.25  43.75 41.25 25  45 41.25 26.25  45 41.25 25  45 42.5 25  45 42.5 26.25  45 42.5 27.5  45 41.25 27.5  43.75 41.25 27.5  43.75 42.5 26.25  43.75 42.5 25  43.75 42.5 27.5  46.25 41.25 26.25  46.25 41.25 25  47.5 41.25 26.25  47.5 41.25 25  47.5 42.5 25  47.5 42.5 26.25  47.5 42.5 27.5  47.5 41.25 27.5  46.25 41.25 27.5  46.25 42.5 26.25  46.25 42.5 25  46.25 42.5 27.5  48.75 41.25 26.25  48.75 41.25 25  50 41.25 26.25  50 41.25 25  50 42.5 25  50 42.5 26.25  50 42.5 27.5  50 41.25 27.5  48.75 41.25 27.5  48.75 42.5 26.25  48.75 42.5 25  48.75 42.5 27.5  37.5 43.75 26.25  37.5 43.75 25  36.25 43.75 26.25  36.25 43.75 25  37.5 45 25  37.5 45 26.25  37.5 45 27.5  37.5 43.75 27.5  36.25 43.75 27.5  36.25 45 26.25  36.25 45 25  35 45 27.5  36.25 45 27.5  38.75 43.75 26.25  38.75 43.75 25  40 43.75 26.25  40 43.75 25  40 45 25  40 45 26.25  40 45 27.5  40 43.75 27.5  38.75 43.75 27.5  38.75 45 26.25  38.75 45 25  38.75 45 27.5  41.25 43.75 26.25  41.25 43.75 25  42.5 43.75 26.25  42.5 43.75 25  42.5 45 25  42.5 45 26.25  42.5 45 27.5  42.5 43.75 27.5  41.25 43.75 27.5  41.25 45 26.25  41.25 45 25  41.25 45 27.5  43.75 43.75 26.25  43.75 43.75 25  45 43.75 26.25  45 43.75 25  45 45 25  45 45 26.25  45 45 27.5  45 43.75 27.5  43.75 43.75 27.5  43.75 45 26.25  43.75 45 25  43.75 45 27.5  46.25 43.75 26.25  46.25 43.75 25  47.5 43.75 26.25  47.5 43.75 25  47.5 45 25  47.5 45 26.25  47.5 45 27.5  47.5 43.75 27.5  46.25 43.75 27.5  46.25 45 26.25  46.25 45 25  46.25 45 27.5  48.75 43.75 26.25  48.75 43.75 25  50 43.75 26.25  50 43.75 25  50 45 25  50 45 26.25  50 45 27.5  50 43.75 27.5  48.75 43.75 27.5  48.75 45 26.25  48.75 45 25  48.75 45 27.5  37.5 46.25 26.25  37.5 46.25 25  36.25 
[...]
<PointData  Scalars="p_CO2"> 
<DataArray  type="Float64"  Name="p_CO2"  format="ascii">4.5000698143279976e+01  4.5000671338540585e+01  4.5000673761164563e+01  4.5000670130191288e+01  4.5000651296339903e+01  4.5000648830592681e+01  4.5000643977338910e+01  4.5000695515636629e+01  4.5000690422659687e+01  4.5000666246926841e+01  4.5000605256144624e+01  4.5000608799527349e+01  4.5000609917916201e+01  4.5000627065318398e+01  4.5000628245671805e+01  4.5000612221314434e+01  4.5000609917914048e+01  4.5000605256140915e+01  4.5000602978627697e+01  4.5000621136447776e+01  4.5000628245670470e+01  4.5000630612801956e+01  4.5000623479565064e+01  4.5000593114287099e+01  4.5000594300102655e+01  4.5000589858759746e+01  4.5000577437080032e+01  4.5000581067459756e+01  4.5000581995960594e+01  4.5000584139151087e+01  4.5000581995958697e+01  4.5000577437077375e+01  4.5000570812261294e+01  4.5000575318302523e+01  4.5000587504767424e+01  4.5000594300101390e+01  4.5000596678956995e+01  4.5000589858756875e+01  4.5000572867973077e+01  4.5000570857968498e+01  4.5000570139811330e+01  4.5000572556402773e+01  4.5000566273246989e+01  4.5000559754742845e+01  4.5000564286366725e+01  4.5000567213797567e+01  4.5000573814968604e+01  4.5000573814967780e+01  4.5000576335382803e+01  4.5000569707557965e+01  4.5000750958294844e+01  4.5000719922390125e+01  4.5000721175899194e+01  4.5000723688583797e+01  4.5000694125942793e+01  4.5000695515637737e+01  4.5000690422660476e+01  4.5000687823519982e+01  4.5000682788523306e+01  4.5000721175899415e+01  4.5000687823520408e+01  4.5000742820087360e+01  4.5000713272258132e+01  4.5000715761982505e+01  4.5000748172445284e+01  4.5000742820087368e+01  4.5000713272258295e+01  4.5000715761982654e+01  4.5000734771700294e+01  4.5000707923545200e+01  4.5000740063745717e+01  4.5000670130190393e+01  4.5000671338541700e+01  4.5000647564135242e+01  4.5000648830593789e+01  4.5000643977340950e+01  4.5000641538862617e+01  4.5000636741329586e+01  4.5000641538862588e+01  4.5000663847807189e+01  4.5000663847807132e+01  4.5000666246928162e+01  4.5000658817401678e+01  4.5000627065317538e+01  4.5000628245670619e+01  4.5000608799526177e+01  4.5000609917914659e+01  4.5000605256141590e+01  4.5000602978626304e+01  4.5000598370712332e+01  4.5000602978626411e+01  4.5000621136446917e+01  4.5000621136447059e+01  4.5000623479566556e+01  4.5000616427629090e+01  4.5000593114286353e+01  4.5000594300101902e+01  4.5000581067459677e+01  4.5000581995960339e+01  4.5000577437078974e+01  4.5000575318301912e+01  4.5000570812257870e+01  4.5000575318301763e+01  4.5000587504765896e+01  4.5000587504766223e+01  4.5000589858757522e+01  4.5000583116934372e+01  4.5000572556402304e+01  4.5000573814967723e+01  4.5000570139809362e+01  4.5000570857967624e+01  4.5000566273246243e+01  4.5000564286365375e+01  4.5000559754741097e+01  4.5000564286365822e+01  4.5000567213797254e+01  4.5000567213797169e+01  4.5000569707558441e+01  4.5000563156273145e+01  4.5000704116769839e+01  4.5000705340226396e+01  4.5000678744688230e+01  4.5000680094666293e+01  4.5000667311985239e+01  4.5000664798280340e+01  4.5000659936489761e+01  4.5000672575232237e+01  4.5000697612728686e+01  4.5000731906571957e+01  4.5000718424376963e+01  4.5000689598517354e+01  4.5000692018539816e+01  4.5000730453252942e+01  4.5000723977310557e+01  4.5000710644897900e+01  4.5000684443906323e+01  4.5000715756631344e+01  4.5000655156069769e+01  4.5000656335555391e+01  4.5000632988095028e+01  4.5000634219244780e+01  4.5000622093891707e+01  4.5000619737041767e+01  4.5000615105859978e+01  4.5000627093155863e+01  4.5000649013974829e+01  4.5000641439499503e+01  4.5000643767582716e+01  4.5000636591283310e+01  4.5000612858541103e+01  4.5000614010806025e+01  4.5000594930330422e+01  4.5000596017854321e+01  4.5000584448928805e+01  4.5000582248808712e+01  4.5000577801616757e+01  4.5000589237684672e+01  4.5000607063842779e+01  4.5000599890763162e+01  4.5000602161540925e+01  4.5000595352442744e+01  4.5000579538787456e+01  4.5000580696556341e+01  4.5000567720865320e+01  4.5000568623293461e+01  4.5000557427906919e+01  4.5000555382058550e+01  4.5000551033649870e+01  4.5000562099760053e+01  4.5000574057576507e+01  4.5000567212191640e+01  4.5000569491439158e+01  4.5000562983587571e+01  4.5000559372556744e+01  4.5000560601728978e+01  4.5000557002392583e+01  4.5000557699048109e+01  4.5000546589247293e+01  4.5000544671389264e+01  4.5000540298179871e+01  4.5000551279516607e+01  4.5000554153178008e+01  4.5000547509613277e+01  4.5000549923316569e+01  4.5000543600434632e+01  4.5000698055688765e+01  4.5000699422865715e+01  4.5000725165719558e+01  4.5000726377455464e+01  4.5000677860254676e+01  4.5000675340277176e+01  4.5000670526826873e+01  4.5000691851288622e+01  4.5000718604993601e+01  4.5000731681456379e+01  4.5000701558691006e+01  4.5000703969249933e+01  4.5000723969412846e+01  4.5000696446957079e+01  4.5000729019188938e+01  4.5000672585200519e+01  4.5000673749238700e+01  4.5000648090164482e+01  4.5000649362832313e+01  4.5000628989365602e+01  4.5000626617704071e+01  4.5000622042025249e+01  4.5000642187080665e+01  4.5000666372588093e+01  4.5000650294256744e+01  4.5000652595593131e+01  4.5000645458081429e+01  4.5000625339639029e+01  4.5000626462042895e+01  4.5000603987098991e+01  4.5000605149416458e+01  4.5000585885003034e+01  4.5000583663513240e+01  4.5000579306795835e+01  4.5000598352576617e+01  4.5000619476905285e+01  4.5000604326371487e+01  4.5000606534489989e+01  4.5000599777017854e+01  4.5000584611983236e+01  4.5000585708685975e+01  4.5000567371306502e+01  4.5000568398635536e+01  4.5000550078310617e+01  4.5000548006250781e+01  4.5000543824001952e+01  4.5000561934428362e+01  4.5000579084085601e+01  4.5000564770261782e+01  4.5000566919624383e+01  4.5000560511572694e+01  4.5000552576972545e+01  4.5000553679231579e+01  4.5000541223681694e+01  4.5000542075356194e+01  4.5000524413430107e+01  4.5000522488026675e+01  4.5000518399357482e+01  4.5000535857650533e+01  4.5000547350610425e+01  4.5000533714530427e+01  4.5000535868845041e+01  4.5000529746955380e+01  4.5000533205469367e+01  4.5000534376390029e+01  4.5000530929421146e+01  4.5000531584457867e+01  4.5000514125998620e+01  4.5000512321982988e+01  4.5000508209824808e+01  4.5000525466591789e+01  4.5000528230623409e+01  4.5000515010097892e+01  4.5000517290194509e+01  4.5000511343840998e+01  4.5000675327723840e+01  4.5000676448045645e+01  4.5000649636411360e+01  4.5000650880494817e+01  4.5000621378884674e+01  4.5000619065529150e+01  4.5000614664466482e+01  4.5000643841882869e+01  4.5000669218919370e+01  4.5000703095393433e+01  4.5000671794327928e+01  4.5000643566315112e+01  4.5000645807458866e+01  4.5000701782491447e+01  4.5000695689133345e+01  4.5000664725245862e+01  4.5000638916366434e+01  4.5000669345859585e+01  4.5000625542212688e+01  4.5000626618843910e+01  4.5000602426213867e+01  4.5000603588022912e+01  4.5000575828949508e+01  4.5000573655036426e+01  4.5000569474140548e+01  4.5000596923139724e+01  4.5000619764349004e+01  4.5000595680616222e+01  4.5000597811309405e+01  4.5000591279539272e+01  4.5000580985900157e+01  4.5000582024305196e+01  4.5000560899004761e+01  4.5000561962355825e+01  4.5000535806397735e+01  4.5000533772674650e+01  4.5000529794056057e+01  4.5000555653960326e+01  4.5000575538782755e+01  4.5000552929053711e+01  4.5000554966605350e+01  4.5000548788059319e+01  4.5000542690374651e+01  4.5000543705276243e+01  4.5000526507791356e+01  4.5000527448492846e+01  4.5000502651216493e+01  4.5000500756271641e+01  4.5000496938569562e+01  4.5000521452279365e+01  4.5000537558523668e+01  4.5000516259852375e+01  4.5000518238016618e+01  4.5000512383179512e+01  4.5000512630371254e+01  4.5000513650829305e+01  4.5000501988556955e+01  4.5000502767404299e+01  4.5000478929439836e+01  4.5000477170195822e+01  4.5000473438700254e+01  4.5000497002182470e+01  4.5000507781635612e+01  4.5000487535325192e+01  4.5000489514457890e+01  4.5000483924154906e+01  4.5000494475235527e+01  4.5000495560138404e+01  4.5000492343016383e+01  4.5000492938892293e+01  4.5000469429297837e+01  4.5000467782044311e+01  4.5000464028913044e+01  4.5000487267159158e+01  4.5000489862225443e+01  4.5000470257823316e+01  4.5000472350980218e+01  4.5000466922744195e+01  4.5000609228705535e+01  4.5000610230590397e+01  4.5000585574520855e+01  4.5000586665288168e+01  4.5000549528810929e+01  4.5000547479609587e+01  4.5000543598735838e+01  4.5000580329142593e+01  4.5000603718917326e+01  4.5000569612409876e+01  4.5000571626184460e+01  4.5000565536363169e+01  4.5000563437628927e+01  4.5000564400938494e+01  4.5000542259134988e+01  4.5000543282091989e+01  4.5000508500909305e+01  4.5000506578504265e+01  4.5000502894461619e+01  4.5000537288517513e+01  4.5000558233637918e+01  4.5000526375773354e+01  4.5000528281245117e+01  4.5000522515707999e+01  4.5000522647426308e+01  4.5000523576868446e+01  4.5000504312204590e+01  4.5000505251087404e+01  4.5000472603360521e+01  4.5000470807443605e+01  4.5000467303789662e+01  4.5000499582927361e+01  4.5000517747049692e+01  4.5000487960667485e+01  4.5000489775963679e+01  4.5000484327569495e+01  4.5000487710762464e+01  4.5000488619476883e+01  4.5000472978014592e+01  4.5000473809591199e+01  4.5000442955908589e+01  4.5000441284495302e+01  4.5000437924098513e+01  4.5000468425598726e+01  4.5000483098447042e+01  4.5000455129125150e+01  4.5000456886343059e+01  4.5000451727557341e+01  4.5000460353464398e+01  4.5000461267602653e+01  4.5000450680750866e+01  4.5000451368196757e+01  4.5000421785896862e+01  4.5000420235734609e+01  4.5000416951980888e+01  4.5000446194092966e+01  4.5000455998989040e+01  4.5000429474712881e+01  4.5000431229217703e+01  4.5000426306539026e+01  4.5000443854204619e+01  4.5000444827012231e+01  4.5000441917431829e+01  4.5000442439999254e+01  4.5000413315993292e+01  4.5000411865573213e+01  4.5000408562583253e+01  4.5000437350768678e+01  4.5000439713957384e+01  4.5000414066423723e+01  4.5000415920479725e+01  4.5000411142257548e+01  4.5000506621309604e+01  4.5000507536386358e+01  4.5000527545618723e+01  4.5000528405002797e+01  4.5000463308195421e+01  4.5000461577640372e+01  4.5000458315400266e+01  4.5000502062319505e+01  4.5000522775590760e+01  4.5000480637207566e+01  4.5000482362741060e+01  4.5000497464214185e+01  4.5000477232287622e+01  4.5000487082683897e+01  4.5000487909499697e+01  4.5000468445187437e+01  4.5000469307732047e+01  4.5000428080605616e+01  4.5000426459946340e+01  4.5000423365406654e+01  4.5000464135250411e+01  4.5000482584148386e+01  4.5000443422777451e+01  4.5000445047564590e+01  4.5000440196043513e+01  4.5000451215631834e+01  4.5000452013720412e+01  4.5000435142971860e+01  4.5000435937223514e+01  4.5000397387894850e+01  4.5000395876022537e+01  4.5000392934811714e+01  4.5000431049995491e+01  4.5000446984812413e+01  4.5000410517728888e+01  4.5000412059650913e+01  4.5000407479544407e+01  4.5000420607902825e+01  4.5000421388495390e+01  4.5000407728644404e+01  4.5000408433117883e+01  4.5000372116224085e+01  4.5000370710825024e+01  4.5000367891176261e+01  4.5000403794252499e+01  4.5000416629854051e+01  4.5000382496232739e+01  4.5000383984371162e+01  4.5000379651239534e+01  4.5000396701124494e+01  4.5000397486799187e+01  4.5000388259670565e+01  4.5000388841103174e+01  4.5000354106518877e+01  4.5000352804394204e+01  4.5000350049696706e+01  4.5000384385341292e+01  4.5000392948554477e+01  4.5000360654741456e+01  4.5000362137517783e+01  4.5000358005262321e+01  4.5000382304445154e+01  4.5000383141405784e+01  4.5000380615371590e+01  4.5000381054221357e+01  4.5000346908059434e+01  4.5000345690616363e+01  4.5000342919611988e+01  4.5000376672434733e+01  4.5000378738803143e+01  4.5000347555681280e+01  4.5000349121274951e+01  4.5000345111757191e+01  4.5000414047839534e+01  4.5000414772786421e+01  4.5000431513049008e+01  4.5000432209474539e+01  4.5000364298630956e+01  4.5000362935808305e+01  4.5000360377802821e+01  4.5000410305172714e+01  4.5000427612166128e+01  4.5000378211715358e+01  4.5000379588904558e+01  4.5000375557701034e+01  4.5000397773840334e+01  4.5000398444334792e+01  4.5000382294135761e+01  4.5000382981223879e+01  4.5000336139577790e+01  4.5000334865339291e+01  4.5000332440417566e+01  4.5000378764155755e+01  4.5000394100324115e+01  4.5000348398865320e+01  4.5000349689776357e+01  4.5000345881859069e+01  4.5000368006861805e+01  4.5000368654357679e+01  4.5000354706851205e+01  4.5000355341744786e+01  4.5000311699069627e+01  4.5000310511914989e+01  4.5000308208422432e+01  4.5000351360701302e+01  4.5000364556107144e+01  4.5000322153525843e+01  4.5000323374233517e+01  4.5000319782604166e+01  4.5000342693164804e+01  4.5000343326717257e+01  4.5000332063513923e+01  4.5000332627497443e+01  4.5000291630654523e+01  4.5000290528298549e+01  4.5000288320938992e+01  4.5000328851384765e+01  4.5000339451769499e+01  4.5000299875860797e+01  4.5000301050755134e+01  4.5000297655319805e+01  4.5000322969040013e+01  4.5000323607054831e+01  4.5000316013273277e+01  4.5000316478025759e+01  4.5000277354512264e+01  4.5000276334109223e+01  4.5000274178052166e+01  4.5000312852731213e+01  4.5000319913795366e+01  4.5000282550311134e+01  4.5000283718759050e+01  4.5000280482562239e+01  4.5000311108006997e+01  4.5000311788349961e+01  4.5000309717108770e+01  4.5000310065391659e+01  4.5000271653322294e+01  4.5000270699925785e+01  4.5000268530980456e+01  4.5000306500977636e+01  4.5000308206764913e+01  4.5000272173209687e+01  4.5000273405975094e+01  4.5000270266958189e+01  4.5000309754831882e+01  4.5000310282089060e+01  4.5000323058209197e+01  4.5000323575315285e+01  4.5000254741808646e+01  4.5000253787598851e+01  4.5000252002997613e+01  4.5000306943877504e+01  4.5000320138314812e+01  4.5000264634364960e+01  4.5000265609238603e+01  4.5000274378581977e+01  4.5000262792044353e+01  4.5000297381379092e+01  4.5000297879562659e+01  4.5000285640248578e+01  4.5000286142614740e+01  4.5000234789989221e+01  4.5000233898968631e+01  4.5000232208088327e+01  4.5000282994454572e+01  4.5000294635145750e+01  4.5000243473432519e+01  4.5000244383829745e+01  4.5000241724999235e+01  4.5000274818490787e+01  4.5000275299791966e+01  4.5000264762546955e+01  4.5000265228279545e+01  4.5000217525743828e+01  4.5000216696500900e+01  4.5000215091003199e+01  4.5000262258546961e+01  4.5000272241467862e+01  4.5000224909965546e+01  4.5000225768336584e+01  4.5000223262363136e+01  4.5000255688172338e+01  4.5000256159276951e+01  4.5000247669095216e+01  4.5000248083401480e+01  4.5000203380745340e+01  4.5000202611417301e+01  4.5000201073440259e+01  4.5000245268229904e+01  4.5000253269560275e+01  4.5000209193587409e+01  4.5000210017886339e+01  4.5000207650227317e+01  4.5000240812549805e+01  4.5000241287194015e+01  4.5000235572177246e+01  4.5000235913103396e+01  4.5000193332264580e+01  4.5000192620677339e+01  4.5000191118693948e+01  4.5000233211512729e+01  4.5000238534402506e+01  4.5000196992312560e+01  4.5000197810825931e+01  4.5000195555243877e+01  4.5000231877778070e+01  4.5000232384355904e+01  4.5000230830436777e+01  4.5000231084249194e+01  4.5000189321935714e+01  4.5000188657465067e+01  4.5000187146412586e+01  4.5000228428475303e+01  4.5000229715634070e+01  4.5000189691622978e+01  4.5000190554680835e+01  4.5000188367434930e+01  4.5000196307974051e+01  4.5000196635107663e+01  4.5000204851705845e+01  4.5000205177674566e+01  4.5000137528145032e+01  4.5000137012033044e+01  4.5000136050645075e+01  4.5000194521488496e+01  4.5000203000624580e+01  4.5000149832809996e+01  4.5000142925976512e+01  4.5000143457398877e+01  4.5000148269005244e+01  4.5000141937167228e+01  4.5000149281642052e+01  4.5000188371756103e+01  4.5000188685957049e+01  4.5000180854842995e+01  4.5000181167860944e+01  4.5000126662181557e+01  4.5000126180709792e+01  4.5000125270064622e+01  4.5000179175908656e+01  4.5000186632401174e+01  4.5000131388517374e+01  4.5000131883497396e+01  4.5000130449546141e+01  4.5000173933184485e+01  4.5000174236828158e+01  4.5000167510017668e+01  4.5000167800957875e+01  4.5000117278250350e+01  4.5000116830551548e+01  4.5000115966064435e+01  4.5000165922954181e+01  4.5000172302254825e+01  4.5000121290316372e+01  4.5000121756007665e+01  4.5000120405150035e+01  4.5000161717661726e+01  4.5000162014929245e+01  4.5000156603582802e+01  4.5000156862656361e+01  4.5000109599769260e+01  4.5000109184789260e+01  4.5000108356719110e+01  4.5000155083197612e+01  4.5000160187940956e+01  4.5000112754781419e+01  4.5000113201165583e+01  4.5000111925384665e+01  4.5000152232573214e+01  4.5000152532134962e+01  4.5000148893475952e+01  4.5000149106331996e+01  4.5000104148306072e+01  4.5000103764882731e+01  4.5000102956086579e+01  4.5000147399220836e+01  4.5000150792402351e+01  4.5000106134801712e+01  4.5000106577372541e+01  4.5000105362375535e+01  4.5000146539742069e+01  4.5000146859629432e+01  4.5000145872515795e+01  4.5000146029983966e+01  4.5000101972127105e+01  4.5000101614526343e+01  4.5000100800546818e+01  4.5000144352049176e+01  4.5000145173436067e+01  4.5000102174740078e+01  4.5000102641070271e+01  4.5000101463130328e+01  4.5000083780791307e+01  4.5000083913214212e+01  4.5000087569302956e+01  4.5000087701339240e+01  4.5000017545760237e+01  4.5000017476539504e+01  4.5000017363032221e+01  4.5000083037555761e+01  4.5000018212322843e+01  4.5000080241256576e+01  4.5000080369114762e+01  4.5000076876612802e+01  4.5000077006849416e+01  4.5000016098803997e+01  4.5000016034273742e+01  4.5000015926143249e+01  4.5000076179636714e+01  4.5000079516946826e+01  4.5000016688655613e+01  4.5000016748781313e+01  4.5000016571364199e+01  4.5000073742510402e+01  4.5000073865677606e+01  4.5000070787122404e+01  4.5000070911648614e+01  4.5000014820707449e+01  4.5000014761439964e+01  4.5000014658030302e+01  4.5000070132330855e+01  4.5000073062165455e+01  4.5000015337161528e+01  4.5000015392694110e+01  4.5000015225380992e+01  4.5000068057495483e+01  4.5000068176369211e+01  4.5000065534951688e+01  4.5000065650335344e+01  4.5000013715131871e+01  4.5000013661993947e+01  4.5000013561833647e+01  4.5000064915831850e+01  4.5000067419668994e+01  4.5000014154572000e+01  4.5000014206124867e+01  4.5000014048544365e+01  4.5000063252548195e+01  4.5000063368643403e+01  4.5000061245135917e+01  4.5000061347078571e+01  4.5000012806225030e+01  4.5000012760741257e+01  4.5000012661088810e+01  4.5000060651320133e+01  4.5000062654239684e+01  4.5000013154562623e+01  4.5000013202860472e+01  4.5000013054085265e+01  4.5000059522833205e+01  4.5000059639343732e+01  4.5000058211539724e+01  4.5000058293629074e+01  4.5000012151965535e+01  4.5000012116782877e+01  4.5000012012919861e+01  4.5000057626339995e+01  4.5000058959239311e+01  4.5000012377429812e+01  4.5000012423497623e+01  4.5000012281876828e+01  4.5000057282397741e+01  4.5000057406296982e+01  4.5000057020538030e+01  4.5000057078349634e+01  4.5000011877513764e+01  4.5000011853671566e+01  4.5000011741068597e+01  4.5000056422582695e+01  4.5000056747263450e+01  4.5000011907600630e+01  4.5000011955031866e+01  4.5000011817823832e+01  4.5000596017853134e+01  4.5000594930331140e+01  4.5000612858541110e+01  4.5000584448927199e+01  4.5000614010803723e+01  4.5000634219241348e+01  4.5000622093886726e+01  4.5000602161537579e+01  4.5000567720866592e+01  4.5000579538789474e+01  4.5000568623292864e+01  4.5000557427906664e+01  4.5000580696556462e+01  4.5000569491438796e+01  4.5000557002393400e+01  4.5000559372557312e+01  4.5000557699049260e+01  4.5000546589248238e+01  4.5000551279517971e+01  4.5000540298181413e+01  4.5000544671389896e+01  4.5000547509613675e+01  4.5000560601729326e+01  4.5000549923316782e+01  4.5000704116768652e+01  4.5000678744688145e+01  4.5000672575231569e+01  4.5000659936488510e+01  4.5000680094665455e+01  4.5000667311983506e+01  4.5000664798279445e+01  4.5000718424374405e+01  4.5000689598515450e+01  4.5000692018538068e+01  4.5000697612727826e+01  4.5000715756629369e+01  4.5000710644896223e+01  4.5000684443904575e+01  4.5000723977309725e+01  4.5000655156069456e+01  4.5000632988093827e+01  4.5000627093154925e+01  4.5000615105858373e+01  4.5000656335553501e+01  4.5000619737039194e+01  4.500064143949823