<?xml version="1.0"?>
<VTKFile type="UnstructuredGrid"  version="0.1"  >
<UnstructuredGrid>
<Piece  NumberOfPoints="14309" NumberOfCells="74946">
<Points>
<DataArray  type="Float64"  NumberOfComponents="3"  format="ascii">7.5 0 0  8.75 1.25 1.25  8.75 1.25 0  8.75 0 0  10 0 0  10 1.25 1.25  10 1.25 0  10 2.5 0  10 2.5 1.25  10 2.5 2.5  8.75 0 1.25  10 0 1.25  10 0 2.5  10 1.25 2.5  7.5 1.25 0  7.5 2.5 0  8.75 2.5 1.25  8.75 2.5 0  11.25 1.25 1.25  11.25 1.25 0  11.25 0 0  12.5 0 0  12.5 1.25 1.25  12.5 1.25 0  12.5 2.5 0  12.5 2.5 1.25  12.5 2.5 2.5  11.25 0 1.25  12.5 0 1.25  12.5 0 2.5  12.5 1.25 2.5  11.25 1.25 2.5  11.25 0 2.5  11.25 2.5 1.25  11.25 2.5 0  11.25 2.5 2.5  13.75 1.25 1.25  13.75 1.25 0  13.75 0 0  15 0 0  15 1.25 1.25  15 1.25 0  15 2.5 0  15 2.5 1.25  15 2.5 2.5  13.75 0 1.25  15 0 1.25  15 0 2.5  15 1.25 2.5  13.75 1.25 2.5  13.75 0 2.5  13.75 2.5 1.25  13.75 2.5 0  13.75 2.5 2.5  16.25 1.25 1.25  16.25 1.25 0  16.25 0 0  17.5 0 0  17.5 1.25 1.25  17.5 1.25 0  17.5 2.5 0  17.5 2.5 1.25  17.5 2.5 2.5  16.25 0 1.25  17.5 0 1.25  17.5 0 2.5  17.5 1.25 2.5  16.25 1.25 2.5  16.25 0 2.5  16.25 2.5 1.25  16.25 2.5 0  16.25 2.5 2.5  18.75 1.25 1.25  18.75 0 1.25  18.75 1.25 2.5  18.75 0 2.5  18.75 1.25 0  18.75 2.5 1.25  18.75 2.5 0  18.75 2.5 2.5  20 2.5 2.5  8.75 3.75 1.25  8.75 3.75 0  10 3.75 1.25  10 3.75 0  10 5 0  10 5 1.25  10 5 2.5  10 3.75 2.5  7.5 3.75 0  7.5 5 0  8.75 5 1.25  8.75 5 0  11.25 3.75 1.25  11.25 3.75 0  12.5 3.75 1.25  12.5 3.75 0  12.5 5 0  12.5 5 1.25  12.5 5 2.5  12.5 3.75 2.5  11.25 3.75 2.5  11.25 5 1.25  11.25 5 0  11.25 5 2.5  13.75 3.75 1.25  13.75 3.75 0  15 3.75 1.25  15 3.75 0  15 5 0  15 5 1.25  15 5 2.5  15 3.75 2.5  13.75 3.75 2.5  13.75 5 1.25  13.75 5 0  13.75 5 2.5  16.25 3.75 1.25  16.25 3.75 0  17.5 3.75 1.25  17.5 3.75 0  17.5 5 0  17.5 5 1.25  17.5 5 2.5  17.5 3.75 2.5  16.25 3.75 2.5  16.25 5 1.25  16.25 5 0  16.25 5 2.5  18.75 3.75 1.25  18.75 3.75 0  18.75 3.75 2.5  18.75 5 1.25  18.75 5 0  20 5 0  18.75 5 2.5  20 5 2.5  8.75 6.25 1.25  8.75 6.25 0  10 6.25 1.25  10 6.25 0  10 7.5 0  10 7.5 1.25  10 7.5 2.5  10 6.25 2.5  7.5 6.25 0  7.5 7.5 0  8.75 7.5 1.25  8.75 7.5 0  11.25 6.25 1.25  11.25 6.25 0  12.5 6.25 1.25  12.5 6.25 0  12.5 7.5 0  12.5 7.5 1.25  12.5 7.5 2.5  12.5 6.25 2.5  11.25 6.25 2.5  11.25 7.5 1.25  11.25 7.5 0  11.25 7.5 2.5  13.75 6.25 1.25  13.75 6.25 0  15 6.25 1.25  15 6.25 0  15 7.5 0  15 7.5 1.25  15 7.5 2.5  15 6.25 2.5  13.75 6.25 2.5  13.75 7.5 1.25  13.75 7.5 0  13.75 7.5 2.5  16.25 6.25 1.25  16.25 6.25 0  17.5 6.25 1.25  17.5 6.25 0  17.5 7.5 0  17.5 7.5 1.25  17.5 7.5 2.5  17.5 6.25 2.5  16.25 6.25 2.5  16.25 7.5 1.25  16.25 7.5 0  16.25 7.5 2.5  18.75 6.25 1.25  18.75 6.25 0  20 6.25 0  20 7.5 0  18.75 6.25 2.5  20 6.25 2.5  20 7.5 2.5  18.75 7.5 1.25  18.75 7.5 0  20 7.5 1.25  18.75 7.5 2.5  8.75 8.75 1.25  8.75 8.75 0  10 8.75 1.25  10 8.75 0  10 10 0  10 10 1.25  10 10 2.5  10 8.75 2.5  11.25 8.75 1.25  11.25 8.75 0  12.5 8.75 1.25  12.5 8.75 0  12.5 10 0  12.5 10 1.25  12.5 10 2.5  12.5 8.75 2.5  11.25 8.75 2.5  11.25 10 1.25  11.25 10 0  11.25 10 2.5  13.75 8.75 1.25  13.75 8.75 0  15 8.75 1.25  15 8.75 0  15 10 0  15 10 1.25  15 10 2.5  15 8.75 2.5  13.75 8.75 2.5  13.75 10 1.25  13.75 10 0  13.75 10 2.5  16.25 8.75 1.25  16.25 8.75 0  17.5 8.75 1.25  17.5 8.75 0  17.5 10 0  17.5 10 1.25  17.5 10 2.5  17.5 8.75 2.5  16.25 8.75 2.5  16.25 10 1.25  16.25 10 0  16.25 10 2.5  18.75 8.75 1.25  18.75 8.75 0  20 8.75 1.25  20 8.75 0  20 10 0  20 10 1.25  20 10 2.5  20 8.75 2.5  18.75 8.75 2.5  18.75 10 1.25  18.75 10 0  18.75 10 2.5  21.25 8.75 1.25  21.25 8.75 0  21.25 10 1.25  21.25 10 0  22.5 10 0  11.25 11.25 1.25  11.25 11.25 0  12.5 11.25 1.25  12.5 11.25 0  12.5 12.5 0  12.5 12.5 1.25  12.5 12.5 2.5  12.5 11.25 2.5  11.25 11.25 2.5  10 11.25 0  10 12.5 0  11.25 12.5 1.25  11.25 12.5 0  10 11.25 1.25  10 11.25 2.5  10 12.5 2.5  11.25 12.5 2.5  10 12.5 1.25  13.75 11.25 1.25  13.75 11.25 0  15 11.25 1.25  15 11.25 0  15 12.5 0  15 12.5 1.25  15 12.5 2.5  15 11.25 2.5  13.75 11.25 2.5  13.75 12.5 1.25  13.75 12.5 0  13.75 12.5 2.5  16.25 11.25 1.25  16.25 11.25 0  17.5 11.25 1.25  17.5 11.25 0  17.5 12.5 0  17.5 12.5 1.25  17.5 12.5 2.5  17.5 11.25 2.5  16.25 11.25 2.5  16.25 12.5 1.25  16.25 12.5 0  16.25 12.5 2.5  18.75 11.25 1.25  18.75 11.25 0  20 11.25 1.25  20 11.25 0  20 12.5 0  20 12.5 1.25  20 12.5 2.5  20 11.25 2.5  18.75 11.25 2.5  18.75 12.5 1.25  18.75 12.5 0  18.75 12.5 2.5  21.25 11.25 1.25  21.25 11.25 0  21.25 12.5 1.25  21.25 12.5 0  21.25 11.25 2.5  21.25 12.5 2.5  11.25 13.75 1.25  11.25 13.75 0  12.5 13.75 1.25  12.5 13.75 0  12.5 15 0  12.5 15 1.25  12.5 15 2.5  12.5 13.75 2.5  11.25 13.75 2.5  13.75 13.75 1.25  13.75 13.75 0  15 13.75 1.25  15 13.75 0  15 15 0  15 15 1.25  15 15 2.5  15 13.75 2.5  13.75 13.75 2.5  13.75 15 1.25  13.75 15 0  13.75 15 2.5  16.25 13.75 1.25  16.25 13.75 0  17.5 13.75 1.25  17.5 13.75 0  17.5 15 0  17.5 15 1.25  17.5 15 2.5  17.5 13.75 2.5  16.25 13.75 2.5  16.25 15 1.25  16.25 15 0  16.25 15 2.5  18.75 13.75 1.25  18.75 13.75 0  20 13.75 1.25  20 13.75 0  20 15 0  20 15 1.25  20 15 2.5  20 13.75 2.5  18.75 13.75 2.5  18.75 15 1.25  18.75 15 0  18.75 15 2.5  21.25 13.75 1.25  21.25 13.75 0  21.25 13.75 2.5  21.25 15 1.25  21.25 15 0  13.75 16.25 1.25  13.75 16.25 0  15 16.25 1.25  15 16.25 0  15 17.5 0  15 17.5 1.25  15 17.5 2.5  15 16.25 2.5  13.75 16.25 2.5  16.25 16.25 1.25  16.25 16.25 0  17.5 16.25 1.25  17.5 16.25 0  17.5 17.5 0  17.5 17.5 1.25  17.5 17.5 2.5  17.5 16.25 2.5  16.25 16.25 2.5  16.25 17.5 1.25  16.25 17.5 0  16.25 17.5 2.5  18.75 16.25 1.25  18.75 16.25 0  20 16.25 1.25  20 16.25 0  20 17.5 0  20 17.5 1.25  20 17.5 2.5  20 16.25 2.5  18.75 16.25 2.5  18.75 17.5 1.25  18.75 17.5 0  18.75 17.5 2.5  21.25 16.25 1.25  21.25 16.25 0  16.25 18.75 1.25  16.25 18.75 0  17.5 18.75 1.25  17.5 18.75 0  17.5 20 0  17.5 20 1.25  17.5 20 2.5  17.5 18.75 2.5  16.25 18.75 2.5  18.75 18.75 1.25  18.75 18.75 0  18.75 18.75 2.5  18.75 20 1.25  18.75 20 0  20 20 0  20 20 1.25  20 20 2.5  18.75 20 2.5  18.75 21.25 1.25  18.75 21.25 0  20 21.25 1.25  20 21.25 0  20 22.5 0  20 22.5 1.25  20 22.5 2.5  20 21.25 2.5  18.75 21.25 2.5  21.25 21.25 1.25  21.25 21.25 0  21.25 22.5 1.25  21.25 22.5 0  22.5 22.5 0  21.25 23.75 1.25  21.25 23.75 0  20 23.75 0  20 25 0  21.25 25 1.25  21.25 25 0  22.5 25 0  21.25 26.25 1.25  21.25 26.25 0  22.5 26.25 0  22.5 27.5 0  20 26.25 0  20 27.5 0  21.25 27.5 1.25  21.25 27.5 0  21.25 28.75 1.25  21.25 28.75 0  11.25 1.25 3.75  12.5 1.25 3.75  12.5 2.5 3.75  12.5 2.5 5  11.25 0 3.75  12.5 0 3.75  12.5 0 5  12.5 1.25 5  10 0 3.75  10 0 5  11.25 1.25 5  11.25 0 5  11.25 2.5 3.75  13.75 1.25 3.75  15 1.25 3.75  15 2.5 3.75  15 2.5 5  13.75 0 3.75  15 0 3.75  15 0 5  15 1.25 5  13.75 1.25 5  13.75 0 5  13.75 2.5 3.75  13.75 2.5 5  16.25 1.25 3.75  17.5 1.25 3.75  17.5 2.5 3.75  17.5 2.5 5  16.25 0 3.75  17.5 0 3.75  17.5 0 5  17.5 1.25 5  16.25 1.25 5  16.25 0 5  16.25 2.5 3.75  16.25 2.5 5  18.75 1.25 3.75  18.75 0 3.75  18.75 1.25 5  18.75 0 5  20 0 5  20 1.25 5  20 2.5 5  18.75 2.5 3.75  20 2.5 3.75  18.75 2.5 5  11.25 3.75 3.75  12.5 3.75 3.75  12.5 5 3.75  12.5 5 5  12.5 3.75 5  11.25 5 3.75  13.75 3.75 3.75  15 3.75 3.75  15 5 3.75  15 5 5  15 3.75 5  13.75 3.75 5  13.75 5 3.75  13.75 5 5  16.25 3.75 3.75  17.5 3.75 3.75  17.5 5 3.75  17.5 5 5  17.5 3.75 5  16.25 3.75 5  16.25 5 3.75  16.25 5 5  18.75 3.75 3.75  18.75 3.75 5  20 3.75 5  20 5 5  18.75 5 3.75  20 5 3.75  18.75 5 5  11.25 6.25 3.75  12.5 6.25 3.75  12.5 7.5 3.75  12.5 7.5 5  12.5 6.25 5  10 5 3.75  10 5 5  11.25 6.25 5  11.25 5 5  11.25 7.5 3.75  10 6.25 3.75  10 6.25 5  10 7.5 5  11.25 7.5 5  10 7.5 3.75  13.75 6.25 3.75  15 6.25 3.75  15 7.5 3.75  15 7.5 5  15 6.25 5  13.75 6.25 5  13.75 7.5 3.75  13.75 7.5 5  16.25 6.25 3.75  17.5 6.25 3.75  17.5 7.5 3.75  17.5 7.5 5  17.5 6.25 5  16.25 6.25 5  16.25 7.5 3.75  16.25 7.5 5  18.75 6.25 3.75  20 6.25 3.75  20 7.5 3.75  20 7.5 5  20 6.25 5  18.75 6.25 5  18.75 7.5 3.75  18.75 7.5 5  21.25 6.25 3.75  11.25 8.75 3.75  12.5 8.75 3.75  12.5 10 3.75  12.5 10 5  12.5 8.75 5  11.25 8.75 5  11.25 10 3.75  13.75 8.75 3.75  15 8.75 3.75  15 10 3.75  15 10 5  15 8.75 5  13.75 8.75 5  13.75 10 3.75  13.75 10 5  16.25 8.75 3.75  17.5 8.75 3.75  17.5 10 3.75  17.5 10 5  17.5 8.75 5  16.25 8.75 5  16.25 10 3.75  16.25 10 5  18.75 8.75 3.75  18.75 8.75 5  20 8.75 5  20 10 5  18.75 10 3.75  20 10 3.75  18.75 10 5  11.25 11.25 3.75  12.5 11.25 3.75  12.5 12.5 3.75  12.5 12.5 5  12.5 11.25 5  11.25 12.5 3.75  13.75 11.25 3.75  15 11.25 3.75  15 12.5 3.75  15 12.5 5  15 11.25 5  13.75 11.25 5  13.75 12.5 3.75  13.75 12.5 5  16.25 11.25 3.75  17.5 11.25 3.75  17.5 12.5 3.75  17.5 12.5 5  17.5 11.25 5  16.25 11.25 5  16.25 12.5 3.75  16.25 12.5 5  18.75 11.25 3.75  20 11.25 3.75  20 12.5 3.75  20 12.5 5  20 11.25 5  18.75 11.25 5  18.75 12.5 3.75  18.75 12.5 5  21.25 11.25 3.75  21.25 12.5 3.75  21.25 11.25 5  11.25 13.75 3.75  12.5 13.75 3.75  12.5 15 3.75  12.5 15 5  12.5 13.75 5  13.75 13.75 3.75  15 13.75 3.75  15 15 3.75  15 15 5  15 13.75 5  13.75 13.75 5  13.75 15 3.75  13.75 15 5  16.25 13.75 3.75  17.5 13.75 3.75  17.5 15 3.75  17.5 15 5  17.5 13.75 5  16.25 13.75 5  16.25 15 3.75  16.25 15 5  18.75 13.75 3.75  20 13.75 3.75  20 15 3.75  20 15 5  20 13.75 5  18.75 13.75 5  18.75 15 3.75  18.75 15 5  21.25 13.75 3.75  21.25 13.75 5  13.75 16.25 3.75  15 16.25 3.75  15 17.5 3.75  15 17.5 5  15 16.25 5  13.75 16.25 5  16.25 16.25 3.75  17.5 16.25 3.75  17.5 17.5 3.75  17.5 17.5 5  17.5 16.25 5  16.25 16.25 5  16.25 17.5 3.75  16.25 17.5 5  18.75 16.25 3.75  18.75 16.25 5  18.75 17.5 3.75  18.75 17.5 5  16.25 18.75 3.75  17.5 18.75 3.75  17.5 20 3.75  17.5 20 5  17.5 18.75 5  16.25 18.75 5  18.75 18.75 3.75  18.75 18.75 5  18.75 20 3.75  18.75 20 5  20 20 5  18.75 21.25 3.75  18.75 21.25 5  11.25 1.25 6.25  12.5 1.25 6.25  12.5 2.5 6.25  12.5 2.5 7.5  11.25 0 6.25  12.5 0 6.25  12.5 0 7.5  12.5 1.25 7.5  13.75 1.25 6.25  15 1.25 6.25  15
[...]
<PointData  Scalars="p_CO2"> 
<DataArray  type="Float64"  Name="p_CO2"  format="ascii">4.4999995628722907e+01  4.5000063912163320e+01  4.5000014421881829e+01  4.5000000395755677e+01  4.4999998290581722e+01  4.5000051434416285e+01  4.5000010330705543e+01  4.5000018396208695e+01  4.5000087725262453e+01  4.5000153403716425e+01  4.5000014421881311e+01  4.5000010330705010e+01  4.5000018396207253e+01  4.5000087725260919e+01  4.5000015229878862e+01  4.5000026216502334e+01  4.5000107158752584e+01  4.5000022742957746e+01  4.5000043176371413e+01  4.5000009431666093e+01  4.5000000122721332e+01  4.4999998907123235e+01  4.5000036899941172e+01  4.5000007478462628e+01  4.5000013498363629e+01  4.5000064123738902e+01  4.5000113057374008e+01  4.5000009431666015e+01  4.5000007478462393e+01  4.5000013498363572e+01  4.5000064123738646e+01  4.5000074487332725e+01  4.5000015663000049e+01  4.5000074487332803e+01  4.5000015662999999e+01  4.5000130996845151e+01  4.5000032208789179e+01  4.5000006997725976e+01  4.5000000075022243e+01  4.4999999173209162e+01  4.5000028408975695e+01  4.5000005760508493e+01  4.5000010465773073e+01  4.5000049808902730e+01  4.5000088205883067e+01  4.5000006997725635e+01  4.5000005760508657e+01  4.5000010465772732e+01  4.5000049808902403e+01  4.5000056198672937e+01  4.5000011776490759e+01  4.5000056198673143e+01  4.5000011776491121e+01  4.5000099410235478e+01  4.5000025442158552e+01  4.5000005522945131e+01  4.5000000057656656e+01  4.4999999334273276e+01  4.5000022896286829e+01  4.5000004639956089e+01  4.5000008461214655e+01  4.5000040347909660e+01  4.5000071641348363e+01  4.5000005522944790e+01  4.5000004639956636e+01  4.5000008461214456e+01  4.5000040347909234e+01  4.5000044651354742e+01  4.5000009339773221e+01  4.5000044651354735e+01  4.5000009339773094e+01  4.5000079216349846e+01  4.5000020869927674e+01  4.5000004529770941e+01  4.5000036757723734e+01  4.5000007679816306e+01  4.5000004529770642e+01  4.5000036757723798e+01  4.5000007679816626e+01  4.5000065329842343e+01  4.5000059897690448e+01  4.5000146929865643e+01  4.5000031047590859e+01  4.5000122203393531e+01  4.5000025511330563e+01  4.5000031373594084e+01  4.5000148816239061e+01  4.5000260553669143e+01  4.5000209955421361e+01  4.5000036804468294e+01  4.5000043232943895e+01  4.5000177122961887e+01  4.5000037412795230e+01  4.5000103892215620e+01  4.5000021652139708e+01  4.5000090148383975e+01  4.5000018870778078e+01  4.5000023673567512e+01  4.5000112144720759e+01  4.5000197816984112e+01  4.5000157065576097e+01  4.5000180288521747e+01  4.5000128512741377e+01  4.5000026986707255e+01  4.5000226021466389e+01  4.5000079123624232e+01  4.5000016460536763e+01  4.5000070449991100e+01  4.5000014740931910e+01  4.5000018694585314e+01  4.5000088723892965e+01  4.5000157150828258e+01  4.5000123667923170e+01  4.5000138600824265e+01  4.5000099286064895e+01  4.5000020799197664e+01  4.5000175630678307e+01  4.5000063218552526e+01  4.5000013150610201e+01  4.5000057293714640e+01  4.5000011979836287e+01  4.5000015295298603e+01  4.5000072718897648e+01  4.5000129129540092e+01  4.5000101033349772e+01  4.5000111328179962e+01  4.5000080033761961e+01  4.5000016742496214e+01  4.5000142010061580e+01  4.5000052229872814e+01  4.5000010865688438e+01  4.5000092287728457e+01  4.5000066512112738e+01  4.5000013900588044e+01  4.5000012849635311e+01  4.5000118242115981e+01  4.5000108813088723e+01  4.5000203966067311e+01  4.5000042850690555e+01  4.5000173906638253e+01  4.5000036359159360e+01  4.5000040240014847e+01  4.5000191080658610e+01  4.5000334946662647e+01  4.5000300325807515e+01  4.5000049952935591e+01  4.5000053136770646e+01  4.5000222535991263e+01  4.5000046858807849e+01  4.5000150745922973e+01  4.5000031369328916e+01  4.5000132718165410e+01  4.5000027788888048e+01  4.5000031351543100e+01  4.5000148719383205e+01  4.5000262485727738e+01  4.5000231827840857e+01  4.5000262144302937e+01  4.5000168061817845e+01  4.5000035232994001e+01  4.5000295453180527e+01  4.5000117906732605e+01  4.5000024512348801e+01  4.5000105951311042e+01  4.5000022171003209e+01  4.5000025312280357e+01  4.5000120254413829e+01  4.5000213066267250e+01  4.5000186251423784e+01  4.5000206752077673e+01  4.5000133316117918e+01  4.5000027900232588e+01  4.5000235730928807e+01  4.5000095825235078e+01  4.5000019923723194e+01  4.5000087381912699e+01  4.5000018272661485e+01  4.5000021029864463e+01  4.5000100055133061e+01  4.5000177704635696e+01  4.5000154224571105e+01  4.5000168851083110e+01  4.5000109406121794e+01  4.5000022872369058e+01  4.5000194069927574e+01  4.5000080083320888e+01  4.5000016653137493e+01  4.5000015431072882e+01  4.5000017860366654e+01  4.5000141559634514e+01  4.5000130667108550e+01  4.5000151340012337e+01  4.5000092066532005e+01  4.5000019233054850e+01  4.5000085073560172e+01  4.5000163637836181e+01  4.5000239298858347e+01  4.5000050170084151e+01  4.5000208072082934e+01  4.5000043508455242e+01  4.5000045896639151e+01  4.5000218237092533e+01  4.5000382900651672e+01  4.5000360617416142e+01  4.5000183481726680e+01  4.5000038161218818e+01  4.5000163771003784e+01  4.5000034282725174e+01  4.5000036751498364e+01  4.5000174571896721e+01  4.5000308275798794e+01  4.5000286691661529e+01  4.5000319583738921e+01  4.5000194870831450e+01  4.5000040803350792e+01  4.5000342516044427e+01  4.5000147279707221e+01  4.5000030612274770e+01  4.5000133639027077e+01  4.5000027958021334e+01  4.5000030298851023e+01  4.5000144098666098e+01  4.5000255392617738e+01  4.5000235245691016e+01  4.5000258496803404e+01  4.5000158301614661e+01  4.5000033100590102e+01  4.5000279830700912e+01  4.5000121920247310e+01  4.5000025345954377e+01  4.5000111958991987e+01  4.5000023407331398e+01  4.5000025569446535e+01  4.5000121751525583e+01  4.5000216280353101e+01  4.5000197779278075e+01  4.5000214955066184e+01  4.5000132230147635e+01  4.5000027626851917e+01  4.5000234496523227e+01  4.5000103252804557e+01  4.5000021469121087e+01  4.5000095685880062e+01  4.5000019994792424e+01  4.5000021971674393e+01  4.5000104720505803e+01  4.5000186313417473e+01  4.5000169441782958e+01  4.5000182582998221e+01  4.5000112752548759e+01  4.5000023543870164e+01  4.5000200363661953e+01  4.5000088983339516e+01  4.5000018504374182e+01  4.5000097678737831e+01  4.5000020387410885e+01  4.5000019148218499e+01  4.5000205082329771e+01  4.5000042642058382e+01  4.5000185124250727e+01  4.5000038740227794e+01  4.5000040376129192e+01  4.5000192003689314e+01  4.5000339200324539e+01  4.5000324598488511e+01  4.5000357633498048e+01  4.5000047987970468e+01  4.5000049385891415e+01  4.5000212273709067e+01  4.5000044410597461e+01  4.5000229539120916e+01  4.5000398744252436e+01  4.5000412734060305e+01  4.5000373099175512e+01  4.5000235087591001e+01  4.5000168226938584e+01  4.5000034961224927e+01  4.5000153993717049e+01  4.5000032207208697e+01  4.5000033870660353e+01  4.5000161236732815e+01  4.5000285844602118e+01  4.5000271387218575e+01  4.5000295491528945e+01  4.5000175749896243e+01  4.5000036724756903e+01  4.5000310629816127e+01  4.5000141627778198e+01  4.5000029439847296e+01  4.5000130942080197e+01  4.5000027369852710e+01  4.5000028985913922e+01  4.5000138122724685e+01  4.5000245405960591e+01  4.5000231502406649e+01  4.5000249831622646e+01  4.5000149080817160e+01  4.5000031131291188e+01  4.5000264334693760e+01  4.5000121510387089e+01  4.5000025263259381e+01  4.5000113196317983e+01  4.5000023649487233e+01  4.5000025184442762e+01  4.5000120104037066e+01  4.5000213708376890e+01  4.5000200567260130e+01  4.5000214945489994e+01  4.5000128683791758e+01  4.5000026859610813e+01  4.5000228637241307e+01  4.5000105770272320e+01  4.5000021993797510e+01  4.5000112558934376e+01  4.5000023485820272e+01  4.5000187468635318e+01  4.5000200269174641e+01  4.5000218894227686e+01  4.5000045506798067e+01  4.5000199274538275e+01  4.5000041688368583e+01  4.5000042736343708e+01  4.5000203398528150e+01  4.5000359441951240e+01  4.5000349803348854e+01  4.5000382042437117e+01  4.5000182558877064e+01  4.5000037936087310e+01  4.5000168317495991e+01  4.5000035193328060e+01  4.5000036331074362e+01  4.5000173078830578e+01  4.5000306904857133e+01  4.5000296889376450e+01  4.5000320859798201e+01  4.5000187500675011e+01  4.5000039161808473e+01  4.5000331383508303e+01  4.5000155849869266e+01  4.5000032393541140e+01  4.5000144944503802e+01  4.5000030289834697e+01  4.5000031448025211e+01  4.5000149949780280e+01  4.5000266459425227e+01  4.5000256429842359e+01  4.5000275039875383e+01  4.5000161008995185e+01  4.5000033608704989e+01  4.5000285457509683e+01  4.5000135244664342e+01  4.5000028116781415e+01  4.5000126593940486e+01  4.5000026443734924e+01  4.5000027584058451e+01  4.5000131616175970e+01  4.5000234217103966e+01  4.5000224420336743e+01  4.5000239316954385e+01  4.5000140416565706e+01  4.5000029298829318e+01  4.5000249456119256e+01  4.5000118811685461e+01  4.5000024704146973e+01  4.5000210632462782e+01  4.5000123864868371e+01  4.5000025837870183e+01  4.5000192044547873e+01  4.5000039904663808e+01  4.5000178029416546e+01  4.5000037215254096e+01  4.5000037961936805e+01  4.5000180948741480e+01  4.5000320911009126e+01  4.5000314214915392e+01  4.5000337681334990e+01  4.5000165705251433e+01  4.5000034439946319e+01  4.5000154839700258e+01  4.5000032351253516e+01  4.5000033143655912e+01  4.5000158112366641e+01  4.5000280996995834e+01  4.5000274074835403e+01  4.5000292532025419e+01  4.5000169098079915e+01  4.5000035287068343e+01  4.5000299785701301e+01  4.5000145123509128e+01  4.5000030168892081e+01  4.5000136383014919e+01  4.5000028483844488e+01  4.5000029289211582e+01  4.5000139810750511e+01  4.5000248820651620e+01  4.5000241872280313e+01  4.5000256864330495e+01  4.5000148650389086e+01  4.5000031009096219e+01  4.5000264066261487e+01  4.5000128476368900e+01  4.5000026712387985e+01  4.5000172205143983e+01  4.5000035789397025e+01  4.5000161472536064e+01  4.5000033731781954e+01  4.5000034235614962e+01  4.5000163377892058e+01  4.5000290378578200e+01  4.5000285916903245e+01  4.5000304081300143e+01  4.5000151843351432e+01  4.5000031564579899e+01  4.5000268810349503e+01  4.5000154032713148e+01  4.5000032126329138e+01  4.5000030415135612e+01  4.5000145229267837e+01  4.5000258479659728e+01  4.5000273617498955e+01  4.5000155986195729e+01  4.5000032424938318e+01  4.5000147333581097e+01  4.5000030763956566e+01  4.5000031052727508e+01  4.5000148300713654e+01  4.5000263955850670e+01  4.5000261420796456e+01  4.5000276179732360e+01  4.5000139457507181e+01  4.5000028993771451e+01  4.5000140591172766e+01  4.5000029313625134e+01  4.5000027891371928e+01  4.5000141496677550e+01  4.5000029417363905e+01  4.5000031182281973e+01  4.5000031258847230e+01  4.5000141602802820e+01  4.5000029523674080e+01  4.5000028102670662e+01  4.5000141496678523e+01  4.5000029417364530e+01  4.5000028022406497e+01  4.5000027891372454e+01  4.5000031182281546e+01  4.5000031052726321e+01  4.5000140591174457e+01  4.5000029313625191e+01  4.5000139457508681e+01  4.5000028993771402e+01  4.5000103892217318e+01  4.5000090148385482e+01  4.5000157065578016e+01  4.5000197816985249e+01  4.5000021652140319e+01  4.5000018870778391e+01  4.5000023673567696e+01  4.5000112144721285e+01  4.5000025511329532e+01  4.5000031373592819e+01  4.5000128512741917e+01  4.5000026986707859e+01  4.5000180288523232e+01  4.5000079123624886e+01  4.5000070449992066e+01  4.5000123667925372e+01  4.5000157150831321e+01  4.5000016460536855e+01  4.5000014740931888e+01  4.5000018694585648e+01  4.5000088723894422e+01  4.5000099286065264e+01  4.5000020799197692e+01  4.5000138600825260e+01  4.5000175630679458e+01  4.5000063218554097e+01  4.5000057293716402e+01  4.5000101033352458e+01  4.5000129129543240e+01  4.5000013150610989e+01  4.5000011979836508e+01  4.5000015295298823e+01  4.5000072718899709e+01  4.5000080033764220e+01  4.5000016742496477e+01  4.5000111328182221e+01  4.5000142010064351e+01  4.5000052229874164e+01  4.5000010865688665e+01  4.5000066512114380e+01  4.5000013900587923e+01  4.5000012849634871e+01  4.5000061174848092e+01  4.5000108813091501e+01  4.5000092287730389e+01  4.5000084804982109e+01  4.5000118242119463e+01  4.5000251796386301e+01  4.5000220708049845e+01  4.5000275207027492e+01  4.5000346966320791e+01  4.5000275207026938e+01  4.5000312185982075e+01  4.5000195304966276e+01  4.5000174885235232e+01  4.5000220502329732e+01  4.5000280355948277e+01  4.5000220502330563e+01  4.5000245337804451e+01  4.5000245337804728e+01  4.5000310882970098e+01  4.5000157723422838e+01  4.5000143452967862e+01  4.5000182190669662e+01  4.5000232929065433e+01  4.5000182190669825e+01  4.5000199797201965e+01  4.5000199797201695e+01  4.5000254855773271e+01  4.5000131206867586e+01  4.5000167150524405e+01  4.5000154106098556e+01  4.5000197771526878e+01  4.5000167150523673e+01  4.5000154106097717e+01  4.5000214154893300e+01  4.5000366582058341e+01  4.5000325684545757e+01  4.5000365728863777e+01  4.5000461621656420e+01  4.5000407254220548e+01  4.5000357552500446e+01  4.5000444660499021e+01  4.5000455561203232e+01  4.5000391426814836e+01  4.5000409456629782e+01  4.5000417439553956e+01  4.5000513911736199e+01  4.5000574282603800e+01  4.5000513540687002e+01  4.5000460827266970e+01  4.5000291529367068e+01  4.5000263342703441e+01  4.5000299227647233e+01  4.5000380702591428e+01  4.5000332573632079e+01  4.5000366684538854e+01  4.5000329951540358e+01  4.5000418133813724e+01  4.5000239307082609e+01  4.5000218950273535e+01  4.5000250865451498e+01  4.5000320856703532e+01  4.5000278351172973e+01  4.5000303373721387e+01  4.5000273378559690e+01  4.5000348714197855e+01  4.5000201302917340e+01  4.5000186013960359e+01  4.5000214411728003e+01  4.5000275232836245e+01  4.5000237576627278e+01  4.5000256570243486e+01  4.5000231506783692e+01  4.5000296601249104e+01  4.5000172576081482e+01  4.5000447423668099e+01  4.5000402740816938e+01  4.5000430098947497e+01  4.5000543440790885e+01  4.5000504905365290e+01  4.5000557185566933e+01  4.5000475902732504e+01  4.5000364731989769e+01  4.5000332579998513e+01  4.5000358979268363e+01  4.5000457024034638e+01  4.5000420707846438e+01  4.5000459355048868e+01  4.5000392358980108e+01  4.5000497315149154e+01  4.5000304767072834e+01  4.5000280752370251e+01  4.5000305496356120e+01  4.5000390892684734e+01  4.5000357308228793e+01  4.5000386678237284e+01  4.5000330713828916e+01  4.5000421875428749e+01  4.5000259701329007e+01  4.5000331180886022e+01  4.5000308270953603e+01  4.5000339058268764e+01  4.5000283693031378e+01  4.5000264061716095e+01  4.5000363462006192e+01  4.5000501158635075e+01  4.5000456041723979e+01  4.5000473738947392e+01  4.5000599091978579e+01  4.5000572881306425e+01  4.5000519326721275e+01  4.5000417173374451e+01  4.5000383669008428e+01  4.5000402078370470e+01  4.5000512189203981e+01  4.5000486028946078e+01  4.5000525998798643e+01  4.5000436128539320e+01  4.5000552935023656e+01  4.5000354346160357e+01  4.5000328601583327e+01  4.5000346815626642e+01  4.5000443933769319e+01  4.5000418628291278e+01  4.5000449932485289e+01  4.5000373162731691e+01  4.5000476079186946e+01  4.5000305805215206e+01  4.5000285470317884e+01  4.5000302999265955e+01  4.5000389155963781e+01  4.5000365132616011e+01  4.5000390183541974e+01  4.5000323959007318e+01  4.5000415064782246e+01  4.5000267287771067e+01  4.5000284504284487e+01  4.5000342224865399e+01  4.5000535727899631e+01  4.5000491542532060e+01  4.5000502396042450e+01  4.5000635738000732e+01  4.5000618377522912e+01  4.5000453199297425e+01  4.5000419743398176e+01  4.5000431953117555e+01  4.5000550498960401e+01  4.5000532323898533e+01  4.5000571941147101e+01  4.5000465716057342e+01  4.5000590601742907e+01  4.5000390222999464e+01  4.5000363977900555e+01  4.5000376731287105e+01  4.5000482384064640e+01  4.5000464089483444e+01  4.5000495815366982e+01  4.5000403288395326e+01  4.5000514583069062e+01  4.5000340551186135e+01  4.5000319405127001e+01  4.5000332182364915e+01  4.5000426734818632e+01  4.5000408796820594e+01  4.5000434725089811e+01  4.5000353665942207e+01  4.5000453152307443e+01  4.5000300357295437e+01  4.5000384699237067e+01  4.5000477124160518e+01  4.5000444273874322e+01  4.5000451858913102e+01  4.5000576064659946e+01  4.5000563895105820e+01  4.5000602541611663e+01  4.5000415143629368e+01  4.5000389028786330e+01  4.5000397416738082e+01  4.5000508999459512e+01  4.5000496355063945e+01  4.5000527753942137e+01  4.5000423762401816e+01  4.5000540777364584e+01  4.5000365585352284e+01  4.5000466865709747e+01  4.5000374545870429e+01  4.5000479936536145e+01  4.5000431611229907e+01  4.5000405848845979e+01  4.5000410780241964e+01  4.5000526208479066e+01  4.5000518057075439e+01  4.5000548895567270e+01  4.5000382638041799e+01  4.5000488787020750e+01  4.5000388211543871e+01  4.5000497475316571e+01  4.5000471294391453e+01  4.5000393162188686e+01  4.5000502328809986e+01  4.5000150745922532e+01  4.5000132718165332e+01  4.5000231827842256e+01  4.5000262485729579e+01  4.5000031369329143e+01  4.5000027788887728e+01  4.5000031351542184e+01  4.5000148719383148e+01  4.5000117906732577e+01  4.5000105951312236e+01  4.5000186251426598e+01  4.5000213066271009e+01  4.5000024512349292e+01  4.5000022171003366e+01  4.5000025312280208e+01  4.5000120254415414e+01  4.5000133316118351e+01  4.5000027900232183e+01  4.5000206752078370e+01  4.5000235730930584e+01  4.5000095825237118e+01  4.5000087381914469e+01  4.5000154224573471e+01  4.5000177704637672e+01  4.5000019923723357e+01  4.5000018272661343e+01  4.5000021029864406e+01  4.5000100055134190e+01  4.5000109406123400e+01  4.5000022872368874e+01  4.5000168851085142e+01  4.5000194069930437e+01  4.5000080083322928e+01  4.5000016653138019e+01  4.5000015431073003e+01  4.5000017860367102e+01  4.5000092066534144e+01  4.5000019233055305e+01  4.5000085073561173e+01  4.5000151340014170e+01  4.5000141559637363e+01  4.5000130667110994e+01  4.5000163637837950e+01  4.5000291529368475e+01  4.5000263342705438e+01  4.5000332573634076e+01  4.5000380702594505e+01  4.5000299227649926e+01  4.5000329951542277e+01  4.5000366684539308e+01  4.5000325684545899e+01  4.5000365728864750e+01  4.5000461621656612e+01  4.5000418133815188e+01  4.5000407254220356e+01  4.5000239307083902e+01  4.5000218950274252e+01  4.5000278351174103e+01  4.5000320856706310e+01  4.5000250865452600e+01  4.5000273378561523e+01  4.5000303373722943e+01  4.5000348714200456e+01  4.5000201302918576e+01  4.5000231506784679e+01  4.5000214411728699e+01  4.5000275232836820e+01  4.5000256570244048e+01  4.5000237576627974e+01  4.5000296601250895e+01  4.5000535795119447e+01  4.5000482029390255e+01  4.5000542784190813e+01  4.5000616054868686e+01  4.5000599776390054e+01  4.5000436128394171e+01  4.5000397226284740e+01  4.5000452108167330e+01  4.5000517964214595e+01  4.5000452108168943e+01  4.5000494268114792e+01  4.5000494268114409e+01  4.5000542784190181e+01  4.5000563778179981e+01  4.5000363567515379e+01  4.5000334529166473e+01  4.5000383695336673e+01  4.5000442520965102e+01  4.5000383695338598e+01  4.5000415678300534e+01  4.5000415678298907e+01  4.5000477883549259e+01  4.5000309099038624e+01  4.5000286773405897e+01  4.5000330781572096e+01  4.5000383342417315e+01  4.5000330781572274e+01  4.5000355668893654e+01  4.5000355668892368e+01  4.5000411201436457e+01  4.5000656354935195e+01  4.5000597834022365e+01  4.5000640013340153e+01  4.5000727321168078e+01  4.5000674939195882e+01  4.5000546892224619e+01  4.5000502591739838e+01  4.5000543335051667e+01  4.5000623005208062e+01  4.5000573031223730e+01  4.5000620671043642e+01  4.5000589028730069e+01  4.5000672140532274e+01  4.5000463691176684e+01  4.5000429462306350e+01  4.5000467792304555e+01  4.5000539816164689e+01  4.5000493162876005e+01  4.5000530652997398e+01  4.5000503573591843e+01  4.5000579072593418e+01  4.5000399145293770e+01  4.5000372121889839e+01  4.5000407694299817e+01  4.5000472656213041e+01  4.5000429575696785e+01  4.5000459574510067e+01  4.5000436256295025e+01  4.5000504441685820e+01  4.5000626800254167e+01  4.5000580782460887e+01  4.5000609496639285e+01  4.5000699395676641e+01  4.5000663208356372e+01  4.5000712263002896e+01  4.5000655938602627e+01  4.5000539869576471e+01  4.500050323583418