<?xml version="1.0"?>
<VTKFile type="UnstructuredGrid"  version="0.1"  >
<UnstructuredGrid>
<Piece  NumberOfPoints="14918" NumberOfCells="79022">
<Points>
<DataArray  type="Float64"  NumberOfComponents="3"  format="ascii">17.5 0 0  18.75 1.25 1.25  18.75 1.25 0  18.75 0 0  20 0 0  20 1.25 1.25  20 1.25 0  20 2.5 0  20 2.5 1.25  20 2.5 2.5  18.75 0 1.25  20 0 1.25  20 0 2.5  20 1.25 2.5  18.75 1.25 2.5  18.75 0 2.5  18.75 2.5 1.25  18.75 2.5 0  21.25 1.25 1.25  21.25 1.25 0  21.25 0 0  22.5 0 0  22.5 1.25 1.25  22.5 1.25 0  22.5 2.5 0  22.5 2.5 1.25  22.5 2.5 2.5  21.25 0 1.25  22.5 0 1.25  22.5 0 2.5  22.5 1.25 2.5  21.25 1.25 2.5  21.25 0 2.5  21.25 2.5 1.25  21.25 2.5 0  21.25 2.5 2.5  20 3.75 1.25  20 3.75 0  18.75 3.75 1.25  18.75 3.75 0  20 5 0  20 5 1.25  20 5 2.5  20 3.75 2.5  18.75 3.75 2.5  18.75 5 1.25  21.25 3.75 1.25  21.25 3.75 0  22.5 3.75 1.25  22.5 3.75 0  22.5 5 0  22.5 5 1.25  22.5 5 2.5  22.5 3.75 2.5  21.25 3.75 2.5  21.25 5 1.25  21.25 5 0  21.25 5 2.5  23.75 3.75 1.25  23.75 3.75 0  23.75 5 1.25  23.75 5 0  25 5 0  25 5 1.25  25 5 2.5  23.75 3.75 2.5  23.75 5 2.5  20 6.25 1.25  20 6.25 0  18.75 6.25 1.25  20 7.5 0  20 7.5 1.25  20 7.5 2.5  20 6.25 2.5  21.25 6.25 1.25  21.25 6.25 0  22.5 6.25 1.25  22.5 6.25 0  22.5 7.5 0  22.5 7.5 1.25  22.5 7.5 2.5  22.5 6.25 2.5  21.25 6.25 2.5  21.25 7.5 1.25  21.25 7.5 0  21.25 7.5 2.5  23.75 6.25 1.25  23.75 6.25 0  25 6.25 1.25  25 6.25 0  25 7.5 0  25 7.5 1.25  25 7.5 2.5  25 6.25 2.5  23.75 6.25 2.5  23.75 7.5 1.25  23.75 7.5 0  23.75 7.5 2.5  26.25 6.25 1.25  26.25 6.25 0  26.25 5 0  27.5 5 0  27.5 6.25 1.25  27.5 6.25 0  27.5 7.5 0  27.5 7.5 1.25  27.5 7.5 2.5  26.25 7.5 1.25  26.25 7.5 0  26.25 6.25 2.5  26.25 7.5 2.5  28.75 6.25 1.25  28.75 6.25 0  28.75 5 0  30 5 0  30 6.25 1.25  30 6.25 0  30 7.5 0  30 7.5 1.25  30 7.5 2.5  28.75 7.5 1.25  28.75 7.5 0  28.75 7.5 2.5  31.25 6.25 1.25  31.25 6.25 0  31.25 7.5 1.25  31.25 7.5 0  32.5 7.5 0  32.5 7.5 1.25  32.5 7.5 2.5  31.25 7.5 2.5  21.25 8.75 1.25  21.25 8.75 0  22.5 8.75 1.25  22.5 8.75 0  22.5 10 0  22.5 10 1.25  22.5 10 2.5  22.5 8.75 2.5  21.25 8.75 2.5  21.25 10 1.25  20 8.75 2.5  20 10 2.5  21.25 10 2.5  23.75 8.75 1.25  23.75 8.75 0  25 8.75 1.25  25 8.75 0  25 10 0  25 10 1.25  25 10 2.5  25 8.75 2.5  23.75 8.75 2.5  23.75 10 1.25  23.75 10 0  23.75 10 2.5  26.25 8.75 1.25  26.25 8.75 0  27.5 8.75 1.25  27.5 8.75 0  27.5 10 0  27.5 10 1.25  27.5 10 2.5  27.5 8.75 2.5  26.25 8.75 2.5  26.25 10 1.25  26.25 10 0  26.25 10 2.5  28.75 8.75 1.25  28.75 8.75 0  30 8.75 1.25  30 8.75 0  30 10 0  30 10 1.25  30 10 2.5  30 8.75 2.5  28.75 8.75 2.5  28.75 10 1.25  28.75 10 0  28.75 10 2.5  31.25 8.75 1.25  31.25 8.75 0  32.5 8.75 1.25  32.5 8.75 0  32.5 10 0  32.5 10 1.25  32.5 10 2.5  32.5 8.75 2.5  31.25 8.75 2.5  31.25 10 1.25  31.25 10 0  31.25 10 2.5  33.75 8.75 1.25  33.75 8.75 0  33.75 10 1.25  33.75 10 0  35 10 0  35 10 1.25  35 10 2.5  33.75 8.75 2.5  33.75 10 2.5  22.5 11.25 1.25  22.5 11.25 0  21.25 11.25 1.25  21.25 11.25 0  22.5 12.5 0  22.5 12.5 1.25  22.5 12.5 2.5  22.5 11.25 2.5  21.25 11.25 2.5  21.25 12.5 1.25  21.25 12.5 0  21.25 12.5 2.5  23.75 11.25 1.25  23.75 11.25 0  25 11.25 1.25  25 11.25 0  25 12.5 0  25 12.5 1.25  25 12.5 2.5  25 11.25 2.5  23.75 11.25 2.5  23.75 12.5 1.25  23.75 12.5 0  23.75 12.5 2.5  26.25 11.25 1.25  26.25 11.25 0  27.5 11.25 1.25  27.5 11.25 0  27.5 12.5 0  27.5 12.5 1.25  27.5 12.5 2.5  27.5 11.25 2.5  26.25 11.25 2.5  26.25 12.5 1.25  26.25 12.5 0  26.25 12.5 2.5  28.75 11.25 1.25  28.75 11.25 0  30 11.25 1.25  30 11.25 0  30 12.5 0  30 12.5 1.25  30 12.5 2.5  30 11.25 2.5  28.75 11.25 2.5  28.75 12.5 1.25  28.75 12.5 0  28.75 12.5 2.5  31.25 11.25 1.25  31.25 11.25 0  32.5 11.25 1.25  32.5 11.25 0  32.5 12.5 0  32.5 12.5 1.25  32.5 12.5 2.5  32.5 11.25 2.5  31.25 11.25 2.5  31.25 12.5 1.25  31.25 12.5 0  31.25 12.5 2.5  33.75 11.25 1.25  33.75 11.25 0  35 11.25 1.25  35 11.25 0  35 12.5 0  35 12.5 1.25  35 12.5 2.5  35 11.25 2.5  33.75 11.25 2.5  33.75 12.5 1.25  33.75 12.5 0  33.75 12.5 2.5  36.25 11.25 1.25  36.25 11.25 0  36.25 10 0  37.5 10 0  37.5 11.25 1.25  37.5 11.25 0  37.5 12.5 0  37.5 12.5 1.25  37.5 12.5 2.5  36.25 12.5 1.25  36.25 12.5 0  36.25 11.25 2.5  36.25 12.5 2.5  38.75 11.25 1.25  38.75 11.25 0  38.75 12.5 1.25  38.75 12.5 0  40 12.5 0  40 12.5 1.25  40 12.5 2.5  38.75 12.5 2.5  22.5 13.75 1.25  22.5 13.75 0  21.25 13.75 1.25  21.25 13.75 0  22.5 15 0  22.5 15 1.25  22.5 15 2.5  22.5 13.75 2.5  21.25 13.75 2.5  21.25 15 1.25  21.25 15 0  20 15 2.5  21.25 15 2.5  23.75 13.75 1.25  23.75 13.75 0  25 13.75 1.25  25 13.75 0  25 15 0  25 15 1.25  25 15 2.5  25 13.75 2.5  23.75 13.75 2.5  23.75 15 1.25  23.75 15 0  23.75 15 2.5  26.25 13.75 1.25  26.25 13.75 0  27.5 13.75 1.25  27.5 13.75 0  27.5 15 0  27.5 15 1.25  27.5 15 2.5  27.5 13.75 2.5  26.25 13.75 2.5  26.25 15 1.25  26.25 15 0  26.25 15 2.5  28.75 13.75 1.25  28.75 13.75 0  30 13.75 1.25  30 13.75 0  30 15 0  30 15 1.25  30 15 2.5  30 13.75 2.5  28.75 13.75 2.5  28.75 15 1.25  28.75 15 0  28.75 15 2.5  31.25 13.75 1.25  31.25 13.75 0  32.5 13.75 1.25  32.5 13.75 0  32.5 15 0  32.5 15 1.25  32.5 15 2.5  32.5 13.75 2.5  31.25 13.75 2.5  31.25 15 1.25  31.25 15 0  31.25 15 2.5  33.75 13.75 1.25  33.75 13.75 0  35 13.75 1.25  35 13.75 0  35 15 0  35 15 1.25  35 15 2.5  35 13.75 2.5  33.75 13.75 2.5  33.75 15 1.25  33.75 15 0  33.75 15 2.5  36.25 13.75 1.25  36.25 13.75 0  37.5 13.75 1.25  37.5 13.75 0  37.5 15 0  37.5 15 1.25  37.5 15 2.5  37.5 13.75 2.5  36.25 13.75 2.5  36.25 15 1.25  36.25 15 0  36.25 15 2.5  38.75 13.75 1.25  38.75 13.75 0  40 13.75 1.25  40 13.75 0  40 15 0  40 15 1.25  40 15 2.5  40 13.75 2.5  38.75 13.75 2.5  38.75 15 1.25  38.75 15 0  38.75 15 2.5  41.25 13.75 1.25  41.25 13.75 0  41.25 15 1.25  41.25 15 0  42.5 15 0  42.5 15 1.25  42.5 15 2.5  41.25 13.75 2.5  41.25 15 2.5  22.5 16.25 1.25  22.5 16.25 0  21.25 16.25 1.25  21.25 16.25 0  22.5 17.5 0  22.5 17.5 1.25  22.5 17.5 2.5  22.5 16.25 2.5  21.25 16.25 2.5  20 17.5 0  21.25 17.5 1.25  21.25 17.5 0  20 16.25 2.5  20 17.5 2.5  21.25 17.5 2.5  20 17.5 1.25  23.75 16.25 1.25  23.75 16.25 0  25 16.25 1.25  25 16.25 0  25 17.5 0  25 17.5 1.25  25 17.5 2.5  25 16.25 2.5  23.75 16.25 2.5  23.75 17.5 1.25  23.75 17.5 0  23.75 17.5 2.5  26.25 16.25 1.25  26.25 16.25 0  27.5 16.25 1.25  27.5 16.25 0  27.5 17.5 0  27.5 17.5 1.25  27.5 17.5 2.5  27.5 16.25 2.5  26.25 16.25 2.5  26.25 17.5 1.25  26.25 17.5 0  26.25 17.5 2.5  28.75 16.25 1.25  28.75 16.25 0  30 16.25 1.25  30 16.25 0  30 17.5 0  30 17.5 1.25  30 17.5 2.5  30 16.25 2.5  28.75 16.25 2.5  28.75 17.5 1.25  28.75 17.5 0  28.75 17.5 2.5  31.25 16.25 1.25  31.25 16.25 0  32.5 16.25 1.25  32.5 16.25 0  32.5 17.5 0  32.5 17.5 1.25  32.5 17.5 2.5  32.5 16.25 2.5  31.25 16.25 2.5  31.25 17.5 1.25  31.25 17.5 0  31.25 17.5 2.5  33.75 16.25 1.25  33.75 16.25 0  35 16.25 1.25  35 16.25 0  35 17.5 0  35 17.5 1.25  35 17.5 2.5  35 16.25 2.5  33.75 16.25 2.5  33.75 17.5 1.25  33.75 17.5 0  33.75 17.5 2.5  36.25 16.25 1.25  36.25 16.25 0  37.5 16.25 1.25  37.5 16.25 0  37.5 17.5 0  37.5 17.5 1.25  37.5 17.5 2.5  37.5 16.25 2.5  36.25 16.25 2.5  36.25 17.5 1.25  36.25 17.5 0  36.25 17.5 2.5  38.75 16.25 1.25  38.75 16.25 0  40 16.25 1.25  40 16.25 0  40 17.5 0  40 17.5 1.25  40 17.5 2.5  40 16.25 2.5  38.75 16.25 2.5  38.75 17.5 1.25  38.75 17.5 0  38.75 17.5 2.5  41.25 16.25 1.25  41.25 16.25 0  42.5 16.25 1.25  42.5 16.25 0  42.5 17.5 0  42.5 17.5 1.25  42.5 17.5 2.5  42.5 16.25 2.5  41.25 16.25 2.5  41.25 17.5 1.25  41.25 17.5 0  41.25 17.5 2.5  43.75 16.25 1.25  43.75 16.25 0  43.75 15 0  45 15 0  45 16.25 1.25  45 16.25 0  45 17.5 0  45 17.5 1.25  45 17.5 2.5  43.75 17.5 1.25  43.75 17.5 0  43.75 16.25 2.5  43.75 17.5 2.5  46.25 16.25 1.25  46.25 16.25 0  46.25 15 0  47.5 15 0  47.5 16.25 1.25  47.5 16.25 0  47.5 17.5 0  47.5 17.5 1.25  47.5 17.5 2.5  46.25 17.5 1.25  46.25 17.5 0  46.25 17.5 2.5  48.75 16.25 1.25  48.75 16.25 0  48.75 15 0  50 15 0  50 16.25 1.25  50 16.25 0  50 17.5 0  50 17.5 1.25  50 17.5 2.5  48.75 17.5 1.25  48.75 17.5 0  48.75 17.5 2.5  20 18.75 1.25  20 18.75 0  18.75 18.75 1.25  18.75 18.75 0  20 20 0  20 20 1.25  20 20 2.5  20 18.75 2.5  18.75 18.75 2.5  21.25 18.75 1.25  21.25 18.75 0  22.5 18.75 1.25  22.5 18.75 0  22.5 20 0  22.5 20 1.25  22.5 20 2.5  22.5 18.75 2.5  21.25 18.75 2.5  21.25 20 1.25  21.25 20 0  21.25 20 2.5  23.75 18.75 1.25  23.75 18.75 0  25 18.75 1.25  25 18.75 0  25 20 0  25 20 1.25  25 20 2.5  25 18.75 2.5  23.75 18.75 2.5  23.75 20 1.25  23.75 20 0  23.75 20 2.5  26.25 18.75 1.25  26.25 18.75 0  27.5 18.75 1.25  27.5 18.75 0  27.5 20 0  27.5 20 1.25  27.5 20 2.5  27.5 18.75 2.5  26.25 18.75 2.5  26.25 20 1.25  26.25 20 0  26.25 20 2.5  28.75 18.75 1.25  28.75 18.75 0  30 18.75 1.25  30 18.75 0  30 20 0  30 20 1.25  30 20 2.5  30 18.75 2.5  28.75 18.75 2.5  28.75 20 1.25  28.75 20 0  28.75 20 2.5  31.25 18.75 1.25  31.25 18.75 0  32.5 18.75 1.25  32.5 18.75 0  32.5 20 0  32.5 20 1.25  32.5 20 2.5  32.5 18.75 2.5  31.25 18.75 2.5  31.25 20 1.25  31.25 20 0  31.25 20 2.5  33.75 18.75 1.25  33.75 18.75 0  35 18.75 1.25  35 18.75 0  35 20 0  35 20 1.25  35 20 2.5  35 18.75 2.5  33.75 18.75 2.5  33.75 20 1.25  33.75 20 0  33.75 20 2.5  36.25 18.75 1.25  36.25 18.75 0  37.5 18.75 1.25  37.5 18.75 0  37.5 20 0  37.5 20 1.25  37.5 20 2.5  37.5 18.75 2.5  36.25 18.75 2.5  36.25 20 1.25  36.25 20 0  36.25 20 2.5  38.75 18.75 1.25  38.75 18.75 0  40 18.75 1.25  40 18.75 0  40 20 0  40 20 1.25  40 20 2.5  40 18.75 2.5  38.75 18.75 2.5  38.75 20 1.25  38.75 20 0  38.75 20 2.5  41.25 18.75 1.25  41.25 18.75 0  42.5 18.75 1.25  42.5 18.75 0  42.5 20 0  42.5 20 1.25  42.5 20 2.5  42.5 18.75 2.5  41.25 18.75 2.5  41.25 20 1.25  41.25 20 0  41.25 20 2.5  43.75 18.75 1.25  43.75 18.75 0  45 18.75 1.25  45 18.75 0  45 20 0  45 20 1.25  45 20 2.5  45 18.75 2.5  43.75 18.75 2.5  43.75 20 1.25  43.75 20 0  43.75 20 2.5  46.25 18.75 1.25  46.25 18.75 0  47.5 18.75 1.25  47.5 18.75 0  47.5 20 0  47.5 20 1.25  47.5 20 2.5  47.5
[...]
<PointData  Scalars="p_CO2"> 
<DataArray  type="Float64"  Name="p_CO2"  format="ascii">4.4999999334273276e+01  4.5000020869927674e+01  4.5000004529770642e+01  4.5000000047251689e+01  4.4999999445368317e+01  4.5000019047946274e+01  4.5000003857769194e+01  4.5000007051227172e+01  4.5000033675430778e+01  4.5000059897690448e+01  4.5000004529770941e+01  4.5000003857769045e+01  4.5000007051226412e+01  4.5000033675430018e+01  4.5000036757723734e+01  4.5000007679816306e+01  4.5000036757723798e+01  4.5000007679816626e+01  4.5000017583135140e+01  4.5000003816259337e+01  4.5000000039883226e+01  4.4999999527100570e+01  4.5000016214836279e+01  4.5000003282369178e+01  4.5000006008874756e+01  4.5000028730263011e+01  4.5000051163255222e+01  4.5000003816258776e+01  4.5000003282368624e+01  4.5000006008873804e+01  4.5000028730261725e+01  4.5000031042808764e+01  4.5000006480649908e+01  4.5000031042809596e+01  4.5000006480650541e+01  4.5000055239995071e+01  4.5000047946415840e+01  4.5000010019529633e+01  4.5000052229872814e+01  4.5000010865688438e+01  4.5000012849635311e+01  4.5000061174847126e+01  4.5000108813088723e+01  4.5000084804980432e+01  4.5000092287728457e+01  4.5000066512112738e+01  4.5000044217340701e+01  4.5000009199432860e+01  4.5000040982424323e+01  4.5000008560298987e+01  4.5000011012355088e+01  4.5000052482585609e+01  4.5000093461335858e+01  4.5000072639257127e+01  4.5000078309810981e+01  4.5000056539569997e+01  4.5000011808293735e+01  4.5000100642109317e+01  4.5000038125111679e+01  4.5000007932305479e+01  4.5000048893746538e+01  4.5000010206280216e+01  4.5000009582815679e+01  4.5000045706496167e+01  4.5000081463289582e+01  4.5000067631077314e+01  4.5000087111270012e+01  4.5000073834213090e+01  4.5000015431072882e+01  4.5000080083320888e+01  4.5000017860366654e+01  4.5000085073560172e+01  4.5000151340012337e+01  4.5000130667108550e+01  4.5000068346438646e+01  4.5000014213890616e+01  4.5000063545257923e+01  4.5000013274926737e+01  4.5000015427987599e+01  4.5000073553592898e+01  4.5000130994865266e+01  4.5000112674176286e+01  4.5000121077176146e+01  4.5000078969329429e+01  4.5000016487852442e+01  4.5000140547629115e+01  4.5000059274700384e+01  4.5000012328041983e+01  4.5000055471593157e+01  4.5000011584311181e+01  4.5000013504173658e+01  4.5000064427113649e+01  4.5000114835417449e+01  4.5000098496259383e+01  4.5000105171521476e+01  4.5000068743826290e+01  4.5000014346827761e+01  4.5000122464741004e+01  4.5000052052984557e+01  4.5000010826508380e+01  4.5000008940156590e+01  4.5000008438193554e+01  4.5000048963743900e+01  4.5000010222447003e+01  4.5000011943938922e+01  4.5000057015227988e+01  4.5000101686611046e+01  4.5000060538991484e+01  4.5000012630357809e+01  4.5000092465381229e+01  4.5000107923049264e+01  4.5000046162693103e+01  4.5000009601649467e+01  4.5000007913289053e+01  4.5000007500003512e+01  4.5000043601159568e+01  4.5000009100832017e+01  4.5000010652038014e+01  4.5000050871132650e+01  4.5000090770746752e+01  4.5000053804543832e+01  4.5000011222474939e+01  4.5000095967581210e+01  4.5000041262375184e+01  4.5000008582555417e+01  4.5000048173540691e+01  4.5000010045938524e+01  4.5000009564258846e+01  4.5000045693253384e+01  4.5000081560826963e+01  4.5000085958376573e+01  4.5000088983339516e+01  4.5000018504374182e+01  4.5000083050054890e+01  4.5000017347387335e+01  4.5000019148218499e+01  4.5000091332278231e+01  4.5000162670807654e+01  4.5000147321260719e+01  4.5000157675385871e+01  4.5000097678737831e+01  4.5000169441782958e+01  4.5000186313417473e+01  4.5000173818039684e+01  4.5000077736450031e+01  4.5000016166841441e+01  4.5000072960216627e+01  4.5000015234999182e+01  4.5000016874245297e+01  4.5000080534102892e+01  4.5000143552386312e+01  4.5000129588706571e+01  4.5000137952402639e+01  4.5000085675788632e+01  4.5000017876107997e+01  4.5000152609079379e+01  4.5000068643427355e+01  4.5000014276527999e+01  4.5000064713404072e+01  4.5000013509534163e+01  4.5000015002658621e+01  4.5000071636041710e+01  4.5000127767504871e+01  4.5000115051921306e+01  4.5000121951353435e+01  4.5000075889345098e+01  4.5000015829966124e+01  4.5000135274647477e+01  4.5000061134320205e+01  4.5000012715237062e+01  4.5000057841629371e+01  4.5000012072483941e+01  4.5000013434240699e+01  4.5000064172007761e+01  4.5000114506750286e+01  4.5000102910628868e+01  4.5000108702488703e+01  4.5000067751321794e+01  4.5000014129447457e+01  4.5000120833942354e+01  4.5000054824541600e+01  4.5000011403152904e+01  4.5000052026086166e+01  4.5000010856771347e+01  4.5000012100650807e+01  4.5000057820680581e+01  4.5000103209662299e+01  4.5000092616414527e+01  4.5000097546643261e+01  4.5000060873973460e+01  4.5000012693033220e+01  4.5000108613512211e+01  4.5000049450194972e+01  4.5000010285476058e+01  4.5000054988825163e+01  4.5000011464309523e+01  4.5000010954501782e+01  4.5000052359338582e+01  4.5000093486604342e+01  4.5000088029223924e+01  4.5000098145220470e+01  4.5000099118102398e+01  4.5000020700635972e+01  4.5000105770272320e+01  4.5000021993797510e+01  4.5000022140126333e+01  4.5000105652106434e+01  4.5000188190747558e+01  4.5000175899424384e+01  4.5000187468635318e+01  4.5000112558934376e+01  4.5000023485820272e+01  4.5000200269174641e+01  4.5000093118973936e+01  4.5000019364909448e+01  4.5000087673076678e+01  4.5000018305095253e+01  4.5000019645033518e+01  4.5000093792380817e+01  4.5000167194443371e+01  4.5000155770273921e+01  4.5000165280281877e+01  4.5000099478361697e+01  4.5000020750933174e+01  4.5000177173862404e+01  4.5000082722415371e+01  4.5000017203958116e+01  4.5000078178328934e+01  4.5000016318948020e+01  4.5000017560727166e+01  4.5000083874833322e+01  4.5000149601773707e+01  4.5000139023623980e+01  4.5000146983129369e+01  4.5000088642586839e+01  4.5000018486688028e+01  4.5000157992122588e+01  4.5000074020104385e+01  4.5000015394808976e+01  4.5000070168731362e+01  4.5000014644263338e+01  4.5000015792109600e+01  4.5000075452262948e+01  4.5000134638391138e+01  4.5000124865022435e+01  4.5000131627161316e+01  4.5000079510371094e+01  4.5000016579317020e+01  4.5000141794637862e+01  4.5000066625736068e+01  4.5000013857348506e+01  4.5000063321237647e+01  4.5000013213052490e+01  4.5000014272585126e+01  4.5000068211276044e+01  4.5000121758991412e+01  4.5000112739266605e+01  4.5000118552290765e+01  4.5000071705840419e+01  4.5000014949875798e+01  4.5000127931610137e+01  4.5000060269681683e+01  4.5000012535618879e+01  4.5000057410728445e+01  4.5000011977916422e+01  4.5000012955396599e+01  4.5000061932002524e+01  4.5000110579767870e+01  4.5000102257803910e+01  4.5000107295271810e+01  4.5000064964963087e+01  4.5000013542931633e+01  4.5000115944529561e+01  4.5000054765565203e+01  4.5000011390915887e+01  4.5000010404474388e+01  4.5000009963688058e+01  4.5000052285083768e+01  4.5000010906740314e+01  4.5000011808752056e+01  4.5000056465577188e+01  4.5000100840493161e+01  4.5000059104630175e+01  4.5000012320033846e+01  4.5000097534930404e+01  4.5000105514729441e+01  4.5000049992646659e+01  4.5000010398138016e+01  4.5000054006841168e+01  4.5000011256361518e+01  4.5000010813735400e+01  4.5000051724872463e+01  4.5000092389212867e+01  4.5000096437245361e+01  4.5000111766341668e+01  4.5000023338749905e+01  4.5000118811685461e+01  4.5000024704146973e+01  4.5000024438571764e+01  4.5000116669547339e+01  4.5000207830464106e+01  4.5000198422682182e+01  4.5000210632462782e+01  4.5000123864868371e+01  4.5000025837870183e+01  4.5000234217103966e+01  4.5000220361588916e+01  4.5000105371918259e+01  4.5000021911930013e+01  4.5000099513063425e+01  4.5000020774676202e+01  4.5000021821174990e+01  4.5000104217617206e+01  4.5000185787892839e+01  4.5000176859091241e+01  4.5000187060497524e+01  4.5000110225536275e+01  4.5000022987766847e+01  4.5000196295771147e+01  4.5000094157336143e+01  4.5000019581304599e+01  4.5000089202072594e+01  4.5000018618270055e+01  4.5000019604962006e+01  4.5000093664348981e+01  4.5000167068548095e+01  4.5000158663124289e+01  4.5000167322128242e+01  4.5000098765376862e+01  4.5000020594238300e+01  4.5000176019433496e+01  4.5000084646029563e+01  4.5000017604218328e+01  4.5000080397589905e+01  4.5000016777749899e+01  4.5000017702226664e+01  4.5000084597115624e+01  4.5000150960332512e+01  4.5000143092297741e+01  4.5000150536989196e+01  4.5000088985926865e+01  4.5000018552555474e+01  4.5000158681219872e+01  4.5000076473687933e+01  4.5000015905172198e+01  4.5000072793212375e+01  4.5000015188609034e+01  4.5000016051064513e+01  4.5000076724476905e+01  4.5000136957617286e+01  4.5000129621021863e+01  4.5000136085062223e+01  4.5000080538459727e+01  4.5000016789514781e+01  4.5000143681143648e+01  4.5000069383172310e+01  4.5000014430835662e+01  4.5000066173473279e+01  4.5000013805455637e+01  4.5000014607755070e+01  4.5000069840803896e+01  4.5000124702421893e+01  4.5000117878027929e+01  4.5000123526098925e+01  4.5000073176232192e+01  4.5000015253344003e+01  4.5000130592623876e+01  4.5000063195733198e+01  4.5000013144106148e+01  4.5000060392848916e+01  4.5000012597533605e+01  4.5000013342659237e+01  4.5000063807430244e+01  4.5000113953049365e+01  4.5000107612041340e+01  4.5000112553140546e+01  4.5000066727743224e+01  4.5000013908047485e+01  4.5000119118550003e+01  4.5000057796823931e+01  4.5000012021181064e+01  4.5000055367930891e+01  4.5000011546986656e+01  4.5000012238773564e+01  4.5000058546479366e+01  4.5000104574312680e+01  4.5000098679454233e+01  4.5000102969888069e+01  4.5000061084195679e+01  4.5000012730740984e+01  4.5000109071053679e+01  4.5000053134503183e+01  4.5000011051225556e+01  4.5000056199462193e+01  4.5000011711601204e+01  4.5000011292984233e+01  4.5000054047793171e+01  4.5000096550606735e+01  4.5000094689435635e+01  4.5000100372841224e+01  4.5000121257187743e+01  4.5000025317186470e+01  4.5000128476368900e+01  4.5000026712387985e+01  4.5000026113617878e+01  4.5000124709843192e+01  4.5000222166494829e+01  4.5000215341553599e+01  4.5000227811059752e+01  4.5000029289211582e+01  4.5000132022397331e+01  4.5000027533651320e+01  4.5000241872280313e+01  4.5000248820651620e+01  4.5000234856794116e+01  4.5000139810750511e+01  4.5000114670197405e+01  4.5000023844486215e+01  4.5000108586972090e+01  4.5000022666488839e+01  4.5000023439453990e+01  4.5000111978805485e+01  4.5000199632238370e+01  4.5000193034717562e+01  4.5000203597424807e+01  4.5000118154334622e+01  4.5000024636971901e+01  4.5000210400421416e+01  4.5000102999236141e+01  4.5000021419333173e+01  4.5000097792643601e+01  4.5000020409484705e+01  4.5000021149779016e+01  4.5000101068665209e+01  4.5000180281032769e+01  4.5000173977846131e+01  4.5000183055132645e+01  4.5000106367046044e+01  4.5000022176088358e+01  4.5000189554290145e+01  4.5000092985103912e+01  4.5000019337957120e+01  4.5000088474535318e+01  4.5000018461964700e+01  4.5000019164214912e+01  4.5000091601334681e+01  4.5000163462568231e+01  4.5000157492357559e+01  4.5000165381440311e+01  4.5000096202352026e+01  4.5000020054722832e+01  4.5000171539355549e+01  4.5000084293253707e+01  4.5000017531071983e+01  4.5000080350841223e+01  4.5000016764574653e+01  4.5000017426124067e+01  4.5000083310178162e+01  4.5000148715681000e+01  4.5000143096237998e+01  4.5000150009583386e+01  4.5000087340635574e+01  4.5000018205791314e+01  4.5000155808146026e+01  4.5000076686834888e+01  4.5000015949583634e+01  4.5000073223059765e+01  4.5000015275469288e+01  4.5000015895572147e+01  4.5000076007433783e+01  4.5000135714486063e+01  4.5000130448323155e+01  4.5000136535757143e+01  4.5000079555975752e+01  4.5000016581899693e+01  4.5000141971812688e+01  4.5000070001425293e+01  4.5000014559384162e+01  4.5000066958196989e+01  4.5000013966499957e+01  4.5000014545768884e+01  4.5000069567933423e+01  4.5000124241555653e+01  4.5000119319592557e+01  4.5000124678820448e+01  4.5000072692104453e+01  4.5000015150257781e+01  4.5000129760942492e+01  4.5000064133791483e+01  4.5000013339029493e+01  4.5000061483778637e+01  4.5000012822065997e+01  4.5000013362125955e+01  4.5000063925383131e+01  4.5000114182535079e+01  4.5000109585884694e+01  4.5000114262911183e+01  4.5000066652341673e+01  4.5000013890524102e+01  4.5000119009752524e+01  4.5000059043146862e+01  4.5000012280006750e+01  4.5000056796290615e+01  4.5000011840740328e+01  4.5000012344076865e+01  4.5000059082021046e+01  4.5000105544063722e+01  4.5000101243690978e+01  4.5000105221280720e+01  4.5000061402096058e+01  4.5000012795287731e+01  4.5000109661960096e+01  4.5000054767571903e+01  4.5000011390124008e+01  4.5000010856912894e+01  4.5000010520919886e+01  4.5000052988094957e+01  4.5000011040647557e+01  4.5000011510648584e+01  4.5000055136927116e+01  4.5000098504686676e+01  4.5000056986792252e+01  4.5000011873747177e+01  4.5000097626643502e+01  4.5000101803953584e+01  4.5000051463443931e+01  4.5000010701643319e+01  4.5000010196774795e+01  4.5000009967771987e+01  4.5000050304519796e+01  4.5000010471009908e+01  4.5000010912403049e+01  4.5000052345218208e+01  4.5000093520542215e+01  4.5000053573512155e+01  4.5000011160321336e+01  4.5000095740386435e+01  4.5000049483887800e+01  4.5000010286518723e+01  4.5000009801325753e+01  4.5000009736271096e+01  4.5000049252745583e+01  4.5000010238678641e+01  4.5000010661794242e+01  4.5000051235583783e+01  4.5000091533596120e+01  4.5000051533813895e+01  4.5000010732362220e+01  4.5000092144253209e+01  4.5000143131044148e+01  4.5000029889209635e+01  4.5000151843351432e+01  4.5000031564579899e+01  4.5000030415135612e+01  4.5000145229267837e+01  4.5000258479659728e+01  4.5000253915210187e+01  4.5000268810349503e+01  4.5000135219400242e+01  4.5000028113340576e+01  4.5000127950696509e+01  4.5000026711765571e+01  4.5000027242659463e+01  4.5000130135456253e+01  4.5000231842355518e+01  4.5000227284034594e+01  4.5000239803906666e+01  4.5000137475934473e+01  4.5000028666666203e+01  4.5000244546737271e+01  4.5000121292148343e+01  4.5000025220626263e+01  4.5000115105255020e+01  4.5000024024935684e+01  4.5000024548589650e+01  4.5000117303034344e+01  4.5000209130830385e+01  4.5000204662661474e+01  4.5000215379915929e+01  4.5000123552786121e+01  4.5000025759302744e+01  4.5000220002671448e+01  4.5000109400734353e+01  4.5000022749920511e+01  4.5000104055231645e+01  4.5000021714889733e+01  4.5000022222865539e+01  4.5000106215734910e+01  4.5000189466471980e+01  4.5000185148614968e+01  4.5000194449651346e+01  4.5000111619615950e+01  4.5000023268657657e+01  4.5000198905227364e+01  4.5000099102416101e+01  4.5000020609669036e+01  4.5000094432140656e+01  4.5000019703954671e+01  4.5000020190712007e+01  4.5000096522028308e+01  4.5000172246360080e+01  4.5000168118625041e+01  4.5000176273689092e+01  4.5000101247904510e+01  4.5000021104648333e+01  4.5000180528177346e+01  4.5000090089726044e+01  4.5000018736228355e+01  4.5000085977587958e+01  4.5000017937681093e+01  4.5000018399864722e+01  4.5000087975967070e+01  4.5000157046312864e+01  4.5000153132194491e+01  4.5000160333492097e+01  4.5000092141489446e+01  4.5000019205100017e+01  4.5000164366037502e+01  4.5000082145993431e+01  4.5000017084712404e+01  4.5000078510542593e+01  4.5000016377880122e+01  4.5000016813747045e+01  4.5000080405667937e+01  4.5000143568869653e+01  4.5000139879141614e+01  4.5000146261276171e+01  4.5000084092486816e+01  4.5000017526402466e+01  4.5000150062384826e+01  4.5000075121988544e+01  4.5000015624179412e+01  4.5000071911481150e+01  4.5000014999209860e+01  4.5000015408187203e+01  4.5000073698408379e+01  4.5000131618912192e+01  4.5000128154348545e+01  4.5000133803085561e+01  4.5000076958519301e+01  4.5000016038676840e+01  4.5000137372872125e+01  4.5000068926663047e+01  4.5000014335725716e+01  4.5000066119458495e+01  4.5000013788461928e+01  4.5000014170825473e+01  4.5000067798537181e+01  4.5000121101160900e+01  4.5000117854107849e+01  4.5000122804909267e+01  4.5000070654163999e+01  4.5000014723942428e+01  4.5000126152081705e+01  4.5000063530563565e+01  4.5000013213195153e+01  4.5000061142883425e+01  4.5000012746658633e+01  4.5000013103308241e+01  4.5000062719031618e+01  4.5000112041503925e+01  4.5000108996072427e+01  4.5000113220344865e+01  4.5000065155197099e+01  4.5000013576955517e+01  4.5000116362511029e+01  4.5000058984875885e+01  4.5000012267116894e+01  4.5000057089568195e+01  4.5000011895079268e+01  4.5000012227403673e+01  4.5000058572415824e+01  4.5000104642531923e+01  4.5000101772923337e+01  4.5000105145649471e+01  4.5000060518712438e+01  4.5000012609344843e+01  4.5000108111675637e+01  4.5000055464617695e+01  4.5000011533613531e+01  4.5000054228502208e+01  4.5000011287755726e+01  4.5000011597719016e+01  4.5000055633817432e+01  4.5000099396128832e+01  4.5000096661994618e+01  4.5000098897597283e+01  4.5000056927902321e+01  4.5000011858872355e+01  4.5000101733339200e+01  4.5000053352935247e+01  4.5000011090782856e+01  4.5000053106251144e+01  4.5000011039844495e+01  4.5000011333745135e+01  4.5000054464968372e+01  4.5000097303119531e+01  4.5000094636085315e+01  4.5000095165167501e+01  4.5000054779792841e+01  4.5000011408198404e+01  4.5000097946439816e+01  4.5000139457507181e+01  4.5000028993771451e+01  4.5000132192768525e+01  4.5000027595217340e+01  4.5000027891371928e+01  4.5000133255368937e+01  4.5000237407065008e+01  4.5000234857416523e+01  4.5000247345135065e+01  4.5000140591172766e+01  4.5000261420796456e+01  4.5000263955850670e+01  4.5000250081916647e+01  4.5000125520544380e+01  4.5000026099268929e+01  4.5000119295572318e+01  4.5000024897936470e+01  4.5000025193490998e+01  4.5000120400810381e+01  4.5000214657888527e+01  4.5000212141625013e+01  4.5000222906189080e+01  4.5000126676877514e+01  4.5000026408574897e+01  4.5000225559152561e+01  4.5000113541122651e+01  4.5000023610454697e+01  4.5000108127747865e+01  4.5000022563572216e+01  4.5000022852842854e+01  4.5000109239020070e+01  4.5000194862171874e+01  4.5000192415944248e+01  4.5000201821398811e+01  4.5000114691535003e+01  4.5000023907452928e+01  4.5000204373554304e+01  4.5000103099983093e+01  4.5000021440656333e+01  4.5000098342210315e+01  4.5000020518934221e+01  4.5000020798017914e+01  4.5000099434477058e+01  4.5000177445527363e+01  4.5000175095165801e+01  4.5000183393015647e+01  4.5000104223929249e+01  4.5000021723779376e+01  4.5000185829561644e+01  4.5000093908959201e+01  4.5000019530248771e+01  4.5000089697781824e+01  4.5000018713179074e+01  4.5000018979531056e+01  4.5000090754429728e+01  4.5000162007332868e+01  4.5000159769375109e+01  4.5000167136818000e+01  4.5000094992504316e+01  4.5000019798430849e+01  4.5000169447727394e+01  4.5000085766660241e+01  4.5000017837526848e+01  4.5000082026966574e+01  4.5000017110948725e+01  4.5000017363031688e+01  4.5000083037551953e+01  4.5000148268999446e+01  4.5000146152412682e+01  4.5000152712235192e+01  4.5000086801167278e+01  4.5000018090261591e+01  4.5000154892743765e+01  4.5000078535864418e+01  4.5000016334050997e+01  4.5000075221025483e+01  4.5000015689153230e+01  4.5000015926142495e+01  4.5000076179634235e+01  4.5000136050642226e+01  4.5000134058293924e+01  4.5000139886741024e+01  4.5000079516944105e+01  4.5000016571363830e+01  4.5000141937163846e+01  4.5000072135346151e+01  4.5000015002962911e+01  4.5000069228260408e+01  4.5000014436504344e+01  4.5000014658030338e+01  4.5000070132330066e+01  4.5000125270062625e+01  4.5000123399715122e+01  4.5000128523883610e+01  4.5000073062163906e+01  4.5000015225380885e+01  4.5000130449543832e+01  4.5000066544625582e+01  4.5000013839973853e+01  4.5000064066304404e+01  4.5000013355925951e+01  4.5000013561833612e+01  4.5000064915830286e+01  4.5000115966061983e+01  4.5000114210693575e+01  4.5000118593332729e+01  4.5000067419667374e+01  4.5000014048544266e+01  4.5000120405147818e+01  4.5000061824762028e+01  4.5000012857663052e+01  4.5000059854252626e+01  4.5000012471006038e+01  4.5000012661088860e+01  4.5000060651319032e+01  4.5000108356718087e+01  4.5000106703923237e+01  4.5000110209043200e+01  4.5000062654238398e+01  4.5000013054085166e+01  4.5000111925383187e+01  4.5000058164030911e+01  4.5000012094898878e+01  4.5000056877542406e+01  4.5000011839126863e+01  4.5000012012920017e+01  4.5000057626339085e+01  4.500010295608549