<?xml version="1.0"?>
<VTKFile type="UnstructuredGrid"  version="0.1"  >
<UnstructuredGrid>
<Piece  NumberOfPoints="7690" NumberOfCells="39364">
<Points>
<DataArray  type="Float64"  NumberOfComponents="3"  format="ascii">15 0 22.5  16.25 1.25 23.75  16.25 0 23.75  16.25 0 22.5  17.5 0 22.5  17.5 1.25 23.75  17.5 0 23.75  17.5 0 25  17.5 1.25 25  17.5 2.5 25  15 0 23.75  15 0 25  16.25 1.25 25  16.25 0 25  18.75 1.25 23.75  18.75 0 23.75  18.75 0 22.5  20 0 22.5  18.75 1.25 25  18.75 2.5 25  20 2.5 25  16.25 1.25 26.25  17.5 1.25 26.25  17.5 2.5 26.25  17.5 2.5 27.5  16.25 0 26.25  17.5 0 26.25  17.5 0 27.5  17.5 1.25 27.5  18.75 1.25 26.25  18.75 2.5 26.25  18.75 1.25 27.5  18.75 2.5 27.5  18.75 3.75 26.25  18.75 3.75 25  20 3.75 25  20 5 25  18.75 3.75 27.5  18.75 1.25 28.75  18.75 2.5 28.75  18.75 3.75 28.75  17.5 1.25 22.5  17.5 1.25 21.25  16.25 1.25 21.25  17.5 2.5 22.5  16.25 1.25 22.5  16.25 0 21.25  18.75 1.25 22.5  18.75 1.25 21.25  18.75 0 21.25  20 1.25 22.5  20 2.5 22.5  18.75 2.5 22.5  18.75 2.5 21.25  18.75 3.75 22.5  18.75 3.75 21.25  20 3.75 22.5  20 5 22.5  17.5 2.5 23.75  18.75 2.5 23.75  20 2.5 23.75  18.75 3.75 23.75  5 5 20  5 6.25 20  5 6.25 18.75  3.75 6.25 18.75  5 7.5 20  2.5 5 20  3.75 6.25 20  3.75 5 20  2.5 6.25 20  2.5 7.5 20  3.75 7.5 20  3.75 7.5 18.75  7.5 7.5 20  7.5 7.5 18.75  7.5 6.25 18.75  6.25 6.25 18.75  7.5 5 20  7.5 6.25 20  6.25 6.25 20  6.25 5 20  6.25 7.5 18.75  6.25 7.5 20  8.75 6.25 20  8.75 5 20  8.75 6.25 18.75  10 5 20  10 6.25 20  10 7.5 20  8.75 7.5 20  8.75 7.5 18.75  0 7.5 20  1.25 8.75 20  1.25 7.5 20  1.25 8.75 18.75  2.5 8.75 20  2.5 10 20  0 8.75 20  0 10 20  1.25 10 20  5 8.75 20  5 8.75 18.75  3.75 8.75 18.75  5 10 20  3.75 8.75 20  3.75 10 20  3.75 10 18.75  7.5 8.75 20  7.5 8.75 18.75  6.25 8.75 18.75  7.5 10 20  6.25 8.75 20  6.25 10 20  10 8.75 20  10 8.75 18.75  8.75 8.75 18.75  10 10 20  8.75 8.75 20  8.75 10 20  8.75 10 18.75  11.25 8.75 20  11.25 7.5 20  11.25 8.75 18.75  12.5 7.5 20  12.5 8.75 20  12.5 10 20  11.25 10 20  13.75 8.75 20  13.75 7.5 20  13.75 8.75 18.75  15 7.5 20  15 8.75 20  15 10 20  13.75 10 20  3.75 11.25 20  3.75 11.25 18.75  5 11.25 20  5 12.5 20  2.5 11.25 20  2.5 12.5 20  3.75 12.5 20  10 11.25 20  10 11.25 18.75  8.75 11.25 18.75  10 12.5 20  8.75 11.25 20  7.5 11.25 20  7.5 12.5 20  8.75 12.5 20  11.25 11.25 20  11.25 11.25 18.75  12.5 11.25 20  12.5 12.5 20  11.25 12.5 20  11.25 12.5 18.75  0 12.5 20  1.25 13.75 20  1.25 12.5 20  1.25 13.75 18.75  2.5 13.75 20  2.5 15 20  0 13.75 20  0 15 20  1.25 15 20  1.25 15 18.75  3.75 13.75 20  3.75 13.75 18.75  5 13.75 20  5 15 20  3.75 15 20  6.25 13.75 20  6.25 12.5 20  6.25 13.75 18.75  7.5 13.75 20  7.5 15 20  6.25 15 20  6.25 15 18.75  8.75 13.75 20  8.75 13.75 18.75  10 13.75 20  10 15 20  8.75 15 20  11.25 13.75 20  11.25 13.75 18.75  12.5 13.75 20  12.5 15 20  11.25 15 20  2.5 16.25 20  2.5 16.25 18.75  1.25 16.25 18.75  2.5 17.5 20  1.25 16.25 20  0 16.25 20  0 17.5 20  1.25 17.5 20  3.75 16.25 20  3.75 16.25 18.75  5 16.25 20  5 17.5 20  3.75 17.5 20  6.25 16.25 20  6.25 16.25 18.75  7.5 16.25 20  7.5 17.5 20  6.25 17.5 20  6.25 17.5 18.75  2.5 18.75 20  2.5 18.75 18.75  1.25 18.75 18.75  2.5 20 20  1.25 18.75 20  0 18.75 20  0 20 20  1.25 20 20  5 18.75 20  5 18.75 18.75  3.75 18.75 18.75  5 20 20  3.75 18.75 20  3.75 20 20  6.25 18.75 20  6.25 18.75 18.75  7.5 18.75 20  7.5 20 20  6.25 20 20  6.25 20 18.75  8.75 18.75 20  8.75 17.5 20  8.75 18.75 18.75  10 17.5 20  10 18.75 20  10 20 20  8.75 20 20  8.75 20 18.75  12.5 17.5 20  12.5 18.75 20  12.5 18.75 18.75  11.25 18.75 18.75  12.5 20 20  11.25 18.75 20  11.25 17.5 20  11.25 20 20  11.25 20 18.75  13.75 18.75 20  13.75 17.5 20  13.75 18.75 18.75  15 17.5 20  15 18.75 20  15 20 20  13.75 20 20  1.25 21.25 20  1.25 21.25 18.75  2.5 21.25 20  2.5 22.5 20  0 21.25 20  0 22.5 20  1.25 22.5 20  1.25 22.5 18.75  3.75 21.25 20  3.75 21.25 18.75  5 21.25 20  5 22.5 20  3.75 22.5 20  7.5 22.5 17.5  7.5 22.5 18.75  7.5 21.25 18.75  6.25 21.25 18.75  7.5 22.5 20  7.5 21.25 20  6.25 21.25 20  6.25 22.5 18.75  6.25 22.5 20  10 22.5 17.5  10 22.5 18.75  10 21.25 18.75  8.75 21.25 18.75  10 22.5 20  10 21.25 20  8.75 21.25 20  8.75 22.5 18.75  8.75 22.5 20  12.5 21.25 20  12.5 21.25 18.75  11.25 21.25 18.75  12.5 22.5 20  11.25 21.25 20  11.25 22.5 20  11.25 22.5 18.75  15 22.5 20  15 22.5 18.75  15 21.25 18.75  13.75 21.25 18.75  15 21.25 20  13.75 21.25 20  13.75 22.5 18.75  13.75 22.5 20  17.5 22.5 20  17.5 22.5 18.75  17.5 21.25 18.75  16.25 21.25 18.75  17.5 20 20  17.5 21.25 20  16.25 21.25 20  16.25 20 20  16.25 22.5 18.75  16.25 22.5 20  18.75 21.25 20  18.75 21.25 18.75  18.75 22.5 20  20 22.5 20  18.75 22.5 18.75  1.25 23.75 20  1.25 23.75 18.75  0 23.75 20  0 23.75 18.75  0 25 20  7.5 23.75 18.75  6.25 23.75 18.75  7.5 23.75 20  7.5 25 20  6.25 23.75 20  10 23.75 18.75  8.75 23.75 18.75  10 23.75 20  8.75 23.75 20  11.25 23.75 18.75  11.25 23.75 20  15 23.75 20  15 23.75 18.75  13.75 23.75 18.75  15 25 20  13.75 23.75 20  17.5 23.75 20  17.5 23.75 18.75  16.25 23.75 18.75  17.5 25 20  16.25 23.75 20  18.75 23.75 20  18.75 23.75 18.75  20 23.75 20  20 25 20  18.75 25 20  0 0 22.5  1.25 1.25 22.5  1.25 0 22.5  1.25 1.25 21.25  2.5 0 22.5  2.5 1.25 22.5  2.5 2.5 22.5  0 1.25 22.5  0 2.5 22.5  1.25 2.5 22.5  5 2.5 20  5 2.5 21.25  5 1.25 21.25  3.75 1.25 21.25  5 2.5 22.5  5 0 22.5  5 1.25 22.5  3.75 1.25 22.5  3.75 0 22.5  3.75 0 21.25  3.75 2.5 21.25  3.75 2.5 22.5  7.5 2.5 22.5  7.5 2.5 21.25  7.5 1.25 21.25  6.25 1.25 21.25  7.5 0 22.5  7.5 1.25 22.5  7.5 0 21.25  6.25 0 21.25  6.25 1.25 22.5  6.25 0 22.5  6.25 2.5 21.25  6.25 2.5 22.5  10 2.5 20  10 2.5 21.25  10 1.25 21.25  8.75 1.25 21.25  10 2.5 22.5  10 0 22.5  10 1.25 22.5  8.75 1.25 22.5  8.75 0 22.5  8.75 0 21.25  8.75 2.5 21.25  8.75 2.5 22.5  12.5 2.5 20  12.5 2.5 21.25  12.5 1.25 21.25  11.25 1.25 21.25  12.5 2.5 22.5  12.5 0 22.5  12.5 1.25 22.5  12.5 0 21.25  11.25 0 21.25  11.25 1.25 22.5  11.25 0 22.5  11.25 2.5 21.25  11.25 2.5 20  11.25 2.5 22.5  13.75 1.25 22.5  13.75 0 22.5  13.75 1.25 21.25  13.75 0 21.25  15 1.25 22.5  15 2.5 22.5  13.75 2.5 22.5  13.75 2.5 21.25  16.25 2.5 22.5  2.5 5 21.25  2.5 3.75 21.25  1.25 3.75 21.25  2.5 5 22.5  2.5 3.75 22.5  1.25 3.75 22.5  0 5 20  1.25 5 21.25  1.25 5 20  0 3.75 22.5  0 3.75 21.25  0 5 22.5  1.25 5 22.5  0 5 21.25  5 5 21.25  5 3.75 21.25  3.75 3.75 21.25  5 5 22.5  5 3.75 22.5  3.75 3.75 22.5  3.75 5 21.25  3.75 5 22.5  7.5 5 21.25  7.5 3.75 21.25  6.25 3.75 21.25  7.5 5 22.5  7.5 3.75 22.5  6.25 3.75 22.5  6.25 5 21.25  6.25 5 22.5  10 5 21.25  10 3.75 21.25  8.75 3.75 21.25  10 5 22.5  10 3.75 22.5  8.75 3.75 22.5  8.75 5 21.25  8.75 5 22.5  12.5 3.75 21.25  12.5 3.75 20  11.25 3.75 21.25  12.5 5 20  12.5 5 21.25  12.5 5 22.5  12.5 3.75 22.5  11.25 3.75 22.5  11.25 5 21.25  11.25 5 20  11.25 5 22.5  13.75 3.75 21.25  13.75 3.75 22.5  15 3.75 22.5  15 5 22.5  13.75 5 22.5  13.75 5 21.25  17.5 5 20  17.5 5 21.25  17.5 3.75 21.25  16.25 3.75 21.25  17.5 5 22.5  17.5 3.75 22.5  16.25 3.75 22.5  16.25 5 21.25  16.25 5 22.5  18.75 5 22.5  18.75 5 21.25  1.25 6.25 21.25  1.25 6.25 20  2.5 6.25 21.25  2.5 7.5 21.25  2.5 7.5 22.5  2.5 6.25 22.5  1.25 6.25 22.5  0 6.25 20  1.25 7.5 21.25  0 6.25 21.25  0 6.25 22.5  0 7.5 22.5  1.25 7.5 22.5  0 7.5 21.25  3.75 6.25 21.25  5 6.25 21.25  5 7.5 21.25  5 7.5 22.5  5 6.25 22.5  3.75 6.25 22.5  3.75 7.5 21.25  3.75 7.5 22.5  6.25 6.25 21.25  7.5 6.25 21.25  7.5 7.5 21.25  7.5 7.5 22.5  7.5 6.25 22.5  6.25 6.25 22.5  6.25 7.5 21.25  6.25 7.5 22.5  8.75 6.25 21.25  10 6.25 21.25  10 7.5 21.25  10 7.5 22.5  10 6.25 22.5  8.75 6.25 22.5  8.75 7.5 21.25  8.75 7.5 22.5  11.25 6.25 21.25  11.25 6.25 20  12.5 6.25 21.25  12.5 6.25 20  12.5 7.5 21.25  12.5 7.5 22.5  12.5 6.25 22.5  11.25 6.25 22.5  11.25 7.5 21.25  11.25 7.5 22.5  15 7.5 21.25  15 6.25 21.25  13.75 6.25 21.25  15 7.5 22.5  15 6.25 22.5  13.75 6.25 22.5  13.75 7.5 21.25  13.75 7.5 22.5  17.5 6.25 21.25  16.25 6.25 21.25  17.5 6.25 22.5  17.5 7.5 22.5  16.25 6.25 22.5  16.25 7.5 22.5  16.25 7.5 21.25  18.75 6.25 21.25  18.75 6.25 22.5  20 6.25 22.5  20 7.5 22.5  18.75 7.5 22.5  18.75 7.5 21.25  1.25 8.75 21.25  2.5 8.75 21.25  2.5 10 21.25  2.5 10 22.5  2.5 8.75 22.5  1.25 8.75 22.5  1.25 10 21.25  0 8.75 21.25  0 8.75 22.5  0 10 22.5  1.25 10 22.5  0 10 21.25  3.75 8.75 21.25  5 8.75 21.25  5 10 21.25  5 10 22.5  5 8.75 22.5  3.75 8.75 22.5  3.75 10 21.25  3.75 10 22.5  6.25 8.75 21.25  7.5 8.75 21.25  7.5 10 21.25  7.5 10 22.5  7.5 8.75 22.5  6.25 8.75 22.5  6.25 10 21.25  6.25 10 22.5  8.75 8.75 21.25  10 8.75 21.25  10 10 21.25  10 10 22.5  10 8.75 22.5  8.75 8.75 22.5  8.75 10 21.25  8.75 10 22.5  11.25 8.75 21.25  12.5 8.75 21.25  12.5 10 21.25  12.5 10 22.5  12.5 8.75 22.5  11.25 8.75 22.5  11.25 10 21.25  11.25 10 22.5  13.75 8.75 21.25  15 8.75 21.25  15 10 21.25  15 10 22.5  15 8.75 22.5  13.75 8.75 22.5  13.75 10 21.25  13.75 10 22.5  17.5 8.75 22.5  17.5 8.75 21.25  16.25 8.75 21.25  17.5 10 22.5  16.25 8.75 22.5  16.25 10 22.5  16.25 10 21.25  18.75 8.75 22.5  18.75 8.75 21.25  18.75 10 22.5  20 10 22.5  2.5 11.25 21.25  1.25 11.25 21.25  2.5 12.5 21.25  2.5 12.5 22.5  2.5 11.25 22.5  1.25 11.25 22.5  1.25 12.5 21.25  0 11.25 21.25  0 11.25 22.5  0 12.5 22.5  1.25 12.5 22.5  0 11.25 20  0 12.5 21.25  3.75 11.25 21.25  5 11.25 21.25  5 12.5 21.25  5 12.5 22.5  5 11.25 22.5  3.75 11.25 22.5  3.75 12.5 21.25  3.75 12.5 22.5  7.5 11.25 21.25  6.25 11.25 21.25  7.5 12.5 21.25  7.5 12.5 22.5  7.5 11.25 22.5  6.25 11.25 22.5  6.25 12.5 21.25  6.25 12.5 22.5  8.75 11.25 21.25  10 11.25 21.25  10 12.5 21.25  10 12.5 22.5  10 11.25 22.5  8.75 11.25 22.5  8.75 12.5 21.25  8.75 12.5 22.5  11.25 11.25 21.25  12.5 11.25 21.25  12.5 12.5 21.25  12.5 12.5 22.5  12.5 11.25 22.5  11.25 11.25 22.5  11.25 12.5 21.25  11.25 12.5 22.5  15 12.5 20  15 12.5 21.25  15 11.25 21.25  13.75 11.25 21.25  15 12.5 22.5  15 11.25 22.5  13.75 11.25 22.5  13.75 12.5 21.25  13.75 12.5 22.5  17.5 12.5 20  17.5 12.5 21.25  17.5 11.25 2
[...]
<PointData  Scalars="p_O2"> 
<DataArray  type="Float64"  Name="p_O2"  format="ascii">9.0862219303757627e+01  6.9860779859148607e+01  9.1551023535404227e+01  9.1453058277201734e+01  9.1569009644199326e+01  7.1110415901172090e+01  9.1609153774844813e+01  9.1569009654865738e+01  7.1521807658796192e+01  5.4250438507502132e+01  9.0907442704202396e+01  9.0862219310103512e+01  7.0095282070271693e+01  9.1453058266972945e+01  7.1853828633574935e+01  9.2109249360028571e+01  9.2029475876855400e+01  9.2131548574822318e+01  7.2028058660155054e+01  5.5604839798883972e+01  5.6452244689842971e+01  6.9860779859038757e+01  7.1110415901119595e+01  5.4644945500593650e+01  5.4250438519674567e+01  9.1551023535367293e+01  9.1609153775054253e+01  9.1569009644518118e+01  7.1521807672188785e+01  7.1853828633524842e+01  5.6301043875803686e+01  7.2028058719021715e+01  5.5604839833057653e+01  4.5413468003071678e+01  4.5717424586906382e+01  4.6950189525707827e+01  4.1682052818939120e+01  4.5717424615048650e+01  7.1853828814102570e+01  5.6301043991195563e+01  4.5413468074085067e+01  7.1521807671890869e+01  7.1110415981172892e+01  6.9860779964089147e+01  5.4250438519323744e+01  7.0095282105147149e+01  9.1551023588251198e+01  7.2028058718926928e+01  7.1853828813934456e+01  9.2109249447627619e+01  7.3199000685983208e+01  5.6452244714517413e+01  5.5604839832854061e+01  5.6301043991051714e+01  4.5717424614851495e+01  4.5413468073755048e+01  4.6950189540465480e+01  4.1682052818995999e+01  5.4644945500501422e+01  5.6301043875797703e+01  5.6778891555709656e+01  4.5413468002950353e+01  4.0088203807525076e+01  4.0079851303165604e+01  4.0079488455294978e+01  4.0080705309803470e+01  4.0072992349164501e+01  4.0100101847752271e+01  4.0083995191949434e+01  4.0110145531262702e+01  4.0072039078524604e+01  4.0067884393989232e+01  4.0074576423914202e+01  4.0074984331484515e+01  4.0076637683471617e+01  4.0077336103432749e+01  4.0089464853845683e+01  4.0087498258041300e+01  4.0059948108977672e+01  4.0085985532475028e+01  4.0089661714547852e+01  4.0129784592826013e+01  4.0076223209023993e+01  4.0075983525176404e+01  4.0087866396868300e+01  4.0187768838748411e+01  4.0086268025724472e+01  4.0106386298370111e+01  4.0102954167790678e+01  4.0079580646556892e+01  4.0078839827884458e+01  4.0078731638358150e+01  4.0000000000000000e+01  4.0081512399317631e+01  4.0068802299728198e+01  4.0090058002677878e+01  4.0070964997148863e+01  4.0070164189206132e+01  4.0000000000000000e+01  4.0000000000000000e+01  4.0067920214674338e+01  4.0073009330676683e+01  4.0072382235500122e+01  4.0072981890034541e+01  4.0073401354015651e+01  4.0073682653435135e+01  4.0073906509659999e+01  4.0073830857587531e+01  4.0073723694445555e+01  4.0073163176659470e+01  4.0072310453558096e+01  4.0073236374302915e+01  4.0073006766541084e+01  4.0073729135679422e+01  4.0074782400765372e+01  4.0074331517461729e+01  4.0073138339114351e+01  4.0073136791964465e+01  4.0073739791534592e+01  4.0073525804168881e+01  4.0073281012015933e+01  4.0075119705983454e+01  4.0083137563354001e+01  4.0074511600152555e+01  4.0081716663334056e+01  4.0076306438274578e+01  4.0073340756300404e+01  4.0073606333749950e+01  4.0076723961680514e+01  4.0090633106898494e+01  4.0076028272465585e+01  4.0086030226719558e+01  4.0078765652465805e+01  4.0073814806802659e+01  4.0073995329510083e+01  4.0073811309547835e+01  4.0073177923439729e+01  4.0072934015971256e+01  4.0073366096743243e+01  4.0071081568362352e+01  4.0070122993448258e+01  4.0073822549000269e+01  4.0073087767377849e+01  4.0072935903455971e+01  4.0072929153168545e+01  4.0073195502036612e+01  4.0073163435488546e+01  4.0073046489541021e+01  4.0073305385698490e+01  4.0073355215888590e+01  4.0073137776717743e+01  4.0073010945392774e+01  4.0073164745498964e+01  4.0073137769901336e+01  4.0073226967759595e+01  4.0073113851079327e+01  4.0000000000000000e+01  4.0081150689598580e+01  4.0067899804065846e+01  4.0089757545333086e+01  4.0071090331204566e+01  4.0070133198465911e+01  4.0000000000000000e+01  4.0000000000000000e+01  4.0067899045573270e+01  4.0081149339694342e+01  4.0073790171874471e+01  4.0073165384849005e+01  4.0072930354381739e+01  4.0073374796543312e+01  4.0073822559838057e+01  4.0073209157195294e+01  4.0073614352491838e+01  4.0072745340947343e+01  4.0073032806723099e+01  4.0073304805950706e+01  4.0073610228334196e+01  4.0073209666517926e+01  4.0073123519850945e+01  4.0072902527610367e+01  4.0073054329812372e+01  4.0073188110787321e+01  4.0073342945204196e+01  4.0073099349451553e+01  4.0072995574097163e+01  4.0073067440891933e+01  4.0073128472085550e+01  4.0073204320423692e+01  4.0071091559658967e+01  4.0072687535626393e+01  4.0089756255040335e+01  4.0070133294323973e+01  4.0081149148633472e+01  4.0000000000000000e+01  4.0000000000000000e+01  4.0067898830132762e+01  4.0073789728924751e+01  4.0073164866738807e+01  4.0072932014249524e+01  4.0073375032784604e+01  4.0073822207578864e+01  4.0073209473486720e+01  4.0072746126642741e+01  4.0073033489251230e+01  4.0073305423436878e+01  4.0073609784928976e+01  4.0073209286505687e+01  4.0071091601941610e+01  4.0072687505272604e+01  4.0089756177683626e+01  4.0070133323663640e+01  4.0081149049993400e+01  4.0000000000000000e+01  4.0000000000000000e+01  4.0067898787252204e+01  4.0072932072440402e+01  4.0072232195107318e+01  4.0073164662491834e+01  4.0073375070861850e+01  4.0073789531769783e+01  4.0073822165065870e+01  4.0073209195838892e+01  4.0072745844443496e+01  4.0073033554757302e+01  4.0073305440385894e+01  4.0073609727058091e+01  4.0073209195748291e+01  4.0073121804493816e+01  4.0073342415566486e+01  4.0072901983968286e+01  4.0073188895473876e+01  4.0073052983265832e+01  4.0073188897389542e+01  4.0073342331096981e+01  4.0073121804386432e+01  4.0073128790306782e+01  4.0073062977023241e+01  4.0072981381643508e+01  4.0072992154177378e+01  4.0073128798960795e+01  4.0073094113673598e+01  4.0073203336173421e+01  4.0073203221438554e+01  4.0073094113523673e+01  4.0073082851785315e+01  4.0073135748076290e+01  4.0073035281192361e+01  4.0073099885039710e+01  4.0073068368247789e+01  4.0073099898454473e+01  4.0073135592923116e+01  4.0081149025850394e+01  4.0089756153661078e+01  4.0071091601854739e+01  4.0070133322774417e+01  4.0000000000000000e+01  4.0000000000000000e+01  4.0067898780290314e+01  4.0081149040891916e+01  4.0073789507324754e+01  4.0073164634974567e+01  4.0072932075040583e+01  4.0073375070374397e+01  4.0073822157186605e+01  4.0073305423418681e+01  4.0073033551467823e+01  4.0072653564489798e+01  4.0072745816097950e+01  4.0073305440474350e+01  4.0073033555469578e+01  4.0073209170490756e+01  4.0073209183247926e+01  4.0073609718051692e+01  4.0073188895051430e+01  4.0073052978667540e+01  4.0072876686931586e+01  4.0072901950349582e+01  4.0073188897016330e+01  4.0073052978323410e+01  4.0073121771778801e+01  4.0073121790279821e+01  4.0073342320661069e+01  4.0073062964807576e+01  4.0072981349213968e+01  4.0072992110316015e+01  4.0073128796131542e+01  4.0073094068462709e+01  4.0073203208522827e+01  4.0073094096678197e+01  4.0073099891522148e+01  4.0073068354630607e+01  4.0073030274522218e+01  4.0073035228151049e+01  4.0073068345161815e+01  4.0073082794586476e+01  4.0073082830838004e+01  4.0073135575763708e+01  4.0073086130734232e+01  4.0073071124002638e+01  4.0073053267358318e+01  4.0073055564344436e+01  4.0073086142230707e+01  4.0073071098940375e+01  4.0073077871963079e+01  4.0073103178281329e+01  4.0073077914739606e+01  4.0073103154729914e+01  4.0073075657758572e+01  4.0073065173255884e+01  4.0073087705109714e+01  4.0073079601554184e+01  4.0073075714396012e+01  4.0081149023128880e+01  4.0089756150915832e+01  4.0000000000000000e+01  4.0000000000000000e+01  4.0000000000000000e+01  4.0072653561829242e+01  4.0072745811670075e+01  4.0073033554188285e+01  4.0073305440069241e+01  4.0073209166466278e+01  4.0072876683583793e+01  4.0072901945536380e+01  4.0073052976582971e+01  4.0073121767422151e+01  4.0072992105099452e+01  4.0073094063638251e+01  4.0073068340948069e+01  4.0073030268772229e+01  4.0073035222450436e+01  4.0073099890373534e+01  4.0073082788844680e+01  4.0073071092517075e+01  4.0073053259360719e+01  4.0073055557510507e+01  4.0073086129118032e+01  4.0073077864597643e+01  4.0073075648027562e+01  4.0073065164733222e+01  4.0073072458991092e+01  4.0073079599178740e+01  4.0073087702164230e+01  4.0000000000000000e+01  4.0851831291646249e+01  6.7078489071195833e+01  4.0438209823821765e+01  7.4070551022637105e+01  4.6209755678793293e+01  3.9776558475030718e+01  4.0000000000000000e+01  4.0000000000000000e+01  4.0627468589789679e+01  4.1099409367688672e+01  4.1426216231877326e+01  5.1338793695176967e+01  4.7509278654507497e+01  4.1099409358182115e+01  8.3014518554310840e+01  5.3562930744036890e+01  4.8572049120294110e+01  8.1428869483157143e+01  8.4726421178077828e+01  4.1510429671376201e+01  4.0965354371279616e+01  4.3447078652734191e+01  4.3928820472507901e+01  5.7697721402523861e+01  5.4582541754062987e+01  8.6646628306188745e+01  5.9410359469538079e+01  8.6887896985570748e+01  8.7331236414625138e+01  5.5631948579404444e+01  8.6408543534187402e+01  4.3549826085774093e+01  4.2629358420398894e+01  4.6241867175591054e+01  4.6787543966060845e+01  6.2557735321558056e+01  6.0080846003919639e+01  4.6241867154489022e+01  8.8636778730118564e+01  6.3734817526982205e+01  6.0853826598067961e+01  8.8533197043428089e+01  8.8861682203352288e+01  4.6204579984862235e+01  4.5124875420790922e+01  4.9092507737193877e+01  4.9621673699613716e+01  6.6179957762923820e+01  6.4227785258115119e+01  4.9092507702487268e+01  8.9933824839011052e+01  6.6975668746171166e+01  8.9986021714364355e+01  8.9990664993948499e+01  6.4737538444656764e+01  8.9813346059606928e+01  4.8998861566432709e+01  4.7927544882394798e+01  4.7927544804911705e+01  6.7724098256371235e+01  9.0736844184543386e+01  6.7387525034183327e+01  9.0861975264790757e+01  6.9494582609882045e+01  5.1791232549757765e+01  5.0703398467536871e+01  5.1670688110704631e+01  5.3282463512681879e+01  4.0099271356300889e+01  4.0163163986565920e+01  4.0167793851497038e+01  4.0100101844149641e+01  4.0147986259998618e+01  4.0155685517857876e+01  4.0000000000000000e+01  4.0092738501736108e+01  4.0078513338361013e+01  4.0000000000000000e+01  4.0000000000000000e+01  4.0000000000000000e+01  4.0078513313445796e+01  4.0000000000000000e+01  4.0083806280722527e+01  4.0253863189987435e+01  3.9957287732895217e+01  4.0088203806464342e+01  4.0356163457862863e+01  3.9986629055471504e+01  4.0092154355134731e+01  4.0110145504499037e+01  4.0067823786750722e+01  4.0587173083364142e+01  4.0048378027099758e+01  4.0059948111231201e+01  4.0840516622354841e+01  4.0129589002466005e+01  4.0122556858906634e+01  4.0129784562857076e+01  4.0137134601441211e+01  4.1262041545681818e+01  4.0551886468834716e+01  4.0106386303441276e+01  4.1659693452796148e+01  4.0699406643378232e+01  4.0223282990206378e+01  4.0187768803199376e+01  4.2256663333317022e+01  4.2765116862333123e+01  4.1432256327591247e+01  4.0282291954113340e+01  4.0342127064130629e+01  4.0282291961269202e+01  4.2765116836165951e+01  4.1644782790690748e+01  4.0431942371598659e+01  4.0335655577614794e+01  4.0335655532541814e+01  4.2599613921269047e+01  4.2862950375668355e+01  4.4070342478671314e+01  4.0608114168873080e+01  4.0606701823314687e+01  4.0769619082947550e+01  4.1080435580338317e+01  4.1201004636570637e+01  4.4885564481459681e+01  4.3955454513572136e+01  4.1080435590726509e+01  4.5488720644557567e+01  4.4249199526372173e+01  4.1239217994638274e+01  4.1012874912010815e+01  4.1549077937192308e+01  4.1829811108294209e+01  4.0086758730154592e+01  4.0079991876471773e+01  4.0071928550327968e+01  4.0069230615721828e+01  4.0067884391776147e+01  4.0072039072625287e+01  4.0079991855404913e+01  4.0000000000000000e+01  4.0081671297447095e+01  4.0000000000000000e+01  4.0000000000000000e+01  4.0000000000000000e+01  4.0068802286867026e+01  4.0000000000000000e+01  4.0080705256961316e+01  4.0079488427363131e+01  4.0073259922553994e+01  4.0072992346939834e+01  4.0079851295532059e+01  4.0083995167942120e+01  4.0074984292231314e+01  4.0074576409623383e+01  4.0087498199507657e+01  4.0089464816299781e+01  4.0077336094188396e+01  4.0076637681195621e+01  4.0085985523128137e+01  4.0089661687077410e+01  4.0076223165378671e+01  4.0075983508573358e+01  4.0086267957817000e+01  4.0103527522964598e+01  4.0080508089433600e+01  4.0079580642906230e+01  4.0102954154800116e+01  4.0087866365520227e+01  4.0078731582451404e+01  4.0078839808085604e+01  4.0087109584157332e+01  4.0091831148321454e+01  4.0134533198344400e+01  4.0146769065636526e+01  4.0083062269770473e+01  4.0081716656128108e+01  4.0146769045522014e+01  4.0091831112064803e+01  4.0082727728772447e+01  4.0083137538432617e+01  4.0088665401633577e+01  4.0198524972332919e+01  4.0110042266598569e+01  4.0086030214074732e+01  4.0232547571051114e+01  4.0122262862042177e+01  4.0091513460115472e+01  4.0090633073565066e+01  4.0309675137358163e+01  4.0174834422543960e+01  4.0371737163987717e+01  4.0098085715644324e+01  4.0198292281911769e+01  4.0105404460367275e+01  4.0110433103498295e+01  4.0296185143989973e+01  4.0333415865769915e+01  4.0571158312637472e+01  4.0124643102740237e+01  4.0132991450723345e+01  4.0145578157465678e+01  4.0090057968930971e+01  4.0072829270923989e+01  4.0071148911543801e+01  4.0070164187854573e+01  4.0070964993492197e+01  4.0081512385122693e+01  4.0081164849792650e+01  4.0000000000000000e+01  4.0000000000000000e+01  4.0000000000000000e+01  4.0067920204210210e+01  4.0000000000000000e+01  4.0072981851376646e+01  4.0072382220107890e+01  4.0072977705389469e+01  4.0073401353424401e+01  4.0073009326242634e+01  4.0073682636745502e+01  4.0073830823784085e+01  4.0073906498221767e+01  4.0072310411181014e+01  4.0073163157779007e+01  4.0073005544973611e+01  4.0073236374746926e+01  4.0073723689777410e+01  4.0073006747147843e+01  4.0073254719761877e+01  4.0073729122786702e+01  4.0073138287417457e+01  4.0074331489895869e+01  4.0073097891721176e+01  4.0073136792569265e+01  4.0074782394714397e+01  4.0073739768927865e+01  4.0073280966688088e+01  4.0073525789543773e+01  4.0074511532908453e+01  4.0075979688270138e+01  4.0073440191652992e+01  4.0073340755039389e+01  4.0076306428313011e+01  4.0075119678366441e+01  4.0073550947316200e+01  4.0073606316002895e+01  4.0076028188580764e+01  4.0078386714483578e+01  4.0074021886505591e+01  4.0073814802080577e+01  4.0078765636431825e+01  4.0076723926740968e+01  4.0074055246602150e+01  4.0073995306652009e+01  4.0083332277206530e+01  4.0082365735075548e+01  4.0077842119010398e+01  4.0074514431248971e+01  4.0078786972748937e+01  4.0074720543348619e+01  4.0074859664610322e+01  4.0082445949813703e+01  4.0080939709285992e+01  4.0075910133291117e+01  4.0075540206380730e+01  4.0072682024663209e+01  4.0089739110447034e+01  4.0071083665274095e+01  4.0070122992241849e+01  4.0071081565171347e+01  4.0081140655304530e+01  4.0081147681617303e+01  4.0000000000000000e+01  4.0000000000000000e+01  4.0000000000000000e+01  4.0067899795850821e+01  4.0000000000000000e+01  4.0000000000000000e+01  4.0073177889010537e+01  4.0072243333187274e+01  4.0072927307450932e+01  4.0073366095868700e+01  4.0072934012129821e+01  4.0073811295548985e+01  4.0073791278143219e+01  4.0073822539804375e+01  4.0072687224719914e+01  4.0072778391215977e+01  4.0073038828726759e+01  4.0073305385226242e+01  4.0073046485358489e+01  4.0073253273447342e+01  4.0073215094505642e+01  4.0073614342109316e+01  4.0072929110280022e+01  4.0072935878765058e+01  4.0073066326432276e+01  4.0073195500914174e+01  4.0073087761769216e+01  4.0073163417475634e+01  4.0073133407368076e+01  4.0073355203895261e+01  4.0073010891381983e+01  4.0073093975069213e+01  4.0073081354291666e+01  4.0073137766024388e+01  4.0073164736160827e+01  4.0073137755636445e+01  4.0073113800995394e+01  4.0073226953104125e+01  4.0073115045380078e+01  4.0073098304901691e+01  4.0073262231281923e+01  4.0073089670499947e+01  4.0073115037047017e+01  4.0073314553360902e+01  4.0073182886958861e+01  4.0073119392929669e+01  4.0073175984203658e+01  4.0073125125596981e+01  4.0073134072435799e+01  4.0073507873643663e+01  4.0073228473848474e+01  4.0073125112124089e+01  4.0073569255573297e+01  4.0073325474187556e+01  4.0073151778856513e+01  4.0073175717939378e+01  4.0073175692042398e+01  4.0073581920635014e+01  4.0073459956928382e+01  4.0073979806498940e+01  4.0073174305257773e+01  4.0073222035224241e+01  4.0073221622886145e+01  4.0089757519810057e+01  4.0072687819052810e+01  4.0071091684251861e+01  4.0070133197405475e+01  4.0071090328358203e+01  4.0081150679827061e+01  4.0081149314857385e+01  4.0000000000000000e+01  4.0000000000000000e+01  4.0000000000000000e+01  4.0067899038264798e+01  4.0000000000000000e+01  4.0073165355492549e+01  4.0072232126927283e+01  4.0072932083012745e+01  4.0073374795872908e+01  4.0072930350854477e+01  4.0073790160114598e+01  4.0073789996102143e+01  4.0073822551632318e+01  4.0072745310520581e+01  4.0072653913138879e+01  4.0073033280074199e+01  4.0073304805649350e+01  4.0073032802953151e+01  4.0073209143796959e+01  4.0073209640191934e+01  4.0073610218873760e+01  4.0072902491589645e+01  4.0072879187111212e+01  4.0073052755171844e+01  4.0073188110091117e+01  4.0073054324709041e+01  4.0073123504760815e+01  4.0073122376489351e+01  4.0073342934283446e+01  4.0072995527643037e+01  4.0072987695432886e+01  4.0073063495971269e+01  4.0073128468897188e+01  4.0073067432012493e+01  4.0073099331580764e+01  4.0073095270252885e+01  4.0073204307114239e+01  4.0073042428481287e+01  4.0073077970930477e+01  4.0073041716894245e+01  4.0073100589595363e+01  4.0073070253024369e+01  4.0073100582394126e+01  4.0073077956474648e+01  4.0073091947430044e+01  4.0073085150763973e+01  4.0073137832551282e+01  4.0073137814947621e+01  4.0073065450811839e+01  4.0073075059676796e+01  4.0073090651130279e+01  4.0073088220145699e+01  4.0073091820834904e+01  4.0073107359302810e+01  4.0073082108769292e+01  4.0073111354113237e+01  4.0073103327985933e+01  4.0073081631928993e+01  4.0073083759314102e+01  4.0073098617935280e+01  4.0073095073512157e+01  4.0073083092331800e+01  4.0073100840266889e+01  4.0089756230875366e+01  4.0072687525992016e+01  4.0071091589561689e+01  4.0070133293443284e+01  4.0071091557028858e+01  4.0081149139431794e+01  4.0081149074615489e+01  4.0000000000000000e+01  4.0000000000000000e+01  4.0000000000000000e+01  4.0067898823108862e+01  4.0000000000000000e+01  4.0073164838959620e+01  4.0072232251827977e+01  4.0072932067695305e+01  4.0073375032255001e+01  4.0072932011056473e+01  4.0073789717819793e+01  4.0073789577110539e+01  4.0073822199665614e+01  4.0072746097914525e+01  4.0072653676607153e+01  4.0073033575973589e+01  4.0073305423360537e+01  4.0073033485778247e+01  4.0073209460772595e+01  4.0073209260989451e+01  4.0073609775772809e+01  4.0072876840853695e+01  4.0073052922470573e+01  4.0072902206116808e+01  4.0073053020630745e+01  4.0073188895023193e+01  4.0073052917735630e+01  4.0073122059097791e+01  4.0073121879831000e+01  4.0073342404973879e+01  4.0072992307728612e+01  4.0073094365174271e+01  4.0072981604653371e+01  4.0073063014134966e+01  4.0073063013087690e+01  4.0073128787481785e+01  4.0073063005880641e+01  4.0073094348090393e+01  4.0073094194547259e+01  4.0073203323192935e+01  4.0073068412558719e+01  4.0073030803116708e+01  4.0073035481227770e+01  4.0073099878162850e+01  4.0073068672480034e+01  4.0073083213479613e+01  4.0073082956186809e+01  4.0073135730936990e+01  4.0073071978550281e+01  4.0073054347796337e+01  4.0073056093451477e+01  4.0073086158270989e+01  4.0073078681196826e+01  4.0073103388199833e+01  4.0073078117886638e+01  4.0073077144216278e+01  4.0073066224216426e+01  4.0073074303617155e+01  4.0073079753969139e+01  4.0073088096340733e+01  4.0089756153727556e+01  4.0072687495733710e+01  4.0071091601853404e+01  4.0070133322737739e+01  4.0071091599371606e+01  4.0081149040936296e+01  4.0081149025871611e+01  4.0000000000000000e+01  4.0000000000000000e+01  4.0000000000000000e+01  4.0067898780279165e+01  4.0000000000000000e+01  4.0073164634913248e