<?xml version="1.0"?>
<VTKFile type="UnstructuredGrid"  version="0.1"  >
<UnstructuredGrid>
<Piece  NumberOfPoints="7796" NumberOfCells="31144">
<Points>
<DataArray  type="Float64"  NumberOfComponents="3"  format="ascii">10.48579025268555 22.94625091552734 4.000820159912109  10.30490016937256 23.51964950561523 3.562145948410034  9.884129524230957 22.48970031738281 3.57850193977356  9.78626821577277 22.91605222429515 4.03818515464065  13.67074012756348 31.98299026489258 12.78917980194092  14.00121523298678 31.92354677927371 11.34140185052651  13.21115970611572 32.28887176513672 12.31614017486572  14.10286045074463 32.65092086791992 12.33504962921143  38.88113021850586 35.38135147094727 22.06880950927734  39.09764862060547 34.62228012084961 21.91295051574707  39.36452865600586 35.34934997558594 22.81365013122559  38.67735483063471 34.84482884312251 22.71195725727152  13.0464338470996 29.82888292379902 1.799756449573098  12.57073974609375 28.62719917297363 2.218846082687378  11.69111192037056 29.81938916292621 2.294617749241475  11.89345747477133 28.91239100879213 1.791456765140742  24.22996891874948 36.64350979726669 18.24660652791524  22.89839900742558 37.48639348696763 17.88178627657244  22.60429124671926 36.57286876850406 18.63107125019338  22.84549597719834 37.49523845956726 19.12194224078793  15.15660082172451 37.31346035352627 1.369503876994743  15.42129039764404 37.10646820068359 0.1048400029540062  15.23762989044189 38.0689697265625 0.1048400029540062  16.09352858567951 37.40915655330059 0.7958769635275149  10.40314960479736 26.74275016784668 7.793661117553711  10.47809982299805 27.64455032348633 7.877871990203857  10.9942798614502 26.92878913879395 8.511281967163086  11.02078046159205 26.59097624031946 7.546492247318595  19.16541533536576 26.93239723846993 4.56077787163592  18.36054992675781 26.84082984924316 4.27515697479248  18.45066717235213 27.813673026696 4.889445816938563  18.72853363351623 28.10720513163825 3.802489759803013  1.4689040184021 28.30841064453125 13.97904968261719  2.2776780128479 28.21422958374023 14.51060962677002  2.079698085784912 29.11433982849121 14.00722026824951  1.884029742830035 28.52425038340512 15.04909862719077  27.96095802817873 31.70989357540611 11.28178833485667  27.46712651199603 31.13279939001692 10.75514400225412  27.77153198309124 32.54561440216078 10.26644575665489  28.34726726960385 31.38016834599324 10.41073637515108  24.18511798586453 29.85876844201011 5.392822124199451  22.70964245346657 29.42987923378392 4.383347683129884  24.182854541272 29.25748641909509 4.415279004282535  23.74705558672896 28.96394877216283 5.574087510144928  0.09939099848270416 32.97573852539062 17.80257034301758  0.7163030293316546 32.96768932187619 18.95638294102881  0.09939099848270416 33.08543014526367 18.85026931762695  0.09939099848270416 32.32062149047852 18.65842056274414  16.74762014234132 30.7978813050293 11.82286361565243  17.0958872551243 31.69914617752804 12.75400987287767  15.97600385060102 30.60045944439386 13.09269058030769  17.48604536686565 30.47799832581902 12.67889184979957  2.869144916534424 21.08499908447266 5.50863790512085  2.882909059524536 20.69696998596191 4.709012985229492  2.123054981231689 20.98962020874023 5.170475006103516  2.207303055296281 21.62919601613692 4.901826813196545  20.74514007568359 38.88845825195312 0.7129160165786743  19.75756072998047 39.02396011352539 0.1048400029540062  20.31389045715332 38.37722015380859 0.1048400029540062  19.88178059861684 38.49392815754908 0.9994552126303922  22.83518028259277 38.61083984375 7.292812824249268  22.66287040710449 39.28430938720703 7.399375915527344  22.37887954711914 38.85414123535156 6.832447052001953  21.86125511060087 38.63004507952998 7.451431028369624  17.39532455348581 29.91807957024508 17.22139727937145  16.63099353739005 30.93549373378525 17.86715205471835  15.82284297568097 29.65530857119017 17.80282120229804  17.04139184019597 29.35308935772967 18.04771018284706  11.19754981994629 29.68054962158203 10.91946983337402  10.82802963256836 30.39613914489746 11.26424026489258  11.55702972412109 30.02610015869141 11.63121032714844  12.06792154636636 30.22883411271087 10.95481335865397  20.74201965332031 35.43532943725586 15.54279041290283  21.02756931679937 34.6482618659571 16.26895275051182  20.78421020507812 35.56872940063477 16.46343040466309  20.41811943054199 34.93489074707031 16.13936996459961  16.80031967163086 39.29072189331055 0.7553769946098328  16.26238059997559 39.89572906494141 1.597831964492798  15.60216045379639 39.41247177124023 0.9607849717140198  16.44584946710652 38.49075900762531 1.106297930569065  38.71823120117188 32.41458129882812 26.10317039489746  38.21146011352539 32.85988998413086 25.64524078369141  38.82424926757812 33.43202972412109 26.1857795715332  39.17133172838988 32.78832399775062 25.43783904190442  17.33576965332031 24.70735931396484 14.45289993286133  17.62067985534668 25.47761917114258 14.37063980102539  16.45665909525784 25.38130009769527 14.53883358387978  17.1650201199822 25.77826880582409 14.82184518196757  16.72339057922363 24.51685905456543 10.3003101348877  17.1943302154541 25.27680015563965 10.2784595489502  17.12783050537109 24.76445007324219 9.521045684814453  16.01652508396212 24.74759291867259 9.518686450579974  37.56963216891526 25.26050076762672 17.24539449246948  38.33961868286133 24.82773017883301 16.90376091003418  37.83297289332918 25.79666962164141 15.81306464795704  38.75830111425823 25.98844051603398 16.73495065013664  8.580377486967556 30.41868930573037 4.721880138705373  7.777659893035889 29.99275016784668 5.345513820648193  7.188916206359863 30.76506042480469 5.222819805145264  7.504792650265146 30.20712947803369 4.364659396955315  23.06466702662251 35.08699937439548 4.23352786978795  22.27291288077707 35.37905534665843 4.539390814121219  22.17572458907126 35.2407659615201 3.785950698640026  22.71791450372417 34.38322180678138 4.013038690876799  22.40298080444336 38.81832885742188 11.05424976348877  23.27046012878418 39.10773086547852 11.34902954101562  22.6558895111084 38.3571891784668 11.68920993804932  23.25041597675759 38.23942192220205 10.76847684890661  10.79046549881938 33.72444726866576 7.839614398967566  9.86154901510456 34.65208134276433 7.897934550095395  10.32063744197706 34.6722707890168 9.029531469820105  10.7825403213501 34.82801818847656 7.84408712387085  24.18968776506272 32.40027555593766 6.938972833737422  24.36763580503101 31.79856387880655 8.125987717686083  25.29104645535972 32.7940381957879 7.524250403883444  24.28651391342699 32.91420351846483 8.409798983604148  24.05602943935808 38.08805137646113 20.48543172022932  23.25704234100377 38.75884585505028 19.59357432602252  23.09486961364746 38.55545043945312 20.7221794128418  23.68886269564554 39.13055021075643 20.32158779163047  25.02005958557129 29.07047080993652 14.54788017272949  24.31296489870173 29.32053904385472 13.41894316944928  25.07448959350586 29.91780090332031 14.36625003814697  25.54186058044434 29.29476928710938 13.90013980865479  33.93841171264648 32.00180816650391 21.44054985046387  35.47894685449135 32.10670778478683 21.756655851277  34.75746917724609 31.61702919006348 22.11128997802734  35.18177144517734 31.79288665963643 20.6040800628816  8.803494211035677 24.37318869994986 0.8559447477404751  8.036659732723265 24.16706879983867 1.981043559521276  7.894562618081057 23.33019856643599 0.9897880012831851  9.208000893050414 23.79494165880918 1.658517146174062  0.09939099848270416 37.13388061523438 6.57960319519043  0.09939099848270416 36.91822814941406 5.571473121643066  0.09939099848270416 37.93600845336914 5.65972900390625  1.415937383373833 37.86098380640367 6.06595755775608  29.24949729823076 37.5268329002845 12.59662244190681  28.50652351175283 37.65572960275285 11.98121921110994  29.15883763876019 36.82351456360787 11.4817373084156  29.4960525091582 36.43457063230868 12.3133364907325  19.82759529132645 34.26541888985032 1.079557372669002  20.9302041341823 34.40101955796502 2.110086443008587  21.11183271580979 34.40610468884028 0.8409968657141444  20.48694279596729 35.29546036088478 1.018762466055594  0.6861051787447235 31.72097240615793 11.86806040216686  0.8849085311082648 32.21654332188223 12.73140116869665  0.09939099848270416 32.59698104858398 12.07849979400635  0.09939099848270416 32.38148498535156 12.565269947052  0.09939099848270416 34.99974060058594 17.04997062683105  0.09939099848270416 34.73429107666016 15.92496967315674  0.09939099848270416 35.7369384765625 16.50004959106445  1.271196442533325 35.42800152776053 16.4254928816318  1.510460019111633 23.1452808380127 8.004315376281738  1.047256946563721 22.63452911376953 8.223189353942871  0.6368290185928345 23.37256050109863 7.687427043914795  1.132915438990452 22.95714403107026 7.163187220153409  18.2412109375 26.43679046630859 15.72667026519775  18.2232608795166 25.34940910339355 15.7325496673584  18.63859939575195 25.95412063598633 16.22393989562988  17.92874459020756 25.65654235147791 16.34566726127977  1.357874989509583 22.14514923095703 0.6689680218696594  1.719454050064087 22.71690940856934 0.1048400029540062  1.354293942451477 23.30374908447266 0.6567339897155762  2.106662528263413 22.90385716895543 0.7704827503803966  17.52855665521848 28.90526194377845 6.886979357109499  16.28462918502753 29.18011918801389 6.729318081663751  17.30192794868251 28.82555494013758 7.84950944177296  17.33224625141743 29.93865103138394 7.351345007073101  34.64684158355733 32.83765111232317 21.02283286270424  36.0003199300168 32.92634994865154 20.39557836513376  29.03285026550293 32.83634948730469 19.52033996582031  29.55270004272461 32.48451995849609 19.15031051635742  29.87287617709913 33.1472599022133 19.36939172423442  29.76208782306665 32.7447324351544 19.89186529741637  23.73307037353516 31.22471046447754 10.06774997711182  23.94804000854492 31.70886039733887 10.95205020904541  24.63309424672815 30.49865630532905 10.67979207963247  24.52943093742962 31.28339107963793 9.647938985970184  10.49679869
[...]
<PointData  Vectors="u"> 
<DataArray  type="Float64"  Name="u"  NumberOfComponents="3" format="ascii">1.2401679097357404e-01 5.4631926475998377e-02 1.0474935431618712e-01  1.1192866504072990e-01 5.5681781209887871e-02 1.1539559281218756e-01  1.0317232640982099e-01 4.5256155839742268e-02 9.3693248092365941e-02  1.1484491456391882e-01 4.8533626559430637e-02 8.6380304255629009e-02  2.4978842644607735e-01 -5.8933211962944029e-02 2.1959535575737379e-01  2.1524315740635913e-01 -8.5674148441829981e-02 1.4682642796501502e-01  2.9282566583496061e-01 -1.0588130685613815e-01 1.8116502354552355e-01  2.5641234305677069e-01 -3.3604096324178323e-02 2.1901771443394197e-01  9.3786861068723415e-02 -2.0399029953764542e-02 1.0193703171747491e-01  1.0687164066495486e-01 -3.7175781716538958e-02 1.1786712233858067e-01  7.7636381325798864e-02 -5.3428242724459049e-02 1.4660059148717794e-01  1.1534110136904804e-01 -3.1393177054527099e-02 9.6400171934784701e-02  1.1803973633551550e-01 7.3522774730309007e-02 5.2055858909060830e-02  1.2165301322165765e-01 7.8799757388792732e-02 4.7690589480888189e-02  1.3343214046325674e-01 5.3188009257979722e-02 2.5459204154251451e-02  1.1695708733767975e-01 6.8833937794130870e-02 2.4126258991578210e-02  1.0362527306613176e-01 8.5182341064393222e-02 -4.0111723621693391e-03  5.7898302603303933e-02 7.8908836786585071e-02 1.8139049115811043e-03  6.6865040679085885e-02 1.1323931348775454e-01 3.9479809480280166e-03  4.3509078760732948e-02 7.9364437757118850e-02 5.5701702292127609e-03  2.2181723660302158e-01 3.6220192276908141e-02 1.4930574950209169e-02  2.0850327167504465e-01 3.2313666707334390e-02 -1.5805274310983240e-04  2.1885731737981401e-01 2.7390773618586512e-02 1.7510434494031949e-03  1.9794360619731544e-01 2.7354563988921561e-02 1.4328062615446405e-02  7.5136650470386770e-02 5.8962099495722294e-02 1.1456825152210222e-01  6.9860024131113641e-02 1.7491671549405736e-02 1.0971644856467073e-01  9.6405082568715092e-02 3.4905820863869730e-02 1.0746077226654795e-01  1.1322456513239870e-01 4.7698815172324674e-02 1.1002535424542700e-01  1.3245157219504228e-01 -6.7433458801905974e-02 -8.0713068203680696e-02  1.6166429245577629e-01 -1.0027848550606695e-01 -8.1425072220395536e-02  1.6523058594832238e-01 -6.0207857425609398e-02 -7.3195058330890725e-02  1.5545855494646460e-01 -6.1241779213449116e-02 -5.9456846443047211e-02  5.3900946731226786e-02 -6.5719801750080395e-02 8.3449171558462293e-02  4.5181007792926629e-02 -5.6954554365716940e-02 6.8935201973185964e-02  4.0633033732941068e-02 -6.7364355702297915e-02 7.2154446676397421e-02  5.3705952258181235e-02 -1.0589141478600045e-01 1.0474768222363322e-01  3.5881776626141171e-01 5.1618602406739884e-02 -1.2967065567640492e-02  3.1309197616017576e-01 4.0746488065596428e-02 -5.1545603051091782e-03  3.0943505811600380e-01 5.7519730501858685e-02 7.1181892438822433e-02  3.7499502908790205e-01 -1.6156655952810500e-03 7.4110539555658314e-02  1.0534137154645895e-01 1.9302502734462493e-02 9.5685824692199578e-02  1.1515197251411106e-01 -9.0162015536932802e-03 1.6369541819134348e-02  7.0443088153891595e-02 -9.5394980662306570e-04 2.2132773336482590e-02  1.0271967759685871e-01 4.7031962572486034e-02 7.5743742212262280e-02  1.9979114879478119e-01 8.7818245851611756e-02 4.8070370251068167e-02  1.4229066269918270e-01 1.2457886985375292e-01 9.0219094142849884e-02  1.9977736089459003e-01 1.2148750673153513e-01 9.2757140678057307e-02  1.9370566475239215e-01 6.5112821170787011e-02 6.6651379467406943e-02  1.1245530826594423e-01 -1.1101990027996139e-02 1.1117621679345928e-01  1.0570532978372819e-01 -8.2106091036566776e-03 1.1713211775675818e-01  1.1595836014405229e-01 -8.4582960038600882e-03 1.2640654647781790e-01  1.0463167274766176e-01 -4.7388767368353119e-03 1.3752119163412144e-01  1.6953362488089285e-01 -5.7947750533923481e-02 -6.3471280204970656e-02  1.4367500053789134e-01 -6.9601239782341007e-02 -6.3554667737265397e-02  1.3432594773619003e-01 -4.3167091395744338e-02 -7.8272065585246575e-02  1.3018080319727948e-01 -7.0633178083651896e-02 -7.4659476466361036e-02  2.5494830705822050e-02 1.9117856135593184e-03 3.2062987611522722e-02  4.0519113333655925e-02 6.4602175113566800e-03 5.9182108142254806e-03  2.5439452601371575e-02 -9.8449580687275644e-03 1.3017565896461462e-02  5.4248455397798621e-02 -1.8489467176856093e-03 3.3280419510858153e-02  1.3571586812588884e-01 -2.2021333057018692e-02 1.4878471155441855e-01  1.2150963365541501e-01 -4.3803802142798789e-02 1.7631425334818657e-01  1.4415950341236816e-01 -2.2795258995259589e-02 1.5757535666669037e-01  1.2332058811628044e-01 -3.2429597559157277e-03 1.5638742161085351e-01  1.1998840227140004e-01 5.4023145410316512e-02 6.6675995725716405e-02  1.0669533323706505e-01 4.9643961069238837e-02 8.2662878748229363e-02  8.3413736063124119e-02 5.1158922734634509e-02 6.4671990931437828e-02  9.9147864901280400e-02 6.4370543473552450e-02 5.3843273916448844e-02  1.3464189187329498e-01 -9.4442664754824768e-02 5.2952641632166488e-02  1.4438845680337697e-01 -1.3414201800529252e-01 5.1702562307464617e-02  1.7651702564757030e-01 -9.2769465097176054e-02 9.1806522564435319e-02  1.6997921090690446e-01 -9.5649496604988837e-02 8.6175391334858034e-02  6.8189948519015081e-02 1.5189330056474726e-01 -3.8789333785277998e-02  7.8403772747412101e-02 1.4585516308266927e-01 -3.0762457496494040e-02  6.4088623552596369e-02 1.5476619550380744e-01 -2.7166757090291475e-02  7.2838701261623548e-02 1.3567605963270146e-01 -3.2156283150999609e-02  1.6406748334538671e-01 1.9374080905026719e-02 1.8944557377012998e-02  1.9234658888371423e-01 2.8261866756377534e-02 4.4860954282133055e-02  2.0386172211927664e-01 8.1915687962981296e-03 1.7525861429394978e-02  1.8279070760876281e-01 2.0667620804219869e-02 2.7416131684122463e-02  2.8593671346586757e-02 -1.5198545495668920e-02 3.4431779376980734e-02  6.8146954573253621e-02 -2.6943380370203628e-02 5.8925652672582256e-02  3.9236184797261202e-02 -2.2661703264603431e-02 1.2562276176744583e-02  7.7161555899727799e-02 -1.0204090597967272e-02 1.4954610133792552e-02  6.1404924893529410e-02 8.1724862748824248e-02 8.4699863483196677e-02  5.2233815539139722e-02 6.4934596024354196e-02 8.0515134907481120e-02  5.4636635270529997e-02 7.4355738039106223e-02 7.9722791779908014e-02  5.7784748858630337e-02 7.3994067253453713e-02 8.5541170784408468e-02  8.1804916879313599e-02 1.3406858511684719e-01 1.3585183237143562e-02  1.4648950346288719e-01 1.5732609902254974e-01 -2.0529908517437755e-02  1.5720271513111109e-01 1.7488570124130728e-01 -3.6282767401638313e-02  1.3378202555749841e-01 1.0135038220184049e-01 2.4284750606900767e-02  1.1227009013157575e-01 1.9395114638029520e-02 4.4141545010106219e-02  1.2315125178299142e-01 3.5359455714250573e-02 2.4871308977426423e-02  1.4697847218623278e-01 1.9992576943340969e-02 3.8998516343933906e-02  1.7234558102885042e-01 3.7175229387612002e-02 2.5086805851627498e-02  1.6496078248273918e-01 -4.0956302381593519e-03 3.4879071979650983e-02  2.0368824192123591e-01 9.9541462834822278e-03 1.1313674527691224e-01  1.9298504535756603e-01 4.4258363582745833e-02 9.1717287112245791e-02  2.1722855868182797e-01 4.3500799992659191e-02 1.3960086114404071e-02  1.0988425621934229e-01 -1.2645488679839504e-02 1.1245560364209262e-01  1.1486596008370141e-01 -1.7363084647485462e-02 1.1411064234893561e-01  1.1423283226084710e-01 -1.5010196001503325e-02 9.9378104331318953e-02  1.0597229270037495e-01 -1.0810132116778020e-02 1.0733113115987201e-01  1.6825032245522425e-01 -2.9739257801480495e-02 1.2564239129899776e-01  1.3366531190741912e-01 3.5193342908253183e-02 1.2702193067403011e-01  9.5110836666857657e-02 1.2513364482304213e-02 1.4611544214243288e-01  1.3745213554179753e-01 1.0912720238373707e-02 1.0591400395609155e-01  2.3851554982021381e-01 -1.9749127790662591e-01 -3.7120445756892065e-02  2.2689025642706598e-01 -2.5640552145272877e-01 -7.8014812158794009e-02  2.4476469821504843e-01 -2.9455533580417703e-01 -5.4194339977886939e-02  3.0030644574556409e-01 -2.5540693563705325e-01 -6.7259509309403678e-02  1.2220074724534186e-01 1.1116067144003891e-02 1.3209181251731839e-01  1.3237859883460310e-01 2.3704966986964546e-02 1.2958879230095982e-01  1.0647348728026691e-01 3.9891107522947878e-03 1.6073970589632167e-01  1.2664249090814800e-01 2.8009884292888088e-02 1.4749085191616151e-01  4.5532656186800712e-02 3.1819248949435310e-02 -2.3703764449052280e-02  3.2518155420745813e-02 3.0814574015222342e-02 -3.8377408070254713e-03  1.8869217529164303e-03 2.4841459543853264e-02 4.9114513826490928e-03  2.6089746739570881e-02 1.7199447881265126e-02 -1.8746405728214045e-02  6.6680901948490773e-02 7.6542091670784157e-02 -1.1022213228150024e-01  1.0129314483665101e-01 8.0789209927411204e-02 -6.8183661539459040e-02  8.9187464708896547e-02 1.0305290471618023e-01 -1.0589388254301257e-01  8.6499844621467023e-02 9.8056787079816743e-02 -1.0131444524976277e-01  2.1168060036289532e-01 -5.9979125923762810e-02 1.4824027304758589e-01  1.5188669997897758e-01 -3.8808143288106063e-02 1.0916911579125795e-01  1.5236027668025859e-01 -3.8520040710971176e-02 1.1967747228297174e-01  1.7098371372003054e-01 -5.7442727052922180e-02 9.8660811082630070e-02  5.3647183390608935e-02 5.0656819667401543e-02 1.3148073192132017e-02  8.7203627450957277e-02 3.9573905241483930e-02 1.5756554044244933e-02  6.7238862614589223e-02 3.8022573695259909e-02 8.5095022881748125e-03  5.0516516692176890e-02 4.7521312950478657e-02 3.1748022330094605e-02  2.0201173457848901e-01 9.3466602156624140e-02 -2.3627734138036184e-03  1.9915416071187109e-01 7.9388748621401259e-02 1.1167923906297056e-02  1.5909996976694818e-01 1.7317719672354429e-01 1.5715418104348431e-02  1.5435041402197036e-01 8.8687588197431444e-02 3.7373354363994714e-02  9.7847533953997243e-02 -5.3882636405953227e-02 2.0748610537625070e-02  1.0838270731937115e-01 -3.3215252201519725e-02 -7.9077454451665554e-03  9.8985196372051179e-02 -5.6818656942503876e-02 -2.1245081178043412e-02  1.2140294737882971e-01 -7.3765010777617254e-02 1.8135738277505451e-02  1.2035986787127308e-01 -5.4987827150540805e-02 6.0248947656905780e-03  1.0391644553064627e-01 -4.8177026851295372e-02 4.5365973277325680e-02  8.8972101832680145e-02 -7.1176772425109600e-02 1.6756635650948627e-02  8.4859685106577390e-02 -5.9206284939297971e-02 2.6151258745921585e-02  -2.8521386849898842e-02 1.0301795597187911e-01 -1.3610943521805158e-01  8.8740435520692440e-02 9.2711198014152868e-02 -1.0829113601236114e-01  1.2964589041381705e-01 1.5072824143457899e-03 -1.8321751207527190e-01  1.1878959787078917e-01 -1.1182464044930654e-02 -1.7848288082111732e-01  1.9977699512652175e-01 1.0280360085847888e-01 5.3198091442784382e-02  2.0058617149285046e-01 9.0624424908813866e-02 7.3091851335486454e-03  2.0201301458150761e-01 1.0545152777163910e-01 3.7745661820901451e-02  1.4251418461024348e-01 9.4936608892550539e-02 3.1021929108142544e-02  3.0481338455441754e-02 -4.8062664350624715e-02 1.6478353701202094e-02  1.1847625222344327e-02 -1.0745298359908043e-02 2.0565974317799149e-02  4.4034604254102494e-02 -1.4791621656385870e-01 5.0269538361058831e-02  8.0000488030293138e-02 -9.0358743009450265e-02 -1.6591159819322784e-02  8.2007750822168421e-02 9.6108848640441905e-02 1.3818255313625533e-01  7.9670303104205045e-02 7.8887321243721054e-02 1.0287020436736045e-01  1.2487262652593137e-01 1.0569481283155081e-01 1.1907647420218720e-01  9.4781391272006382e-02 8.8303563992127049e-02 8.4388631552856336e-02  2.4236557079624910e-02 9.7725234339751557e-04 -8.0758155480626630e-03  3.2515660298987642e-02 1.0036660731754824e-02 -1.3227954700307644e-03  2.0728189866967835e-02 9.7484556100298816e-05 -2.0120387094584437e-02  4.2223084773487858e-02 -8.5901575336988969e-03 -2.4445105193539832e-02  2.0089453403439869e-01 -5.2861013861582019e-02 -7.3753445792677189e-02  2.1739198655368849e-01 -4.4160363683311769e-02 -4.7701656360051282e-02  1.7899846091373162e-01 -6.1248608446718492e-02 -4.8869060470347434e-02  1.6313494256256264e-01 -6.1643265498252456e-02 -9.2531626756976432e-02  1.8778260140230316e-01 -4.1319738470513394e-02 1.2541468757381910e-01  1.7130315173198196e-01 -3.2279197438843818e-02 1.0749042609255928e-01  1.8291117266643989e-01 -9.7938743910913492e-02 -1.4100750779635238e-01  1.6544406194714983e-01 -9.1126270624223613e-02 -1.1226950350820659e-01  1.7940566792934715e-01 -1.0117005933792488e-01 -8.6242436409950621e-02  1.9972611405683949e-01 -8.9206703590791261e-02 -9.7778866534838013e-02  9.6139911301340766e-02 1.1593448571604699e-01 6.5723782685691304e-02  4.8771622260956278e-02 1.3517092779058457e-01 5.8020059862956693e-04  1.4481758534403802e-01 8.2026364397924587e-02 5.8927080741368789e-03  1.2426485929355618e-01 6.4318126914275936e-02 7.9584622181572223e-02  1.2662412668160208e-01 3.3707255564793676e-02 -8.8264650196633026e-03  1.1262832860356488e-01 5.9033113915101659e-02 5.4362848274417171e-03  1.3359593989311352e-01 4.6890402890839775e-02 1.1113824240977151e-02  1.0042210060381117e-01 8.2132606515034429e-02 1.6085076555299949e-01  1.2224813175535512e-01 8.8702012621905857e-02 1.3768110309067105e-01  1.3460222113519404e-01 6.0893023244561112e-02 1.2254060122071091e-01  1.3722862489526808e-01 7.5106604938736291e-02 1.2516386919576467e-01  1.5550174607808446e-02 -1.9951178595468484e-02 4.8322146041292577e-02  1.5262176450455283e-02 -1.5409759722264979e-02 4.9926560136304560e-02  3.2574189316532061e-02 -1.3964493135399868e-02 4.3801456119242028e-02  3.9868292515337030e-02 -2.3893624877974088e-02 5.2783846835738925e-02  4.6765081133162398e-02 4.4394953597446878e-02 -1.0834915309816578e-01  1.8611210828657809e-02 3.5545442487016996e-03 -8.9438289510938504e-02  5.9534249657252646e-02 -5.2245724683097992e-03 -6.4820346735724996e-02  8.5287225558777685e-02 1.1744109231356239e-02 -8.6485145228088589e-02  1.2130603657818979e-01 -9.4829385370111291e-02 -7.3848910011586999e-02  1.8267210816720469e-01 -7.3520166470072701e-02 -1.0870205295461000e-01  1.2961682586483042e-01 -9.7375271153474593e-02 -8.4836957195240981e-02  1.7020712507775485e-01 -1.0726362346043264e-01 -7.6622428645466936e-02  1.0148365202671759e-01 8.1834475406348792e-02 -6.1308119858638020e-03  1.2833613744114411e-01 1.0255283868529669e-01 -6.4782810627889587e-03  1.3727007214341089e-01 8.7945608325972077e-02 2.0773166138343246e-02  1.0738372625332189e-01 7.9908904688191854e-02 1.5813032879438419e-02  9.4509433961901548e-02 1.5753610430152440e-04 -5.8430596079771364e-02  8.0654119936655944e-02 -7.7259006963336383e-04 -3.7167689943214323e-02  1.0517307648354253e-01 2.2689802129780617e-04 -4.1987115227432835e-02  8.8154468582663667e-02 5.0057680520425368e-03 -4.2739678741572813e-02  1.1413796288253825e-01 -2.3918970520508537e-01 -7.5644425513226810e-02  8.9853470012165856e-02 -2.0695305514586940e-01 -4.8024744379762063e-02  1.5845589982015421e-01 -1.8923275105279375e-01 -3.1984701265108328e-02  1.2008578675646912e-01 -2.6376250819668601e-01 -5.9133877442397162e-02  1.2433035322496983e-01 1.6948598419954237e-02 -9.1547746036066857e-02  9.8001370451068631e-02 4.9123653700599484e-02 -6.6274447308132547e-02  1.3629292282141448e-01 1.1586178992243484e-02 -7.1658401413349032e-02  1.2007514879791700e-01 2.6899535413405787e-02 -4.5888561225651874e-02  1.6814084081060490e-01 4.4995776092064408e-03 1.1093286054262311e-01  1.8575268308821713e-01 -5.0761099551469957e-02 1.4474364728529285e-01  1.3764346148506579e-01 1.0879621971762090e-02 1.6632316529000632e-01  1.2830017533654967e-01 -1.8392747795580842e-02 1.0357044747633494e-01  6.9156171148609197e-02 -7.0383746323993093e-02 -1.3156628800907833e-02  8.6021912375973369e-02 -6.2930228124258872e-02 -3.0259822138732351e-02  6.8336050624394226e-02 -6.1461931144870981e-02 -4.5927143770778479e-02  7.9750110581424186e-02 -7.1325874861031063e-02 -1.9521436711079310e-02  2.0108673093922161e-01 1.4579452566027684e-02 1.2475118511506240e-01  1.6161628659392169e-01 -6.6735026170868124e-04 1.5369525817101354e-01  1.8616267553039648e-01 1.1701258399229727e-02 1.6749122994151092e-01  2.3149839913524684e-01 5.4019431446688231e-03 1.5388434940717344e-01  4.4731746434357444e-01 -3.6997166871609610e-03 3.8191345136583510e-02  3.4965545359698907e-01 3.0546180758021256e-02 2.5861620427175042e-01  2.8982454180287237e-01 -1.5214072272962519e-02 1.3167241988775988e-01  3.4792565953148602e-01 2.2753178114764561e-02 1.6211440673563360e-01  1.3979618799028631e-01 -4.6231549113451509e-02 -1.8222604240465057e-02  1.0371424942133139e-01 2.0574922101406951e-02 -3.2911901341297466e-03  9.0733817597010186e-02 4.5672159085004523e-03 1.4431072244161396e-03  9.2683438751488254e-02 -1.0531051800582048e-02 2.2386323987409237e-02  1.4516397010130103e-01 8.6588526628070858e-04 1.9074844269453831e-02  1.2371816215762610e-01 1.7700367387768223e-03 5.3642237758203207e-03  1.1871239511872145e-01 -1.3415972899388226e-04 2.8041716378480130e-02  1.4956390794168481e-01 2.6944582947252302e-03 -7.1272976944200921e-03  2.7030052839340835e-02 8.1966410953338703e-02 1.0125489928878863e-01  3.3875219456354175e-02 7.2984440898212127e-02 1.0061827592995226e-01  4.8370212383531258e-02 6.4655442751087575e-02 1.2059019359359471e-01  5.6445001747415333e-02 7.6564831078440629e-02 1.0284914008606072e-01  9.6872048121899534e-02 8.7694295833977365e-02 1.0227670758394515e-01  9.7872614148293027e-02 7.1398622626373628e-02 4.1292191215183634e-02  1.0739198904670111e-01 8.0861128825450060e-02 9.5796718300386122e-02  4.6197450804486902e-02 7.7662505809768759e-02 6.3378619820946683e-02  1.3853976746109836e-01 -5.5224918987964243e-02 6.6003778425845538e-02  1.4826117413812218e-01 -9.9943059769433060e-02 9.2844783886737864e-02  1.3461719411413509e-01 -5.1274947775391294e-02 5.5024441505302328e-02  1.2558006171536190e-01 -7.9301499528083630e-02 6.6833851157373406e-02  2.0246217048431731e-01 -2.7895242601844172e-01 -3.7962525049698222e-02  1.9914556490740778e-01 -2.4068603611769196e-01 -2.4725153792236793e-02  2.0712778198784684e-01 -2.7766227085297968e-01 -1.7099699675124914e-02  1.6827520973103716e-01 -2.5769806242454907e-01 -3.1651889410923478e-02  1.4808034266030448e-01 -1.3445483686084067e-01 2.0299793439644234e-02  1.3595159679883534e-01 -1.2802119381787561e-01 5.4518671998088006e-03  1.4285748721052038e-01 -1.3941031025801789e-01 -1.6142750703905008e-02  1.5282637741132737e-01 -1.1600930059315967e-01 8.7392463251441885e-03  7.4603642877138346e-02 -6.1447960748879316e-02 -8.6906410459967609e-02  9.9069385962480938e-02 -4.5454133778928152e-02 -4.2374384656952278e-02  9.3653848131880615e-02 -5.6391489489985680e-02 -8.0776087412689324e-02  1.2824065066712845e-01 -7.6929534203444450e-02 -6.3444302230125663e-02  1.4700930599136749e-01 1.1456196194621794e-01 -2.3617426564270564e-03  9.9641043806407592e-02 1.5027560072478932e-01 1.8506214681780278e-03  9.0972236643147283e-02 1.2286103860989327e-01 1.1221327204766906e-02  1.1160911372803931e-01 1.1207561870616649e-01 2.2452340620525067e-02  1.3487358587756756e-01 -8.7989424050618201e-02 1.2164089927539782e-02  1.3420844601845422e-01 -1.3367744137069076e-01 3.9424669418871988e-02  9.7172992308893855e-02 -1.0999999384195661e-01 1.7846428220783413e-02  1.5495108395847487e-01 -1.1328947127553321e-01 2.0101130583509569e-02  1.5171750235104529e-02 8.2024539122047772e-03 8.1855349923238563e-02  2.0151972212104470e-02 -9.4774572055165776e-03 6.0622237992654857e-02  1.3346047859269091e-02 1.0875739151724011e-02 6.6355116011060700e-02  4.4164400120681208e-02 6.8701660712440042e-03 5.6901425820848242e-02  1.3554077741147036e-01 -1.4861786395549312e-01 3.8320790682475507e-02  1.4897643086790094e-01 -8.0765964853433361e-02 3.8446083154595051e-02  1.1999493064160267e-01 -1.3579344547353617e-01 5.4334202771419801e-02  1.0931819400035588e-01 -9.0980322476415590e-02 7.5395649403228029e-02  1.6808408745792716e-01 -3.4496604073877418e-02 -2.0747570273344604e-02  2.0101422232576205e-01 1.5383745323395622e-02 3.2531479439274914e-03  1.9911847998965496e-01 -3.9850189389281518e-02 1.9766894917690660e-02  1.6246616159255550e-01 -1.7363588305574537e-02 3.3155774560299075e-03  3.92