<?xml version="1.0"?>
<VTKFile type="UnstructuredGrid"  version="0.1"  >
<UnstructuredGrid>
<Piece  NumberOfPoints="7967" NumberOfCells="31626">
<Points>
<DataArray  type="Float64"  NumberOfComponents="3"  format="ascii">5.645654201507568 21.17927932739258 37.23579025268555  5.056466102600098 20.50606918334961 36.96971130371094  4.851836235526027 21.33507962380647 37.68239085381686  4.698966385913749 21.05992757480884 36.50151520458071  24.62417984008789 32.21992874145508 30.89274978637695  24.1805305480957 33.10403060913086 31.40691947937012  23.65111516659351 33.00036059922646 30.19650565994206  23.29684940580348 32.03880840657664 31.19202063549403  12.2485680832481 36.34376549340885 36.34260710065332  12.38605976104736 34.70022964477539 36.07826995849609  11.53387144660103 35.02077575383205 36.73175429694053  11.6065409293136 35.07260164603684 35.56695154921104  17.55693355860406 26.05910250479342 37.29993235865359  17.95992602331125 27.39468892653674 37.02409534569711  19.12274346035662 25.78523458263155 37.48924588683091  18.94267829131832 26.51088337050286 35.91344019987373  35.04079055786133 32.21327972412109 33.65439987182617  35.16804885864258 31.46805000305176 33.32376098632812  35.01626968383789 32.25841903686523 32.8866081237793  35.90842135418689 32.37647410827113 33.04548006498518  2.211963415145874 36.93383026123047 39.80255126953125  2.037676572799683 37.81325531005859 39.83066558837891  2.797188282012939 37.66729354858398 39.89125061035156  1.971482767138679 37.70497172946749 39.16728459313786  25.62509945650099 30.0783948218949 36.03052666330976  25.37401962280273 29.74086952209473 36.82929992675781  25.74884986877441 30.66513061523438 37.26541137695312  25.16315078735352 30.49622917175293 36.68424987792969  23.66309951991002 37.55972881432952 28.79998990031553  23.18651897942468 35.91797202856242 29.82352594463852  21.8010651694571 37.18613362373468 29.03427286212382  23.05051402047161 36.14147452211896 28.01301550002965  37.18395478091922 22.69483622640617 24.4290562768585  37.9462747373471 23.3323803165413 24.21386576639209  37.82029915890926 23.15204603381346 25.41102818788972  37.86021547535019 22.34505366298998 24.84592004236406  39.89416122436523 29.09733009338379 35.6031494140625  39.89416122436523 29.22612953186035 34.76615142822266  39.89416122436523 28.50835990905762 34.59505844116211  39.25443594052563 29.24980892485341 35.32853853673818  2.172826438458049 39.01558168694685 22.92397749628122  1.584525942802429 39.89572906494141 22.92720031738281  1.102702021598816 39.2034797668457 22.40666961669922  1.296501994132996 38.96308135986328 23.04791069030762  21.0169792175293 32.11265182495117 27.0190601348877  20.85755920410156 31.2291202545166 27.01577949523926  21.82953071594238 31.82776069641113 26.99846076965332  20.6947046925945 31.54533495889583 27.8194461798149  39.89416122436523 37.58407974243164 33.76984024047852  38.87078857421875 37.69176864624023 33.95344924926758  39.29412078857422 37.3998908996582 33.26850891113281  39.04960773677269 36.78696764506707 33.81022425543522  19.64200526690917 28.95742389238147 36.44174933835306  20.3646297454834 29.41546058654785 36.3160514831543  20.01637396612465 29.96269456608093 35.33585737525393  19.38423168353742 30.22112701403402 36.07878872933914  32.91257858276367 18.3771800994873 37.8048095703125  32.82822036743164 19.20314979553223 38.07062149047852  33.27568501011447 19.18917403450212 37.28318304680815  32.58183381278117 18.93603798961593 37.25466432556418  26.56778907775879 28.11483955383301 31.504150390625  26.35972132125508 27.0113475837152 30.9406377410691  27.05536079406738 27.5013599395752 31.70583915710449  25.75052237529727 27.67669242631254 31.13787314631691  8.121655464172363 37.74383163452148 33.07558059692383  8.706639289855957 37.42276000976562 32.6844596862793  8.748313178825397 38.15181894944418 32.17171915469483  8.909582792962354 37.96457008788087 33.44744387728456  32.20977020263672 32.47356033325195 36.51670074462891  31.53544044494629 31.99403953552246 36.05831146240234  32.6685791015625 31.90727996826172 36.38888168334961  32.16336059570312 31.27301025390625 36.31119155883789  19.56262016296387 26.66131019592285 30.48493957519531  19.12948036193848 26.00860977172852 29.73154067993164  18.93540954589844 26.75423049926758 30.36422920227051  19.03023378604545 26.87284410524174 29.61528028995385  29.0504207611084 26.53302001953125 33.53047943115234  29.17655944824219 27.23356056213379 33.71850967407227  28.43837001310416 27.2775126714665 33.92865151458757  28.93357311570495 26.68516650769414 34.24204954931464  37.88552856445312 30.6813793182373 38.32651138305664  38.90488205432413 31.0598608745546 38.54457601350482  37.71429061889648 31.30958938598633 37.71371841430664  38.05347061157227 31.53162956237793 38.55516052246094  3.445698976516724 20.14925003051758 32.04328918457031  2.919678926467896 20.72513961791992 32.09609985351562  3.812129534549468 20.55776518127621 33.16413435645816  4.012580218219198 20.99977661651681 32.00676129884497  9.506823258741134 38.65936742356441 31.16827756190667  10.08242034912109 37.74050140380859 30.72151947021484  10.40416923441926 38.83660594420363 30.68629455363521  10.57034548532746 38.06650251163888 31.63533326396238  27.27416038513184 32.49850845336914 37.94029998779297  26.94993019104004 33.22652053833008 37.66476058959961  27.49921534445176 33.51692304291213 37.18881462350147  26.59507535555418 32.89995277897684 36.83903586280976  2.859983157894381 33.78091226475991 29.99482525734578  3.995953790161748 34.55346957294583 29.65131932477753  3.581475019454956 34.61917877197266 30.97784996032715  4.171729004993799 33.60093488815438 29.92050816511257  31.90766906738281 37.10441970825195 31.95133018493652  31.57391929626465 37.62862014770508 31.39550971984863  32.71758157934859 38.03483388994415 31.94619969202157  32.11640969607655 37.56066558043561 30.79296351654203  27.23146057128906 26.22598075866699 39.32600021362305  27.36519050598145 27.22282981872559 39.25796890258789  28.05776977539062 26.53463935852051 39.89208984375  27.96105083585012 26.47899713946307 38.73555299015274  23.6962127204534 22.39323790604518 32.91993982650639  25.17153902069803 21.37187163051845 31.75863278938518  23.82684091539933 23.31767721300477 31.56443624665931  25.22215903288461 23.279768923619 31.89096764127279  39.89416122436523 28.33259963989258 30.17427062988281  39.01097580934619 27.29656563311142 30.10696747942713  38.60823402061308 28.30544306968679 30.48399802016575  39.14744584952829 28.14616952092445 29.54433729275172  38.16693878173828 33.83240127563477 39.27764129638672  39.45021057128906 33.77460861206055 39.29713821411133  38.56381988525391 33.03371810913086 39.09909057617188  38.91565877792118 33.83914685132241 38.37986159814217  15.05440998077393 39.89572906494141 33.37648010253906  14.12905979156494 39.89572906494141 33.02558135986328  15.06770038604736 39.89572906494141 32.61352920532227  14.40671646310702 39.04737392536023 32.93765656128942  25.92009730430738 31.55765084527573 34.00518718381603  25.30589387869204 30.44203580374674 34.77869003927009  25.98551539701602 30.38632709922596 33.74563944779613  26.79094092892896 31.01517719220019 35.08989083161331  34.49996948242188 20.07081031799316 37.45333099365234  33.73038864135742 19.90756988525391 37.95827865600586  34.45394134521484 20.59691047668457 37.8654899597168  33.80634696699604 20.82579157783631 36.90764718905221  24.35688903084363 30.07969926470127 32.44322332169924  24.08733234525855 28.11174577457565 32.15123212058749  24.11053153965659 29.31929201706184 33.28445515380274  23.22133075391989 29.77349662272414 31.97177311997158  12.9337100982666 35.28232955932617 31.89193916320801  12.09739017486572 35.96720123291016 31.83163070678711  12.06365966796875 35.03582000732422 32.03065872192383  12.20199763002288 35.61908211795688 32.52631607285277  38.93365859985352 39.50566864013672 36.42330169677734  38.28754043579102 39.26924133300781 35.21352005004883  38.31613795255438 38.43712255765434 35.92434584330444  37.7632345494456 39.15365648017191 36.044232978156  13.00804042816162 31.26049041748047 31.82843017578125  13.68900966644287 30.93679046630859 31.40644073486328  13.79193348024008 30.98411229337798 32.67922743374642  12.99602042634161 30.22571293579004 32.28677705478716  0.3503492176532745 35.25662231445312 32.41926193237305  0.5222272872924805 35.12524032592773 32.89327239990234  0.936135340252557 34.82043177038629 32.43307306580542  0.889519976991153 35.45002115845495 32.70207415163502  36.63248062133789 27.96948051452637 37.93989181518555  36.65345001220703 27.31488990783691 38.23825073242188  35.87428361785663 27.42152286193081 37.67176379971436  36.7892328096157 26.84990219612929 37.60128908365871  36.0438117980957 38.99821090698242 39.89208984375  36.33097839355469 38.21982955932617 39.89208984375  35.57104110717773 38.15782165527344 39.89208984375  35.88190237589039 38.42803257256797 39.02065844867174  20.26705932617188 39.31787872314453 31.79626083374023  20.37162971496582 39.89572906494141 30.88445091247559  20.87800322035305 38.79101211507489 30.83838374607323  20.12434620241509 38.47179813791236 31.2854590277715  5.372900009155273 39.89572906494141 33.43682098388672  5.775423049926758 39.89572906494141 34.44112014770508  4.71952486038208 39.89572906494141 34.21279144287109  4.985116925923335 38.97372286927905 33.4877438663203  6.004600771874833 37.4575206249816 29.07192080302629  5.690604209899902 37.01855087280273 30.52218055725098  5.828961339408133 36.43663974139247 29.30666107926708  6.880218833928257 36.57421721761881 29.46176893902981  37.92288970947266 34.55422973632812 39.89208984375  38.14318072026093 34.63109202353735 39.02855907375981  36.94641876220703 34.55345916748047 39.34410095214844  37.32533208051369 35.32726017276235 38.9938665057154  22.27211952209473 33.25748062133789 26.4819393157959  22.84893869210471 34.60953218207978 27.08051086268512  21.87319291765421 33.45080806845724 28.02049396658
[...]
<PointData  Vectors="u"> 
<DataArray  type="Float64"  Name="u"  NumberOfComponents="3" format="ascii">2.9969190018971055e-03 3.5466413815836047e-03 6.9903697823385149e-03  3.2614353804013758e-03 3.2926796164689438e-03 8.9490412020396780e-03  2.7002845331267106e-03 4.1967321954313481e-03 6.3508716615862009e-03  3.3653710899355922e-03 3.8562727272211644e-03 8.7378712169065911e-03  -5.4817584972570990e-03 -1.3477209118692607e-02 1.7917588206371959e-02  6.1099271823101915e-03 1.4556618679431515e-02 8.4943142415786863e-02  3.8308243076392454e-02 9.4314038517218828e-04 1.1287400763913330e-02  5.8482540380348343e-02 1.2672246423802017e-03 4.2827747963260804e-02  1.3876044601022663e-01 9.2444634678302343e-03 -2.8990765086587229e-02  1.5748408535004171e-01 6.7073943145470175e-02 -2.8127715074828353e-02  1.4851865711802184e-01 3.5237948244242714e-02 1.7586675638930563e-04  1.6466978817029324e-01 4.2141538675262907e-02 -2.3455985263082266e-02  2.1332317625323609e-02 -6.0425877312993620e-02 3.6196626450998035e-04  3.2622937525386642e-02 -7.4101419765026946e-02 -2.6777002622697206e-03  4.0748376784944425e-02 -5.7892116764482839e-02 -3.3004568535635226e-03  5.0408124164054109e-02 -6.0639961041929563e-02 4.0406143216101852e-03  2.5026369559220363e-03 4.6148169309064020e-02 -9.7501241598437344e-02  -6.7960594729690456e-04 2.3639293041885917e-02 -8.5403985975882127e-02  1.0012197599012815e-03 3.5456670331811824e-02 -5.8406776777472198e-02  2.1223355633786172e-02 3.9711401069784789e-02 -5.5240196360342858e-02  1.9771774436001363e-03 7.1044042944791148e-04 -5.2205050811931250e-04  2.4637938319262355e-03 -1.0569452525005245e-03 7.6505723375536736e-04  5.7073376965167052e-03 7.6022750495176813e-05 -4.5538750990395762e-04  2.5999380763580692e-03 -1.1688401832145509e-03 2.4707558675223897e-03  1.2763908710840993e-01 -1.5548563487511236e-02 1.0289833022921148e-01  1.1623838767177440e-01 -2.8352883098947276e-02 1.1795506008326562e-01  1.0659866419808278e-01 -1.9409002552579383e-02 1.0445808761320427e-01  1.2877883967259879e-01 -2.0924418407374034e-02 1.1935596563881200e-01  5.9249369194786065e-02 4.4954897337745256e-03 -1.2878784088049933e-02  6.2958249915367012e-02 6.1905459677474017e-03 5.1343490160906851e-03  9.5718401931361038e-02 -3.9578372734236471e-03 -2.1087977388775707e-02  6.6915841558328651e-02 1.1953598476613292e-03 -3.1345211135691879e-02  1.5891554739521630e-02 -5.9683212266391896e-03 1.3363192767886051e-02  2.9276164034797658e-02 -5.9478666939637012e-03 1.6851846626490037e-02  1.9637471553984112e-02 3.5133977390890397e-03 9.5438055558544205e-03  2.1413784655301488e-02 4.1772857432786879e-03 4.8262212725935644e-03  1.8299183549711220e-01 4.4620131782532385e-03 -5.0977575265815280e-03  1.9163448192638299e-01 -5.2924031569324737e-02 1.8220251945467281e-02  1.6536220367622248e-01 2.0920714204149459e-03 6.2052361576892901e-04  1.6877971790715784e-01 5.1310046085088689e-03 -1.0650412281251784e-02  1.3270894166415065e-01 2.1268573065232811e-02 3.7006877831136381e-01  9.2012138905238239e-02 -2.4740345694648242e-03 3.4859902402898535e-01  1.1304671065983841e-01 6.2361681618045249e-02 3.2620288406810050e-01  1.3103233186496668e-01 8.1294698106691127e-02 4.0152717064130516e-01  7.4676266864603491e-02 1.6516413932659395e-02 1.2304494843032776e-03  7.0747595864337570e-02 1.8274835325714663e-02 -1.3331279967258929e-03  8.8069368068787846e-02 2.2563136391003793e-02 -1.5466083617835013e-02  6.7349833776908605e-02 2.0126097789549532e-02 -8.1619442946910363e-03  5.8812382601258137e-02 -1.0482010540066866e-02 -5.1460212226329327e-03  1.4513910743579758e-02 -1.8652017820198728e-03 -2.2786852972052404e-02  1.8438840591663484e-02 2.5860396132033748e-03 1.1233788256824815e-02  3.2810945195240318e-02 -2.6754547619412491e-03 -1.0463869919305772e-03  5.0887730300733659e-02 -6.8750170829927237e-02 -2.8337473739273325e-02  4.8918508078899262e-02 -6.3724164726346691e-02 -5.9087955891760746e-02  8.9385199855374173e-02 -4.0166845440595553e-02 -4.3391432839183341e-02  6.5454799853635642e-02 -5.5543880619921854e-02 -4.2760510334827390e-02  6.5191793394672848e-02 3.4897418867118730e-02 1.7326958898383430e-02  7.0619882957401320e-02 6.3143818887930650e-02 8.5916824428237931e-03  6.7536425279899989e-02 7.7284050129058743e-02 -3.2629951398357388e-03  8.7637003694408508e-02 5.4018028951516119e-02 5.0498515571621846e-03  8.0578694550179131e-02 -1.6702427490047241e-02 1.6861406093507170e-01  3.8142795243091408e-02 -6.8336241469709102e-03 1.2037377668437153e-01  1.0253054015615309e-01 4.3741806926203824e-04 1.8548597492800600e-01  5.7208126083124880e-02 -1.2851454773616010e-02 1.0223852191891676e-01  1.4393110734966783e-01 -9.4018654110378852e-02 7.1774696153073678e-02  6.6618171065123175e-02 -8.2636934116127950e-02 2.2945478068109048e-02  2.0137288245827129e-01 -6.4106342922899379e-02 1.0253471264101034e-01  1.2402527530684362e-01 -1.8553682884942177e-02 3.7012360490024786e-02  2.7142279490552906e-01 -1.4104423346474693e-01 8.1830241507219167e-02  2.4702724160241471e-01 -7.4720004123942585e-02 1.0992978420965306e-01  3.7869452398440101e-01 -1.3364432978207968e-01 -4.7230606245957903e-03  3.7571523011673058e-01 -9.8427178076596525e-02 3.2116534487498426e-02  1.2077398614198717e-01 -6.7397814114067882e-03 7.8428744356164398e-02  8.7584531714176017e-02 8.0297457444342440e-02 4.9169094175828307e-02  1.1125606667482432e-01 4.2029396946390504e-02 5.2699207544879230e-02  8.1575719302287672e-02 3.8809495088308388e-02 5.1150177399599719e-02  1.7342835985912308e-01 -3.1767430628092772e-02 1.5126304876534596e-01  1.5648564188495581e-01 -1.7974028084587364e-02 1.1299884443809664e-01  1.4185288560545817e-01 -7.9396579935091544e-03 1.1261646084080047e-01  1.6279669103323777e-01 -3.0475998681459820e-02 1.0398955922408247e-01  2.2647352472544213e-01 1.3537934317371711e-01 2.1966103264405637e-01  6.6755000312284207e-02 3.6289372741849561e-02 6.9469260719892123e-03  2.0893918029248576e-01 1.6984730009873741e-01 1.0523092019219671e-01  1.8283805724884850e-02 7.2511348598349290e-02 6.8090306034971793e-02  2.3505592562419419e-02 -9.4407906251080254e-03 -2.2451680402528120e-02  1.5239150810706327e-02 -2.0998814894413666e-02 -1.9945346346258259e-03  8.2671241525775381e-03 -7.0786304765170262e-03 -3.8090747008729087e-03  2.7832500474457986e-02 -2.9198229010207022e-02 -1.2005158550488794e-02  2.7942713252117640e-01 -1.0527382748759600e-02 6.2734412465885556e-02  2.2688366106768243e-01 -2.9548796151249498e-02 1.5542653701820432e-02  2.6284349333285212e-01 6.1936647323781154e-03 7.5933107607000826e-03  2.2492935390025348e-01 4.5065667887131209e-03 -2.5319307581265047e-03  1.2085276694036601e-01 -1.2697179347559229e-02 4.0100329435120194e-02  1.0054495790147976e-01 8.4951163464581387e-03 4.4444838887612213e-02  1.1613841609441486e-01 1.4153266973874928e-03 6.4200544151823663e-02  1.0997302474450478e-01 -2.1180215813336486e-04 8.2792554670231902e-02  1.4526915738634064e-01 -2.2273792231978371e-02 1.1388802660421202e-01  1.5139901397697589e-01 -2.1064235777417898e-02 1.3554378574013945e-01  2.0609729960500436e-01 -1.3213481163619936e-02 1.3180826316721805e-01  1.4641747485968951e-01 -1.7137814611041847e-02 1.2299152210235940e-01  7.5594639893543575e-04 -6.1576652681991266e-03 -5.6322955013344564e-03  9.5123934605032174e-04 -4.2824748713407874e-03 -4.7292411603764824e-03  9.8197807028858018e-04 -4.9397787820855740e-03 -7.2369223316867872e-03  1.5286762285173948e-03 -4.2149294643817206e-03 -3.1418157641270551e-03  2.2668522550355209e-02 1.1893288490198538e-02 3.6522150067523039e-02  2.8542499756505631e-02 8.9246183969489724e-03 4.2420374798827154e-02  4.2484586289713064e-02 1.2949914445561093e-02 8.7850923484351709e-03  5.7678287408368015e-02 8.2072217286463887e-03 4.3026767684426710e-02  6.8270131176690965e-02 -1.6767237517218619e-02 6.4343442084796254e-02  8.0691891375356081e-02 -2.1610600042814610e-02 9.4950117556645564e-02  5.9392085489497738e-02 -1.2446482867663703e-02 8.2216647876238960e-02  6.4916080344365398e-02 -1.4446394433661046e-02 9.4228215203680923e-02  5.8704713142940665e-02 -1.4737411740779175e-02 4.7144467060556200e-03  4.4846811796259003e-02 2.9363928094387981e-04 -1.6054038850509357e-02  4.8440399595265290e-02 4.3441436431879089e-04 -2.2064991634389838e-02  3.2221902545459376e-02 -3.0191300154759565e-03 -8.7262060151953799e-03  2.4579915479919522e-02 -2.5321888203530991e-02 -1.2497059892400818e-03  2.7951956689957733e-02 -1.1947952866697807e-02 -3.4438429684969775e-02  1.5310202130759700e-02 5.4524673801914451e-03 1.0705339017142044e-02  4.2047074971633083e-02 -3.1289221189213573e-03 -8.5430198721688534e-03  1.8190325208785485e-01 -7.8769567609256533e-04 -9.4945390421965870e-02  1.8348719460722129e-01 3.7120216495729018e-04 -8.0631560079580111e-02  1.8858724342467581e-01 1.4708554240708735e-04 -8.7307821992809342e-02  1.8598559038034182e-01 -6.5781329246579860e-03 -8.3754098979353792e-02  1.4153302658941969e-01 5.7964094754874374e-03 5.2791038131373369e-02  1.4511553501119270e-01 -1.3926534549937907e-04 8.5488042694161756e-02  1.5048678228392540e-01 3.8463661398549596e-04 4.6658882680223876e-02  1.1997203567761634e-01 -1.3081519565567498e-03 7.6302304230547596e-02  8.0264803942844160e-02 1.2007458570866628e-01 -7.0601274176964601e-03  8.3085765969373171e-02 1.0304274472556826e-01 -1.0678051992755795e-02  7.4783895140118031e-02 1.0499404266451332e-01 -1.6498203851302948e-02  1.1218264345416627e-01 1.2830927947737650e-01 -2.4371576861006480e-02  6.5344682933012016e-02 -1.3139294504246060e-03 9.8417637721905316e-02  9.2121323317016113e-02 -8.7000686672840284e-03 6.5304692247696708e-02  1.2283368590407404e-01 1.9213114348389981e-03 8.4929342056459342e-02  8.5379461559872361e-02 -4.9898512692236720e-03 5.2506005020064916e-02  2.9733162759550186e-01 -2.1598149873211268e-02 -5.9360698980352407e-02  2.6076634969950163e-01 2.6039550855451721e-02 -7.3286024654643261e-02  3.1057766402880821e-01 2.3248038147386466e-02 -2.1056686427769849e-02  2.6728594396032040e-01 9.7890417948483174e-03 -4.3805409211407770e-02  5.5591939668085316e-02 -3.6742863684762192e-02 -2.0158411142647405e-02  5.7613513490670815e-02 -3.2459691903644103e-02 -7.9483694804299686e-03  7.1267479096767311e-02 -4.0855243068095952e-02 -2.2838858577299115e-02  6.4282346806654539e-02 -2.1443689079809765e-02 -2.5358935488409819e-02  2.8580902906042943e-01 -2.1843891744439456e-01 -1.5059381502337793e-01  1.6684927006332109e-01 -1.2290683779328851e-01 -9.9962554409717935e-02  2.1626963081586720e-01 -1.6022082348254735e-01 -3.2753285484606549e-02  1.7663088723829973e-01 -2.0578132934302573e-01 -6.5393934398318795e-02  3.9361085247473386e-02 6.0336830896506523e-02 7.1956912061014441e-02  2.7450148346703430e-02 7.3245579685327231e-02 1.8610577015830305e-02  3.0278631370667740e-02 3.4732732867693884e-02 6.3520498294848488e-02  -1.2068415940980608e-03 1.3847626370357072e-01 6.0432946486233173e-02  2.4066237611761562e-01 -1.3372469325108147e-02 -1.9836735906833014e-01  2.4557722438959986e-01 1.1849026232080039e-06 -1.9230880770928055e-01  2.0261719000789388e-01 2.7241453741188786e-02 -1.2441277900691436e-01  2.6732604242279517e-01 3.8129129517388165e-02 -1.2175241538651085e-01  2.0765197763329185e-01 1.5069012507761253e-04 -6.9314969448965400e-03  1.9015344643792276e-01 -8.7700836265199672e-02 -8.1086170965389441e-06  2.3466859080512492e-01 -1.7941259582299943e-01 6.8417249075809886e-02  2.4812011590797767e-01 -8.0991250740453505e-02 -2.1528060008570039e-02  3.2614283186405041e-01 -6.2908105319855268e-03 -3.6600500389431502e-02  2.1570516999835357e-01 1.0027972621246125e-03 -2.6363647419235772e-02  1.7593392714427139e-01 1.0959923907221823e-03 -1.4504790440996712e-04  2.2222488577430566e-01 -1.0855102566668972e-02 -4.3309598248165937e-02  7.6935048437060827e-03 -1.1697511281083253e-03 5.9621883660982922e-02  4.2803096556994560e-02 3.5386195143259664e-06 4.3083343981852873e-02  2.0966615256753075e-02 -1.1400701507126526e-03 2.6910361849462466e-02  2.8555980590121107e-03 -2.5751865374327811e-03 4.3955334210279910e-02  1.2834687460128422e-01 1.3638169954269542e-02 1.9290635590199257e-01  1.2101209351628384e-01 4.3361407242496805e-02 1.2502348645648442e-01  1.1932721848563674e-01 -4.7569378268220277e-03 1.6783009806577048e-01  9.9835350659520178e-02 1.0797165807400678e-02 1.6540109068327077e-01  3.6766249534432006e-02 -2.6727779762720474e-02 -2.5852783943496418e-03  3.7153086239242100e-02 -2.5108209845262720e-02 -1.1920656634631923e-02  3.6388565437288370e-02 -3.2618693824653038e-02 -8.6646971391301977e-03  4.0295813945887354e-02 -4.1424784500632993e-02 -1.3594277819973908e-02  9.7937799547012497e-02 7.3688442351079976e-03 -5.8742842564206581e-02  7.3658072644272515e-02 2.1131539802574642e-03 -4.5123292988148295e-02  7.3741062488578007e-02 6.4209112861919309e-03 -2.2978769012234439e-02  7.5672666460138954e-02 1.2852082067454982e-02 -3.6356857729256252e-02  1.4364478929869121e-01 5.1082551231235826e-02 -2.2895747523930707e-01  1.1968425502399763e-01 1.4666890698424323e-01 -3.4102260887221597e-01  2.2539840105257966e-01 6.4321421263674322e-02 -1.8885298743413573e-01  1.5181124105577123e-01 5.1388306124620371e-02 -1.6263569545556028e-01  1.3819260245900797e-01 1.2707829705806525e-02 7.1380071527490735e-02  1.4583860095532067e-01 4.2252282458036129e-04 7.7477078929174423e-02  1.4861784678765544e-01 8.8238083314107329e-03 7.6598170087936082e-02  1.5045248069177608e-01 1.0803681671753055e-02 8.1214564350033380e-02  1.4739906445977877e-01 -2.5049344599421899e-02 1.5282912707789706e-01  1.5865843473505431e-01 -2.1468919130136595e-02 1.1413409835056161e-01  1.7262038390505355e-01 -1.6943847250976415e-02 1.3699635115950720e-01  1.9991376976635003e-01 -3.7203655798130723e-02 1.0309825592515741e-01  4.4624417163215344e-02 -6.7842131398911654e-02 1.5406919109306017e-02  6.2158282361812645e-02 -6.1692289388986209e-02 7.2546803030636500e-03  4.5791443483351790e-02 -6.8944689142766580e-02 -1.3931509392276992e-02  6.4662891184572621e-02 -4.9743821447026389e-02 -4.4654951928607944e-05  1.0982466296618297e-02 3.1903708048906326e-02 1.4517302799254281e-01  -1.7763654442396668e-02 -9.2295288453039651e-04 9.6808798086639489e-02  4.5839942987307383e-02 -1.7187842189177500e-04 9.2227278834987964e-02  4.6816668314028691e-02 1.6809877957446744e-04 1.1924274917004316e-01  7.0099693464961116e-02 3.6021963229604007e-02 8.3372391315454625e-02  2.4369188458182899e-04 6.0157537710427084e-03 3.4145454494678547e-02  2.9739773410615185e-02 1.2092520039655093e-01 1.4547765769701934e-01  4.7510474277801050e-02 3.0485433973124827e-02 9.3169052220632972e-02  1.7178324063404082e-01 -7.5674876151380410e-02 1.7496379319318631e-01  1.4997741674931553e-01 -5.5385609383963239e-02 2.2179620589408208e-01  2.0061100912991559e-01 -8.1364343498627867e-02 2.4354663308733160e-01  1.6492265213198709e-01 -7.5316658458373389e-02 1.7710266100465177e-01  1.3565987542581534e-01 3.0776337078982016e-02 -3.5125115251569243e-03  1.2939458405595991e-01 4.8363325217123811e-02 5.6542042464034450e-02  9.5382651015065614e-02 2.4006607825194169e-02 2.8301788032485134e-02  9.8436989492412419e-02 3.5542250695687526e-02 2.3702564993066742e-02  2.3897315053090602e-03 4.8616394710020369e-03 3.9611670406861192e-03  2.2083650679614285e-03 2.6845596050724349e-03 7.6258619636167526e-03  1.4778583228135431e-03 2.0049264702266529e-03 3.2035275306174305e-03  5.5317715793249889e-01 1.6834447628468599e-01 -2.8905198540022770e-02  1.3992714784873558e-01 6.3115865991258388e-02 8.6645798861540082e-03  1.1493584323273889e-01 1.2748283098519597e-01 -1.1607240343329771e-01  2.5210078574299710e-01 8.5539477680615511e-02 -2.8988369851942506e-02  2.9935316884124558e-02 -8.2792019672380618e-02 -4.0951097363758307e-02  4.5734696972304444e-02 -7.7448724203796657e-02 -1.4346761762170562e-02  3.7489404508662477e-02 -9.9073321943078496e-02 -2.2132921488000033e-02  3.9712948746705813e-02 -8.6892959977203449e-02 -1.7867818717854370e-02  1.4170715430629263e-01 -1.1654522979231519e-02 1.0400668424374095e-01  1.3749806737670758e-01 -1.5003780955760795e-03 1.2110689871388598e-01  2.3123233669229987e-01 4.5829080338163544e-03 1.5093577771313252e-01  1.3875185700156281e-01 1.9997968508685234e-02 2.0177978565633028e-01  1.3924891488521796e-01 1.9980284129833987e-04 -5.5847802877212012e-03  1.0275532352570615e-01 -5.3714925397615751e-03 -9.5668349979664679e-03  1.2513718492525011e-01 -1.5303075510699154e-02 -2.7131213931855733e-03  9.2074674727231076e-02 -1.6302814203165240e-02 -2.7875584552557817e-02  1.9144726673905288e-01 8.4270264742104437e-04 -8.1209031976285068e-02  1.8177415982629031e-03 5.0320026170358266e-02 -4.7361406951215070e-03  3.1144383841762747e-02 4.3855951119942477e-02 -3.5676643365605720e-02  1.1994411402023160e-01 5.5875863580610488e-02 -5.3025831629899987e-03  1.1426759466490727e-01 -4.3384891617195741e-02 4.0136859540971043e-02  1.1607403245465728e-01 -1.7261159624733796e-01 4.7998514709360472e-02  1.0416976235168306e-01 -4.6281543870326992e-02 7.4645851919300343e-02  1.8990100619104975e-02 -5.3870536807303922e-02 5.8969357492099958e-02  1.7593481062717925e-01 -6.8432174595705247e-02 -1.4268922844843918e-01  1.7677729423498376e-01 -6.3175569180871485e-02 -1.1688728913205164e-01  1.9420158118779343e-01 -1.0209469680121459e-01 -1.1190172937854821e-01  1.8745357304397961e-01 -5.1384881219522519e-02 -1.0512500883473511e-01  2.2654132953515421e-01 -9.9984557899028242e-02 4.0650142738182078e-02  1.5764725199633234e-01 -5.4984586902595611e-02 7.2284115271479224e-02  2.3285820919864919e-01 -4.7254439689663016e-02 3.8594272987982785e-02  1.7194101299947609e-01 -2.4112077012371298e-02 4.6569112874931068e-02  1.5096907216589861e-01 -9.8302049001486782e-03 8.8193009531880071e-02  1.4223059546703143e-01 -2.2599072991804747e-02 7.5210856289205708e-02  1.2899013557563260e-01 -1.8959179815029242e-02 8.1808740248726267e-02  1.2972187677486891e-01 -8.7862825049354245e-03 8.3431201433385574e-02  4.9599113952640876e-02 -2.4768356106200304e-02 -4.2990157966373434e-02  4.6006961084723935e-02 -1.5003650846342545e-02 -3.3489764737432169e-02  4.8364618485635558e-02 -3.0346630185019461e-02 -2.6120679815312860e-02  4.8060746831511500e-02 -3.5207713796893497e-02 -3.0319847068976370e-02  8.5607046286072047e-02 -1.4772971754681131e-02 5.6464584578395428e-04  9.0345186425180329e-02 -3.5059096881795142e-02 -9.8855737915552787e-04  1.0212230006147675e-01 -8.7539280188347803e-03 2.8912802544745950e-04  7.9584629804981086e-02 -1.5928673657301360e-02 -7.4382546374152109e-03  4.5422823317087885e-02 -4.8734908008205347e-02 -1.6254055660755919e-02  4.2205357841639701e-02 -4.2895438099840213e-02 -9.7919215966092502e-03  3.9621324049253691e-02 -4.9002984202884556e-02 -9.0048049376263671e-03  4.1219347041861677e-02 -4.7650977316859487e-02 -4.6614147185261154e-03  -1.3517182251277701e-01 -3.0224945760705307e-01 1.8010947265342514e-01  9.6124640545296014e-02 -1.7161825119909940e-01 2.1958980535010528e-01  1.7499459323241073e-01 -3.2517479506986763e-01 4.3643928676722260e-01  5.9808334822032780e-02 -2.2377687355685888e-01 3.6583646668322273e-01  1.4164111882771896e-01 -5.3717952310032482e-03 6.6922568251505596e-02  1.3301271073496673e-01 5.9809062712939901e-03 1.1394803531257931e-01  1.5023018230745458e-01 5.8615340334800710e-03 9.9898546841899333e-02  1.0372254899448047e-01 2.4645175067369881e-03 1.1570832709923670e-01  4.3668012350932407e-02 4.3664817258366025e-02 4.8873271123766285e-02  2.6803775241031225e-02 3.7676046966983186e-02 4.4886072214277331e-02  4.0217332374376080e-02 4.6944019835195090e-02 5.4814710353536432e-02  3.8495358506437129e-02 4.6989249824519963e-02 4.3357501528728970e-02  3.0205448958610293e-01 6.8874918225586390e-02 -2.3848165700181660e-02  2.4227354313944638e-01 1.0898812166555399e-01 -3.0461539825889967e-02  2.9007635135251042e-01 6.5051336907403765e-02 1.1889356193193411e-02  2.4129504128617740e-01 6.4968330431399615e-02 6.4184267291452504e-02  9.9835638162084378e-02 8.5810279369704034e-02 5.1063533469464656e-02  1.2799994990290708e-01 