<?xml version="1.0"?>
<VTKFile type="UnstructuredGrid"  version="0.1"  >
<UnstructuredGrid>
<Piece  NumberOfPoints="557" NumberOfCells="2316">
<Points>
<DataArray  type="Float64"  NumberOfComponents="3"  format="ascii">30 20 20  30 20 22.5  27.5 20 22.5  27.5 17.5 22.5  27.5 20 20  27.5 17.5 20  30 20 25  27.5 20 25  30 22.5 22.5  30 22.5 20  27.5 22.5 22.5  27.5 22.5 20  30 25 20  30 25 22.5  30 25 25  30 22.5 25  27.5 22.5 25  27.5 25 25  32.5 22.5 22.5  32.5 22.5 20  32.5 20 20  35 20 20  35 22.5 22.5  35 22.5 20  35 25 20  35 25 22.5  35 25 25  32.5 20 22.5  35 20 22.5  35 20 25  35 22.5 25  32.5 22.5 25  32.5 20 25  32.5 25 22.5  32.5 25 20  32.5 25 25  37.5 22.5 22.5  37.5 22.5 20  37.5 25 22.5  37.5 25 20  40 25 20  40 25 22.5  40 25 25  37.5 22.5 25  37.5 25 25  37.5 27.5 22.5  40 27.5 22.5  40 27.5 25  37.5 27.5 25  30 22.5 27.5  27.5 22.5 27.5  30 25 27.5  30 25 30  30 20 27.5  27.5 20 27.5  30 20 30  30 22.5 30  27.5 22.5 30  27.5 20 30  27.5 25 27.5  27.5 25 30  32.5 22.5 27.5  35 22.5 27.5  35 25 27.5  35 25 30  32.5 20 27.5  35 20 27.5  35 20 30  35 22.5 30  32.5 22.5 30  32.5 20 30  32.5 25 27.5  32.5 25 30  37.5 22.5 27.5  37.5 25 27.5  40 25 27.5  40 25 30  37.5 22.5 30  37.5 25 30  30 27.5 27.5  27.5 27.5 27.5  27.5 27.5 30  32.5 27.5 27.5  35 27.5 27.5  35 27.5 30  32.5 27.5 30  37.5 27.5 27.5  40 27.5 27.5  40 27.5 30  37.5 27.5 30  30 22.5 32.5  27.5 22.5 32.5  30 25 32.5  30 25 35  27.5 25 32.5  25 25 35  27.5 25 35  27.5 22.5 35  32.5 22.5 32.5  35 22.5 32.5  35 25 32.5  35 25 35  32.5 25 32.5  32.5 25 35  37.5 22.5 32.5  37.5 25 32.5  40 25 32.5  40 25 35  37.5 25 35  27.5 27.5 32.5  30 27.5 32.5  30 27.5 35  27.5 27.5 35  25 27.5 35  32.5 27.5 32.5  35 27.5 32.5  35 27.5 35  32.5 27.5 35  37.5 27.5 32.5  40 27.5 32.5  40 27.5 35  37.5 27.5 35  27.5 25 37.5  27.5 22.5 37.5  27.5 27.5 37.5  30 27.5 37.5  32.5 27.5 37.5  35 27.5 37.5  32.5 25 37.5  35 25 37.5  35 25 40  35 27.5 40  42.5 27.5 22.5  42.5 25 22.5  42.5 27.5 25  42.5 25 25  45 25 25  45 27.5 25  42.5 27.5 27.5  45 27.5 27.5  42.5 25 27.5  45 25 27.5  45 25 30  45 27.5 30  42.5 27.5 30  42.5 25 30  47.5 27.5 27.5  47.5 27.5 30  42.5 27.5 32.5  45 27.5 32.5  42.5 25 32.5  45 25 32.5  45 25 35  45 27.5 35  42.5 27.5 35  42.5 25 35  47.5 27.5 32.5  47.5 25 30  50 25 30  50 27.5 32.5  50 27.5 30  47.5 25 32.5  50 25 32.5  50 25 35  50 27.5 35  50 30 35  47.5 27.5 35  47.5 25 35  37.5 27.5 37.5  40 27.5 37.5  37.5 25 37.5  40 25 37.5  40 25 40  40 27.5 40  37.5 25 40  42.5 27.5 37.5  45 27.5 37.5  42.5 25 37.5  45 25 37.5  45 25 40  45 27.5 40  42.5 25 40  47.5 27.5 37.5  50 27.5 37.5  47.5 27.5 40  47.5 27.5 42.5  30 15 20  30 15 22.5  30 12.5 22.5  27.5 12.5 22.5  30 15 25  30 10 25  30 12.5 25  27.5 15 22.5  27.5 15 20  35 10 20  35 12.5 22.5  35 12.5 20  32.5 12.5 22.5  35 15 20  35 15 22.5  35 15 25  35 10 22.5  35 10 25  35 12.5 25  32.5 12.5 25  32.5 10 25  32.5 15 22.5  32.5 15 20  32.5 15 25  37.5 12.5 22.5  37.5 12.5 20  37.5 10 20  40 10 20  40 12.5 22.5  40 12.5 20  40 15 20  40 15 22.5  40 15 25  37.5 10 22.5  40 10 22.5  40 10 25  40 12.5 25  37.5 12.5 25  37.5 10 25  37.5 15 22.5  37.5 15 20  37.5 15 25  42.5 12.5 22.5  42.5 12.5 20  42.5 10 20  45 10 20  45 12.5 22.5  45 12.5 20  45 15 20  45 15 22.5  45 15 25  42.5 10 22.5  45 10 22.5  45 10 25  45 12.5 25  42.5 12.5 25  42.5 10 25  42.5 15 22.5  42.5 15 20  42.5 15 25  47.5 12.5 22.5  47.5 12.5 20  47.5 10 20  50 10 20  50 12.5 22.5  50 12.5 20  50 15 20  50 15 22.5  50 15 25  47.5 10 22.5  50 10 22.5  50 10 25  50 12.5 25  47.5 12.5 25  47.5 10 25  47.5 15 22.5  47.5 15 20  47.5 15 25  30 17.5 22.5  30 17.5 20  30 17.5 25  32.5 17.5 22.5  32.5 17.5 20  35 17.5 22.5  35 17.5 20  35 17.5 25  32.5 17.5 25  37.5 17.5 22.5  37.5 17.5 20  40 17.5 22.5  40 17.5 20  40 20 20  40 20 22.5  40 20 25  40 17.5 25  37.5 17.5 25  37.5 20 22.5  37.5 20 20  37.5 20 25  42.5 17.5 22.5  42.5 17.5 20  45 17.5 22.5  45 17.5 20  45 20 20  45 20 22.5  45 20 25  45 17.5 25  42.5 17.5 25  42.5 20 22.5  42.5 20 20  42.5 20 25  47.5 17.5 22.5  47.5 17.5 20  50 17.5 22.5  50 17.5 20  50 20 20  50 20 22.5  50 20 25  50 17.5 25  47.5 17.5 25  47.5 20 22.5  47.5 20 20  47.5 20 25  40 22.5 22.5  40 22.5 20  40 22.5 25  42.5 22.5 22.5  42.5 22.5 20  45 22.5 22.5  45 22.5 20  45 25 20  45 25 22.5  45 22.5 25  42.5 22.5 25  42.5 25 20  47.5 22.5 22.5  47.5 22.5 20  50 22.5 22.5  50 22.5 20  50 25 20  50 25 22.5  50 25 25  50 22.5 25  47.5 22.5 25  47.5 25 22.5  47.5 25 20  47.5 25 25  45 27.5 22.5  47.5 27.5 22.5  50 27.5 22.5  50 27.5 25  47.5 27.5 25  32.5 12.5 27.5  35 12.5 27.5  35 15 27.5  35 15 30  32.5 15 27.5  37.5 12.5 27.5  40 12.5 27.5  40 15 27.5  40 15 30  40 12.5 30  37.5 12.5 30  37.5 15 27.5  37.5 15 30  42.5 12.5 27.5  45 12.5 27.5  45 15 27.5  45 15 30  45 12.5 30  42.5 12.5 30  42.5 15 27.5  42.5 15 30  47.5 12.5 27.5  50 12.5 27.5  50 15 27.5  50 15 30  47.5 15 27.5  47.5 15 30  47.5 12.5 30  32.5 17.5 27.5  35 17.5 27.5  35 17.5 30  37.5 17.5 27.5  40 17.5 27.5  40 20 27.5  40 20 30  40 17.5 30  37.5 17.5 30  37.5 20 27.5  37.5 20 30  42.5 17.5 27.5  45 17.5 27.5  45 20 27.5  45 20 30  45 17.5 30  42.5 17.5 30  42.5 20 27.5  42.5 20 30  47.5 17.5 27.5  50 17.5 27.5  50 20 27.5  50 20 30  50 17.5 30  47.5 17.5 30  47.5 20 27.5  47.5 20 30  40 22.5 27.5  40 22.5 30  42.5 22.5 27.5  45 22.5 27.5  45 22.5 30  42.5 22.5 30  47.5 22.5 27.5  50 22.5 27.5  50 25 27.5  50 22.5 30  47.5 22.5 30  47.5 25 27.5  50 27.5 27.5  40 15 32.5  40 12.5 32.5  37.5 12.5 32.5  40 15 35  37.5 15 32.5  45 15 32.5  45 12.5 32.5  42.5 12.5 32.5  45 15 35  42.5 15 32.5  42.5 15 35  47.5 15 32.5  47.5 12.5 32.5  50 15 32.5  50 15 35  47.5 15 35  42.5 17.5 32.5  45 17.5 32.5  45 20 32.5  45 20 35  45 17.5 35  42.5 17.5 35  42.5 20 32.5  47.5 17.5 32.5  50 17.5 32.5  50 20 32.5  50 20 35  50 17.5 35  47.5 17.5 35  47.5 20 32.5  47.5 20 35  40 22.5 32.5  42.5 22.5 32.5  45 22.5 32.5  45 22.5 35  47.5 22.5 32.5  50 22.5 32.5  50 22.5 35  47.5 22.5 35  27.5 12.5 25  27.5 15 25  27.5 17.5 25  30 12.5 27.5  27.5 12.5 27.5  30 15 27.5  30 15 30  30 10 27.5  30 10 30  30 12.5 30  27.5 15 27.5  27.5 15 30  32.5 15 30  30 17.5 27.5  27.5 17.5 27.5  30 17.5 30  27.5 17.5 30  32.5 17.5 30  30 17.5 32.5  27.5 17.5 32.5  30 20 32.5  30 20 35  27.5 20 32.5  27.5 20 35  32.5 17.5 32.5  35 17.5 32.5  35 20 32.5  35 20 35  32.5 20 32.5  32.5 20 35  30 22.5 35  35 22.5 35  32.5 22.5 35  30 22.5 37.5  32.5 22.5 37.5  35 22.5 37.5  37.5 17.5 32.5  40 17.5 32.5  40 20 32.5  40 20 35  40 17.5 35  37.5 17.5 35  37.5 20 32.5  37.5 20 35  42.5 20 35  40 22.5 35  37.5 22.5 35  42.5 22.5 35  40 17.5 37.5  37.5 17.5 37.5  40 20 37.5  40 20 40  37.5 20 37.5  42.5 17.5 37.5  45 17.5 37.5  45 20 37.5  45 20 40  42.5 20 37.5  47.5 17.5 37.5  50 17.5 37.5  50 20 37.5  50 20 40  47.5 20 37.5  47.5 20 40  37.5 22.5 37.5  40 22.5 37.5  40 22.5 40  42.5 22.5 37.5  45 22.5 37.5  45 22.5 40  47.5 22.5 37.5  50 22.5 37.5  50 25 37.5  50 25 40  50 22.5 40  47.5 22.5 40  47.5 25 37.5  47.5 25 40  50 27.5 40  47.5 22.5 42.5  50 22.5 42.5  50 25 42.5  47.5 25 42.5  50 27.5 42.5  42.5 10 17.5  42.5 7.5 17.5  40 15 17.5  40 12.5 17.5  37.5 12.5 17.5  37.5 15 17.5  42.5 12.5 17.5  42.5 15 17.5  30 20 17.5  30 17.5 17.5  27.5 17.5 17.5  27.5 20 17.5  35 20 17.5  35 17.5 17.5  32.5 17.5 17.5  32.5 20 17.5  40 17.5 17.5  37.5 17.5 17.5  37.5 20 17.5  42.5 17.5 17.5  30 22.5 17.5  27.5 22.5 17.5  35 22.5 17.5  32.5 22.5 17.5  37.5 22.5 17.5  47.5 17.5 17.5  47.5 20 17.5  47.5 22.5 17.5  </DataArray>
</Points>
<Cells>
[...]
<PointData  Scalars="c_HbCO2"> 
<DataArray  type="Float64"  Name="c_HbCO2"  format="ascii">4.6383896331340909e-31  1.8020151681329978e-31  -1.1091665587820952e-30  -2.8742188456199310e-30  -5.9389585693560939e-32  -1.1091665458071157e-30  4.6383896995839058e-31  -5.9389763467467406e-32  1.0246391429366653e-32  1.8020151542919908e-31  -2.8742185095003815e-30  -1.1091665699754455e-30  4.6383895912712312e-31  1.8020149998140532e-31  4.6383897149443537e-31  1.8020153143716113e-31  -1.1091664824200029e-30  -5.9389606180367398e-32  -7.5339406310237570e-32  -2.9152872608940103e-32  -1.5998098552587993e-33  1.2189997211490134e-32  2.6505045495546020e-34  4.7282240730959981e-33  1.2189996685002375e-32  4.7282229495174122e-33  1.2189995549374778e-32  -2.9152872259714964e-32  4.7282241404623633e-33  1.2189997297702144e-32  4.7282238987067449e-33  -2.9152871823159176e-32  -1.5998090017399786e-33  -2.9152871112358691e-32  -1.5998107969796396e-33  -1.5998113966385874e-33  -1.9768939760382694e-33  -7.6570481882143517e-34  -7.6570494043253319e-34  -4.2383269446516644e-35  3.2016074401154190e-34  1.2411211227130037e-34  3.2016081399630125e-34  -7.6570484945712639e-34  -4.2383429520569003e-35  -1.9768940160293132e-33  6.9219971053410793e-36  1.2411203487467799e-34  -7.6570490227082843e-34  1.0246366152485321e-32  -2.8742188632197836e-30  1.8020150352315769e-31  4.6383897545923658e-31  1.8020150165166235e-31  -1.1091665306626101e-30  4.6383897558013325e-31  1.8020150837419229e-31  -1.1091664349141126e-30  -5.9389462768597012e-32  -1.1091665432812416e-30  -5.9389622420058523e-32  -7.5339407170173581e-32  2.6505004685582567e-34  4.7282236930345375e-33  1.2189998780046332e-32  -2.9152870406273811e-32  4.7282240549370249e-33  1.2189997469208296e-32  4.7282265937649586e-33  -2.9152863441407843e-32  -1.5998191028926259e-33  -2.9152874619208149e-32  -1.5998026814496757e-33  -1.9768940957127005e-33  -7.6570421613452279e-34  1.2411212179317024e-34  3.2016069492786293e-34  -7.6570470527803544e-34  -4.2383244214025342e-35  1.0246500951491919e-32  -2.8742186396406251e-30  -1.1091665844423791e-30  -7.5339490871958602e-32  2.6504717630584755e-34  4.7282233961272218e-33  -2.9152884198643033e-32  -1.9768931769698694e-33  6.9220085404103772e-36  1.2411266603900692e-34  -7.6570476582811762e-34  1.0246062434502820e-32  -2.8742179676353636e-30  1.8020155122404791e-31  4.6383971818582560e-31  -1.1091664648355155e-30  1.7618439733607375e-29  -5.9389303128699542e-32  -1.1091469258969611e-30  -7.5339497099650587e-32  2.6504929242865764e-34  4.7282196277385075e-33  1.2189983156908346e-32  -2.9152848982273525e-32  -1.5998037075584417e-33  -1.9768911796653742e-33  -7.6570405632562870e-34  1.2411213608994641e-34  3.2016070570739862e-34  -4.2382971484038376e-35  -2.8742188583105611e-30  1.0246396345334526e-32  1.8020156523031578e-31  -1.1091665788500964e-30  6.8755429650423414e-30  -7.5339393594754773e-32  2.6505002284002910e-34  4.7282239588701500e-33  -2.9152837950812138e-32  -1.9768940980346750e-33  6.9220432337234641e-36  1.2411202622796384e-34  -7.6570529953475807e-34  -1.1091663646422268e-30  -2.8742137047803791e-30  -2.8742188645414988e-30  1.0246414300965466e-32  -7.5339380442748695e-32  2.6505124070801679e-34  -2.9152908394676198e-32  4.7282241690764619e-33  1.2189997094550304e-32  4.7282265613396265e-33  -5.1893772447952659e-35  -2.0106758559944260e-35  -2.0106757055233199e-35  -1.1163525698596377e-36  8.4126844594036910e-36  3.2605590357199229e-36  -5.1893765555607543e-35  1.8151236219886795e-37  -2.0106756962026682e-35  3.2605598664243250e-36  8.4126864229976520e-36  3.2605565998589824e-36  -2.0106739270927465e-35  -1.1163521531341066e-36  -1.3981201698702413e-36  -5.4177965452360906e-37  -5.1893762613230366e-35  1.8151960959219014e-37  -2.0106759094684138e-35  3.2605609054848223e-36  8.4126850005473581e-36  3.2605579824384577e-36  -2.0106755700947754e-35  -1.1163552829495654e-36  -1.3981196631958419e-36  -3.0112987012558987e-38  4.4146710969184042e-37  9.5183211840622595e-39  1.7109047185522323e-37  -5.4178130948058936e-37  1.7108999015969244e-37  4.4146693323775370e-37  1.7108971018561167e-37  4.4146720238949390e-37  -5.4178215846285109e-37  -3.0113546689993447e-38  -1.9768936352698085e-33  6.9219392619973772e-36  -7.6570452867554410e-34  1.2411208217664466e-34  3.2016082474899109e-34  1.2411199294134184e-34  -4.2383332709693129e-35  -5.1893858094644811e-35  1.8151855128152912e-37  -2.0106752541635244e-35  3.2605540242250495e-36  8.4126788949648142e-36  3.2605560358249698e-36  -1.1163361467029425e-36  -1.3981178490261164e-36  9.5173923833237674e-39  -5.4177933652508721e-37  -1.3981197356986598e-36  4.6383895812750484e-31  1.8020150805424364e-31  1.0246371966884930e-32  -2.8742188470984963e-30  4.6383895887790429e-31  4.6383895745524443e-31  1.8020150923671020e-31  -1.1091665553567540e-30  -5.9389604390272041e-32  1.2189997208911787e-32  2.6505055496123497e-34  4.7282239550469425e-33  -7.5339404478897412e-32  1.2189997210326822e-32  4.7282240329641772e-33  1.2189997143490056e-32  4.7282240781481388e-33  1.2189997136601523e-32  4.7282240304371920e-33  -2.9152871074759691e-32  -1.5998097131014947e-33  -2.9152870931442964e-32  -1.5998092728754548e-33  -1.5998093131740583e-33  -1.9768939411366694e-33  -7.6570479270553474e-34  -4.2383275855014676e-35  3.2016076776561249e-34  6.9219826994861820e-36  1.2411209969012861e-34  3.2016077098237878e-34  1.2411209906361880e-34  3.2016077147864259e-34  -7.6570478414822872e-34  1.2411211113158156e-34  3.2016076734872034e-34  1.2411210027605658e-34  -7.6570482021829574e-34  -4.2383279668747697e-35  -7.6570481461533965e-34  -4.2383287286081171e-35  -4.2383279954591811e-35  -5.1893782845786931e-35  -2.0106756939968382e-35  -1.1163520017825998e-36  8.4126846294139230e-36  1.8151772616797377e-37  3.2605590422868871e-36  8.4126852950335374e-36  3.2605594899769900e-36  8.4126849102788595e-36  -2.0106757307042444e-35  3.2605603663135941e-36  8.4126843368097029e-36  3.2605593423066228e-36  -2.0106757673262118e-35  -1.1163518732032856e-36  -2.0106757278517598e-35  -1.1163538837995006e-36  -1.1163543811974555e-36  -1.3981201132768298e-36  -5.4178225841265337e-37  -3.0113404691478237e-38  4.4146699252524243e-37  9.5184961613978898e-39  1.7108983873758677e-37  4.4146707026634113e-37  1.7108987545858895e-37  4.4146701586451437e-37  -5.4178199311866014e-37  1.7108969889412190e-37  4.4146707966288505e-37  1.7108990631381829e-37  -5.4178177000168786e-37  -3.0113240751609052e-38  -5.4178193015828138e-37  -3.0113318381684977e-38  -3.0113403586467387e-38  1.0246371684567625e-32  1.8020150892605892e-31  1.8020150683498721e-31  -7.5339405408909797e-32  -2.9152871343546587e-32  2.6505054222224932e-34  4.7282241166341648e-33  4.7282239276813399e-33  -2.9152871395257598e-32  -1.9768939586182397e-33  -7.6570482985173671e-34  6.9219865847917006e-36  1.2411209115190706e-34  3.2016075064912919e-34  1.2411210356050097e-34  3.2016077456980783e-34  1.2411210152195544e-34  -7.6570482119780747e-34  -7.6570481961515649e-34  -4.2383271695672336e-35  -4.2383268506659107e-35  -5.1893782393687625e-35  -2.0106759826396634e-35  1.8151757900461670e-37  3.2605593667986071e-36  8.4126848768036668e-36  3.2605595753693121e-36  8.4126850411280423e-36  3.2605594585908489e-36  -2.0106757045457185e-35  -2.0106757316373697e-35  -1.1163501406468158e-36  -1.1163539140862075e-36  -1.3981201744891785e-36  -5.4178213755104845e-37  9.5185367987892879e-39  1.7108998487202180e-37  4.4146692434782982e-37  1.7108989977644356e-37  4.4146704922294284e-37  1.7108994745940884e-37  -5.4178188423991680e-37  -5.4178194727190119e-37  -3.0113399363557816e-38  -3.0113370113160969e-38  6.9219894522515344e-36  1.2411209087005904e-34  1.2411210847833556e-34  -5.1893782993924508e-35  -2.0106758455325693e-35  1.8151765504221251e-37  3.2605613043577250e-36  8.4126834367782143e-36  3.2605600926930835e-36  3.2605599489455899e-36  -2.0106757442505999e-35  -1.1163517455339885e-36  -1.3981202995100779e-36  -5.4178185533201192e-37  9.5184851570951533e-39  1.7108990796605633e-37  4.4146695137505242e-37  1.7108981658979060e-37  4.4146723610442124e-37  1.7108986922700251e-37  -5.4178195484350609e-37  -5.4178196928895726e-37  -3.0113926929803511e-38  -3.0113601018207680e-38  1.8152012173876086e-37  -1.3981203295903248e-36  9.5187460762614394e-39  1.7108938134823338e-37  -5.4178325381645257e-37  -7.5339405157204254e-32  2.6505028120640819e-34  4.7282239930442965e-33  1.2189996528851255e-32  -2.9152870695808863e-32  -1.9768939431723028e-33  6.9219787337026823e-36  1.2411210031471956e-34  3.2016077352203305e-34  1.2411211205778485e-34  -7.6570483294272178e-34  -7.6570480864418563e-34  -4.2383195273733806e-35  -5.1893781965121350e-35  1.8151827343955644e-37  3.2605595435798081e-36  8.4126849508382858e-36  3.2605599348101031e-36  -2.0106757892609995e-35  -2.0106758003945324e-35  -1.1163532336496384e-36  -1.3981200132594015e-36  9.5187557053215773e-39  1.7108998284955785e-37  4.4146725793175954e-37  -5.4178186835776848e-37  -3.0113354555581413e-38  -5.4178100644789745e-37  -7.5339402871659023e-32  2.6505064125609334e-34  4.7282233001280697e-33  -1.9768939622911579e-33  6.9219845852866279e-36  1.2411209343256284e-34  3.2016072741601897e-34  1.2411211626367866e-34  -7.6570482518509628e-34  -7.6570478809662765e-34  -4.2383484265661976e-35  -5.1893783152242561e-35  1.8151766125293107e-37  3.2605598509185043e-36  8.4126860178186256e-36  3.2605592368707925e-36  -2.0106757193529873e-35  -2.0106758617989162e-35  -1.1163532200028071e-36  -1.3981201247411613e-36  9.5184626809190187e-39  1.7108987895870257e-37  4.4146723060657856e-37  1.7108998216024757e-37  -5.4178206952634827e-37  -5.4178198185245182e-37  -3.0113614310970795e-38  6.9219975289497779e-36  1.2411200952190635e-34  -5.1893783716075416e-35  1.8151816286278914e-37  3.2605610253757400e-36  -2.0106763057031109e-35  -1.3981202786297768e-36  9.5185819454880031e-39  1.7109003098801968e-37  1.7109003145503211e-37  -5.4178207214528500e-37  -5.4178169700617319e-37  9.5182242191254401e-39  1.2411213896799573e-34  6.9219701026449445e-36  -1.9768939809088144e-33  3.2016074519557492e-34  -7.6570495393789499e-34  3.2605599060564142e-36  1.8151696333483573e-37  -5.1893779632089101e-35  8.4126874849781284e-36  -2.0106760334301591e-35  -1.1163459968658623e-36  -5.4178186683336306e-37  -1.3981200575906731e-36  1.7108987474105277e-37  4.4146733938817392e-37  -3.0112451851851160e-38  -5.1893793254601850e-35  1.8151764241573137e-37  3.2605592468123406e-36  8.4126852208776832e-36  3.2605628368429464e-36  -2.0106763563377119e-35  -2.0106766908152457e-35  -1.3981202549846010e-36  9.5184826765920075e-39  1.7109012824115380e-37  4.4146702331369412e-37  1.7108992090247026e-37  -5.4178175592242374e-37  -5.4178237991432830e-37  -3.0113120661311576e-38  6.9220365061928165e-36  -5.1893790459200421e-35  1.8151877568473783e-37  3.2605610756376583e-36  -1.3981203559154704e-36  9.5186018881183606e-39  1.7109003612579563e-37  -5.4178210188414158e-37  -1.1091665531034566e-30  -5.9389602038763576e-32  -1.1091665414022540e-30  1.0246373507766476e-32  -2.8742188484720838e-30  1.8020150861610226e-31  4.6383898798217090e-31  1.8020150976798527e-31  4.6383895359062809e-31  1.8020150958352504e-31  -1.1091665461628632e-30  -5.9389783401913310e-32  -1.5998101971080123e-33  1.0246373784192476e-32  -2.8742188132883874e-30  1.8020142816177892e-31  -1.1091667396768647e-30  -2.9152856648084690e-32  1.0246473550149756e-32  -2.8742154514121685e-30  1.8020230019622958e-31  4.6383656022545498e-31  -1.1091658512605946e-30  -5.9153098217046704e-32  -7.5339404854251912e-32  2.6504917805263221e-34  4.7282302823036501e-33  1.2189985744540507e-32  -2.9152792248020101e-32  -1.5996734444758681e-33  1.8020109972531865e-31  4.7281862419569978e-33  -2.9152408281363538e-32  1.0247065829439132e-32  -7.5339361329759136e-32  2.6504913009634400e-34  -1.9768948572511488e-33  6.9220569861366261e-36  1.2411219700894385e-34  3.2016089161472798e-34  1.2411218967576963e-34  -7.6570363959102176e-34  -7.6570433631404082e-34  -4.2383362766134931e-35  -1.1163553714050497e-36  1.2411206584769659e-34  -7.6570275451308268e-34  -2.0106758245893853e-35  6.9220003927769624e-36  -1.9768948775201120e-33  1.2411212427706908e-34  3.2016075509850429e-34  -7.6570481733570215e-34  -5.1893801483737217e-35  1.8151977542609526e-37  3.2605611854042295e-36  8.4126853282371531e-36  -2.0106758839878501e-35  -1.3981203517784093e-36  9.5186548762341225e-39  1.7109001338510227e-37  4.4146697211588414e-37  -5.4178199429300914e-37  -3.0113032557798946e-38  -1.9768956481172179e-33  6.9219062654376869e-36  1.2411207122986799e-34  -5.1893804448328148e-35  1.8151906818149887e-37  3.2605599393755868e-36  -1.3981205767548155e-36  9.5186591580963773e-39  1.7108962922660887e-37  4.4146820090740928e-37  1.7109001361769527e-37  -5.4178191776720194e-37  -5.4178190625858981e-37  -3.0113856456363504e-38  1.7108958305477313e-37  -1.3981210540927275e-36  9.5180432331304066e-39  1.7108842661816148e-37  -5.4178217754185903e-37  9.5193616159544248e-39  -2.0106758835271734e-35  -5.1893784634236700e-35  1.2411207826990199e-34  6.9219940654963301e-36  -1.9768939751777237e-33  -7.6570486728637540e-34  -5.1893782763065814e-35  -2.0106768814451577e-35  1.8020150687330836e-31  1.0246372397172955e-32  -2.8742188413599146e-30  -1.1091665545597778e-30  4.7282251142123322e-33  2.6505080536668814e-34  -7.5339405538873563e-32  -2.9152874676678907e-32  6.9219248987791763e-36  -1.9768936829107853e-33  -7.6570463641646975e-34  -5.1893774190984832e-35  1.0246369212019705e-32  -2.8742188097482177e-30  2.6505282555061068e-34  -7.5339404365787238e-32  -1.9768939776332970e-33  -1.3981199742068004e-36  -5.4178194904159024e-37  -1.3981200620581806e-36  </DataArray> 
</PointData> 
</Piece>
</UnstructuredGrid>
</VTKFile>