<?xml version="1.0"?>
<VTKFile type="UnstructuredGrid"  version="0.1"  >
<UnstructuredGrid>
<Piece  NumberOfPoints="613" NumberOfCells="2480">
<Points>
<DataArray  type="Float64"  NumberOfComponents="3"  format="ascii">0 10 40  2.5 12.5 40  0 12.5 40  2.5 12.5 37.5  0 12.5 37.5  0 15 40  2.5 15 40  5 15 40  20 15 40  20 12.5 40  20 12.5 37.5  17.5 12.5 37.5  17.5 12.5 40  15 10 40  15 12.5 40  15 15 40  17.5 15 40  22.5 15 40  22.5 12.5 40  22.5 12.5 37.5  25 15 40  5 15 42.5  5 12.5 42.5  2.5 12.5 42.5  5 15 45  5 12.5 45  2.5 12.5 45  2.5 15 42.5  0 10 45  0 12.5 45  0 12.5 42.5  0 15 45  2.5 15 45  0 15 42.5  10 15 40  10 15 42.5  10 12.5 42.5  7.5 12.5 42.5  10 15 45  10 10 45  10 12.5 45  7.5 12.5 45  7.5 15 42.5  7.5 15 40  7.5 15 45  15 12.5 42.5  12.5 12.5 42.5  15 15 42.5  15 15 45  15 10 42.5  15 10 45  15 12.5 45  12.5 12.5 45  12.5 10 45  12.5 15 42.5  12.5 15 40  12.5 15 45  20 15 42.5  20 12.5 42.5  17.5 12.5 42.5  20 15 45  20 10 45  20 12.5 45  17.5 12.5 45  17.5 10 45  17.5 15 42.5  17.5 15 45  25 15 42.5  25 12.5 42.5  22.5 12.5 42.5  25 15 45  25 10 45  25 12.5 45  22.5 12.5 45  22.5 10 45  22.5 15 42.5  22.5 15 45  2.5 17.5 42.5  5 17.5 42.5  5 17.5 45  5 20 45  2.5 17.5 45  0 17.5 42.5  0 17.5 45  0 20 45  2.5 20 45  7.5 17.5 42.5  10 17.5 42.5  10 17.5 45  10 20 45  7.5 17.5 45  7.5 20 45  25 10 47.5  25 7.5 47.5  22.5 7.5 47.5  25 10 50  25 7.5 50  22.5 7.5 50  22.5 10 47.5  20 10 50  22.5 10 50  20 10 47.5  5 15 47.5  5 12.5 47.5  2.5 12.5 47.5  5 15 50  5 10 50  5 12.5 50  0 10 50  2.5 12.5 50  2.5 10 50  2.5 15 47.5  0 12.5 47.5  0 10 47.5  0 12.5 50  0 15 50  2.5 15 50  0 15 47.5  10 12.5 47.5  7.5 12.5 47.5  10 15 47.5  10 15 50  10 10 50  10 12.5 50  7.5 12.5 50  7.5 10 50  7.5 15 47.5  7.5 15 50  12.5 12.5 47.5  15 12.5 47.5  15 15 47.5  15 15 50  15 10 47.5  15 10 50  15 12.5 50  12.5 12.5 50  12.5 10 50  12.5 15 47.5  12.5 15 50  17.5 12.5 47.5  20 12.5 47.5  20 15 47.5  20 15 50  17.5 10 47.5  20 12.5 50  17.5 12.5 50  17.5 10 50  17.5 15 47.5  17.5 15 50  22.5 12.5 47.5  25 12.5 47.5  25 15 47.5  25 15 50  25 12.5 50  22.5 12.5 50  22.5 15 47.5  22.5 15 50  2.5 17.5 47.5  5 17.5 47.5  5 20 47.5  5 20 50  5 17.5 50  2.5 17.5 50  2.5 20 47.5  0 17.5 47.5  0 17.5 50  0 20 50  2.5 20 50  0 20 47.5  7.5 17.5 47.5  10 17.5 47.5  10 20 47.5  10 20 50  10 17.5 50  7.5 17.5 50  7.5 20 47.5  7.5 20 50  12.5 17.5 47.5  15 17.5 47.5  15 17.5 50  15 20 50  12.5 17.5 50  12.5 20 50  12.5 20 47.5  17.5 17.5 47.5  20 17.5 47.5  20 17.5 50  20 20 50  17.5 17.5 50  17.5 20 50  22.5 17.5 47.5  25 17.5 47.5  25 17.5 50  25 20 50  22.5 17.5 50  22.5 20 50  5 20 30  5 20 32.5  5 17.5 32.5  2.5 17.5 32.5  5 20 35  5 15 35  5 17.5 35  0 15 35  2.5 17.5 35  2.5 15 35  2.5 20 32.5  0 17.5 35  0 17.5 32.5  0 20 35  2.5 20 35  0 20 30  0 20 32.5  7.5 17.5 35  7.5 17.5 32.5  7.5 20 35  10 20 35  7.5 20 32.5  5 25 30  5 25 32.5  5 22.5 32.5  2.5 22.5 32.5  5 25 35  5 22.5 35  2.5 22.5 35  2.5 25 32.5  0 22.5 32.5  0 22.5 35  0 25 35  2.5 25 35  0 25 32.5  10 25 30  10 25 32.5  10 22.5 32.5  7.5 22.5 32.5  10 25 35  10 22.5 35  7.5 22.5 35  7.5 25 32.5  7.5 25 30  7.5 25 35  12.5 22.5 35  12.5 20 35  12.5 22.5 32.5  15 20 35  15 22.5 35  15 25 35  12.5 25 35  12.5 25 32.5  12.5 27.5 32.5  12.5 27.5 35  15 27.5 35  2.5 15 37.5  5 15 37.5  0 15 37.5  20 15 37.5  17.5 15 37.5  22.5 15 37.5  2.5 17.5 37.5  5 17.5 37.5  5 20 37.5  5 20 40  5 17.5 40  2.5 17.5 40  2.5 20 37.5  0 17.5 37.5  0 17.5 40  0 20 40  2.5 20 40  0 20 37.5  10 20 37.5  10 17.5 37.5  7.5 17.5 37.5  10 20 40  10 17.5 40  7.5 17.5 40  7.5 20 37.5  7.5 20 40  15 20 37.5  15 17.5 37.5  12.5 17.5 37.5  15 20 40  15 17.5 40  12.5 17.5 40  12.5 20 37.5  12.5 20 40  20 20 35  20 20 37.5  20 17.5 37.5  17.5 17.5 37.5  20 20 40  20 17.5 40  17.5 17.5 40  17.5 20 37.5  17.5 20 35  17.5 20 40  25 20 35  25 20 37.5  25 17.5 37.5  22.5 17.5 37.5  25 20 40  25 17.5 40  22.5 17.5 40  22.5 20 37.5  22.5 20 35  22.5 20 40  2.5 22.5 37.5  5 22.5 37.5  5 25 37.5  5 25 40  5 22.5 40  2.5 22.5 40  2.5 25 37.5  0 22.5 37.5  0 22.5 40  0 25 40  2.5 25 40  0 25 37.5  7.5 22.5 37.5  10 22.5 37.5  10 25 37.5  10 25 40  10 22.5 40  7.5 22.5 40  7.5 25 37.5  7.5 25 40  12.5 22.5 37.5  15 22.5 37.5  15 25 37.5  15 25 40  15 22.5 40  12.5 22.5 40  12.5 25 37.5  12.5 25 40  17.5 22.5 37.5  17.5 22.5 35  20 22.5 37.5  20 22.5 35  20 25 35  20 25 37.5  20 25 40  20 22.5 40  17.5 22.5 40  17.5 25 37.5  17.5 25 35  17.5 25 40  22.5 22.5 37.5  22.5 22.5 35  25 22.5 37.5  25 22.5 35  25 25 35  25 25 37.5  25 25 40  25 22.5 40  22.5 22.5 40  22.5 25 37.5  22.5 25 35  22.5 25 40  7.5 27.5 37.5  10 27.5 37.5  12.5 27.5 37.5  15 27.5 37.5  15 27.5 40  12.5 27.5 40  17.5 27.5 37.5  20 27.5 37.5  20 27.5 40  17.5 27.5 40  22.5 27.5 37.5  25 27.5 37.5  25 27.5 40  25 30 40  22.5 27.5 40  5 20 42.5  2.5 20 42.5  0 20 42.5  10 20 42.5  7.5 20 42.5  12.5 17.5 42.5  15 17.5 42.5  15 20 42.5  15 20 45  15 17.5 45  12.5 17.5 45  12.5 20 42.5  12.5 20 45  17.5 17.5 42.5  20 17.5 42.5  20 20 42.5  20 20 45  20 17.5 45  17.5 17.5 45  17.5 20 42.5  17.5 20 45  22.5 17.5 42.5  25 17.5 42.5  25 20 42.5  25 20 45  25 17.5 45  22.5 17.5 45  22.5 20 42.5  22.5 20 45  2.5 22.5 42.5  5 22.5 42.5  5 25 42.5  5 25 45  5 22.5 45  2.5 22.5 45  2.5 25 42.5  0 22.5 42.5  0 22.5 45  0 25 45  2.5 25 45  0 25 42.5  7.5 22.5 42.5  10 22.5 42.5  10 25 42.5  10 25 45  10 22.5 45  7.5 22.5 45  7.5 25 42.5  7.5 25 45  12.5 22.5 42.5  15 22.5 42.5  15 25 42.5  15 25 45  15 22.5 45  12.5 22.5 45  12.5 25 42.5  12.5 25 45  17.5 22.5 42.5  20 22.5 42.5  20 25 42.5  20 25 45  20 22.5 45  17.5 22.5 45  17.5 25 42.5  17.5 25 45  22.5 22.5 42.5  25 22.5 42.5  25 25 42.5  25 25 45  25 22.5 45  22.5 22.5 45  22.5 25 42.5  22.5 25 45  2.5 27.5 42.5  5 27.5 42.5  5 27.5 45  2.5 27.5 45  0 27.5 42.5  0 27.5 45  7.5 27.5 42.5  10 27.5 42.5  10 27.5 45  7.5 27.5 45  12.5 27.5 42.5  15 27.5 42.5  15 27.5 45  12.5 27.5 45  17.5 27.5 42.5  20 27.5 42.5  20 27.5 45  17.5 27.5 45  22.5 27.5 42.5  25 27.5 42.5  25 27.5 45  22.5 27.5 45  15 20 47.5  20 20 47.5  17.5 20 47.5  25 20 47.5  22.5 20 47.5  2.5 22.5 47.5  5 22.5 47.5  5 25 47.5  5 25 50  5 22.5 50  2.5 22.5 50  2.5 25 47.5  0 22.5 47.5  0 22.5 50  0 25 50  2.5 25 50  0 25 47.5  7.5 22.5 47.5  10 22.5 47.5  10 25 47.5  10 25 50  10 22.5 50  7.5 22.5 50  7.5 25 47.5  7.5 25 50  12.5 22.5 47.5  15 22.5 47.5  15 25 47.5  15 25 50  15 22.5 50  12.5 22.5 50  12.5 25 47.5  12.5 25 50  17.5 22.5 47.5  20 22.5 47.5  20 25 47.5  20 25 50  20 22.5 50  17.5 22.5 50  17.5 25 47.5  17.5 25 50  22.5 22.5 47.5  25 22.5 47.5  25 25 47.5  25 25 50  25 22.5 50  22.5 22.5 50  22.5 25 47.5  22.5 25 50  2.5 27.5 47.5  5 27.5 47.5  5 27.5 50  2.5 27.5 50  0 27.5 47.5  0 27.5 50  7.5 27.5 47.5  10 27.5 47.5  10 27.5 50  7.5 27.5 50  12.5 27.5 47.5  15 27.5 47.5  15 27.5 50  12.5 27.5 50  17.5 27.5 47.5  20 27.5 47.5  20 27.5 50  17.5 27.5 50  22.5 27.5 47.5  25 27.5 47.5  25 27.5 50  22.5 27.5 50  15 25 30  17.5 27.5 30  17.5 25 30  17.5 27.5 27.5  20 25 30  15 25 32.5  15 22.5 32.5  20 25 32.5  20 22.5 32.5  17.5 22.5 32.5  17.5 25 32.5  25 25 32.5  25 22.5 32.5  22.5 22.5 32.5  22.5 25 32.5  15 27.5 32.5  17.5 27.5 32.5  20 27.5 32.5  17.5 27.5 35  25 27.5 35  25 27.5 32.5  22.5 27.5 32.5  22.5 27.5 35  7.5 27.5 32.5  2.5 27.5 37.5  2.5 27.5 40  0 27.5 37.5  0 27.5 40  27.5 22.5 35  27.5 22.5 32.5  27.5 25 32.5  27.5 27.5 32.5  27.5 22.5 37.5  27.5 25 37.5  27.5 27.5 37.5  27.5 27.5 40  27.5 27.5 42.5  27.5 25 42.5  27.5 27.5 45  27.5 25 45  27.5 27.5 47.5  27.5 25 47.5  27.5 27.5 50  27.5 25 50  27.5 20 35  27.5 17.5 40  27.5 15 40  27.5 17.5 37.5  27.5 20 37.5  27.5 12.5 45  27.5 10 45  27.5 12.5 42.5  27.5 15 42.5  27.5 15 45  27.5 17.5 42.5  27.5 17.5 45  27.5 20 45  27.5 20 42.5  27.5 22.5 42.5  27.5 22.5 45  27.5 10 47.5  27.5 7.5 47.5  27.5 10 50  27.5 7.5 50  27.5 12.5 47.5  27.5 12.5 50  27.5 15 47.5  27.5 15 50  27.5 17.5 47.5  27.5 17.5 50  27.5 20 47.5  27.5 20 50  27.5 22.5 47.5  27.5 22.5 50  </DataArray>
</Points>
<Cells>
[...]
<PointData  Scalars="c_HbCO2"> 
<DataArray  type="Float64"  Name="c_HbCO2"  format="ascii">6.3999999999999997e-22  -5.3123532571380603e-23  6.3999999999999997e-22  -3.5280731142847338e-22  6.3999999999999997e-22  6.3999999999999997e-22  1.9158362371488798e-23  2.8550072787128651e-23  6.6592990476914744e-28  2.6313731069371417e-28  1.7255827199398058e-29  -4.2437751536053298e-27  -1.5896401403054671e-27  2.4825600153775517e-26  1.0151011429391263e-26  2.4825600154574962e-26  -6.2773100329335008e-29  -2.0983264861313289e-30  -4.2115035645264827e-29  -1.0997933446309035e-28  1.7618439258497699e-29  1.6180288343358237e-23  4.9292957736190212e-24  -3.5280731142847775e-22  2.8550072787128481e-23  1.6180288343354672e-23  -5.3123532571308816e-23  -5.3123532571316010e-23  6.3999999999999997e-22  6.3999999999999997e-22  6.3999999999999997e-22  6.3999999999999997e-22  1.9158362371486967e-23  6.3999999999999997e-22  8.9028315450931143e-25  3.9893620380701684e-25  5.5008963867586360e-26  -7.0717133559797694e-24  8.9028315450998550e-25  8.9028315451342713e-25  3.9893620380707493e-25  -2.0474611964246172e-24  -2.0474611964219444e-24  1.4268857288027102e-25  1.4268857288910867e-25  8.5307086544144644e-28  -1.6767296409564054e-25  1.0151011428822413e-26  2.4825600154693215e-26  1.0151011428138753e-26  2.4825600155170036e-26  1.0151011428502499e-26  -5.8904454437387895e-26  -6.4352020073567415e-28  -5.8904454438158384e-26  -6.4352019683646534e-28  -6.4352019654686255e-28  2.6313731071260775e-28  1.7255827230178728e-29  -4.2437751535525107e-27  6.6592990476691586e-28  6.6592990476902422e-28  2.6313731070030776e-28  -1.5896401399677661e-27  -6.2773100704700715e-29  -1.5896401399624180e-27  -6.2773100384738975e-29  6.8755430205946274e-30  4.0655902946538703e-31  -1.0997933446464496e-28  1.7618439549010455e-29  1.7618439557543390e-29  6.8755429889084609e-30  -4.2115035640555763e-29  -2.0983265184112427e-30  -4.2115035625231051e-29  -2.0983265238708903e-30  -3.5280731142845993e-22  4.9292957736230855e-24  1.6180288343359991e-23  2.8550072787130820e-23  -5.3123532571327424e-23  6.3999999999999997e-22  6.3999999999999997e-22  6.3999999999999997e-22  1.9158362371489357e-23  -7.0717133559805467e-24  5.5008963870018439e-26  3.9893620380643103e-25  8.9028315450942310e-25  -2.0474611964195960e-24  1.4268857288885872e-25  6.8755429854607791e-30  4.0655904177547060e-31  -1.0997933445203802e-28  1.7618439555719096e-29  6.8755429938468259e-30  -4.2115035617475436e-29  -4.2115035637353734e-29  6.6592990475773428e-28  -2.0983265253680877e-30  2.6313731086254920e-28  1.6180288343360294e-23  4.9292957736324380e-24  -3.5280731142845692e-22  2.8550072787130468e-23  2.8550072787129398e-23  1.6180288343358525e-23  6.3999999999999997e-22  -5.3123532571330316e-23  1.9158362371486826e-23  -5.3123532571326554e-23  6.3999999999999997e-22  6.3999999999999997e-22  6.3999999999999997e-22  6.3999999999999997e-22  1.9158362371489603e-23  6.3999999999999997e-22  5.5008963866251772e-26  -7.0717133559789377e-24  3.9893620380623459e-25  8.9028315450949143e-25  8.9028315451005879e-25  3.9893620380397736e-25  -2.0474611964170481e-24  1.4268857285511572e-25  -2.0474611964194674e-24  1.4268857288919438e-25  -1.6767296409619267e-25  8.5307086580927236e-28  1.0151011428641263e-26  2.4825600154612345e-26  1.0151011428152333e-26  2.4825600154142962e-26  1.0151011428725482e-26  -5.8904454438162023e-26  -6.4352019754837716e-28  -5.8904454437617588e-26  -6.4352019665779257e-28  -4.2437751536556463e-27  1.7255827214314054e-29  2.6313731071713881e-28  6.6592990476215916e-28  -1.5896401400038085e-27  2.6313731071005263e-28  -1.5896401399844552e-27  -6.2773100373800607e-29  -1.5896401399809040e-27  -6.2773100400221596e-29  -1.0997933446619793e-28  4.0655903886992045e-31  6.8755429865623468e-30  1.7618439555593965e-29  6.8755429863704180e-30  -4.2115035638298322e-29  -4.2115035638082023e-29  -2.0983265222182504e-30  -3.5280731142845871e-22  4.9292957736234594e-24  1.6180288343360305e-23  2.8550072787131161e-23  1.6180288343360273e-23  -5.3123532571327283e-23  -5.3123532571327389e-23  6.3999999999999997e-22  6.3999999999999997e-22  6.3999999999999997e-22  1.9158362371489586e-23  6.3999999999999997e-22  -7.0717133559807068e-24  5.5008963869957334e-26  3.9893620380643208e-25  8.9028315450956085e-25  3.9893620380642363e-25  -2.0474611964195119e-24  -2.0474611964195100e-24  1.4268857288898373e-25  -1.6767296409738491e-25  8.5307086580021149e-28  1.0151011428627374e-26  2.4825600154652667e-26  -5.8904454437575297e-26  -6.4352019655966500e-28  -5.8904454437570855e-26  -4.2437751536204783e-27  1.7255827216115507e-29  2.6313731071787152e-28  6.6592990476452437e-28  -1.5896401399886603e-27  -6.2773100392806788e-29  -1.0997933446747190e-28  4.0655903942058494e-31  6.8755429858666217e-30  1.7618439555914823e-29  -4.2115035638333035e-29  -2.0983265217504319e-30  2.8550072787126688e-23  1.6180288343383895e-23  4.9292957736196112e-24  -3.5280731142846143e-22  2.8550072787114257e-23  2.8550072787131431e-23  1.6180288343359900e-23  6.3999999999999997e-22  -5.3123532571326025e-23  1.9158362371491437e-23  -5.3123532571318090e-23  6.3999999999999997e-22  6.3999999999999997e-22  6.3999999999999997e-22  1.9158362371484255e-23  6.3999999999999997e-22  6.3999999999999997e-22  -2.0474611964231170e-24  -7.0717133559903694e-24  1.4268857288786933e-25  8.9028315450902858e-25  -2.0474611964122172e-24  2.8550072787107969e-23  1.6180288343458979e-23  4.9292957738052019e-24  -3.5280731142827820e-22  2.8550072789147099e-23  1.6180288343500421e-23  -5.3123532571325625e-23  -5.3123532572330861e-23  6.3999999999999997e-22  6.3999999999999997e-22  6.3999999999999997e-22  1.9158362371875427e-23  6.3999999999999997e-22  8.9028315448884185e-25  3.9893620381276359e-25  5.5008963866331933e-26  -7.0717133559745487e-24  8.9028315439696741e-25  3.9893620379792660e-25  -2.0474611964325966e-24  -2.0474611963970643e-24  1.4268857295746810e-25  1.4268857358905426e-25  -5.8904454439108801e-26  -6.4352019905453938e-28  -1.6767296410028734e-25  2.4825600153239815e-26  1.0151011428605170e-26  2.4825600155804668e-26  -6.4352020403229062e-28  -5.8904454440001339e-26  -1.6767296410905614e-25  -5.8904454430192309e-26  1.0151011429266730e-26  -5.3123532571326860e-23  1.6180288343348210e-23  6.3999999999999997e-22  2.6313731075116184e-28  -1.5896401399621842e-27  -4.2115035706588394e-29  -3.5280731142845993e-22  4.9292957736249905e-24  1.6180288343336261e-23  2.8550072787124284e-23  1.6180288343360546e-23  -5.3123532571327706e-23  -5.3123532571333842e-23  6.3999999999999997e-22  6.3999999999999997e-22  6.3999999999999997e-22  1.9158362371486641e-23  6.3999999999999997e-22  3.9893620380506323e-25  5.5008963872037627e-26  -7.0717133559799266e-24  8.9028315450800461e-25  3.9893620380607838e-25  -2.0474611964197301e-24  -2.0474611964190626e-24  1.4268857288767184e-25  1.0151011428606788e-26  8.5307086577519780e-28  -1.6767296409736553e-25  2.4825600154490052e-26  1.0151011428670557e-26  -5.8904454437705325e-26  -5.8904454436746769e-26  -6.4352019662229385e-28  6.6592990476253385e-28  2.6313731068840964e-28  1.7255827454675705e-29  -4.2437751535078550e-27  6.6592990477095689e-28  2.6313731071576424e-28  -1.5896401399822616e-27  -1.5896401401195713e-27  -6.2773101556980687e-29  -6.2773100413017234e-29  1.7618440065833932e-29  6.8755412309839838e-30  4.0655776490717643e-31  -1.0997933450201268e-28  1.7618438965411717e-29  6.8755427557156846e-30  -4.2115035589807750e-29  -4.2115035515054094e-29  -2.0983263722834577e-30  -2.0983265429389072e-30  -3.5280731142837045e-22  4.9292957738378094e-24  1.6180288341774631e-23  2.8550072787248511e-23  1.6180288343329678e-23  -5.3123532571329822e-23  -5.3123532571006467e-23  6.3999999999999997e-22  6.3999999999999997e-22  6.3999999999999997e-22  1.9158362371451282e-23  6.3999999999999997e-22  -7.0717133559311068e-24  5.5008963870767473e-26  3.9893620371530611e-25  8.9028315453227251e-25  3.9893620380761465e-25  -2.0474611964121459e-24  -2.0474611956141175e-24  1.4268857299473908e-25  -1.6767296409645080e-25  8.5307086586027334e-28  1.0151011428280787e-26  2.4825600153281586e-26  1.0151011428406894e-26  -5.8904454436423864e-26  -5.8904454433213283e-26  -6.4352019297265993e-28  -4.2437751535087432e-27  -1.5896401399091076e-27  1.7255827228714570e-29  2.6313731068764168e-28  6.6592990486538064e-28  2.6313731066571304e-28  6.6592990486297193e-28  2.6313731071833707e-28  -1.5896401399603558e-27  -1.5896401401445451e-27  -6.2773100411290083e-29  -6.2773100757988105e-29  -1.0997933446269462e-28  -4.2115035612966461e-29  4.0655899517806781e-31  6.8755422233312640e-30  1.7618439733607375e-29  6.8755429422822738e-30  1.7618439624089939e-29  6.8755429398758730e-30  -4.2115035638342894e-29  -4.2115035653539242e-29  -2.0983265407362019e-30  -2.0983265376882849e-30  -7.0717133574006496e-24  5.5008963628065680e-26  -1.6767296409663991e-25  8.5307086765541891e-28  1.0151011428012432e-26  -5.8904454434629743e-26  -4.2437751526783997e-27  1.7255826859596740e-29  2.6313730964868268e-28  -1.5896401399435849e-27  -1.0997933432875737e-28  4.0655895248870093e-31  6.8755429077199128e-30  1.7618439693394259e-29  -4.2115035932467819e-29  1.6180288343359283e-23  -5.3123532571327436e-23  6.3999999999999997e-22  3.9893620380607902e-25  -2.0474611964194711e-24  -1.6767296409725498e-25  8.5307086581628575e-28  1.0151011428593247e-26  2.4825600154623650e-26  1.0151011428636566e-26  -5.8904454437540572e-26  -5.8904454437642934e-26  -6.4352019660566875e-28  -4.2437751536011319e-27  1.7255827220057057e-29  2.6313731071898745e-28  6.6592990476391569e-28  2.6313731071818918e-28  -1.5896401399856333e-27  -1.5896401399879337e-27  -6.2773100397217694e-29  -1.0997933444097292e-28  4.0655909550521108e-31  6.8755429465886252e-30  1.7618439561259163e-29  6.8755429803968928e-30  -4.2115035638408923e-29  -4.2115035651884790e-29  -2.0983265213981619e-30  -3.5280731142845584e-22  4.9292957736233874e-24  1.6180288343340860e-23  2.8550072787137562e-23  1.6180288343359145e-23  -5.3123532571327541e-23  -5.3123532571320606e-23  6.3999999999999997e-22  6.3999999999999997e-22  6.3999999999999997e-22  1.9158362371478134e-23  6.3999999999999997e-22  -7.0717133559795519e-24  5.5008963870224346e-26  3.9893620380849540e-25  8.9028315450795226e-25  3.9893620380618853e-25  -2.0474611964198502e-24  -2.0474611964126183e-24  1.4268857288767549e-25  -1.6767296409702480e-25  8.5307086574673202e-28  1.0151011428775325e-26  2.4825600154680984e-26  1.0151011428611633e-26  -5.8904454437614626e-26  -5.8904454436636865e-26  -6.4352019679930632e-28  -4.2437751535981422e-27  1.7255827211715270e-29  2.6313731063676114e-28  6.6592990465034810e-28  2.6313731071749481e-28  -1.5896401399735476e-27  -1.5896401400545765e-27  -6.2773100288058999e-29  -1.0997933447125068e-28  4.0655902750300262e-31  6.8755429889672314e-30  1.7618439569172124e-29  6.8755429868374525e-30  -4.2115035636892068e-29  -4.2115035646018327e-29  -2.0983265190637258e-30  -3.5280731142843402e-22  4.9292957736641778e-24  1.6180288343359641e-23  -5.3123532571326977e-23  6.3999999999999997e-22  6.3999999999999997e-22  -7.0717133559592614e-24  5.5008963866265019e-26  3.9893620380702442e-25  -2.0474611964197716e-24  -1.6767296409951271e-25  8.5307086510493302e-28  1.0151011426468356e-26  -5.8904454437320924e-26  -4.2437751535020644e-27  1.7255826983294596e-29  2.6313731133768852e-28  -1.5896401394579229e-27  -1.0997933459407987e-28  4.0655906790741861e-31  6.8755430281294751e-30  -4.2115035801270774e-29  1.0151011428631362e-26  2.6313731071850872e-28  -1.5896401399846224e-27  6.8755429857774627e-30  -4.2115035638486034e-29  -3.5280731142845880e-22  4.9292957736234550e-24  1.6180288343370180e-23  2.8550072787142563e-23  1.6180288343360373e-23  -5.3123532571327259e-23  -5.3123532571325214e-23  6.3999999999999997e-22  6.3999999999999997e-22  6.3999999999999997e-22  1.9158362371482633e-23  6.3999999999999997e-22  -7.0717133559805863e-24  5.5008963870215541e-26  3.9893620380672315e-25  8.9028315450875344e-25  3.9893620380642510e-25  -2.0474611964193653e-24  -2.0474611964167564e-24  1.4268857289203556e-25  -1.6767296409724789e-25  8.5307086582646407e-28  1.0151011428781939e-26  2.4825600155631926e-26  1.0151011428671583e-26  -5.8904454437567204e-26  -5.8904454437305990e-26  -6.4352019688259205e-28  -4.2437751535803907e-27  1.7255827223339349e-29  2.6313731069789999e-28  6.6592990470612121e-28  2.6313731073159088e-28  -1.5896401399526326e-27  -1.5896401399418319e-27  -6.2773100233742395e-29  -1.0997933446260003e-28  4.0655903760878109e-31  6.8755429767075486e-30  1.7618439562217906e-29  6.8755429855676785e-30  -4.2115035638499397e-29  -4.2115035676089968e-29  -2.0983264500997944e-30  -3.5280731142846745e-22  4.9292957736593686e-24  1.6180288343431132e-23  -5.3123532571287951e-23  6.3999999999999997e-22  6.3999999999999997e-22  -7.0717133559711853e-24  5.5008963877293096e-26  3.9893620379895842e-25  -2.0474611964246661e-24  -1.6767296409571726e-25  8.5307086557712890e-28  1.0151011429935730e-26  -5.8904454444886264e-26  -4.2437751526277094e-27  1.7255827495673373e-29  2.6313731095885002e-28  -1.5896401394444306e-27  -1.0997933437808173e-28  4.0655901533393548e-31  6.8755430249434003e-30  -4.2115035173321747e-29  2.4825600152730533e-26  -1.5896401407659873e-27  -6.2773100057796615e-29  -4.2437751528655683e-27  6.6592990487938609e-28  1.0151011427722291e-26  8.5307086644864005e-28  2.6313731073076795e-28  1.7255827560130726e-29  -4.2437751531838142e-27  -1.5896401397649279e-27  6.8755430277790412e-30  4.0655950840097955e-31  -1.0997933438604801e-28  -4.2115035571105915e-29  8.5307086487965068e-28  -4.2437751542197430e-27  1.7255827237053319e-29  -1.5896401387907346e-27  6.8755429650423414e-30  4.0655906127851728e-31  -1.0997933448734317e-28  -4.2115035685656139e-29  -7.0717133560172456e-24  -3.5280731142887850e-22  -5.3123532571216469e-23  6.3999999999999997e-22  6.3999999999999997e-22  -1.1091469258969611e-30  -2.8742179676353636e-30  -1.1091664648355155e-30  -2.8742188583105611e-30  -2.8742137047803791e-30  -1.1091663646422268e-30  -2.8742188645414988e-30  -1.1091665344953961e-30  -2.8742188445020917e-30  -1.1091665495383698e-30  -1.1091665510961950e-30  -5.9389600282923419e-32  -2.8742188435704553e-30  -1.1091665490137215e-30  -1.1091665617364116e-30  -5.9389619667282287e-32  -5.9153098217046704e-32  -1.1091687577836044e-30  -5.9389538159169077e-32  -2.8742418129879376e-30  -1.1091609118269740e-30  -1.1091665487655330e-30  -5.9389599694560058e-32  -2.8742189584240387e-30  -1.1091665552044709e-30  -5.9389598164403890e-32  -2.8742188585544154e-30  -1.1091665415823140e-30  -5.9389596938800227e-32  -1.1091664626349075e-30  -2.8742188341564012e-30  -1.1091665477993850e-30  -1.1091665471287178e-30  -2.8742188468272428e-30  -5.9389603597981984e-32  -1.1091665470914124e-30  -2.8742188477187688e-30  -1.1091665457655725e-30  -1.1091665464895470e-30  -5.9389603332522619e-32  -2.8742188458994613e-30  -1.1091665458708821e-30  -1.1091665468167313e-30  -5.9389605669155775e-32  -2.8742188470683239e-30  -1.1091665661975955e-30  </DataArray> 
</PointData> 
</Piece>
</UnstructuredGrid>
</VTKFile>