<?xml version="1.0"?>
<VTKFile type="UnstructuredGrid"  version="0.1"  >
<UnstructuredGrid>
<Piece  NumberOfPoints="576" NumberOfCells="2326">
<Points>
<DataArray  type="Float64"  NumberOfComponents="3"  format="ascii">20 5 5  22.5 5 5  22.5 2.5 5  22.5 2.5 2.5  25 5 5  22.5 5 2.5  22.5 7.5 5  22.5 7.5 2.5  25 7.5 5  25 10 5  22.5 10 5  22.5 10 2.5  25 12.5 5  22.5 12.5 5  22.5 12.5 2.5  25 15 5  25 15 0  25 15 2.5  22.5 15 2.5  22.5 15 5  25 17.5 2.5  25 17.5 0  22.5 17.5 2.5  22.5 17.5 0  25 20 0  25 20 2.5  25 20 5  25 17.5 5  22.5 17.5 5  22.5 20 2.5  22.5 20 5  22.5 5 7.5  22.5 2.5 7.5  25 5 7.5  25 5 10  22.5 7.5 7.5  25 7.5 7.5  25 10 7.5  25 10 10  25 7.5 10  22.5 10 7.5  25 12.5 7.5  22.5 12.5 7.5  25 15 7.5  25 15 10  25 12.5 10  22.5 15 7.5  25 17.5 7.5  22.5 17.5 7.5  25 20 7.5  25 20 10  25 17.5 10  22.5 20 7.5  25 5 15  25 7.5 17.5  25 7.5 15  22.5 7.5 17.5  25 10 15  25 10 17.5  25 10 20  25 5 17.5  25 5 20  25 7.5 20  25 22.5 2.5  22.5 22.5 2.5  25 22.5 5  22.5 22.5 5  25 22.5 7.5  22.5 22.5 7.5  25 22.5 10  30 0 20  32.5 2.5 22.5  32.5 2.5 20  32.5 0 20  35 0 20  35 2.5 20  35 5 20  32.5 0 22.5  30 0 22.5  30 0 25  30 2.5 20  30 5 20  32.5 5 22.5  32.5 5 20  30 2.5 22.5  30 2.5 25  30 5 25  30 5 22.5  27.5 7.5 22.5  27.5 7.5 20  27.5 5 20  30 7.5 22.5  30 7.5 20  30 10 20  30 10 22.5  30 10 25  27.5 5 22.5  30 7.5 25  27.5 10 22.5  27.5 10 20  32.5 7.5 22.5  32.5 7.5 20  35 7.5 20  35 10 20  32.5 10 22.5  32.5 10 20  35 10 22.5  35 10 25  32.5 10 25  27.5 12.5 22.5  27.5 12.5 20  30 12.5 22.5  30 12.5 20  30 15 20  27.5 15 20  32.5 12.5 22.5  32.5 12.5 20  35 12.5 20  35 15 20  32.5 15 20  20 0 15  22.5 2.5 17.5  22.5 0 17.5  22.5 0 15  25 0 15  25 2.5 17.5  25 0 17.5  25 0 20  25 2.5 20  20 0 17.5  20 0 20  22.5 2.5 20  22.5 0 20  27.5 2.5 17.5  27.5 0 17.5  27.5 2.5 20  27.5 0 20  22.5 2.5 22.5  25 2.5 22.5  25 5 22.5  25 5 25  22.5 0 22.5  25 0 22.5  25 0 25  25 2.5 25  20 0 25  22.5 2.5 25  22.5 0 25  27.5 2.5 22.5  27.5 0 22.5  27.5 2.5 25  27.5 0 25  27.5 5 25  27.5 7.5 25  25 7.5 22.5  25 7.5 25  25 10 25  27.5 10 25  25 10 22.5  27.5 12.5 25  22.5 2.5 27.5  25 2.5 27.5  25 5 27.5  25 5 30  22.5 0 27.5  25 0 27.5  25 0 30  25 2.5 30  27.5 2.5 27.5  27.5 0 27.5  27.5 5 27.5  27.5 7.5 27.5  27.5 10 27.5  27.5 12.5 27.5  20 0 0  22.5 2.5 0  22.5 0 0  25 0 0  25 2.5 2.5  25 2.5 0  25 5 0  25 5 2.5  22.5 0 2.5  25 0 2.5  25 0 5  25 2.5 5  20 0 2.5  20 0 5  22.5 0 5  20 5 0  22.5 5 0  27.5 2.5 2.5  27.5 2.5 0  27.5 0 0  30 0 0  30 2.5 2.5  30 2.5 0  30 5 0  30 5 2.5  30 5 5  27.5 0 2.5  30 0 2.5  30 0 5  30 2.5 5  27.5 2.5 5  27.5 0 5  27.5 5 2.5  27.5 5 0  27.5 5 5  32.5 2.5 2.5  32.5 0 2.5  32.5 2.5 5  32.5 0 5  35 0 5  35 2.5 5  35 5 5  32.5 5 5  32.5 5 2.5  22.5 7.5 0  25 7.5 2.5  25 7.5 0  25 10 0  25 10 2.5  20 7.5 0  20 10 0  22.5 10 0  27.5 7.5 2.5  27.5 7.5 0  30 7.5 2.5  30 7.5 0  30 10 0  30 10 2.5  30 10 5  30 7.5 5  27.5 7.5 5  27.5 10 2.5  27.5 10 0  27.5 10 5  32.5 7.5 2.5  32.5 7.5 5  35 7.5 5  35 10 5  32.5 10 5  32.5 10 2.5  22.5 12.5 0  25 12.5 2.5  25 12.5 0  27.5 12.5 2.5  27.5 12.5 0  30 12.5 2.5  30 12.5 0  30 15 0  30 15 2.5  30 15 5  30 12.5 5  27.5 12.5 5  27.5 15 2.5  27.5 15 0  27.5 15 5  32.5 12.5 2.5  32.5 12.5 5  35 12.5 5  35 15 5  32.5 15 5  32.5 15 2.5  27.5 17.5 2.5  27.5 17.5 0  30 17.5 2.5  30 17.5 0  30 20 0  30 20 2.5  30 20 5  30 17.5 5  27.5 17.5 5  27.5 20 2.5  27.5 20 0  27.5 20 5  32.5 17.5 2.5  32.5 17.5 5  32.5 20 5  32.5 20 2.5  25 2.5 7.5  22.5 0 7.5  25 0 7.5  25 0 10  25 2.5 10  20 0 7.5  20 0 10  22.5 2.5 10  22.5 0 10  27.5 2.5 7.5  30 2.5 7.5  30 5 7.5  30 5 10  27.5 0 7.5  30 0 7.5  30 0 10  30 2.5 10  27.5 2.5 10  27.5 0 10  27.5 5 7.5  27.5 5 10  32.5 2.5 7.5  35 2.5 7.5  35 5 7.5  35 5 10  32.5 0 7.5  35 0 7.5  35 0 10  35 2.5 10  32.5 2.5 10  32.5 0 10  32.5 5 7.5  32.5 5 10  37.5 2.5 7.5  37.5 0 7.5  37.5 2.5 10  37.5 0 10  40 0 10  40 2.5 10  40 5 10  37.5 5 10  37.5 5 7.5  27.5 7.5 7.5  30 7.5 7.5  30 10 7.5  30 10 10  30 7.5 10  27.5 7.5 10  27.5 10 7.5  27.5 10 10  32.5 7.5 7.5  35 7.5 7.5  35 10 7.5  35 10 10  35 7.5 10  32.5 7.5 10  32.5 10 7.5  32.5 10 10  37.5 7.5 7.5  37.5 7.5 10  37.5 10 10  27.5 12.5 7.5  30 12.5 7.5  30 15 7.5  30 15 10  30 12.5 10  27.5 12.5 10  27.5 15 7.5  27.5 15 10  32.5 12.5 7.5  35 12.5 7.5  35 15 7.5  35 15 10  35 12.5 10  32.5 12.5 10  32.5 15 7.5  32.5 15 10  27.5 17.5 7.5  30 17.5 7.5  30 20 7.5  30 20 10  30 17.5 10  27.5 17.5 10  27.5 20 7.5  27.5 20 10  32.5 17.5 7.5  32.5 17.5 10  32.5 20 7.5  32.5 20 10  27.5 22.5 7.5  30 22.5 7.5  30 22.5 10  27.5 22.5 10  32.5 22.5 7.5  32.5 22.5 10  22.5 2.5 12.5  25 2.5 12.5  25 5 12.5  22.5 0 12.5  25 0 12.5  25 2.5 15  20 0 12.5  22.5 2.5 15  27.5 2.5 12.5  30 2.5 12.5  30 5 12.5  30 5 15  27.5 0 12.5  30 0 12.5  30 0 15  30 2.5 15  27.5 2.5 15  27.5 0 15  27.5 5 12.5  27.5 5 15  32.5 2.5 12.5  35 2.5 12.5  35 5 12.5  35 5 15  32.5 0 12.5  35 0 12.5  35 0 15  35 2.5 15  32.5 2.5 15  32.5 0 15  32.5 5 12.5  32.5 5 15  37.5 2.5 12.5  40 2.5 12.5  40 5 12.5  40 5 15  37.5 0 12.5  40 0 12.5  40 0 15  40 2.5 15  37.5 2.5 15  37.5 0 15  37.5 5 12.5  37.5 5 15  27.5 7.5 12.5  30 7.5 12.5  30 10 12.5  30 10 15  30 7.5 15  27.5 7.5 15  27.5 10 12.5  25 7.5 12.5  27.5 10 15  25 10 12.5  32.5 7.5 12.5  35 7.5 12.5  35 10 12.5  35 10 15  35 7.5 15  32.5 7.5 15  32.5 10 12.5  32.5 10 15  37.5 7.5 12.5  37.5 7.5 15  37.5 10 12.5  37.5 10 15  40 10 15  27.5 12.5 12.5  30 12.5 12.5  30 15 12.5  30 15 15  30 12.5 15  27.5 12.5 15  27.5 15 12.5  27.5 15 15  32.5 12.5 12.5  35 12.5 12.5  35 15 12.5  35 15 15  35 12.5 15  32.5 12.5 15  32.5 15 12.5  32.5 15 15  37.5 12.5 12.5  37.5 12.5 15  27.5 17.5 12.5  30 17.5 12.5  30 20 12.5  30 20 15  30 17.5 15  27.5 17.5 15  27.5 20 12.5  27.5 20 15  32.5 17.5 12.5  32.5 17.5 15  35 17.5 15  35 20 15  32.5 20 12.5  32.5 20 15  27.5 22.5 12.5  30 22.5 12.5  30 22.5 15  27.5 22.5 15  32.5 22.5 12.5  32.5 22.5 15  30 2.5 17.5  30 5 17.5  30 0 17.5  27.5 5 17.5  32.5 2.5 17.5  35 2.5 17.5  35 5 17.5  32.5 0 17.5  35 0 17.5  32.5 5 17.5  37.5 2.5 17.5  40 2.5 17.5  40 5 17.5  40 5 20  37.5 0 17.5  40 0 17.5  40 0 20  37.5 0 20  37.5 5 17.5  42.5 2.5 17.5  27.5 7.5 17.5  30 7.5 17.5  30 10 17.5  27.5 10 17.5  32.5 7.5 17.5  35 7.5 17.5  35 10 17.5  32.5 10 17.5  37.5 7.5 17.5  37.5 10 17.5  40 10 17.5  40 10 20  37.5 10 20  27.5 12.5 17.5  30 12.5 17.5  30 15 17.5  27.5 15 17.5  32.5 12.5 17.5  35 12.5 17.5  35 15 17.5  32.5 15 17.5  37.5 12.5 17.5  37.5 15 17.5  30 17.5 17.5  27.5 17.5 17.5  30 20 17.5  27.5 20 17.5  32.5 17.5 17.5  35 17.5 17.5  35 20 17.5  32.5 20 17.5  37.5 17.5 17.5  30 22.5 17.5  27.5 22.5 17.5  32.5 22.5 17.5  32.5 2.5 0  32.5 0 0  35 0 0  35 2.5 2.5  35 2.5 0  35 5 0  35 5 2.5  35 0 2.5  32.5 5 0  37.5 2.5 2.5  37.5 0 2.5  37.5 2.5 5  37.5 0 5  40 0 5  40 2.5 5  40 5 5  37.5 5 5  37.5 5 2.5  32.5 7.5 0  35 7.5 2.5  35 7.5 0  35 10 0  35 10 2.5  32.5 10 0  37.5 7.5 2.5  37.5 7.5 5  32.5 12.5 0  32.5 15 0  32.5 17.5 0  37.5 10 7.5  37.5 12.5 7.5  37.5 12.5 10  42.5 0 17.5  27.5 22.5 2.5  27.5 22.5 0  30 22.5 2.5  30 22.5 5  27.5 22.5 5  32.5 22.5 2.5  32.5 22.5 5  </DataArray>
</Points>
<Cells>
[...]
<PointData  Scalars="c_HbCO2"> 
<DataArray  type="Float64"  Name="c_HbCO2"  format="ascii">6.6592990476759037e-28  -2.0983265218622642e-30  -4.2115035636909741e-29  -1.0997933446612549e-28  1.7618439556009616e-29  -4.2115035636816516e-29  -4.2115035638619326e-29  -1.0997933446559979e-28  6.8755429865147139e-30  1.7618439555311332e-29  -2.0983265192483136e-30  -4.2115035626472932e-29  6.8755429866631520e-30  -4.2115035635497603e-29  -1.0997933446495125e-28  1.7618439555845282e-29  1.7618439558018825e-29  6.8755429846433975e-30  -4.2115035644881515e-29  -2.0983265187447962e-30  4.0655904209031522e-31  6.8755430049766376e-30  -1.0997933447281273e-28  -4.2115035642717328e-29  1.7618439425083228e-29  6.8755429847522293e-30  1.7618439504961795e-29  6.8755429894443988e-30  -4.2115035658179333e-29  -4.2115035617806473e-29  -2.0983265249688417e-30  -4.2115035638351773e-29  -1.0997933446874260e-28  6.8755429863357933e-30  1.7618439556619351e-29  -1.0997933446708393e-28  4.0655903919718443e-31  6.8755429868237744e-30  1.7618439555697902e-29  6.8755429861744828e-30  -4.2115035632592010e-29  4.0655903851241077e-31  -1.0997933446732119e-28  6.8755429859154570e-30  1.7618439560865633e-29  6.8755429812164800e-30  -4.2115035644442915e-29  4.0655903798899592e-31  -1.0997933444390841e-28  6.8755430069704569e-30  1.7618439629565821e-29  6.8755429825065028e-30  -4.2115035633200039e-29  1.7618439554170364e-29  4.0655903695960890e-31  6.8755429857425858e-30  -1.0997933446646958e-28  1.7618439554730247e-29  6.8755429893541902e-30  1.7618439563047032e-29  6.8755429874375081e-30  1.7618439535397698e-29  6.8755429728552670e-30  4.0655911907341760e-31  -1.0997933445510880e-28  6.8755428788743927e-30  -4.2115035704435635e-29  4.0655892133407455e-31  -1.0997933451944205e-28  6.8755430924160432e-30  4.6383895864110718e-31  -7.5339405491320652e-32  -2.9152871049281638e-32  -1.5998093386798296e-33  1.2189997150931850e-32  4.7282240190422530e-33  1.2189997189552147e-32  -2.9152871430092115e-32  1.8020150949473461e-31  4.6383895708052435e-31  1.8020150953632114e-31  4.6383895807573825e-31  -2.9152870903204966e-32  -1.5998093109889824e-33  1.0246372234334641e-32  1.8020150835478529e-31  4.6383895654978868e-31  1.8020150930303197e-31  -2.8742188453642932e-30  -1.1091665454497849e-30  -5.9389603796023357e-32  1.0246372133114868e-32  1.8020150954065218e-31  4.6383895880669433e-31  1.8020150931222610e-31  4.6383895745524443e-31  -1.1091665450296902e-30  1.8020150879704958e-31  -1.1091665502383280e-30  -5.9389604760412517e-32  -7.5339405479747109e-32  -2.9152871038748466e-32  4.7282239211054663e-33  1.2189997208911787e-32  -2.9152870939312743e-32  -1.5998093180254097e-33  4.7282240781481388e-33  1.2189997136601523e-32  -1.5998097131014947e-33  -2.8742188470984963e-30  -1.1091665511776455e-30  1.0246371966884930e-32  1.8020150965017693e-31  4.6383895812750484e-31  -5.9389604390272041e-32  -7.5339404478897412e-32  -2.9152870921744500e-32  4.7282239550469425e-33  1.2189997210326822e-32  -1.5998092728754548e-33  6.6592990477913509e-28  -1.0997933445580626e-28  -4.2115035624731589e-29  -2.0983265154144538e-30  1.7618439555972136e-29  4.0655903917565969e-31  6.8755429859515110e-30  1.7618439554391996e-29  6.8755429829621462e-30  2.6313731081160686e-28  6.6592990478978738e-28  -4.2115035626653913e-29  -2.0983265226375659e-30  -2.8742188464089345e-30  -1.1091665458587096e-30  -1.1091665462266526e-30  -5.9389603895754776e-32  -1.0997933447760629e-28  4.0655905164959657e-31  6.8755429771318562e-30  1.7618439528857300e-29  -4.2115035641770476e-29  6.8755429856837537e-30  1.7618439556664187e-29  6.8755429927806928e-30  6.6592990484773155e-28  -4.2115035659390487e-29  -2.0983265489631544e-30  -2.8742188486058286e-30  -1.1091665465659985e-30  -1.1091665465515767e-30  -5.9389605679934716e-32  -5.9389606121897892e-32  -1.1091665408474596e-30  4.0655903813715188e-31  6.8755429584869845e-30  1.7618439563005839e-29  -5.9389610851274899e-32  6.8755428871364134e-30  -1.1091665531034566e-30  -1.0997933449544240e-28  4.0655901689596148e-31  6.8755430529814992e-30  1.7618439556789556e-29  -4.2115035637205057e-29  6.8755429649970669e-30  1.7618439553600088e-29  6.8755429349606267e-30  -2.8742188408246932e-30  -1.1091665425057881e-30  -1.1091665562038745e-30  -2.8742188463003265e-30  -1.1091665395368870e-30  -2.8742188484720838e-30  6.6592990476601616e-28  -4.2115035634526777e-29  -2.0983265226261747e-30  1.7618439555927928e-29  4.0655903887844105e-31  6.8755429859224509e-30  1.7618439555831129e-29  6.8755429858370067e-30  -4.2115035638774163e-29  6.8755429860231664e-30  1.7618439555993159e-29  6.8755429859663493e-30  2.6313731071800739e-28  6.6592990476496445e-28  -2.0983265221221193e-30  6.6592990476806901e-28  -2.0983265239070974e-30  -2.8742188466312306e-30  -1.1091665457762868e-30  -5.9389603612194401e-32  4.6383895883599049e-31  1.0246372203845315e-32  1.8020150967385298e-31  4.6383895882971906e-31  1.8020150968172629e-31  4.6383895884688952e-31  -1.1091665457726935e-30  1.8020150967154474e-31  4.6383895884341789e-31  1.8020150968069079e-31  -1.1091665457726718e-30  -5.9389603627722814e-32  -1.1091665457505866e-30  -5.9389603602116690e-32  -5.9389603590750944e-32  -7.5339405306859547e-32  -2.9152871062037959e-32  -2.9152871059265326e-32  -1.5998092995923472e-33  1.2189997175214208e-32  4.7282240114685235e-33  1.2189997176776868e-32  -1.5998092949496443e-33  -2.9152871058144933e-32  -4.2115035640537630e-29  4.0655903951245582e-31  6.8755429863425209e-30  1.7618439555913733e-29  6.8755429862094690e-30  2.6313731070715224e-28  6.6592990476141981e-28  -2.0983265171856919e-30  -2.8742188465628829e-30  -1.1091665456889107e-30  1.0246372228477094e-32  1.8020150968456400e-31  4.6383895882748750e-31  1.8020150974135620e-31  4.6383895887280487e-31  1.8020150969461201e-31  -1.1091665456881216e-30  -1.1091665455494001e-30  -5.9389603479967145e-32  -5.9389603464682832e-32  -7.5339405292247387e-32  -2.9152871052284670e-32  4.7282240107230375e-33  1.2189997219968268e-32  -1.5998092901132262e-33  -2.9152871050691487e-32  -4.2115035630354753e-29  4.0655904037281218e-31  6.8755429871239816e-30  -2.8742188461328328e-30  -1.1091665453872147e-30  1.0246372320065183e-32  1.8020150973191283e-31  4.6383895881501524e-31  1.8020150981262149e-31  4.6383895890116829e-31  1.8020150973568131e-31  -1.1091665456088211e-30  -1.1091665454112137e-30  -5.9389603529352515e-32  -5.9389603444033429e-32  -7.5339404987896122e-32  -2.9152871032787830e-32  4.7282240331302570e-33  1.2189997210579242e-32  -1.5998093381594423e-33  -2.9152870929405985e-32  -2.8742188457868796e-30  -1.1091665427808286e-30  1.0246372562871919e-32  1.8020150997974739e-31  4.6383894712732363e-31  1.8020151375049379e-31  4.6383895963348170e-31  1.8020150965729320e-31  -1.1091665441091221e-30  -1.1091665389155176e-30  -5.9389581630146035e-32  -5.9389597255452364e-32  -7.5339404725478527e-32  -2.9152870756109713e-32  -1.5998093939430017e-33  -2.9152868302472744e-32  4.0655903912896431e-31  -4.2115035638735577e-29  6.8755429859992336e-30  1.7618439556139578e-29  6.8755429855534722e-30  2.6313731071553043e-28  6.6592990476433415e-28  -4.2115035641128664e-29  -2.0983265211422319e-30  -2.8742188467164803e-30  1.0246372217215427e-32  1.8020150968520796e-31  4.6383895885874092e-31  -1.1091665457753512e-30  1.8020150967643481e-31  4.6383895884810953e-31  1.8020150968807714e-31  -1.1091665457702612e-30  -5.9389603562628165e-32  -1.1091665457544178e-30  -5.9389603641582958e-32  -7.5339405309337612e-32  2.6505053043506431e-34  4.7282240120843107e-33  1.2189997175252545e-32  -2.9152871060156371e-32  4.7282240101221959e-33  1.2189997174513203e-32  4.7282240110310810e-33  -2.9152871059495385e-32  -1.5998092984629017e-33  -2.9152871058902308e-32  -1.5998092965911693e-33  -1.9768939659466201e-33  -7.6570481575665987e-34  -7.6570481554824255e-34  -4.2383281960352164e-35  3.2016077069645406e-34  1.2411209860486024e-34  3.2016077122963774e-34  -4.2383281926960170e-35  -7.6570480473539433e-34  -2.8742188466370053e-30  1.0246372224617323e-32  1.8020150969592860e-31  4.6383895883841438e-31  1.8020150968722231e-31  -1.1091665457558129e-30  -1.1091665456708918e-30  -5.9389603377828854e-32  -7.5339405302766069e-32  2.6505053188588731e-34  4.7282240121883694e-33  1.2189997178725747e-32  4.7282240126531756e-33  -2.9152871056025743e-32  -2.9152871052524352e-32  -1.5998092898502884e-33  -1.9768939599150890e-33  -7.6570481463020697e-34  -4.2383278513931942e-35  -2.8742188464583166e-30  1.0246372246045218e-32  1.8020150969283193e-31  4.6383895900778582e-31  1.8020150967114821e-31  -1.1091665456685875e-30  -1.1091665457550291e-30  -5.9389602937145217e-32  -7.5339405277852023e-32  2.6505052748975415e-34  4.7282239779588991e-33  1.2189997246373553e-32  4.7282240272490169e-33  -2.9152871027466366e-32  -2.9152871024115341e-32  -1.5998092907230151e-33  -2.8742188465669523e-30  1.0246372232871965e-32  1.8020150758645462e-31  4.6383895993959763e-31  1.8020150959186826e-31  -1.1091665464041372e-30  -1.1091665374789858e-30  -5.9389605288787638e-32  -7.5339405318384143e-32  -2.9152871167821493e-32  -2.9152870392444911e-32  -1.5998092432085490e-33  -2.8742188496478646e-30  1.0246373443378853e-32  1.8020148706735733e-31  -1.1091665127367988e-30  -7.5339406697853070e-32  -2.9152866715415752e-32  -1.0997933447041766e-28  4.0655903901798454e-31  6.8755429858562353e-30  -4.2115035642448514e-29  6.8755429861319380e-30  6.8755429869795540e-30  2.6313731071833070e-28  -4.2115035635330450e-29  -2.8742188467429761e-30  1.0246372208302461e-32  1.8020150966486483e-31  4.6383895876327790e-31  -1.1091665458237239e-30  1.8020150967476087e-31  4.6383895883147034e-31  1.8020150967757437e-31  -1.1091665457315570e-30  -5.9389603580099346e-32  -1.1091665457942859e-30  -5.9389603563528411e-32  -7.5339405310328133e-32  2.6505052926651320e-34  4.7282240104038268e-33  1.2189997174284583e-32  -2.9152871062466839e-32  4.7282240099953941e-33  1.2189997173409287e-32  4.7282240110193013e-33  -2.9152871059967081e-32  -1.5998092989827116e-33  -2.9152871060396026e-32  -1.5998093030941887e-33  -1.9768939673706366e-33  6.9219837971294528e-36  1.2411210069498525e-34  3.2016076949504055e-34  -7.6570481661091439e-34  1.2411209853077187e-34  3.2016077022145066e-34  1.2411210047351856e-34  -7.6570481603605649e-34  -4.2383282159458979e-35  -7.6570481568073308e-34  -4.2383280925743221e-35  -2.8742188466664371e-30  1.0246372202251164e-32  1.8020150966100962e-31  4.6383895878611416e-31  1.8020150964650104e-31  -1.1091665458237088e-30  -1.1091665458912754e-30  4.0655903873421494e-31  -5.9389603810835400e-32  6.8755429859232244e-30  -7.5339405307526171e-32  2.6505053077617764e-34  4.7282240173319141e-33  1.2189997180623429e-32  4.7282240108959959e-33  -2.9152871066155970e-32  -2.9152871058205901e-32  -1.5998093056713086e-33  -1.9768939688168615e-33  -7.6570481671385491e-34  -7.6570479938683361e-34  -4.2383276862433274e-35  3.2016077253809492e-34  -2.8742188459635500e-30  1.0246372209053554e-32  1.8020150979831817e-31  4.6383895877964953e-31  1.8020150945806749e-31  -1.1091665460874479e-30  -1.1091665453600761e-30  -5.9389604136846984e-32  -7.5339405258095608e-32  2.6505054616457077e-34  4.7282241625594326e-33  1.2189997315199563e-32  4.7282240156073837e-33  -2.9152871072900371e-32  -2.9152871048607532e-32  -1.5998092823612786e-33  -1.9768939739825837e-33  -7.6570478950724111e-34  -2.8742188455238989e-30  1.0246370659303292e-32  1.8020150783698368e-31  4.6383895737498961e-31  1.8020150988046487e-31  -1.1091665424789725e-30  -1.1091665620433500e-30  -5.9389610561798505e-32  -7.5339404690005302e-32  -2.9152871024450449e-32  4.7282241215234868e-33  1.2189997200741506e-32  -2.9152868308322755e-32  -1.5998098636050914e-33  -2.8742188493067350e-30  1.0246375069367283e-32  1.8020151266830214e-31  -1.1091665151873498e-30  -7.5339404439337026e-32  -2.9152859476564772e-32  1.0246372154061471e-32  1.8020150960894755e-31  1.8020150963795447e-31  -1.1091665458357390e-30  -7.5339405312915948e-32  2.6505053099085338e-34  4.7282240078008882e-33  -2.9152871063512618e-32  4.7282240104490529e-33  -2.9152871062025265e-32  -1.9768939689169791e-33  6.9219830789520319e-36  1.2411210125176448e-34  3.2016077015372627e-34  -7.6570481348014583e-34  1.2411209853938792e-34  3.2016076561063633e-34  -4.2383285900023693e-35  -7.6570480924539647e-34  -5.1893783066490348e-35  -2.8742188465576515e-30  1.0246372153701875e-32  1.8020150960068079e-31  -1.1091665457450163e-30  -7.5339405311669493e-32  2.6505052901968863e-34  4.7282240084857626e-33  -2.9152871073855470e-32  -1.9768939634538528e-33  -7.6570480624731891e-34  1.2411210121012811e-34  3.2016076776561249e-34  -4.2383275855014676e-35  -2.8742188474089316e-30  1.0246372030590919e-32  1.8020150939258203e-31  -1.1091665466441432e-30  -7.5339405357821805e-32  2.6505055322472348e-34  4.7282240148166484e-33  -2.9152871042955903e-32  -1.9768939751777237e-33  -7.6570486728637540e-34  1.0246372397172955e-32  -2.8742188413599146e-30  1.8020150687330836e-31  -1.1091665545597778e-30  -7.5339405538873563e-32  2.6505080536668814e-34  4.7282251142123322e-33  -2.9152874676678907e-32  -1.9768936829107853e-33  1.0246369212019705e-32  -2.8742188097482177e-30  -7.5339404365787238e-32  -2.9152871062606054e-32  -1.5998093028049081e-33  1.2189997192274156e-32  2.6505052944120386e-34  4.7282240085820998e-33  1.2189997172948389e-32  4.7282240097794854e-33  4.7282240093942405e-33  -1.5998093015280875e-33  -1.9768939585696704e-33  -7.6570481322604125e-34  -7.6570481475705451e-34  -4.2383283135456411e-35  3.2016077079909849e-34  1.2411209922440614e-34  3.2016077466389650e-34  -4.2383280291885464e-35  -7.6570481337154750e-34  -2.9152871058249905e-32  2.6505053095709803e-34  4.7282240012999916e-33  1.2189997202336242e-32  4.7282240172443070e-33  -1.5998093194110254e-33  -1.9768939638160843e-33  -7.6570481030490452e-34  -2.9152871220830479e-32  -1.5998094002080683e-33  -2.9152870377633865e-32  -7.6570481573410995e-34  -1.9768939583692663e-33  -7.6570482537094169e-34  -2.0106757776043894e-35  -2.8742189122929888e-30  -1.1091665106076521e-30  1.0246386380850197e-32  1.8020150693299632e-31  -1.1091664754147844e-30  -7.5339404231798287e-32  -2.9152870689751909e-32  </DataArray> 
</PointData> 
</Piece>
</UnstructuredGrid>
</VTKFile>