<?xml version="1.0"?>
<VTKFile type="UnstructuredGrid"  version="0.1"  >
<UnstructuredGrid>
<Piece  NumberOfPoints="608" NumberOfCells="2483">
<Points>
<DataArray  type="Float64"  NumberOfComponents="3"  format="ascii">5 25 0  5 25 2.5  5 22.5 2.5  2.5 22.5 2.5  5 22.5 0  2.5 22.5 0  5 25 5  5 22.5 5  2.5 22.5 5  0 25 0  2.5 25 2.5  2.5 25 0  0 22.5 0  0 20 5  0 22.5 5  0 22.5 2.5  0 25 5  2.5 25 5  0 25 2.5  10 20 0  10 22.5 2.5  10 22.5 0  7.5 22.5 2.5  7.5 22.5 0  10 25 0  10 25 2.5  10 25 5  10 22.5 5  7.5 22.5 5  7.5 25 2.5  7.5 25 0  7.5 25 5  15 20 0  15 22.5 2.5  15 22.5 0  12.5 22.5 2.5  12.5 22.5 0  15 25 0  15 25 2.5  15 25 5  15 22.5 5  12.5 22.5 5  12.5 25 2.5  12.5 25 0  12.5 25 5  20 25 0  20 25 2.5  20 22.5 2.5  17.5 22.5 2.5  20 22.5 0  17.5 22.5 0  20 25 5  20 22.5 5  17.5 22.5 5  17.5 25 2.5  17.5 25 0  17.5 25 5  25 20 0  25 22.5 2.5  25 22.5 0  22.5 22.5 2.5  22.5 22.5 0  25 25 0  25 25 2.5  25 25 5  25 22.5 5  22.5 22.5 5  22.5 25 2.5  22.5 25 0  22.5 25 5  2.5 27.5 2.5  2.5 27.5 0  5 27.5 2.5  5 27.5 0  5 30 0  5 30 2.5  5 30 5  5 27.5 5  2.5 27.5 5  0 27.5 2.5  0 27.5 5  0 30 5  2.5 30 5  7.5 27.5 2.5  7.5 27.5 0  10 27.5 2.5  10 27.5 0  10 30 0  10 30 2.5  10 30 5  10 27.5 5  7.5 27.5 5  7.5 30 2.5  7.5 30 0  7.5 30 5  12.5 27.5 2.5  12.5 27.5 0  15 27.5 2.5  15 27.5 0  15 30 0  15 30 2.5  15 30 5  15 27.5 5  12.5 27.5 5  12.5 30 2.5  12.5 30 0  12.5 30 5  17.5 27.5 2.5  17.5 27.5 0  20 27.5 2.5  20 27.5 0  20 30 0  20 30 2.5  20 30 5  20 27.5 5  17.5 27.5 5  17.5 30 2.5  17.5 30 0  17.5 30 5  22.5 27.5 2.5  22.5 27.5 0  25 27.5 2.5  25 27.5 0  25 30 0  25 30 2.5  25 30 5  25 27.5 5  22.5 27.5 5  22.5 30 2.5  22.5 30 0  22.5 30 5  17.5 32.5 2.5  17.5 32.5 0  20 32.5 2.5  20 32.5 0  20 35 0  20 35 2.5  20 35 5  20 32.5 5  17.5 32.5 5  22.5 32.5 2.5  22.5 32.5 0  25 32.5 2.5  25 32.5 0  25 35 0  25 35 2.5  25 35 5  25 32.5 5  22.5 32.5 5  22.5 35 2.5  22.5 35 0  22.5 35 5  5 25 7.5  5 22.5 7.5  2.5 22.5 7.5  5 25 10  5 22.5 10  2.5 22.5 10  2.5 25 7.5  0 22.5 7.5  0 20 7.5  0 20 10  0 22.5 10  0 25 10  2.5 25 10  0 25 7.5  10 25 7.5  10 22.5 7.5  7.5 22.5 7.5  10 25 10  10 22.5 10  7.5 22.5 10  7.5 25 7.5  7.5 25 10  15 25 7.5  15 22.5 7.5  12.5 22.5 7.5  15 25 10  15 22.5 10  12.5 22.5 10  12.5 25 7.5  12.5 25 10  20 25 7.5  20 22.5 7.5  17.5 22.5 7.5  20 25 10  20 22.5 10  17.5 22.5 10  17.5 25 7.5  17.5 25 10  25 25 7.5  25 22.5 7.5  22.5 22.5 7.5  25 25 10  25 22.5 10  22.5 22.5 10  22.5 25 7.5  22.5 25 10  2.5 27.5 7.5  5 27.5 7.5  5 30 7.5  5 30 10  5 27.5 10  2.5 27.5 10  2.5 30 7.5  0 27.5 7.5  0 27.5 10  0 30 10  2.5 30 10  0 30 7.5  7.5 27.5 7.5  10 27.5 7.5  10 30 7.5  10 30 10  10 27.5 10  7.5 27.5 10  7.5 30 7.5  7.5 30 10  12.5 27.5 7.5  15 27.5 7.5  15 30 7.5  15 30 10  15 27.5 10  12.5 27.5 10  12.5 30 7.5  12.5 30 10  17.5 27.5 7.5  20 27.5 7.5  20 30 7.5  20 30 10  20 27.5 10  17.5 27.5 10  17.5 30 7.5  17.5 30 10  22.5 27.5 7.5  25 27.5 7.5  25 30 7.5  25 30 10  25 27.5 10  22.5 27.5 10  22.5 30 7.5  22.5 30 10  17.5 32.5 7.5  20 32.5 7.5  20 35 7.5  20 35 10  20 32.5 10  17.5 32.5 10  22.5 32.5 7.5  25 32.5 7.5  25 35 7.5  25 35 10  25 32.5 10  22.5 32.5 10  22.5 35 7.5  22.5 35 10  5 25 12.5  5 22.5 12.5  2.5 22.5 12.5  5 25 15  5 20 15  5 22.5 15  2.5 22.5 15  2.5 25 12.5  0 20 15  0 22.5 15  0 22.5 12.5  0 25 15  2.5 25 15  0 25 12.5  10 25 12.5  10 22.5 12.5  7.5 22.5 12.5  10 25 15  10 22.5 15  7.5 22.5 15  7.5 25 12.5  7.5 25 15  15 25 12.5  15 22.5 12.5  12.5 22.5 12.5  15 25 15  15 20 15  15 22.5 15  12.5 22.5 15  12.5 25 12.5  12.5 25 15  20 25 12.5  20 22.5 12.5  17.5 22.5 12.5  20 25 15  17.5 25 12.5  17.5 22.5 15  17.5 25 15  22.5 22.5 12.5  22.5 25 12.5  2.5 27.5 12.5  5 27.5 12.5  5 30 12.5  5 30 15  5 27.5 15  2.5 27.5 15  2.5 30 12.5  0 27.5 12.5  0 27.5 15  0 30 15  2.5 30 15  0 30 12.5  7.5 27.5 12.5  10 27.5 12.5  10 30 12.5  10 30 15  10 27.5 15  7.5 27.5 15  7.5 30 12.5  7.5 30 15  12.5 27.5 12.5  15 27.5 12.5  15 30 12.5  15 30 15  15 27.5 15  12.5 27.5 15  12.5 30 12.5  12.5 30 15  17.5 27.5 12.5  20 27.5 12.5  20 30 12.5  20 30 15  20 27.5 15  17.5 27.5 15  17.5 30 12.5  17.5 30 15  22.5 27.5 12.5  22.5 30 12.5  22.5 32.5 12.5  5 22.5 17.5  2.5 22.5 17.5  5 25 17.5  5 25 20  5 22.5 20  2.5 22.5 20  2.5 25 17.5  0 22.5 17.5  0 20 17.5  0 20 20  0 22.5 20  0 25 20  2.5 25 20  0 25 17.5  10 25 17.5  10 22.5 17.5  7.5 22.5 17.5  10 25 20  7.5 25 17.5  7.5 25 20  7.5 22.5 20  15 22.5 17.5  12.5 22.5 17.5  15 25 17.5  15 25 20  12.5 25 17.5  12.5 25 20  17.5 22.5 17.5  17.5 25 17.5  2.5 27.5 17.5  5 27.5 17.5  5 30 17.5  5 30 20  5 27.5 20  2.5 27.5 20  2.5 30 17.5  0 27.5 17.5  0 27.5 20  0 30 20  2.5 30 20  0 30 17.5  7.5 27.5 17.5  10 27.5 17.5  10 30 17.5  10 30 20  10 27.5 20  7.5 27.5 20  7.5 30 17.5  7.5 30 20  12.5 27.5 17.5  15 27.5 17.5  15 30 17.5  15 30 20  15 27.5 20  12.5 27.5 20  12.5 30 17.5  12.5 30 20  17.5 27.5 17.5  17.5 30 17.5  17.5 32.5 17.5  5 25 22.5  5 22.5 22.5  2.5 22.5 22.5  5 25 25  2.5 25 22.5  0 22.5 22.5  0 25 22.5  0 25 25  2.5 25 25  7.5 25 22.5  7.5 22.5 22.5  10 25 22.5  10 25 25  7.5 25 25  2.5 27.5 22.5  5 27.5 22.5  2.5 30 22.5  0 27.5 22.5  0 30 22.5  7.5 27.5 22.5  10 27.5 22.5  10 30 22.5  7.5 30 22.5  12.5 27.5 22.5  12.5 25 22.5  12.5 30 22.5  12.5 32.5 22.5  2.5 32.5 7.5  2.5 32.5 10  5 32.5 10  0 32.5 7.5  0 32.5 10  2.5 32.5 12.5  5 32.5 12.5  2.5 32.5 15  0 32.5 12.5  0 32.5 15  7.5 32.5 12.5  7.5 32.5 10  10 32.5 12.5  10 32.5 10  10 35 10  10 35 12.5  10 35 15  10 32.5 15  7.5 32.5 15  12.5 32.5 12.5  12.5 32.5 10  15 32.5 12.5  15 32.5 10  15 35 10  15 35 12.5  15 35 15  15 32.5 15  12.5 32.5 15  12.5 35 12.5  12.5 35 10  12.5 35 15  17.5 32.5 12.5  17.5 32.5 15  20 32.5 15  20 35 15  17.5 35 15  17.5 35 12.5  17.5 37.5 12.5  17.5 37.5 15  2.5 32.5 17.5  5 32.5 17.5  2.5 32.5 20  0 32.5 17.5  7.5 32.5 17.5  10 32.5 17.5  10 32.5 20  7.5 32.5 20  12.5 32.5 17.5  15 32.5 17.5  15 35 17.5  15 35 20  15 32.5 20  12.5 32.5 20  17.5 35 17.5  17.5 37.5 17.5  2.5 32.5 22.5  7.5 32.5 22.5  10 32.5 22.5  0 27.5 0  0 30 0  2.5 30 2.5  2.5 30 0  0 30 2.5  2.5 32.5 2.5  2.5 32.5 0  5 32.5 2.5  5 32.5 5  2.5 32.5 5  0 32.5 0  0 32.5 2.5  0 32.5 5  7.5 32.5 2.5  7.5 32.5 0  10 32.5 2.5  10 32.5 0  10 35 0  10 35 2.5  10 35 5  10 32.5 5  7.5 32.5 5  12.5 32.5 2.5  12.5 32.5 0  15 32.5 2.5  15 32.5 0  15 35 0  15 35 2.5  15 35 5  15 32.5 5  12.5 32.5 5  12.5 35 2.5  12.5 35 0  12.5 35 5  17.5 35 2.5  17.5 35 0  17.5 35 5  12.5 37.5 2.5  12.5 37.5 0  15 37.5 2.5  15 37.5 0  15 40 0  15 37.5 5  12.5 37.5 5  17.5 37.5 2.5  17.5 37.5 0  20 37.5 2.5  20 37.5 0  20 40 0  20 40 2.5  20 40 5  20 37.5 5  17.5 37.5 5  17.5 40 0  22.5 37.5 2.5  22.5 37.5 0  25 37.5 2.5  25 37.5 0  25 40 0  25 40 2.5  25 40 5  25 37.5 5  22.5 37.5 5  22.5 40 2.5  22.5 40 0  22.5 40 5  22.5 42.5 2.5  22.5 42.5 0  22.5 42.5 5  5 32.5 7.5  7.5 32.5 7.5  10 32.5 7.5  10 35 7.5  12.5 32.5 7.5  15 32.5 7.5  15 35 7.5  12.5 35 7.5  17.5 35 7.5  17.5 35 10  12.5 37.5 7.5  15 37.5 7.5  17.5 37.5 7.5  20 37.5 7.5  20 40 7.5  20 40 10  20 37.5 10  17.5 37.5 10  22.5 37.5 7.5  22.5 40 7.5  22.5 42.5 7.5  20 32.5 12.5  20 35 12.5  27.5 22.5 2.5  27.5 22.5 0  27.5 25 2.5  27.5 25 0  27.5 22.5 5  27.5 27.5 2.5  27.5 27.5 0  27.5 30 2.5  27.5 30 0  30 30 0  30 30 2.5  30 30 5  27.5 27.5 5  27.5 30 5  27.5 32.5 2.5  27.5 32.5 0  30 32.5 0  30 35 0  27.5 32.5 5  30 32.5 5  30 35 5  27.5 35 2.5  27.5 35 0  27.5 35 5  27.5 37.5 2.5  27.5 37.5 0  27.5 37.5 5  27.5 22.5 7.5  27.5 27.5 7.5  27.5 30 7.5  30 30 7.5  27.5 32.5 7.5  27.5 35 7.5  27.5 37.5 7.5  27.5 25 7.5  27.5 35 10  </DataArray>
</Points>
<Cells>
[...]
<PointData  Scalars="c_HbCO2"> 
<DataArray  type="Float64"  Name="c_HbCO2"  format="ascii">2.8550072787126647e-23  1.6180288343353282e-23  4.9292957736053083e-24  -3.5280731142847784e-22  1.6180288343333428e-23  -5.3123532571324967e-23  2.8550072787147301e-23  1.6180288343345632e-23  -5.3123532571340766e-23  6.3999999999999997e-22  -5.3123532571326766e-23  1.9158362371491029e-23  6.3999999999999997e-22  6.3999999999999997e-22  6.3999999999999997e-22  6.3999999999999997e-22  6.3999999999999997e-22  1.9158362371483949e-23  6.3999999999999997e-22  8.9028315451394986e-25  5.5008963890499856e-26  3.9893620379066181e-25  -7.0717133559886341e-24  -2.0474611964303694e-24  8.9028315450984059e-25  3.9893620380773876e-25  8.9028315450828159e-25  3.9893620381475288e-25  -2.0474611964369437e-24  -2.0474611964188595e-24  1.4268857288792592e-25  1.4268857289116785e-25  2.4825600152275453e-26  8.5307086838846922e-28  1.0151011428488382e-26  -1.6767296408930058e-25  -5.8904454422454353e-26  2.4825600154019335e-26  1.0151011428480265e-26  2.4825600154137794e-26  1.0151011429151733e-26  -5.8904454438492952e-26  -5.8904454436024586e-26  -6.4352019781222269e-28  -6.4352019680623756e-28  6.6592990481909528e-28  2.6313731066737711e-28  1.7255827088968122e-29  -4.2437751545521509e-27  2.6313731129030105e-28  -1.5896401396101591e-27  6.6592990457447996e-28  2.6313731120794613e-28  -1.5896401381760531e-27  -1.5896401400509617e-27  -6.2773100341785141e-29  -6.2773100283158950e-29  1.7618439425083228e-29  4.0655911907341760e-31  6.8755430500117077e-30  -1.0997933445510880e-28  -4.2115035092438923e-29  1.7618439530772897e-29  6.8755429789870618e-30  1.7618439508523921e-29  6.8755428788743927e-30  -4.2115035704435635e-29  -4.2115035611692619e-29  -2.0983265155842415e-30  -2.0983264850809765e-30  -3.5280731142845857e-22  -5.3123532571327788e-23  4.9292957736239715e-24  1.6180288343359926e-23  2.8550072787119653e-23  1.6180288343355938e-23  2.8550072787144403e-23  1.6180288343361322e-23  -5.3123532571325684e-23  6.3999999999999997e-22  6.3999999999999997e-22  6.3999999999999997e-22  1.9158362371491881e-23  -7.0717133559806040e-24  -2.0474611964192944e-24  5.5008963870469398e-26  3.9893620380662416e-25  8.9028315450997522e-25  3.9893620380759550e-25  8.9028315451078465e-25  3.9893620380695256e-25  -2.0474611964187533e-24  -2.0474611964208949e-24  1.4268857288409055e-25  1.4268857289113326e-25  -1.6767296409694081e-25  -5.8904454437319306e-26  8.5307086590508619e-28  1.0151011428665816e-26  2.4825600154608864e-26  1.0151011428727112e-26  2.4825600154700306e-26  1.0151011428671254e-26  -5.8904454437391374e-26  -5.8904454437242589e-26  -6.4352019641045536e-28  -6.4352019611029930e-28  -4.2437751536253506e-27  -1.5896401399850373e-27  1.7255827207754463e-29  2.6313731071280703e-28  6.6592990476200203e-28  2.6313731072140082e-28  6.6592990476680295e-28  2.6313731072152723e-28  -1.5896401399794760e-27  -1.5896401399695677e-27  -6.2773100382726833e-29  -6.2773100366321485e-29  -1.0997933446975337e-28  -4.2115035637495899e-29  4.0655904126247223e-31  6.8755429861018325e-30  1.7618439555249711e-29  6.8755429861407199e-30  1.7618439555460604e-29  6.8755429895933147e-30  -4.2115035636390286e-29  -4.2115035638162015e-29  -2.0983265222745480e-30  -2.0983265208968999e-30  -4.2437751535847048e-27  -1.5896401399599436e-27  1.7255827220104300e-29  2.6313731071906310e-28  6.6592990476464670e-28  2.6313731072009665e-28  6.6592990478271632e-28  2.6313731072533549e-28  -1.5896401399536913e-27  -1.0997933446698266e-28  -4.2115035637419511e-29  4.0655903946615132e-31  6.8755429860921944e-30  1.7618439556311380e-29  6.8755429862345018e-30  1.7618439568191650e-29  6.8755429861283240e-30  -4.2115035635823931e-29  -4.2115035638402522e-29  -2.0983265218333204e-30  -2.0983265210309975e-30  1.6180288343364731e-23  4.9292957736430821e-24  -3.5280731142846369e-22  2.8550072787132037e-23  1.6180288343375137e-23  -5.3123532571336651e-23  -5.3123532571325614e-23  6.3999999999999997e-22  6.3999999999999997e-22  6.3999999999999997e-22  6.3999999999999997e-22  6.3999999999999997e-22  1.9158362371486618e-23  6.3999999999999997e-22  3.9893620380663495e-25  5.5008963867108276e-26  -7.0717133559678528e-24  8.9028315450935000e-25  3.9893620379923356e-25  -2.0474611964492067e-24  -2.0474611964210716e-24  1.4268857289046515e-25  1.0151011428494332e-26  8.5307086608780493e-28  -1.6767296409591880e-25  2.4825600154843142e-26  1.0151011426281446e-26  -5.8904454439653764e-26  -5.8904454437503976e-26  -6.4352019563751608e-28  2.6313731089982338e-28  1.7255827467114165e-29  -4.2437751540470506e-27  6.6592990470358964e-28  2.6313731126241458e-28  -1.5896401390210865e-27  -1.5896401397537584e-27  -6.2773100335844644e-29  6.8755429796512325e-30  4.0655892133407455e-31  -1.0997933451944205e-28  1.7618439570946684e-29  6.8755430924160432e-30  -4.2115036004751541e-29  -4.2115035669370131e-29  -2.0983265563614050e-30  -3.5280731142845791e-22  4.9292957736236409e-24  1.6180288343364711e-23  2.8550072787138226e-23  1.6180288343360558e-23  -5.3123532571326624e-23  -5.3123532571328364e-23  6.3999999999999997e-22  6.3999999999999997e-22  6.3999999999999997e-22  1.9158362371477969e-23  6.3999999999999997e-22  -7.0717133559795798e-24  5.5008963870416053e-26  3.9893620380732941e-25  8.9028315450977116e-25  3.9893620380657957e-25  -2.0474611964192246e-24  -2.0474611964201849e-24  1.4268857288776037e-25  -1.6767296409717541e-25  8.5307086583714712e-28  1.0151011428744021e-26  2.4825600154664792e-26  1.0151011428664016e-26  -5.8904454437400270e-26  -5.8904454437302925e-26  -6.4352019643600527e-28  -4.2437751536304317e-27  1.7255827222150650e-29  2.6313731072423315e-28  6.6592990476690402e-28  2.6313731071798179e-28  -1.5896401399838671e-27  -1.5896401399713348e-27  -6.2773100385138446e-29  -1.0997933447003186e-28  4.0655903966627592e-31  6.8755429854299337e-30  1.7618439553316463e-29  6.8755429865986657e-30  -4.2115035637849441e-29  -4.2115035636740291e-29  -2.0983265262747394e-30  -4.2437751535443374e-27  1.7255827223606372e-29  2.6313731073344584e-28  6.6592990472997037e-28  2.6313731072656410e-28  -1.5896401399793491e-27  -1.0997933446371732e-28  4.0655904221713133e-31  6.8755429720098889e-30  1.7618439557186914e-29  6.8755429832632516e-30  -4.2115035642287387e-29  -4.2115035631128539e-29  -2.0983265419309665e-30  1.6180288343361278e-23  4.9292957735705754e-24  -3.5280731142846341e-22  2.8550072787128593e-23  2.8550072787083313e-23  1.6180288343400011e-23  -5.3123532571381062e-23  -5.3123532571327236e-23  6.3999999999999997e-22  6.3999999999999997e-22  6.3999999999999997e-22  6.3999999999999997e-22  1.9158362371488875e-23  6.3999999999999997e-22  3.9893620380720589e-25  5.5008963871381944e-26  -7.0717133559802146e-24  8.9028315450429960e-25  3.9893620381985003e-25  -2.0474611964326098e-24  -2.0474611964184378e-24  1.4268857289208063e-25  1.0151011427900641e-26  8.5307086437356338e-28  -1.6767296409448839e-25  2.4825600153906236e-26  2.4825600151560017e-26  1.0151011430073387e-26  -5.8904454440810237e-26  -5.8904454437287416e-26  -6.4352019702015051e-28  2.6313731068491764e-28  1.7255826611624872e-29  -4.2437751539717498e-27  6.6592990447257215e-28  -1.5896401401486245e-27  -1.5896401393853131e-27  -6.2773100201022827e-29  -1.0997933471260046e-28  -4.2115035671712149e-29  -3.5280731142845904e-22  4.9292957736234506e-24  1.6180288343360382e-23  2.8550072787134652e-23  1.6180288343359865e-23  -5.3123532571327612e-23  -5.3123532571328846e-23  6.3999999999999997e-22  6.3999999999999997e-22  6.3999999999999997e-22  1.9158362371493588e-23  6.3999999999999997e-22  -7.0717133559805966e-24  5.5008963870276394e-26  3.9893620380658425e-25  8.9028315450945469e-25  3.9893620380614813e-25  -2.0474611964200574e-24  -2.0474611964196952e-24  1.4268857288956590e-25  -1.6767296409723687e-25  8.5307086579283416e-28  1.0151011428638500e-26  2.4825600154578929e-26  1.0151011428499472e-26  -5.8904454437670381e-26  -5.8904454437444328e-26  -6.4352019654729079e-28  -4.2437751536495522e-27  1.7255827208098883e-29  2.6313731071956617e-28  6.6592990473425605e-28  2.6313731071823048e-28  -1.5896401400706836e-27  -1.5896401399881836e-27  -6.2773100421804900e-29  -1.0997933447267902e-28  -4.2115035670705271e-29  -1.0997933446445068e-28  4.9292957736594215e-24  -3.5280731142848730e-22  1.6180288343365190e-23  2.8550072787078687e-23  1.6180288343416594e-23  -5.3123532571291031e-23  -5.3123532571326048e-23  6.3999999999999997e-22  6.3999999999999997e-22  6.3999999999999997e-22  6.3999999999999997e-22  6.3999999999999997e-22  1.9158362371483541e-23  6.3999999999999997e-22  3.9893620379686562e-25  5.5008963864668356e-26  -7.0717133559639002e-24  8.9028315454746724e-25  -2.0474611964142986e-24  1.4268857281669882e-25  -2.0474611964337078e-24  8.5307086243539676e-28  -1.6767296409640539e-25  1.0151011429691478e-26  2.4825600149491744e-26  -5.8904454435765576e-26  -6.4352019337148194e-28  -4.2437751552496393e-27  -1.5896401433267222e-27  -3.5280731142845960e-22  4.9292957736231700e-24  1.6180288343364593e-23  2.8550072787142175e-23  1.6180288343363688e-23  -5.3123532571333219e-23  -5.3123532571328153e-23  6.3999999999999997e-22  6.3999999999999997e-22  6.3999999999999997e-22  1.9158362371480587e-23  6.3999999999999997e-22  -7.0717133559802146e-24  5.5008963870271641e-26  3.9893620380636743e-25  8.9028315450815357e-25  3.9893620380713912e-25  -2.0474611964140029e-24  -2.0474611964203208e-24  1.4268857288942332e-25  -1.6767296409760389e-25  8.5307086600691400e-28  1.0151011428768877e-26  2.4825600155738917e-26  1.0151011430223755e-26  -5.8904454433106467e-26  -5.8904454437188383e-26  -6.4352019846362128e-28  -4.2437751541368256e-27  -1.5896401400416236e-27  -4.2437751536507346e-27  1.6180288343300029e-23  4.9292957736360475e-24  -3.5280731142846769e-22  2.8550072786739980e-23  -5.3123532571297907e-23  6.3999999999999997e-22  6.3999999999999997e-22  6.3999999999999997e-22  1.9158362371379501e-23  -2.0474611966965370e-24  -7.0717133571463256e-24  3.9893620368980885e-25  8.9028315508408996e-25  1.4268857371283965e-25  -3.5280731142848231e-22  4.9292957735766814e-24  -5.3123532571375443e-23  6.3999999999999997e-22  6.3999999999999997e-22  -7.0717133559248415e-24  5.5008963877046989e-26  3.9893620380208298e-25  -2.0474611964114719e-24  -1.6767296407119985e-25  -5.8904454313798681e-26  -5.8904454439861599e-26  -1.6767296405866132e-25  -3.5280731142841079e-22  -5.3123532571369154e-23  1.6180288343325655e-23  6.3999999999999997e-22  6.3999999999999997e-22  -3.5280731142846435e-22  4.9292957736302670e-24  -5.3123532571327647e-23  6.3999999999999997e-22  6.3999999999999997e-22  -7.0717133559770466e-24  -2.0474611964156305e-24  5.5008963868918009e-26  3.9893620380718812e-25  8.9028315450952247e-25  3.9893620380890866e-25  8.9028315450732723e-25  3.9893620380603402e-25  -2.0474611964198991e-24  -1.6767296409700471e-25  -5.8904454437228986e-26  8.5307086584065498e-28  1.0151011428727852e-26  2.4825600154952690e-26  1.0151011428460944e-26  2.4825600153285437e-26  1.0151011428643607e-26  -5.8904454436994151e-26  -5.8904454438224632e-26  -6.4352019627081321e-28  -6.4352020044275676e-28  -4.2437751535991675e-27  -1.5896401399328647e-27  2.6313731077186788e-28  6.6592990477278983e-28  -6.2773100567225466e-29  -1.5896401399411962e-27  -4.2437751534828306e-27  -1.5896401401603913e-27  -3.5280731142847676e-22  4.9292957736156755e-24  -5.3123532571335452e-23  6.3999999999999997e-22  -7.0717133559821953e-24  5.5008963877268025e-26  3.9893620380259446e-25  -2.0474611963895897e-24  -1.6767296410007040e-25  8.5307086549377545e-28  1.0151011426137549e-26  2.4825600148710330e-26  1.0151011427141225e-26  -5.8904454431918931e-26  -1.5896401396260855e-27  -4.2437751534362205e-27  -3.5280731142849125e-22  -7.0717133559916463e-24  5.5008963890325885e-26  6.3999999999999997e-22  6.3999999999999997e-22  -5.3123532571328541e-23  1.9158362371497811e-23  6.3999999999999997e-22  -3.5280731142845998e-22  -5.3123532571351992e-23  4.9292957735862595e-24  1.6180288343385628e-23  -5.3123532571447830e-23  6.3999999999999997e-22  6.3999999999999997e-22  6.3999999999999997e-22  -7.0717133559687550e-24  -2.0474611964174757e-24  5.5008963872175024e-26  3.9893620380307614e-25  8.9028315450474078e-25  3.9893620380138283e-25  8.9028315451837118e-25  3.9893620380241341e-25  -2.0474611964342125e-24  -1.6767296409644355e-25  -5.8904454436900547e-26  8.5307086595742471e-28  1.0151011428684625e-26  2.4825600154557892e-26  1.0151011428851279e-26  2.4825600154887146e-26  1.0151011428804043e-26  -5.8904454436857270e-26  -5.8904454436805934e-26  -6.4352019679006698e-28  -6.4352019822288251e-28  -1.5896401399894187e-27  -6.2773100383673293e-29  -6.2773100361163182e-29  -1.6767296409964934e-25  -5.8904454435984442e-26  8.5307086554990811e-28  1.0151011428665883e-26  2.4825600154514199e-26  1.0151011428613036e-26  -5.8904454435590744e-26  -4.2437751538109035e-27  -1.5896401400826862e-27  1.7255827204303096e-29  2.6313731070693498e-28  6.6592990473362845e-28  2.6313731068373647e-28  6.6592990476266560e-28  2.6313731070899742e-28  -1.5896401399610191e-27  -6.2773100570903942e-29  -1.0997933447127003e-28  -4.2115035640133647e-29  4.0655904082742966e-31  6.8755429858921688e-30  1.7618439549710008e-29  6.8755429827596460e-30  1.7618439558028657e-29  6.8755429773897259e-30  -4.2115035639723325e-29  -4.2115035639633916e-29  -2.0983265128332579e-30  -2.0983265292613755e-30  -1.0997933447975887e-28  -4.2115035648091016e-29  -4.2115035617490446e-29  4.9292957736152023e-24  -7.0717133559601357e-24  5.5008963867055838e-26  3.9893620381522919e-25  -1.6767296409598625e-25  8.5307086602479502e-28  1.0151011428761346e-26  -5.8904454437664894e-26  -1.5896401399934322e-27  -6.2773100309028041e-29  -1.6767296409662021e-25  8.5307086564586652e-28  -4.2437751535448597e-27  1.7255827211276557e-29  2.6313731072784208e-28  6.6592990469379588e-28  2.6313731078277240e-28  -1.5896401398635077e-27  -1.0997933443551997e-28  -4.2115035638850887e-29  -1.0997933446918792e-28  1.7255827221031651e-29  2.6313731062655049e-28  -2.8742189122929888e-30  -1.1091665106076521e-30  -1.1091665569689134e-30  -5.9389618708673637e-32  -1.1091664754147844e-30  -2.8742188444471268e-30  -1.1091665418726644e-30  -1.1091665457426887e-30  -5.9389603213381027e-32  4.6383895748947745e-31  1.8020150924779477e-31  4.6383895712518355e-31  -1.1091665286223992e-30  -5.9389603581167573e-32  -2.8742188455010767e-30  -1.1091665461962430e-30  1.8020150936294582e-31  4.6383895936710713e-31  -1.1091665447149136e-30  1.8020151115979097e-31  4.6383895792091395e-31  -1.1091665421472541e-30  -5.9389603231421431e-32  -5.9389602720411693e-32  -2.8742188417363556e-30  -1.1091665446742479e-30  -1.1091665370348437e-30  -2.8742188496478646e-30  -2.8742188349816644e-30  -1.1091665459999550e-30  1.8020151011382302e-31  -2.8742188460134674e-30  -1.1091665344128867e-30  -2.8742188496407422e-30  -1.1091665536545307e-30  -5.9389601568879978e-32  </DataArray> 
</PointData> 
</Piece>
</UnstructuredGrid>
</VTKFile>