<?xml version="1.0"?>
<VTKFile type="UnstructuredGrid"  version="0.1"  >
<UnstructuredGrid>
<Piece  NumberOfPoints="604" NumberOfCells="2423">
<Points>
<DataArray  type="Float64"  NumberOfComponents="3"  format="ascii">20 30 40  20 27.5 40  20 27.5 37.5  17.5 27.5 37.5  17.5 27.5 40  17.5 30 40  17.5 30 37.5  22.5 30 40  22.5 27.5 40  22.5 27.5 37.5  25 30 40  20 30 42.5  20 27.5 42.5  17.5 27.5 42.5  20 30 45  20 27.5 45  17.5 30 42.5  25 30 42.5  25 27.5 42.5  22.5 27.5 42.5  25 30 45  25 27.5 45  22.5 27.5 45  22.5 30 42.5  22.5 30 45  25 30 47.5  25 27.5 47.5  22.5 27.5 47.5  25 30 50  25 27.5 50  22.5 27.5 50  22.5 30 47.5  20 30 50  22.5 30 50  20 27.5 50  20 27.5 47.5  20 30 47.5  22.5 30 37.5  20 40 35  22.5 42.5 35  22.5 40 35  22.5 42.5 32.5  25 40 35  25 42.5 35  25 45 35  20 42.5 35  20 45 35  22.5 45 35  22.5 45 32.5  25 50 35  25 50 32.5  25 47.5 32.5  22.5 47.5 32.5  25 47.5 35  22.5 47.5 35  22.5 50 32.5  20 47.5 35  20 47.5 32.5  20 50 35  22.5 50 35  20 50 30  20 50 32.5  30 50 30  30 50 32.5  27.5 50 32.5  27.5 47.5 32.5  30 50 35  27.5 47.5 35  27.5 50 35  20 35 35  20 35 37.5  20 32.5 37.5  17.5 32.5 37.5  20 35 40  20 32.5 40  17.5 32.5 40  17.5 35 37.5  17.5 35 40  25 35 40  25 35 37.5  25 32.5 37.5  22.5 32.5 37.5  25 32.5 40  22.5 32.5 40  22.5 35 37.5  22.5 35 40  20 37.5 37.5  20 37.5 35  17.5 37.5 37.5  20 40 37.5  20 40 40  20 37.5 40  17.5 37.5 40  25 40 37.5  25 37.5 37.5  22.5 37.5 37.5  25 40 40  25 37.5 40  22.5 37.5 40  22.5 40 37.5  22.5 40 40  22.5 42.5 37.5  25 42.5 37.5  25 45 37.5  25 45 40  25 42.5 40  22.5 42.5 40  22.5 45 37.5  20 42.5 37.5  20 42.5 40  20 45 40  22.5 45 40  20 45 37.5  22.5 47.5 37.5  25 47.5 37.5  25 50 37.5  25 50 40  25 47.5 40  22.5 47.5 40  22.5 50 37.5  20 47.5 37.5  20 47.5 40  20 50 40  22.5 50 40  20 50 37.5  27.5 47.5 37.5  27.5 50 37.5  30 50 37.5  30 50 40  27.5 47.5 40  27.5 50 40  20 32.5 42.5  17.5 32.5 42.5  20 35 42.5  20 35 45  20 32.5 45  17.5 35 42.5  22.5 32.5 42.5  25 32.5 42.5  25 35 42.5  25 35 45  25 32.5 45  22.5 32.5 45  22.5 35 42.5  22.5 35 45  20 37.5 42.5  17.5 37.5 42.5  20 40 42.5  20 40 45  20 37.5 45  22.5 37.5 42.5  25 37.5 42.5  25 40 42.5  25 40 45  25 37.5 45  22.5 37.5 45  22.5 40 42.5  22.5 40 45  22.5 42.5 42.5  25 42.5 42.5  25 45 42.5  25 45 45  25 42.5 45  22.5 42.5 45  22.5 45 42.5  22.5 45 45  22.5 47.5 42.5  25 47.5 42.5  25 50 42.5  25 50 45  25 47.5 45  22.5 47.5 45  22.5 50 42.5  20 50 45  22.5 50 45  20 50 42.5  27.5 47.5 42.5  27.5 50 42.5  30 50 42.5  30 50 45  27.5 47.5 45  27.5 50 45  22.5 32.5 47.5  25 32.5 47.5  25 35 47.5  25 35 50  25 32.5 50  22.5 32.5 50  22.5 35 47.5  20 32.5 47.5  20 32.5 50  20 35 50  22.5 35 50  20 35 47.5  27.5 32.5 47.5  27.5 32.5 50  27.5 35 50  30 35 50  27.5 35 47.5  22.5 37.5 47.5  25 37.5 47.5  25 40 47.5  25 40 50  25 37.5 50  22.5 37.5 50  22.5 40 47.5  20 37.5 47.5  20 37.5 50  20 40 50  22.5 40 50  20 40 47.5  27.5 37.5 47.5  27.5 37.5 50  30 37.5 50  30 40 50  27.5 40 50  27.5 40 47.5  22.5 42.5 47.5  25 42.5 47.5  25 45 47.5  25 45 50  25 42.5 50  22.5 42.5 50  22.5 45 47.5  20 42.5 50  20 45 50  22.5 45 50  27.5 42.5 47.5  27.5 42.5 50  30 42.5 50  30 45 50  27.5 45 50  27.5 45 47.5  25 47.5 47.5  22.5 47.5 47.5  25 50 47.5  25 50 50  25 47.5 50  22.5 47.5 50  22.5 50 47.5  20 47.5 50  20 50 50  22.5 50 50  20 50 47.5  27.5 47.5 47.5  27.5 47.5 50  30 47.5 50  30 50 50  27.5 50 47.5  30 50 47.5  27.5 50 50  30 30 40  30 30 37.5  30 27.5 37.5  27.5 27.5 37.5  30 27.5 40  27.5 27.5 40  27.5 30 37.5  27.5 30 40  35 30 40  35 30 37.5  35 27.5 37.5  32.5 27.5 37.5  35 27.5 40  32.5 27.5 40  32.5 30 37.5  32.5 30 40  30 35 40  30 35 37.5  30 32.5 37.5  27.5 32.5 37.5  30 32.5 40  27.5 32.5 40  27.5 35 37.5  27.5 35 40  35 35 40  35 35 37.5  35 32.5 37.5  32.5 32.5 37.5  35 32.5 40  32.5 32.5 40  32.5 35 37.5  32.5 35 40  30 40 35  30 40 37.5  30 37.5 37.5  27.5 37.5 37.5  30 40 40  30 37.5 40  27.5 37.5 40  27.5 40 37.5  27.5 40 35  27.5 40 40  35 40 40  35 40 37.5  35 37.5 37.5  32.5 37.5 37.5  35 37.5 40  32.5 37.5 40  32.5 40 37.5  32.5 40 40  27.5 42.5 37.5  27.5 42.5 35  30 42.5 37.5  30 42.5 35  30 45 35  30 45 37.5  30 45 40  30 42.5 40  27.5 42.5 40  27.5 45 37.5  27.5 45 35  27.5 45 40  35 45 35  35 45 37.5  35 42.5 37.5  32.5 42.5 37.5  35 45 40  35 42.5 40  32.5 42.5 40  32.5 45 37.5  32.5 45 35  32.5 45 40  30 47.5 37.5  30 47.5 35  30 47.5 40  32.5 47.5 37.5  32.5 47.5 35  35 47.5 37.5  35 47.5 35  35 50 35  35 50 37.5  35 50 40  35 47.5 40  32.5 47.5 40  32.5 50 37.5  32.5 50 35  32.5 50 40  30 30 42.5  30 27.5 42.5  27.5 27.5 42.5  30 30 45  30 27.5 45  27.5 27.5 45  27.5 30 42.5  27.5 30 45  35 30 42.5  35 27.5 42.5  32.5 27.5 42.5  35 30 45  35 27.5 45  32.5 27.5 45  32.5 30 42.5  32.5 30 45  27.5 32.5 42.5  30 32.5 42.5  30 35 42.5  30 35 45  30 32.5 45  27.5 32.5 45  27.5 35 42.5  27.5 35 45  32.5 32.5 42.5  35 32.5 42.5  35 35 42.5  35 35 45  35 32.5 45  32.5 32.5 45  32.5 35 42.5  32.5 35 45  27.5 37.5 42.5  30 37.5 42.5  30 40 42.5  30 40 45  30 37.5 45  27.5 37.5 45  27.5 40 42.5  27.5 40 45  32.5 37.5 42.5  35 37.5 42.5  35 40 42.5  35 40 45  35 37.5 45  32.5 37.5 45  32.5 40 42.5  32.5 40 45  27.5 42.5 42.5  30 42.5 42.5  30 45 42.5  30 45 45  30 42.5 45  27.5 42.5 45  27.5 45 42.5  27.5 45 45  32.5 42.5 42.5  35 42.5 42.5  35 45 42.5  35 45 45  35 42.5 45  32.5 42.5 45  32.5 45 42.5  32.5 45 45  30 47.5 42.5  30 47.5 45  32.5 47.5 42.5  35 47.5 42.5  35 50 42.5  35 50 45  35 47.5 45  32.5 47.5 45  32.5 50 42.5  32.5 50 45  37.5 47.5 42.5  37.5 47.5 45  37.5 50 45  40 50 45  37.5 50 42.5  30 30 47.5  30 27.5 47.5  27.5 27.5 47.5  30 30 50  30 27.5 50  27.5 27.5 50  27.5 30 47.5  27.5 30 50  35 30 47.5  35 27.5 47.5  32.5 27.5 47.5  35 30 50  35 27.5 50  32.5 27.5 50  32.5 30 47.5  32.5 30 50  30 32.5 47.5  30 35 47.5  30 32.5 50  32.5 32.5 47.5  35 32.5 47.5  35 35 47.5  35 35 50  35 32.5 50  32.5 32.5 50  32.5 35 47.5  32.5 35 50  30 37.5 47.5  30 40 47.5  32.5 37.5 47.5  35 37.5 47.5  35 40 47.5  35 40 50  35 37.5 50  32.5 37.5 50  32.5 40 47.5  32.5 40 50  37.5 37.5 47.5  37.5 37.5 50  37.5 40 50  40 40 50  37.5 40 47.5  30 42.5 47.5  30 45 47.5  32.5 42.5 47.5  35 42.5 47.5  35 45 47.5  35 45 50  35 42.5 50  32.5 42.5 50  32.5 45 47.5  32.5 45 50  37.5 42.5 47.5  37.5 42.5 50  40 42.5 50  40 45 50  37.5 45 50  37.5 45 47.5  30 47.5 47.5  32.5 47.5 47.5  35 47.5 47.5  35 50 47.5  35 50 50  35 47.5 50  32.5 47.5 50  32.5 50 47.5  32.5 50 50  37.5 47.5 47.5  37.5 47.5 50  40 47.5 50  40 50 50  37.5 50 47.5  40 50 47.5  37.5 50 50  40 30 40  40 27.5 40  37.5 27.5 40  37.5 27.5 37.5  37.5 30 40  37.5 30 37.5  37.5 32.5 40  37.5 32.5 37.5  37.5 35 40  40 35 40  37.5 35 37.5  37.5 37.5 40  37.5 37.5 37.5  40 37.5 40  40 40 40  37.5 40 40  37.5 40 37.5  37.5 42.5 40  37.5 42.5 37.5  40 42.5 40  40 45 40  37.5 45 37.5  37.5 45 35  40 45 35  40 45 37.5  37.5 45 40  37.5 47.5 37.5  37.5 47.5 35  40 47.5 37.5  40 47.5 35  40 50 35  40 50 37.5  40 50 40  40 47.5 40  37.5 47.5 40  37.5 50 37.5  37.5 50 35  37.5 50 40  40 30 42.5  40 27.5 42.5  37.5 27.5 42.5  40 30 45  40 27.5 45  37.5 27.5 45  37.5 30 42.5  37.5 30 45  42.5 27.5 42.5  37.5 32.5 42.5  37.5 32.5 45  37.5 35 42.5  37.5 35 45  40 35 45  37.5 37.5 42.5  37.5 37.5 45  40 37.5 45  40 40 45  37.5 40 42.5  40 40 42.5  37.5 40 45  37.5 42.5 42.5  40 42.5 42.5  40 45 42.5  40 45 45  40 42.5 45  37.5 42.5 45  37.5 45 42.5  37.5 45 45  42.5 42.5 42.5  40 47.5 45  40 50 42.5  37.5 27.5 47.5  37.5 30 47.5  37.5 30 50  37.5 27.5 50  40 30 50  37.5 32.5 47.5  37.5 32.5 50  40 32.5 50  40 35 50  37.5 35 47.5  40 35 47.5  37.5 35 50  40 37.5 47.5  40 40 47.5  40 37.5 50  42.5 37.5 47.5  42.5 37.5 50  42.5 40 50  42.5 40 47.5  40 42.5 47.5  40 45 47.5  42.5 42.5 47.5  42.5 42.5 50  42.5 45 50  42.5 45 47.5  40 47.5 47.5  42.5 47.5 47.5  42.5 47.5 50  42.5 50 50  42.5 50 47.5  30 47.5 32.5  35 50 30  35 50 32.5  35 47.5 32.5  32.5 47.5 32.5  32.5 50 32.5  32.5 50 30  40 50 30  40 50 32.5  40 47.5 32.5  37.5 47.5 32.5  37.5 50 32.5  37.5 50 30  </DataArray>
</Points>
<Cells>
[...]
<PointData  Scalars="c_HbCO2"> 
<DataArray  type="Float64"  Name="c_HbCO2"  format="ascii">6.6592990619579672e-28  2.6313730964868268e-28  1.7255826859596740e-29  -4.2437751526783997e-27  -1.5896401399435849e-27  -6.2773100830501556e-29  -1.5896401399671943e-27  -2.0983266587860655e-30  -4.2115035932467819e-29  -1.0997933432875737e-28  1.7618439693394259e-29  2.6313731055152941e-28  1.7255826983294596e-29  -4.2437751535020644e-27  6.6592990462727972e-28  2.6313731133768852e-28  -1.5896401400025847e-27  6.8755429811862176e-30  4.0655906790741861e-31  -1.0997933459407987e-28  1.7618439571783015e-29  6.8755430281294751e-30  -4.2115035801270774e-29  -4.2115035611441086e-29  -2.0983265739265481e-30  6.8755429800081250e-30  4.0655901533393548e-31  -1.0997933437808173e-28  1.7618439566064394e-29  6.8755430249434003e-30  -4.2115035173321747e-29  -4.2115035641957801e-29  6.6592990500588886e-28  -2.0983264810497530e-30  2.6313731095885002e-28  1.7255827495673373e-29  2.6313731088602227e-28  -4.2115035520520542e-29  6.6592990464375630e-28  -4.2115035644106704e-29  -2.0983265272401951e-30  -1.0997933446478601e-28  1.7618439557041324e-29  6.8755429805384604e-30  1.7618439576064369e-29  2.6313731066970322e-28  6.6592990482835901e-28  -2.0983264998385499e-30  -4.2115035673043332e-29  1.7618439557120484e-29  6.8755429817915505e-30  4.0655902192921563e-31  -1.0997933449466635e-28  6.8755429860097223e-30  -4.2115035631200577e-29  -4.2115035665852905e-29  2.6313731070660903e-28  1.7255827158795337e-29  6.6592990472670034e-28  -2.0983265094067209e-30  6.6592990474101628e-28  2.6313731071900704e-28  4.6383895950875843e-31  1.8020150955098389e-31  -1.1091665437353800e-30  -2.8742188488311630e-30  4.6383895904195579e-31  -1.1091665469931099e-30  -5.9389602687132048e-32  6.6592990485594840e-28  2.6313731086224930e-28  1.7255827583288217e-29  -4.2437751527112596e-27  6.6592990480902934e-28  2.6313731070023045e-28  -1.5896401394973865e-27  -1.5896401399928464e-27  -6.2773100228774814e-29  1.7618439565263987e-29  6.8755429679761013e-30  4.0655900706201836e-31  -1.0997933421397383e-28  6.8755429546520959e-30  -4.2115035558428838e-29  -4.2115035601499703e-29  -2.0983265094772454e-30  1.7255827191565164e-29  2.6313731102478638e-28  -4.2437751534120491e-27  2.6313731070525244e-28  6.6592990477385751e-28  2.6313731073291931e-28  -1.5896401399781039e-27  6.8755429847306269e-30  4.0655904354050394e-31  -1.0997933443642736e-28  1.7618439556427766e-29  6.8755429855202067e-30  -4.2115035635666526e-29  -4.2115035643793956e-29  -2.0983265222235617e-30  -1.0997933447645864e-28  4.0655903932374401e-31  6.8755429870300932e-30  1.7618439556231290e-29  6.8755429867778035e-30  -4.2115035640714603e-29  -4.2115035626245210e-29  1.7255827220301906e-29  2.6313731074583834e-28  6.6592990477754663e-28  -2.0983265260185333e-30  2.6313731072251769e-28  -1.0997933446130150e-28  4.0655904154627414e-31  6.8755429855934624e-30  1.7618439555764795e-29  6.8755429864743621e-30  -4.2115035637946926e-29  -4.2115035619271581e-29  1.7255827440810330e-29  2.6313731067539124e-28  6.6592990478252870e-28  -2.0983265194363118e-30  2.6313731071162935e-28  -2.8742188464118647e-30  -1.1091665452107973e-30  1.8020150974310874e-31  4.6383895883658779e-31  -1.1091665455982967e-30  -5.9389603538569348e-32  1.7255827289381977e-29  -4.2437751534705138e-27  2.6313731073093041e-28  6.6592990476909507e-28  2.6313731081594327e-28  -1.5896401399533460e-27  -1.0997933445884573e-28  4.0655904406926429e-31  6.8755429882235357e-30  1.7618439556474522e-29  6.8755429868912722e-30  -4.2115035621833502e-29  -4.2115035626779065e-29  -2.0983265087161943e-30  1.7255827214921867e-29  -4.2437751536601391e-27  2.6313731071318782e-28  6.6592990476032514e-28  2.6313731070824606e-28  -1.0997933446853978e-28  4.0655903965811318e-31  6.8755429862574257e-30  1.7618439555786534e-29  6.8755429861704821e-30  -4.2115035637721861e-29  -4.2115035638384535e-29  -2.0983265231237835e-30  -1.0997933447641743e-28  4.0655903907901652e-31  6.8755429857772834e-30  1.7618439555632652e-29  6.8755429865239779e-30  -4.2115035637935952e-29  -4.2115035651986738e-29  -2.0983265241180773e-30  -1.0997933447827345e-28  4.0655903766153262e-31  6.8755429855232910e-30  1.7618439556768996e-29  6.8755429855895668e-30  -4.2115035637623165e-29  -4.2115035639020500e-29  6.6592990477074757e-28  -2.0983265288724483e-30  2.6313731068843914e-28  -2.8742188469869873e-30  -1.1091665457908507e-30  1.8020150969650306e-31  4.6383895887154712e-31  -1.1091665457959295e-30  -5.9389603657782220e-32  -1.0997933442998697e-28  4.0655904413304536e-31  6.8755429871950513e-30  1.7618439555794048e-29  6.8755429917430789e-30  -4.2115035626471245e-29  -4.2115035632313948e-29  1.7255827313310757e-29  2.6313731079648329e-28  6.6592990471283919e-28  -2.0983265078139119e-30  2.6313731075865065e-28  -2.8742188441064891e-30  -1.1091665448921897e-30  -5.9389603160507047e-32  4.6383895886338955e-31  -1.1091665452202071e-30  -1.0997933446080825e-28  4.0655903938280130e-31  6.8755429859435362e-30  1.7618439556022891e-29  6.8755429863335764e-30  -4.2115035639190461e-29  -4.2115035640766423e-29  1.7255827202386512e-29  2.6313731070557283e-28  6.6592990476867347e-28  -2.0983265206485117e-30  2.6313731071837787e-28  -2.8742188465604219e-30  -1.1091665457123559e-30  1.8020150970114787e-31  4.6383895883953674e-31  -5.9389603634521848e-32  -1.1091665457831402e-30  -1.0997933446683802e-28  4.0655903891128582e-31  6.8755429860977659e-30  1.7618439556101314e-29  6.8755429860823082e-30  -4.2115035637681352e-29  -4.2115035640993041e-29  2.6313731071750077e-28  6.6592990476692393e-28  -2.0983265214962580e-30  -2.8742188466894913e-30  -1.1091665457858123e-30  1.8020150967091560e-31  4.6383895885017767e-31  -5.9389603613134596e-32  -1.1091665458031499e-30  4.0655903901187847e-31  -1.0997933446569286e-28  6.8755429861180441e-30  1.7618439555999397e-29  6.8755429861337471e-30  -4.2115035638248789e-29  -4.2115035638183398e-29  2.6313731071779726e-28  6.6592990476643471e-28  -2.0983265222789337e-30  2.6313731071736060e-28  -2.8742188466022952e-30  -1.1091665457467192e-30  1.8020150967705547e-31  4.6383895883951458e-31  -1.1091665457455220e-30  1.8020150968388236e-31  -5.9389603615615683e-32  4.6383896512424080e-31  1.8020151269191146e-31  1.0246414300965466e-32  -2.8742188645414988e-30  1.8020151552664953e-31  -1.1091665344953961e-30  -1.1091665515782627e-30  -5.9389618643155489e-32  1.2189996736399575e-32  4.7282246479215320e-33  2.6505124070801679e-34  -7.5339380442748695e-32  4.7282265613396265e-33  -2.9152872435730225e-32  -2.9152869297991322e-32  -1.5998101653363281e-33  4.6383895969573246e-31  1.8020150990527322e-31  1.0246371152104187e-32  -2.8742188477516258e-30  1.8020150986036108e-31  -1.1091665498679424e-30  -1.1091665493137295e-30  -5.9389603116646131e-32  1.2189997162106566e-32  4.7282237048371551e-33  2.6505097739835993e-34  -7.5339405906739217e-32  4.7282240012356345e-33  -2.9152870837257139e-32  -2.9152871564967547e-32  -1.5998092672556729e-33  4.6383895915924403e-31  1.8020150900012959e-31  1.0246371229957812e-32  -2.8742188437699112e-30  4.6383895895396791e-31  1.8020150954919820e-31  -1.1091665459088852e-30  -1.1091665451515321e-30  -5.9389601846578984e-32  -5.9389603491235435e-32  1.2189997184837146e-32  4.7282239947132826e-33  2.6505051025182435e-34  -7.5339404909112243e-32  4.7282240075841180e-33  -2.9152871111156059e-32  -2.9152870994637178e-32  -1.5998093057835524e-33  -2.8742188471481272e-30  -1.1091665425723014e-30  1.0246372237890528e-32  1.8020150955830105e-31  4.6383895890904000e-31  1.8020151056011429e-31  4.6383895891450603e-31  1.8020150978939076e-31  -1.1091665456128851e-30  -1.1091665451949532e-30  -5.9389594764957238e-32  -5.9389603247875685e-32  1.2189997269485716e-32  4.7282240085592904e-33  2.6505059333870796e-34  -7.5339404794731146e-32  1.2189997183330401e-32  4.7282240195838993e-33  -2.9152870997877653e-32  -2.9152870886835517e-32  -1.5998091820652080e-33  -1.5998092646639923e-33  1.0246372496352183e-32  1.8020151061151808e-31  1.8020150974980684e-31  -7.5339405245482170e-32  -2.9152871019723037e-32  2.6505053672971301e-34  4.7282240006451795e-33  1.2189997181358043e-32  4.7282240143080332e-33  1.2189997173603964e-32  4.7282240149188029e-33  -2.9152871039511128e-32  -2.9152871042511051e-32  -1.5998093001874732e-33  -1.5998092870543941e-33  1.8020150988637331e-31  1.0246370654836695e-32  -2.8742188445020917e-30  4.6383895784777125e-31  1.8020151622119758e-31  -1.1091665510961950e-30  -1.1091665487852557e-30  -5.9389600577258005e-32  4.7282239206589229e-33  2.6505025450813297e-34  -7.5339405549832209e-32  1.2189997250673313e-32  4.7282233923007437e-33  -2.9152869726424025e-32  -2.9152870868378320e-32  -1.5998088537525186e-33  -2.8742188462822726e-30  1.0246372667166650e-32  1.8020150982226183e-31  4.6383895892813234e-31  1.8020151007050409e-31  -1.1091665448764990e-30  -1.1091665451393966e-30  -5.9389603155738505e-32  -7.5339405277462254e-32  2.6505055185930584e-34  4.7282240112684129e-33  1.2189997171952168e-32  4.7282240161412969e-33  -2.9152870981259025e-32  -2.9152871027260550e-32  -1.5998092625901934e-33  -2.8742188466012936e-30  1.0246372274075694e-32  1.8020150970816574e-31  4.6383895885239400e-31  1.8020150970472453e-31  -1.1091665456634924e-30  -1.1091665457397001e-30  -5.9389603633661243e-32  -7.5339405283942493e-32  2.6505052975186717e-34  4.7282240119967022e-33  1.2189997173253879e-32  4.7282240095192277e-33  -2.9152871055817825e-32  -2.9152871055963637e-32  -1.5998092977811830e-33  -2.8742188469130478e-30  1.0246372220265710e-32  1.8020150970497083e-31  4.6383895885193367e-31  1.8020150968480034e-31  -1.1091665457928389e-30  -1.1091665457480757e-30  -5.9389603649787123e-32  -7.5339405291839061e-32  2.6505053198968257e-34  4.7282240133978843e-33  1.2189997174833531e-32  4.7282240101576656e-33  -2.9152871059112125e-32  -2.9152871051690733e-32  -1.5998092967905977e-33  1.0246372220540249e-32  1.8020150968574094e-31  -7.5339405310570853e-32  2.6505053107275873e-34  4.7282240121532159e-33  1.2189997174476128e-32  4.7282240108732426e-33  -2.9152871057661195e-32  -2.9152871056942187e-32  -1.5998092981935240e-33  -1.9768939618808556e-33  -7.6570481694711919e-34  -4.2383281572782427e-35  3.2016077232344356e-34  -7.6570481640406344e-34  1.8020150979967990e-31  1.0246378477599941e-32  -2.8742188435704553e-30  4.6383895868401249e-31  1.8020150183004528e-31  -1.1091665617364116e-30  -1.1091665441906927e-30  -5.9389600871761251e-32  4.7282240071498236e-33  2.6505053596721848e-34  -7.5339403765589747e-32  1.2189997174105317e-32  4.7282240560706371e-33  -2.9152871774256897e-32  -2.9152870931427812e-32  -1.5998086851791823e-33  1.0246372595496271e-32  1.8020150976110012e-31  1.8020150994577328e-31  -7.5339405147969073e-32  2.6505055350186703e-34  4.7282240141960449e-33  1.2189997172317191e-32  4.7282240364693159e-33  -2.9152870985527331e-32  -2.9152871024282654e-32  -1.5998092716252096e-33  1.0246372232311339e-32  1.8020150967546975e-31  -7.5339405300541760e-32  2.6505052939994971e-34  4.7282240090409217e-33  1.2189997172796007e-32  4.7282240101168979e-33  -2.9152871059426639e-32  -2.9152871061623355e-32  -1.5998093011304051e-33  -1.9768939690133183e-33  -7.6570481744460906e-34  -4.2383282799979243e-35  3.2016076918311471e-34  -7.6570481748114793e-34  1.0246372202484378e-32  1.8020150967811733e-31  -7.5339405310859312e-32  2.6505052794700826e-34  4.7282240094535124e-33  1.2189997173819333e-32  4.7282240089468397e-33  -2.9152871062833377e-32  -2.9152871061357919e-32  -1.5998093011041721e-33  -1.9768939683531514e-33  -7.6570481757069427e-34  1.2411209830853018e-34  3.2016076940381345e-34  -4.2383282666472203e-35  -7.6570481710154692e-34  1.0246372210411321e-32  -7.5339405307259990e-32  2.6505052847538031e-34  4.7282240099816959e-33  1.2189997173032917e-32  4.7282240096243887e-33  -2.9152871061198614e-32  -2.9152871060637454e-32  -1.5998092993538627e-33  -1.9768939675449638e-33  -7.6570481713543527e-34  1.2411209859786453e-34  3.2016076968169387e-34  -7.6570481684935339e-34  1.2411209910631166e-34  -4.2383282473032557e-35  3.2016074290288115e-34  1.2411199294134184e-34  -7.6570492774166082e-34  -1.9768936352698085e-33  -4.2383325200370027e-35  -7.6570473505831511e-34  -7.6570484781467801e-34  -1.9768940954562430e-33  -4.2383279988090833e-35  3.2016078600963841e-34  -7.6570477896786940e-34  -7.6570482134066832e-34  -1.9768939592837405e-33  1.2411210246136783e-34  3.2016077029967838e-34  -4.2383277719870647e-35  -7.6570478362560093e-34  -7.6570481282442872e-34  -1.9768939640594946e-33  1.2411210158842287e-34  3.2016076841096334e-34  -7.6570480758078962e-34  -4.2383258032926775e-35  3.2016077170067232e-34  1.2411210116068498e-34  -4.2383282784534474e-35  -1.9768939670626876e-33  -7.6570481300037105e-34  6.9219861935568378e-36  1.2411210090370346e-34  3.2016077208531173e-34  1.2411209561692430e-34  3.2016077269169990e-34  1.2411209499764048e-34  -7.6570481721320220e-34  -7.6570481634966750e-34  -4.2383282341052157e-35  -4.2383282282212178e-35  1.2411212322698477e-34  6.9220064226123908e-36  -1.9768940515592108e-33  3.2016078237084100e-34  1.2411210562370842e-34  -7.6570486095884956e-34  -7.6570483538270100e-34  -4.2383272805730567e-35  -5.1893844238710753e-35  -1.9768940228420141e-33  -7.6570485931488194e-34  -7.6570485780363457e-34  -4.2383281138777904e-35  3.2016077244542760e-34  -1.9768939729496755e-33  -7.6570481893891674e-34  1.2411209623480241e-34  3.2016076785684571e-34  -7.6570481722671099e-34  1.2411210011108771e-34  -4.2383282986022612e-35  -1.9768939682475580e-33  6.9219841727195627e-36  1.2411210209297445e-34  3.2016077033210299e-34  1.2411209887304246e-34  -7.6570481716838246e-34  -7.6570481848740159e-34  -4.2383282098552643e-35  -5.1893783066975990e-35  1.2411210134058240e-34  1.2411209817959704e-34  -1.9768940310834305e-33  -7.6570481879295941e-34  -4.2383264120555550e-35  -7.6570485866242543e-34  3.2016077071418514e-34  -1.9768939762843707e-33  -7.6570480494884988e-34  1.2411211120371950e-34  3.2016076749907974e-34  -7.6570481942266115e-34  1.2411210499907092e-34  -4.2383280047121739e-35  6.9219833454909601e-36  1.2411209827875911e-34  1.2411209932995009e-34  -5.1893783766084907e-35  -2.0106758144928608e-35  -1.1163544252170968e-36  -2.0106757297115911e-35  6.9219831665784558e-36  1.2411209898318447e-34  -5.1893782597573195e-35  -2.0106757284727331e-35  -1.1163544443619574e-36  -2.0106757550329080e-35  6.9219833054712559e-36  -5.1893781780281100e-35  -2.0106756955595959e-35  -1.1163546906510014e-36  -2.0106755591534282e-35  1.0246372651338901e-32  1.2189997220980078e-32  4.7282240382465982e-33  2.6505049687416576e-34  -7.5339405452135640e-32  -2.9152871196230860e-32  -1.5998093109218587e-33  3.2016077222180477e-34  1.2411210605434760e-34  6.9219899783497038e-36  -1.9768939738690963e-33  -7.6570481789244468e-34  -4.2383266778378970e-35  </DataArray> 
</PointData> 
</Piece>
</UnstructuredGrid>
</VTKFile>