<?xml version="1.0"?>
<VTKFile type="UnstructuredGrid"  version="0.1"  >
<UnstructuredGrid>
<Piece  NumberOfPoints="584" NumberOfCells="2390">
<Points>
<DataArray  type="Float64"  NumberOfComponents="3"  format="ascii">30 25 20  32.5 27.5 22.5  32.5 25 22.5  32.5 25 20  35 25 20  35 27.5 22.5  35 25 22.5  35 25 25  35 27.5 25  35 30 25  30 25 22.5  30 25 25  32.5 27.5 25  32.5 25 25  30 27.5 25  30 30 25  32.5 30 25  37.5 27.5 22.5  37.5 27.5 25  32.5 27.5 27.5  35 27.5 27.5  37.5 27.5 27.5  30 25 10  30 22.5 10  30 22.5 7.5  27.5 22.5 7.5  27.5 22.5 10  35 25 10  35 22.5 10  35 22.5 7.5  32.5 22.5 7.5  32.5 22.5 10  32.5 25 10  37.5 25 10  37.5 22.5 10  37.5 22.5 7.5  40 25 10  30 25 12.5  30 22.5 12.5  27.5 22.5 12.5  30 25 15  30 22.5 15  27.5 22.5 15  27.5 25 15  35 25 12.5  35 22.5 12.5  32.5 22.5 12.5  35 25 15  35 22.5 15  32.5 22.5 15  32.5 25 12.5  32.5 25 15  37.5 25 12.5  37.5 22.5 12.5  40 25 12.5  40 25 15  37.5 25 15  37.5 22.5 15  30 25 17.5  30 22.5 17.5  27.5 22.5 17.5  27.5 25 17.5  35 25 17.5  35 22.5 17.5  32.5 22.5 17.5  32.5 25 17.5  37.5 25 17.5  37.5 22.5 17.5  40 25 17.5  40 25 20  37.5 25 20  40 25 0  40 25 2.5  40 22.5 2.5  37.5 22.5 2.5  40 25 5  40 22.5 5  37.5 22.5 5  45 25 0  45 25 2.5  45 22.5 2.5  42.5 22.5 2.5  45 22.5 0  42.5 22.5 0  45 25 5  45 22.5 5  42.5 22.5 5  42.5 25 2.5  42.5 25 0  42.5 25 5  50 20 0  50 22.5 2.5  50 22.5 0  47.5 22.5 2.5  47.5 22.5 0  50 25 0  50 25 2.5  50 25 5  50 22.5 5  47.5 22.5 5  47.5 25 2.5  47.5 25 0  47.5 25 5  40 25 7.5  40 22.5 7.5  40 22.5 10  45 25 7.5  45 22.5 7.5  42.5 22.5 7.5  45 25 10  45 22.5 10  42.5 22.5 10  42.5 25 7.5  42.5 25 10  50 25 7.5  50 22.5 7.5  47.5 22.5 7.5  50 25 10  50 22.5 10  47.5 22.5 10  47.5 25 7.5  47.5 25 10  40 22.5 12.5  45 25 12.5  45 22.5 12.5  42.5 22.5 12.5  45 25 15  42.5 25 12.5  42.5 25 15  50 25 12.5  50 22.5 12.5  47.5 22.5 12.5  50 25 15  47.5 25 12.5  47.5 25 15  30 20 0  30 22.5 2.5  30 22.5 0  27.5 22.5 2.5  27.5 22.5 0  30 25 0  30 25 2.5  30 25 5  30 22.5 5  27.5 22.5 5  27.5 25 2.5  27.5 25 0  25 25 5  27.5 25 5  35 25 0  35 25 2.5  35 22.5 2.5  32.5 22.5 2.5  35 22.5 0  32.5 22.5 0  35 25 5  35 22.5 5  32.5 22.5 5  32.5 25 2.5  32.5 25 0  32.5 25 5  37.5 25 2.5  37.5 25 0  37.5 22.5 0  37.5 25 5  30 27.5 2.5  30 27.5 0  27.5 27.5 2.5  27.5 27.5 0  30 30 0  30 30 2.5  30 30 5  30 27.5 5  27.5 27.5 5  32.5 27.5 2.5  32.5 27.5 0  35 27.5 2.5  35 27.5 0  35 30 0  35 30 2.5  35 30 5  35 27.5 5  32.5 27.5 5  32.5 30 2.5  32.5 30 0  32.5 30 5  37.5 27.5 2.5  37.5 27.5 0  40 27.5 2.5  40 27.5 0  40 30 0  40 30 2.5  40 30 5  40 27.5 5  37.5 27.5 5  37.5 30 2.5  37.5 30 0  37.5 30 5  42.5 27.5 2.5  42.5 27.5 0  45 27.5 2.5  45 27.5 0  45 30 0  45 30 2.5  45 30 5  45 27.5 5  42.5 27.5 5  42.5 30 2.5  42.5 30 0  42.5 30 5  47.5 27.5 2.5  47.5 27.5 0  50 27.5 2.5  50 27.5 0  50 30 0  50 30 2.5  50 30 5  50 27.5 5  47.5 27.5 5  47.5 30 2.5  47.5 30 0  47.5 30 5  30 32.5 2.5  30 32.5 0  27.5 32.5 2.5  30 35 0  30 35 2.5  30 35 5  30 32.5 5  27.5 35 2.5  32.5 32.5 2.5  32.5 32.5 0  35 32.5 2.5  35 32.5 0  35 35 0  35 35 2.5  35 35 5  35 32.5 5  32.5 32.5 5  32.5 35 2.5  32.5 35 0  32.5 35 5  37.5 32.5 2.5  37.5 32.5 0  40 32.5 2.5  40 32.5 0  40 35 0  40 35 2.5  40 35 5  40 32.5 5  37.5 32.5 5  37.5 35 2.5  37.5 35 0  37.5 35 5  42.5 32.5 2.5  42.5 32.5 0  45 32.5 2.5  45 32.5 5  45 35 5  42.5 32.5 5  42.5 35 5  47.5 32.5 2.5  47.5 32.5 0  50 32.5 2.5  50 32.5 0  50 32.5 5  47.5 32.5 5  27.5 37.5 2.5  30 25 7.5  27.5 25 7.5  35 25 7.5  32.5 25 7.5  37.5 25 7.5  27.5 27.5 7.5  30 27.5 7.5  30 30 7.5  30 30 10  30 27.5 10  32.5 27.5 7.5  35 27.5 7.5  35 30 7.5  35 30 10  35 27.5 10  32.5 27.5 10  32.5 30 7.5  32.5 30 10  37.5 27.5 7.5  40 27.5 7.5  40 30 7.5  40 30 10  40 27.5 10  37.5 27.5 10  37.5 30 7.5  37.5 30 10  42.5 27.5 7.5  45 27.5 7.5  45 30 7.5  45 30 10  45 27.5 10  42.5 27.5 10  42.5 30 7.5  42.5 30 10  47.5 27.5 7.5  50 27.5 7.5  50 30 7.5  50 30 10  50 27.5 10  47.5 27.5 10  47.5 30 7.5  47.5 30 10  30 32.5 7.5  27.5 32.5 7.5  30 35 7.5  30 35 10  30 32.5 10  27.5 35 7.5  32.5 32.5 7.5  35 32.5 7.5  35 35 7.5  35 35 10  35 32.5 10  32.5 32.5 10  32.5 35 7.5  32.5 35 10  37.5 32.5 7.5  40 32.5 7.5  40 35 7.5  40 35 10  40 32.5 10  37.5 32.5 10  37.5 35 7.5  37.5 35 10  42.5 32.5 7.5  45 32.5 7.5  45 35 7.5  45 35 10  45 32.5 10  42.5 32.5 10  42.5 35 7.5  42.5 35 10  47.5 32.5 7.5  50 32.5 7.5  50 32.5 10  47.5 32.5 10  30 37.5 7.5  27.5 37.5 7.5  30 37.5 10  30 40 10  32.5 37.5 7.5  35 37.5 7.5  35 37.5 10  35 40 10  32.5 37.5 10  32.5 40 10  37.5 37.5 7.5  37.5 37.5 10  27.5 25 10  27.5 27.5 10  27.5 32.5 10  27.5 35 10  27.5 37.5 10  27.5 25 12.5  30 27.5 12.5  27.5 27.5 12.5  30 30 12.5  30 30 15  30 27.5 15  27.5 27.5 15  27.5 30 12.5  27.5 30 15  32.5 27.5 12.5  32.5 30 12.5  35 30 12.5  35 30 15  32.5 27.5 15  32.5 30 15  30 32.5 12.5  27.5 32.5 12.5  30 35 12.5  30 35 15  30 32.5 15  27.5 32.5 15  27.5 35 12.5  32.5 32.5 12.5  35 32.5 12.5  35 35 12.5  35 35 15  35 32.5 15  32.5 32.5 15  32.5 35 12.5  32.5 35 15  30 37.5 12.5  27.5 37.5 12.5  30 40 12.5  30 40 15  30 37.5 15  32.5 37.5 12.5  35 37.5 12.5  35 37.5 15  32.5 37.5 15  30 27.5 17.5  27.5 27.5 17.5  30 30 17.5  30 30 20  30 27.5 20  27.5 30 17.5  32.5 27.5 17.5  32.5 30 17.5  35 30 17.5  35 30 20  32.5 27.5 20  32.5 30 20  30 32.5 17.5  27.5 32.5 17.5  30 35 17.5  30 35 20  30 32.5 20  32.5 32.5 17.5  35 32.5 17.5  35 35 17.5  35 35 20  35 32.5 20  32.5 32.5 20  32.5 35 17.5  32.5 35 20  32.5 37.5 17.5  35 37.5 17.5  35 37.5 20  32.5 37.5 20  30 37.5 20  37.5 37.5 17.5  37.5 37.5 20  32.5 30 22.5  35 30 22.5  30 30 22.5  30 32.5 22.5  27.5 32.5 22.5  30 35 22.5  32.5 32.5 22.5  35 32.5 22.5  35 35 22.5  32.5 35 22.5  32.5 37.5 22.5  35 37.5 22.5  37.5 37.5 22.5  35 27.5 12.5  35 27.5 15  37.5 27.5 12.5  40 27.5 12.5  40 30 12.5  40 30 15  40 27.5 15  37.5 27.5 15  37.5 30 12.5  37.5 30 15  42.5 27.5 12.5  45 27.5 12.5  45 30 12.5  45 30 15  45 27.5 15  42.5 27.5 15  42.5 30 12.5  42.5 30 15  47.5 27.5 12.5  50 27.5 12.5  50 30 12.5  50 30 15  50 27.5 15  47.5 27.5 15  47.5 30 12.5  47.5 30 15  37.5 32.5 12.5  40 32.5 12.5  40 35 12.5  40 35 15  40 32.5 15  37.5 32.5 15  37.5 35 12.5  37.5 35 15  42.5 32.5 12.5  45 32.5 12.5  45 32.5 15  45 35 15  42.5 32.5 15  42.5 35 15  47.5 32.5 12.5  50 32.5 12.5  50 32.5 15  50 35 15  47.5 32.5 15  47.5 35 15  37.5 37.5 12.5  37.5 37.5 15  35 27.5 17.5  35 27.5 20  37.5 27.5 17.5  40 27.5 17.5  40 30 17.5  40 30 20  40 27.5 20  37.5 27.5 20  37.5 30 17.5  37.5 30 20  42.5 27.5 17.5  45 27.5 17.5  45 30 17.5  45 30 20  42.5 25 17.5  45 25 17.5  45 25 20  45 27.5 20  42.5 27.5 20  42.5 25 20  42.5 30 17.5  42.5 30 20  47.5 27.5 17.5  50 27.5 17.5  50 30 17.5  50 30 20  47.5 25 17.5  50 25 17.5  50 25 20  50 27.5 20  47.5 27.5 20  47.5 25 20  47.5 30 17.5  47.5 30 20  37.5 32.5 17.5  40 32.5 17.5  40 35 17.5  40 35 20  40 32.5 20  37.5 32.5 20  37.5 35 17.5  37.5 35 20  42.5 32.5 17.5  45 32.5 17.5  45 35 17.5  45 35 20  45 32.5 20  42.5 32.5 20  42.5 35 17.5  42.5 35 20  47.5 32.5 17.5  50 32.5 17.5  50 35 17.5  50 35 20  50 32.5 20  47.5 32.5 20  47.5 35 17.5  47.5 35 20  42.5 37.5 17.5  42.5 37.5 20  47.5 37.5 17.5  50 37.5 17.5  50 37.5 20  47.5 37.5 20  40 27.5 22.5  40 30 22.5  37.5 30 22.5  42.5 27.5 22.5  45 27.5 22.5  45 30 22.5  42.5 30 22.5  47.5 27.5 22.5  50 27.5 22.5  50 30 22.5  47.5 30 22.5  37.5 32.5 22.5  40 32.5 22.5  40 35 22.5  37.5 35 22.5  42.5 32.5 22.5  45 32.5 22.5  45 35 22.5  42.5 35 22.5  47.5 32.5 22.5  50 32.5 22.5  50 35 22.5  47.5 35 22.5  42.5 37.5 22.5  45 37.5 22.5  47.5 37.5 22.5  50 37.5 22.5  </DataArray>
</Points>
<Cells>
[...]
<PointData  Scalars="c_HbO2"> 
<DataArray  type="Float64"  Name="c_HbO2"  format="ascii">1.4494967472852285e-26  -2.3543564254393664e-27  -9.1102722204080007e-28  -4.9994087382073028e-29  3.8093739638520764e-28  8.2828320766872404e-30  1.4775696724723653e-28  3.8093736098221828e-28  1.4775685304616635e-28  3.8093729411997136e-28  5.6312968746639516e-27  1.4494967858935504e-26  -9.1102735857843273e-28  -4.9994105665485057e-29  5.6312975237705231e-27  1.4494968136625516e-26  -4.9994172760792245e-29  -6.1777938001747171e-29  -2.3928278193418861e-29  -2.3543590899718853e-27  8.2827241356562005e-30  -6.1777911815743305e-29  1.4494967578009467e-26  5.6312964709175979e-27  3.2019917025109028e-28  -8.9819339051334441e-26  -3.4661453523125998e-26  3.8093742042634381e-28  1.4775695565165043e-28  8.2828388253289732e-30  -2.3543564593300617e-27  -9.1102708480909715e-28  -4.9994043440166456e-29  -1.3244775052006180e-30  -2.3928277067129164e-29  -6.1777939592771470e-29  1.0005024672064315e-29  5.6312971853345745e-27  3.2019922067705479e-28  -8.9819339040547743e-26  1.4494967370424727e-26  5.6312972705938333e-27  -3.4661453599918903e-26  -1.8559250083168882e-27  1.4775699675858095e-28  8.2828241974219037e-30  -2.3543563886938898e-27  3.8093741683634799e-28  1.4775700377688839e-28  -9.1102685860618442e-28  -9.1102721743780931e-28  -4.9994039304598842e-29  -2.3928275498077656e-29  -6.1777933037516032e-29  3.8785030056496126e-30  1.0005023446805619e-29  -1.3244797870113560e-30  -2.3928289751052419e-29  5.6312971647909984e-27  3.2019903800115532e-28  -8.9819337804129345e-26  -3.4661454930324158e-26  1.4775700057595341e-28  8.2829008098420007e-30  -2.3543563864822665e-27  -9.1102722435920923e-28  -2.3928278498870557e-29  -6.1777936792676577e-29  3.8785030419436436e-30  1.0005023248668925e-29  -1.3244771859720331e-30  1.0005025376679018e-29  3.8785031399061617e-30  2.1631335445024375e-31  -6.1777929981992622e-29  1.0005024698584698e-29  3.8785005595573310e-30  -2.3928277477185178e-29  2.6289635875882053e-31  1.0189247347780912e-31  5.6726663281656490e-33  -1.6216794740683615e-30  1.0189260557656484e-31  -6.2833498395958176e-31  2.6289634298124068e-31  1.0189241221775182e-31  -6.2833691325905686e-31  -6.2833617506023912e-31  -3.4885873348724507e-32  -3.4886144887295171e-32  1.3795862913854239e-32  2.9747345269110010e-34  5.3465336316269411e-33  -4.3691191441757687e-32  -1.6930629640338066e-32  1.3795836976825991e-32  5.3465573266290208e-33  1.3795840297979356e-32  5.3466126912485307e-33  -1.6930702023920129e-32  -1.6930684008269147e-32  -9.4104929974555498e-34  -9.4102989684234935e-34  3.8785028496407235e-30  2.1631044902746947e-31  3.8785030343167901e-30  1.0189250398420040e-31  5.6724458243740976e-33  -1.6216809995216197e-30  2.6289640415733752e-31  1.0189256143173360e-31  -6.2833649896319548e-31  -6.2833615925421602e-31  -3.4886073269642905e-32  5.3465593316439015e-33  2.9741837615066585e-34  -4.3691243019725411e-32  1.3795848678594673e-32  5.3465228727971880e-33  -1.6930696001651999e-32  -1.6930693174290804e-32  -9.4104389223226257e-34  2.1630914090327834e-31  1.0189248717187170e-31  5.6724138069911028e-33  -1.6216808286867129e-30  2.6289634605535097e-31  -6.2833624290336771e-31  -3.4885973229042224e-32  5.3465571390792542e-33  2.9744371306151914e-34  -4.3691251581094946e-32  1.3795831891897295e-32  -1.6930682387585469e-32  -9.4105842427675076e-34  1.4494967097729398e-26  3.2019957425635538e-28  5.6312975430681412e-27  -8.9819341009034462e-26  -3.4661453456959889e-26  1.4494967282100945e-26  5.6312972043835207e-27  1.4494967430559057e-26  5.6312970916004791e-27  -3.4661452356187065e-26  -3.4661454905166467e-26  -1.8559255845414116e-27  5.5057623464222756e-25  -1.8559248960666307e-27  3.8093740794490355e-28  1.4775699814095711e-28  8.2828359973833582e-30  -2.3543563822779029e-27  1.4775698179334669e-28  -9.1102704059058968e-28  3.8093740981053107e-28  1.4775701001589071e-28  -9.1102720908603082e-28  -9.1102723246844407e-28  -4.9994048786027702e-29  -4.9994046390075486e-29  -2.3928274577962686e-29  -1.3244787535652083e-30  -2.3928269079931282e-29  -1.3244768490692686e-30  3.2019908916195330e-28  5.6312971877661811e-27  -8.9819338889055541e-26  -3.4661454433352944e-26  1.4494967421605521e-26  5.6312971640595401e-27  1.4494967410212854e-26  5.6312971740721139e-27  -3.4661454019597621e-26  -2.3543564290533156e-27  -9.1102722853513228e-28  8.2828286241484980e-30  1.4775700020913493e-28  3.8093740985186072e-28  1.4775699992016523e-28  3.8093741139228660e-28  1.4775700087651572e-28  -9.1102722699918702e-28  -9.1102722211492405e-28  -4.9994042103554889e-29  -4.9994031724705620e-29  -6.1777936264730520e-29  -2.3928275302949073e-29  2.1631205935801943e-31  3.8785031462502028e-30  1.0005024004849230e-29  3.8785031082788960e-30  1.0005024048260380e-29  3.8785031337648184e-30  -2.3928275484134877e-29  -2.3928275529696698e-29  -1.3244775954383326e-30  -1.3244774595822642e-30  -1.6216806783089592e-30  -6.2833616658423610e-31  5.6724363757773418e-33  1.0189248418206357e-31  2.6289639015037702e-31  1.0189248564871566e-31  2.6289640235830160e-31  1.0189249203422697e-31  -6.2833615873380652e-31  -6.2833615776911737e-31  -3.4886082607590389e-32  -3.4886066138608475e-32  -4.3691251644574850e-32  -1.6930684922639683e-32  2.9745432856931000e-34  5.3465585062179709e-33  1.3795844215035554e-32  5.3465587348560391e-33  1.3795844256950967e-32  5.3465592114902680e-33  -1.6930685721924291e-32  -1.6930686967778280e-32  -9.4104587780513185e-34  -9.4104460561654786e-34  3.2019912404873032e-28  5.6312971675801263e-27  -8.9819338921996600e-26  1.4494967480205740e-26  5.6312971697064711e-27  1.4494967435034919e-26  5.6312972237376872e-27  -3.4661454442130535e-26  -2.3543564122785237e-27  -9.1102722199817010e-28  8.2828291046509192e-30  1.4775699966495690e-28  3.8093740940985432e-28  1.4775699812405088e-28  3.8093741111617322e-28  1.4775700087081607e-28  -9.1102721865219097e-28  -9.1102722890653010e-28  -4.9994037597808512e-29  -4.9994039471250190e-29  -6.1777936324504173e-29  -2.3928275500038420e-29  2.1631193836924296e-31  3.8785030560991830e-30  1.0005024209962652e-29  3.8785027093393854e-30  1.0005024198697420e-29  3.8785030758349823e-30  -2.3928275419442277e-29  -2.3928274794807200e-29  -1.3244771252978513e-30  -1.3244765751150076e-30  -1.6216806608873742e-30  -6.2833619708933902e-31  5.6724369699665181e-33  1.0189248132685036e-31  2.6289641930873822e-31  -6.2833615749331319e-31  -3.4886086167383212e-32  -4.3691254848198657e-32  -1.6930688815934116e-32  2.9745454987483662e-34  5.3465552053699371e-33  5.3465563612050747e-33  -1.6930688331660263e-32  -8.9819338804252841e-26  5.6312971173632387e-27  -3.4661454801956593e-26  1.4775700377472602e-28  -9.1102720231199890e-28  -2.3928274902992489e-29  -8.9819338592707882e-26  3.2019912329347116e-28  5.6312971911489093e-27  1.4494967473648358e-26  5.6312971369914473e-27  -2.3543564128632916e-27  8.2828291195055882e-30  1.4775700053528510e-28  3.8093741167290255e-28  1.4775700078099178e-28  -9.1102721936374208e-28  -9.1102721894336366e-28  -4.9994041864410991e-29  -6.1777936387534858e-29  2.1631200371923046e-31  3.8785030907773081e-30  1.0005024063588577e-29  3.8785031172880968e-30  -2.3928275378204367e-29  -2.3928275464092923e-29  -1.3244775314367469e-30  -1.6216807170985290e-30  5.6724322776716976e-33  1.0189248834435531e-31  2.6289640420357796e-31  1.0189248885739641e-31  -6.2833615728405755e-31  -6.2833615803739727e-31  -3.4886072150144599e-32  -4.3691255118800284e-32  2.9745403575524525e-34  5.3465587225100892e-33  1.3795845473269385e-32  5.3465589025995878e-33  -1.6930686076420923e-32  -1.6930686085095125e-32  -9.4104421230175740e-34  3.2019914599433988e-28  -8.9819338937816757e-26  5.6312971639709024e-27  1.4494967469965101e-26  5.6312971692656262e-27  -3.4661454200333895e-26  -2.3543564165680403e-27  8.2828289566372205e-30  1.4775700013818932e-28  3.8093741175053722e-28  1.4775700019310981e-28  -9.1102722101376928e-28  -9.1102721877919408e-28  -4.9994040564238228e-29  -6.1777936504782464e-29  2.1631199072717232e-31  3.8785030398964096e-30  1.0005023984502232e-29  3.8785030778605046e-30  -2.3928275546339208e-29  -2.3928275447861983e-29  -1.3244776608972437e-30  -1.6216807150684679e-30  5.6724329353269499e-33  1.0189248055313819e-31  2.6289641318126090e-31  1.0189248805012877e-31  -6.2833615852848862e-31  -6.2833607062993980e-31  -3.4886076550397738e-32  -4.3691254365816074e-32  2.9745503291963548e-34  5.3465614037441596e-33  -1.6930685466659929e-32  3.2019915908630700e-28  -8.9819339051228452e-26  5.6312971866167006e-27  1.4494967455008651e-26  -2.3543564277692685e-27  8.2828296056009181e-30  1.4775700035198592e-28  3.8093740805597096e-28  -9.1102722083450172e-28  -4.9994032095554752e-29  -6.1777935956072628e-29  -2.3928276094244189e-29  -1.8559256282412890e-27  -3.4661454489678001e-26  -3.4661454408018246e-26  -1.8559250489255391e-27  -3.4661454543211966e-26  -3.4661454548313066e-26  3.2019913152037140e-28  -8.9819338991731666e-26  5.6312971717193509e-27  1.4494967447986723e-26  5.6312971916111575e-27  -3.4661454454417430e-26  -3.4661454545156823e-26  -1.8559251312847851e-27  -2.3543564148795087e-27  -9.1102722158448904e-28  1.4775700020056158e-28  3.8093741091696634e-28  -9.1102722094092830e-28  -4.9994041644121778e-29  3.2019913957562280e-28  -8.9819338959807547e-26  5.6312971813622537e-27  1.4494967460153930e-26  5.6312971761239133e-27  -3.4661454480673818e-26  -3.4661454512063259e-26  -2.3543564164419060e-27  8.2828289327760686e-30  1.4775700028137774e-28  3.8093741144622040e-28  1.4775700013096792e-28  -9.1102722023056011e-28  -9.1102722076113879e-28  -4.9994039877600355e-29  3.2019913132281666e-28  -8.9819338946102913e-26  5.6312971776096308e-27  1.4494967459650149e-26  5.6312971804607463e-27  -2.3543564147544155e-27  8.2828293973258348e-30  1.4775700008194122e-28  -9.1102721969156754e-28  3.2019913220707397e-28  -8.9819338885639616e-26  5.6312971809077656e-27  1.4494967466661855e-26  5.6312971774299461e-27  -3.4661454555123724e-26  -2.3543564093824852e-27  -9.1102722076236799e-28  1.4775699986605884e-28  3.8093740967768250e-28  -9.1102722990117022e-28  -4.9994044723921522e-29  3.2019913273838141e-28  -8.9819338908877291e-26  5.6312971886843883e-27  1.4494967444881383e-26  5.6312971881202256e-27  -2.3543564142746909e-27  8.2828288765559070e-30  1.4775700042514239e-28  3.8093741324170807e-28  1.4775699981619714e-28  -9.1102722200349477e-28  -9.1102722043172164e-28  -4.9994040125365489e-29  -2.3543564085090274e-27  8.2828297121303374e-30  1.4775700490987300e-28  -9.1102720007075971e-28  5.6312971673561654e-27  -6.1777935477566410e-29  -2.3928275967531744e-29  -9.1102717377002228e-28  1.4775700077095250e-28  5.6312971196670153e-27  3.2019914280260299e-28  -8.9819338907386342e-26  5.6312971828941380e-27  -2.3543564171738425e-27  8.2828222602754097e-30  1.4775699270104975e-28  -9.1102721218634480e-28  -2.3543564145373763e-27  8.2828364375742986e-30  -6.1777938136597385e-29  8.2828289085775065e-30  1.4775700006083318e-28  -6.1777936680784576e-29  2.1631200367068029e-31  3.8785030713163153e-30  1.0005023981276547e-29  3.8785030461287749e-30  -2.3928275598699515e-29  -2.3928275533450690e-29  -1.3244776474436798e-30  -1.6216807188340592e-30  5.6724311506462685e-33  1.0189248672455752e-31  2.6289640035873215e-31  1.0189248541894581e-31  -6.2833615648663596e-31  -6.2833616459618288e-31  -3.4886078036363871e-32  -4.3691254873492576e-32  2.9745471050929324e-34  5.3465590756649956e-33  1.3795844932561637e-32  5.3465590811676320e-33  -1.6930686416630119e-32  -1.6930685490013329e-32  -9.4104448305616036e-34  -6.1777936517249694e-29  2.1631197988602343e-31  3.8785030394421324e-30  1.0005023948998196e-29  3.8785030738847798e-30  -2.3928275525027134e-29  -2.3928275554140755e-29  -1.3244776047402256e-30  -1.6216806956148436e-30  5.6724436063027563e-33  1.0189248876695785e-31  2.6289639267356309e-31  -6.2833616600707209e-31  -3.4886041919799666e-32  -4.3691254234161171e-32  2.9745201655073232e-34  5.3465599194911327e-33  1.3795847066432732e-32  -1.6930684242479367e-32  -9.4104089053740986e-34  -6.1777935770320528e-29  -2.3928275592172839e-29  8.2828283002040893e-30  1.4775699628518040e-28  -6.1777936417531613e-29  2.1631194810879400e-31  3.8785030612428718e-30  1.0005023906520284e-29  3.8785029487995946e-30  -2.3928275514383465e-29  -2.3928275572948837e-29  -1.3244775912228063e-30  -1.6216806893122686e-30  5.6724329558957308e-33  1.0189248448272066e-31  2.6289643106185882e-31  -6.2833606793846969e-31  1.0189251589671696e-31  2.6289635714595701e-31  1.0189248857339698e-31  -6.2833619691709193e-31  -3.4885992692637579e-32  -6.2833616743703552e-31  -3.4886100525830557e-32  -4.3691252970582511e-32  2.9745391222203041e-34  5.3465594828898470e-33  1.3795843921026554e-32  -1.6930688433307988e-32  5.3465555973351661e-33  1.3795842638007163e-32  5.3465577493679430e-33  -1.6930679890691235e-32  -9.4106048010913199e-34  -1.6930686341954691e-32  -9.4103868345088419e-34  -6.1777936467556545e-29  2.1631199294429703e-31  3.8785031190629821e-30  1.0005024539155847e-29  3.8785030225964397e-30  -2.3928275467597837e-29  -2.3928275658036451e-29  -1.3244775113287756e-30  -1.6216807152716660e-30  5.6724232002420266e-33  1.0189249497788285e-31  2.6289642185567144e-31  1.0189247660948481e-31  -6.2833619084669860e-31  -6.2833614497204868e-31  -3.4886089687722160e-32  -4.3691256879882408e-32  2.9745562558465035e-34  5.3465609226394177e-33  1.3795850356221660e-32  5.3465593476924446e-33  -1.6930684672684725e-32  -1.6930686983529772e-32  -9.4104395418548174e-34  -1.6216805174575049e-30  -6.2833619307593990e-31  -4.3691243717392889e-32  2.9745562537172555e-34  5.3465754580801592e-33  -1.6930681605438098e-32  2.1631242536413753e-31  3.8785033412635193e-30  -2.3928276892886626e-29  -1.6216803928475736e-30  5.6725029609463812e-33  1.0189253095015210e-31  -6.2833628137462845e-31  -4.3691260338753535e-32  2.9746115733516036e-34  5.3465644291637021e-33  -1.6930658691924766e-32  -6.1777937085050204e-29  2.1631157917936421e-31  3.8785050896994864e-30  -2.3928276495795288e-29  -1.6216808918912968e-30  5.6723552987774875e-33  1.0189244150228754e-31  -6.2833610557514317e-31  -4.3691268078183754e-32  2.9746098043699992e-34  5.3465462858338401e-33  -1.6930689751600948e-32  -1.6216806148251582e-30  5.6723320921459719e-33  -4.3691190576603727e-32  2.9746755380680066e-34  </DataArray> 
</PointData> 
</Piece>
</UnstructuredGrid>
</VTKFile>