<?xml version="1.0"?>
<VTKFile type="UnstructuredGrid"  version="0.1"  >
<UnstructuredGrid>
<Piece  NumberOfPoints="587" NumberOfCells="2406">
<Points>
<DataArray  type="Float64"  NumberOfComponents="3"  format="ascii">45 30 0  45 32.5 2.5  45 32.5 0  42.5 32.5 2.5  42.5 32.5 0  45 35 0  45 35 2.5  45 35 5  40 35 0  42.5 35 2.5  42.5 35 0  40 35 2.5  40 35 5  42.5 35 5  50 35 0  50 35 2.5  50 32.5 2.5  47.5 32.5 2.5  50 32.5 0  47.5 32.5 0  50 35 5  50 32.5 5  47.5 32.5 5  47.5 35 2.5  47.5 35 0  47.5 35 5  30 35 0  30 37.5 2.5  30 37.5 0  27.5 37.5 2.5  30 40 0  30 40 2.5  30 40 5  30 35 2.5  30 35 5  30 37.5 5  27.5 37.5 5  27.5 40 2.5  27.5 40 5  32.5 37.5 2.5  32.5 37.5 0  32.5 35 0  35 35 0  35 37.5 2.5  35 37.5 0  35 40 0  35 40 2.5  35 40 5  32.5 35 2.5  35 35 2.5  35 35 5  35 37.5 5  32.5 37.5 5  32.5 35 5  32.5 40 2.5  32.5 40 0  32.5 40 5  37.5 37.5 2.5  37.5 37.5 0  37.5 35 0  40 37.5 2.5  40 37.5 0  40 40 0  40 40 2.5  40 40 5  37.5 35 2.5  40 37.5 5  37.5 37.5 5  37.5 35 5  37.5 40 2.5  37.5 40 0  37.5 40 5  42.5 37.5 2.5  42.5 37.5 0  45 37.5 2.5  45 37.5 0  45 40 0  45 40 2.5  45 40 5  45 37.5 5  42.5 37.5 5  42.5 40 2.5  42.5 40 0  42.5 40 5  47.5 37.5 2.5  47.5 37.5 0  50 37.5 2.5  50 37.5 0  50 40 0  50 40 2.5  50 40 5  50 37.5 5  47.5 37.5 5  47.5 40 2.5  47.5 40 0  47.5 40 5  30 42.5 2.5  30 42.5 0  27.5 42.5 2.5  30 45 0  30 45 2.5  30 45 5  30 42.5 5  27.5 42.5 5  32.5 42.5 2.5  32.5 42.5 0  35 42.5 2.5  35 42.5 0  35 45 0  35 45 2.5  35 45 5  35 42.5 5  32.5 42.5 5  32.5 45 2.5  32.5 45 0  32.5 45 5  37.5 42.5 2.5  37.5 42.5 0  40 42.5 2.5  40 42.5 0  40 45 0  40 45 2.5  40 45 5  40 42.5 5  37.5 42.5 5  37.5 45 2.5  37.5 45 0  37.5 45 5  42.5 42.5 2.5  42.5 42.5 0  45 42.5 2.5  45 42.5 0  45 45 0  45 45 2.5  45 45 5  45 42.5 5  42.5 42.5 5  42.5 45 2.5  42.5 45 0  42.5 45 5  47.5 42.5 2.5  47.5 42.5 0  50 42.5 2.5  50 42.5 0  50 45 0  50 45 2.5  50 45 5  50 42.5 5  47.5 42.5 5  47.5 45 2.5  47.5 45 0  47.5 45 5  32.5 47.5 2.5  32.5 47.5 0  35 47.5 2.5  35 47.5 0  35 50 0  35 50 2.5  35 50 5  35 47.5 5  32.5 47.5 5  32.5 50 2.5  32.5 50 0  32.5 50 5  37.5 47.5 2.5  37.5 47.5 0  40 47.5 2.5  40 47.5 0  40 50 0  40 50 2.5  40 50 5  40 47.5 5  37.5 47.5 5  37.5 50 2.5  37.5 50 0  37.5 50 5  42.5 47.5 2.5  42.5 47.5 0  45 47.5 2.5  45 47.5 0  45 50 0  45 50 2.5  45 50 5  45 47.5 5  42.5 47.5 5  42.5 50 2.5  42.5 50 0  42.5 50 5  47.5 47.5 2.5  47.5 47.5 0  50 47.5 2.5  50 47.5 0  50 50 0  50 50 2.5  50 50 5  50 47.5 5  47.5 47.5 5  47.5 50 2.5  47.5 50 0  47.5 50 5  50 35 7.5  50 32.5 7.5  47.5 32.5 7.5  50 35 10  50 32.5 10  47.5 32.5 10  47.5 35 7.5  45 35 10  47.5 35 10  45 35 7.5  30 37.5 7.5  27.5 37.5 7.5  30 40 7.5  30 40 10  27.5 40 7.5  32.5 37.5 7.5  35 37.5 7.5  35 40 7.5  35 40 10  32.5 40 7.5  32.5 40 10  37.5 37.5 7.5  40 37.5 7.5  40 40 7.5  40 40 10  40 35 7.5  40 35 10  40 37.5 10  37.5 37.5 10  37.5 40 7.5  37.5 40 10  42.5 37.5 7.5  45 37.5 7.5  45 40 7.5  45 40 10  42.5 35 7.5  45 37.5 10  42.5 37.5 10  42.5 35 10  42.5 40 7.5  42.5 40 10  47.5 37.5 7.5  50 37.5 7.5  50 40 7.5  50 40 10  50 37.5 10  47.5 37.5 10  47.5 40 7.5  47.5 40 10  30 42.5 7.5  27.5 42.5 7.5  30 45 7.5  30 45 10  30 42.5 10  32.5 42.5 7.5  35 42.5 7.5  35 45 7.5  35 45 10  35 42.5 10  32.5 42.5 10  32.5 45 7.5  32.5 45 10  37.5 42.5 7.5  40 42.5 7.5  40 45 7.5  40 45 10  40 42.5 10  37.5 42.5 10  37.5 45 7.5  37.5 45 10  42.5 42.5 7.5  45 42.5 7.5  45 45 7.5  45 45 10  45 42.5 10  42.5 42.5 10  42.5 45 7.5  42.5 45 10  47.5 42.5 7.5  50 42.5 7.5  50 45 7.5  50 45 10  50 42.5 10  47.5 42.5 10  47.5 45 7.5  47.5 45 10  32.5 47.5 7.5  35 47.5 7.5  35 50 7.5  35 50 10  35 47.5 10  32.5 47.5 10  32.5 50 7.5  32.5 50 10  37.5 47.5 7.5  40 47.5 7.5  40 50 7.5  40 50 10  40 47.5 10  37.5 47.5 10  37.5 50 7.5  37.5 50 10  42.5 47.5 7.5  45 47.5 7.5  45 50 7.5  45 50 10  45 47.5 10  42.5 47.5 10  42.5 50 7.5  42.5 50 10  47.5 47.5 7.5  50 47.5 7.5  50 50 7.5  50 50 10  50 47.5 10  47.5 47.5 10  47.5 50 7.5  47.5 50 10  32.5 47.5 12.5  35 47.5 12.5  35 50 12.5  35 50 15  32.5 50 12.5  32.5 50 15  37.5 47.5 12.5  37.5 50 12.5  40 50 12.5  40 50 15  37.5 50 15  35 40 12.5  35 37.5 12.5  32.5 37.5 12.5  35 40 15  35 37.5 15  32.5 37.5 15  32.5 40 12.5  30 40 15  32.5 40 15  30 40 12.5  32.5 42.5 12.5  35 42.5 12.5  35 45 12.5  35 45 15  35 42.5 15  32.5 42.5 15  32.5 45 12.5  32.5 45 15  37.5 42.5 12.5  37.5 42.5 15  37.5 45 15  40 45 15  37.5 45 12.5  35 47.5 15  32.5 47.5 15  37.5 47.5 15  40 47.5 15  35 40 17.5  35 37.5 17.5  32.5 37.5 17.5  35 40 20  35 37.5 20  32.5 37.5 20  32.5 40 17.5  30 40 20  32.5 40 20  30 37.5 20  37.5 40 20  37.5 37.5 20  37.5 37.5 17.5  40 40 20  37.5 40 17.5  32.5 42.5 17.5  35 42.5 17.5  35 45 17.5  35 45 20  35 42.5 20  32.5 42.5 20  32.5 45 17.5  32.5 45 20  37.5 42.5 17.5  37.5 42.5 20  40 42.5 20  40 45 20  37.5 45 17.5  40 45 17.5  37.5 45 20  35 47.5 17.5  32.5 47.5 17.5  35 50 17.5  35 50 20  35 47.5 20  32.5 47.5 20  32.5 50 17.5  32.5 50 20  37.5 47.5 17.5  40 47.5 17.5  40 50 17.5  40 50 20  40 47.5 20  37.5 47.5 20  37.5 50 17.5  37.5 50 20  35 40 22.5  35 37.5 22.5  32.5 37.5 22.5  32.5 40 22.5  30 40 22.5  37.5 40 22.5  37.5 37.5 22.5  40 40 22.5  32.5 42.5 22.5  35 42.5 22.5  35 45 22.5  32.5 45 22.5  37.5 42.5 22.5  40 42.5 22.5  40 45 22.5  37.5 45 22.5  35 47.5 22.5  32.5 47.5 22.5  35 50 22.5  32.5 50 22.5  37.5 47.5 22.5  40 47.5 22.5  40 50 22.5  37.5 50 22.5  45 35 12.5  45 32.5 12.5  42.5 32.5 12.5  45 35 15  42.5 35 12.5  40 35 12.5  40 35 15  42.5 35 15  50 35 12.5  50 32.5 12.5  47.5 32.5 12.5  50 35 15  47.5 35 12.5  47.5 35 15  40 37.5 12.5  37.5 37.5 12.5  40 40 12.5  40 40 15  40 37.5 15  37.5 37.5 15  37.5 40 12.5  37.5 40 15  42.5 37.5 12.5  45 37.5 12.5  45 40 12.5  45 40 15  45 37.5 15  42.5 37.5 15  42.5 40 12.5  42.5 40 15  47.5 37.5 12.5  50 37.5 12.5  50 40 12.5  50 40 15  50 37.5 15  47.5 37.5 15  47.5 40 12.5  47.5 40 15  40 42.5 12.5  40 45 12.5  40 42.5 15  42.5 42.5 12.5  45 42.5 12.5  45 45 12.5  45 45 15  45 42.5 15  42.5 42.5 15  42.5 45 12.5  42.5 45 15  47.5 42.5 12.5  50 42.5 12.5  50 45 12.5  50 45 15  50 42.5 15  47.5 42.5 15  47.5 45 12.5  47.5 45 15  40 47.5 12.5  42.5 47.5 12.5  45 47.5 12.5  45 50 12.5  45 50 15  45 47.5 15  42.5 47.5 15  42.5 50 12.5  42.5 50 15  47.5 47.5 12.5  50 47.5 12.5  50 50 12.5  50 50 15  50 47.5 15  47.5 47.5 15  47.5 50 12.5  47.5 50 15  40 37.5 17.5  40 40 17.5  40 35 17.5  40 35 20  40 37.5 20  42.5 37.5 17.5  45 37.5 17.5  45 40 17.5  45 40 20  45 35 17.5  45 35 20  45 37.5 20  42.5 37.5 20  42.5 40 17.5  42.5 40 20  47.5 37.5 17.5  50 37.5 17.5  50 40 17.5  50 40 20  50 37.5 20  47.5 37.5 20  47.5 40 17.5  47.5 40 20  40 42.5 17.5  42.5 42.5 17.5  45 42.5 17.5  45 45 17.5  45 45 20  45 42.5 20  42.5 42.5 20  42.5 45 17.5  42.5 45 20  47.5 42.5 17.5  50 42.5 17.5  50 45 17.5  50 45 20  50 42.5 20  47.5 42.5 20  47.5 45 17.5  47.5 45 20  42.5 47.5 17.5  45 47.5 17.5  45 50 17.5  45 50 20  45 47.5 20  42.5 47.5 20  42.5 50 17.5  42.5 50 20  47.5 47.5 17.5  50 47.5 17.5  50 50 17.5  50 50 20  50 47.5 20  47.5 47.5 20  47.5 50 17.5  47.5 50 20  40 37.5 22.5  40 35 22.5  45 37.5 22.5  42.5 37.5 22.5  45 40 22.5  42.5 40 22.5  50 40 22.5  50 37.5 22.5  47.5 37.5 22.5  50 40 25  47.5 40 22.5  42.5 42.5 22.5  45 42.5 22.5  45 45 22.5  45 45 25  42.5 45 22.5  47.5 42.5 22.5  50 42.5 22.5  50 45 22.5  50 45 25  50 42.5 25  47.5 45 22.5  47.5 45 25  42.5 47.5 22.5  45 47.5 22.5  45 50 22.5  42.5 50 22.5  47.5 47.5 22.5  50 47.5 22.5  50 50 22.5  47.5 50 22.5  </DataArray>
</Points>
<Cells>
[...]
<PointData  Scalars="c_HbO2"> 
<DataArray  type="Float64"  Name="c_HbO2"  format="ascii">2.6289639015037702e-31  5.6724369699665181e-33  1.0189247397944317e-31  -1.6216806608873742e-30  -6.2833619708933902e-31  2.6289641001212094e-31  1.0189248578210577e-31  2.6289641930873822e-31  1.0005024209962652e-29  -6.2833616906895005e-31  -3.4886110707533515e-32  3.8785027093393854e-30  1.0005024198697420e-29  -3.4886086167383212e-32  1.3795845909616824e-32  5.3465586276912881e-33  2.9745454987483662e-34  -4.3691254848198657e-32  5.3465552053699371e-33  -1.6930688815934116e-32  1.3795844906102155e-32  5.3465563612050747e-33  -1.6930688331660263e-32  -1.6930685593199947e-32  -9.4104452556862779e-34  -9.4104815440301876e-34  1.4494967480205740e-26  3.2019911342981270e-28  5.6312972102528915e-27  -8.9819338804252841e-26  1.4494967471518908e-26  5.6312971711674525e-27  1.4494967456058529e-26  5.6312971697064711e-27  1.4494967435034919e-26  5.6312971796863707e-27  -3.4661454282341335e-26  -3.4661454764706532e-26  -1.8559250579881697e-27  -2.3543564119020039e-27  -9.1102722032904705e-28  -4.9994037597808512e-29  3.8093740940985432e-28  8.2828291358409686e-30  1.4775700041555323e-28  3.8093741174669977e-28  1.4775700044339773e-28  3.8093741172591195e-28  -9.1102722890653010e-28  1.4775699812405088e-28  3.8093741111617322e-28  1.4775700052591826e-28  -9.1102722021895996e-28  -4.9994039471250190e-29  -9.1102722151199586e-28  -4.9994039736273649e-29  -4.9994040443561801e-29  -6.1777936189658455e-29  -2.3928275431745372e-29  -1.3244771252978513e-30  2.1631199201513442e-31  3.8785031241606775e-30  1.0005024053270042e-29  3.8785031175370248e-30  1.0005024070964693e-29  -2.3928274794807200e-29  3.8785031260495865e-30  -2.3928275386871527e-29  -1.3244765751150076e-30  -2.3928275482513639e-29  -1.3244775119114568e-30  -1.3244775030593227e-30  -1.6216806850953920e-30  -6.2833615089324288e-31  5.6724330201055713e-33  1.0189249038758617e-31  2.6289640504506321e-31  1.0189248994412277e-31  2.6289640626150405e-31  1.0189248851901488e-31  -6.2833615126605842e-31  -6.2833615247863430e-31  -3.4886064498333643e-32  -3.4886063909261761e-32  -4.3691254321312728e-32  -1.6930685528446936e-32  2.9745429217800203e-34  5.3465590592704776e-33  1.3795845090960986e-32  5.3465588851664160e-33  1.3795845037564253e-32  5.3465587166463127e-33  -1.6930686024555060e-32  -1.6930685680851771e-32  -9.4104439243042269e-34  -9.4104458630609618e-34  3.2019913291198454e-28  5.6312971800354073e-27  -8.9819338965549734e-26  1.4494967467127952e-26  5.6312971812121780e-27  1.4494967470426982e-26  5.6312971829365409e-27  -3.4661454591597902e-26  -2.3543564156894196e-27  -9.1102722063049437e-28  8.2828291550143498e-30  1.4775700046380496e-28  3.8093741171291270e-28  1.4775700040490184e-28  3.8093741173994834e-28  1.4775700035851047e-28  -9.1102722088121227e-28  -9.1102722044592852e-28  -4.9994040054049207e-29  -4.9994039989666661e-29  -6.1777936429487503e-29  -2.3928275455436231e-29  2.1631201362792961e-31  3.8785031006638548e-30  1.0005024047275607e-29  3.8785031024881016e-30  1.0005024053948259e-29  3.8785031026073689e-30  -2.3928275495651246e-29  -2.3928275475668506e-29  -1.3244775302625837e-30  -1.3244775350289910e-30  -1.6216806999629729e-30  -6.2833615358060280e-31  5.6724318610280487e-33  1.0189248918863072e-31  2.6289640454918178e-31  1.0189248950283201e-31  2.6289640536857389e-31  1.0189248941236387e-31  -6.2833615619082510e-31  -6.2833615458174674e-31  -3.4886067316099403e-32  -3.4886066905196709e-32  -4.3691255362188196e-32  -1.6930686329788941e-32  2.9745377845596209e-34  5.3465587299335342e-33  1.3795845052957933e-32  5.3465586212929149e-33  1.3795844993265673e-32  5.3465585991389547e-33  -1.6930686021733195e-32  -1.6930685955610519e-32  -9.4104483221476065e-34  -9.4104446809234493e-34  -2.3543564147284817e-27  -9.1102721997901982e-28  8.2828291098460525e-30  1.4775700045741762e-28  3.8093741174900355e-28  1.4775700031492222e-28  3.8093741179835191e-28  1.4775700033617987e-28  -9.1102722111023063e-28  -9.1102722063349248e-28  -4.9994041112793714e-29  -4.9994041143611962e-29  -6.1777936420940221e-29  -2.3928275460629003e-29  2.1631201196328508e-31  3.8785031023348962e-30  1.0005024043388534e-29  3.8785030982006103e-30  1.0005024050306143e-29  3.8785030984192605e-30  -2.3928275498355113e-29  -2.3928275484035592e-29  -1.3244775369891181e-30  -1.3244775592784125e-30  -1.6216807007985146e-30  -6.2833615252566214e-31  5.6724321627027980e-33  1.0189248968278792e-31  2.6289640396701387e-31  1.0189248917633610e-31  2.6289640513701659e-31  1.0189248961218128e-31  -6.2833615642697139e-31  -6.2833615640678612e-31  -3.4886067788686648e-32  -3.4886069496335160e-32  -4.3691255645441489e-32  -1.6930686470890705e-32  2.9745339909660865e-34  5.3465581625847705e-33  1.3795845315508476e-32  5.3465584159105593e-33  1.3795845020700059e-32  5.3465587392047246e-33  -1.6930685695593740e-32  -1.6930686093210641e-32  -9.4104492960069961e-34  -9.4104426096005680e-34  5.3465586762801574e-33  2.9745503291963548e-34  -4.3691254365816074e-32  1.3795846051422563e-32  5.3465614037441596e-33  -1.6930685466659929e-32  -1.6930685291845113e-32  2.6289641318126090e-31  -9.4104413087593466e-34  1.0189248055313819e-31  3.2019915908630700e-28  -8.9819339051228452e-26  5.6312971999571782e-27  1.4494967455008651e-26  -3.4661454553548510e-26  -2.3543564277692685e-27  8.2828296056009181e-30  1.4775700108557326e-28  3.8093740805597096e-28  -9.1102721931647819e-28  -4.9994032095554752e-29  -6.1777935956072628e-29  2.1631199206231360e-31  3.8785031041117833e-30  1.0005023921828183e-29  3.8785030398964096e-30  1.0005023984502232e-29  3.8785030418451890e-30  -2.3928276094244189e-29  -2.3928275505928879e-29  -1.3244776428860618e-30  -1.6216806930490472e-30  5.6724354828980117e-33  1.0189248888226998e-31  2.6289640277574048e-31  -6.2833607062993980e-31  1.0189249110648290e-31  -6.2833614385800957e-31  -3.4886076550397738e-32  -6.2833615496205380e-31  -3.4886067877082126e-32  -4.3691255200222786e-32  2.9745403912219538e-34  5.3465587852265451e-33  1.3795845027205655e-32  5.3465590693140134e-33  -1.6930685240639543e-32  -1.6930685907501241e-32  -9.4104397709277219e-34  3.2019913875353377e-28  -8.9819338923716220e-26  5.6312971864076608e-27  1.4494967458423069e-26  5.6312971887872096e-27  -2.3543564163570357e-27  8.2828290090424508e-30  1.4775700026460480e-28  3.8093741133416459e-28  1.4775700104542478e-28  -9.1102722051387638e-28  -9.1102722170049252e-28  -4.9994040955963972e-29  -6.1777936472993930e-29  2.1631199900579825e-31  3.8785030913154908e-30  1.0005024032121809e-29  3.8785030762072400e-30  -2.3928275535811634e-29  -2.3928275515356998e-29  -1.3244775779688370e-30  -1.6216807053729946e-30  5.6724310954041997e-33  1.0189248883236013e-31  2.6289640472025852e-31  1.0189248865135811e-31  -6.2833616031857542e-31  -6.2833615882976657e-31  -3.4886071757796366e-32  -4.3691255509096960e-32  2.9745380810103630e-34  5.3465588595525761e-33  1.3795845109187735e-32  5.3465590286071099e-33  -1.6930685437424874e-32  -1.6930685711526996e-32  -9.4104384247851537e-34  -2.3543564154707001e-27  8.2828288579596282e-30  1.4775700029124301e-28  3.8093741173651890e-28  1.4775700037422945e-28  -9.1102722149414730e-28  -9.1102722092107838e-28  -4.9994039512842735e-29  -6.1777936488809074e-29  2.1631199935766631e-31  3.8785030900145729e-30  1.0005024045801658e-29  3.8785030893568454e-30  -2.3928275519311672e-29  -2.3928275519266312e-29  -1.3244775606901570e-30  -1.6216807066961535e-30  5.6724317822714397e-33  1.0189248869607805e-31  2.6289640526480809e-31  1.0189248943601468e-31  -6.2833615968263211e-31  -6.2833615952108806e-31  -3.4886071738791081e-32  -4.3691255258302989e-32  2.9745417724054864e-34  5.3465589377651625e-33  1.3795845092734061e-32  5.3465592035448380e-33  -1.6930685072773101e-32  -1.6930685605224429e-32  -9.4104387048230131e-34  -2.3543564149972806e-27  8.2828292030622256e-30  1.4775700025797020e-28  3.8093741250306436e-28  -9.1102721978192345e-28  -4.9994039931733216e-29  -6.1777936496265888e-29  -2.3928275507623341e-29  3.8785030883762441e-30  1.0005024051451473e-29  -1.3244775606391059e-30  1.4775700072936871e-28  8.2828293973258348e-30  -2.3543564147544155e-27  3.8093741109790921e-28  1.4775700008194122e-28  -9.1102721969156754e-28  -9.1102722158836873e-28  1.4494967459650149e-26  -4.9994041993561154e-29  5.6312971776096308e-27  -2.3543564158698448e-27  8.2828290848225249e-30  1.4775700046812488e-28  3.8093741108450441e-28  1.4775700015889732e-28  -9.1102722057182494e-28  -9.1102721797495692e-28  -4.9994042246746628e-29  -6.1777936419625366e-29  -2.3928275455844726e-29  -1.3244775595209477e-30  1.0005024017915884e-29  -2.3928275513577208e-29  1.4775700022618548e-28  -9.1102722090650506e-28  -2.3928275526041708e-29  3.8785030848665870e-30  1.4775700014752770e-28  8.2828297121303374e-30  -2.3543564085090274e-27  3.8093741257648231e-28  1.4775700490987300e-28  -9.1102720007075971e-28  -9.1102722178848348e-28  1.4494967469684446e-26  -4.9994041493853055e-29  5.6312971673561654e-27  -1.3244772238405241e-30  -2.3928275967531744e-29  -6.1777935477566410e-29  1.0005024093888603e-29  -2.3928275636927859e-29  -2.3543564106281186e-27  8.2828293386918371e-30  1.4775699991382004e-28  3.8093741180697700e-28  1.4775699912672159e-28  -9.1102722206270283e-28  -9.1102721832214873e-28  -4.9994058221519638e-29  -6.1777936096492891e-29  -2.3928275722706843e-29  3.8785032792869286e-30  1.0005023938656766e-29  -2.3928275425769380e-29  3.8785030794723579e-30  -1.3244782995381691e-30  8.2828306435279027e-30  -2.3543564178256266e-27  1.4775700064793331e-28  3.8093741992446946e-28  1.4775700103211633e-28  -9.1102721256034522e-28  -9.1102722098394731e-28  -4.9994051708527165e-29  -6.1777936383537547e-29  2.1631200606232726e-31  3.8785031015453724e-30  1.0005024195416044e-29  3.8785031046177389e-30  -2.3928275117324043e-29  -2.3928275375898096e-29  -1.3244779884842441e-30  1.4775700371044319e-28  8.2828364375742986e-30  -2.3543564145373763e-27  -9.1102721257074882e-28  5.6312972150962691e-27  -2.3928276097273328e-29  -6.1777938136597385e-29  3.8785036826924033e-30  -2.3543563822990663e-27  8.2828333318141389e-30  1.4775699744262289e-28  -9.1102718647820174e-28  -6.1777934574999788e-29  2.1631268878321510e-31  3.8785028100747229e-30  -2.3928271869522062e-29  8.2828314310277906e-30  -2.3543563905028238e-27  1.4775699248641744e-28  -9.1102721947080057e-28  -6.1777933258525698e-29  2.1631217592407453e-31  3.8785031239675498e-30  -2.3928271829862981e-29  1.0189249055770777e-31  5.6724436063027563e-33  -1.6216806956148436e-30  2.6289639267356309e-31  -6.2833615229034988e-31  3.8785030394421324e-30  1.0005023948998196e-29  -3.4886041919799666e-32  5.3465590085907992e-33  2.9745201655073232e-34  -4.3691254234161171e-32  1.3795847066432732e-32  -1.6930685231050830e-32  -9.4104089053740986e-34  2.1631197877905663e-31  -6.1777935770320528e-29  3.8785031030787243e-30  1.0005024041300340e-29  3.8785030662681509e-30  -2.3928275592172839e-29  -2.3928275547253835e-29  -1.3244775314054903e-30  -1.6216806558359823e-30  5.6724349938277556e-33  1.0189249057349368e-31  2.6289640516899860e-31  1.0189249154250911e-31  -6.2833614102656324e-31  -6.2833615450389270e-31  -3.4886057447546228e-32  -4.3691253842089301e-32  2.9745496660994903e-34  5.3465594043858357e-33  1.3795845465556141e-32  5.3465604856596781e-33  -1.6930683796879135e-32  -1.6930684811525900e-32  -9.4104217630756229e-34  2.1631199138651894e-31  3.8785030856242621e-30  3.8785030859667520e-30  -1.6216807043906742e-30  5.6724321307868228e-33  1.0189248904125636e-31  2.6289640363999245e-31  1.0189248963173574e-31  -6.2833615778215400e-31  -6.2833616027222441e-31  -3.4886073207437296e-32  -4.3691255026176262e-32  2.9745492351811769e-34  5.3465593940188928e-33  1.3795845081965977e-32  5.3465595559828236e-33  -1.6930684595145199e-32  -1.6930684892761413e-32  -9.4104358070485602e-34  2.1631199496520216e-31  -1.6216807072421824e-30  5.6724320261627115e-33  1.0189248918608244e-31  2.6289640492992324e-31  1.0189248859981607e-31  -6.2833616226016054e-31  -6.2833616026702489e-31  -3.4886073670397867e-32  -4.3691255082248147e-32  2.9745492370129846e-34  5.3465593941363542e-33  1.3795845039654309e-32  5.3465594668705957e-33  -1.6930684892923980e-32  -1.6930684857991285e-32  -9.4104386236009658e-34  2.1631189128679647e-31  3.8785030887803288e-30  3.8785031190629821e-30  1.0005024539155847e-29  3.8785029486264880e-30  -1.6216805174575049e-30  5.6724115225809962e-33  1.0189249250915630e-31  2.6289640912726367e-31  1.0189249497788285e-31  2.6289642185567144e-31  1.0189245412415813e-31  -6.2833619307593990e-31  -6.2833615863129997e-31  -3.4886096466896518e-32  -4.3691243717392889e-32  2.9745562537172555e-34  5.3465605493690682e-33  1.3795845586064924e-32  5.3465754580801592e-33  -1.6930681605438098e-32  -1.6930683917717779e-32  -9.4103809670299740e-34  2.1631200236760868e-31  -1.6216806904308380e-30  5.6724317646684714e-33  1.0189248659609202e-31  2.6289639380758691e-31  1.0189248140015305e-31  -6.2833617761461170e-31  -6.2833616233401571e-31  -3.4886109424710878e-32  -4.3691253990022497e-32  2.9745540701977312e-34  5.3465592922785593e-33  1.3795844215785569e-32  5.3465594526638829e-33  -1.6930684452118010e-32  -1.6930685169782451e-32  -9.4104522164481769e-34  -1.6216807033048045e-30  5.6724296251745290e-33  1.0189248760654071e-31  2.6289640210035355e-31  1.0189248701543814e-31  -6.2833618258751359e-31  -6.2833616345390778e-31  -3.4886087649538486e-32  -4.3691255420710235e-32  2.9745471855450169e-34  5.3465594121144511e-33  1.3795840805129928e-32  5.3465595028953894e-33  -1.6930682567934435e-32  -1.6930685327874727e-32  -9.4104334981455567e-34  2.1631059912123597e-31  3.8785050896994864e-30  5.6723320921459719e-33  -1.6216806148251582e-30  1.0189242172773282e-31  -6.2833614729258379e-31  5.3465646109729764e-33  2.9746755380680066e-34  -4.3691190576603727e-32  1.3795860990253761e-32  -1.6930668168977418e-32  -1.6216805156112914e-30  5.6725167732605055e-33  1.0189249988580934e-31  2.6289638651409833e-31  -6.2833634613013180e-31  -4.3691243881370240e-32  2.9745644461248437e-34  5.3465604673337718e-33  1.3795837439858233e-32  5.3465598947064551e-33  -1.6930683488249783e-32  -9.4104569896125199e-34  -1.6216805772820693e-30  5.6724328410712279e-33  1.0189245387515285e-31  -6.2833599496262603e-31  -4.3691261544638679e-32  2.9745151604882558e-34  5.3465857929513726e-33  -1.6930658034225307e-32  </DataArray> 
</PointData> 
</Piece>
</UnstructuredGrid>
</VTKFile>