<?xml version="1.0"?>
<VTKFile type="UnstructuredGrid"  version="0.1"  >
<UnstructuredGrid>
<Piece  NumberOfPoints="582" NumberOfCells="2411">
<Points>
<DataArray  type="Float64"  NumberOfComponents="3"  format="ascii">5 35 10  5 32.5 10  2.5 32.5 10  2.5 32.5 7.5  0 35 10  2.5 35 10  0 32.5 10  0 32.5 7.5  5 35 12.5  5 32.5 12.5  2.5 32.5 12.5  5 35 15  5 30 15  5 32.5 15  2.5 32.5 15  2.5 35 12.5  0 35 15  2.5 35 15  0 32.5 15  0 32.5 12.5  0 35 12.5  7.5 35 12.5  7.5 35 10  7.5 32.5 12.5  7.5 32.5 10  10 35 10  10 35 12.5  10 35 15  7.5 32.5 15  7.5 35 15  2.5 37.5 12.5  2.5 37.5 10  5 37.5 12.5  5 37.5 10  5 40 10  5 40 12.5  5 40 15  5 37.5 15  2.5 37.5 15  0 37.5 10  0 40 10  2.5 40 12.5  2.5 40 10  0 37.5 12.5  0 37.5 15  0 40 15  2.5 40 15  0 40 12.5  7.5 37.5 12.5  10 37.5 12.5  10 37.5 15  10 40 15  7.5 37.5 15  7.5 40 15  7.5 40 12.5  12.5 37.5 12.5  12.5 35 12.5  12.5 35 10  15 35 10  15 37.5 12.5  15 35 12.5  15 35 15  15 37.5 15  15 40 15  12.5 37.5 15  12.5 35 15  12.5 40 15  17.5 37.5 12.5  17.5 37.5 15  2.5 42.5 12.5  5 42.5 12.5  5 42.5 15  5 45 15  2.5 42.5 15  0 42.5 12.5  0 42.5 15  0 45 15  2.5 45 15  7.5 42.5 12.5  7.5 42.5 15  10 42.5 15  10 45 15  7.5 45 15  5 32.5 17.5  2.5 32.5 17.5  5 35 17.5  5 35 20  5 30 20  5 32.5 20  2.5 32.5 20  2.5 35 17.5  0 30 20  0 32.5 20  0 32.5 17.5  0 35 20  2.5 35 20  0 35 17.5  10 35 17.5  10 32.5 17.5  7.5 32.5 17.5  10 35 20  10 32.5 20  7.5 32.5 20  7.5 35 17.5  7.5 35 20  12.5 35 17.5  12.5 32.5 17.5  15 35 17.5  15 35 20  12.5 35 20  12.5 32.5 20  2.5 37.5 17.5  5 37.5 17.5  5 40 17.5  5 40 20  5 37.5 20  2.5 37.5 20  2.5 40 17.5  0 37.5 17.5  0 37.5 20  0 40 20  2.5 40 20  0 40 17.5  7.5 37.5 17.5  10 37.5 17.5  10 40 17.5  10 40 20  10 37.5 20  7.5 37.5 20  7.5 40 17.5  7.5 40 20  12.5 37.5 17.5  15 37.5 17.5  15 40 17.5  15 40 20  15 37.5 20  12.5 37.5 20  12.5 40 17.5  12.5 40 20  17.5 37.5 17.5  2.5 42.5 17.5  5 42.5 17.5  5 45 17.5  5 45 20  5 42.5 20  2.5 42.5 20  2.5 45 17.5  0 42.5 17.5  0 42.5 20  0 45 20  2.5 45 20  0 45 17.5  7.5 42.5 17.5  10 42.5 17.5  10 45 17.5  10 45 20  10 42.5 20  7.5 42.5 20  7.5 45 17.5  7.5 45 20  12.5 42.5 17.5  12.5 42.5 15  15 42.5 15  15 45 15  12.5 42.5 20  12.5 45 17.5  12.5 45 15  12.5 45 20  2.5 47.5 17.5  2.5 47.5 15  5 47.5 17.5  5 47.5 15  5 50 15  5 50 17.5  5 50 20  5 47.5 20  0 47.5 15  0 50 15  2.5 50 17.5  2.5 50 15  0 47.5 17.5  0 47.5 20  0 50 20  0 50 17.5  2.5 50 20  7.5 47.5 17.5  7.5 47.5 15  10 47.5 17.5  10 47.5 15  10 50 15  10 50 17.5  10 50 20  10 47.5 20  7.5 47.5 20  7.5 50 17.5  7.5 50 15  7.5 50 20  12.5 47.5 17.5  12.5 47.5 15  12.5 47.5 20  12.5 50 17.5  12.5 50 15  12.5 50 20  5 32.5 22.5  2.5 32.5 22.5  5 35 22.5  5 35 25  2.5 35 22.5  0 32.5 22.5  0 30 22.5  0 35 22.5  10 35 22.5  10 32.5 22.5  7.5 32.5 22.5  7.5 35 22.5  12.5 35 22.5  12.5 32.5 22.5  2.5 37.5 22.5  5 37.5 22.5  5 40 22.5  2.5 40 22.5  0 37.5 22.5  0 40 22.5  7.5 37.5 22.5  10 37.5 22.5  10 40 22.5  7.5 40 22.5  12.5 37.5 22.5  12.5 40 22.5  2.5 42.5 22.5  5 42.5 22.5  0 42.5 22.5  7.5 42.5 22.5  10 42.5 22.5  10 45 22.5  7.5 45 22.5  12.5 42.5 22.5  12.5 45 22.5  7.5 47.5 22.5  10 47.5 22.5  10 50 22.5  7.5 50 22.5  12.5 47.5 22.5  12.5 50 22.5  5 30 0  5 32.5 2.5  5 32.5 0  2.5 32.5 2.5  2.5 32.5 0  5 35 0  5 35 2.5  5 35 5  5 32.5 5  2.5 32.5 5  0 35 0  2.5 35 2.5  2.5 35 0  0 32.5 0  0 35 5  2.5 35 5  0 32.5 5  0 32.5 2.5  0 35 2.5  7.5 32.5 2.5  7.5 32.5 0  7.5 35 2.5  7.5 35 0  10 35 0  10 35 2.5  10 35 5  7.5 35 5  7.5 32.5 5  2.5 37.5 2.5  2.5 37.5 0  5 37.5 2.5  5 37.5 0  5 40 0  5 40 2.5  5 40 5  5 37.5 5  2.5 37.5 5  0 37.5 0  0 40 0  2.5 40 2.5  2.5 40 0  0 37.5 2.5  0 37.5 5  0 40 5  2.5 40 5  0 40 2.5  7.5 37.5 2.5  7.5 37.5 0  10 37.5 2.5  10 37.5 0  10 40 0  10 40 2.5  10 40 5  10 37.5 5  7.5 37.5 5  7.5 40 2.5  7.5 40 0  7.5 40 5  15 40 0  15 40 2.5  15 37.5 2.5  12.5 37.5 2.5  15 40 5  15 37.5 5  12.5 37.5 5  12.5 37.5 0  12.5 40 2.5  12.5 40 0  12.5 40 5  17.5 40 2.5  17.5 40 0  17.5 37.5 2.5  20 40 0  20 40 2.5  20 40 5  17.5 40 5  17.5 37.5 5  2.5 42.5 2.5  2.5 42.5 0  5 42.5 2.5  5 42.5 0  5 45 0  5 45 2.5  5 45 5  5 42.5 5  2.5 42.5 5  0 42.5 0  0 45 0  2.5 45 2.5  2.5 45 0  0 42.5 2.5  0 42.5 5  0 45 5  2.5 45 5  0 45 2.5  7.5 42.5 2.5  7.5 42.5 0  10 42.5 2.5  10 42.5 0  10 45 0  10 45 2.5  10 45 5  10 42.5 5  7.5 42.5 5  7.5 45 2.5  7.5 45 0  7.5 45 5  12.5 42.5 2.5  12.5 42.5 0  15 42.5 2.5  15 42.5 0  15 45 0  15 45 2.5  15 45 5  15 42.5 5  12.5 42.5 5  12.5 45 2.5  12.5 45 0  12.5 45 5  17.5 42.5 2.5  17.5 42.5 0  20 42.5 2.5  20 42.5 0  20 45 0  20 45 2.5  20 45 5  20 42.5 5  17.5 42.5 5  17.5 45 2.5  17.5 45 0  17.5 45 5  22.5 42.5 2.5  22.5 42.5 0  22.5 45 2.5  22.5 45 0  25 45 0  22.5 42.5 5  22.5 45 5  2.5 47.5 2.5  2.5 47.5 0  5 47.5 2.5  5 47.5 0  5 50 0  5 50 2.5  5 50 5  5 47.5 5  2.5 47.5 5  0 47.5 0  0 50 0  2.5 50 2.5  2.5 50 0  0 47.5 2.5  0 47.5 5  0 50 5  2.5 50 5  0 50 2.5  7.5 47.5 2.5  7.5 47.5 0  10 47.5 2.5  10 47.5 0  10 50 0  10 50 2.5  10 50 5  10 47.5 5  7.5 47.5 5  7.5 50 2.5  7.5 50 0  7.5 50 5  12.5 47.5 2.5  12.5 47.5 0  15 47.5 2.5  15 47.5 0  15 50 0  15 50 2.5  15 50 5  15 47.5 5  12.5 47.5 5  12.5 50 2.5  12.5 50 0  12.5 50 5  17.5 47.5 2.5  17.5 47.5 0  20 47.5 2.5  20 47.5 0  20 50 0  20 50 2.5  20 50 5  20 47.5 5  17.5 47.5 5  17.5 50 2.5  17.5 50 0  17.5 50 5  22.5 47.5 2.5  22.5 47.5 0  22.5 47.5 5  22.5 50 5  22.5 50 2.5  5 35 7.5  5 32.5 7.5  2.5 35 7.5  0 35 7.5  7.5 35 7.5  7.5 32.5 7.5  10 35 7.5  2.5 37.5 7.5  5 37.5 7.5  5 40 7.5  2.5 40 7.5  0 37.5 7.5  0 40 7.5  7.5 37.5 7.5  10 37.5 7.5  10 40 7.5  10 40 10  10 37.5 10  7.5 37.5 10  7.5 40 7.5  7.5 40 10  15 40 7.5  15 37.5 7.5  12.5 37.5 7.5  15 40 10  15 37.5 10  12.5 37.5 10  12.5 40 7.5  12.5 40 10  17.5 40 7.5  17.5 37.5 7.5  20 40 7.5  20 40 10  17.5 37.5 10  17.5 40 10  2.5 42.5 7.5  5 42.5 7.5  5 45 7.5  5 45 10  5 42.5 10  2.5 42.5 10  2.5 45 7.5  0 42.5 7.5  0 42.5 10  0 45 10  2.5 45 10  0 45 7.5  7.5 42.5 7.5  10 42.5 7.5  10 45 7.5  10 45 10  10 42.5 10  7.5 42.5 10  7.5 45 7.5  7.5 45 10  12.5 42.5 7.5  15 42.5 7.5  15 45 7.5  15 45 10  15 42.5 10  12.5 42.5 10  12.5 45 7.5  12.5 45 10  17.5 42.5 7.5  20 42.5 7.5  20 45 7.5  20 45 10  20 42.5 10  17.5 42.5 10  17.5 45 7.5  17.5 45 10  22.5 42.5 7.5  22.5 45 7.5  2.5 47.5 7.5  5 47.5 7.5  5 50 7.5  5 50 10  5 47.5 10  2.5 47.5 10  2.5 50 7.5  0 47.5 7.5  0 47.5 10  0 50 10  2.5 50 10  0 50 7.5  7.5 47.5 7.5  10 47.5 7.5  10 50 7.5  10 50 10  10 47.5 10  7.5 47.5 10  7.5 50 7.5  7.5 50 10  12.5 47.5 7.5  15 47.5 7.5  15 50 7.5  15 50 10  15 47.5 10  12.5 47.5 10  12.5 50 7.5  12.5 50 10  17.5 47.5 7.5  20 47.5 7.5  20 50 7.5  20 50 10  20 47.5 10  17.5 47.5 10  17.5 50 7.5  17.5 50 10  22.5 47.5 7.5  22.5 50 7.5  10 40 12.5  15 40 12.5  12.5 40 12.5  17.5 40 12.5  5 45 12.5  2.5 45 12.5  0 45 12.5  10 42.5 12.5  10 45 12.5  7.5 45 12.5  12.5 42.5 12.5  15 42.5 12.5  15 45 12.5  12.5 45 12.5  17.5 42.5 12.5  17.5 45 12.5  2.5 47.5 12.5  5 47.5 12.5  5 50 12.5  2.5 50 12.5  0 47.5 12.5  0 50 12.5  7.5 47.5 12.5  10 47.5 12.5  10 50 12.5  7.5 50 12.5  12.5 47.5 12.5  15 47.5 12.5  12.5 50 12.5  17.5 47.5 12.5  </DataArray>
</Points>
<Cells>
[...]
<PointData  Scalars="c_HbO2"> 
<DataArray  type="Float64"  Name="c_HbO2"  format="ascii">8.9218977459800687e-19  5.0563401072892922e-19  -1.6601103928552902e-18  -1.1025228482137839e-17  2.0000000000000001e-17  5.9869882410887394e-19  2.0000000000000001e-17  2.0000000000000001e-17  5.0563401073005608e-19  1.5404049292594802e-19  -1.1025228482139517e-17  8.9218977459782949e-19  8.9218977459795852e-19  5.0563401073016952e-19  -1.6601103928539862e-18  -1.6601103928541010e-18  2.0000000000000001e-17  5.9869882410902263e-19  2.0000000000000001e-17  2.0000000000000001e-17  2.0000000000000001e-17  -6.3983162388175473e-20  4.4590179027418408e-21  -2.2099104237428438e-19  -6.3983162387986780e-20  2.7821348578423154e-20  1.2466756369028371e-20  2.7821348578354417e-20  -6.3983162388121162e-20  4.4590179027479677e-21  -1.1025228482139349e-17  -1.6601103928539977e-18  1.5404049292573424e-19  5.0563401073000880e-19  8.9218977459784412e-19  5.0563401073000803e-19  8.9218977459783315e-19  5.0563401073000754e-19  -1.6601103928539916e-18  2.0000000000000001e-17  2.0000000000000001e-17  -1.6601103928539852e-18  5.9869882410904420e-19  2.0000000000000001e-17  2.0000000000000001e-17  2.0000000000000001e-17  5.9869882410904160e-19  2.0000000000000001e-17  -2.2099104237440263e-19  1.7190301209204817e-21  1.2466756368939617e-20  2.7821348578417118e-20  -6.3983162388114578e-20  4.4590179027761081e-21  -6.3983162388113146e-20  -5.2397801280380733e-21  -1.8407642011944230e-21  -2.0110006133399454e-23  7.7580000484230680e-22  2.6658464556816866e-23  3.1721910713925995e-22  7.7580000479014090e-22  3.1721910713695330e-22  7.7580000482754805e-22  -1.8407642011871330e-21  -2.0110006263483229e-23  -2.0110006144982376e-23  -1.3261797354634625e-22  -4.9676254380024096e-23  -1.1025228482139338e-17  1.5404049292573210e-19  5.0563401072999445e-19  8.9218977459780946e-19  -1.6601103928539948e-18  2.0000000000000001e-17  2.0000000000000001e-17  2.0000000000000001e-17  5.9869882410897400e-19  -2.2099104237439969e-19  -6.3983162388113290e-20  1.2466756368948956e-20  2.7821348578419158e-20  4.4590179027769447e-21  1.5404049292549348e-19  -1.1025228482139896e-17  5.0563401073001534e-19  8.9218977459786377e-19  8.9218977459820235e-19  5.0563401072985809e-19  -1.6601103928542379e-18  -1.6601103928540026e-18  2.0000000000000001e-17  2.0000000000000001e-17  2.0000000000000001e-17  2.0000000000000001e-17  5.9869882410891025e-19  2.0000000000000001e-17  1.2466756368935917e-20  1.7190301211639704e-21  -2.2099104237444274e-19  2.7821348578499879e-20  1.2466756368830325e-20  -6.3983162387175807e-20  -6.3983162388073074e-20  4.4590179028161403e-21  -1.8407642011911173e-21  -5.2397801281271084e-21  3.1721910706690648e-22  7.7580000464716251e-22  -2.0110006117069210e-23  -1.8407642009974925e-21  -1.1025228482139357e-17  1.5404049292572411e-19  5.0563401072999676e-19  8.9218977459762977e-19  5.0563401073005993e-19  -1.6601103928539636e-18  -1.6601103928539856e-18  2.0000000000000001e-17  2.0000000000000001e-17  2.0000000000000001e-17  5.9869882410893952e-19  2.0000000000000001e-17  -2.2099104237440075e-19  1.7190301209334140e-21  1.2466756368946236e-20  2.7821348578380561e-20  1.2466756368986882e-20  -6.3983162388107175e-20  -6.3983162388119477e-20  4.4590179028179181e-21  -5.2397801280536861e-21  2.6658464549370374e-23  3.1721910712621586e-22  7.7580000482156365e-22  3.1721910709047496e-22  -1.8407642012056445e-21  -1.8407642011908784e-21  -2.0110006145608979e-23  -1.3261797354489907e-22  -1.1025228482139344e-17  1.5404049292569722e-19  5.0563401072974003e-19  8.9218977459767175e-19  5.0563401072964643e-19  -1.6601103928539313e-18  -1.6601103928537726e-18  2.0000000000000001e-17  2.0000000000000001e-17  2.0000000000000001e-17  5.9869882410882801e-19  2.0000000000000001e-17  -2.2099104237441433e-19  1.7190301209280944e-21  1.2466756368949865e-20  2.7821348578408505e-20  1.2466756368941847e-20  -6.3983162388006630e-20  -6.3983162388096595e-20  4.4590179030529944e-21  -5.2397801280740754e-21  -1.8407642011827470e-21  3.1721910715133317e-22  7.7580000483306394e-22  -1.8407642012225182e-21  -1.8407642011398996e-21  -2.0110006138735411e-23  -2.0110006233253065e-23  -1.1025228482138875e-17  -1.6601103928540511e-18  1.5404049292617355e-19  5.0563401072994216e-19  8.9218977459779559e-19  5.0563401072930891e-19  8.9218977459870444e-19  5.0563401072937468e-19  2.0000000000000001e-17  2.0000000000000001e-17  -1.6601103928506811e-18  5.9869882410889205e-19  2.0000000000000001e-17  2.0000000000000001e-17  2.0000000000000001e-17  2.0000000000000001e-17  5.9869882410691238e-19  -2.2099104237442170e-19  -6.3983162388115998e-20  1.7190301209306049e-21  1.2466756368948685e-20  2.7821348578414175e-20  1.2466756368937811e-20  2.7821348578408259e-20  1.2466756368998811e-20  -6.3983162388183586e-20  -6.3983162388201389e-20  4.4590179027678973e-21  4.4590179023513728e-21  -5.2397801280452759e-21  -1.8407642011655197e-21  -1.8407642011642731e-21  -1.8407642011721480e-21  -2.0110006194062254e-23  -2.0110006223553976e-23  1.5404049292704773e-19  -1.1025228482140351e-17  5.0563401073002141e-19  8.9218977459796565e-19  -1.6601103928541254e-18  2.0000000000000001e-17  2.0000000000000001e-17  2.0000000000000001e-17  1.2466756369399736e-20  1.7190301215756327e-21  -2.2099104237474039e-19  -6.3983162387769921e-20  -1.8407642010591208e-21  -5.2397801268333379e-21  -1.1025228482139388e-17  1.5404049292560167e-19  5.0563401073084465e-19  -1.6601103928536307e-18  2.0000000000000001e-17  2.0000000000000001e-17  -2.2099104237390444e-19  1.7190301214589759e-21  1.2466756368757337e-20  -6.3983162386635091e-20  -5.2397801279057085e-21  -1.8407642011058343e-21  -1.1025228482139286e-17  1.5404049292602802e-19  2.0000000000000001e-17  -2.2099104237497261e-19  1.7190301209067392e-21  1.2466756368769167e-20  -6.3983162388102300e-20  -5.2397801280690213e-21  -1.8407642012921677e-21  -2.2099104237471665e-19  1.7190301207556266e-21  1.2466756368908746e-20  -6.3983162388553702e-20  -5.2397801279885077e-21  -1.8407642008247479e-21  8.9218977459749206e-19  1.5404049292456836e-19  5.0563401072961889e-19  -1.1025228482139374e-17  -1.6601103928547668e-18  8.9218977459771123e-19  5.0563401072982054e-19  8.9218977459811587e-19  5.0563401073079804e-19  -1.6601103928577489e-18  2.0000000000000001e-17  -1.6601103928540447e-18  5.9869882410907010e-19  2.0000000000000001e-17  2.0000000000000001e-17  5.9869882410835654e-19  2.0000000000000001e-17  2.0000000000000001e-17  2.0000000000000001e-17  -2.2099104237402221e-19  -6.3983162388045028e-20  -6.3983162388185898e-20  4.4590179026088764e-21  2.7821348578272330e-20  1.2466756368793311e-20  2.7821348578698936e-20  4.4590179025219094e-21  -6.3983162388573828e-20  -1.1025228482139364e-17  -1.6601103928540031e-18  1.5404049292569317e-19  5.0563401072997615e-19  8.9218977459783488e-19  5.0563401072999955e-19  8.9218977459783681e-19  5.0563401072998309e-19  -1.6601103928539688e-18  2.0000000000000001e-17  2.0000000000000001e-17  -1.6601103928539810e-18  5.9869882410904872e-19  2.0000000000000001e-17  2.0000000000000001e-17  2.0000000000000001e-17  5.9869882410904930e-19  2.0000000000000001e-17  -2.2099104237443961e-19  -6.3983162388123618e-20  1.7190301209387017e-21  1.2466756368931537e-20  2.7821348578414325e-20  1.2466756368943107e-20  2.7821348578421915e-20  1.2466756368861350e-20  -6.3983162388152675e-20  -6.3983162388115372e-20  4.4590179027763210e-21  4.4590179027738940e-21  7.7580000482859687e-22  3.1721910714646869e-22  2.6658464548387284e-23  -5.2397801281138684e-21  7.7580000483021247e-22  3.1721910714413204e-22  -1.8407642011120590e-21  -1.8407642011243541e-21  -1.8407642011716097e-21  -2.0110006147397952e-23  -2.0110006146763038e-23  -4.9676254375831049e-23  -1.9616593928395434e-24  -1.3261797355662258e-22  2.0810309522929917e-23  8.2230409588652922e-24  2.0810309523838757e-23  -1.9616593876044103e-24  -4.9676254373802945e-23  -1.1025228482139335e-17  -1.6601103928539871e-18  1.5404049292573241e-19  5.0563401073000899e-19  8.9218977459784316e-19  5.0563401073000880e-19  8.9218977459784297e-19  5.0563401073000793e-19  -1.6601103928539816e-18  2.0000000000000001e-17  2.0000000000000001e-17  -1.6601103928539808e-18  5.9869882410905094e-19  2.0000000000000001e-17  2.0000000000000001e-17  2.0000000000000001e-17  5.9869882410905074e-19  2.0000000000000001e-17  -2.2099104237440104e-19  -6.3983162388111244e-20  1.7190301209356620e-21  1.2466756368949498e-20  2.7821348578422360e-20  1.2466756368950223e-20  2.7821348578422504e-20  1.2466756368949400e-20  -6.3983162388111328e-20  -6.3983162388110245e-20  4.4590179027790496e-21  4.4590179027788352e-21  -5.2397801280472425e-21  -1.8407642011750343e-21  2.6658464555585988e-23  3.1721910714404134e-22  7.7580000483176487e-22  3.1721910714428053e-22  7.7580000483182807e-22  3.1721910714444360e-22  -1.8407642011749034e-21  -1.8407642011747766e-21  -2.0110006143249456e-23  -2.0110006143153486e-23  -1.3261797355161820e-22  -4.9676254375406825e-23  5.3924460039735105e-25  8.2230409599296523e-24  2.0810309523880008e-23  8.2230409598944301e-24  2.0810309523940331e-23  8.2230409596556138e-24  -4.9676254374753767e-23  -4.9676254374844421e-23  -1.9616593875341616e-24  -1.9616593875038148e-24  -3.4368542024924905e-24  -1.3160948640046804e-24  -1.3160948638831972e-24  -6.5572703708464615e-26  5.5057623619284052e-25  -1.3160948630490925e-24  -6.5572703916984375e-26  -1.1025228482139332e-17  -1.6601103928539889e-18  1.5404049292573468e-19  5.0563401073001014e-19  8.9218977459784297e-19  5.0563401073000880e-19  8.9218977459784355e-19  5.0563401073000880e-19  -1.6601103928539810e-18  2.0000000000000001e-17  2.0000000000000001e-17  -1.6601103928539796e-18  5.9869882410904843e-19  2.0000000000000001e-17  2.0000000000000001e-17  2.0000000000000001e-17  5.9869882410905084e-19  2.0000000000000001e-17  -2.2099104237439859e-19  -6.3983162388110341e-20  1.7190301209362638e-21  1.2466756368950467e-20  2.7821348578422673e-20  1.2466756368950513e-20  2.7821348578422631e-20  1.2466756368950513e-20  -6.3983162388110269e-20  -6.3983162388109883e-20  4.4590179027792791e-21  4.4590179027788367e-21  -5.2397801280443777e-21  -1.8407642011746905e-21  2.6658464555853936e-23  3.1721910714440739e-22  7.7580000483194552e-22  3.1721910714441176e-22  7.7580000483172557e-22  3.1721910714434979e-22  -1.8407642011746671e-21  -1.8407642011746671e-21  -2.0110006143135427e-23  -2.0110006143183373e-23  -1.3261797355097200e-22  -4.9676254374788174e-23  5.3924460043522153e-25  8.2230409598739471e-24  2.0810309523934183e-23  8.2230409598764201e-24  2.0810309523949112e-23  8.2230409598764715e-24  -4.9676254374804702e-23  -4.9676254374777124e-23  -1.9616593874997351e-24  -1.9616593875162812e-24  -3.4368542021440005e-24  -1.3160948637602168e-24  -1.3160948637645597e-24  -6.5572703896452105e-26  -1.3160948637498146e-24  5.0563401073002343e-19  1.5404049292547834e-19  -1.6601103928529889e-18  2.0000000000000001e-17  -6.3983162388342620e-20  -2.2099104237375749e-19  1.2466756369226592e-20  -1.1025228482139274e-17  1.5404049292572055e-19  5.0563401073000860e-19  -1.6601103928539779e-18  2.0000000000000001e-17  2.0000000000000001e-17  -2.2099104237441159e-19  1.7190301209157418e-21  1.2466756368948208e-20  2.7821348578420175e-20  1.2466756368943876e-20  -6.3983162388122558e-20  -6.3983162388113783e-20  4.4590179027778482e-21  3.1721910714857015e-22  2.6658464551464605e-23  -5.2397801280191382e-21  7.7580000483212702e-22  3.1721910714583486e-22  -1.8407642011732814e-21  -1.8407642011733058e-21  -2.0110006142895623e-23  -4.9676254375391479e-23  -1.3261797354827629e-22  8.2230409602458383e-24  2.0810309521680340e-23  -4.9676254370727399e-23  -1.9616593880140858e-24  -1.1025228482139329e-17  1.5404049292573355e-19  5.0563401073000918e-19  8.9218977459784181e-19  5.0563401073000899e-19  -1.6601103928539783e-18  -1.6601103928539810e-18  2.0000000000000001e-17  2.0000000000000001e-17  2.0000000000000001e-17  5.9869882410905017e-19  2.0000000000000001e-17  -2.2099104237439912e-19  1.7190301209363195e-21  1.2466756368950394e-20  2.7821348578422270e-20  1.2466756368950209e-20  -6.3983162388110473e-20  -6.3983162388110196e-20  4.4590179027787938e-21  -5.2397801280431995e-21  2.6658464556131764e-23  3.1721910714439258e-22  7.7580000483149649e-22  3.1721910714440010e-22  -1.8407642011746506e-21  -1.8407642011746656e-21  -2.0110006143390818e-23  -1.3261797355078092e-22  5.3924460027749315e-25  8.2230409598473986e-24  2.0810309524438247e-23  8.2230409592774249e-24  -4.9676254375763764e-23  -4.9676254374806236e-23  -1.9616593878617708e-24  -3.4368542021619555e-24  -1.3160948637360224e-24  -1.1025228482139332e-17  1.5404049292573403e-19  5.0563401073000966e-19  8.9218977459784143e-19  5.0563401073000774e-19  -1.6601103928539814e-18  -1.6601103928539785e-18  2.0000000000000001e-17  2.0000000000000001e-17  2.0000000000000001e-17  5.9869882410904805e-19  2.0000000000000001e-17  -2.2099104237439873e-19  1.7190301209362277e-21  1.2466756368950345e-20  2.7821348578421463e-20  1.2466756368950024e-20  -6.3983162388110558e-20  -6.3983162388110365e-20  4.4590179027786599e-21  -5.2397801280443009e-21  2.6658464555828587e-23  3.1721910714455249e-22  7.7580000482495745e-22  3.1721910714438699e-22  -1.8407642011759246e-21  -1.8407642011747928e-21  -2.0110006144566207e-23  -1.3261797355093784e-22  5.3924460048923715e-25  8.2230409598409642e-24  2.0810309524140039e-23  8.2230409592720882e-24  -4.9676254374327962e-23  -4.9676254374685630e-23  -1.9616593865396835e-24  -3.4368542021406798e-24  -1.3160948638231815e-24  1.2466756368948232e-20  3.1721910714656419e-22  -1.8407642011759777e-21  -4.9676254377452902e-23  5.0563401073000340e-19  -1.6601103928539860e-18  2.0000000000000001e-17  1.7190301209353821e-21  1.2466756368949996e-20  -6.3983162388111665e-20  -5.2397801280446846e-21  2.6658464555148287e-23  3.1721910714286510e-22  -1.8407642011743410e-21  -1.3261797354902651e-22  -4.9676254377911239e-23  -1.1025228482139340e-17  1.5404049292572981e-19  5.0563401073000196e-19  -1.6601103928539827e-18  2.0000000000000001e-17  2.0000000000000001e-17  -2.2099104237440070e-19  1.7190301209351361e-21  1.2466756368945553e-20  -6.3983162388112026e-20  -5.2397801280421493e-21  2.6658464558896521e-23  -1.8407642011665850e-21  -1.3261797354678931e-22  </DataArray> 
</PointData> 
</Piece>
</UnstructuredGrid>
</VTKFile>