<?xml version="1.0"?>
<VTKFile type="UnstructuredGrid"  version="0.1"  >
<UnstructuredGrid>
<Piece  NumberOfPoints="581" NumberOfCells="2286">
<Points>
<DataArray  type="Float64"  NumberOfComponents="3"  format="ascii">40 30 25  40 27.5 25  40 27.5 22.5  37.5 27.5 22.5  37.5 27.5 25  35 30 25  37.5 30 25  40 30 27.5  40 27.5 27.5  37.5 27.5 27.5  40 30 30  40 27.5 30  40 30 32.5  40 27.5 32.5  37.5 27.5 32.5  40 30 35  40 27.5 35  37.5 27.5 35  37.5 30 32.5  37.5 30 35  40 32.5 32.5  40 32.5 30  37.5 32.5 32.5  40 35 30  40 35 32.5  40 35 35  40 32.5 35  37.5 32.5 35  45 30 25  45 27.5 25  42.5 27.5 25  42.5 27.5 22.5  42.5 30 25  45 30 27.5  45 27.5 27.5  42.5 27.5 27.5  45 30 30  45 27.5 30  42.5 27.5 30  42.5 30 27.5  42.5 30 30  47.5 30 30  47.5 27.5 30  47.5 27.5 27.5  50 30 30  47.5 30 27.5  42.5 32.5 27.5  45 32.5 27.5  45 32.5 30  45 35 30  42.5 32.5 30  40 32.5 27.5  42.5 35 30  47.5 32.5 27.5  47.5 30 25  50 30 25  50 32.5 27.5  50 30 27.5  50 32.5 30  50 35 30  47.5 32.5 30  47.5 35 30  45 30 32.5  45 27.5 32.5  42.5 27.5 32.5  45 30 35  45 27.5 35  42.5 27.5 35  42.5 30 32.5  42.5 30 35  50 30 32.5  50 27.5 32.5  47.5 27.5 32.5  50 27.5 30  50 30 35  47.5 30 32.5  47.5 30 35  47.5 27.5 35  42.5 32.5 32.5  45 32.5 32.5  45 35 32.5  45 35 35  45 32.5 35  42.5 32.5 35  42.5 35 32.5  42.5 35 35  47.5 32.5 32.5  50 32.5 32.5  50 35 32.5  50 35 35  50 32.5 35  47.5 32.5 35  47.5 35 32.5  47.5 35 35  42.5 37.5 32.5  45 37.5 32.5  45 37.5 35  45 40 35  42.5 37.5 35  40 37.5 35  40 40 35  42.5 40 35  47.5 37.5 32.5  50 37.5 32.5  50 37.5 35  50 40 35  47.5 37.5 35  47.5 40 35  40 30 37.5  40 27.5 37.5  37.5 27.5 37.5  40 30 40  40 27.5 40  37.5 30 37.5  45 30 37.5  45 27.5 37.5  42.5 27.5 37.5  45 30 40  45 27.5 40  42.5 27.5 40  42.5 30 37.5  42.5 30 40  50 30 37.5  50 27.5 37.5  47.5 27.5 37.5  50 30 40  47.5 30 37.5  47.5 30 40  47.5 27.5 40  40 32.5 37.5  37.5 32.5 37.5  40 35 37.5  40 35 40  40 32.5 40  37.5 32.5 40  42.5 32.5 37.5  45 32.5 37.5  45 35 37.5  45 35 40  45 32.5 40  42.5 32.5 40  42.5 35 37.5  42.5 35 40  47.5 32.5 37.5  50 32.5 37.5  50 35 37.5  50 35 40  50 32.5 40  47.5 32.5 40  47.5 35 37.5  47.5 35 40  42.5 37.5 37.5  45 37.5 37.5  45 40 37.5  45 40 40  45 37.5 40  42.5 37.5 40  42.5 40 37.5  40 37.5 40  40 40 40  42.5 40 40  40 40 37.5  47.5 37.5 37.5  50 37.5 37.5  50 40 37.5  50 40 40  50 37.5 40  47.5 37.5 40  47.5 40 37.5  47.5 40 40  40 42.5 37.5  40 42.5 35  37.5 42.5 37.5  40 45 35  40 45 37.5  40 45 40  40 42.5 40  42.5 42.5 37.5  42.5 42.5 35  45 42.5 37.5  45 42.5 35  45 45 35  45 45 37.5  45 45 40  45 42.5 40  42.5 42.5 40  42.5 45 37.5  42.5 45 35  42.5 45 40  47.5 42.5 37.5  47.5 42.5 35  50 42.5 37.5  50 42.5 35  50 45 35  50 45 37.5  50 45 40  50 42.5 40  47.5 42.5 40  47.5 45 37.5  47.5 45 35  47.5 45 40  42.5 47.5 37.5  42.5 47.5 35  45 47.5 37.5  45 47.5 35  45 50 35  45 50 37.5  45 50 40  45 47.5 40  42.5 47.5 40  40 47.5 35  40 50 35  42.5 50 37.5  42.5 50 35  40 47.5 37.5  40 47.5 40  40 50 40  42.5 50 40  40 50 37.5  47.5 47.5 37.5  47.5 47.5 35  50 47.5 37.5  50 47.5 35  50 50 35  50 50 37.5  50 50 40  50 47.5 40  47.5 47.5 40  47.5 50 37.5  47.5 50 35  47.5 50 40  45 30 42.5  45 27.5 42.5  42.5 27.5 42.5  45 30 45  45 27.5 45  42.5 27.5 45  42.5 30 42.5  40 30 45  42.5 30 45  40 27.5 45  40 30 42.5  47.5 30 42.5  47.5 27.5 42.5  50 30 42.5  50 30 45  47.5 30 45  47.5 27.5 45  40 32.5 42.5  37.5 32.5 42.5  40 35 42.5  40 35 45  40 32.5 45  37.5 32.5 45  37.5 35 42.5  42.5 32.5 42.5  45 32.5 42.5  45 35 42.5  45 35 45  45 32.5 45  42.5 32.5 45  42.5 35 42.5  42.5 35 45  47.5 32.5 42.5  50 32.5 42.5  50 35 42.5  50 35 45  50 32.5 45  47.5 32.5 45  47.5 35 42.5  47.5 35 45  40 37.5 42.5  37.5 37.5 42.5  40 40 42.5  40 40 45  40 37.5 45  42.5 37.5 42.5  45 37.5 42.5  45 40 42.5  45 40 45  45 37.5 45  42.5 37.5 45  42.5 40 42.5  42.5 40 45  47.5 37.5 42.5  50 37.5 42.5  50 40 42.5  50 40 45  50 37.5 45  47.5 37.5 45  47.5 40 42.5  47.5 40 45  42.5 42.5 42.5  45 42.5 42.5  45 45 42.5  45 45 45  45 42.5 45  42.5 42.5 45  42.5 45 42.5  40 42.5 45  40 45 45  42.5 45 45  40 45 42.5  47.5 42.5 42.5  50 42.5 42.5  50 45 42.5  50 45 45  50 42.5 45  47.5 42.5 45  47.5 45 42.5  47.5 45 45  40 47.5 42.5  37.5 47.5 42.5  40 50 42.5  40 50 45  40 47.5 45  42.5 47.5 42.5  45 47.5 42.5  45 50 42.5  45 50 45  45 47.5 45  42.5 47.5 45  42.5 50 42.5  42.5 50 45  47.5 47.5 42.5  50 47.5 42.5  50 50 42.5  50 50 45  50 47.5 45  47.5 47.5 45  47.5 50 42.5  47.5 50 45  40 30 47.5  40 27.5 47.5  37.5 27.5 47.5  40 30 50  40 25 50  40 27.5 50  37.5 27.5 50  37.5 30 47.5  45 30 47.5  45 27.5 47.5  42.5 27.5 47.5  45 30 50  45 27.5 50  42.5 27.5 50  42.5 30 47.5  42.5 30 50  47.5 30 47.5  47.5 27.5 47.5  50 30 47.5  50 30 50  47.5 30 50  47.5 27.5 50  40 32.5 47.5  37.5 32.5 47.5  40 35 47.5  40 35 50  40 32.5 50  42.5 32.5 47.5  45 32.5 47.5  45 35 47.5  45 35 50  45 32.5 50  42.5 32.5 50  42.5 35 47.5  42.5 35 50  47.5 32.5 47.5  50 32.5 47.5  50 35 47.5  50 35 50  50 32.5 50  47.5 32.5 50  47.5 35 47.5  47.5 35 50  42.5 37.5 47.5  45 37.5 47.5  45 40 47.5  45 40 50  45 37.5 50  42.5 37.5 50  42.5 40 47.5  42.5 40 50  47.5 37.5 47.5  50 37.5 47.5  50 40 47.5  50 40 50  50 37.5 50  47.5 37.5 50  47.5 40 47.5  47.5 40 50  42.5 42.5 47.5  45 42.5 47.5  45 45 47.5  45 45 50  45 42.5 50  42.5 42.5 50  42.5 45 47.5  42.5 45 50  47.5 42.5 47.5  50 42.5 47.5  50 45 47.5  50 45 50  50 42.5 50  47.5 42.5 50  47.5 45 47.5  47.5 45 50  42.5 47.5 47.5  45 47.5 47.5  45 50 47.5  45 50 50  45 47.5 50  42.5 47.5 50  42.5 50 47.5  42.5 50 50  47.5 47.5 47.5  50 47.5 47.5  50 50 47.5  50 50 50  50 47.5 50  47.5 47.5 50  47.5 50 47.5  47.5 50 50  45 27.5 22.5  50 27.5 25  50 27.5 22.5  47.5 27.5 22.5  47.5 27.5 25  50 27.5 27.5  50 27.5 40  50 27.5 42.5  50 27.5 45  50 27.5 47.5  50 27.5 50  42.5 40 32.5  42.5 42.5 32.5  40 45 30  42.5 45 32.5  40 45 32.5  42.5 47.5 32.5  40 47.5 32.5  40 47.5 30  40 50 30  42.5 50 32.5  40 50 32.5  40 30 22.5  37.5 30 22.5  45 30 22.5  42.5 30 22.5  50 30 22.5  47.5 30 22.5  40 35 25  40 35 22.5  40 32.5 22.5  37.5 32.5 22.5  40 32.5 25  45 35 25  45 35 22.5  45 32.5 22.5  42.5 32.5 22.5  45 32.5 25  42.5 32.5 25  42.5 35 22.5  42.5 35 25  50 35 25  50 35 22.5  50 32.5 22.5  47.5 32.5 22.5  50 32.5 25  47.5 32.5 25  47.5 35 22.5  47.5 35 25  45 40 25  45 40 22.5  45 37.5 22.5  42.5 37.5 22.5  45 37.5 25  42.5 37.5 25  42.5 40 22.5  42.5 40 25  50 37.5 25  50 37.5 22.5  47.5 37.5 22.5  50 40 25  47.5 37.5 25  47.5 40 25  47.5 40 22.5  45 42.5 25  45 42.5 22.5  42.5 42.5 22.5  45 45 25  42.5 42.5 25  47.5 42.5 25  47.5 42.5 22.5  50 42.5 25  50 45 25  47.5 45 25  45 50 25  45 50 22.5  45 47.5 22.5  42.5 47.5 22.5  45 47.5 25  42.5 47.5 25  42.5 50 22.5  42.5 50 25  50 50 25  50 50 22.5  50 47.5 22.5  47.5 47.5 22.5  50 47.5 25  47.5 47.5 25  47.5 50 22.5  47.5 50 25  45 35 27.5  42.5 35 27.5  40 35 27.5  50 35 27.5  47.5 35 27.5  42.5 37.5 27.5  45 37.5 27.5  45 40 27.5  45 40 30  45 37.5 30  42.5 37.5 30  42.5 40 27.5  42.5 40 30  47.5 37.5 27.5  50 37.5 27.5  50 40 27.5  50 40 30  50 37.5 30  47.5 37.5 30  47.5 40 27.5  47.5 40 30  45 42.5 27.5  42.5 42.5 27.5  45 45 27.5  45 45 30  45 42.5 30  42.5 42.5 30  42.5 45 27.5  42.5 45 30  47.5 42.5 27.5  50 42.5 27.5  50 45 27.5  50 45 30  50 42.5 30  47.5 42.5 30  47.5 45 27.5  47.5 45 30  45 47.5 27.5  42.5 47.5 27.5  45 50 27.5  45 50 30  45 47.5 30  42.5 47.5 30  42.5 50 27.5  42.5 50 30  47.5 47.5 27.5  50 47.5 27.5  50 50 27.5  50 50 30  50 47.5 30  47.5 47.5 30  47.5 50 27.5  47.5 50 30  45 40 32.5  50 40 32.5  47.5 40 32.5  45 42.5 32.5  45 45 32.5  47.5 42.5 32.5  50 42.5 32.5  50 45 32.5  47.5 45 32.5  45 47.5 32.5  45 50 32.5  47.5 47.5 32.5  50 47.5 32.5  50 50 32.5  47.5 50 32.5  </DataArray>
</Points>
<Cells>
[...]
<PointData  Scalars="p_CO2"> 
<DataArray  type="Float64"  Name="p_CO2"  format="ascii">4.4999999717294209e+01  4.4999999690332203e+01  4.4999999690859461e+01  4.4999999732362127e+01  4.4999999726549966e+01  4.4999999794259345e+01  4.4999999744947992e+01  4.4999999710538304e+01  4.4999999681090138e+01  4.4999999726919960e+01  4.4999999708168495e+01  4.4999999680968848e+01  4.4999999708919823e+01  4.4999999682524084e+01  4.4999999726707358e+01  4.4999999713982938e+01  4.4999999689884035e+01  4.4999999725763693e+01  4.4999999735829228e+01  4.4999999740399836e+01  4.4999999745077687e+01  4.4999999747100681e+01  4.4999999771217936e+01  4.4999999795154878e+01  4.4999999787830731e+01  4.4999999786274280e+01  4.4999999745529315e+01  4.4999999764107713e+01  4.4999999692017241e+01  4.4999999642595803e+01  4.4999999663977619e+01  4.4999999666583101e+01  4.4999999701034170e+01  4.4999999677492269e+01  4.4999999631850173e+01  4.4999999653744851e+01  4.4999999670787240e+01  4.4999999633169487e+01  4.4999999645124632e+01  4.4999999691522412e+01  4.4999999686034755e+01  4.4999999658749658e+01  4.4999999610656580e+01  4.4999999611302606e+01  4.4999999657431921e+01  4.4999999669210844e+01  4.4999999744129696e+01  4.4999999739086917e+01  4.4999999725229110e+01  4.4999999788897405e+01  4.4999999733525989e+01  4.4999999755381054e+01  4.4999999789127237e+01  4.4999999738943934e+01  4.4999999685344918e+01  4.4999999686311291e+01  4.4999999739085283e+01  4.4999999666929497e+01  4.4999999719748438e+01  4.4999999792112384e+01  4.4999999720960695e+01  4.4999999790742379e+01  4.4999999668189211e+01  4.4999999631706920e+01  4.4999999654940233e+01  4.4999999676807512e+01  4.4999999643261091e+01  4.4999999660266681e+01  4.4999999685600521e+01  4.4999999691090494e+01  4.4999999651750962e+01  4.4999999615373163e+01  4.4999999615130520e+01  4.4999999613103611e+01  4.4999999654474443e+01  4.4999999656984684e+01  4.4999999664744415e+01  4.4999999634551131e+01  4.4999999729815016e+01  4.4999999718405327e+01  4.4999999776276901e+01  4.4999999774496793e+01  4.4999999720789155e+01  4.4999999730987120e+01  4.4999999779369453e+01  4.4999999777429593e+01  4.4999999712493917e+01  4.4999999710245767e+01  4.4999999776149771e+01  4.4999999773544424e+01  4.4999999712925401e+01  4.4999999714955052e+01  4.4999999776058225e+01  4.4999999772418654e+01  4.4999999833038373e+01  4.4999999836136716e+01  4.4999999828403553e+01  4.4999999879803070e+01  4.4999999827467541e+01  4.4999999829333944e+01  4.4999999873311729e+01  4.4999999875677581e+01  4.4999999840007824e+01  4.4999999841820497e+01  4.4999999832367656e+01  4.4999999886268803e+01  4.4999999831088900e+01  4.4999999884409341e+01  4.4999999722298519e+01  4.4999999694773351e+01  4.4999999729024672e+01  4.4999999743520569e+01  4.4999999721701535e+01  4.4999999741262783e+01  4.4999999694689940e+01  4.4999999667386540e+01  4.4999999678637842e+01  4.4999999730017258e+01  4.4999999697124196e+01  4.4999999705976087e+01  4.4999999706458496e+01  4.4999999736500349e+01  4.4999999683158848e+01  4.4999999647841904e+01  4.4999999659537409e+01  4.4999999723622047e+01  4.4999999687757310e+01  4.4999999723533762e+01  4.4999999699490587e+01  4.4999999754837752e+01  4.4999999770760084e+01  4.4999999786166299e+01  4.4999999810350012e+01  4.4999999779688686e+01  4.4999999797401671e+01  4.4999999744628013e+01  4.4999999735761584e+01  4.4999999782591026e+01  4.4999999806022494e+01  4.4999999764216930e+01  4.4999999770233238e+01  4.4999999785824222e+01  4.4999999807530521e+01  4.4999999731005943e+01  4.4999999729585824e+01  4.4999999781350205e+01  4.4999999805274904e+01  4.4999999759804759e+01  4.4999999760637785e+01  4.4999999781663441e+01  4.4999999803968791e+01  4.4999999829770495e+01  4.4999999832159510e+01  4.4999999878928634e+01  4.4999999888450141e+01  4.4999999847346970e+01  4.4999999847125650e+01  4.4999999876011273e+01  4.4999999848372326e+01  4.4999999885561103e+01  4.4999999886449366e+01  4.4999999873961983e+01  4.4999999833650222e+01  4.4999999835015679e+01  4.4999999883705833e+01  4.4999999891756538e+01  4.4999999849474435e+01  4.4999999848610017e+01  4.4999999882362978e+01  4.4999999890530177e+01  4.4999999912751804e+01  4.4999999912755470e+01  4.4999999911400558e+01  4.4999999946025554e+01  4.4999999944976558e+01  4.4999999948926607e+01  4.4999999919326200e+01  4.4999999915616399e+01  4.4999999917489156e+01  4.4999999919594515e+01  4.4999999923042289e+01  4.4999999955790344e+01  4.4999999951981771e+01  4.4999999953617504e+01  4.4999999924182276e+01  4.4999999921520839e+01  4.4999999948235335e+01  4.4999999950572025e+01  4.4999999951076546e+01  4.4999999922915507e+01  4.4999999928010908e+01  4.4999999924526918e+01  4.4999999929923902e+01  4.4999999961409308e+01  4.4999999956351026e+01  4.4999999956491919e+01  4.4999999927420546e+01  4.4999999926577736e+01  4.4999999955051152e+01  4.4999999960112106e+01  4.4999999955829196e+01  4.4999999974934738e+01  4.4999999976221368e+01  4.4999999976910338e+01  4.4999999979296248e+01  4.4999999997621472e+01  4.4999999997399556e+01  4.4999999997408771e+01  4.4999999977235227e+01  4.4999999975641074e+01  4.4999999973311468e+01  4.4999999997247095e+01  4.4999999997129422e+01  4.4999999997312010e+01  4.4999999972484879e+01  4.4999999974084439e+01  4.4999999997227334e+01  4.4999999997225970e+01  4.4999999996439286e+01  4.4999999978706910e+01  4.4999999982164766e+01  4.4999999980094088e+01  4.4999999983681207e+01  4.4999999997951711e+01  4.4999999997812054e+01  4.4999999997573831e+01  4.4999999979647988e+01  4.4999999978744668e+01  4.4999999997691241e+01  4.4999999998040572e+01  4.4999999997603403e+01  4.4999999778410611e+01  4.4999999753765628e+01  4.4999999765029614e+01  4.4999999842638864e+01  4.4999999824708944e+01  4.4999999835151662e+01  4.4999999785064773e+01  4.4999999854224249e+01  4.4999999847088937e+01  4.4999999847537907e+01  4.4999999792063463e+01  4.4999999774585810e+01  4.4999999748411454e+01  4.4999999772903855e+01  4.4999999838017601e+01  4.4999999838269694e+01  4.4999999821473637e+01  4.4999999820787060e+01  4.4999999837026628e+01  4.4999999847768144e+01  4.4999999889962986e+01  4.4999999871804881e+01  4.4999999882862831e+01  4.4999999858302218e+01  4.4999999812698661e+01  4.4999999807048340e+01  4.4999999839665008e+01  4.4999999885171469e+01  4.4999999861635409e+01  4.4999999865660293e+01  4.4999999842569295e+01  4.4999999886772528e+01  4.4999999804942057e+01  4.4999999803730233e+01  4.4999999838439692e+01  4.4999999883516246e+01  4.4999999858792705e+01  4.4999999859543394e+01  4.4999999838683003e+01  4.4999999883753148e+01  4.4999999877150330e+01  4.4999999884581925e+01  4.4999999906084739e+01  4.4999999931975388e+01  4.4999999910750034e+01  4.4999999874849344e+01  4.4999999873710188e+01  4.4999999906658772e+01  4.4999999932379552e+01  4.4999999908707153e+01  4.4999999909103266e+01  4.4999999905789522e+01  4.4999999931667602e+01  4.4999999874383825e+01  4.4999999874555762e+01  4.4999999908387139e+01  4.4999999933008908e+01  4.4999999908661607e+01  4.4999999908808320e+01  4.4999999907831977e+01  4.4999999932675500e+01  4.4999999934510377e+01  4.4999999935667390e+01  4.4999999959901700e+01  4.4999999970160417e+01  4.4999999952648032e+01  4.4999999951876724e+01  4.4999999958439922e+01  4.4999999951613276e+01  4.4999999969280786e+01  4.4999999969515329e+01  4.4999999956529713e+01  4.4999999936869266e+01  4.4999999937796495e+01  4.4999999962246420e+01  4.4999999972292684e+01  4.4999999954276184e+01  4.4999999953528345e+01  4.4999999961357418e+01  4.4999999971168336e+01  4.4999999978174067e+01  4.4999999978114381e+01  4.4999999997644657e+01  4.4999999998235907e+01  4.4999999983704789e+01  4.4999999978851235e+01  4.4999999980080425e+01  4.4999999997742819e+01  4.4999999998308212e+01  4.4999999985266562e+01  4.4999999984639253e+01  4.4999999997609429e+01  4.4999999998237350e+01  4.4999999980641753e+01  4.4999999981619048e+01  4.4999999997921819e+01  4.4999999998418609e+01  4.4999999986190694e+01  4.4999999985658015e+01  4.4999999997850942e+01  4.4999999998387729e+01  4.4999999921609515e+01  4.4999999913179501e+01  4.4999999924522932e+01  4.4999999991341454e+01  4.4999999991291872e+01  4.4999999990402245e+01  4.4999999991136939e+01  4.4999999929326961e+01  4.4999999913843709e+01  4.4999999906159736e+01  4.4999999910141199e+01  4.4999999990290334e+01  4.4999999989365925e+01  4.4999999989583806e+01  4.4999999917107147e+01  4.4999999990323275e+01  4.4999999912041375e+01  4.4999999903887897e+01  4.4999999911330022e+01  4.4999999989907614e+01  4.4999999989769783e+01  4.4999999988910190e+01  4.4999999929848912e+01  4.4999999935602347e+01  4.4999999938916076e+01  4.4999999992734381e+01  4.4999999991849570e+01  4.4999999926928751e+01  4.4999999924377633e+01  4.4999999936512985e+01  4.4999999992719758e+01  4.4999999991220363e+01  4.4999999991400074e+01  4.4999999937646798e+01  4.4999999992778640e+01  4.4999999923759006e+01  4.4999999922687792e+01  4.4999999935775861e+01  4.4999999992554052e+01  4.4999999990943635e+01  4.4999999990984108e+01  4.4999999936156385e+01  4.4999999992536175e+01  4.4999999949456864e+01  4.4999999949518582e+01  4.4999999962306802e+01  4.4999999995577191e+01  4.4999999994106872e+01  4.4999999994001605e+01  4.4999999961822681e+01  4.4999999995650079e+01  4.4999999950369570e+01  4.4999999949692892e+01  4.4999999962721034e+01  4.4999999995667302e+01  4.4999999994051606e+01  4.4999999994079793e+01  4.4999999962686218e+01  4.4999999995595594e+01  4.4999999973459644e+01  4.4999999973720634e+01  4.4999999983522663e+01  4.4999999998047819e+01  4.4999999996913779e+01  4.4999999996807617e+01  4.4999999983167008e+01  4.4999999997713395e+01  4.4999999973900159e+01  4.4999999974494784e+01  4.4999999984437885e+01  4.4999999998106162e+01  4.4999999996973990e+01  4.4999999996936516e+01  4.4999999983854011e+01  4.4999999998089493e+01  4.4999999991434947e+01  4.4999999991757434e+01  4.4999999999052264e+01  4.4999999999906812e+01  4.4999999999020609e+01  4.4999999999069210e+01  4.4999999999212292e+01  4.5000000000050996e+01  4.4999999991688426e+01  4.4999999992113061e+01  4.4999999999098357e+01  4.4999999999934829e+01  4.4999999999047787e+01  4.4999999999033996e+01  4.4999999999079648e+01  4.4999999999904119e+01  4.4999999651381849e+01  4.4999999623453611e+01  4.4999999636456252e+01  4.4999999646224438e+01  4.4999999626174763e+01  4.4999999615456403e+01  4.4999999700550191e+01  4.4999999744731646e+01  4.4999999817591849e+01  4.4999999904784062e+01  4.4999999988373624e+01  4.4999999884810606e+01  4.4999999927079813e+01  4.4999999957608075e+01  4.4999999957809734e+01  4.4999999951073740e+01  4.4999999980284585e+01  4.4999999976209821e+01  4.4999999980446823e+01  4.4999999997488118e+01  4.4999999997845705e+01  4.4999999997465054e+01  4.4999999723139958e+01  4.4999999751916391e+01  4.4999999703900514e+01  4.4999999707021203e+01  4.4999999704737618e+01  4.4999999704210900e+01  4.4999999814397121e+01  4.4999999823693095e+01  4.4999999770468406e+01  4.4999999780760135e+01  4.4999999759634079e+01  4.4999999833901718e+01  4.4999999863573812e+01  4.4999999779319047e+01  4.4999999770288234e+01  4.4999999758167796e+01  4.4999999756922136e+01  4.4999999840488911e+01  4.4999999820986943e+01  4.4999999853380253e+01  4.4999999892626249e+01  4.4999999795123941e+01  4.4999999790779853e+01  4.4999999764981318e+01  4.4999999762488756e+01  4.4999999885120850e+01  4.4999999847405221e+01  4.4999999963179441e+01  4.4999999991691340e+01  4.4999999949945256e+01  4.4999999908787487e+01  4.4999999906850967e+01  4.4999999885494240e+01  4.4999999959885066e+01  4.4999999940409403e+01  4.4999999937366695e+01  4.4999999984036911e+01  4.4999999982696593e+01  4.5000000007411998e+01  4.4999999927230121e+01  4.4999999988100456e+01  4.5000000036531858e+01  4.5000000002693213e+01  4.5000000024616654e+01  4.4999999991328060e+01  4.5000000026786132e+01  4.4999999978412170e+01  4.5000000025123889e+01  4.5000000049112764e+01  4.5000000042953467e+01  4.5000000054556018e+01  4.5000000049558182e+01  4.5000000001419728e+01  4.5000000001983764e+01  4.5000000021481689e+01  4.5000000008367564e+01  4.5000000015730528e+01  4.5000000002451522e+01  4.5000000000845638e+01  4.5000000000371600e+01  4.5000000002952198e+01  4.5000000004778322e+01  4.5000000042006377e+01  4.5000000034034606e+01  4.5000000030069799e+01  4.5000000026147887e+01  4.5000000003764953e+01  4.5000000002944688e+01  4.4999999808519988e+01  4.4999999803834591e+01  4.4999999805532120e+01  4.4999999818409215e+01  4.4999999815107429e+01  4.4999999866166753e+01  4.4999999877203216e+01  4.4999999935166194e+01  4.4999999909309636e+01  4.4999999853076737e+01  4.4999999846836488e+01  4.4999999922235411e+01  4.4999999900614824e+01  4.4999999888413186e+01  4.4999999894242308e+01  4.4999999956365741e+01  4.4999999921738656e+01  4.4999999862519104e+01  4.4999999859461894e+01  4.4999999949429416e+01  4.4999999918773320e+01  4.4999999976677188e+01  4.4999999963109161e+01  4.4999999999185484e+01  4.4999999978899822e+01  4.4999999952638227e+01  4.4999999943796496e+01  4.4999999984013954e+01  4.4999999968676399e+01  4.4999999990106623e+01  4.4999999997918955e+01  4.5000000016767196e+01  4.4999999991060420e+01  4.4999999966635322e+01  4.4999999962266763e+01  4.5000000011327444e+01  4.4999999988012064e+01  4.5000000004374975e+01  4.4999999995496566e+01  4.5000000000538797e+01  4.4999999999023068e+01  4.4999999993350812e+01  4.4999999986650856e+01  4.4999999999709104e+01  4.4999999998523251e+01  4.5000000011015231e+01  4.5000000014973018e+01  4.5000000001854715e+01  4.4999999999895003e+01  4.5000000001186912e+01  4.4999999998540680e+01  4.5000000001523723e+01  4.4999999999955513e+01  4.4999999890638783e+01  4.4999999899001523e+01  4.4999999896629220e+01  4.4999999934278144e+01  4.4999999964886889e+01  4.4999999940728124e+01  4.4999999943883786e+01  4.4999999973616951e+01  4.4999999970921152e+01  4.4999999984812575e+01  4.4999999998352585e+01  4.4999999988091353e+01  4.4999999990424136e+01  4.4999999999041272e+01  4.4999999998903888e+01  </DataArray> 
</PointData> 
</Piece>
</UnstructuredGrid>
</VTKFile>