<?xml version="1.0"?>
<VTKFile type="UnstructuredGrid"  version="0.1"  >
<UnstructuredGrid>
<Piece  NumberOfPoints="604" NumberOfCells="2423">
<Points>
<DataArray  type="Float64"  NumberOfComponents="3"  format="ascii">20 30 40  20 27.5 40  20 27.5 37.5  17.5 27.5 37.5  17.5 27.5 40  17.5 30 40  17.5 30 37.5  22.5 30 40  22.5 27.5 40  22.5 27.5 37.5  25 30 40  20 30 42.5  20 27.5 42.5  17.5 27.5 42.5  20 30 45  20 27.5 45  17.5 30 42.5  25 30 42.5  25 27.5 42.5  22.5 27.5 42.5  25 30 45  25 27.5 45  22.5 27.5 45  22.5 30 42.5  22.5 30 45  25 30 47.5  25 27.5 47.5  22.5 27.5 47.5  25 30 50  25 27.5 50  22.5 27.5 50  22.5 30 47.5  20 30 50  22.5 30 50  20 27.5 50  20 27.5 47.5  20 30 47.5  22.5 30 37.5  20 40 35  22.5 42.5 35  22.5 40 35  22.5 42.5 32.5  25 40 35  25 42.5 35  25 45 35  20 42.5 35  20 45 35  22.5 45 35  22.5 45 32.5  25 50 35  25 50 32.5  25 47.5 32.5  22.5 47.5 32.5  25 47.5 35  22.5 47.5 35  22.5 50 32.5  20 47.5 35  20 47.5 32.5  20 50 35  22.5 50 35  20 50 30  20 50 32.5  30 50 30  30 50 32.5  27.5 50 32.5  27.5 47.5 32.5  30 50 35  27.5 47.5 35  27.5 50 35  20 35 35  20 35 37.5  20 32.5 37.5  17.5 32.5 37.5  20 35 40  20 32.5 40  17.5 32.5 40  17.5 35 37.5  17.5 35 40  25 35 40  25 35 37.5  25 32.5 37.5  22.5 32.5 37.5  25 32.5 40  22.5 32.5 40  22.5 35 37.5  22.5 35 40  20 37.5 37.5  20 37.5 35  17.5 37.5 37.5  20 40 37.5  20 40 40  20 37.5 40  17.5 37.5 40  25 40 37.5  25 37.5 37.5  22.5 37.5 37.5  25 40 40  25 37.5 40  22.5 37.5 40  22.5 40 37.5  22.5 40 40  22.5 42.5 37.5  25 42.5 37.5  25 45 37.5  25 45 40  25 42.5 40  22.5 42.5 40  22.5 45 37.5  20 42.5 37.5  20 42.5 40  20 45 40  22.5 45 40  20 45 37.5  22.5 47.5 37.5  25 47.5 37.5  25 50 37.5  25 50 40  25 47.5 40  22.5 47.5 40  22.5 50 37.5  20 47.5 37.5  20 47.5 40  20 50 40  22.5 50 40  20 50 37.5  27.5 47.5 37.5  27.5 50 37.5  30 50 37.5  30 50 40  27.5 47.5 40  27.5 50 40  20 32.5 42.5  17.5 32.5 42.5  20 35 42.5  20 35 45  20 32.5 45  17.5 35 42.5  22.5 32.5 42.5  25 32.5 42.5  25 35 42.5  25 35 45  25 32.5 45  22.5 32.5 45  22.5 35 42.5  22.5 35 45  20 37.5 42.5  17.5 37.5 42.5  20 40 42.5  20 40 45  20 37.5 45  22.5 37.5 42.5  25 37.5 42.5  25 40 42.5  25 40 45  25 37.5 45  22.5 37.5 45  22.5 40 42.5  22.5 40 45  22.5 42.5 42.5  25 42.5 42.5  25 45 42.5  25 45 45  25 42.5 45  22.5 42.5 45  22.5 45 42.5  22.5 45 45  22.5 47.5 42.5  25 47.5 42.5  25 50 42.5  25 50 45  25 47.5 45  22.5 47.5 45  22.5 50 42.5  20 50 45  22.5 50 45  20 50 42.5  27.5 47.5 42.5  27.5 50 42.5  30 50 42.5  30 50 45  27.5 47.5 45  27.5 50 45  22.5 32.5 47.5  25 32.5 47.5  25 35 47.5  25 35 50  25 32.5 50  22.5 32.5 50  22.5 35 47.5  20 32.5 47.5  20 32.5 50  20 35 50  22.5 35 50  20 35 47.5  27.5 32.5 47.5  27.5 32.5 50  27.5 35 50  30 35 50  27.5 35 47.5  22.5 37.5 47.5  25 37.5 47.5  25 40 47.5  25 40 50  25 37.5 50  22.5 37.5 50  22.5 40 47.5  20 37.5 47.5  20 37.5 50  20 40 50  22.5 40 50  20 40 47.5  27.5 37.5 47.5  27.5 37.5 50  30 37.5 50  30 40 50  27.5 40 50  27.5 40 47.5  22.5 42.5 47.5  25 42.5 47.5  25 45 47.5  25 45 50  25 42.5 50  22.5 42.5 50  22.5 45 47.5  20 42.5 50  20 45 50  22.5 45 50  27.5 42.5 47.5  27.5 42.5 50  30 42.5 50  30 45 50  27.5 45 50  27.5 45 47.5  25 47.5 47.5  22.5 47.5 47.5  25 50 47.5  25 50 50  25 47.5 50  22.5 47.5 50  22.5 50 47.5  20 47.5 50  20 50 50  22.5 50 50  20 50 47.5  27.5 47.5 47.5  27.5 47.5 50  30 47.5 50  30 50 50  27.5 50 47.5  30 50 47.5  27.5 50 50  30 30 40  30 30 37.5  30 27.5 37.5  27.5 27.5 37.5  30 27.5 40  27.5 27.5 40  27.5 30 37.5  27.5 30 40  35 30 40  35 30 37.5  35 27.5 37.5  32.5 27.5 37.5  35 27.5 40  32.5 27.5 40  32.5 30 37.5  32.5 30 40  30 35 40  30 35 37.5  30 32.5 37.5  27.5 32.5 37.5  30 32.5 40  27.5 32.5 40  27.5 35 37.5  27.5 35 40  35 35 40  35 35 37.5  35 32.5 37.5  32.5 32.5 37.5  35 32.5 40  32.5 32.5 40  32.5 35 37.5  32.5 35 40  30 40 35  30 40 37.5  30 37.5 37.5  27.5 37.5 37.5  30 40 40  30 37.5 40  27.5 37.5 40  27.5 40 37.5  27.5 40 35  27.5 40 40  35 40 40  35 40 37.5  35 37.5 37.5  32.5 37.5 37.5  35 37.5 40  32.5 37.5 40  32.5 40 37.5  32.5 40 40  27.5 42.5 37.5  27.5 42.5 35  30 42.5 37.5  30 42.5 35  30 45 35  30 45 37.5  30 45 40  30 42.5 40  27.5 42.5 40  27.5 45 37.5  27.5 45 35  27.5 45 40  35 45 35  35 45 37.5  35 42.5 37.5  32.5 42.5 37.5  35 45 40  35 42.5 40  32.5 42.5 40  32.5 45 37.5  32.5 45 35  32.5 45 40  30 47.5 37.5  30 47.5 35  30 47.5 40  32.5 47.5 37.5  32.5 47.5 35  35 47.5 37.5  35 47.5 35  35 50 35  35 50 37.5  35 50 40  35 47.5 40  32.5 47.5 40  32.5 50 37.5  32.5 50 35  32.5 50 40  30 30 42.5  30 27.5 42.5  27.5 27.5 42.5  30 30 45  30 27.5 45  27.5 27.5 45  27.5 30 42.5  27.5 30 45  35 30 42.5  35 27.5 42.5  32.5 27.5 42.5  35 30 45  35 27.5 45  32.5 27.5 45  32.5 30 42.5  32.5 30 45  27.5 32.5 42.5  30 32.5 42.5  30 35 42.5  30 35 45  30 32.5 45  27.5 32.5 45  27.5 35 42.5  27.5 35 45  32.5 32.5 42.5  35 32.5 42.5  35 35 42.5  35 35 45  35 32.5 45  32.5 32.5 45  32.5 35 42.5  32.5 35 45  27.5 37.5 42.5  30 37.5 42.5  30 40 42.5  30 40 45  30 37.5 45  27.5 37.5 45  27.5 40 42.5  27.5 40 45  32.5 37.5 42.5  35 37.5 42.5  35 40 42.5  35 40 45  35 37.5 45  32.5 37.5 45  32.5 40 42.5  32.5 40 45  27.5 42.5 42.5  30 42.5 42.5  30 45 42.5  30 45 45  30 42.5 45  27.5 42.5 45  27.5 45 42.5  27.5 45 45  32.5 42.5 42.5  35 42.5 42.5  35 45 42.5  35 45 45  35 42.5 45  32.5 42.5 45  32.5 45 42.5  32.5 45 45  30 47.5 42.5  30 47.5 45  32.5 47.5 42.5  35 47.5 42.5  35 50 42.5  35 50 45  35 47.5 45  32.5 47.5 45  32.5 50 42.5  32.5 50 45  37.5 47.5 42.5  37.5 47.5 45  37.5 50 45  40 50 45  37.5 50 42.5  30 30 47.5  30 27.5 47.5  27.5 27.5 47.5  30 30 50  30 27.5 50  27.5 27.5 50  27.5 30 47.5  27.5 30 50  35 30 47.5  35 27.5 47.5  32.5 27.5 47.5  35 30 50  35 27.5 50  32.5 27.5 50  32.5 30 47.5  32.5 30 50  30 32.5 47.5  30 35 47.5  30 32.5 50  32.5 32.5 47.5  35 32.5 47.5  35 35 47.5  35 35 50  35 32.5 50  32.5 32.5 50  32.5 35 47.5  32.5 35 50  30 37.5 47.5  30 40 47.5  32.5 37.5 47.5  35 37.5 47.5  35 40 47.5  35 40 50  35 37.5 50  32.5 37.5 50  32.5 40 47.5  32.5 40 50  37.5 37.5 47.5  37.5 37.5 50  37.5 40 50  40 40 50  37.5 40 47.5  30 42.5 47.5  30 45 47.5  32.5 42.5 47.5  35 42.5 47.5  35 45 47.5  35 45 50  35 42.5 50  32.5 42.5 50  32.5 45 47.5  32.5 45 50  37.5 42.5 47.5  37.5 42.5 50  40 42.5 50  40 45 50  37.5 45 50  37.5 45 47.5  30 47.5 47.5  32.5 47.5 47.5  35 47.5 47.5  35 50 47.5  35 50 50  35 47.5 50  32.5 47.5 50  32.5 50 47.5  32.5 50 50  37.5 47.5 47.5  37.5 47.5 50  40 47.5 50  40 50 50  37.5 50 47.5  40 50 47.5  37.5 50 50  40 30 40  40 27.5 40  37.5 27.5 40  37.5 27.5 37.5  37.5 30 40  37.5 30 37.5  37.5 32.5 40  37.5 32.5 37.5  37.5 35 40  40 35 40  37.5 35 37.5  37.5 37.5 40  37.5 37.5 37.5  40 37.5 40  40 40 40  37.5 40 40  37.5 40 37.5  37.5 42.5 40  37.5 42.5 37.5  40 42.5 40  40 45 40  37.5 45 37.5  37.5 45 35  40 45 35  40 45 37.5  37.5 45 40  37.5 47.5 37.5  37.5 47.5 35  40 47.5 37.5  40 47.5 35  40 50 35  40 50 37.5  40 50 40  40 47.5 40  37.5 47.5 40  37.5 50 37.5  37.5 50 35  37.5 50 40  40 30 42.5  40 27.5 42.5  37.5 27.5 42.5  40 30 45  40 27.5 45  37.5 27.5 45  37.5 30 42.5  37.5 30 45  42.5 27.5 42.5  37.5 32.5 42.5  37.5 32.5 45  37.5 35 42.5  37.5 35 45  40 35 45  37.5 37.5 42.5  37.5 37.5 45  40 37.5 45  40 40 45  37.5 40 42.5  40 40 42.5  37.5 40 45  37.5 42.5 42.5  40 42.5 42.5  40 45 42.5  40 45 45  40 42.5 45  37.5 42.5 45  37.5 45 42.5  37.5 45 45  42.5 42.5 42.5  40 47.5 45  40 50 42.5  37.5 27.5 47.5  37.5 30 47.5  37.5 30 50  37.5 27.5 50  40 30 50  37.5 32.5 47.5  37.5 32.5 50  40 32.5 50  40 35 50  37.5 35 47.5  40 35 47.5  37.5 35 50  40 37.5 47.5  40 40 47.5  40 37.5 50  42.5 37.5 47.5  42.5 37.5 50  42.5 40 50  42.5 40 47.5  40 42.5 47.5  40 45 47.5  42.5 42.5 47.5  42.5 42.5 50  42.5 45 50  42.5 45 47.5  40 47.5 47.5  42.5 47.5 47.5  42.5 47.5 50  42.5 50 50  42.5 50 47.5  30 47.5 32.5  35 50 30  35 50 32.5  35 47.5 32.5  32.5 47.5 32.5  32.5 50 32.5  32.5 50 30  40 50 30  40 50 32.5  40 47.5 32.5  37.5 47.5 32.5  37.5 50 32.5  37.5 50 30  </DataArray>
</Points>
<Cells>
[...]
<PointData  Scalars="p_O2"> 
<DataArray  type="Float64"  Name="p_O2"  format="ascii">7.6479069054661338e+01  7.5904704504945556e+01  7.2087154961451176e+01  6.8819150480834253e+01  7.2865952009927014e+01  7.3438146672752097e+01  6.9487870834163175e+01  7.9136549908484326e+01  7.8575865811476362e+01  7.5026865310466206e+01  8.1464285179314800e+01  8.1034262156970442e+01  8.0576631776058889e+01  7.7945916877774778e+01  8.6378276259242455e+01  8.6053057202084247e+01  7.8403134260855353e+01  8.5217038221060093e+01  8.4791901300722699e+01  8.2836041741770558e+01  8.9482934357703513e+01  8.9181908514634458e+01  8.7741697006995807e+01  8.3281723795727927e+01  8.8057843265539219e+01  9.4144470651599917e+01  9.3977404665195778e+01  9.3156395015735399e+01  9.9038313906220935e+01  9.9010917627790207e+01  9.8874785806259709e+01  9.3332087617513039e+01  9.8742447852362275e+01  9.8903595654259519e+01  9.8712754126980968e+01  9.2183660915632927e+01  9.2364649269927696e+01  7.5685719210112779e+01  7.8930265748209479e+01  8.5149241910789385e+01  8.1481991024152762e+01  8.4044117684924601e+01  8.3670777624959058e+01  8.6969271383253371e+01  9.0724987422597778e+01  8.2992110061795429e+01  8.7772836137265742e+01  8.9384566351567244e+01  8.8599111669331180e+01  9.9151476278894592e+01  9.9084827430932478e+01  9.4427996479006751e+01  9.3632970419536235e+01  9.4834254014116198e+01  9.4070016808618917e+01  9.8952999612906694e+01  9.3141733236547168e+01  9.2678390425026024e+01  9.8870109339107714e+01  9.9024738581252066e+01  9.8742447852237817e+01  9.8793999427600340e+01  9.9250272179674965e+01  9.9290107273927731e+01  9.9195772793804608e+01  9.5099076341978460e+01  9.9346127547706217e+01  9.5472992770548174e+01  9.9257085139217864e+01  7.3054000933015274e+01  7.5626342694488599e+01  7.3922005220559683e+01  7.0656484474346698e+01  7.8930265750318455e+01  7.7471427518942747e+01  7.4439718621332631e+01  7.2402505152630269e+01  7.5940348436480292e+01  8.3670777621905813e+01  8.0888549283588944e+01  7.9361890170155093e+01  7.6810802337604514e+01  8.2372448195053479e+01  8.0094846087103562e+01  7.8437006487307713e+01  8.1481991023554116e+01  7.7937533330501367e+01  7.5626342693444343e+01  7.4825735856296760e+01  8.0913346205154383e+01  8.3473557316419743e+01  8.0913346206999833e+01  7.8029862041854358e+01  8.5375946902838876e+01  8.2891150152647029e+01  8.0601782691795080e+01  8.7494471078025938e+01  8.5375946901914602e+01  8.3331670236645991e+01  8.3331670236577423e+01  8.5668656618352387e+01  8.6625229792789924e+01  8.8325477576989101e+01  9.1687603872285180e+01  9.2886329445021900e+01  9.0012610943340334e+01  8.8493618924458048e+01  9.0435135135696981e+01  8.4581016197191616e+01  8.6637861473303900e+01  9.0380068211505460e+01  9.1767046647812407e+01  8.8907728659616424e+01  9.4655075903316302e+01  9.5369317475910279e+01  9.9239299524481865e+01  9.9348760921975597e+01  9.6036153284516828e+01  9.5397721805657071e+01  9.9120851551106639e+01  9.3775284559006337e+01  9.4598666995726433e+01  9.9109727762034751e+01  9.9242877033826431e+01  9.8974300548084841e+01  9.5959162897424918e+01  9.9336829483535084e+01  9.9418264696697307e+01  9.9505979772600767e+01  9.6556694362764603e+01  9.9434853038425260e+01  8.1826007677196728e+01  7.9204682016250814e+01  8.2992110063657307e+01  8.7772836138260914e+01  8.6941760281326751e+01  8.0408951391004720e+01  8.4044117683376925e+01  8.5937836461942339e+01  8.6969271381145589e+01  9.0724987421468427e+01  8.9993647490326609e+01  8.8599111669105312e+01  8.5149241910629925e+01  8.9384566351538638e+01  8.4581016199315130e+01  8.2091216855853816e+01  8.6637861473327447e+01  9.0380068211996587e+01  8.8907728660360547e+01  8.6625229792887723e+01  8.8325477575859807e+01  9.0012610942935254e+01  9.2886329444395301e+01  9.1687603871259697e+01  9.0435135135752006e+01  8.8493618924585903e+01  9.1767046647817736e+01  9.0756246090528165e+01  9.2020494335299503e+01  9.4314568957241207e+01  9.5947895287158261e+01  9.4314568957058768e+01  9.3382670346170570e+01  9.3382670346270970e+01  9.5260727817777365e+01  9.6299492705309163e+01  9.6831222025107792e+01  9.9479345426816622e+01  9.9628799276724507e+01  9.7741115387520026e+01  9.7348928991129711e+01  9.9391142646915895e+01  9.9479382839295809e+01  9.9563747621123213e+01  9.9278482862041159e+01  9.7259277898698997e+01  9.9550138968389646e+01  9.9608064174354936e+01  9.9722387039028135e+01  9.8053460646522538e+01  9.9680477317332929e+01  9.3632970419647535e+01  9.4427996477654276e+01  9.4834254013141418e+01  9.9151476278728722e+01  9.9084827430628792e+01  9.8952999613000330e+01  9.4070016808639309e+01  9.2678390425227718e+01  9.8793999427604746e+01  9.8870109339104985e+01  9.9024738581259200e+01  9.3141733237171934e+01  9.5099076338772406e+01  9.9195772793239058e+01  9.9257085138789577e+01  9.9346127547052333e+01  9.5472992768168240e+01  9.4655075903402761e+01  9.5369317475234510e+01  9.6036153284159823e+01  9.9348760921886580e+01  9.9239299524373564e+01  9.9120851551119927e+01  9.5397721805642604e+01  9.3775284559635296e+01  9.8974300548259805e+01  9.9109727762084262e+01  9.9242877033822509e+01  9.4598666995984715e+01  9.5959162895719999e+01  9.9336829483254235e+01  9.9418264696218969e+01  9.9505979772346279e+01  9.9434853038252385e+01  9.6556694361879721e+01  9.6299492705329712e+01  9.6831222024919981e+01  9.7741115387480050e+01  9.9628799276711746e+01  9.9479345426783496e+01  9.9391142646893726e+01  9.7348928990850197e+01  9.9278482861994888e+01  9.9479382839405474e+01  9.9563747621118353e+01  9.7259277898169088e+01  9.9550138968312993e+01  9.9608064174223671e+01  9.9722387038971604e+01  9.9680477317301253e+01  9.8053460646399969e+01  9.8740572692107989e+01  9.8516678649428727e+01  9.9793035806822346e+01  9.9965982280856238e+01  9.9793035806824022e+01  9.9755888312557644e+01  9.9755888312557062e+01  9.9707261290103688e+01  9.9951748674132986e+01  9.9959795875709474e+01  9.9707261289973076e+01  9.8917497514929707e+01  9.9822302258345786e+01  9.9845909192824166e+01  9.9974711428001825e+01  9.9822302258347889e+01  9.9845909192834000e+01  9.9970810442461740e+01  8.5300943217806946e+01  8.2669444968634949e+01  8.2114298401229760e+01  8.0016268782103168e+01  8.4831366331839462e+01  8.3002376485850860e+01  8.0611736731356729e+01  8.3506940445669869e+01  8.8251823998105010e+01  8.6091250283992153e+01  8.5619231594104534e+01  8.3976436209823561e+01  8.7853629400686629e+01  8.6441700790366710e+01  8.4489684902127777e+01  8.6875214807278496e+01  8.7190128600013054e+01  8.4901516167737284e+01  8.3597945063030352e+01  8.1613125161778726e+01  8.6086578714772770e+01  8.4355826003540074e+01  8.3029660208266165e+01  8.5557518257497961e+01  8.9831311593803221e+01  8.7963042457956078e+01  8.6874708293042261e+01  8.5344483569201245e+01  8.8912838081702205e+01  8.7597355670770980e+01  8.6537445007254277e+01  8.8605550786444780e+01  8.7190128609147024e+01  8.8608998106189418e+01  8.6576570200830432e+01  8.4866458907604610e+01  9.0331672491924579e+01  8.8608998102579704e+01  8.7117034306021836e+01  8.7117034308166865e+01  8.5557518263506722e+01  8.9029628960640323e+01  9.2392896180642012e+01  9.0997028066810699e+01  8.9343965028199165e+01  8.8059552063760094e+01  9.0997028058157611e+01  8.9892420755403109e+01  8.9892420760917446e+01  9.1442712582635281e+01  8.9755445752333102e+01  8.8518447311685563e+01  9.0968968051229623e+01  8.9845969800169058e+01  9.2813164698689889e+01  9.3607005295375387e+01  9.4571862495545446e+01  9.2333242831812129e+01  9.1273868485038378e+01  9.2729788121331993e+01  9.1853772346422815e+01  9.3805867033212039e+01  9.4336555869318829e+01  9.4984982789993737e+01  9.2891474395983337e+01  9.2004990422353742e+01  9.5761820653304184e+01  9.3993064551083705e+01  9.3230348778809130e+01  9.4351239526780134e+01  9.3633573042208880e+01  9.5216462028466495e+01  9.6452865933834573e+01  9.6012839679725090e+01  9.6987881315171705e+01  9.6869912028403178e+01  9.6472504460808366e+01  9.7223883471715766e+01  9.6865098483745328e+01  9.9486372352287603e+01  9.9545146032460877e+01  9.9615575011581853e+01  9.7653790497862730e+01  9.7349148945506812e+01  9.9486938917169837e+01  9.9421815781413883e+01  9.9565477884419451e+01  8.8351838597363582e+01  8.7980688489106797e+01  8.6494220037077127e+01  9.1757641347565880e+01  9.1495576323764368e+01  9.0421766780895226e+01  8.6893670165994024e+01  9.0704188944960151e+01  9.0726057082654364e+01  9.0412105796866797e+01  8.9279683738893979e+01  9.3458539219520375e+01  9.3237306643672895e+01  9.2428142602522243e+01  8.9621871509533406e+01  9.2669497978981369e+01  8.7566017187594198e+01  8.8973025334444770e+01  8.9845969791919231e+01  9.2813164691779122e+01  9.2196383695167683e+01  9.1179745509250054e+01  8.8518447306937219e+01  9.1853772342669131e+01  9.0192020447229766e+01  9.1247326240853866e+01  9.1971770389600508e+01  9.4336555854272703e+01  9.3825906854093844e+01  9.3071709488927439e+01  9.0988268221270260e+01  9.3633573031516576e+01  8.9755445749587111e+01  9.0968968046332662e+01  9.2333242829820236e+01  9.4571862493351489e+01  9.3607005290948706e+01  9.2729788118905162e+01  9.1273868484001412e+01  9.3805867031892475e+01  9.2004990414589571e+01  9.2891474384113977e+01  9.3993064546719808e+01  9.5761820648342280e+01  9.4984982780479328e+01  9.4351239519920540e+01  9.3230348775821412e+01  9.5216462024870481e+01  9.3057084711668196e+01  9.3919308601205458e+01  9.5694155078400499e+01  9.6950549129652785e+01  9.5694155077612990e+01  9.5070547784523583e+01  9.5070547784970103e+01  9.6499413565135626e+01  9.4643858517655033e+01  9.5256225849277371e+01  9.6652806380813217e+01  9.7638087448271193e+01  9.6652806378930450e+01  9.6214878201911034e+01  9.6214878203116925e+01  9.7324862654434213e+01  9.7610390996014047e+01  9.8307505514282354e+01  9.7902276797596031e+01  9.8146939124766675e+01  9.9696371564664716e+01  9.9785734509323930e+01  9.8692356416958930e+01  9.8517347614872435e+01  9.9656135143937604e+01  9.9756953523782485e+01  9.8352306935662511e+01  9.8838700034066591e+01  9.9809779648352531e+01  9.9829721797403110e+01  9.9730111330020634e+01  9.5428003568769981e+01  9.5282849200662397e+01  9.4678801998352753e+01  9.9250272178620378e+01  9.9226483604399220e+01  9.9126867671140175e+01  9.4835377299853405e+01  9.9152530835605489e+01  9.6379371822239975e+01  9.6257004822153363e+01  9.5805215477830274e+01  9.9406811046282428e+01  9.9386766450879577e+01  9.9312484833805485e+01  9.5938797975001791e+01  9.9334368361405595e+01  9.5671058879001876e+01  9.6012839675599750e+01  9.9290107273003585e+01  9.6161434649796519e+01  9.6582588726761813e+01  9.6865098475608420e+01  9.9486372350992653e+01  9.9440095216218069e+01  9.9370846929487584e+01  9.6472504454700740e+01  9.9421815780417333e+01  9.6452865931045153e+01  9.6987881313582278e+01  9.6869912024109695e+01  9.7223883465991605e+01  9.7653790494308865e+01  9.9615575011006030e+01  9.9545146031480215e+01  9.9486938916454022e+01  9.7349148943013034e+01  9.9565477883972889e+01  9.7523903270958144e+01  9.9594432114256250e+01  9.9657783271593374e+01  9.9693018529684977e+01  9.7910707682270015e+01  9.7610390995290615e+01  9.8307505514064289e+01  9.7902276796449797e+01  9.8146939122855827e+01  9.8692356416353789e+01  9.9785734509201617e+01  9.9696371564280383e+01  9.9656135143720746e+01  9.8517347614543525e+01  9.9756953523703032e+01  9.8352306931492251e+01  9.9730111329310006e+01  9.9758177942009183e+01  9.9829721796427052e+01  9.9809779648059802e+01  9.8838700032827759e+01  9.9060576870741826e+01  9.9178227788934592e+01  9.9276018327194578e+01  9.9881370607683294e+01  9.9980550566005491e+01  9.9881370607649387e+01  9.9865287749037265e+01  9.9865287749043048e+01  9.9977903220725537e+01  9.9357576421062717e+01  9.9894770854237038e+01  9.9905862835293718e+01  9.9984581147988379e+01  9.9894770854274086e+01  9.9905862835370598e+01  9.9982754116745014e+01  9.0465172373974823e+01  9.0130334946420703e+01  8.9080970000452638e+01  8.7054076957329912e+01  8.9445906945537459e+01  8.7487107502093252e+01  9.0050101338399955e+01  8.8203988451017949e+01  9.0886490454980901e+01  9.1781922347172355e+01  8.9196185611235535e+01  9.1943352185726567e+01  9.0449703190541499e+01  9.2743451400795337e+01  9.3885256112239148e+01  9.3202939819628085e+01  9.1943352197655472e+01  9.4640337584882801e+01  9.3647518746604746e+01  9.5183671840172806e+01  9.6608880800545109e+01  9.5523487323503304e+01  9.4936830328527535e+01  9.5443111667093930e+01  9.5975971211591670e+01  9.6222919044655910e+01  9.7523903278224182e+01  9.7199502586388803e+01  9.7775523722918649e+01  9.7481017924105430e+01  9.9587515377153665e+01  9.9635735429653124e+01  9.9693018530931226e+01  9.8125351060310948e+01  9.7910707687397888e+01  9.9594432115524341e+01  9.9541304079406629e+01  9.9657783272494143e+01  9.2490938519495757e+01  9.2227389544603128e+01  9.1392195683667879e+01  9.4713614538315895e+01  9.4528156394702393e+01  9.3935107946550175e+01  9.1679657299510637e+01  9.4137522020672179e+01  9.2917397489657446e+01  9.2155645402629403e+01  9.4472706257824342e+01  9.2814649218693361e+01  9.4936830310363945e+01  9.5443111645656714e+01  9.3647518733535094e+01  9.5523487311696698e+01  9.5975971200156238e+01  9.6608880790677162e+01  9.4640337578987968e+01  9.5183671828522833e+01  9.6222919037841919e+01  9.5773515026594907e+01  9.6206230791054196e+01  9.7328766704364739e+01  9.8119105212763529e+01  9.7328766704452903e+01  9.7021354597310307e+01  9.7021354600093105e+01  9.7900694610709820e+01  9.6558817693118357e+01  9.8960179026687570e+01  9.9758177942789587e+01  9.6645671354285298e+01  9.6757571346951281e+01  9.9468931483462228e+01  9.9450607457927575e+01  9.9521507613555642e+01  9.6942883269089577e+01  9.9499278543045804e+01  9.9549231647332846e+01  9.9587515374483971e+01  9.7199502576284743e+01  9.7481017912589451e+01  9.9541304077720739e+01  9.7775523714368219e+01  9.8125351054152773e+01  9.9635735428042722e+01  9.7980948320052292e+01  9.9669436333872099e+01  9.9721684896789668e+01  9.8300089585780299e+01  9.8523279411718136e+01  9.8960179024950406e+01  9.8662100123236144e+01  9.9780953204822183e+01  9.9845869789216906e+01  9.9058604036462782e+01  9.9425145047756700e+01  9.9479811222404877e+01  9.9914831854438333e+01  9.9986050294596481e+01  9.9914831855060982e+01  9.5671058884562513e+01  9.9406811048178653e+01  9.9440095217895973e+01  9.6582588737259940e+01  9.6161434657700013e+01  9.9370846930803481e+01  9.9334368362951992e+01  9.9521507616289895e+01  9.9549231650223049e+01  9.7247214769964899e+01  9.6942883280933543e+01  9.9499278545105298e+01  9.9468931485809406e+01  </DataArray> 
</PointData> 
</Piece>
</UnstructuredGrid>
</VTKFile>