<?xml version="1.0"?>
<VTKFile type="UnstructuredGrid"  version="0.1"  >
<UnstructuredGrid>
<Piece  NumberOfPoints="573" NumberOfCells="2340">
<Points>
<DataArray  type="Float64"  NumberOfComponents="3"  format="ascii">10 25 40  10 27.5 40  10 27.5 37.5  7.5 27.5 37.5  10 30 40  5 25 40  7.5 27.5 40  7.5 25 40  15 30 40  15 30 37.5  15 27.5 37.5  12.5 27.5 37.5  15 27.5 40  12.5 27.5 40  12.5 30 40  17.5 30 40  17.5 27.5 40  17.5 27.5 37.5  17.5 30 37.5  5 30 45  5 27.5 45  5 27.5 42.5  2.5 27.5 42.5  2.5 27.5 45  0 30 45  2.5 30 45  0 27.5 45  0 27.5 42.5  7.5 27.5 42.5  10 27.5 42.5  10 30 42.5  10 30 45  10 27.5 45  7.5 27.5 45  7.5 30 45  15 30 42.5  15 27.5 42.5  12.5 27.5 42.5  15 30 45  15 27.5 45  12.5 27.5 45  12.5 30 42.5  12.5 30 45  20 30 45  20 27.5 45  17.5 27.5 45  17.5 27.5 42.5  17.5 30 42.5  17.5 30 45  5 30 47.5  5 27.5 47.5  2.5 27.5 47.5  5 30 50  5 27.5 50  2.5 27.5 50  2.5 30 47.5  0 30 50  2.5 30 50  0 27.5 50  0 27.5 47.5  0 30 47.5  10 30 47.5  10 27.5 47.5  7.5 27.5 47.5  10 30 50  10 27.5 50  7.5 27.5 50  7.5 30 47.5  7.5 30 50  15 30 47.5  15 27.5 47.5  12.5 27.5 47.5  15 30 50  15 27.5 50  12.5 27.5 50  12.5 30 47.5  12.5 30 50  20 30 47.5  20 27.5 47.5  17.5 27.5 47.5  20 30 50  20 27.5 50  17.5 27.5 50  17.5 30 47.5  17.5 30 50  0 40 35  2.5 42.5 35  2.5 40 35  2.5 42.5 32.5  5 40 35  5 42.5 35  5 45 35  0 42.5 35  0 45 35  2.5 45 35  2.5 47.5 35  2.5 47.5 32.5  5 47.5 35  5 50 35  0 47.5 35  0 47.5 32.5  0 50 35  2.5 50 35  5 30 35  5 30 37.5  5 27.5 37.5  2.5 27.5 37.5  5 30 40  5 25 35  5 25 37.5  5 27.5 40  2.5 27.5 40  2.5 30 37.5  0 30 40  2.5 30 40  0 27.5 40  0 27.5 37.5  0 30 35  0 30 37.5  10 30 37.5  7.5 30 37.5  7.5 30 40  12.5 30 37.5  5 35 35  5 35 37.5  5 32.5 37.5  2.5 32.5 37.5  5 35 40  5 32.5 40  2.5 32.5 40  2.5 35 37.5  0 32.5 37.5  0 32.5 40  0 35 40  2.5 35 40  0 32.5 35  0 35 35  0 35 37.5  10 35 40  10 35 37.5  10 32.5 37.5  7.5 32.5 37.5  10 32.5 40  7.5 32.5 40  7.5 35 37.5  7.5 35 40  15 35 35  15 35 37.5  15 32.5 37.5  12.5 32.5 37.5  15 35 40  15 32.5 40  12.5 32.5 40  12.5 35 37.5  12.5 35 40  5 37.5 37.5  5 37.5 35  2.5 37.5 37.5  5 40 37.5  5 40 40  5 37.5 40  2.5 37.5 40  2.5 40 37.5  0 37.5 37.5  0 37.5 40  0 40 40  2.5 40 40  0 37.5 35  0 40 37.5  10 40 40  10 40 37.5  10 37.5 37.5  7.5 37.5 37.5  10 37.5 40  7.5 37.5 40  7.5 40 37.5  7.5 40 40  2.5 42.5 37.5  5 42.5 37.5  5 45 37.5  5 45 40  5 42.5 40  2.5 42.5 40  2.5 45 37.5  0 42.5 37.5  0 42.5 40  0 45 40  2.5 45 40  0 45 37.5  10 45 35  10 45 37.5  10 42.5 37.5  7.5 42.5 37.5  10 45 40  10 42.5 40  7.5 42.5 40  7.5 45 37.5  7.5 45 35  7.5 45 40  2.5 47.5 37.5  5 47.5 37.5  5 50 37.5  5 50 40  5 47.5 40  2.5 47.5 40  2.5 50 37.5  0 47.5 37.5  0 47.5 40  0 50 40  2.5 50 40  0 50 37.5  7.5 47.5 37.5  7.5 47.5 35  10 47.5 37.5  10 47.5 35  10 50 35  10 50 37.5  10 50 40  10 47.5 40  7.5 47.5 40  7.5 50 37.5  7.5 50 35  7.5 50 40  15 50 40  15 50 37.5  12.5 50 37.5  12.5 47.5 37.5  12.5 47.5 40  12.5 50 40  5 30 42.5  2.5 30 42.5  0 30 42.5  7.5 30 42.5  2.5 32.5 42.5  5 32.5 42.5  5 35 42.5  5 35 45  5 32.5 45  2.5 32.5 45  2.5 35 42.5  0 32.5 42.5  0 32.5 45  0 35 45  2.5 35 45  0 35 42.5  7.5 32.5 42.5  10 32.5 42.5  10 35 42.5  10 35 45  10 32.5 45  7.5 32.5 45  7.5 35 42.5  7.5 35 45  2.5 37.5 42.5  5 37.5 42.5  5 40 42.5  5 40 45  5 37.5 45  2.5 37.5 45  2.5 40 42.5  0 37.5 42.5  0 37.5 45  0 40 45  2.5 40 45  0 40 42.5  7.5 37.5 42.5  10 37.5 42.5  10 40 42.5  10 40 45  10 37.5 45  7.5 37.5 45  7.5 40 42.5  7.5 40 45  2.5 42.5 42.5  5 42.5 42.5  5 45 42.5  5 45 45  5 42.5 45  2.5 42.5 45  2.5 45 42.5  0 42.5 42.5  0 42.5 45  0 45 45  2.5 45 45  0 45 42.5  7.5 42.5 42.5  10 42.5 42.5  10 45 42.5  10 45 45  10 42.5 45  7.5 42.5 45  7.5 45 42.5  7.5 45 45  2.5 47.5 42.5  5 47.5 42.5  5 50 42.5  5 50 45  5 47.5 45  2.5 47.5 45  2.5 50 42.5  0 47.5 42.5  0 47.5 45  0 50 45  2.5 50 45  0 50 42.5  7.5 47.5 42.5  10 47.5 42.5  10 50 42.5  10 50 45  10 47.5 45  7.5 47.5 45  7.5 50 42.5  7.5 50 45  12.5 47.5 42.5  12.5 50 42.5  15 50 42.5  15 50 45  12.5 47.5 45  12.5 50 45  2.5 32.5 47.5  5 32.5 47.5  5 35 47.5  5 35 50  5 32.5 50  2.5 32.5 50  2.5 35 47.5  0 32.5 47.5  0 32.5 50  0 35 50  2.5 35 50  0 35 47.5  7.5 32.5 47.5  10 32.5 47.5  10 35 47.5  10 35 50  10 32.5 50  7.5 32.5 50  7.5 35 47.5  7.5 35 50  2.5 37.5 47.5  5 37.5 47.5  5 40 47.5  5 40 50  5 37.5 50  2.5 37.5 50  2.5 40 47.5  0 37.5 47.5  0 37.5 50  0 40 50  2.5 40 50  0 40 47.5  7.5 37.5 47.5  10 37.5 47.5  10 40 47.5  10 40 50  10 37.5 50  7.5 37.5 50  7.5 40 47.5  7.5 40 50  2.5 42.5 47.5  5 42.5 47.5  5 45 47.5  5 45 50  5 42.5 50  2.5 42.5 50  2.5 45 47.5  0 42.5 47.5  0 42.5 50  0 45 50  2.5 45 50  0 45 47.5  7.5 42.5 47.5  10 42.5 47.5  10 45 47.5  10 45 50  10 42.5 50  7.5 42.5 50  7.5 45 47.5  7.5 45 50  2.5 47.5 47.5  5 47.5 47.5  5 50 47.5  5 50 50  5 47.5 50  2.5 47.5 50  2.5 50 47.5  0 47.5 47.5  0 47.5 50  0 50 50  2.5 50 50  0 50 47.5  7.5 47.5 47.5  10 47.5 47.5  10 50 47.5  10 50 50  10 47.5 50  7.5 47.5 50  7.5 50 47.5  7.5 50 50  12.5 47.5 47.5  12.5 50 47.5  15 50 47.5  15 50 50  12.5 47.5 50  12.5 50 50  17.5 32.5 40  17.5 32.5 37.5  17.5 35 40  17.5 35 37.5  15 37.5 37.5  15 37.5 35  12.5 37.5 37.5  15 40 35  15 40 37.5  15 40 40  15 37.5 40  12.5 37.5 40  12.5 40 37.5  12.5 40 40  17.5 37.5 37.5  17.5 37.5 40  20 40 40  20 40 37.5  17.5 40 37.5  17.5 40 40  15 45 40  15 45 37.5  15 42.5 37.5  12.5 42.5 37.5  15 42.5 40  12.5 42.5 40  12.5 45 37.5  12.5 45 40  20 45 40  20 45 37.5  20 42.5 37.5  17.5 42.5 37.5  20 42.5 40  17.5 42.5 40  17.5 45 37.5  17.5 45 40  15 47.5 37.5  15 47.5 40  20 50 40  20 50 37.5  20 47.5 37.5  17.5 47.5 37.5  20 47.5 40  17.5 47.5 40  17.5 50 37.5  17.5 50 40  12.5 32.5 42.5  15 32.5 42.5  15 35 42.5  15 35 45  15 32.5 45  12.5 32.5 45  12.5 35 42.5  12.5 35 45  17.5 32.5 42.5  17.5 32.5 45  20 32.5 45  20 35 45  17.5 35 42.5  17.5 35 45  12.5 37.5 42.5  15 37.5 42.5  15 40 42.5  15 40 45  15 37.5 45  12.5 37.5 45  12.5 40 42.5  12.5 40 45  17.5 37.5 42.5  17.5 37.5 45  20 37.5 45  20 40 45  17.5 40 42.5  20 40 42.5  17.5 40 45  12.5 42.5 42.5  15 42.5 42.5  15 45 42.5  15 45 45  15 42.5 45  12.5 42.5 45  12.5 45 42.5  12.5 45 45  17.5 42.5 42.5  20 42.5 42.5  20 45 42.5  20 45 45  20 42.5 45  17.5 42.5 45  17.5 45 42.5  17.5 45 45  22.5 42.5 42.5  22.5 42.5 45  22.5 45 45  22.5 45 42.5  15 47.5 42.5  15 47.5 45  17.5 47.5 42.5  20 47.5 42.5  20 50 42.5  20 50 45  20 47.5 45  17.5 47.5 45  17.5 50 42.5  17.5 50 45  22.5 47.5 42.5  22.5 47.5 45  12.5 32.5 47.5  15 32.5 47.5  15 35 47.5  15 35 50  15 32.5 50  12.5 32.5 50  12.5 35 47.5  12.5 35 50  17.5 32.5 47.5  20 32.5 47.5  20 35 47.5  20 35 50  20 32.5 50  17.5 32.5 50  17.5 35 47.5  17.5 35 50  12.5 37.5 47.5  15 37.5 47.5  15 40 47.5  15 40 50  15 37.5 50  12.5 37.5 50  12.5 40 47.5  12.5 40 50  17.5 37.5 47.5  20 37.5 47.5  20 40 47.5  20 40 50  20 37.5 50  17.5 37.5 50  17.5 40 47.5  17.5 40 50  12.5 42.5 47.5  15 42.5 47.5  15 45 47.5  15 45 50  15 42.5 50  12.5 42.5 50  12.5 45 47.5  12.5 45 50  17.5 42.5 47.5  20 42.5 47.5  20 45 47.5  20 45 50  20 42.5 50  17.5 42.5 50  17.5 45 47.5  17.5 45 50  22.5 42.5 47.5  22.5 45 47.5  15 47.5 47.5  15 47.5 50  17.5 47.5 47.5  20 47.5 47.5  20 50 47.5  20 50 50  20 47.5 50  17.5 47.5 50  17.5 50 47.5  17.5 50 50  22.5 47.5 47.5  </DataArray>
</Points>
<Cells>
[...]
<PointData  Scalars="p_O2"> 
<DataArray  type="Float64"  Name="p_O2"  format="ascii">6.0826464970785800e+01  6.0961056134999126e+01  5.6964100294265698e+01  5.2457987942247208e+01  6.1387197281974970e+01  5.0383644492556257e+01  5.5920137124612715e+01  5.5817346851641901e+01  6.9951649374995213e+01  6.5845032528627740e+01  6.5205212728807695e+01  6.1243696481700212e+01  6.9402568827002355e+01  6.5452315620399844e+01  6.5953085016721047e+01  7.3438146672752097e+01  7.2865952009927014e+01  6.8819150480834253e+01  6.9487870834163175e+01  6.2247842723902124e+01  6.2124723889345738e+01  5.4709091082118285e+01  4.7251016528590611e+01  5.1913404200894874e+01  4.0000000000000000e+01  5.1972795269621201e+01  4.0000000000000000e+01  4.0000000000000000e+01  6.1273584372840340e+01  6.6707573015410475e+01  6.7050769029097253e+01  7.4944738943401944e+01  7.4699319029680083e+01  6.9462343306519941e+01  6.9652353488665256e+01  7.5291109260772885e+01  7.4851221855323075e+01  7.1163238321572734e+01  8.1929127138949013e+01  8.1615235246811210e+01  7.8592417128043977e+01  7.1565818873807473e+01  7.8880605693605773e+01  8.6378276259242455e+01  8.6053057202084247e+01  8.4046099194127407e+01  7.7945916877774778e+01  7.8403134260855353e+01  8.4371793264279489e+01  7.5233773028068669e+01  7.5166980844819008e+01  6.3329622562717077e+01  9.5461653932479152e+01  9.5537256347628585e+01  9.3134517321293799e+01  6.2993837889190878e+01  4.0000000000000000e+01  9.2087444008879217e+01  4.0000000000000000e+01  4.0000000000000000e+01  4.0000000000000000e+01  8.5290839014362135e+01  8.5153158524852344e+01  8.1405268115309411e+01  9.7524905391137978e+01  9.7503129808834203e+01  9.6816173285290219e+01  8.1514591505856757e+01  9.6828683993113486e+01  8.9733077950791156e+01  8.9557748309235905e+01  8.7689976366146539e+01  9.8299065439920568e+01  9.8270345993494075e+01  9.7949948607743323e+01  8.7851724416519545e+01  9.7976196296266124e+01  9.2364649269927696e+01  9.2183660915632927e+01  9.1010130350653398e+01  9.8742447852362275e+01  9.8712754126980968e+01  9.8516119178356163e+01  9.1191754511527080e+01  9.8545885585282349e+01  4.0000000000000000e+01  4.7759452483376208e+01  4.5545878118074825e+01  4.7488366311768075e+01  5.1768136715156899e+01  5.5786323664987322e+01  6.2906438368471100e+01  4.0000000000000000e+01  4.0000000000000000e+01  5.2287978911553637e+01  6.3172651413184333e+01  6.3426577756537945e+01  7.5606639431237284e+01  9.5523407741333756e+01  4.0000000000000000e+01  4.0000000000000000e+01  4.0000000000000000e+01  9.2117042789905042e+01  4.6627497904796982e+01  4.8157912059163415e+01  4.7911375025141396e+01  4.3632023927923797e+01  5.0664204176661883e+01  4.6270756862748250e+01  4.7834316917660459e+01  5.0449187146575611e+01  4.4920533383280031e+01  4.3746571081322600e+01  4.0000000000000000e+01  4.5020213273104133e+01  4.0000000000000000e+01  4.0000000000000000e+01  4.0000000000000000e+01  4.0000000000000000e+01  5.7457336617410590e+01  5.2835541757512814e+01  5.6247327048665426e+01  6.1825274904937977e+01  4.8001614981135255e+01  4.9416625866974137e+01  4.8624943604203608e+01  4.3966267753077432e+01  5.1768136715737398e+01  5.1070407422609193e+01  4.5211999970485934e+01  4.4344577881889528e+01  4.0000000000000000e+01  4.0000000000000000e+01  4.0000000000000000e+01  4.5545878118301168e+01  4.0000000000000000e+01  4.0000000000000000e+01  4.0000000000000000e+01  6.3441614441917423e+01  5.9818777271460498e+01  5.8362292829853800e+01  5.3541701224340052e+01  6.2171236842613595e+01  5.6861053658182605e+01  5.4708488545642680e+01  5.7883736281570222e+01  6.5986010232607100e+01  6.8712119866706331e+01  6.6979533855664343e+01  6.2874329710208535e+01  7.2423341318520144e+01  7.0927533985195140e+01  6.6858710555844681e+01  6.4516499015730076e+01  6.8283576082301920e+01  5.0729409133548863e+01  4.9416625866913201e+01  4.4989963706556104e+01  5.2935270473011116e+01  5.4931151550150922e+01  5.2935270473295063e+01  4.6122227767864864e+01  4.6122227767760172e+01  4.0000000000000000e+01  4.0000000000000000e+01  4.0000000000000000e+01  4.7152366287834091e+01  4.0000000000000000e+01  4.0000000000000000e+01  6.8380299272527012e+01  6.5405100335440054e+01  6.2053332051292642e+01  5.6574002205769865e+01  6.5405100336829832e+01  5.9533691682041130e+01  5.9533691681127920e+01  6.2186346971459947e+01  4.8245950577616085e+01  5.6759215618963978e+01  6.3627960379578354e+01  6.4901604892811477e+01  5.8449424494052806e+01  4.9121598332957859e+01  5.2645382571114681e+01  4.0000000000000000e+01  4.0000000000000000e+01  4.0000000000000000e+01  5.3315608562224909e+01  4.0000000000000000e+01  7.6150983668877799e+01  7.7329124570577164e+01  7.0331987779677917e+01  6.4238322264135036e+01  7.9149733495218527e+01  7.2800943725321872e+01  6.6463210954112512e+01  7.1625036168657076e+01  7.0621406291139948e+01  7.3285007088228369e+01  6.3747691825573611e+01  7.6022712050732835e+01  9.5679177332118229e+01  9.5716911500686109e+01  7.6761369391682948e+01  6.3771372022686990e+01  9.3203916160452778e+01  4.0000000000000000e+01  4.0000000000000000e+01  4.0000000000000000e+01  9.2217399021084390e+01  4.0000000000000000e+01  8.2631813300626177e+01  8.2061892407660054e+01  8.6638207568353891e+01  8.5970007618651508e+01  9.7637029717513158e+01  9.7748498654903045e+01  9.7920656947561284e+01  8.7679479772848637e+01  8.3592045252900377e+01  9.7019182364940178e+01  9.6919114695868316e+01  9.7173849493575943e+01  9.8708597211608776e+01  9.8546667188451224e+01  9.8218618363771952e+01  8.9318946756936413e+01  9.0355362130771852e+01  9.8389873711990120e+01  5.4882290305769239e+01  4.7327774042953017e+01  4.0000000000000000e+01  6.1537355319629583e+01  4.7488366311812285e+01  5.5214020164994587e+01  5.5786323665656852e+01  6.2906438369098119e+01  6.2489885472351119e+01  5.2085307846152077e+01  4.7759452483616165e+01  4.0000000000000000e+01  4.0000000000000000e+01  4.0000000000000000e+01  5.2287978911904453e+01  4.0000000000000000e+01  6.2036419238592693e+01  6.7685451238818473e+01  6.8719427317693842e+01  7.6150983669967530e+01  7.5402834000513067e+01  7.0012652909787789e+01  6.2872546439587381e+01  7.0621406292134054e+01  4.8245950577791753e+01  5.6759215619394638e+01  5.8449424494266104e+01  6.4901604892912616e+01  6.3627960379951915e+01  5.2645382571268556e+01  4.9121598333054465e+01  4.0000000000000000e+01  4.0000000000000000e+01  4.0000000000000000e+01  5.3315608562313884e+01  4.0000000000000000e+01  6.4238322265146095e+01  7.0331987781050074e+01  7.2800943725784549e+01  7.9149733495729024e+01  7.7329124571580081e+01  7.1625036169324986e+01  6.6463210954469702e+01  7.3285007088585544e+01  5.0861140719940096e+01  6.1505573229341564e+01  6.7269555713506421e+01  7.1896209153735199e+01  6.7269555713570767e+01  5.4676759106127491e+01  5.4676759106104193e+01  4.0000000000000000e+01  4.0000000000000000e+01  4.0000000000000000e+01  5.7844569822410513e+01  4.0000000000000000e+01  7.0117618134340844e+01  7.6517261937645443e+01  8.1927453381665146e+01  8.6027435867420039e+01  8.1927453381840721e+01  7.6062517593588808e+01  7.6062517593487726e+01  8.0689442036494981e+01  6.4968054179761509e+01  7.8176633425134995e+01  9.6042980206922309e+01  9.6451166735186234e+01  8.1040384841126254e+01  6.6628600006145859e+01  9.3411735205883204e+01  4.0000000000000000e+01  4.0000000000000000e+01  4.0000000000000000e+01  9.2718580091804299e+01  4.0000000000000000e+01  8.5218414661101036e+01  8.9284341649401540e+01  9.8189313013830798e+01  9.8590353226381922e+01  9.1683064409934147e+01  8.7992833421677773e+01  9.7452504212603927e+01  9.7918281730922061e+01  9.1830947062451600e+01  9.8635166379735139e+01  9.8926886723883854e+01  9.9207074281372797e+01  9.3847926908869297e+01  9.8970874983165132e+01  6.3426577756576492e+01  7.5372662744314908e+01  7.5606639431698184e+01  9.5523407741407198e+01  9.5571207330336662e+01  9.3150522529284302e+01  6.3172651413330939e+01  4.0000000000000000e+01  4.0000000000000000e+01  4.0000000000000000e+01  9.2117042789924994e+01  4.0000000000000000e+01  8.1714744619391666e+01  8.5547932233650101e+01  8.5970007619509303e+01  9.7637029717627627e+01  9.7568181021937519e+01  9.6867209816395629e+01  8.2061892408177087e+01  9.6919114695988256e+01  6.3747691825664987e+01  7.6022712050989696e+01  7.6761369391829831e+01  9.5716911500702480e+01  9.5679177332161586e+01  9.3203916160472147e+01  6.3771372022747073e+01  4.0000000000000000e+01  4.0000000000000000e+01  4.0000000000000000e+01  9.2217399021095773e+01  4.0000000000000000e+01  8.2631813300997692e+01  8.6638207568993906e+01  8.7679479773218219e+01  9.7920656947623044e+01  9.7748498655015709e+01  9.7019182365009058e+01  8.3592045253132582e+01  9.7173849493617467e+01  6.4968054179698896e+01  7.8176633425183610e+01  8.1040384841137495e+01  9.6451166735187101e+01  9.6042980206931588e+01  9.3411735205884440e+01  6.6628600006135599e+01  4.0000000000000000e+01  4.0000000000000000e+01  4.0000000000000000e+01  9.2718580091803659e+01  4.0000000000000000e+01  8.5218414661154398e+01  8.9284341649577499e+01  9.1683064409970058e+01  9.8590353226396573e+01  9.8189313013860669e+01  9.7452504212621150e+01  8.7992833421698080e+01  9.7918281730926893e+01  7.3571179698290507e+01  8.7003107380146517e+01  9.7600038884227615e+01  9.9447460949311235e+01  9.7600038884227232e+01  9.4991037768637199e+01  9.4991037768637923e+01  4.0000000000000000e+01  4.0000000000000000e+01  4.0000000000000000e+01  9.8549699179522236e+01  4.0000000000000000e+01  9.2474896609599710e+01  9.5031132663674185e+01  9.9157070466336194e+01  9.9857463282623058e+01  9.9157070466338226e+01  9.8692599022111409e+01  9.8692599022113029e+01  9.9771312828114191e+01  9.6421350439957095e+01  9.9400893812979362e+01  9.9546201055381161e+01  9.9924745445095539e+01  9.9400893812975085e+01  9.9899575655881662e+01  7.4439718621332631e+01  7.0656484474346698e+01  7.5940348436480292e+01  7.2402505152630269e+01  7.1185623292335379e+01  6.8712119865823169e+01  6.6941912647884095e+01  7.2423341316907212e+01  7.4568488964377664e+01  7.7518014138884865e+01  7.4568488965431570e+01  7.0400424659601157e+01  7.0400424658001725e+01  7.3441670493823821e+01  7.4825735856296760e+01  7.8029862041854358e+01  8.3473557316419743e+01  8.0913346205154383e+01  7.8029862039672750e+01  8.0803419999805641e+01  8.6347949236186679e+01  8.4608191717628316e+01  7.9017769838048125e+01  7.5175562071576024e+01  8.1419501132659633e+01  7.7674150051770312e+01  8.1488279193098521e+01  8.3313461269371643e+01  9.0380068211505460e+01  8.8907728659616424e+01  8.4581016197191616e+01  8.2091216854286060e+01  8.6637861473303900e+01  8.4333034987773431e+01  8.7011561628986726e+01  8.8624908406725709e+01  9.1235489694563285e+01  9.2216945447524111e+01  9.9109727762034751e+01  9.8974300548084841e+01  9.3775284559006337e+01  9.2667582256686188e+01  9.4598666995726433e+01  9.3573315039965593e+01  9.8788755022689102e+01  9.8937954145678617e+01  7.2295778135491489e+01  7.6074954475816753e+01  7.7280573844060015e+01  8.3355632624847956e+01  8.2490349031844460e+01  7.9404707171586466e+01  7.3450046735296183e+01  8.0236940601845518e+01  7.9204682016250814e+01  8.4943745779807116e+01  8.6941760281326751e+01  8.7772836138260914e+01  8.0408951391004720e+01  8.5804938225167049e+01  7.5175562072976632e+01  7.9017769840108357e+01  8.1419501133253931e+01  8.6347949236884816e+01  8.4608191719033357e+01  8.1488279194615913e+01  7.7674150052309173e+01  8.3313461269970801e+01  8.2091216855853816e+01  8.7011561630469572e+01  8.8907728660360547e+01  9.0380068211996587e+01  8.4333034988263179e+01  8.6637861473327447e+01  8.8624908407332242e+01  8.1181652794407725e+01  8.4615448867394889e+01  8.8676529552606567e+01  9.1651103668477518e+01  8.8676529552838886e+01  8.5897584461754477e+01  8.5897584461543687e+01  8.9402538205089613e+01  8.7197287708647380e+01  8.9186954588048522e+01  9.2209399277442600e+01  9.4383095824858785e+01  9.2209399277498846e+01  9.0693896156097637e+01  9.0693896155929636e+01  9.3228264989329830e+01  9.0756246090528165e+01  9.3382670346170570e+01  9.5260727817777365e+01  9.3382670346270970e+01  9.3535722102378614e+01  9.5227795713843975e+01  9.4737625901781428e+01  9.5623344508250653e+01  9.9278482862041159e+01  9.9479382839295809e+01  9.6843003847411282e+01  9.6167827862811649e+01  9.9130081243641925e+01  9.9366262249279174e+01  9.6299492705309163e+01  9.7348928991129711e+01  8.8144828737634327e+01  9.0046725783093038e+01  9.0531657127409787e+01  9.8430524905204990e+01  9.8350771717968527e+01  9.8024825494244368e+01  8.8613163016459936e+01  9.8101684825242017e+01  9.1510721418505739e+01  9.2678390425227718e+01  9.3141733237171934e+01  9.8870109339104985e+01  9.8793999427604746e+01  9.8598385713872034e+01  9.1992059554275997e+01  9.8677485850546844e+01  8.9318946758145245e+01  9.1235489695672399e+01  9.2216945447999692e+01  9.8708597211695945e+01  9.8546667188778841e+01  9.8218618363920996e+01  9.0355362131240923e+01  9.8389873712076721e+01  9.2667582257505529e+01  9.3775284559635296e+01  9.4598666995984715e+01  9.9109727762084262e+01  9.8974300548259805e+01  9.8788755022776627e+01  9.3573315040431240e+01  9.8937954145776729e+01  9.1830947062799467e+01  9.3535722102621023e+01  9.5227795713884959e+01  9.9207074281397240e+01  9.8926886723929044e+01  9.8635166379779378e+01  9.3847926908929395e+01  9.8970874983182156e+01  9.4737625902027730e+01  9.5623344508358613e+01  9.6843003847452408e+01  9.9479382839405474e+01  9.9278482861994888e+01  9.9130081243681630e+01  9.6167827862870894e+01  9.9366262249289292e+01  9.6299492705329712e+01  9.7348928990850197e+01  9.7269326734776470e+01  9.9546201055384870e+01  9.7829965164089202e+01  9.8224935837116178e+01  9.9707261289973076e+01  9.9951748674132986e+01  9.9707261290103688e+01  9.9641050762129865e+01  9.9641050762134299e+01  9.9940571925130271e+01  9.8516678649428727e+01  </DataArray> 
</PointData> 
</Piece>
</UnstructuredGrid>
</VTKFile>