<?xml version="1.0"?>
<VTKFile type="UnstructuredGrid"  version="0.1"  >
<UnstructuredGrid>
<Piece  NumberOfPoints="584" NumberOfCells="2390">
<Points>
<DataArray  type="Float64"  NumberOfComponents="3"  format="ascii">30 25 20  32.5 27.5 22.5  32.5 25 22.5  32.5 25 20  35 25 20  35 27.5 22.5  35 25 22.5  35 25 25  35 27.5 25  35 30 25  30 25 22.5  30 25 25  32.5 27.5 25  32.5 25 25  30 27.5 25  30 30 25  32.5 30 25  37.5 27.5 22.5  37.5 27.5 25  32.5 27.5 27.5  35 27.5 27.5  37.5 27.5 27.5  30 25 10  30 22.5 10  30 22.5 7.5  27.5 22.5 7.5  27.5 22.5 10  35 25 10  35 22.5 10  35 22.5 7.5  32.5 22.5 7.5  32.5 22.5 10  32.5 25 10  37.5 25 10  37.5 22.5 10  37.5 22.5 7.5  40 25 10  30 25 12.5  30 22.5 12.5  27.5 22.5 12.5  30 25 15  30 22.5 15  27.5 22.5 15  27.5 25 15  35 25 12.5  35 22.5 12.5  32.5 22.5 12.5  35 25 15  35 22.5 15  32.5 22.5 15  32.5 25 12.5  32.5 25 15  37.5 25 12.5  37.5 22.5 12.5  40 25 12.5  40 25 15  37.5 25 15  37.5 22.5 15  30 25 17.5  30 22.5 17.5  27.5 22.5 17.5  27.5 25 17.5  35 25 17.5  35 22.5 17.5  32.5 22.5 17.5  32.5 25 17.5  37.5 25 17.5  37.5 22.5 17.5  40 25 17.5  40 25 20  37.5 25 20  40 25 0  40 25 2.5  40 22.5 2.5  37.5 22.5 2.5  40 25 5  40 22.5 5  37.5 22.5 5  45 25 0  45 25 2.5  45 22.5 2.5  42.5 22.5 2.5  45 22.5 0  42.5 22.5 0  45 25 5  45 22.5 5  42.5 22.5 5  42.5 25 2.5  42.5 25 0  42.5 25 5  50 20 0  50 22.5 2.5  50 22.5 0  47.5 22.5 2.5  47.5 22.5 0  50 25 0  50 25 2.5  50 25 5  50 22.5 5  47.5 22.5 5  47.5 25 2.5  47.5 25 0  47.5 25 5  40 25 7.5  40 22.5 7.5  40 22.5 10  45 25 7.5  45 22.5 7.5  42.5 22.5 7.5  45 25 10  45 22.5 10  42.5 22.5 10  42.5 25 7.5  42.5 25 10  50 25 7.5  50 22.5 7.5  47.5 22.5 7.5  50 25 10  50 22.5 10  47.5 22.5 10  47.5 25 7.5  47.5 25 10  40 22.5 12.5  45 25 12.5  45 22.5 12.5  42.5 22.5 12.5  45 25 15  42.5 25 12.5  42.5 25 15  50 25 12.5  50 22.5 12.5  47.5 22.5 12.5  50 25 15  47.5 25 12.5  47.5 25 15  30 20 0  30 22.5 2.5  30 22.5 0  27.5 22.5 2.5  27.5 22.5 0  30 25 0  30 25 2.5  30 25 5  30 22.5 5  27.5 22.5 5  27.5 25 2.5  27.5 25 0  25 25 5  27.5 25 5  35 25 0  35 25 2.5  35 22.5 2.5  32.5 22.5 2.5  35 22.5 0  32.5 22.5 0  35 25 5  35 22.5 5  32.5 22.5 5  32.5 25 2.5  32.5 25 0  32.5 25 5  37.5 25 2.5  37.5 25 0  37.5 22.5 0  37.5 25 5  30 27.5 2.5  30 27.5 0  27.5 27.5 2.5  27.5 27.5 0  30 30 0  30 30 2.5  30 30 5  30 27.5 5  27.5 27.5 5  32.5 27.5 2.5  32.5 27.5 0  35 27.5 2.5  35 27.5 0  35 30 0  35 30 2.5  35 30 5  35 27.5 5  32.5 27.5 5  32.5 30 2.5  32.5 30 0  32.5 30 5  37.5 27.5 2.5  37.5 27.5 0  40 27.5 2.5  40 27.5 0  40 30 0  40 30 2.5  40 30 5  40 27.5 5  37.5 27.5 5  37.5 30 2.5  37.5 30 0  37.5 30 5  42.5 27.5 2.5  42.5 27.5 0  45 27.5 2.5  45 27.5 0  45 30 0  45 30 2.5  45 30 5  45 27.5 5  42.5 27.5 5  42.5 30 2.5  42.5 30 0  42.5 30 5  47.5 27.5 2.5  47.5 27.5 0  50 27.5 2.5  50 27.5 0  50 30 0  50 30 2.5  50 30 5  50 27.5 5  47.5 27.5 5  47.5 30 2.5  47.5 30 0  47.5 30 5  30 32.5 2.5  30 32.5 0  27.5 32.5 2.5  30 35 0  30 35 2.5  30 35 5  30 32.5 5  27.5 35 2.5  32.5 32.5 2.5  32.5 32.5 0  35 32.5 2.5  35 32.5 0  35 35 0  35 35 2.5  35 35 5  35 32.5 5  32.5 32.5 5  32.5 35 2.5  32.5 35 0  32.5 35 5  37.5 32.5 2.5  37.5 32.5 0  40 32.5 2.5  40 32.5 0  40 35 0  40 35 2.5  40 35 5  40 32.5 5  37.5 32.5 5  37.5 35 2.5  37.5 35 0  37.5 35 5  42.5 32.5 2.5  42.5 32.5 0  45 32.5 2.5  45 32.5 5  45 35 5  42.5 32.5 5  42.5 35 5  47.5 32.5 2.5  47.5 32.5 0  50 32.5 2.5  50 32.5 0  50 32.5 5  47.5 32.5 5  27.5 37.5 2.5  30 25 7.5  27.5 25 7.5  35 25 7.5  32.5 25 7.5  37.5 25 7.5  27.5 27.5 7.5  30 27.5 7.5  30 30 7.5  30 30 10  30 27.5 10  32.5 27.5 7.5  35 27.5 7.5  35 30 7.5  35 30 10  35 27.5 10  32.5 27.5 10  32.5 30 7.5  32.5 30 10  37.5 27.5 7.5  40 27.5 7.5  40 30 7.5  40 30 10  40 27.5 10  37.5 27.5 10  37.5 30 7.5  37.5 30 10  42.5 27.5 7.5  45 27.5 7.5  45 30 7.5  45 30 10  45 27.5 10  42.5 27.5 10  42.5 30 7.5  42.5 30 10  47.5 27.5 7.5  50 27.5 7.5  50 30 7.5  50 30 10  50 27.5 10  47.5 27.5 10  47.5 30 7.5  47.5 30 10  30 32.5 7.5  27.5 32.5 7.5  30 35 7.5  30 35 10  30 32.5 10  27.5 35 7.5  32.5 32.5 7.5  35 32.5 7.5  35 35 7.5  35 35 10  35 32.5 10  32.5 32.5 10  32.5 35 7.5  32.5 35 10  37.5 32.5 7.5  40 32.5 7.5  40 35 7.5  40 35 10  40 32.5 10  37.5 32.5 10  37.5 35 7.5  37.5 35 10  42.5 32.5 7.5  45 32.5 7.5  45 35 7.5  45 35 10  45 32.5 10  42.5 32.5 10  42.5 35 7.5  42.5 35 10  47.5 32.5 7.5  50 32.5 7.5  50 32.5 10  47.5 32.5 10  30 37.5 7.5  27.5 37.5 7.5  30 37.5 10  30 40 10  32.5 37.5 7.5  35 37.5 7.5  35 37.5 10  35 40 10  32.5 37.5 10  32.5 40 10  37.5 37.5 7.5  37.5 37.5 10  27.5 25 10  27.5 27.5 10  27.5 32.5 10  27.5 35 10  27.5 37.5 10  27.5 25 12.5  30 27.5 12.5  27.5 27.5 12.5  30 30 12.5  30 30 15  30 27.5 15  27.5 27.5 15  27.5 30 12.5  27.5 30 15  32.5 27.5 12.5  32.5 30 12.5  35 30 12.5  35 30 15  32.5 27.5 15  32.5 30 15  30 32.5 12.5  27.5 32.5 12.5  30 35 12.5  30 35 15  30 32.5 15  27.5 32.5 15  27.5 35 12.5  32.5 32.5 12.5  35 32.5 12.5  35 35 12.5  35 35 15  35 32.5 15  32.5 32.5 15  32.5 35 12.5  32.5 35 15  30 37.5 12.5  27.5 37.5 12.5  30 40 12.5  30 40 15  30 37.5 15  32.5 37.5 12.5  35 37.5 12.5  35 37.5 15  32.5 37.5 15  30 27.5 17.5  27.5 27.5 17.5  30 30 17.5  30 30 20  30 27.5 20  27.5 30 17.5  32.5 27.5 17.5  32.5 30 17.5  35 30 17.5  35 30 20  32.5 27.5 20  32.5 30 20  30 32.5 17.5  27.5 32.5 17.5  30 35 17.5  30 35 20  30 32.5 20  32.5 32.5 17.5  35 32.5 17.5  35 35 17.5  35 35 20  35 32.5 20  32.5 32.5 20  32.5 35 17.5  32.5 35 20  32.5 37.5 17.5  35 37.5 17.5  35 37.5 20  32.5 37.5 20  30 37.5 20  37.5 37.5 17.5  37.5 37.5 20  32.5 30 22.5  35 30 22.5  30 30 22.5  30 32.5 22.5  27.5 32.5 22.5  30 35 22.5  32.5 32.5 22.5  35 32.5 22.5  35 35 22.5  32.5 35 22.5  32.5 37.5 22.5  35 37.5 22.5  37.5 37.5 22.5  35 27.5 12.5  35 27.5 15  37.5 27.5 12.5  40 27.5 12.5  40 30 12.5  40 30 15  40 27.5 15  37.5 27.5 15  37.5 30 12.5  37.5 30 15  42.5 27.5 12.5  45 27.5 12.5  45 30 12.5  45 30 15  45 27.5 15  42.5 27.5 15  42.5 30 12.5  42.5 30 15  47.5 27.5 12.5  50 27.5 12.5  50 30 12.5  50 30 15  50 27.5 15  47.5 27.5 15  47.5 30 12.5  47.5 30 15  37.5 32.5 12.5  40 32.5 12.5  40 35 12.5  40 35 15  40 32.5 15  37.5 32.5 15  37.5 35 12.5  37.5 35 15  42.5 32.5 12.5  45 32.5 12.5  45 32.5 15  45 35 15  42.5 32.5 15  42.5 35 15  47.5 32.5 12.5  50 32.5 12.5  50 32.5 15  50 35 15  47.5 32.5 15  47.5 35 15  37.5 37.5 12.5  37.5 37.5 15  35 27.5 17.5  35 27.5 20  37.5 27.5 17.5  40 27.5 17.5  40 30 17.5  40 30 20  40 27.5 20  37.5 27.5 20  37.5 30 17.5  37.5 30 20  42.5 27.5 17.5  45 27.5 17.5  45 30 17.5  45 30 20  42.5 25 17.5  45 25 17.5  45 25 20  45 27.5 20  42.5 27.5 20  42.5 25 20  42.5 30 17.5  42.5 30 20  47.5 27.5 17.5  50 27.5 17.5  50 30 17.5  50 30 20  47.5 25 17.5  50 25 17.5  50 25 20  50 27.5 20  47.5 27.5 20  47.5 25 20  47.5 30 17.5  47.5 30 20  37.5 32.5 17.5  40 32.5 17.5  40 35 17.5  40 35 20  40 32.5 20  37.5 32.5 20  37.5 35 17.5  37.5 35 20  42.5 32.5 17.5  45 32.5 17.5  45 35 17.5  45 35 20  45 32.5 20  42.5 32.5 20  42.5 35 17.5  42.5 35 20  47.5 32.5 17.5  50 32.5 17.5  50 35 17.5  50 35 20  50 32.5 20  47.5 32.5 20  47.5 35 17.5  47.5 35 20  42.5 37.5 17.5  42.5 37.5 20  47.5 37.5 17.5  50 37.5 17.5  50 37.5 20  47.5 37.5 20  40 27.5 22.5  40 30 22.5  37.5 30 22.5  42.5 27.5 22.5  45 27.5 22.5  45 30 22.5  42.5 30 22.5  47.5 27.5 22.5  50 27.5 22.5  50 30 22.5  47.5 30 22.5  37.5 32.5 22.5  40 32.5 22.5  40 35 22.5  37.5 35 22.5  42.5 32.5 22.5  45 32.5 22.5  45 35 22.5  42.5 35 22.5  47.5 32.5 22.5  50 32.5 22.5  50 35 22.5  47.5 35 22.5  42.5 37.5 22.5  45 37.5 22.5  47.5 37.5 22.5  50 37.5 22.5  </DataArray>
</Points>
<Cells>
[...]
<PointData  Scalars="p_O2"> 
<DataArray  type="Float64"  Name="p_O2"  format="ascii">7.6634324469825415e+01  7.8471074475527985e+01  7.8239870426201676e+01  7.8940739281377788e+01  8.1009413921984915e+01  8.0576075090660112e+01  8.0362361359531320e+01  8.0146290519884673e+01  8.0362361340780595e+01  8.1009413901412472e+01  7.5879645180656510e+01  7.5628583381811808e+01  7.8239870415918887e+01  7.8006161186490132e+01  7.5879645171925930e+01  7.6634324443933821e+01  7.8940739260412812e+01  8.2440779686638223e+01  8.2243829929179540e+01  7.8471074447787814e+01  8.0576075056338738e+01  8.2440779653022730e+01  8.4675233288960854e+01  8.4831366348364924e+01  8.7980688503206309e+01  8.6494220045897990e+01  8.3002376495971163e+01  8.7720690939990277e+01  8.7853629425878694e+01  9.0412105815106486e+01  8.9279683754901313e+01  8.6441700804961442e+01  8.6297220708226263e+01  8.8958952548636347e+01  8.9080970032634340e+01  9.1392195705646003e+01  9.0018267949980242e+01  8.1929663319184939e+01  8.2114298426376422e+01  8.0016268800856835e+01  7.9662578101747229e+01  7.9870904279313024e+01  7.7572782017336152e+01  7.7350271276784554e+01  8.5461617239729947e+01  8.5619231618986305e+01  8.3976436226565696e+01  8.3572738607100547e+01  8.3751035411951122e+01  8.1926519992890732e+01  8.3805334589663488e+01  8.1733186481327252e+01  8.6909264991781370e+01  8.7054076997801090e+01  8.8152127677418406e+01  8.6579741768099595e+01  8.5188017328567867e+01  8.5351998169403487e+01  7.7895068579382098e+01  7.8122068829519023e+01  7.5683891675259886e+01  7.5441765400819676e+01  8.2082742805804457e+01  8.2277454802286158e+01  8.0318008093115367e+01  8.0107086077246095e+01  8.3824769326157167e+01  8.4004003111030883e+01  8.5330392770699177e+01  8.4424884704646814e+01  8.2839325104105811e+01  9.9499112906554714e+01  9.6941086174662729e+01  9.6975386393580450e+01  9.6645671362553514e+01  9.4466087209643447e+01  9.4528156411752533e+01  9.3935107961642487e+01  9.9578853766824849e+01  9.7427243537065706e+01  9.7456728408718689e+01  9.7246880500197292e+01  9.9583675026635987e+01  9.9549262094942193e+01  9.5342055296232303e+01  9.5395443695609615e+01  9.5017133361806216e+01  9.7215258255764013e+01  9.9544084818869678e+01  9.4959889683347129e+01  9.9628358963869942e+01  9.7647910845515483e+01  9.9614995313652500e+01  9.7596000154867681e+01  9.9606509338803932e+01  9.9610437017988218e+01  9.7620416410570158e+01  9.5690538536134412e+01  9.5740334462699195e+01  9.5646663434688065e+01  9.7567958408425696e+01  9.9601915139856914e+01  9.5595878434078671e+01  9.2139177232353191e+01  9.2227389572364501e+01  9.0130334988530194e+01  9.3376031649660348e+01  9.3451971101469084e+01  9.2917397515666778e+01  9.1577241747162802e+01  9.1673823933430540e+01  9.0999378592625121e+01  9.2836002924338359e+01  9.0895907184780839e+01  9.3868955561159751e+01  9.3939811779415578e+01  9.3807282490820853e+01  9.2199906320784038e+01  9.2290059853329240e+01  9.2122576950001488e+01  9.3735029881862204e+01  9.2030650732221133e+01  8.8285235674381340e+01  8.9987580462791371e+01  9.0102426368812715e+01  8.9307563834420151e+01  8.8642035465050355e+01  8.9184584345507119e+01  8.7738848166263637e+01  9.0722414969498644e+01  9.0829669501881213e+01  9.0631947451812735e+01  8.9469646306628235e+01  9.0522603526671503e+01  8.9244492584104833e+01  9.9250272178709565e+01  9.5282849207092468e+01  9.9226483605341798e+01  9.4678802001432530e+01  9.9126867672051247e+01  9.9218577751551351e+01  9.5234599481116859e+01  9.1408454951404906e+01  9.1495576333299240e+01  9.0421766787337901e+01  9.4626931218503444e+01  9.9118357859665181e+01  8.9082495457795815e+01  9.0328174442972383e+01  9.9380078403596514e+01  9.6216155468268099e+01  9.6257004829176779e+01  9.5805215483612528e+01  9.9386766452001453e+01  9.9312484834748574e+01  9.3163453305385431e+01  9.3237306657039852e+01  9.2428142612790353e+01  9.5760709665739256e+01  9.9305191700569438e+01  9.2347722926198202e+01  9.6608261232420034e+01  9.9444480963081659e+01  9.9450607459173170e+01  9.3867437693839733e+01  9.5282849214365541e+01  9.9226483606525051e+01  9.4678802008590779e+01  9.9126867673099412e+01  9.9250272180452697e+01  9.5428003581148516e+01  9.1757641368310928e+01  9.1495576347053614e+01  9.0421766797596590e+01  9.5805215493003189e+01  9.9312484836270926e+01  9.6257004839608754e+01  9.9386766453623736e+01  9.9406811049145631e+01  9.6379371840198885e+01  9.3458539251574152e+01  9.3237306676156152e+01  9.2428142631614989e+01  9.5938797990346913e+01  9.9334368363921101e+01  9.2669498005977360e+01  9.6645671373549305e+01  9.9450607460959304e+01  9.6975386404462910e+01  9.9504725305515478e+01  9.9521507617254215e+01  9.7077868918737337e+01  9.4713614578756591e+01  9.4528156432503835e+01  9.3935107982021279e+01  9.6757571366639624e+01  9.9468931486716016e+01  9.4137522057342380e+01  9.7246880512157674e+01  9.9549262096973379e+01  9.7456728419064177e+01  9.9583675028366528e+01  9.9598078277190567e+01  9.7544692463109371e+01  9.5554722860366212e+01  9.5395443718939134e+01  9.5017133383570751e+01  9.7341275301414427e+01  9.9564714552833792e+01  9.5188013116356558e+01  9.7596000166631143e+01  9.9606509340885481e+01  9.7647910858820453e+01  9.9614995315791134e+01  9.9628358969091423e+01  9.7729896799086276e+01  9.5888824542525384e+01  9.5740334483743325e+01  9.5646663458226314e+01  9.7679616304977429e+01  9.9620190980952202e+01  9.5798095649326910e+01  9.5671058890554207e+01  9.9290107274955957e+01  9.5099076346791890e+01  9.9346127548653413e+01  9.6012839687176083e+01  9.2813164708977297e+01  9.2196383714200991e+01  9.5472992775520879e+01  9.6161434664434111e+01  9.9370846931947739e+01  9.6582588744254238e+01  9.9440095219070258e+01  9.9486372353614698e+01  9.6865098493830516e+01  9.4336555882062598e+01  9.3825906884043675e+01  9.3071709513661290e+01  9.6472504468803805e+01  9.9421815782926600e+01  9.3633573053905423e+01  9.6942883288112370e+01  9.9499278546267405e+01  9.7247214776994738e+01  9.9549231651053461e+01  9.9587515377866779e+01  9.7481017932866521e+01  9.5443111683815800e+01  9.5020053830787617e+01  9.4472706291711773e+01  9.7199502595527335e+01  9.9541304080883179e+01  9.4936830342334702e+01  9.7496998336838615e+01  9.9590208054561401e+01  9.7689624354339387e+01  9.5817148835794072e+01  9.6178004660298299e+01  9.5469902830608959e+01  9.5858173540163776e+01  9.7817278780268879e+01  9.9642727302312863e+01  9.7864826162506176e+01  9.9650500134397333e+01  9.6133199172079458e+01  9.6047405190026211e+01  9.5959162901718457e+01  8.7857289893351648e+01  8.6361817656493400e+01  9.0307289503785043e+01  8.9165648389883685e+01  9.1296080698967529e+01  8.6494220060464073e+01  8.7980688522083184e+01  8.8351838624134416e+01  8.5300943249724071e+01  8.4831366371267393e+01  8.9279683780409840e+01  9.0412105844681605e+01  9.0726057128048481e+01  8.8251824055241585e+01  8.7853629467061097e+01  8.6441700841615344e+01  8.9621871546485210e+01  8.6875214852989018e+01  9.1392195736367810e+01  9.2227389602742420e+01  9.2490938579329821e+01  9.0465172451393030e+01  9.0130335026160239e+01  8.9080970076156731e+01  9.1679657352363293e+01  8.9445907014821913e+01  9.2917397546605997e+01  9.3451971134092901e+01  9.3678521287470801e+01  9.1961965910124221e+01  9.1673823974409530e+01  9.0999378631829003e+01  9.3160350874467355e+01  9.1308238648309995e+01  9.3807282523131846e+01  9.3939811812386125e+01  9.4151089172037942e+01  9.2558895911621335e+01  9.2290059895114297e+01  9.2122576991461401e+01  9.4022728301508536e+01  9.2396678886441080e+01  8.8973025357898806e+01  8.7566017202512512e+01  8.9845969811244757e+01  8.7190128618461969e+01  8.6086578740354497e+01  8.8518447318914710e+01  9.0192020478963357e+01  9.1247326280671260e+01  9.1971770422146989e+01  8.9831311628404876e+01  8.8912838129213711e+01  8.7597355707334415e+01  9.0988268247598384e+01  8.8605550813459146e+01  9.2155645449609835e+01  9.2926392078037281e+01  9.3527506890184782e+01  9.1781922399323179e+01  9.1018354693874201e+01  9.0050101397811105e+01  9.2814649254705088e+01  9.0886490497456450e+01  9.3561128336704058e+01  9.4051773853552447e+01  9.4565004778064349e+01  9.3089375681104656e+01  9.2436670758506466e+01  9.1817700829368150e+01  9.4113116721778042e+01  9.2519338811320765e+01  9.4377416554342830e+01  9.4498796057048608e+01  9.3001307569234925e+01  9.2847925735675901e+01  9.0968968062301798e+01  8.9755445758720839e+01  8.8608998115273849e+01  9.0331672500029114e+01  9.2004990435607766e+01  9.2891474408584841e+01  9.0997028080742680e+01  9.2392896192855844e+01  8.9892420773471272e+01  9.1442712593717431e+01  9.3647518758132463e+01  9.1943352212440516e+01  8.2835088815214874e+01  8.3002376511678378e+01  8.4355826019428804e+01  8.5557518268325410e+01  8.7117034312981502e+01  7.9818753863753329e+01  8.2114298453851646e+01  8.0016268817916000e+01  8.2669445007284381e+01  8.0497306002893993e+01  7.9870904310093778e+01  7.7572782053502067e+01  8.0611736757857528e+01  7.8243550825670297e+01  8.3976436277988185e+01  8.4489684953357511e+01  8.6091250351550286e+01  8.4285036892871133e+01  8.1926520041609493e+01  8.2506466646248199e+01  8.3597945087863195e+01  8.1613125175107669e+01  8.4901516184962773e+01  8.3014185112248967e+01  8.1544546103743997e+01  7.9370964087917741e+01  8.3029660218490662e+01  8.5344483607274228e+01  8.6874708344775925e+01  8.7963042490363861e+01  8.6401901525308872e+01  8.5171173614129842e+01  8.3472070925707257e+01  8.6537445031767632e+01  8.4819259989917143e+01  8.6576570207403250e+01  8.4866458911955149e+01  8.8608998106729118e+01  8.7190128600903719e+01  8.4901516170466351e+01  8.8059552074766700e+01  8.9343965043969817e+01  8.7963042472185805e+01  8.6537445014339596e+01  7.8122068854834268e+01  7.5683891692610999e+01  7.8804377387632300e+01  7.7597154426524511e+01  7.6874659407339962e+01  7.6413424944641534e+01  8.0318008140936996e+01  8.0950510136797220e+01  8.2860481828604520e+01  8.1834428316448026e+01  7.9164276536282003e+01  7.9834690740827412e+01  7.9944827406728621e+01  7.7639222544248554e+01  8.1544546083490317e+01  8.0497305967323825e+01  7.8804377367329906e+01  8.2003481194010888e+01  8.3827888069710937e+01  8.5171173592154460e+01  8.4285036849277191e+01  8.2860481801608444e+01  8.0950510113604665e+01  8.3472070905620811e+01  8.2506466606156778e+01  8.5344483570362996e+01  8.6874708303277828e+01  8.6091250294659261e+01  8.4489684899724196e+01  8.2669444965036135e+01  8.8203988482019298e+01  8.7487107534778730e+01  7.9164276516691473e+01  8.1215939099688725e+01  7.6874659383536269e+01  7.8122068813738892e+01  7.5683891676536518e+01  7.9870904262188120e+01  8.0318008092550613e+01  8.2277454785669178e+01  8.3751035400237598e+01  8.1926519975403252e+01  8.3976436221925326e+01  8.5619231600661550e+01  8.7054076976401873e+01  8.5619231668022152e+01  8.3751035466464955e+01  8.7054077045215621e+01  8.8285235717800433e+01  8.8682888158795848e+01  8.7181278107075912e+01  8.6730589413578372e+01  8.5351998214640574e+01  8.7487107590622884e+01  8.5842379468308607e+01  8.9307563876695951e+01  9.0102426416601460e+01  9.0445034449163344e+01  8.9161097244914430e+01  8.8772342994955679e+01  8.7878313235739142e+01  8.9674611266609574e+01  8.8294588864119973e+01  9.0631947497247083e+01  9.0829669546947045e+01  9.1149471455890875e+01  8.9954443073471893e+01  8.9591393998612403e+01  8.9368604882235090e+01  9.0957975299735267e+01  8.9738667472194010e+01  8.8203988519811503e+01  8.9339815273278020e+01  9.0246469345265382e+01  8.8953094152475614e+01  8.7925728540675507e+01  8.6654076487009320e+01  8.9196185655418944e+01  8.7777352019634932e+01  9.0280040817721527e+01  9.1009458338478353e+01  8.9801504251010101e+01  9.0681963298568775e+01  8.8981160302898274e+01  8.9926575667824750e+01  9.1494694552356734e+01  9.1675758962715776e+01  9.0551865493887789e+01  9.1372067699803935e+01  9.0347860956821492e+01  9.1184500684621725e+01  9.0449703210738804e+01  8.9196185637047449e+01  8.2277454849593624e+01  8.1215939127448777e+01  8.4004003158952955e+01  8.5495385930746053e+01  8.5988257531012295e+01  8.5123628681469540e+01  8.4600113798516560e+01  8.3029570082107355e+01  8.4539880240243008e+01  8.3598437523836239e+01  8.6739957587745636e+01  8.7710994460859339e+01  8.8136587079313401e+01  8.7391349035658934e+01  8.6587326904310459e+01  8.7568326400354039e+01  8.6787278971102424e+01  8.6938928213356448e+01  8.5913124449150089e+01  8.5750944943004626e+01  8.7195465025399059e+01  8.6397175771139530e+01  8.8359324410249585e+01  8.8601665920965374e+01  8.8999281472053866e+01  8.8303526423611828e+01  8.8223401740144880e+01  8.8468311460847161e+01  8.7738911048424640e+01  8.7880703728766989e+01  8.7624363198938283e+01  8.7479843822413997e+01  8.8764579214546984e+01  8.8055263629569751e+01  8.5426849076370800e+01  8.6802367222378734e+01  8.7925728506145390e+01  8.7181278045053219e+01  8.5988257498953303e+01  8.4539880208352216e+01  8.6654076463443687e+01  8.5842379419131092e+01  8.7946739931646789e+01  8.8837674631299947e+01  8.9801504228836208e+01  8.9161097206595812e+01  8.8136587058713815e+01  8.7195464998188939e+01  8.8981160280783584e+01  8.8294588820722012e+01  8.9431700389934718e+01  8.9653597424042999e+01  9.0551865479090552e+01  8.9954443051740867e+01  8.8999281457526124e+01  8.8764579198153143e+01  9.0347860941103789e+01  8.9738667446692574e+01  9.0280040782553542e+01  8.9674611219583099e+01  9.1494694516543476e+01  9.1675758923069353e+01  9.1149471429907990e+01  9.0957975270116876e+01  8.4058056978580694e+01  8.4600113748315536e+01  8.3029570031854774e+01  8.5411778271149331e+01  8.6470228793268134e+01  8.6938928183610884e+01  8.5913124400927941e+01  8.7177887670030600e+01  8.7442577510413344e+01  8.7880703703555412e+01  8.7624363170292000e+01  8.4004003072436547e+01  8.5495385864334921e+01  8.6730589336075823e+01  8.5351998140291272e+01  8.6739957533223816e+01  8.7710994420030872e+01  8.8772342954547099e+01  8.7878313176207854e+01  8.8359324379830710e+01  8.8601665898144560e+01  8.9591393976515945e+01  8.9368604856617125e+01  8.9307563825891449e+01  9.0102426379653167e+01  9.0631947476336734e+01  9.0829669531561819e+01  </DataArray> 
</PointData> 
</Piece>
</UnstructuredGrid>
</VTKFile>