<?xml version="1.0"?>
<VTKFile type="UnstructuredGrid"  version="0.1"  >
<UnstructuredGrid>
<Piece  NumberOfPoints="572" NumberOfCells="2296">
<Points>
<DataArray  type="Float64"  NumberOfComponents="3"  format="ascii">35 15 5  35 17.5 5  32.5 17.5 5  32.5 17.5 2.5  35 20 5  32.5 20 5  32.5 20 2.5  40 5 10  40 7.5 10  37.5 7.5 10  37.5 7.5 7.5  40 10 10  37.5 10 10  35 17.5 7.5  32.5 17.5 7.5  35 20 7.5  35 20 10  35 15 7.5  35 15 10  35 17.5 10  32.5 17.5 10  32.5 20 7.5  32.5 20 10  35 22.5 7.5  32.5 22.5 7.5  35 22.5 10  32.5 22.5 10  37.5 22.5 7.5  37.5 22.5 10  40 7.5 12.5  37.5 7.5 12.5  40 10 12.5  40 10 15  40 5 12.5  40 5 15  40 7.5 15  37.5 7.5 15  37.5 10 12.5  40 12.5 12.5  37.5 12.5 12.5  40 12.5 15  40 15 15  37.5 12.5 15  35 15 15  37.5 15 15  37.5 15 12.5  35 15 12.5  35 17.5 12.5  32.5 17.5 12.5  35 20 12.5  35 20 15  35 17.5 15  32.5 20 12.5  37.5 17.5 12.5  37.5 17.5 15  40 17.5 15  40 20 15  37.5 20 15  37.5 20 12.5  35 22.5 12.5  32.5 22.5 12.5  35 22.5 15  32.5 22.5 15  37.5 22.5 12.5  37.5 22.5 15  40 22.5 15  40 25 15  42.5 5 17.5  40 5 17.5  42.5 2.5 17.5  40 5 20  40 7.5 17.5  37.5 7.5 17.5  40 10 17.5  40 10 20  42.5 7.5 17.5  42.5 10 17.5  40 12.5 17.5  37.5 12.5 17.5  40 15 17.5  37.5 15 17.5  42.5 12.5 17.5  42.5 15 17.5  37.5 17.5 17.5  40 17.5 17.5  40 20 17.5  40 20 20  37.5 20 17.5  35 20 17.5  42.5 17.5 17.5  42.5 20 17.5  42.5 20 20  45 20 20  35 22.5 17.5  32.5 22.5 17.5  37.5 22.5 17.5  40 22.5 17.5  40 25 17.5  40 25 20  40 22.5 20  42.5 22.5 17.5  42.5 22.5 20  45 22.5 20  45 25 20  42.5 25 20  42.5 25 17.5  35 0 0  37.5 2.5 2.5  37.5 2.5 0  37.5 0 0  40 0 0  40 2.5 2.5  40 2.5 0  40 5 0  40 5 2.5  40 5 5  37.5 0 2.5  40 0 2.5  40 0 5  40 2.5 5  35 2.5 0  35 5 0  37.5 5 2.5  37.5 5 0  42.5 2.5 2.5  42.5 2.5 0  42.5 0 0  45 0 0  45 2.5 2.5  45 2.5 0  45 5 0  45 5 2.5  45 5 5  42.5 0 2.5  45 0 2.5  45 0 5  45 2.5 5  42.5 2.5 5  42.5 0 5  42.5 5 2.5  42.5 5 0  42.5 5 5  47.5 2.5 2.5  47.5 2.5 0  47.5 0 0  50 0 0  50 2.5 2.5  50 2.5 0  50 5 0  50 5 2.5  50 5 5  47.5 0 2.5  50 0 2.5  50 0 5  50 2.5 5  47.5 2.5 5  47.5 0 5  47.5 5 2.5  47.5 5 0  47.5 5 5  37.5 7.5 2.5  37.5 7.5 0  40 7.5 2.5  40 7.5 0  40 10 0  40 10 2.5  40 10 5  40 7.5 5  37.5 7.5 5  35 7.5 0  35 10 0  37.5 10 2.5  37.5 10 0  35 10 5  37.5 10 5  35 10 2.5  42.5 7.5 2.5  42.5 7.5 0  45 7.5 2.5  45 7.5 0  45 10 0  45 10 2.5  45 10 5  45 7.5 5  42.5 7.5 5  42.5 10 2.5  42.5 10 0  42.5 10 5  47.5 7.5 2.5  47.5 7.5 0  50 7.5 2.5  50 7.5 0  50 10 0  50 10 2.5  50 10 5  50 7.5 5  47.5 7.5 5  47.5 10 2.5  47.5 10 0  47.5 10 5  35 12.5 2.5  35 12.5 0  32.5 12.5 2.5  32.5 12.5 0  35 15 0  35 15 2.5  35 12.5 5  32.5 15 2.5  32.5 15 0  37.5 12.5 2.5  37.5 12.5 0  40 12.5 2.5  40 12.5 0  40 15 0  40 15 2.5  40 15 5  40 12.5 5  37.5 12.5 5  37.5 15 2.5  37.5 15 0  37.5 15 5  42.5 12.5 2.5  42.5 12.5 0  45 12.5 2.5  45 12.5 0  45 15 0  45 15 2.5  45 15 5  45 12.5 5  42.5 12.5 5  42.5 15 2.5  42.5 15 0  42.5 15 5  47.5 12.5 2.5  47.5 12.5 0  50 12.5 2.5  50 12.5 0  50 15 0  50 15 2.5  50 15 5  50 12.5 5  47.5 12.5 5  47.5 15 2.5  47.5 15 0  47.5 15 5  35 17.5 2.5  35 17.5 0  32.5 17.5 0  35 20 0  35 20 2.5  30 20 0  32.5 20 0  37.5 17.5 2.5  37.5 17.5 0  40 17.5 2.5  40 17.5 0  40 20 0  40 20 2.5  40 20 5  40 17.5 5  37.5 17.5 5  37.5 20 2.5  37.5 20 0  37.5 20 5  42.5 17.5 2.5  42.5 17.5 0  45 17.5 2.5  45 17.5 0  45 20 0  45 20 2.5  45 20 5  45 17.5 5  42.5 17.5 5  42.5 20 2.5  42.5 20 0  42.5 20 5  47.5 17.5 2.5  47.5 17.5 0  50 17.5 2.5  50 17.5 0  50 20 0  50 20 2.5  50 20 5  50 17.5 5  47.5 17.5 5  47.5 20 2.5  47.5 20 0  47.5 20 5  37.5 22.5 2.5  37.5 22.5 0  40 22.5 2.5  40 22.5 0  40 25 0  40 22.5 5  37.5 22.5 5  42.5 22.5 2.5  42.5 22.5 0  45 22.5 2.5  45 22.5 0  45 22.5 5  42.5 22.5 5  47.5 22.5 2.5  47.5 22.5 0  50 22.5 2.5  50 22.5 5  47.5 22.5 5  40 2.5 7.5  37.5 2.5 7.5  40 5 7.5  40 0 7.5  37.5 0 7.5  40 0 10  40 2.5 10  37.5 5 7.5  42.5 2.5 7.5  45 2.5 7.5  45 5 7.5  45 5 10  42.5 0 7.5  45 0 7.5  45 0 10  45 2.5 10  42.5 2.5 10  42.5 0 10  42.5 5 7.5  42.5 5 10  47.5 2.5 7.5  50 2.5 7.5  50 5 7.5  50 5 10  47.5 0 7.5  50 0 7.5  50 0 10  50 2.5 10  47.5 2.5 10  47.5 0 10  47.5 5 7.5  47.5 5 10  40 7.5 7.5  40 10 7.5  37.5 10 7.5  42.5 7.5 7.5  45 7.5 7.5  45 10 7.5  45 10 10  45 7.5 10  42.5 7.5 10  42.5 10 7.5  42.5 10 10  47.5 7.5 7.5  50 7.5 7.5  50 10 7.5  50 10 10  50 7.5 10  47.5 7.5 10  47.5 10 7.5  47.5 10 10  37.5 12.5 7.5  40 12.5 7.5  40 15 7.5  40 15 10  40 12.5 10  37.5 12.5 10  37.5 15 7.5  37.5 15 10  42.5 12.5 7.5  45 12.5 7.5  45 15 7.5  45 15 10  45 12.5 10  42.5 12.5 10  42.5 15 7.5  42.5 15 10  47.5 12.5 7.5  50 12.5 7.5  50 15 7.5  50 15 10  50 12.5 10  47.5 12.5 10  47.5 15 7.5  47.5 15 10  37.5 17.5 7.5  40 17.5 7.5  40 20 7.5  40 20 10  40 17.5 10  37.5 17.5 10  37.5 20 7.5  37.5 20 10  42.5 17.5 7.5  45 17.5 7.5  45 20 7.5  45 20 10  45 17.5 10  42.5 17.5 10  42.5 20 7.5  42.5 20 10  47.5 17.5 7.5  50 17.5 7.5  50 20 7.5  50 20 10  50 17.5 10  47.5 17.5 10  47.5 20 7.5  47.5 20 10  40 22.5 7.5  40 22.5 10  42.5 22.5 7.5  45 22.5 7.5  45 22.5 10  42.5 22.5 10  47.5 22.5 7.5  50 22.5 7.5  50 22.5 10  47.5 22.5 10  42.5 2.5 12.5  45 2.5 12.5  45 5 12.5  45 5 15  42.5 0 12.5  45 0 12.5  45 0 15  45 2.5 15  40 0 12.5  40 0 15  42.5 2.5 15  42.5 0 15  42.5 5 12.5  40 2.5 12.5  40 2.5 15  42.5 5 15  47.5 2.5 12.5  50 2.5 12.5  50 5 12.5  50 5 15  47.5 0 12.5  50 0 12.5  50 0 15  50 2.5 15  47.5 2.5 15  47.5 0 15  47.5 5 12.5  47.5 5 15  42.5 7.5 12.5  45 7.5 12.5  45 10 12.5  45 10 15  45 7.5 15  42.5 7.5 15  42.5 10 12.5  42.5 10 15  47.5 7.5 12.5  50 7.5 12.5  50 10 12.5  50 10 15  50 7.5 15  47.5 7.5 15  47.5 10 12.5  47.5 10 15  40 15 12.5  42.5 12.5 12.5  45 12.5 12.5  45 15 12.5  45 15 15  45 12.5 15  42.5 12.5 15  42.5 15 12.5  42.5 15 15  47.5 12.5 12.5  50 12.5 12.5  50 15 12.5  50 15 15  50 12.5 15  47.5 12.5 15  47.5 15 12.5  47.5 15 15  40 17.5 12.5  40 20 12.5  42.5 17.5 12.5  45 17.5 12.5  45 20 12.5  45 20 15  45 17.5 15  42.5 17.5 15  42.5 20 12.5  42.5 20 15  47.5 17.5 12.5  50 17.5 12.5  50 20 12.5  50 20 15  50 17.5 15  47.5 17.5 15  47.5 20 12.5  47.5 20 15  40 22.5 12.5  42.5 22.5 12.5  45 22.5 12.5  45 22.5 15  45 25 15  42.5 22.5 15  42.5 25 15  47.5 22.5 12.5  50 22.5 12.5  50 22.5 15  50 25 15  47.5 22.5 15  47.5 25 15  45 2.5 17.5  45 5 17.5  45 5 20  42.5 0 17.5  45 0 17.5  45 0 20  47.5 2.5 17.5  50 2.5 17.5  50 5 17.5  50 5 20  47.5 0 17.5  50 0 17.5  50 0 20  50 2.5 20  47.5 0 20  47.5 5 17.5  47.5 5 20  45 7.5 17.5  45 10 17.5  45 10 20  45 7.5 20  47.5 7.5 17.5  50 7.5 17.5  50 10 17.5  50 10 20  50 7.5 20  47.5 7.5 20  47.5 10 17.5  47.5 10 20  45 12.5 17.5  45 15 17.5  45 15 20  45 12.5 20  47.5 12.5 17.5  50 12.5 17.5  50 15 17.5  50 15 20  50 12.5 20  47.5 12.5 20  47.5 15 17.5  47.5 15 20  45 17.5 17.5  45 20 17.5  45 17.5 20  47.5 17.5 17.5  50 17.5 17.5  50 20 17.5  50 20 20  50 17.5 20  47.5 20 17.5  45 22.5 17.5  45 25 17.5  47.5 22.5 17.5  50 22.5 17.5  50 25 17.5  50 25 20  50 22.5 20  47.5 25 17.5  47.5 25 20  32.5 22.5 2.5  32.5 22.5 0  35 22.5 2.5  35 22.5 0  35 22.5 5  32.5 22.5 5  </DataArray>
</Points>
<Cells>
[...]
<PointData  Scalars="p_O2"> 
<DataArray  type="Float64"  Name="p_O2"  format="ascii">9.4336555834462473e+01  9.3825906843276698e+01  9.3071709478516254e+01  9.6161434643995236e+01  9.3458539220554329e+01  9.2669497977894778e+01  9.5938797974336353e+01  9.6608880753697065e+01  9.5183671776548479e+01  9.4640337539462990e+01  9.5773514987208571e+01  9.3885256049092888e+01  9.3202939770262788e+01  9.1247326227827799e+01  9.0192020433924398e+01  9.0726057084990032e+01  8.8251824003810114e+01  9.1971770362681127e+01  8.9831311565345146e+01  8.8912838069622822e+01  8.7597355651499356e+01  8.9621871508220664e+01  8.6875214805702896e+01  9.0412105815106486e+01  8.9279683754901313e+01  8.7853629425878694e+01  8.6441700804961442e+01  9.1392195705646003e+01  8.9080970032634340e+01  9.4284563882877080e+01  9.3647518699990655e+01  9.2743451353355596e+01  9.1781922325354770e+01  9.5975971171035638e+01  9.5443111632276299e+01  9.3527506825138019e+01  9.2814649201838009e+01  9.1943352147007730e+01  9.1388041626995943e+01  9.0449703147862678e+01  9.0246469276358425e+01  8.8953094099162456e+01  8.9196185592924607e+01  8.6401901474494124e+01  8.7777351968445572e+01  8.9196185588748648e+01  8.7963042431368024e+01  8.6874708283940620e+01  8.5344483552971823e+01  8.6091250293906555e+01  8.4285036833369091e+01  8.5171173556497664e+01  8.4489684892955140e+01  8.8203988454701445e+01  8.6654076430424610e+01  8.7925728483293625e+01  8.7181278056306766e+01  8.5842379412699088e+01  8.7487107532278841e+01  8.5619231618986305e+01  8.3976436226565696e+01  8.3751035411951122e+01  8.1926519992890732e+01  8.7054076997801090e+01  8.5351998169403487e+01  8.6730589379184394e+01  8.6579741768099595e+01  9.5469902786847612e+01  9.5020053794881420e+01  9.7496998309626633e+01  9.4713614556305416e+01  9.2926392029532096e+01  9.2155645408452330e+01  9.1018354635918016e+01  9.0465172416260870e+01  9.3561128281489232e+01  9.1817700764793855e+01  8.9339815213048752e+01  8.8203988465554630e+01  8.7925728483875687e+01  8.6654076433193282e+01  9.0280040752669450e+01  8.8981160242766180e+01  8.5426849034659412e+01  8.6802367184760371e+01  8.5988257498322128e+01  8.5123628691973067e+01  8.4539880186583616e+01  8.2860481780622209e+01  8.7946739892343501e+01  8.7195464993513298e+01  8.6397175770587666e+01  8.7391349023263771e+01  8.2277454802286158e+01  8.0318008093115367e+01  8.4004003111030883e+01  8.5495385906100481e+01  8.5330392770699177e+01  8.4424884704646814e+01  8.4600113804372043e+01  8.6739957568441909e+01  8.5913124449809303e+01  8.6938928201562561e+01  8.6787278971102424e+01  8.5750944943004626e+01  8.6587326904310459e+01  9.9980550565826348e+01  9.9357576413227193e+01  9.9894770852912941e+01  9.9982754116529506e+01  9.9984581147771252e+01  9.9425145037171305e+01  9.9905862833586369e+01  9.9829721793590309e+01  9.8960179006747978e+01  9.8119105177639611e+01  9.9894770852953400e+01  9.9905862833638537e+01  9.9829721793736169e+01  9.8960179008333739e+01  9.9881370606681600e+01  9.9785734507506504e+01  9.8838700019333558e+01  9.9809779645822189e+01  9.9479811210109204e+01  9.9914831852430751e+01  9.9986050294274435e+01  9.9987192224724325e+01  9.9521543642412610e+01  9.9921676118201233e+01  9.9858206505875259e+01  9.9133818923680309e+01  9.8431885619388382e+01  9.9914831852464616e+01  9.9921676118243695e+01  9.9858206506005203e+01  9.9133818924209322e+01  9.9058604016146845e+01  9.9845869785890230e+01  9.9058604015415114e+01  9.9845869785696166e+01  9.8296322675145362e+01  9.9549022257298702e+01  9.9926181555255582e+01  9.9987916239785093e+01  9.9988213873884021e+01  9.9559225416668340e+01  9.9927849796832447e+01  9.9869319500542787e+01  9.9201783131953150e+01  9.8554470120570315e+01  9.9926181555281417e+01  9.9927849796877666e+01  9.9869319500668354e+01  9.9201783132615972e+01  9.9183375106423199e+01  9.9866329632152997e+01  9.9183375105835324e+01  9.9866329631986488e+01  9.8521259787989166e+01  9.8352306914471555e+01  9.9730111326414203e+01  9.8523279388204557e+01  9.9758177938240479e+01  9.9693018525811141e+01  9.8125351029128183e+01  9.6608880746232089e+01  9.7328766658624502e+01  9.7021354567002305e+01  9.9696371562124042e+01  9.9615575008651248e+01  9.7910707662876632e+01  9.9657783268417106e+01  9.5761820622949728e+01  9.6222919004014329e+01  9.7653790479492358e+01  9.8662100094691937e+01  9.9780953200257557e+01  9.8768344688388083e+01  9.9798377680313948e+01  9.9743660124150750e+01  9.8434069605415857e+01  9.7165025544953295e+01  9.7770222815224670e+01  9.7578727704058053e+01  9.8300089556520504e+01  9.9721684892319530e+01  9.6923530325607103e+01  9.8838412112881699e+01  9.9809866403859886e+01  9.8864449925525179e+01  9.9814123198460791e+01  9.9763502776183358e+01  9.8555425474898200e+01  9.7383922199060549e+01  9.7943568034181808e+01  9.7896592206539026e+01  9.8522531827050202e+01  9.9758159838205202e+01  9.7324574535798206e+01  9.7223883451753139e+01  9.9545146029165835e+01  9.6869912013001112e+01  9.9486938914625739e+01  9.9486372349202313e+01  9.6865098464145717e+01  9.4984982755433876e+01  9.6472504445465930e+01  9.9421815778791853e+01  9.7523903252639954e+01  9.9594432111223313e+01  9.7775523691019700e+01  9.9635735424221153e+01  9.9587515371537989e+01  9.7481017893111613e+01  9.5443111615147103e+01  9.5975971157489681e+01  9.5523487279613178e+01  9.7199502561600482e+01  9.9541304075331752e+01  9.4936830285446092e+01  9.7980948293630547e+01  9.9669436329360025e+01  9.8138773019052906e+01  9.9695319286943558e+01  9.9654424024984380e+01  9.7888921470065952e+01  9.6178004573819223e+01  9.6630383124066412e+01  9.6345896244444646e+01  9.7711496337458740e+01  9.9625323224983987e+01  9.5858173461769354e+01  9.8243113391385776e+01  9.9712427158814336e+01  9.8281932661837871e+01  9.9718773342528920e+01  9.9680775805032027e+01  9.8050091656822175e+01  9.6468734976706145e+01  9.6888616393865419e+01  9.6818576117262111e+01  9.8006367237955047e+01  9.9673673185783286e+01  9.6389840610486999e+01  9.6582588720237013e+01  9.9440095215158834e+01  9.9370846928616842e+01  9.9406811046301954e+01  9.6379371822267260e+01  9.9250272178709565e+01  9.9334368361377599e+01  9.6942883260264239e+01  9.9499278541585269e+01  9.7247214743598164e+01  9.9549231645584186e+01  9.9521507613538787e+01  9.7077868895502974e+01  9.4713614539007324e+01  9.5020053775139942e+01  9.4472706244171931e+01  9.6757571346296459e+01  9.9468931483382889e+01  9.4137522021847900e+01  9.7496998295744078e+01  9.9590208047880978e+01  9.7689624306950250e+01  9.9621797360483654e+01  9.9598078272171378e+01  9.7544692433203124e+01  9.5554722810506249e+01  9.5817148762386424e+01  9.5469902766156522e+01  9.7341275274760335e+01  9.9564714548396751e+01  9.5188013071395858e+01  9.7817278732025187e+01  9.9642727293811404e+01  9.7864826109823497e+01  9.9650500124483898e+01  9.9628358963869942e+01  9.7729896766883272e+01  9.5888824487560157e+01  9.6133199089342796e+01  9.6047405102016185e+01  9.7679616273202569e+01  9.9620190975733635e+01  9.5798095594789132e+01  9.6645671362553514e+01  9.9450607459173170e+01  9.6975386393580450e+01  9.9504725303643539e+01  9.9499112906554714e+01  9.4528156411752533e+01  9.3935107961642487e+01  9.7246880500197292e+01  9.9549262094942193e+01  9.7456728408718689e+01  9.9583675026635987e+01  9.5395443695609615e+01  9.5017133361806216e+01  9.7596000154867681e+01  9.9606509338803932e+01  9.7647910845515483e+01  9.5740334462699195e+01  9.5646663434688065e+01  9.8523279390783230e+01  9.8352306916635555e+01  9.7328766661284604e+01  9.9758177938748858e+01  9.9730111327211191e+01  9.9693018526798852e+01  9.8125351034986352e+01  9.7021354569810114e+01  9.8662100096999254e+01  9.8768344690453702e+01  9.7770222817370708e+01  9.7165025550928348e+01  9.9780953200706932e+01  9.9798377680728592e+01  9.9743660124869280e+01  9.8434069609768443e+01  9.8300089561262311e+01  9.9721684893197178e+01  9.7578727706421290e+01  9.6923530331878979e+01  9.8838412114631907e+01  9.8864449927556734e+01  9.7943568036310225e+01  9.7383922204717550e+01  9.9809866404241930e+01  9.9814123198880168e+01  9.9763502776900182e+01  9.8555425479152532e+01  9.8522531831193035e+01  9.9758159839008201e+01  9.7896592208590036e+01  9.7324574541616826e+01  9.6206230738575968e+01  9.5183671771675137e+01  9.4640337535291067e+01  9.6558817636411121e+01  9.6829333176210341e+01  9.5968706239155608e+01  9.4874384255983159e+01  9.5968706243711196e+01  9.5627538484103098e+01  9.5627538479478432e+01  9.4444081335728484e+01  9.7008017437044543e+01  9.7074468661250052e+01  9.6278270069089615e+01  9.5265332732284818e+01  9.6278270073524610e+01  9.6194317902592999e+01  9.6194317898150800e+01  9.5159259914633068e+01  9.3647518689824594e+01  9.4284563872036244e+01  9.3527506808511333e+01  9.1781922312971545e+01  9.2743451347065914e+01  9.1943352139723416e+01  9.2814649185996515e+01  9.0886490425063869e+01  9.4806449478788537e+01  9.5208374944052082e+01  9.4565004669746955e+01  9.3089375568903009e+01  9.3907538993765471e+01  9.3400565455714812e+01  9.4113116623374324e+01  9.2519338711186933e+01  9.5474503261325722e+01  9.5573587988840956e+01  9.4976195167472824e+01  9.3608728373143279e+01  9.4368791732485136e+01  9.4243596993978642e+01  9.4864584163678131e+01  9.3467692297641889e+01  9.2155645389178645e+01  9.2926392008089167e+01  9.2490938527044761e+01  9.0465172392669459e+01  9.1018354618421583e+01  9.0050101331190518e+01  9.1679657304991778e+01  8.9445906959376259e+01  9.3561128257185615e+01  9.4051773761477961e+01  9.3678521222896848e+01  9.1961965838838282e+01  9.2436670659956462e+01  9.1817700743535497e+01  9.3160350816478868e+01  9.1308238583382732e+01  9.4377416448778504e+01  9.4498795949834303e+01  9.4151089099057842e+01  9.2558895831258710e+01  9.3001307456061937e+01  9.2847925622371264e+01  9.4022728230886841e+01  9.2396678807729060e+01  9.2227389572364501e+01  9.0130334988530194e+01  9.2917397515666778e+01  9.3451971101469084e+01  9.1673823933430540e+01  9.0999378592625121e+01  9.3807282490820853e+01  9.3939811779415578e+01  9.2290059853329240e+01  9.2122576950001488e+01  9.7980948301139378e+01  9.8138773026316315e+01  9.6630383134927825e+01  9.6178004589534211e+01  9.9669436330730917e+01  9.9695319288230991e+01  9.9654424026656358e+01  9.7888921480507392e+01  9.9635735425799382e+01  9.9587515373110335e+01  9.7711496348290325e+01  9.9625323226868971e+01  9.6345896255714550e+01  9.7775523700039074e+01  9.7481017904518566e+01  9.5858173478165668e+01  9.8243113398211165e+01  9.8281932668968977e+01  9.6888616404583132e+01  9.6468734992269503e+01  9.9712427160036924e+01  9.9718773343745411e+01  9.9680775806693390e+01  9.8050091666998043e+01  9.8006367248090243e+01  9.9673673187506807e+01  9.6818576127939323e+01  9.6389840626509340e+01  9.4806449489416067e+01  9.5208374954955531e+01  9.3907539000745899e+01  9.3089375584043481e+01  9.4565004687831760e+01  9.4113116640908501e+01  9.3400565462494384e+01  9.2519338725407152e+01  9.5474503272180939e+01  9.5573587999639798e+01  9.4368791739530764e+01  9.3608728388911473e+01  9.4976195185390239e+01  9.4864584181753642e+01  9.4243597001207320e+01  9.3467692313616226e+01  9.0246469270129481e+01  9.2160815496233809e+01  9.2758164769173220e+01  9.1785479791276273e+01  9.0681963222819419e+01  9.1785479800067733e+01  9.1113769588773977e+01  9.1113769581238785e+01  8.9926575603875804e+01  9.3154626033901764e+01  9.3302401903557183e+01  9.2398305952131651e+01  9.1372067604600517e+01  9.2398305961788978e+01  9.2231827649388322e+01  9.2231827640066726e+01  9.1184500595904126e+01  8.9339815202498656e+01  8.8682888099675637e+01  9.0280040738568275e+01  9.1009458244600069e+01  9.0445034379946520e+01  8.9161097189088665e+01  8.9801504179479267e+01  8.8981160240465954e+01  8.9674611203912661e+01  8.8294588813356654e+01  9.1494694445670277e+01  9.1675758846467332e+01  9.1149471377478974e+01  8.9954443009326098e+01  9.0551865409661929e+01  9.0347860876482741e+01  9.0957975224131090e+01  8.9738667409609363e+01  8.8285235674381340e+01  8.9307563834420151e+01  9.0102426368812715e+01  8.8772342961432045e+01  8.8642035465050355e+01  8.7878313205007288e+01  8.7738848166263637e+01  9.0631947451812735e+01  9.0829669501881213e+01  8.9591393961375331e+01  8.9469646306628235e+01  8.9368604845878465e+01  8.9244492584104833e+01  9.7689624320582070e+01  9.5817148782538055e+01  9.5554722830369002e+01  9.9590208050058820e+01  9.9621797362599196e+01  9.9598078273833067e+01  9.7817278744980300e+01  9.7864826122413092e+01  9.6133199109702772e+01  9.5888824509486270e+01  9.9642727296009085e+01  9.9650500126568886e+01  9.9628358965933131e+01  9.7729896777741772e+01  9.9620190977720156e+01  9.6047405122320782e+01  9.5798095615070011e+01  9.4051773785840524e+01  9.2436670683755182e+01  9.1961965869591381e+01  9.3678521251342289e+01  9.4377416473289500e+01  9.4498795975131486e+01  9.3001307481471969e+01  9.2558895866569728e+01  9.4151089134379745e+01  9.4022728260562019e+01  9.2847925647377210e+01  9.2396678841323748e+01  9.1009458262762209e+01  8.9801504188306282e+01  8.9161097205247273e+01  9.0445034408220820e+01  9.1494694465605832e+01  9.1675758866637139e+01  9.0551865420577641e+01  8.9954443029032035e+01  9.1149471406821391e+01  9.0957975254586998e+01  9.0347860886909956e+01  8.9738667432187555e+01  8.8837674587411030e+01  8.8136587041362176e+01  8.8136587046507387e+01  8.9431700337712272e+01  8.9653597368877243e+01  8.8999281425752613e+01  8.8303526412813810e+01  8.8999281439801493e+01  8.8764579159043350e+01  8.7710994438417686e+01  8.7568326400354039e+01  8.8359324372305267e+01  8.8601665893434983e+01  8.8468311460847161e+01  8.7738911048424640e+01  8.7880703731121130e+01  8.8223401740144880e+01  8.7479843822413997e+01  9.5805215483612528e+01  9.9312484834748574e+01  9.6257004829176779e+01  9.9386766452001453e+01  9.3237306657039852e+01  9.2428142612790353e+01  </DataArray> 
</PointData> 
</Piece>
</UnstructuredGrid>
</VTKFile>