<?xml version="1.0"?>
<VTKFile type="UnstructuredGrid"  version="0.1"  >
<UnstructuredGrid>
<Piece  NumberOfPoints="14896" NumberOfCells="65006">
<Points>
<DataArray  type="Float64"  NumberOfComponents="3"  format="ascii">34.9128303527832 7.159039974212646 27.23946952819824  34.3791389465332 6.51554012298584 27.14228057861328  35.13011932373047 6.536996841430664 26.4462890625  34.60470692251231 7.36625243761215 26.5142861285684  27.11422573886168 10.71728622047777 29.33648317416864  26.57271051141805 11.00537178931799 28.74267009920055  27.87300627704928 10.72223837078246 28.02426118216048  26.24597961613497 10.00380187972843 28.26936163005118  29.92853927612305 11.57324028015137 18.9993896484375  29.92925071716309 10.72019958496094 19.44116020202637  30.51594176280439 11.02709247024003 18.67815661363122  30.64437377264134 11.37147853416973 19.82816663019022  31.81641006469727 11.10233974456787 25.7568302154541  32.75207138061523 10.93136024475098 26.34918975830078  32.72372817993164 11.34926986694336 25.56191062927246  32.38903036944704 10.22437810473418 26.16369264268148  35.6425895690918 7.805421829223633 27.36277008056641  35.69223022460938 7.19580078125 26.58629035949707  35.52007950851419 8.251850567500551 27.13849051169577  30.70338886822507 5.734390739998017 27.18571970880863  30.15785481847991 5.052454602881958 26.49104451023474  30.97375729578255 5.75192237596054 25.70307588750977  30.26149693945942 6.231904514906795 25.78636559528348  25.67308044433594 13.08121013641357 23.76271057128906  25.86035919189453 12.50069046020508 23.40933990478516  26.27835845264035 12.23044980441888 23.96776073122843  26.35236955816999 13.52415096613267 23.93956501781522  23.8199291229248 8.929689407348633 22.68943977355957  23.74138069152832 8.989166259765625 21.50762939453125  24.55989074707031 8.955435752868652 22.0098705291748  24.0846482367765 7.687041359233702 22.20357387134313  36.39913940429688 7.861127853393555 26.6499195098877  37.13685989379883 8.569181442260742 26.28104019165039  36.7947998046875 7.939727783203125 25.97591018676758  36.37075892412741 8.932036658771425 26.54225885579558  24.61955393501369 5.729207607017445 26.26435319543223  24.82826324934565 6.616697868169569 24.87611641271513  25.98533158028808 6.28840527690646 25.60545615796469  25.44044759890467 5.82680295349591 24.77999641866277  26.55034593237134 9.555521565422465 24.36133021681851  25.38264039425704 8.124286298877308 24.207668627426  25.85953571375595 8.579836451747065 25.67396541173117  25.23962944173181 9.599908125301022 24.80666332143565  23.1141300201416 11.18826007843018 28.74068069458008  23.81983947753906 11.53730010986328 29.13941955566406  23.94433553246686 11.5177459489256 28.19656390979959  23.31738192497723 12.16090308934126 28.74067131549063  32.43262100219727 13.13720989227295 19.24402046203613  33.02611923217773 12.49501037597656 19.59691047668457  31.86906769124938 12.29548022790067 19.80836176930703  32.43860119471369 12.00252268420827 18.61876351303395  28.37132172231807 1.815638967417659 28.01688162019653  27.35397670858199 2.943730053507057 27.40006098175672  27.29205505871813 1.667704273203172 28.49651133407856  27.42059800864293 1.629655847642148 27.37736051231298  32.78384017944336 13.59123039245605 22.52379035949707  32.50217819213867 13.9898099899292 21.7236499786377  31.98473335241294 13.15635594094828 21.90917149976723  32.50635483741166 13.03006565315718 22.33883736507179  32.15467071533203 2.395050048828125 30.3059196472168  32.67388916015625 1.752380013465881 29.96747970581055  32.15990048507312 2.39112800075908 29.28738278008032  31.33457809965556 1.987156326960982 29.99459865079309  34.09929999453565 6.99294867487819 23.80117912218894  32.79286346475775 6.385607427889191 24.38233316397244  34.13446862217507 5.807023155062696 24.86819283031606  33.50918129774659 5.985656593939081 23.67434762494567  31.52791023254395 7.211616039276123 20.71873092651367  32.63322883210785 7.914206222199187 21.00983252958887  32.93562199325006 6.865736083906026 21.17592602658605  32.32074858707963 7.043793635225046 20.09070446401957  31.91970062255859 1.372066974639893 31.30632972717285  31.67433929443359 0.9463019967079163 31.6031608581543  31.9261302947998 0.6777639985084534 30.82041931152344  31.25417668521919 1.034649462579695 31.00057690160329  29.0406494140625 12.68523979187012 19.80326080322266  29.43202972412109 12.09687995910645 20.07287979125977  29.63458061218262 12.11688041687012 19.39958953857422  30.08014251808489 12.7635262852644 19.73915705168776  30.40435028076172 2.698007106781006 25.9854793548584  30.00985908508301 2.195823907852173 25.81509971618652  30.6250858734521 1.443885988901736 27.07549839973395  29.93984415669546 2.949302872875071 26.81838582529727  26.60330066641777 10.68885751030027 27.18944905136354  26.02539558059046 12.15786413145117 26.84440330996682  25.45862835690849 11.19367992844953 28.18064674721684  25.50228674918538 10.81925439215312 26.70713932858495  33.85465801853636 7.103128021119278 22.02097134617921  34.2691834791265 7.539064220751516 20.89305990489548  34.1967267067445 6.572871929190475 21.24889109205525  32.05913162231445 17.21154022216797 21.19997024536133  31.80595016479492 17.58989906311035 20.39641952514648  31.87335968017578 16.5517406463623 20.45520973205566  30.86700053459136 17.18287099296495 21.12694247581706  25.30088043212891 9.012157440185547 21.9420108795166  25.66917991638184 9.322795867919922 21.58011054992676  26.31483012170623 8.362244869045234 21.7233742313048  25.00121132511576 8.337268632682127 21.64787395517196  22.63207054138184 8.500511169433594 28.00999069213867  22.06409318685417 8.704418778516809 27.23256235412425  22.60975919258574 9.510727188544623 27.34042719249306  23.30486131158517 8.875340589139704 27.15789110388815  27.55731964111328 3.413367986679077 25.7889404296875  26.30305118063678 3.194510616063683 26.49240801830609  26.62412576127626 3.1731698531949 25.48396760176555  26.64489338469321 4.227366782400557 26.10270268937625  22.84641704043763 5.603362972809657 27.58125138389545  24.01423760049768 4.858803040373278 28.01048890998938  23.56584011829993 3.966304061312855 26.98242340025655  21.98395919799805 12.81534957885742 29.69577980041504  22.3332691192627 11.85361957550049 29.2259693145752  22.25907085958011 12.26026478939569 28.42938584569326  22.32478697539813 13.13736957578194 29.0660235351529  29.15962028503418 10.64204216003418 30.51924705505371  29.44381141662598 10.513014793396 29.47478485107422  28.00786650634896 10.15435105734787 30.24012742129997  28.67897336961173 10.36994323966545 29.04326164070187  29.19551086425781 0.09558500349521637 26.10866928100586  29.91847991943359 0.09558500349521637 26.68227005004883  29.71139907836914 0.878229022026062 25.72294044494629  29.75509864660144 0.9003808901545274 26.66774287610081  31.57572937011719 6.956832885742188 23.4498291015625  31.60890960693359 7.486830234527588 22.89616966247559  32.50252110591081 6.988110515878771 23.47458402384494  31.50947126931612 8.254593044752145 23.30125030277376  32.02037048339844 18.8421802520752 21.99156951904297  32.06803894042969 19.37503051757812 21.44610023498535  32.06502151489258 18.33490943908691 21.15575981140137  31.12241286236413 19.18766492126682 21.11145560590455  31.79231071472168 7.558013916015625 22.25259971618652  33.21726880186149 8.246626678466397 22.85590281574279  31.96900220970662 8.738656508383313 21.54911472063228  32.57886639904697 7.377570294032718 22.06207884279737  28.18081787732747 12.55754208139894 22.68933324160537  27.24005274042803 11.79706865174998 22.23950733736924  27.65102108109237 12.69676120287623 21.6752086792286  26.85408626708952 12.94388758250887 22.37637695706622  34.58317947387695 5.443515777587891 21.03793907165527  33.58833959864993 5.87340763277578 20.90831553893807  34.33112615359153 6.284857183265861 20.22966529484322  31.98106002807617 16.71747016906738 22.03351974487305  31.96674919128418 15.8997802734375 22.51395034790039  31.16516405033369 15.99973265775896 21.28842421816057  30.87716330267798 16.75434944289517 22.32364272422606  28.81584358215332 8.401994705200195 31.39012336730957  27.62850805076544 8.577902218324414 31.53896408894676  28.33728219155256 7.80332561402143 30.49455611062881  28.35858329426963 9.29126545488981 30.93574961006853  25.80299593830839 5.358194205011579 27.54146949302353  26.36356683007292 5.388327478514206 26.29800095150629  25.89617121057557 6.655662497765946 26.75859863014761  26.74226951599121 16.74748992919922 25.8535099029541  27.3408203125 15.96708011627197 25.71912956237793  27.58120918273926 16.65167045593262 25.14067077636719  26.58286728032384 16.75244250714381 24.74043166540735  22.84972839507049 1.755378437918299 27.19279197048323  23.09401171662719 0.8500238333706456 26.48893603799008  22.5310183929991 1.556285232886916 25.99375432673959  22.47808798464931 0.8081190237376923 26.96436638350839  24.47097015380859 11.17451953887939 25.19330978393555  25.08332061767578 11.34251022338867 24.41192054748535  24.74860954284668 10.48661994934082 24.51839065551758  25.46738372017983 11.26843691308199 25.55925075575673  20.89734077453613 7.069918155670166 22.72229957580566  20.55007934570312 6.564088821411133 22.64846038818359  21.79686761510272 7.005640516874156 22.71394967391797  21.40846248874397 6.342147801584206 23.58841854316471  26.84909057617188 16.24510955810547 22.60393905639648  26.97295951843262 17.06135940551758 22.3551197052002  27.51387023925781 15.94804954528809 21.68102073669434  27.68619556383842 17.12859166721838 22.86031787545183  22.90926933288574 9.004252433776855 24.6489200592041  22.02580313272635 8.23327348507885 24.98936769331077  23.27001062098992 8.263760699676979 24.50712217956915  23.42620529469409 8.727758081453358 25.60391978654002  35.51762008666992 10.49878978729248 22.69956970214844  34.86111427739255 10.30783991447353 22.25146398739164  34.48752409463447 10.73914855522363 23.44220991874565  35.23461007444121 9.741983512868503 23.40685404
[...]
<PointData  Vectors="u"> 
<DataArray  type="Float64"  Name="u"  NumberOfComponents="3" format="ascii">2.5724190493700000e+01 2.6557677737789653e+01 1.6086626516447251e+00  2.1079278495368005e+01 1.8523351881038661e+01 -2.7504913035900551e+00  1.7568467827415240e+01 1.8117953991599318e+01 1.7970861318951810e+00  2.1984305691000475e+01 1.8669011265085203e+01 3.5809189945333499e+00  5.8769729250785954e+00 2.4548483993413832e+00 3.1773592516363030e+00  7.6291358672425575e+00 8.1402950436132504e-01 2.4296407078306048e+00  7.6335943491907363e+00 1.4845057217588883e-01 -1.4634980576778951e+00  8.3432007255184164e+00 2.7022530323823979e+00 1.5970219728072854e+00  3.1655903532195238e+00 1.4402732678299266e+00 -1.0411828525682167e+00  4.5436352593317055e+00 1.7005179072243810e+00 7.6836984965267705e+00  1.3365353020282466e+01 1.4204565108717739e+00 -1.9568166325782299e+00  8.5551025663886264e+00 -4.9045496969761508e+00 -6.2276893785379928e+00  2.7305736430595974e+01 2.9404555669136454e+00 -2.5326321905697928e+00  3.8491246800940033e+01 8.1878105070109495e+00 -2.9747971147407393e-01  3.1748847354785156e+01 8.4796667313260148e+00 6.7442822688131612e+00  2.8675661514064021e+01 6.4235049339583581e+00 -8.8162121918775926e-01  3.9793064291507747e+01 3.5139967462827265e+01 2.3579796913832702e+01  1.8461659584865764e+01 2.5388613716169235e+01 9.0933887119809871e+00  3.3868153952817416e+01 2.4428804370549919e+01 2.2169927824003441e+01  1.3055242143746870e+01 8.0453764616399202e+00 -6.9918027313282494e+00  1.3699274373696214e+01 8.6793409821245167e+00 -6.4836661281672612e+00  1.4295391530992086e+01 8.2661300637215049e+00 -9.8650223291507899e+00  1.5515912717756608e+01 6.3286553741536640e+00 -8.8834026966031914e+00  5.0132549259347927e+00 1.3269301218210237e+00 -8.5934022970978745e+00  3.9719189007935927e+00 3.5043860238416511e+00 -8.7071097307258416e+00  6.7127130063706950e+00 3.7947544038021648e+00 -6.6420754702370584e+00  6.5020166117508271e+00 4.8848175514392805e-01 -7.3145820159444908e+00  1.5202995527900708e+01 2.2526038491094704e+00 2.4535110936220201e+00  1.4820230951294919e+01 6.1320445693725203e-02 -1.2997910386360636e+00  1.6423665499678044e+01 1.4666769734386222e+00 -7.0431951045631991e-02  1.3277704702428114e+01 4.5887112378875550e+00 -8.2552459134489553e-01  2.4344704074283669e+01 3.1826855666083112e+01 3.2165230276343962e+01  3.0396442002130630e+01 2.2456963715012794e+01 4.0796488684036248e+01  1.0349448693217736e+01 3.0075719031843704e+01 2.3605256306361458e+01  2.6560705369143783e+01 1.6769974052049548e+01 2.8170608877191516e+01  1.3444276620764894e+01 3.9597196057230359e+00 1.0358414421187876e+00  1.2227154926718605e+01 5.6731464527116584e+00 9.8391825690847390e-01  1.1898050844116117e+01 6.2485693799061464e+00 2.5766512286811181e+00  9.2647678623937910e+00 5.4569601731901001e+00 2.4782481387784343e+00  1.2110270684461723e+01 7.5149375521955459e+00 -9.7269949397381594e-01  1.2451095447129525e+01 7.6688164133009620e+00 5.7881518539888266e-01  1.2458345520386647e+01 6.3679818949307831e+00 -2.9495876861577883e-02  1.1713054552055885e+01 8.3488301519146013e+00 -1.5389996634296896e+00  7.5122109383184128e+00 1.4580147497773970e+00 2.6417960869873842e+00  6.9860892288537153e+00 -3.8424870753264095e-01 1.0973234364467534e-01  8.1803303579605977e+00 1.4341415822662480e+00 6.4907071274642125e-01  6.4112172518057067e+00 7.1487260591627000e-01 4.3507966320075381e-01  1.3347641057323782e+01 -1.3369568133587164e+01 -1.5114902328108768e+01  1.3233160820664928e+01 -8.0503978820807784e+00 -1.3911102681194285e+01  1.0848095477236667e+01 -6.9683229574860732e+00 -8.8539128865657446e+00  1.4204314044163597e+01 -2.0588061036559737e+00 -1.3049126901241348e+01  7.3708731772396803e+00 1.1275313879553150e+00 2.2252411699049213e+00  9.5808337217649520e+00 1.8856187728375504e+00 2.9597817704552871e+00  6.5561278198369362e+00 -3.9255443168850784e-01 4.1236551641532175e+00  8.5252081058334372e+00 7.4831317677208331e-01 3.3315003403738133e+00  1.5373129569083190e+01 -1.4181021298747570e+01 1.8815313929689972e+00  8.4885552364383550e+00 -1.3895492951835720e+01 -1.2481497521406788e+00  1.0858819916875555e+01 -9.5346966464636633e+00 -2.3102552427956291e+00  1.3584855678431612e+01 -9.9934707536683423e+00 4.7629472898537040e-01  1.4374803450839551e+00 1.6076601381901661e+00 -2.5900596391597195e+00  8.6791088970838770e-01 1.6879075319377022e+00 -1.8883109913014589e+00  1.9798115640184668e+00 3.3544246828592814e+00 -2.8862326709270985e+00  2.4171281193683760e+00 1.5329469234773085e+00 -1.4487273353365866e+00  8.8762260268663074e+00 6.2582856835129341e+00 -3.2960516544844225e+00  1.1072297728253016e+01 6.4117914552859663e+00 -9.6171165649009964e+00  1.1479317950297311e+01 1.0371833151442779e+01 -6.0531840141910749e+00  7.1069039592760612e+00 5.3315511625955336e+00 -8.8932861889919508e+00  1.4497398723365076e+00 -4.4590283621569844e+00 -1.5855312745057923e+00  5.5234182247549564e+00 -1.9867496331752410e+00 -4.8674258560455348e+00  3.8411203431555880e+00 -1.6001177963830493e+00 -5.1567452672372553e+00  4.7723716781028482e+00 -2.1532883448745963e+00 -2.1142515385200271e+00  2.4617446694656522e-01 3.0968215897838902e-01 -9.0661740048564798e-01  3.3960490366558288e-01 3.5237926483924992e-01 -2.3486745446163065e-01  1.1072255529682682e+00 2.6268932039048987e-01 -1.0062753324274496e+00  1.0933659212495901e+00 3.1708048005420231e-01 -3.4161376323466691e-01  8.1420380615245858e+00 -5.6991970620521979e+00 -9.2842396176011395e+00  1.0042086480141679e+01 -7.1653035475687936e+00 -1.0653595269442761e+01  8.2976169785817682e+00 -8.8903301212976746e+00 -8.5690215124664473e+00  9.1537604684925729e+00 -6.5810149747257904e+00 -7.9679782910324208e+00  1.0023751549743103e+01 8.4027715715905060e+00 8.1627912608440933e-01  9.2527817135165229e+00 5.2455072056880372e+00 3.1706966215290282e+00  5.9297851636107435e+00 3.1670784588359320e+00 3.0461037516197847e-01  9.3340636991080377e+00 6.1828872938203778e+00 -2.9193047845401876e-01  9.1961185954398932e+00 1.9814923070086317e+00 -1.3801159100628342e+00  8.1567022923126764e+00 7.1313547215418649e-01 -3.3203068228378507e+00  8.9416077768391045e+00 7.1430000250750525e-01 6.8540036772230573e-01  9.7159842995029191e+00 3.5042132107726718e+00 -1.6413590918245720e+00  4.8163478514137639e+00 9.6850767421432959e-01 -5.6386756110253398e+00  5.5164232063333465e+00 6.8502115867605839e-01 -5.5264374597619526e+00  3.7210526138115756e+00 1.1646030859392605e-01 -6.0329147640234799e+00  3.1692380379666710e-03 -4.0270101107280665e+00 -7.8678171580407263e-01  -1.3346282006742544e-01 -3.8725092825962215e+00 1.1127536585654516e-01  -5.0520833061245618e-01 -5.8433847354305595e+00 -7.9175290346589311e-01  1.4590414142813002e+00 -3.8338051295979994e+00 -1.2617573641640452e+00  1.8277914972232630e+01 6.1546686498684524e+00 -9.6038620241914352e-01  1.3214992508326628e+01 1.2635054957261387e+01 -1.1428760289851130e+00  8.0300215384509777e+00 8.2629325930834145e+00 -2.5864435182065137e+00  1.4333200659114793e+01 5.4834044822576642e+00 -1.9551605084451860e+00  1.4946647423852498e+01 1.2155790635036574e+01 -3.1243054606281651e+00  1.3039873096155606e+01 1.1763982238457791e+01 7.8243076966280786e-02  1.1823633550130456e+01 1.0285092505930878e+01 1.0457438034521567e+00  1.4138602684503290e+01 8.6955056161126159e+00 6.3636478825423215e-01  1.1309195940807738e+01 2.7609975367278028e+00 8.1093250098913874e+00  9.9441857758974272e+00 1.4261147971124442e+00 3.3391531982740412e+00  7.4043522472220804e+00 4.1966968954415051e-01 4.7673864354114617e+00  1.0284538710016349e+01 3.2219317857412637e+00 5.0273322100995328e+00  1.8381365486189402e+01 4.1541996342636764e+00 -1.2676623426661380e+00  1.7977672807673500e+01 2.7580240154915314e+00 1.3163389203078273e+00  1.6109619079353326e+01 1.3431360619919213e+00 -1.2540280981842837e+00  3.8859075099814420e+00 -1.0956641766628494e+00 9.6712004740206614e-01  4.9113091614571278e+00 9.7141473811927781e-01 1.8490424902434215e+00  5.2276758509850314e+00 1.6742498470507126e+00 1.1769850136779043e+00  4.9252995670789632e+00 -9.5692843120168281e-01 3.0163297166904135e-01  -1.1561960455101332e+00 4.7235854479889632e+00 3.1434179287282551e+00  1.9154209951700361e+00 -1.4821013643822363e+00 -3.2543272789405058e+00  3.8331126690842674e+00 5.2496213167638901e+00 1.9742610687149680e+00  5.1230714171997693e+00 2.7877403356156266e-01 -1.6768065772173888e+00  6.9139893452146035e+00 3.9466268175320379e-01 3.0587444949162341e+00  8.0028526099349921e+00 1.6035076876020013e-01 1.7807554038720244e+00  8.1122356854088959e+00 1.8454647433020965e+00 3.1133023478655062e+00  7.5026141112211562e+00 1.4250331437740249e+00 1.7934506947996327e+00  1.0028800362514106e+01 -7.3075316713801108e-01 -1.3616177411656157e+01  8.6682062774007722e+00 -2.4182375177759474e+00 -1.2132409936589584e+01  8.7385504499816324e+00 1.8826857303507782e+00 -9.6120659854394983e+00  1.2439967470241424e+01 -7.7665344428781979e-01 -9.3661140624754964e+00  4.2967262269922389e-02 -1.2841782792160639e+00 -4.0028439999511284e-01  4.6838094697462695e-02 -9.1447960768433723e-01 -1.5021270799663264e-01  -1.0740114506958526e-01 -2.1320904814105046e+00 -2.1845044616577827e-01  6.9947662921295395e-01 -1.1408517213096530e+00 -1.3865202262390725e-01  5.4980807001634959e+00 -3.8825369576481030e+00 -1.0445470404279726e+01  9.1144158371046053e+00 1.6100795557994256e+00 -3.9904016871242596e+00  6.8748443324746455e+00 -3.1728823139512756e+00 -5.8372500400586729e+00  4.7919531057377380e+00 -1.5706543064904184e+00 -7.0557865872431593e+00  1.0980468953976729e+01 1.5559159922876218e+00 -5.6077548015973431e+00  9.8375247962974850e+00 6.8077403044363409e+00 -3.5366329409437625e+00  9.8673852476527841e+00 3.7547484917541971e+00 -5.0437006180984412e+00  6.3510466630722284e+00 2.9850128952365789e+00 -5.3794170409306910e+00  2.9400574994961106e+00 -1.7400210825312663e+00 -4.4045302796828691e+00  3.0320596369823001e+00 -1.4720071987223882e+00 -4.3511704709142798e+00  4.6492187000171317e+00 5.6448103161844754e-01 -5.0097033296438358e+00  3.7562855462957945e-01 -4.3282404788103754e+00 -1.3008987254936708e+00  1.2189194187181625e+00 -5.4884765612148394e+00 -1.7518348900542853e+00  1.8738686349713676e+00 -6.0266626978842490e+00 -2.3865918535910660e+00  2.2819152127817754e+00 -3.4726925798643062e+00 -1.8521206547787792e+00  2.7422907000159862e+00 7.7266187583161496e+00 -4.3254194025773423e+00  4.0575291574680943e+00 9.1602730192541397e+00 -2.6877135550869675e+00  5.6443765192702653e+00 5.4990836782895309e+00 -4.7355650459214189e+00  3.2096596040823884e+00 7.2709861431505427e+00 -7.4783503743909041e-01  1.2215369959622331e+01 3.5427789761530479e+00 2.2491909948095543e+00  1.1738631880269454e+01 4.8395032064104599e+00 3.1727417790729349e+00  1.2608042974411806e+01 5.3376653175965911e+00 1.4649952656143765e+00  1.0103086268730957e+01 -6.5701664340151273e+00 -8.4845626336775872e+00  1.0467049637140439e+01 -2.0894655317668711e+00 -7.4581563931639394e+00  1.3223709570538496e+01 -1.8109599137325363e+00 -7.9619197773072381e+00  1.0367514048300517e+01 -3.9237472360784160e+00 -9.7787805687626417e+00  1.6352883278121780e+01 -1.4487298580273180e+00 -3.3138502479966254e+00  1.3724327633834761e+01 -5.5525524726796516e-01 -4.1502447972899574e+00  1.2770664920601705e+01 -1.2278727498663502e+00 -7.1429394847360390e+00  1.5986195165610395e+01 -1.2093182083243605e+00 -4.5536665740937803e+00  8.8453919635649125e+00 6.5371780342817738e+00 -7.1515849316700484e+00  6.6793547998684195e+00 7.4079688800780801e+00 -6.7381588931373937e+00  8.9023150837130789e+00 1.0568903179011594e+01 -4.9417922096773568e+00  9.0654067418841571e+00 4.6450896489525606e+00 -4.4522255777891884e+00  1.6566507076339153e+01 1.7371126377695070e+01 -7.0743148821812474e+00  2.9514170789717589e+01 9.0777286504424985e+00 -3.5042242446292997e+00  1.6238995176265817e+01 7.2605775365272365e+00 -2.3535177885609677e+00  2.1439222530457670e+01 3.5403559710489918e+00 -2.5571554757935751e+00  5.6815101252423910e+00 1.8852110775141100e+00 -9.1040066820654726e+00  6.8684440337147534e-01 2.2579868339186198e+00 -6.8319768018248315e+00  3.6502049753579109e+00 -3.3177485037801763e-01 -4.2654525716651577e+00  4.5228726527213503e+00 1.3972942849726380e+00 -6.1592530177081839e+00  1.7715070971269760e+01 4.7888994643917204e+00 1.6340191384266110e+00  1.6377316890789402e+01 7.6152230496387272e+00 1.3199534129953718e+00  1.5505933554854094e+01 6.5287074481356022e+00 3.4057189219559636e-01  1.4775159356795015e+01 7.6116422763948428e+00 9.5118022262039237e-01  1.7135681235369966e+00 1.0666501739965111e+00 8.8070818532399535e+00  5.3456237244541178e+00 -1.0609055394189305e-01 1.7787108312071851e+00  1.2043171923576745e+01 3.3018513312164188e+00 9.4839242551934220e+00  6.6248311430089979e+00 4.5345128326501429e+00 8.7886640458881882e+00  6.8130020728731218e+00 -2.3104414068319287e-01 -6.9401494536950636e+00  4.8119643021343412e+00 -1.6450029938349109e-01 -7.2067437641497136e+00  7.9268628821987868e+00 -3.5906177735331685e-01 -6.7056320538058927e+00  7.6597351315716988e+00 8.9056536971412481e-01 -6.1939984809260826e+00  2.0421338200890204e+01 9.6502069637181076e-01 -1.1172275245613715e+01  1.6012732885187102e+01 4.8501050862863444e+00 -1.3266550425615709e+01  1.7204158347638781e+01 4.3771860088594483e+00 -7.6956259595681002e+00  1.7542172138767871e+01 2.7275797701739344e+00 -8.2647606354289938e+00  2.7983360367089380e+00 -1.8700006128715488e-02 1.3375316896154038e-01  1.0457588755951548e+00 2.2885898528790796e-01 -5.5512095990177002e-01  1.9785618266549647e+00 1.5489163709618331e-01 -6.0127448121738658e-01  1.9675415308848647e+00 7.9442466811199020e-01 -7.0505873746299375e-01  2.5839825181618764e-01 2.5576798790987315e-01 -2.2789373967412931e+00  -2.7814484121381731e+00 2.1381913152286667e+00 -4.8309057824029056e+00  1.1306576804042368e+00 1.9183871187943451e+00 -4.8228260442925261e+00  2.1651656117225531e+00 1.7990504309643744e+00 -6.7096161079402270e+00  6.8917686063756110e+00 -1.1096607274323620e+00 -2.1207740165319180e+00  7.8402016582275129e+00 -3.6034471910007104e-01 -8.2047134063787863e-01  2.0343360534224420e+01 4.5752786415931483e+00 -8.5470751786944421e-01  1.4912832126119346e+01 2.5197455464426652e+00 -1.4157279453594558e+00  1.4253007188962684e+01 5.1067696209782785e+00 -3.6286721051222814e-01  1.6566292492011179e+01 5.8429240890187435e+00 -1.5418440857001212e+00  2.1958292005741460e+00 -5.7738701885678062e-02 6.5809537365794590e-01  3.7472945569466476e+00 8.2594325865602358e-01 -4.9981528458540864e-01  2.0747236609333872e+00 3.1860883636613063e-01 8.3426398503306326e-02  3.3273570950103784e+00 -7.7664911788236105e-02 1.5297300068881197e+00  8.2862914192959263e+00 -3.1145238576252221e+00 -1.5198621375888419e+00  8.3136533103840176e+00 -3.2333751973381224e+00 -4.7498256524342546e+00  7.0985055189948580e+00 -5.2869905937574027e+00 -5.7496643928751130e+00  9.9822331056572384e+00 -3.2793270802685845e+00 -5.3913279149323987e+00  8.6120879216000077e+00 1.5909131971346378e-02 5.4934238647335496e+00  1.5218035110290797e+01 5.5889262089083021e-02 -2.5108545649655909e+00  1.2847216647264560e+01 -3.7971290011337849e-01 -5.4263558567983923e+00  1.1607595994616586e+01 -5.0466044907131857e-02 -1.9511454377181034e+00  1.5255172678277759e+01 6.5153656657381127e+00 4.6220024985533037e+00  1.5462334294427448e+01 9.4933123643246589e+00 -3.8807898579804651e-01  1.6874980000116416e+01 1.1397032555911679e+01 -6.5533104232319783e-01  1.7653050096026607e+01 -1.1861590692882424e+00 -2.5640813248019061e+00  7.2414744895123295e+00 2.4042832737915951e+00 -6.0854818063253022e+00  2.2708725796388592e+01 2.5469614683896431e+00 -2.6360347061011460e+00  2.0153232840682911e+01 6.8193427911261342e+00 8.1380036286125215e+00  2.2854737142985343e+01 3.8300100164747226e+00 6.5381286046928926e+00  1.9716734859009517e+01 4.0452218736956862e+00 4.9252655629565062e-01  2.0901216864409893e+01 -1.1743795469047582e+00 -8.3240857799109218e+00  1.7059408401162454e+01 -8.5182568459130135e+00 -1.1869866585167184e+01  1.3261452428986924e+01 -3.7143331566549516e+00 -7.5613101272138543e+00  1.3988593843508109e+01 -5.6301992732360260e+00 -8.3954978204629729e+00  6.4774012419025091e+00 2.8886382613035670e+00 -3.6592487352617376e+00  5.4980813115379714e+00 5.4180228783171236e+00 -3.8448650946467122e+00  7.7397664530115025e+00 3.7520296628757506e+00 -2.7940628794785169e+00  6.4183406100567648e+00 4.2417872790264957e+00 9.2782387423760271e-01  3.4832429981963733e+00 8.2450455371273681e-03 -1.0568972463422823e+00  3.3540454484851443e+00 -9.0175238556112591e-02 -4.6809604607028206e+00  5.2923973316042239e-01 3.1810593482114674e-01 -2.3550403130617372e+00  3.2459311281477672e+00 -4.8064144144768800e-01 -1.8139656694418149e-01  1.0646940581749085e+01 -1.2194445444324435e+00 -4.5817673099676162e+00  1.1486957531076063e+01 -3.1416560782469949e+00 -8.5311105759752390e+00  1.0152348123269274e+01 -1.1490739556873387e-01 -8.5940843428824625e+00  9.4870407107382331e+00 -1.4929774426630649e+00 -6.0729712788475414e+00  5.6484306260010584e+00 -7.4680756711898493e+00 -8.4960558929815893e+00  1.3650079310455359e+00 -6.0434815254290308e+00 -5.9828004021929981e+00  2.1718529199285146e+00 7.9925836421165082e+00 -3.5786374507770130e-01  3.7570921201223308e+00 8.5649232399836190e+00 -3.3435285141677782e+00  3.6311165854311254e+00 8.0234506974852060e+00 1.6283697712515552e+00  6.0486030183281425e+00 5.9346525432377950e+00 -5.8310561046676828e-03  2.4963143049744776e+00 -4.7020874961713925e+00 -1.9077881110870871e+00  1.6318187447756076e+00 -7.5892190971659943e+00 -3.5189438016970311e+00  3.8404011639422180e+00 -4.3471472537198155e+00 -2.7939363246277473e+00  1.4277568690675468e+01 7.0694236076048753e+00 9.3719856922917755e-01  1.1388163707381246e+01 4.2972370616190334e+00 -2.3604897638112856e+00  7.8545772278693651e+00 -9.4382363599177452e+00 -1.0362966955930496e+01  8.2453037740190762e+00 -7.4456763244755173e+00 -9.9422665655331386e+00  1.2152177608774808e+01 -5.0595118920640196e+00 -6.3690450033342829e+00  8.6663289452161774e+00 -5.9265481722429341e+00 -6.1314838757183523e+00  1.0226326498770540e+01 1.1835511656390849e+00 7.6895658837052876e+00  6.0499539972458738e+00 -1.3948902319346690e+00 6.4854301740095890e+00  8.1127551535312055e+00 6.2778916143023211e-01 4.4493313656826761e+00  6.7578156589379352e+00 -3.1560005655812778e-01 3.7156329219006441e+00  1.1198151682608694e+01 1.0122778556492733e+01 -3.1451628718407099e-01  6.9509577479740763e+00 5.9558851264497541e+00 -2.3537618875217277e+00  1.0634603255155415e+01 9.5194339317594068e+00 -4.5838130724691801e+00  8.3532575047845263e+00 5.1447841989833769e+00 -2.5778574005054908e+00  9.2237920148370147e+00 -1.5821344344103001e+00 7.2691584938294029e-01  1.0847244061689132e+01 -2.6521039146944489e+00 2.7707134896716955e-02  8.2924658502764785e+00 -6.8736653274469794e-01 -7.2050903763195899e+00  8.7026230256740202e+00 -2.6674527747818205e-01 -8.2346583798633119e+00  7.4505402316308906e+00 -1.7853738689240122e+00 -5.9279203281171897e+00  6.7112954290788478e+00 -9.7245975092931469e-01 -7.7517916038422499e+00  7.7915662162577162e+00 1.5977600988264409e+00 -6.8885441938286460e+00  6.0590972033794950e+00 -1.7724012593637875e+00 -7.8722544864340547e+00  8.3769148530277295e+00 1.1518918744671462e+00 -8.5138921391951534e+00  9.0399422226686461e+00 -2.7516884780321976e-01 -6.4874388001113372e+00  5.6887026967356435e+00 1.4191625650387621e+01 -4.3966344642244115e+00  1.0915306639741036e+01 1.6491772062388019e+01 -1.1093132838255140e+00  1.1098744729057106e+01 1.0988676846873057e+01 -6.7094024726326240e-01  7.4223775076583873e+00 1.2009469752308480e+01 4.3609753158465853e-01  5.1563916575414863e+00 -1.0534802760115372e+00 -2.3437967241900748e+00  8.7978456297823211e+00 -3.2062594001231837e+00 -3.2231107365237763e+00  6.9304783725759291e+00 -1.7192873283941696e+00 -2.0659515901824479e+00  2.2879334265134361e+01 1.0592798511306061e+01 -8.3102981717545799e+00  6.2830001744777322e+00 -3.2889171723684041e-01 -8.2009281719933036e-0