<?xml version="1.0"?>
<VTKFile type="UnstructuredGrid"  version="0.1"  >
<UnstructuredGrid>
<Piece  NumberOfPoints="8120" NumberOfCells="32011">
<Points>
<DataArray  type="Float64"  NumberOfComponents="3"  format="ascii">34.3791389465332 6.51554012298584 27.14228057861328  34.9128303527832 7.159039974212646 27.23946952819824  35.13011932373047 6.536996841430664 26.4462890625  34.60470692251231 7.36625243761215 26.5142861285684  26.23845673385199 3.476892965489231 33.88606362212148  27.10149955749512 2.799056053161621 33.67927169799805  26.62365913391113 2.226325988769531 34.19915008544922  26.3107795715332 2.891041994094849 33.58572006225586  27.11422573886168 10.71728622047777 29.33648317416864  26.57271051141805 11.00537178931799 28.74267009920055  27.87300627704928 10.72223837078246 28.02426118216048  26.24597961613497 10.00380187972843 28.26936163005118  8.319725036621094 0.09558500349521637 25.27935981750488  7.744144916534424 0.09558500349521637 24.65199089050293  7.374207019805908 0.6876109838485718 25.27131080627441  8.188456535339355 1.165763020515442 25.32064056396484  35.96477040860787 17.19682345424039 27.95311113440767  36.8660351966153 16.20502980967019 28.60736809656953  37.49320536468388 17.43557901196133 27.60758431573566  36.71993107668517 17.92622206811004 29.25819738750189  18.15447998046875 0.6816989779472351 30.55500984191895  18.23812631453073 1.819471798432995 29.84012695829485  18.55550956726074 0.6429020166397095 29.72613906860352  17.65732601528248 0.690538555805599 29.68726602252496  32.75207138061523 10.93136024475098 26.34918975830078  31.81641006469727 11.10233974456787 25.7568302154541  32.72372817993164 11.34926986694336 25.56191062927246  32.38903036944704 10.22437810473418 26.16369264268148  34.09026107313191 16.55571440184556 30.51268137688902  33.88375854492188 17.18732070922852 29.55645942687988  33.11483001708984 17.28025054931641 29.95257949829102  34.57072406613248 17.48280827298325 30.42666791858331  22.88225936889648 2.331434965133667 16.58629035949707  22.97236061096191 2.993769884109497 15.90116024017334  22.57789039611816 2.195597887039185 15.56179046630859  21.92419230913754 2.438811646629931 16.59073105095517  13.64352035522461 0.09558500349521637 28.74506950378418  14.48805999755859 0.09558500349521637 29.18498992919922  14.34523010253906 0.09558500349521637 28.10177040100098  14.26860186363399 0.8962998893940018 28.76304024589591  35.6425895690918 7.805421829223633 27.36277008056641  35.69223022460938 7.19580078125 26.58629035949707  35.52007950851419 8.251850567500551 27.13849051169577  30.15785481847991 5.052454602881958 26.49104451023474  30.70338886822507 5.734390739998017 27.18571970880863  30.97375729578255 5.75192237596054 25.70307588750977  30.26149693945942 6.231904514906795 25.78636559528348  35.50333023071289 12.68857955932617 24.29021072387695  34.68006896972656 13.06538009643555 24.51547050476074  34.72109337889442 11.85350323099136 24.43751351647833  35.36427935633157 12.32520363328645 25.13113254348877  25.1914005279541 15.8389196395874 28.1862907409668  25.67486953735352 15.18927955627441 28.25420951843262  25.14755847799642 14.49204910202624 28.49855799534178  24.73025708827507 15.19134995093509 27.50066790263221  27.49939772211724 6.040561868154662 35.0636229773681  27.9859504699707 6.937576770782471 34.44842147827148  27.26948144183415 6.468575613337436 34.25145476076509  27.3421143170988 6.827407695105331 35.55319378518249  26.31578063964844 20.22166061401367 25.7653694152832  26.38101959228516 19.26736068725586 25.94541931152344  26.83602905273438 19.94013023376465 26.39352989196777  25.50556477876305 19.73876991787187 26.64029755868754  19.94610977172852 9.857664108276367 38.18770980834961  19.91542053222656 10.74433040618896 38.49259948730469  21.14235550672289 10.27471129123756 38.79845195042704  20.81327712105984 10.70207556178925 37.35253039738533  25.86035919189453 12.50069046020508 23.40933990478516  25.67308044433594 13.08121013641357 23.76271057128906  26.27835845264035 12.23044980441888 23.96776073122843  26.35236955816999 13.52415096613267 23.93956501781522  7.773248684704234 2.792522100254617 19.59741631533982  9.516697495174787 3.361655800729649 18.7117940637308  8.09777957171627 4.159760009283453 18.81990084457015  9.152567852576004 4.408923062264841 19.97710349125446  25.08498954772949 0.463454008102417 38.83377838134766  25.3684196472168 0.09558500349521637 38.26507186889648  25.00940381935096 0.9608698497896054 38.00600908328587  25.81312260386077 0.8723156340637668 38.58110403654901  29.3667003772865 19.30805498465221 37.53760497674538  28.68825344041529 18.64242730791512 38.22939435134327  28.40289657100666 18.85270406141872 36.76068964139638  29.2414801781897 18.32468399005903 37.59526936959428  21.3848705291748 15.48254013061523 27.80072975158691  21.97352981567383 15.80782032012939 27.55331039428711  21.60420989990234 16.38850021362305 27.74650955200195  22.1284554595122 16.00951843271152 28.4816560007126  18.93788909912109 8.973540306091309 20.10206985473633  19.56550025939941 8.630832672119141 19.63917922973633  19.21762084960938 8.337586402893066 20.50494003295898  19.05515083555661 7.790209132518613 19.79520700246171  23.8199291229248 8.929689407348633 22.68943977355957  23.74138069152832 8.989166259765625 21.50762939453125  24.55989074707031 8.955435752868652 22.0098705291748  24.0846482367765 7.687041359233702 22.20357387134313  18.96104049682617 7.825235843658447 26.68133926391602  19.79015390121104 7.020314677930913 26.57189602545551  18.38425400898137 6.9154182567824 26.65382549655616  18.62636265863724 7.502942463600287 25.81784977505643  29.50457000732422 10.9754695892334 35.53081893920898  29.8074893951416 10.90530014038086 34.70655059814453  29.50317931132104 12.34687554127081 34.60804769156135  30.2639361831956 12.26682612572651 35.45012590987027  24.03335952758789 4.374146938323975 31.92173004150391  24.60001945495605 4.503707885742188 31.19667053222656  24.11541938781738 5.194726943969727 31.59728050231934  24.80891990661621 4.107397079467773 31.83527946472168  36.7947998046875 7.939727783203125 25.97591018676758  36.39913940429688 7.861127853393555 26.6499195098877  37.13685989379883 8.569181442260742 26.28104019165039  36.37075892412741 8.932036658771425 26.54225885579558  3.338845014572144 0.09558500349521637 26.64773941040039  4.124124050140381 0.7161189913749695 26.70215034484863  3.000479810048755 1.014179511804993 26.18683505348272  3.061164721040992 1.103216606063491 27.21710560724785  38.59210968017578 14.19577980041504 30.99505996704102  37.87430072551417 14.5708273334112 30.2976787008023  38.90797302070094 14.66776824976421 30.4175588810007  38.90328749360128 13.70292122800763 30.06569794024073  24.61955393501369 5.729207607017445 26.26435319543223  24.82826324934565 6.616697868169569 24.87611641271513  25.98533158028808 6.28840527690646 25.60545615796469  25.44044759890467 5.82680295349591 24.77999641866277  4.814870834350586 0.9924589991569519 39.89208984375  5.204606056213379 0.4639959931373596 38.86196899414062  5.153764571086372 1.363555033230949 38.36821259456691  5.780478817358538 1.577516686092104 39.24196304409652  8.937583923339844 3.994426965713501 23.16554069519043  9.022880554199219 4.869105815887451 23.39876937866211  9.596207618713379 4.258718013763428 23.61586952209473  9.61470009363652 4.38965288473522 22.96849665201074  18.28440285915734 3.530964867688151 29.40069084485169  18.41871733131307 2.181151151254709 28.32657805006649  19.35220921895721 2.801268866417136 28.44053197439563  18.85950943430372 2.567317065668881 29.42444227549026  26.55034593237134 9.555521565422465 24.36133021681851  25.38264039425704 8.124286298877308 24.207668627426  25.85953571375595 8.579836451747065 25.67396541173117  25.23962944173181 9.599908125301022 24.80666332143565  2.447232725895193 1.095129799714786 23.72987635038141  3.106514930725098 0.09558500349521637 24.58004951477051  1.985139399235706 1.025796627469854 24.63661427257967  2.221836090087891 0.09558500349521637 24.1338996887207  20.00617980957031 9.197901725769043 38.76840972900391  20.09869956970215 9.995880126953125 39.02400970458984  20.34049034118652 9.423279762268066 39.36502075195312  20.74946028058507 9.466475520521664 38.03348222514362  10.35818004608154 4.973543167114258 27.11243057250977  10.87691974639893 4.989037990570068 26.59758949279785  10.65577983856201 5.681509017944336 26.8709602355957  11.01518645242453 4.716271982191934 27.26412996070284  3.119940042495728 7.278544902801514 26.59510040283203  3.099049753304223 8.410002825033178 26.47487664698666  2.304414875507706 7.936102918469949 25.79525872985419  1.949142373172263 8.085771720188131 26.88847876049708  23.1141300201416 11.18826007843018 28.74068069458008  23.81983947753906 11.53730010986328 29.13941955566406  23.94433553246686 11.5177459489256 28.19656390979959  23.31738192497723 12.16090308934126 28.74067131549063  18.87026977539062 3.923463106155396 25.78803062438965  19.41661071777344 4.312838077545166 25.24838066101074  18.71119394318229 4.829421733635419 25.03112367968264  18.49095349146005 4.692810949219037 26.11445425442576  39.89416122436523 10.65517997741699 29.59099960327148  39.89416122436523 11.33504009246826 30.20170974731445  39.89416122436523 11.5145902633667 29.39339065551758  39.05332083169912 11.02842963527597 29.9070251238138  18.08009845251352 4.559156836252775 23.40043604157604  18.83731079101562 4.087762832641602 23.74139022827148  18.9624938803594 4.961569727536028 23.72813613804041  18.23359652328603 4.42212969864937 24.22053364813143  27.72801971435547 0.6290249824523926 36.74245834350586  27.63576655644409 1.864274817211176 36.35598882997595  27.46262849331762 1.271693124060092 37.98794912382079  28.64659762831765 1.705139193438511 37.50083060610005  16.92330932617188 5.794055938720703 27.32415008544922  17.57271573026096 6.292816600233106 26.20677060890071  17.061982245935 5.015928891971939 26.82073832116684  16.24644907596095 5.761196
[...]
<PointData  Vectors="u"> 
<DataArray  type="Float64"  Name="u"  NumberOfComponents="3" format="ascii">2.1141976687618036e+00 1.8573343276768859e+00 -2.7630734767074794e-01  2.5796579409623428e+00 2.6626785102629715e+00 1.6095979799357976e-01  1.7620265945233986e+00 1.8165856045548068e+00 1.7964954177221043e-01  2.2048651415833365e+00 1.8717728881442457e+00 3.5819783659580745e-01  3.7295417807632752e-01 5.4677285859457103e-01 -6.1187775867089578e-01  1.3293511338063252e-01 5.7151959724105017e-01 -5.2145082848103841e-01  2.6276318841042445e-01 4.1903435678814105e-01 -3.9855274149891273e-01  3.3291014602261165e-01 5.5806643189755378e-01 -5.4430109462188903e-01  5.8945805405827434e-01 2.4516531778615061e-01 3.1772936193454893e-01  7.6550457515033377e-01 8.0507535382876139e-02 2.4305516739289729e-01  7.6616511835190015e-01 1.4016156678528189e-02 -1.4773551873653970e-01  8.3702451976111392e-01 2.6993141011384231e-01 1.5955617349534523e-01  3.2979925978082734e+00 6.7419867069486855e-02 9.7132115731546254e-01  4.3878114568903639e+00 -2.8209975647564967e-01 8.7983996255554930e-01  5.5397762534224091e+00 -2.6061567714934075e-01 2.0056174990895645e-01  5.2838967755752426e+00 6.8661519204648869e-01 1.7833742943262367e+00  1.5599197307113073e+00 7.8497053900927527e-01 -1.3914363484697061e+00  1.9729631160072998e+00 8.2341810268210880e-01 -6.3566386127052998e-01  1.4897398544674065e+00 8.8101934508134161e-01 -4.9631194611043961e-01  2.7053152728109455e+00 9.6391635808542808e-01 -7.4282844106237000e-01  4.9449717498089185e-01 3.0356217153822429e-01 -6.5382378013814324e-01  9.7535119868180897e-01 2.1687380560549885e-01 -8.0072913525039802e-01  8.9584933351009688e-01 2.0656033257554116e-01 -1.0355823858930921e+00  9.3624523325426512e-01 1.2867538637561765e-01 -6.4160654708132214e-01  3.8596392734411533e+00 8.2141942739905660e-01 -3.0265138187533982e-02  2.7388214207367909e+00 2.9526391113901518e-01 -2.5471000311908842e-01  3.1835623078806430e+00 8.5066644664513769e-01 6.7557839963452126e-01  2.8758536429571486e+00 6.4422485797094087e-01 -8.9117087104814613e-02  2.6431701031889805e+00 -4.1053254344088658e-01 -1.8215407821786094e+00  3.1447493571798435e+00 -8.5737134978050922e-01 -2.1351759601800295e+00  2.5926697813044077e+00 -4.7892004954985123e-01 -1.2946953461357531e+00  2.9090933498919211e+00 -7.5036123444497071e-01 -2.0410140574126947e+00  7.2654728217060871e-01 3.0511573006634313e-01 1.1773364776498598e+00  3.1273920896021234e-01 2.3291436719549910e-01 6.9666941034755703e-01  1.5645987878357012e-01 1.5912649276598459e-01 3.6957991838889803e-01  6.6816513083722007e-01 -1.2268272767253159e-02 4.3450853422832081e-01  9.3942162143840380e-01 3.6448338764588084e-03 6.5874153289704984e-01  1.0822316923101118e+00 2.3046404665035929e-02 5.1081244761692868e-01  1.1769007408690504e+00 -9.1090838354560097e-02 7.8929724006433577e-01  1.0989720877101075e+00 6.1939790522635048e-02 5.7190028871113563e-01  3.9901482726377004e+00 3.5227749632764760e+00 2.3633427453688500e+00  1.8514999433396351e+00 2.5452543977582667e+00 9.1099702509934732e-01  3.3956988459212889e+00 2.4486230213650644e+00 2.2220549073002540e+00  1.3742547371659872e+00 8.7045908215704015e-01 -6.5052588187732663e-01  1.3096942117087607e+00 8.0681740578317218e-01 -7.0162136577520851e-01  1.4342404889949296e+00 8.2916996225117856e-01 -9.8989402352779099e-01  1.5566564916956462e+00 6.3476300362323390e-01 -8.9137770761405388e-01  1.9180957836170840e+00 8.4358417263818619e-01 2.8428513759617275e+00  2.0328929337474184e+00 7.3303972665200889e-01 2.7252683236744226e+00  1.7948345401046497e+00 7.4408260286999339e-01 1.9709071290459030e+00  1.9823824805655694e+00 1.2013875259077107e+00 2.5500377959586689e+00  4.1232499366526382e-01 -4.6730550827993239e-01 -3.9994873629358285e-01  5.8110749016953001e-01 -3.4200597829651269e-01 -4.7606854252550884e-01  5.5596446236116726e-01 -2.5060826297154859e-01 -3.0700205473197800e-01  6.3569408395889737e-01 -2.6698820320278799e-01 -3.9820044787414699e-01  3.7686136885746298e-02 7.8637689666553301e-01 -4.4056728255116034e-01  -8.2633279258097894e-02 9.8036139430662717e-01 -5.6243116837198470e-01  2.1470785566657824e-01 8.0939807333296221e-01 -5.6691780944472392e-01  1.3213671364817225e-01 9.9614758428450756e-01 -3.1017346482513608e-01  3.0323990081427682e-01 -3.2951507229437466e-01 3.2640602139855834e-01  8.4795893134784611e-03 -6.6894106861876346e-01 -1.0557392559610564e-01  1.5287513661908750e-01 -1.0186976822062456e-01 3.2202019246430180e-01  3.9477709743870104e-01 -3.3820452150476848e-01 2.6090134251684338e-01  -1.6023738780629113e-02 1.6912151320189013e+00 4.8190648473564035e-01  -1.7139421887022614e-02 1.2476811433697197e+00 2.2903789877995279e-01  4.3589750808519179e-01 1.3341134821604284e+00 1.8728993735586691e-01  4.6202128762434014e-01 1.5483750741499818e+00 2.5820933255479994e-01  3.9894995959154289e-01 3.5036232111328153e-01 -8.7476229559832885e-01  5.0370497391518965e-01 1.3180182289833681e-01 -8.6339124642007881e-01  6.7391774825332706e-01 3.7950526628019171e-01 -6.6741300987046503e-01  6.5308905265772643e-01 4.7797303483800999e-02 -7.3500799622749502e-01  2.0127661570535289e+00 4.7905448020481295e-01 -2.1153211692945742e-01  1.0923279172526872e+00 1.8903335413333683e-01 9.9449698285381666e-02  1.4284439377726452e+00 6.0263059544709019e-01 -1.3850707038963642e-01  1.2932623367860854e+00 3.9967054632494559e-01 3.0038250771235803e-01  8.0128259423492387e-01 -8.5084364008770286e-02 -1.2822049169068031e-01  6.8635713307836310e-01 -5.5080021286519822e-02 -2.0985637000305955e-02  7.6223695702502570e-01 4.6309524722818247e-02 -1.7106807213471001e-01  6.4797310091323113e-01 2.2773480569771725e-02 -5.9160081559319531e-02  1.3145924324650218e+00 5.4051732825629628e-01 -4.0179276717069717e-01  9.3253187718100483e-01 6.0761905783895398e-01 -3.3119475956610950e-01  1.2642249865586588e+00 3.8305695249562249e-01 -1.1938517754856581e-01  1.1987009515822522e+00 6.5297286287073097e-01 -5.5151342610933374e-01  1.2659076291115676e+00 -1.1594847598173341e+00 -8.1350953492096578e-01  1.0761565512322842e+00 -6.4639602845288546e-01 -8.1004779504157010e-01  1.8424970069428486e+00 -8.5089888150786042e-01 -5.2108141894857274e-01  1.3451832792877920e+00 -4.8393846408843610e-01 -1.2410476419942625e-01  1.5473058686044263e+00 -1.2374640390577685e+00 -7.7382645182608245e-01  2.3922662109419290e+00 -1.3968672458496743e+00 -9.5097638981789689e-01  1.6412803161794551e+00 -1.4883372833700812e+00 -1.0961606646273065e+00  2.1554651516165761e+00 -1.0569767242473656e+00 -5.7896716724749464e-01  1.5245446858180829e+00 2.2588171172511554e-01 2.4444536058431049e-01  1.4866589014842719e+00 6.2147061191001008e-03 -1.3172292617606840e-01  1.6472231637412571e+00 1.4708585511451894e-01 -8.9431351703092767e-03  1.3318704109905601e+00 4.6004729920283133e-01 -8.4147492989500472e-02  4.7651716835016176e+00 -3.6806423044300079e-01 1.0952783804764248e+00  2.8672729399641561e+00 8.5035280060849494e-01 4.4031195635932346e-01  2.8309086112689554e+00 -2.6172887715508647e-01 4.4819853084036415e-01  3.1339514295450779e+00 -7.8768273696638746e-01 3.3553572488405886e-01  2.7832678294297906e+00 1.3236684060210597e+00 -8.5267695044210301e-01  3.2335528143753782e+00 1.1366170242877973e+00 -2.0536727675690555e-01  2.2124779661189380e+00 7.2169964893778349e-01 -3.6625824718981437e-01  2.7488505093403095e+00 3.2981965744445879e-01 -4.2185760588802479e-01  7.0263378039148072e-01 2.3011309092416621e-01 -9.9392795721887017e-01  6.5520882354240961e-01 1.4918942975806576e-01 -9.2724458299171508e-01  6.9102584264040223e-01 3.4114428279044584e-01 -9.3563397394491910e-01  7.1720579956815733e-01 1.1689253821468057e-01 -1.0507785826427909e+00  1.0396314175901622e+00 3.0144986377316698e+00 2.3668997478495339e+00  2.4420916194132074e+00 3.1922709254943848e+00 3.2253572155134340e+00  3.0383210600796082e+00 2.2691489130024074e+00 4.0975269774169023e+00  2.6654580021187755e+00 1.6775905420141224e+00 2.8194184440724541e+00  1.8314602602686001e+00 -6.6144817800746325e-02 -3.4050555695695515e+00  2.3712828345962182e+00 -6.3107977583124419e-01 -3.9309224758118519e+00  2.0585661617743476e+00 -6.5064402799287291e-01 -3.0489671935006184e+00  1.1028216810751852e+00 -5.2908291637661409e-01 -2.6693458855257686e+00  2.3854107740800332e+00 5.7061869199356663e-01 -1.6030717131728103e-01  2.6547682261305989e+00 5.4616630206944505e-01 -2.6839316018722842e-01  2.2664896494617963e+00 2.9180164593228436e-01 -6.1352323170056888e-01  2.8831433778177140e+00 1.7813859812135799e-01 -4.7783709886475895e-01  1.3482601197180442e+00 3.9665291659017432e-01 1.0328788293268977e-01  1.2262318418878231e+00 5.6849210620611756e-01 9.7759468499158689e-02  1.1930554006110670e+00 6.2626238538109102e-01 2.5774398797837800e-01  9.2898440123722370e-01 5.4685182946911359e-01 2.4763272156306915e-01  2.6062149357853510e+00 -2.3746118458188911e-01 2.7656461279818884e-01  2.9238668249150233e+00 -1.0570186353227469e-02 8.0417128445419805e-01  2.7804567522863213e+00 2.5379623306181337e-01 8.6399074592339142e-01  3.2897578822090399e+00 2.4373587504069735e-01 3.5448392594525813e-01  2.8315693448633490e+00 9.7046720333053216e-01 9.4719180904138056e-01  2.0365645995216672e+00 4.7780335981495320e-01 1.1998771891665756e+00  2.0679343082758241e+00 -3.5510159442095734e-02 1.7275760835113201e+00  2.0364149342045956e+00 4.0504759347760438e-01 1.2105233821771151e+00  1.4461289545127445e+00 3.2282382385268166e-01 -9.0153780615585188e-01  1.7118693105065961e+00 2.3335521784966659e-01 -7.0743669569458234e-01  2.0881015884510186e+00 4.3716125905941505e-01 -1.1364113901567132e+00  1.2742866325255739e+00 3.6322805769244038e-01 -1.1414250046798187e+00  1.2146991274532868e+00 7.5299890348364618e-01 -9.8616406852443259e-02  1.2487095389769922e+00 7.6853444866879528e-01 5.6842564298170868e-02  1.2495788006218103e+00 6.3793591982652775e-01 -3.8187165449041806e-03  1.1749090017114019e+00 8.3636325417082147e-01 -1.5550381894357315e-01  2.5027687249000805e+00 -7.1967254453612106e-01 -2.5434838896919718e+00  2.8496327437581512e+00 -6.2479763223202223e-03 -2.8115499831200239e+00  2.1173441809435487e+00 -6.2252491070904881e-01 -2.6183553466479892e+00  2.2403079705834759e+00 -1.1611384872770988e-01 -3.0448470295214674e+00  4.7991841513332911e-02 1.5745540195040135e+00 4.3072153608311514e-01  8.2444015818647576e-02 1.5078342670534304e+00 2.7563924482051350e-01  2.1019145406715606e-01 1.5003245131140295e+00 2.8691593217692662e-01  5.6504077047432255e-01 1.7091062716581786e+00 5.8047118500580497e-01  -2.4662981026600214e-01 4.1443567223888189e-01 2.8855063777996054e-01  -2.2956991870294099e-01 7.0235738429418937e-01 6.8004159021249688e-01  -1.8915244957198493e-01 2.0576495281196136e-01 1.5722846690009012e-01  1.2124504684456079e-01 4.2214355377509832e-01 6.1739115285893453e-01  4.4019850852279513e-01 1.7902378556095220e+00 -1.6617772995760915e+00  1.0527645243293213e+00 1.7032765156095460e+00 -2.1038986702170615e+00  1.2253262856061335e+00 1.7054041773247570e+00 -1.7060250647135424e+00  1.0954784028236186e+00 1.4638152800950484e+00 -1.5878955750019146e+00  7.5411685776378290e-01 1.4453310651991297e-01 2.6352149037967565e-01  7.0171826390488046e-01 -4.0450708575020318e-02 9.7369842029539390e-03  8.2123527809089836e-01 1.4196830341709804e-01 6.4137606204643927e-02  6.4367701909626673e-01 6.9816099065498877e-02 4.2572562307656429e-02  2.7475592532372333e+00 1.1723746283131842e+00 3.7114824533883917e-01  3.1857580246418142e+00 6.0458338180881543e-01 3.6225061184942264e-01  2.4711247229338227e+00 6.1462482826104681e-01 1.8319286635478250e-02  2.4235671927940494e+00 5.2093433568304182e-01 4.5785642917621980e-02  3.6766564051760424e+00 2.3980226560685807e-02 7.3051367794030278e-02  3.6587036129300592e+00 7.1090715538995791e-02 1.0790592770564308e-01  3.8494764647371262e+00 -3.5943394180174698e-02 4.6245456186784030e-02  3.3899442033630898e+00 -1.2374819196495694e-01 1.7703706449521861e-01  2.1398241321888110e+00 4.7487352683301282e-01 -7.2094156660512088e-01  2.0770473541180583e+00 1.1541533653284342e+00 -7.7223127039405814e-01  2.3995417498866365e+00 5.0891073188179181e-01 -4.3933998406040742e-01  2.1063359653989964e+00 7.6797861756927099e-01 -3.7206485549354124e-01  2.9319586477320886e-01 1.7421956056736126e-01 -6.9697461489445028e-02  2.5185119019322033e-01 2.3434806066711061e-01 -1.4701182111931085e-01  3.5087082834929523e-01 1.3183930794391108e-01 -4.6938235358531435e-02  1.9306587266769376e-01 1.5226749648173851e-01 -4.9401947630813819e-02  2.6149683948015685e+00 2.6559562810758763e-01 5.6456380171132425e-01  2.3830920493720482e+00 -8.3928302001559069e-02 1.6590916469117131e-01  2.1785490914647987e+00 3.0714269260666854e-01 7.9313760987504145e-02  2.1652391741681094e+00 1.5835311717061328e-02 -3.2334678761477748e-02  2.5327190862126843e+00 1.1918898761910879e-01 2.9358415430059626e-01  1.8154176532418989e+00 -4.9811103538417958e-02 2.5131068141643875e-01  2.0676166170876513e+00 3.7857760146209501e-01 9.3807972654960409e-02  2.0369931629528701e+00 2.2708475648531887e-01 1.9466154282685252e-01  2.3726584059781035e+00 -3.0453489809271006e-01 -5.9054903065905295e-01  3.0452853211574684e+00 1.5309445544543199e-01 -5.5729613256985600e-01  2.5878659517383538e+00 -2.1849575174242596e-02 -3.5506202292957206e-01  2.4350383606584391e+00 3.4922740549286407e-01 -6.5227583561631919e-01  1.8175433087194270e+00 3.7884611181696787e-01 4.0237815333097460e-01  1.6037637904782152e+00 3.1332742111265982e-01 1.9804547179388118e-02  1.7110837392466711e+00 3.1549703503345838e-01 1.8215166036225739e-02  1.5525633258858582e+00 5.8508964310162004e-01 1.1284916836691566e-01  1.8476319769882343e+00 1.7385796050504529e-01 -5.1653248698368703e-01  2.0006117379586650e+00 3.3920765620587345e-01 -4.7765117522835226e-01  1.7389604499161277e+00 2.9339852363799346e-01 -5.0349073426871405e-01  1.9471102063362591e+00 4.0059279423014987e-01 -4.1239149248325918e-01  9.7051509599794250e-01 -1.2034129559884381e+00 -9.3512450742129505e-01  9.7765301971056162e-01 -8.0349542976804322e-01 -2.8978416278073676e-01  1.2953209472196487e+00 -1.0066617612750481e+00 -6.4888034757772539e-01  1.3340527053795754e+00 -8.9868083531698850e-01 -6.8997525172488416e-01  7.5304410685090806e-01 9.2479520052793043e-02 1.2008313829291175e+00  7.8711103506035096e-01 1.2073313913906075e-02 1.2524321692231253e+00  9.1960481077904432e-01 -2.2595504934048150e-02 1.3551642471530805e+00  9.0058199991694632e-01 1.6790938951325940e-01 1.3048785520476573e+00  3.9301942994937625e-02 1.1314788931600117e-01 9.3254014728981743e-04  -1.2786779347700335e-03 1.5439692148971867e-01 -4.2389820087783501e-03  2.2944868811830606e-03 1.0821103016797907e-01 -5.3141933950098625e-03  7.8639530079297471e-03 1.7542334523719011e-01 -1.9776130430508295e-02  6.3930250585153654e-03 1.2970591476009405e-03 -4.9242872508771128e-03  1.2174809856125081e-02 2.2130337536282138e-03 -1.1166322533726708e-02  6.8018862950700717e-03 -6.6574183705248244e-03 -9.5943171385859784e-04  1.2979752680202371e-02 -6.9728321394132162e-03 -8.8326387712516132e-03  8.4000887305627570e-01 9.5177929146701390e-01 -1.5649940425291822e-01  8.6640478979415625e-01 8.6855397352974428e-01 -3.3141861145673085e-01  1.0429502569168740e+00 1.2076170954655854e+00 -4.9587679978567084e-01  7.6311683990577950e-01 1.1770642594899303e+00 -1.6680339881439774e-01  -5.7073827941480637e-02 4.7420869640089780e-01 -4.8751097099550678e-01  -3.2321831605249990e-01 7.2284958221608542e-01 -4.2412017642561289e-01  -1.5396505650591055e-01 2.3155743907673876e-01 -3.5672948583230402e-01  1.6780467902776799e-01 5.2151832890405958e-01 -7.3158979545149272e-01  -8.7555888025431905e-02 6.1634741728115998e-02 -8.4379509518678364e-01  5.6337520477036540e-01 -3.1810852192259581e-01 -1.4364205819680389e+00  6.4858624713709434e-01 7.5849743843806339e-01 -1.2895007361779585e+00  3.2496908074771508e-01 3.1290152673994270e-01 -7.7989585744518930e-01  1.6361615614986094e-01 1.5091877835065801e-01 -2.3113882086737932e-02  1.6846551975216059e-01 1.2786125364125256e-01 5.2119107700275315e-03  5.5811945196982182e-02 8.2266765507791148e-02 -1.3244306307845238e-02  9.5011874574777624e-02 -1.4373050109640430e-02 -3.6121638754702053e-03  9.6072495812197789e-01 1.8881215862506542e-01 2.9641939825468416e-01  7.3914473672459224e-01 1.1289940069193018e-01 2.2289129871279353e-01  6.5742639074730025e-01 -3.9609383130284725e-02 4.1319014796921605e-01  8.5480715312303646e-01 7.4857985829172149e-02 3.3374062296892826e-01  2.3758526475563713e+00 -1.3079939487182693e-01 -9.7143538954110309e-01  1.8975096743389723e+00 1.2521027952348007e-01 -1.1706982235189485e+00  2.6397666094161760e+00 3.7523927186148914e-01 -8.8678541903533936e-01  2.0313524604464837e+00 4.3435963202357142e-01 -2.6716583822158507e-01  1.0365913931890736e+00 4.5434241703387904e-02 1.7792970261330834e+00  9.4843685294796010e-01 1.2840269851993847e-02 7.1384500400913709e-01  1.6207318173883523e+00 4.7147394507782887e-02 1.3645110199285533e+00  1.4780666181663702e+00 6.2376836018583168e-02 1.0176075400541116e+00  8.5211872201742545e-01 -1.3949590861902661e+00 -1.2580538912765107e-01  1.5428020222633201e+00 -1.4230178461456939e+00 1.8821074550168432e-01  1.0898078525772419e+00 -9.5727760780101656e-01 -2.3268251952390087e-01  1.3631967031797321e+00 -1.0030609407058746e+00 4.6854258259798144e-02  1.1353945638268668e+00 3.9652021144633801e-02 -6.8844911104473652e-03  1.0318790769571660e+00 -7.7523780723404004e-02 -3.0471502260034167e-03  1.4046243038585444e+00 1.3217613592726138e-01 -4.6267102208819605e-02  1.0289666044809431e+00 -1.2572403689731657e-02 -1.0098499536528248e-01  1.9862135436753459e-01 3.3640531996099993e-01 -2.8955952107392757e-01  2.4248565692506757e-01 1.5367884976116522e-01 -1.4536097453070712e-01  8.7082423109533527e-02 1.6927397472668182e-01 -1.8943521058743187e-01  1.4423845926432632e-01 1.6119883207092317e-01 -2.5982091633998444e-01  4.7800214416237397e-01 -6.5528180631046110e-02 -2.0624360870008726e-02  4.5038889107509283e-01 -1.9949139896950696e-01 -5.0591125645954478e-02  4.6416383580010112e-01 2.9392022367749066e-01 4.9642802697669919e-01  -3.7392913886678349e-02 2.3452339258232285e-01 2.0657537645466553e-01  1.3065549809600510e+00 -3.7088607855575351e-01 2.6712790217926208e+00  1.1758676364232263e+00 -6.7171579151363334e-02 1.7858594928940827e+00  1.8568341358417280e+00 2.0539125409965567e-01 1.9019793926520543e+00  1.4997125646907206e+00 3.9234129368328796e-01 1.7558353482053954e+00  2.1768758711713549e+00 -1.3274387763368551e+00 -2.4006457658359439e+00  2.3331086498940214e+00 -1.3853101647878341e+00 -2.0984845895963429e+00  1.0181820083702122e+00 -1.6323318743242994e+00 -2.3062930250402478e+00  2.1183381506570971e+00 -1.9125881498717823e+00 -2.0794319099273175e+00  4.4714680323731193e-01 -6.4041916839440427e-01 -1.0608550060590360e+00  8.3621685169791193e-01 -3.0543609140399158e-01 -1.0662556625529227e+00  5.6910072550104662e-01 -2.4052821009845546e-01 -5.3758210610752288e-01  7.9759841871963999e-01 -3.2778869050253695e-01 -7.5113575427334256e-01  2.4466284504588476e+00 1.7175682779925050e+00 7.4229740334428806e-01  2.3275451668946228e+00 9.2014678951507090e-01 1.4571630077581921e-01  1.8067233930910453e+00 1.3484038178522988e+00 -5.4501093841435672e-02  1.3232517235584791e+00 1.2742645280751441e+00 -1.2869601343850472e+00  8.0356635557561074e-01 1.1315598503073963e+00 -7.6745993228632459e-01  4.6136499307714102e-01 9.6311853803919456e-01 -3.4694301904007635e-01  1.1892036092221552e+00 7.4914283267394643e-01 -6.8284888191928650e-01  1.1109230084214969e+00 6.4329768853705671e-01 -9.6608476016775391e-01  8.9017846902341857e-01 6.2764054217047249e-01 -3.3260717988695759e-01  1.1514228966753053e+00 1.0404874992670481e+00 -6.0819815962563795e-01  7.1289988442537144e-01 5.3521935021992462e-01 -8.9415392888130973e-01  4.8867519411409283e-01 -1.6923100451328557e-01 5.2359322871092580e-02  4.2099534752913798e-01 -4.5569069120272654e-01 1.3219552157942105e-01  6.3677862413981368e-01 -2.0563579597071618