<?xml version="1.0"?>
<VTKFile type="UnstructuredGrid"  version="0.1"  >
<UnstructuredGrid>
<Piece  NumberOfPoints="13678" NumberOfCells="64372">
<Points>
<DataArray  type="Float64"  NumberOfComponents="3"  format="ascii">19.34057998657227 10.81406021118164 16.77936935424805  19.13441296203834 10.73449887604847 16.02235533291282  19.43691806574604 10.55945960369568 16.2345653050033  18.98700256927711 10.63086404175892 16.46691490704001  19.4879903793335 10.91769504547119 16.33480978012085  19.63540077209473 11.02132987976074 15.89025020599365  19.58432845850727 10.66309443798523 15.79000573087611  18.63342515198195 10.44766787233619 16.15446045983198  19.08334064845088 10.37626343427295 15.92211085779527  19.53325614491981 10.30485899620972 15.68976125575856  19.08447074890137 11.31418991088867 15.31634044647217  19.37859325190326 10.60858432140808 15.08815579343714  19.30886344691059 10.8095244535492 15.50305085111536  18.79534044198509 10.69904002256076 15.12692279080775  19.15420055389404 11.11324977874756 14.90144538879395  19.22393035888672 10.91230964660645 14.48655033111572  18.86507024697777 10.49809989041965 14.71202773312953  18.50621013506882 10.08389013423285 14.93750513514333  19.01973313999432 10.19437456522129 15.31363319545095  19.07651270354119 10.08023580668725 16.37609158667996  16.98340034484863 5.749645233154297 16.84019088745117  17.53721464556065 5.940365714496008 16.32407471753726  17.05795955657959 5.751358509063721 16.15505981445312  16.83458995819092 5.947595596313477 16.43557071685791  17.31384504717197 6.136602801745764 16.60458561994205  16.6857795715332 6.145545959472656 16.03095054626465  17.16503466051426 6.334553164904944 16.19996544934878  17.64428974949532 6.523560370337231 16.36898035243292  17.54910028856602 6.23740212387406 15.9082503042377  17.35077513140049 6.726824683612219 15.8221850118793  17.06984519958496 6.048394918441772 15.73923540115356  16.87152004241943 6.537817478179932 15.65317010879517  19.12320279923255 9.888417888986359 16.0089202986743  18.60967979430706 9.777933457997925 15.63279223836669  18.67328730276362 9.959822327049594 16.24126990071101  18.56981764352538 10.26577900328452 15.54598279748766  18.7131494535453 9.471976781762997 16.32807934159004  18.88304730041725 10.33743895859851 16.85500027233542  18.99468040466309 11.43194007873535 16.4301700592041  19.31504058837891 11.22663497924805 16.16021013259888  19.16763019561768 11.1230001449585 16.60476970672607  18.81405277832252 10.93980397553577 16.29231525951804  19.74124793787739 10.64385453548889 15.24823050428309  19.79232025146484 11.0020899772644 15.34847497940063  19.51685523986816 11.14851999282837 15.06152009963989  19.35993576049805 11.16775989532471 15.60329532623291  18.71648502349854 11.15865516662598 15.01239538192749  18.3484992980957 11.00312042236328 14.70845031738281  18.42735471658226 10.54350527829807 14.82297772626307  18.78621482849121 10.95771503448486 14.59750032424927  18.81798934936523 9.834670066833496 18.42851066589355  19.15057784781376 9.297025414744532 17.75494444823283  18.72277766928593 9.536561223307764 17.92918456053751  18.94864711732898 9.220013100228924 18.40625429250711  18.62756598920662 9.23845237978203 17.42985845518148  18.85894795044166 10.88092889161243 15.73540045315207  19.03957557678223 11.37306499481201 15.87325525283813  19.40312957763672 9.791404247283936 17.81778526306152  18.97532939910889 10.03094005584717 17.99202537536621  19.13266944885254 10.22721004486084 17.55554008483887  18.88011771902958 9.732831212321436 17.49269927001017  17.47162055969238 16.20140075683594 19.0799503326416  16.97460651714155 16.31698978602262 18.64101300646877  17.03866457858646 15.98517149415195 18.92455151980346  16.98353457370365 16.24059122529209 19.1078915924353  16.60570859748055 15.76894223146796 18.76915270696532  13.59317564251293 17.2117651281236 12.71767065687377  13.53713149045083 17.36277748431215 13.38960037952854  14.25630971197997 17.15802004086477 13.5167639645413  14.02404917559636 17.91277838416228 13.41526452652944  13.48108733838874 17.5137898405007 14.06153010218331  17.05012417391181 15.93481579865048 18.28413998756657  13.26810965644481 17.81111626360791 12.91930062059448  10.19770966524233 17.91801272094494 9.31563726079785  10.52048072695892 18.10555087226923 8.696239969256071  10.67570580666369 18.24018322322153 9.311238635957221  10.99837311239682 17.87299659729191 9.05136760512835  11.15370194808505 18.56235372549812 9.306840011116593  10.22690945931917 18.38134215052191 9.252822454514391  9.899277266482354 18.44890914553122 8.770380424579388  10.256109253396 18.84467158009888 9.190007648230932  10.70490560074053 18.7035126527985 9.248423829673762  10.7633695602417 18.683349609375 10.04531002044678  11.03356805011394 18.09395540745318 9.700939742120873  10.83840185619226 18.15445334939162 10.07017474678597  10.48053961274201 18.30068116515997 9.680473640622314  10.55557190869258 17.77178490517659 9.705338366961502  10.91343415214283 17.62555708940824 10.09503947312515  10.85268437615029 17.12546596884362 9.336512881516651  14.97751998901367 8.842292785644531 18.66819000244141  15.40125365846894 8.595114111875347 18.8455539932794  15.45219952644051 9.154424251116577 18.9727079527485  15.48029429496468 8.987807811297241 19.30976792741891  15.00561475753784 8.675676345825195 19.00524997711182  15.92687906386735 9.466555716588621 19.27722590305559  15.87593319589578 8.907245577347393 19.1500719435865  15.82498732792421 8.347935438106164 19.0229179841174  13.24723876169078 13.73944198113977 16.79469021969166  13.58850788187741 13.09712503976585 16.87261018535993  13.41253964078586 13.33103976889373 16.30921764247512  12.82054445338521 13.04704234568283 16.64016465301663  12.39385014507964 12.35464271022589 16.4856390863416  13.16181357357184 12.40472540430891 16.7180846186849  12.98584533248029 12.63864013343678 16.15469207580009  13.57784051988094 12.92263755664768 15.82374506525858  13.75380876097249 12.6887228275198 16.38713760814339  13.92977700206404 12.45480809839192 16.9505301510282  8.314351081848145 18.91546058654785 12.16154003143311  8.559865699625938 18.49675255408892 11.69206578542727  8.4764168127546 18.44935780158648 12.10053069402712  8.198664890147178 18.66399269691119 11.99596078207033  8.592103004455566 18.70082569122314 12.26610994338989  8.675551891326904 18.74822044372559 11.85764503479004  8.869854927062988 18.48619079589844 12.37067985534668  8.953303813934326 18.53358554840088 11.96221494674683  9.036752700805664 18.58098030090332 11.55375003814697  8.082978698446214 18.41252480727453 11.83038153270756  15.36399613787109 8.512592992171609 17.97960525811728  15.63801531988756 8.912256209454506 18.69018177724398  16.17905552838902 8.810258941603621 18.40770192850634  15.59449173289765 8.430264215138887 18.50126162111734  15.407519724861 8.994584986487229 18.16852541424392  15.94855993336246 8.892587718636342 17.88604556550628  16.53312372885384 9.272582445101078 17.79248587289528  15.99208352035238 9.374579712951963 18.07496572163291  15.45104331185091 9.476576980802848 18.35744557037055  13.21471977233887 12.39957046508789 21.10393905639648  13.4963128450897 12.6666352118621 20.75130766757735  13.43125009536743 12.08496046066284 20.63683414459229  13.15673494338989 12.53029012680054 20.64348411560059  13.09875011444092 12.66100978851318 20.18302917480469  13.71284316811826 12.35202520743705 20.28420275577315  13.43832801614072 12.79735487357475 20.29085272678146  13.37326526641846 12.21568012237549 20.17637920379639  13.647780418396 11.77035045623779 20.16972923278809  13.77790591784053 12.93369995863631 20.39867627875822  16.50761031348787 11.35961301234699 18.45035399857253  15.91354851184123 11.83901195496576 18.90311359449666  16.16010910146253 11.79922404979515 18.47139382419243  16.44823677267071 12.06614018289471 18.79936271300675  16.26104972386657 11.3994009175176 18.88207376887676  16.01448913424528 11.43918882268821 19.31379353918099  16.20167618304942 12.10592808806532 19.23108248331098  16.38886323185356 12.77266735344243 19.14837142744097  16.10073556064538 12.50575122034287 18.82040253862665  15.81260788943719 12.23883508724331 18.49243364981232  12.02235984802246 9.848008155822754 13.04916000366211  12.11774821154731 9.258092943941165 13.35209435234461  11.67479540320132 9.281092001260156 13.41513483452223  11.96095991134644 9.372920513153076 13.03538990020752  11.89955997467041 8.897832870483398 13.02161979675293  12.05634827487129 8.783005301271487 13.33832424889002  11.61339546652529 8.806004358590478 13.40136473106764  11.32723095838017 8.714175846697557 13.78110966538235  11.77018376672617 8.691176789378567 13.71806918320473  12.21313657507217 8.668177732059574 13.65502870102712  17.88463480000869 14.56993709706165 16.40199497497755  16.85239531058787 13.90023765548074 16.80679458489245  17.41021070460746 13.44462443516417 16.70303517841892  17.61784126040911 14.1160360098334 16.96364388810877  17.67700424420704 13.89852552239242 16.1413862652877  17.11918885018745 14.35413874270899 16.24514567176123  17.46937368840539 13.22711394772319 15.88077755559785  16.9115582943858 13.68272716803975 15.98453696207138  16.3537429003662 14.13834038835632 16.08829636854491  17.35104772080953 13.66213492260516 17.52529280123999  14.11227989196777 17.69861030578613 16.2650203704834  14.15664702604159 17.00913711498297 15.92832879890327  14.35300713727816 17.15576740215338 16.24288921226387  14.67865668418515 17.55169649848732 15.49085823895074  13.9159197807312 17.55198001861572 15.9504599571228  13.71955966949463 17.40534973144531 15.63589954376221  14.91938392949554 17.00885359485456 15.46872708073121  14.48229657294858 17.40506621131691 15.17629782559015  15.24503347640252 17.4047826911885 14.71669610741809  14.59373438258855 16.61292449852063 16.22075805404433  8.010067772015269 3.80856496584297 15.5848254334722  8.946136000714958 2.92072851326158 15.85952661865596  8.047094226362502 2.713714520634536 15.6378
[...]
<PointData  Scalars="c_HbO2"> 
<DataArray  type="Float64"  Name="c_HbO2"  format="ascii">3.4889425426358301e-37  -1.8327072954277532e-37  -1.4710909156391982e-37  5.4272770293226686e-38  -3.7920887201033179e-38  8.6149887477259287e-38  5.9038388456671657e-39  1.2967144973857827e-36  6.5564603465281391e-38  2.4204004017480251e-37  2.9937929347672990e-37  -7.0341496421481883e-38  6.7515214355954153e-38  -5.0069089432229560e-37  9.8199867137192413e-38  1.1517482887137930e-37  -7.7484429727367465e-38  1.5024851138365862e-36  -2.5443212445631379e-37  -2.8093545600153747e-37  4.5907076773263565e-35  -1.2621704783592173e-35  -1.4964505862832911e-35  1.3216625868410370e-35  -5.2888163373795288e-36  1.1184825555141785e-34  -6.0670045587193090e-36  1.3909164642543346e-35  -1.0691836198192924e-35  -1.2214781893846452e-35  -8.2888298385717574e-36  -8.6921802015121366e-35  -5.5075405198404612e-37  -1.1332795468627053e-36  1.0504710423807759e-36  6.5309312892377970e-37  3.7056077436061928e-36  -1.5587219389221376e-36  6.2189424503360239e-37  -5.8385587502246138e-38  -1.1327316537048783e-37  -9.4649622677406214e-38  -3.9818254586627185e-38  -2.3470554045065596e-38  -4.9993244672745923e-38  -6.1765935197343583e-38  5.8926048893228455e-38  5.4549856252984814e-37  -9.7541393181107898e-38  4.7717032813928748e-38  5.4885112837390031e-37  -4.2360085056391568e-37  -6.7772776896303570e-37  -2.0122137817253728e-37  2.8046407216481800e-36  -2.2383071970967754e-37  1.4322997314401172e-37  -8.6432569359553488e-38  2.0661664047400799e-37  1.3955681720305501e-36  5.6334404277398034e-37  1.5096104596114229e-37  -7.2914327569391626e-37  -2.4765022341691132e-37  -1.7985886702113796e-37  1.7571316922629003e-36  4.7775394181915097e-31  -3.1193400224431335e-31  -2.8186143895609983e-32  -2.2567767979051143e-32  2.6809807078752370e-31  8.5205604646933527e-37  -2.3933182754518247e-31  3.3650438605546884e-28  5.1507902180683216e-29  -9.8070450897324810e-29  -4.1396325256255525e-29  1.6524744018735493e-29  1.1092994525549170e-28  -5.9247086476045415e-28  2.0574088309360285e-28  -2.8023502181239630e-29  5.8833944040989513e-29  -3.1440610480631191e-29  -6.4151681200975694e-30  -2.8635972799141821e-29  2.2198663094862196e-29  1.1305599924245134e-28  -2.3403211902089535e-29  7.5027326045895421e-35  -6.7138250720444377e-36  -8.0447144954329028e-36  -6.4134088532715701e-36  -1.8805417786552327e-35  1.3670537509222201e-35  7.6496470611454291e-36  2.2550691484106741e-35  9.9670174557440981e-32  3.9173745074499896e-32  -1.0225586910517191e-31  -3.1675260270279548e-31  1.9343092487655326e-30  -5.7774555392248795e-32  -4.6523932879866855e-31  1.4288153847281998e-31  1.5774573391040680e-32  3.5788642943659166e-32  4.9820137622268011e-26  -1.7365435696198253e-26  -2.9472842587618961e-26  -3.9510161893404298e-26  -3.6390357969245359e-27  -5.2941704666224587e-27  1.3437289814002414e-26  1.0528972422797462e-27  1.0110083095593263e-26  1.8708726607525789e-25  5.5849074408459483e-34  -3.7530218679802722e-35  -4.4454743246908136e-35  -5.0517442118223716e-35  -5.6393806149406863e-35  -1.3027452038625684e-35  1.0931218581323917e-34  4.7367497590008395e-35  1.1805448736677731e-34  3.5588186594440315e-35  -9.3202373176443517e-36  -2.1368781070563038e-35  -1.4858172691469886e-35  9.8631239210205793e-35  -1.4142798976725058e-37  2.2225813266204504e-35  -8.3476431234917960e-35  1.0607738148041048e-34  3.1480346846833941e-35  4.0607012282488855e-35  1.6851037316799951e-35  -5.4222713912117311e-35  -2.0416254515083787e-35  5.2361265116698697e-36  4.3417297778311015e-35  -2.3561315290819210e-35  2.1324329847582751e-35  -2.0674704718376754e-35  2.1446898623037047e-34  1.4077429591004026e-29  5.8058438711127327e-30  -1.8810872731359707e-29  -3.5034286954503163e-31  1.5177989193917901e-29  1.7724904145654386e-30  -6.8792397915364733e-30  1.2006030798562013e-28  -2.8525660879067365e-29  5.6218063183726699e-30  5.7778689573774239e-36  -5.8246269666177335e-36  -2.0006945932548408e-36  4.8333903518849525e-38  2.5200640990229845e-37  -5.0129839039238075e-36  6.2808852170399655e-36  -1.8214166626761203e-35  6.6062211774667544e-35  6.9067274384380683e-36  1.3370045149794275e-33  -1.8422242055705263e-33  -8.3333496945998083e-36  -1.8970446479817466e-33  -6.1824615356704547e-33  3.7061627287111391e-32  -7.5942740221247830e-33  -4.3184535232031226e-33  9.2013686447585158e-33  2.9971572915520583e-33  1.0910713955245068e-26  -1.7485544035645631e-27  -3.4514043317889839e-27  -1.2913821592224356e-27  -2.3942870052821011e-28  -9.5171724432487435e-29  2.7788011337827036e-27  1.4177154717411558e-26  1.9720094436315946e-27  2.1660271173138360e-27  1.0027552588968508e-34  -7.7818681191774417e-34  -5.6232499035732325e-34  -7.3620449061181305e-35  1.9638455022181013e-34  -3.4609222194633125e-34  -3.5077802087697732e-34  1.0829003503603784e-33  1.0999142800091511e-33  6.1977199222528351e-30  1.8460296479166425e-30  -1.5501855739627211e-30  -6.5037718873339274e-30  -8.9809519878614316e-30  5.4256846141336277e-29  -9.1496339853874610e-31  8.4189854335474477e-30  2.6778351473659330e-30  1.2529304794140371e-29  9.9685482833963702e-27  2.2195134784260919e-28  -4.0496501334816416e-27  -3.0401401275892692e-26  -9.4605777304322477e-27  6.6062160238401097e-26  3.4463768575156845e-26  -1.0534729490462962e-26  1.8148338526224376e-25  5.1756167216823642e-26  1.1481971268523747e-32  -8.3369414974872298e-33  -6.8072960980338417e-34  1.8444038499791611e-33  -5.8013938311365260e-34  6.7276224005956869e-33  1.0998572552296644e-33  -2.5279686108599732e-33  1.6058119444224883e-32  5.4343829171724040e-33  8.8226419845267781e-32  -8.8313609051159899e-33  -7.8247233721273350e-33  -1.0832280217631058e-32  -3.0252606496783202e-32  -1.9297290445205665e-32  4.7933989198917109e-33  1.2733552443204834e-32  -2.4214018377051511e-34  3.7878964486692223e-32  1.9556741150789306e-30  -3.0193040113378381e-31  -7.2825518270085320e-33  -1.2027236338883410e-30  4.1642834025360403e-31  -3.5623503227345264e-31  7.1903396261715440e-32  -2.2827098722473619e-31  2.8894691369104104e-30  1.0947693063857882e-25  -1.1518811333722475e-26  -7.6726809183259693e-27  -3.7238971234480544e-26  7.7158092369937352e-27  5.8805293372129750e-28  9.1781275980845343e-28  1.2061598400447197e-27  1.0021421849039396e-26  3.1011582950518150e-27  1.0919844538704231e-29  -2.6934650021460366e-29  -3.7772561893198295e-30  -8.4566359863763985e-30  2.1665939815293701e-30  6.5406871924358590e-29  1.1436955422398068e-29  4.2111881385160129e-29  5.7558858087955265e-30  2.6564520890667352e-29  3.5489422182865766e-27  -6.3632329789219459e-28  -7.9831600340350945e-28  -4.5775887046590130e-28  1.4033913717371561e-27  9.8265699255335348e-28  4.6035912308975818e-27  1.1864434313711499e-30  2.9922681680291767e-31  -3.4151421601987566e-30  -2.9530110760083458e-32  4.6717205140818115e-31  3.1113259087515114e-30  -1.5182779170411867e-30  -4.0112208569396902e-30  6.0138829911488166e-31  1.4826021168598696e-29  4.6663933892224646e-36  3.7066370982743612e-37  -1.4492546156122536e-35  -1.0697754974456074e-36  2.4912305068348688e-36  -9.4713111390621758e-36  -1.2228461001947133e-35  8.9477756244370156e-35  2.9723666479488884e-36  1.1065529828174758e-35  8.2612575403091245e-35  -2.1583479321191190e-35  -1.2544756731102515e-35  9.6137283312845249e-36  3.9960370675822521e-35  -6.6276405338915181e-36  6.5834972648742907e-36  3.6941591923572429e-29  -2.7674805768418255e-29  1.1979481363717677e-29  -7.7225524554452048e-29  -7.1465485375730616e-30  6.9387212269640322e-30  -9.0233428643969108e-30  6.5205405483847729e-28  -1.0177417777091086e-28  5.7884165933814855e-29  1.3788809640969483e-30  -9.6413895933861218e-31  -1.9084847136855169e-30  1.4714331002613929e-31  -8.1678565404505884e-32  1.2556148870912651e-30  -1.3000822033872412e-30  2.6375761991556880e-30  -4.8107486356490037e-31  6.6683063682477247e-30  5.2645621553719813e-33  -3.2497420686722839e-32  2.0022926220336434e-33  -2.5880729992967625e-32  -3.9580996205433558e-33  2.1412053451257950e-31  -1.4952334560734588e-32  3.9839835662633118e-32  7.8598497019469522e-32  5.1808286176162869e-32  5.0404439526381387e-30  -1.7526098734069341e-29  9.4744609836217207e-31  -1.7537975182187871e-30  9.7495311744617094e-30  -1.1886081015229082e-29  -1.0728578785672914e-29  1.1659551542502481e-29  8.6044488124676402e-30  1.1241243739617500e-28  1.2233731443734603e-25  -6.0464286142925098e-26  -8.8809151464225409e-26  -3.5777085851705812e-25  7.9514949075990303e-27  -8.9460533815278097e-26  -2.2615811431358151e-25  9.5333338475909700e-25  5.1467515208898651e-26  7.3035720000387559e-25  3.5342312256846612e-27  -1.1458181508139232e-27  -6.4801301575973907e-28  2.9602365053861791e-27  -4.4997498600172211e-29  1.1523965573274742e-28  5.8602219218898803e-27  -9.9137733407296124e-28  1.1027417366513209e-28  1.3313676394823236e-33  -7.9198195039633410e-35  -4.0180262325003683e-34  2.0332658275760467e-34  -1.1831201942470394e-34  1.4604865698559096e-34  -1.4459122989625838e-34  4.0043188485671598e-34  2.6125632779729104e-34  1.1001110560747886e-33  1.0509647123958408e-25  -6.4288288837768555e-27  -2.2996387160364914e-26  1.0020506723686005e-26  6.1084651221278059e-26  -3.7643328619783518e-27  -7.9151236731662841e-28  -6.8988587159278204e-27  9.3172536784976902e-27  6.1630938189204943e-27  3.4009265860783087e-29  -2.3871874181224027e-29  5.2893921546549128e-31  1.2088599609642222e-31  -2.2768712699573432e-29  1.1044626763033239e-29  -3.4013482583335948e-29  7.9668007778959248e-31  2.7752893556484546e-28  1.1983918159420399e-29  7.9286505166987195e-30  -1.0933068058458239e-29  -8.2926860368058948e-30  -1.5960051435667667e-30  -1.3049866784907679e-29  -7.8164814241287081e-30  5.7112477074306288e-29  -3.6226504833289927e-29  7.8244506210254486e-29  2.6024354518602049e-29  7.3152589085410965e-29  -1.1760020547472351e-28  -8.5060348802350334e-29  -2.1751661367366683e-28  -5.7398664401469311e-30  1.4393555143980934e-27  -5.4194947996791349e-29  -1.9041076226683323e-28  1.1663685571989749e-28  3.8630697013609157e-28  3.2202089091024452e-35  -1.2143920682852079e-35  -2.1972330493079358e-35  -3.1618858758619431e-35  2.6651305624508656e-35  -2.2692356652132584e-35  -3.3429017367229338e-36  -3.4185933119532474e-35  7.0195999622985902e-36  1.7432025535812816e-29  -2.4472755419118048e-30  -3.1570743111846204e-30  -4.6948705422283995e-30  -2.4939179887340991e-30  -1.6395886266542680e-30  1.0822885283574542e-29  -4.2809781253904516e-31  5.1248983433232578e-30  7.1947569385186496e-28  -4.2265949318287203e-27  -3.0558253446580007e-27  -1.4587223265711239e-28  2.0201939904465902e-27  -5.7397799817827011e-28  -3.3099944929945425e-27  4.0348395796325682e-26  6.4060779552802036e-27  -1.4607106242912660e-26  -1.2771470564321581e-26  -1.0604738193393812e-26  1.0402744786928794e-25  7.1649479096538740e-30  2.7047727779670173e-30  -1.0637469896666066e-30  -6.2080315680526298e-30  3.0932145002341508e-30  7.7972360306849291e-30  -1.2628794928782344e-29  7.8321320882811327e-30  1.2600794442797317e-29  1.6768002946274569e-29  6.6593740993997795e-29  -4.2197271725508794e-29  -6.5130809936421652e-29  -1.3910690758569967e-28  1.3820493858218757e-30  -6.4266184651645127e-30  -5.8680159506365510e-29  1.2417016352775916e-28  4.2118194647621574e-29  8.0504077621694509e-28  -1.9384599236791157e-30  6.0324645837844205e-32  -8.0777722517302935e-31  -8.4748693210455983e-31  2.6592825252739368e-29  -4.7293361057845301e-30  -2.5952780792189540e-30  3.8737837491189077e-30  3.6825205885285868e-30  1.2594127605713793e-33  -1.0598258518885147e-33  -5.9620189921848867e-35  -2.6635518654439513e-34  -2.6555599180755775e-33  8.8858661736809850e-34  -1.2990485401703173e-33  3.1128401429059016e-33  1.1565111516948740e-32  9.5362245617755989e-34  2.4175792381343739e-30  -3.1021658373955263e-31  -2.2363944227591920e-31  1.3828290161965912e-31  -2.3466588860086372e-31  -4.8853253531458093e-31  -5.0603502946852179e-33  5.7156930241794700e-31  1.8056877079736163e-30  1.8070893071726657e-27  5.1616867813521749e-28  -2.9374203844692132e-27  1.4463356571129931e-28  1.9295388811886553e-27  1.7822043374594801e-27  -4.9558051086279236e-28  -2.4407391171409690e-27  1.6406331646468602e-26  2.8035651083255046e-27  1.5828083259200818e-33  -1.0414062147828278e-33  -2.4921411864412400e-34  -3.6421491110166054e-34  -2.2225125795377279e-33  3.3168549194304738e-34  -4.0769077775927368e-34  -1.0546995301821856e-33  7.7146053843277731e-33  2.8344408544178603e-34  1.0882667321493636e-29  -1.6131708559642816e-29  1.6600350846463340e-30  -1.1379514893604652e-29  -1.4164601554766080e-29  8.9713551842344097e-29  -1.2965629407914557e-29  -2.2615233304152679e-29  1.1255747495732557e-28  7.5793574732767406e-30  3.1562163021299086e-31  -3.6162012569163279e-32  -1.8744728675784186e-31  -5.8054362256627711e-31  8.4931959701135737e-32  -2.2487747024558595e-31  1.8779956860696364e-31  1.5481508335172965e-30  -2.1688539494987526e-31  1.0101455285730445e-31  3.5641298307267180e-28  1.2366003747799556e-28  -1.1279913738610957e-28  -2.8597894571383150e-29  1.5029570169411713e-28  -6.9543996300444977e-29  -4.8529668096239970e-30  3.8934777970120651e-29  -8.5963209745411416e-29  5.4770715959054670e-28  4.9176467933511571e-31  -4.8379095715541898e-31  -3.9959087915431351e-31  -5.4894004476781007e-31  -7.1696483851776862e-31  -2.5416558696619264e-31  -3.4409181554108832e-32  3.7427078768774791e-31  3.6859330321132382e-30  3.5243574155683526e-30  1.0107926133625769e-27  -7.1173195124819374e-28  -1.9090524545740668e-27  2.1813332084530767e-28  -1.0906201452326442e-28  5.6874604120703089e-28  6.9823372559679337e-27  1.8199713022290240e-27  -8.0225613369957191e-29  4.8787998819825768e-28  4.8526274296679637e-31  -1.3180414809563124e-30  -1.9909539864096896e-31  3.3428508746510612e-30  -6.9495856871104464e-31  6.1057725724569891e-30  -5.3912267145168461e-31  5.5762215141731395e-26  -4.5084830137168699e-27  -4.2594722197540343e-26  -3.8714640828496798e-26  -4.9863127764995025e-28  1.4389323011974807e-26  4.9667425144977579e-26  -2.3762825481350942e-27  8.6414660344457671e-27  9.0051784420986961e-26  3.4637383072023372e-30  6.4611940669509898e-31  -8.2097315008752545e-30  -1.3051804748505892e-30  2.1328750710589089e-29  -1.1101870745289272e-29  2.8596961382792898e-30  4.5873178274556009e-30  7.4190660063722076e-29  9.8078671977552297e-30  7.2114151318263621e-38  -4.0758824559274005e-37  -1.9852884699604018e-37  1.2931695203296582e-37  1.6830820372541722e-37  4.9239753584246796e-37  -3.9117970042392198e-37  -4.6705927802192259e-37  1.0672332229060676e-36  3.9534370247052224e-36  6.8500013148805465e-37  -1.4162746624491440e-36  -4.3647287543473596e-36  5.3457688812279230e-37  -1.6004620144293894e-36  -1.9163826377138191e-36  3.5083656220307378e-36  1.7895652642984705e-35  3.2681363599332086e-29  -2.9185661210243901e-30  -3.9578064430956000e-30  1.2016335014047248e-30  -2.1876036544383347e-29  -3.7950250628522230e-31  -4.1160342839053342e-30  3.4679885637677175e-29  6.7814138876450624e-31  9.6033083546910006e-32  -4.6089686477049707e-31  2.8176099026206517e-31  7.5800619747277005e-31  -2.9630635125628406e-31  7.7844257993552138e-31  1.0824922308523542e-30  2.3878994021740298e-32  4.2167561601991598e-31  3.6776001233943238e-30  -3.8124432670366588e-30  -7.5934352243521928e-30  8.6664470847179769e-31  -3.3318189582562017e-31  -4.4691630194292633e-30  4.0799650772190499e-29  9.7520133525466215e-30  -1.3887926340758387e-30  1.2301309700507653e-30  6.1264579957598523e-33  -3.6484003665440860e-32  7.5094515571136152e-31  -6.8166224652897380e-32  -1.1307664806057477e-31  5.1310462461365562e-32  7.3047531067110983e-33  3.3417876274119935e-34  -2.1333144957276929e-35  -7.9808584088551670e-35  -1.7511761191988580e-35  -7.3061574785706460e-35  2.2205279198507142e-35  1.6542077999153833e-36  1.0601282965807342e-35  6.8173417811615459e-35  1.6217806916392300e-27  -7.2289096049091251e-29  -1.8570566239057727e-28  -9.7345160201001443e-29  3.7599024487294054e-28  -9.6284209146335625e-29  -2.0825946610786858e-29  6.7327141691205209e-29  -1.3306221135314106e-29  8.2814458946010979e-29  9.9179529367464180e-30  -7.1044409817468766e-30  -8.9617415655168830e-30  -1.4492427044508773e-29  1.0246708900051832e-28  -5.0820687606204825e-29  2.3095748169092710e-29  1.8476225598616301e-29  6.6880304742481537e-29  6.1041808126430825e-28  -8.0769286543774695e-28  4.0726414494477793e-29  1.5133800546974870e-28  -5.2604263135396376e-28  -1.6467069571229139e-28  -4.1205240576663197e-29  2.2214497103602868e-28  5.2756147030634856e-38  -3.1051224739693639e-38  -4.4433840856087117e-38  -3.7276322721469673e-38  -4.1507276452422160e-39  -6.5700501002740989e-40  3.8422796488850666e-38  7.0152699034801563e-39  3.1567070981691971e-37  1.9199921955183298e-29  -3.6787146285554435e-30  2.5030500522603421e-31  -1.0461764367056571e-30  -4.7279670603851850e-31  8.4381761145216210e-31  -7.4427149738780577e-31  1.2476691293688628e-30  -2.4602665446827185e-31  -3.2658082837229430e-31  1.6175010458787740e-31  8.2796315330573086e-32  4.0344222817339338e-32  -1.4509661424362446e-32  5.4333309195425477e-31  1.9701146400903200e-35  -2.7420005114415203e-36  -1.9022324092717079e-36  -2.0960948813286927e-36  -6.0156954479218945e-36  2.7323671257660638e-36  -9.9510359902606548e-37  1.6210185721351595e-29  -8.2237947106542018e-29  -9.3861170429129199e-30  -4.4112810513917129e-30  9.9536159067243309e-30  2.7426823297834260e-28  -1.3372719840654996e-28  -8.3293202308227220e-29  1.0892803557169804e-28  8.3605114519730275e-26  -9.4962018337420392e-27  -2.7027422320322338e-26  -5.8028274041474351e-27  -9.4722329703689339e-27  3.1646901140930606e-26  7.1477162135803357e-26  -7.7369278806275524e-28  -4.5903944107295499e-28  -4.6640015075809043e-28  1.6184678517498171e-28  7.8508965698972898e-29  -1.3567874295406831e-29  3.3493376628874974e-29  1.7797595102845425e-28  2.4797022051121691e-32  -2.4723078869952543e-33  -5.0954218251718626e-33  3.7474192817595188e-33  5.7262129039681927e-33  9.3966476726577172e-33  -9.3373707624864188e-34  6.4895398573564297e-36  1.0799321548043732e-32  -3.7274379500097707e-26  -4.0427288978570327e-25  -7.2518295589028425e-26  -1.8498284553685530e-30  -2.4867682594787668e-31  1.3479549909630545e-30  -6.5975326494628151e-31  -4.6415244401211729e-31  -1.8700147906688940e-30  3.9599829418727453e-30  -1.0403659482229069e-29  -1.1031600992693116e-29  -2.5071131773236173e-29  6.5273952234207770e-31  2.0000068352654134e-30  2.4656376142063621e-29  2.4455010769964104e-36  -9.1427129935182434e-36  6.5212212035170247e-36  -2.0728056805143420e-36  1.7254040049760667e-36  -2.9757211518673065e-37  -1.5263695696802967e-36  8.8319117608277179e-36  1.0743421806029940e-35  1.2930545801708009e-34  -4.6005563331675941e-35  -7.3914209402542678e-35  -2.7748695484895773e-35  -1.6208662176459927e-35  -1.7828642400114152e-35  2.0554125061109428e-35  1.3265018211738804e-35  6.2227458169880356e-34  1.3862848612754056e-35  1.4389675406207892e-34  -3.3854468472117221e-35  -7.3165864866671469e-35  5.3776858031985149e-35  7.0931909015364570e-35  -1.6189873892048561e-34  4.7579871857589124e-35  6.4238701149511829e-35  7.4777818257496118e-34  -1.3490474543560705e-32  -3.0072136184707052e-32  -5.0033003514424695e-32  4.1685432714520625e-31  1.5702606201408305e-32  -1.2013921316965666e-31  2.5648159261641091e-32  -6.1640485732420499e-33  6.4389015135431958e-32  -1.7338398883163353e-35  1.6298357039794168e-35  -2.5268145862781949e-35  8.9169327442964150e-36  6.5081191612069568e-36  -5.3648467428897522e-36  -2.0494988398535352e-35  3.2903306356214446e-35  6.6754330176831409e-38  -5.1001272030152789e-38  1.8572642567576300e-38  1.2083675007268636e-38  -7.6326097009378438e-38  -4.8216632995479190e-38  2.3337605551111993e-37  -1.9459102104879950e-38  8.6855617829061678e-38  4.2480428930672923e-37  6.9155124834653494e-29  -2.1279027207408638e-29  -4.4622865625260039e-30  3.2201415822834375e-30  -8.7500479469945927e-29  3.6591494464927144e-29  1.842