<?xml version="1.0"?>
<VTKFile type="UnstructuredGrid"  version="0.1"  >
<UnstructuredGrid>
<Piece  NumberOfPoints="13439" NumberOfCells="63139">
<Points>
<DataArray  type="Float64"  NumberOfComponents="3"  format="ascii">24.11541938781738 5.194726943969727 31.59728050231934  24.4621696472168 4.65106201171875 31.71627998352051  24.35771942138672 4.849217414855957 31.39697551727295  24.07438945770264 4.784436941146851 31.75950527191162  24.03335952758789 4.374146938323975 31.92173004150391  24.42113971710205 4.240772008895874 31.87850475311279  24.31668949127197 4.438927412033081 31.55920028686523  24.60001945495605 4.503707885742188 31.19667053222656  24.70446968078613 4.30555248260498 31.51597499847412  24.80891990661621 4.107397079467773 31.83527946472168  39.89416122436523 11.33504009246826 30.20170974731445  39.47374102803218 10.84180480634648 29.74901236354264  39.47374102803218 11.27150994932134 29.65020788966569  39.47374102803218 11.18173486387212 30.05436743556412  39.89416122436523 10.99511003494263 29.89635467529297  39.89416122436523 11.42481517791748 29.79755020141602  39.89416122436523 11.5145902633667 29.39339065551758  39.89416122436523 11.08488512039185 29.49219512939453  39.89416122436523 10.65517997741699 29.59099960327148  39.05332083169912 11.02842963527597 29.9070251238138  38.57519149780273 3.865630149841309 31.4304141998291  38.42421231267514 4.224641867922632 30.85416268958221  38.51831326482358 4.284667083071557 31.11657189978729  38.26612935063901 4.012424060152856 31.19538449896942  38.73327445983887 4.077847957611084 31.08919239044189  38.8273754119873 4.13787317276001 31.35160160064697  39.07955932617188 4.410116195678711 31.27278900146484  38.98545837402344 4.350090980529785 31.01037979125977  38.891357421875 4.290065765380859 30.74797058105469  37.95706720347528 4.159217970464404 30.96035479810974  37.86843109130859 6.06852388381958 29.56035041809082  38.1196288511606 5.640966876157588 29.94387692983945  38.38865696972976 5.916401652754372 29.67080189414352  37.95968240951021 5.940520747312373 30.01756639059384  38.02837753295898 5.768970012664795 29.48666095733643  38.18832397460938 5.46941614151001 29.41297149658203  38.54860341138015 5.616847781599587 29.59711243338913  38.05093372771181 5.812517610805165 30.47478236309686  38.47990828793137 5.788398516247164 30.12801786664654  38.90888284815092 5.764279421689163 29.78125337019623  34.50128936767578 12.98351001739502 25.99725914001465  34.81027446891795 12.05661270993076 26.1999093815526  34.51253425106745 12.1608531432295 25.89632627736663  35.07527004386912 12.46923277752719 26.07625406233874  34.23629379272461 12.57088994979858 26.12091445922852  33.97129821777344 12.15826988220215 26.24456977844238  34.24753867611628 11.74823307563307 26.0199815965805  35.64925072006248 11.95495553765936 26.15524898466283  35.08651492726079 11.64657590336168 25.97532119969072  34.52377913445912 11.33819626906399 25.79539341471861  35.31293869018555 13.65262031555176 26.05682945251465  35.87991330042973 13.41813560363011 26.17045148294985  35.65273643756478 13.22818095965915 25.93098922574461  35.61262318507329 13.45340581771092 26.42402108591616  35.58022880554199 13.61735010147095 25.80325984954834  35.84751892089844 13.58207988739014 25.54969024658203  35.92002655292123 13.19291074557834 25.6774196227783  35.91230767996103 13.25419131987008 26.79121271931767  35.95242093245253 13.02896646181831 26.29818085914612  35.99253418494402 12.80374160376655 25.80514899897457  39.89416122436523 6.688746929168701 31.66926002502441  39.3789959022283 6.316518382578841 31.21139684476979  39.3789959022283 6.688230351954451 31.04845109739431  39.3789959022283 6.748527364283553 31.50395646848806  39.89416122436523 6.6284499168396 31.21375465393066  39.89416122436523 6.256737947463989 31.37670040130615  39.89416122436523 6.568152904510498 30.75824928283691  39.89416122436523 6.196440935134888 30.9211950302124  39.89416122436523 5.824728965759277 31.08414077758789  38.86383058009136 6.808307799398404 31.33865291195169  39.89382171630859 5.453277111053467 30.07547187805176  39.16112731880153 5.335179727953834 30.40734289991219  39.40135228222976 5.608778266371315 29.92836262412399  39.52067207282985 5.639001053255958 30.38454436170419  39.53427696228027 5.149455785751343 30.09827041625977  39.17473220825195 4.845634460449219 30.12106895446777  39.04180752820144 5.304956941069191 29.951161162332  39.14752242935111 5.82472499545845 30.69361684535661  39.02820263875101 5.794502208573807 30.23743510777642  36.96590042114258 8.19551944732666 27.18042945861816  37.36117256281118 8.86615695101737 27.27448485221412  36.9843777477477 8.722406283445348 26.89054034080055  36.89889801141958 8.535575285978307 27.34023497428444  37.42817497253418 8.526101112365723 27.11467933654785  37.0513801574707 8.382350444793701 26.73073482513428  37.13685989379883 8.569181442260742 26.28104019165039  37.5136547088623 8.712932109832764 26.66498470306396  37.89044952392578 8.856682777404785 27.04892921447754  36.83189560169657 8.875631124629953 27.5000404899507  38.70183181762695 12.23945999145508 32.1599006652832  38.85019474162059 11.98864906949503 31.79475470092092  38.66699390543895 11.71857422513468 32.09003420378957  38.54493503703075 12.12543409986002 31.90249987151418  39.0070915222168 12.10267496109009 32.05215549468994  38.82389068603516 11.83260011672974 32.34743499755859  38.94594955444336 11.42574024200439 32.53496932983398  39.129150390625 11.69581508636475 32.23968982696533  39.31235122680664 11.9658899307251 31.94441032409668  38.38803825643454 12.01140820826496 31.64509907774516  36.51017264951145 10.88930454600801 26.09442204611858  35.98296081842712 10.02470978747865 26.0714267837956  36.36634540453819 10.08798089487976 26.54175678479192  36.13509446580534 10.61794452050872 26.36886757152434  36.74142358824431 10.35934092037905 26.26731125938615  36.35803900213324 10.29606981297794 25.79698125838983  36.97267452697717 9.829377294750094 26.44020047265373  36.5892899408661 9.766106187348985 25.96987047165741  36.20590535475502 9.702835079947876 25.49954047066108  35.76001628209922 10.34658449500943 26.64331309693011  33.96929168701172 10.9735803604126 27.54340934753418  34.70944226548983 11.00532103305948 28.10074707073829  34.51027362620904 10.66261041697909 27.66004368239062  34.41422284410311 11.26484633213175 27.76330658001563  34.26451110839844 10.71405506134033 27.88084983825684  34.55973052978516 10.45452976226807 28.21829032897949  34.95520478330043 10.95387638869824 27.87994091487208  34.80549304759576 10.40308511790682 27.99748417311328  34.8591540011945 11.5561123038509 27.98320381249708  35.05125556540636 10.35164047354558 27.77667801724707  35.0666389465332 9.5411376953125 30.81553077697754  35.58174893404045 9.323147996994084 31.1255672842948  35.84324283191118 9.559916198476422 30.6588070631596  35.34915349031486 9.63511584672553 31.15416797704383  35.29923439025879 9.229169845581055 30.78693008422852  35.61064738818559 9.871884048207868 30.68740775590862  35.53182983398438 8.917201995849609 30.75832939147949  36.15465582983798 10.20263040110324 30.5592847348397  35.89316193196725 9.965862199620897 31.02604495597491  35.63166803409652 9.729093998138559 31.49280517711012  34.90636825561523 10.37539958953857 28.84177017211914  35.5894281739601 10.48021571737807 28.85383332175424  35.162499434785 10.60219250480267 29.15791827213816  35.10369396908676 10.65322743217083 28.78093367588572  35.39210246048857 10.20238787474581 28.91466981798766  35.45090792618681 10.15135294737765 29.2916544142401  34.96517372131348 10.32436466217041 29.21875476837158  35.02397918701172 10.27332973480225 29.59573936462402  35.8778366653619 10.02937615995305 28.98756946385618  35.3010196825583 10.93105527480309 28.7200971796523  35.99916076660156 8.558647155761719 31.46161079406738  36.22861047262671 9.511143531365285 31.28764688568061  35.81541440034904 9.143870576950139 31.47720798558875  36.36674339445185 9.113830897710805 31.72764656111704  36.41235683887923 8.925920110176865 31.27204969415924  36.73432602230213 9.669014639659894 31.99368232816669  36.18299702819932 9.699054318899226 31.74324375263841  36.77993946672952 9.481103852125951 31.53808546120889  36.8255529111569 9.29319306459201 31.0824885942511  39.3956298828125 8.740777015686035 32.57080078125  39.02991658828041 8.274767026523335 32.22600989891853  39.09402639052651 8.687694415668233 32.10741096093025  39.21865975916194 8.195429650784293 32.32063132803094  39.33152008056641 8.327849626541138 32.68939971923828  39.26741027832031 7.91492223739624 32.80799865722656  39.15454995691584 7.782502261639396 32.43923026601922  39.04168963551137 7.65008228588255 32.07046187481188  38.91705626687595 8.142347050766489 31.8572415077112  38.79242289824052 8.634611815650429 31.64402114061051  38.91350936889648 9.409627914428711 27.41238021850586  39.25127801326465 9.326373816415582 28.11730722010228  39.05780801204395 9.624779940530573 27.78099206507298  39.40383529663086 9.488363742828369 27.65230464935303  39.10697937011719 9.111221790313721 27.74869537353516  39.89416122436523 9.567099571228027 27.8922290802002  39.54813393977832 9.703515768930231 28.02091649592015  39.59730529785156 9.189957618713379 27.98861980438232  39.30044937133789 8.81281566619873 28.08501052856445  39.20210665519141 9.839931966632435 28.1496039116401  36.98865730645056 9.090702379494978 28.68458026373825  36.71117547843797 9.873981513256233 29.4662279581489  36.19876421388057 9.504965772148156 29.46889560755674  36.43324698590623 9.560039269724015 28.83607486379722  36.75417453442491 9.035628881919116 29.31740100749778  37.2665857989823 9.404644623027195 29.31473335808994  36.51969176239924 8.980555384343257 29.9502217512573  37.03210302695663 9.349571125451334 29.94755410184947  37.54451429151403 9.718586866559413 29.94488645244163  38.74375915527344 8.818371772766113 33.12345123291016  38.82686822518586 8.884867553049205 32.59654797620778  38.97
[...]
<PointData  Scalars="p_O2"> 
<DataArray  type="Float64"  Name="p_O2"  format="ascii">9.9995046386652120e+01  9.9993849685574489e+01  1.0000041317833795e+02  1.0000008500560713e+02  9.9997168656180307e+01  9.9992068169945199e+01  1.0000837126874143e+02  9.9998703489950017e+01  1.0000451278922701e+02  9.9996549775998034e+01  1.0044975776748429e+02  1.0044126073034724e+02  1.0046232634768846e+02  1.0044578867288224e+02  1.0042745920360942e+02  1.0044955516467027e+02  1.0045106036132130e+02  1.0045022824566465e+02  1.0045300809376877e+02  1.0041884173054113e+02  1.0000790274143435e+02  1.0002495227986135e+02  1.0002959204551858e+02  1.0001403973709185e+02  1.0001556247625645e+02  1.0001505199036859e+02  1.0002754773442724e+02  1.0002802518821224e+02  1.0002818598647367e+02  1.0001770881803627e+02  1.0005906373589245e+02  1.0009173414860044e+02  1.0011827024377180e+02  1.0009527406449288e+02  1.0006113028197888e+02  1.0005364764342731e+02  1.0011374965697294e+02  1.0011371807281310e+02  1.0016393166569213e+02  1.0021552841025483e+02  9.9974532676788556e+01  1.0000980110931955e+02  9.9963896063942983e+01  1.0002403406815698e+02  9.9999571292115419e+01  1.0000050899430757e+02  9.9998110298430973e+01  1.0002241739459899e+02  1.0003383796731856e+02  1.0000114905704449e+02  1.0000635337041963e+02  9.9993638896967440e+01  1.0000520852081669e+02  1.0000209704549812e+02  1.0003532243373387e+02  1.0004152457511283e+02  9.9989824332516591e+01  1.0001984856724694e+02  1.0000390561097940e+02  1.0002172907730365e+02  1.0084828710108525e+02  1.0045391207175270e+02  1.0045711462385356e+02  1.0041732868771518e+02  1.0072149129368420e+02  1.0100591902660736e+02  1.0057442072704387e+02  1.0096618865704893e+02  1.0131889788120785e+02  1.0030614760855204e+02  1.0166274433788601e+02  1.0024869338909308e+02  1.0043618639948744e+02  1.0080760166320711e+02  1.0044526502531797e+02  1.0008469318219227e+02  1.0018425460476310e+02  1.0041746051378081e+02  1.0034073888990261e+02  1.0001539227433021e+02  1.0001015990320229e+02  1.0001245890657192e+02  9.9999631311550360e+01  1.0006787448104541e+02  9.9936679106914070e+01  9.9968619851757452e+01  1.0006607967081457e+02  1.0001707385232579e+02  1.0002920461532074e+02  1.0009607182988276e+02  1.0023183357456631e+02  1.0018276615395359e+02  1.0015659510199588e+02  1.0010186839670666e+02  1.0008959240759273e+02  1.0014057419495798e+02  1.0019397013696155e+02  1.0015455744223289e+02  1.0019289983593271e+02  1.0001781668950014e+02  1.0000533193832084e+02  1.0000921882077648e+02  1.0001962115248631e+02  1.0001702712943056e+02  1.0000360977156967e+02  1.0002698168417014e+02  1.0001802107566945e+02  1.0001011088188567e+02  1.0001190710859480e+02  9.9981617829291210e+01  1.0003055728631354e+02  1.0000342916082330e+02  1.0009006742870724e+02  9.9841424494428310e+01  9.9956720437485757e+01  1.0004469175143743e+02  9.9959354859205348e+01  1.0003303293509703e+02  1.0000984327966191e+02  1.0001384695114534e+02  1.0003033328237900e+02  1.0005146946751886e+02  1.0002595739027198e+02  1.0001532470957591e+02  1.0005124064627327e+02  1.0002787482587206e+02  1.0007306635238402e+02  1.0006102025837048e+02  1.0003813785458465e+02  9.9998535140591827e+01  1.0004623598434802e+02  1.0006065932050782e+02  1.0002107725206449e+02  1.0003565414963603e+02  1.0006376965253637e+02  1.0000471953178665e+02  1.0001330264050824e+02  1.0005136388286962e+02  1.0003003332493999e+02  1.0002917255384381e+02  1.0006726947940601e+02  1.0003774029189589e+02  1.0004952656567677e+02  1.0005509543045797e+02  1.0007058122519905e+02  1.0004774992340035e+02  1.0008255168597749e+02  1.0009176054408537e+02  1.0021770644229083e+02  1.0028883243661355e+02  1.0028855740870219e+02  1.0027605659076650e+02  1.0011175878067246e+02  1.0008521219379905e+02  1.0025705586589599e+02  1.0037081651347751e+02  1.0036071976176099e+02  1.0034911528126901e+02  1.0014794696498514e+02  1.0036906918414803e+02  1.0041842017286392e+02  1.0034612181434520e+02  1.0014758643620630e+02  1.0366022101975852e+02  1.0128772343615516e+02  1.0132955067470438e+02  1.0027580362202950e+02  1.0082087139773338e+02  1.0010357561653136e+02  1.0012526315830793e+02  1.0006739903541974e+02  1.0009730136547391e+02  1.0010806622856764e+02  1.0015607238717300e+02  1.0008144346853143e+02  1.0011053841858831e+02  1.0018308291868517e+02  1.0007409731992743e+02  1.0017083950972955e+02  1.0011737672961748e+02  1.0011302290622857e+02  1.0011522928804473e+02  1.0010347504475931e+02  1.0005121577451501e+02  1.0008913331779223e+02  1.0013021424974445e+02  1.0001031397996097e+02  1.0004932096388924e+02  1.0003389477391318e+02  1.0003787653751186e+02  1.0002623942280752e+02  1.0002526806798261e+02  1.0005129688110483e+02  1.0009481489704102e+02  1.0008226475911260e+02  1.0006533143487700e+02  1.0042706199796295e+02  1.0048743772733401e+02  1.0047072790479974e+02  1.0032553553054515e+02  1.0021304253667542e+02  1.0031682949743896e+02  1.0033279391900821e+02  1.0052638464250207e+02  1.0048290839414520e+02  1.0041034924094365e+02  1.0280378789451294e+02  1.0134718174783291e+02  1.0059358948119896e+02  1.0212658860241402e+02  1.0222282976357828e+02  1.0165923342662006e+02  1.0079649735104248e+02  1.0149453880573095e+02  1.0069477574292263e+02  1.0048361756020694e+02  1.0000429359362570e+02  1.0001021042105255e+02  9.9995043567736687e+01  9.9999935524050088e+01  1.0001387804411226e+02  1.0000800690797527e+02  1.0001181869944195e+02  1.0004930821136979e+02  1.0011390166327291e+02  1.0012107480647337e+02  1.0005666660803222e+02  1.0002893865955801e+02  1.0009270694707402e+02  1.0013230618919185e+02  1.0021634128327884e+02  1.0017868192331187e+02  1.0012252957150631e+02  1.0012686823608949e+02  1.0047932013710310e+02  1.0024562106186255e+02  1.0028299421693411e+02  1.0039435901777527e+02  1.0120066697720797e+02  1.0069928324264143e+02  1.0044258367302616e+02  1.0039105397314714e+02  1.0033952813845468e+02  9.9998278600502957e+01  1.0007337829375230e+02  1.0011349018665329e+02  1.0011329949509852e+02  1.0004899039874964e+02  1.0006753503461458e+02  1.0002902140259459e+02  1.0010331679908221e+02  1.0001147162214596e+02  9.9992264254992051e+01  9.9978358299312703e+01  1.0003228893989696e+02  1.0000350459007721e+02  9.9999334413724185e+01  1.0000310377359624e+02  1.0001142848300329e+02  9.9988087980059703e+01  1.0007952908106337e+02  9.9987995283663011e+01  1.0009092369108718e+02  1.0005672400928363e+02  1.0004712789602792e+02  1.0002192411875936e+02  1.0009132668547700e+02  1.0000596214529216e+02  1.0279768871732921e+02  1.0123390690444732e+02  1.0132387370621616e+02  1.0241832692751862e+02  1.0254967919082725e+02  1.0101874810927829e+02  1.0113951191984621e+02  1.0039104371029350e+02  1.0051794921828564e+02  1.0049603777806333e+02  1.0005402435900614e+02  1.0005040706950206e+02  1.0008374026103026e+02  1.0000599350803368e+02  1.0005156565512661e+02  1.0151037357813857e+02  1.0049068785062509e+02  1.0051917415393547e+02  1.0050477852319014e+02  1.0094392009563241e+02  1.0144841820831157e+02  1.0124644058312722e+02  1.0079223230458641e+02  1.0041820588172592e+02  9.9989402811975182e+01  1.0005817083226468e+02  1.0005744000352422e+02  9.9984072436174614e+01  9.9987519490816325e+01  1.0002518405369744e+02  1.0008964226040737e+02  1.0006226911754945e+02  1.0017674242891502e+02  1.0012254044833986e+02  1.0000449577393719e+02  1.0000800446680897e+02  9.9994000325155341e+01  1.0004475583482190e+02  1.0005377205859699e+02  1.0002177020344267e+02  9.9993375260522242e+01  9.9943840005094884e+01  9.9990286352483665e+01  1.0014598618508998e+02  1.0024225837339773e+02  1.0028070394105380e+02  1.0011096486476701e+02  1.0034744752556114e+02  1.0095845754299049e+02  1.0042638055543114e+02  1.0000820916263801e+02  1.0002504869553732e+02  1.0000473251579915e+02  9.9985088952583567e+01  1.0000540051486755e+02  1.0002364263183021e+02  9.9994688852750002e+01  1.0001270570305060e+02  1.0001251606807276e+02  1.0022650054778234e+02  1.0023813149559938e+02  1.0039056883586002e+02  1.0039647976201650e+02  1.0063821483270560e+02  1.0096050844314971e+02  1.0107215309321734e+02  1.0051538854182535e+02  1.0111583670537421e+02  1.0005143108335284e+02  1.0013950346636506e+02  1.0010605888450313e+02  1.0009222755418520e+02  1.0008737973831261e+02  1.0010321280788143e+02  1.0004669871991497e+02  1.0015834231638050e+02  1.0000497801154133e+02  9.9995373560806470e+01  1.0001770302695859e+02  1.0002262314006801e+02  1.0003984681954628e+02  1.0008105683938112e+02  1.0009113998710446e+02  1.0009910960363939e+02  1.0003909731671573e+02  1.0002167470189528e+02  1.0006415675262541e+02  1.0013355250160558e+02  1.0013483667116338e+02  1.0005702371617116e+02  1.0020926351012457e+02  1.0013246106925421e+02  1.0020979792488006e+02  1.0011654453876331e+02  1.0029113693897763e+02  1.0033476789281113e+02  1.0023434863806692e+02  1.0005290567700695e+02  1.0009172230347927e+02  1.0013666593056884e+02  1.0010134685468785e+02  1.0005019940134679e+02  1.0008838589846827e+02  1.0010395981332192e+02  1.0006329688593908e+02  1.0003657784490693e+02  1.0001729619281527e+02  1.0008126138854158e+02  1.0004584643890772e+02  1.0001949594582874e+02  1.0004027510314604e+02  1.0005533519425299e+02  1.0003512040411918e+02  1.0002143771190549e+02  1.0004815311840545e+02  1.0006621310753822e+02  1.0006230670951632e+02  1.0005278120438666e+02  1.0004415775139536e+02  1.0007797146371165e+02  1.0011536199171596e+02  1.0027647293842045e+02  1.0027449764366253e+02  1.0018468939419566e+02  1.0032508331672838e+02  1.0036310631482151e+02  1.0068811287763648e+02  1.0014578665708741e+02  1.0003774088552498e+02  1.0006024890855224e+02  1.0005169750682278e+02  1.0003597762487905e+02  1.0008671469667951e+02  1.0005710173650199e+02  1.0006107193392749e+02  1.0003735236190160e+02  1.0005062478071078e+02  1.0022971569965242e+02  1.0046761166989501e+02  1.0051398410541941e+02  1.0005482166925970e+02  1.0002546086235212e+02  1.0002635376068396e+02  1.0006664149465421e+02  1.0004997620259317e+02  1.0009600231854037e+02  9.9973474535627474e+01  1.0011577865821964e+02  9.9995829332074365e+01  1.0013080033777410e+02  1.0009599269443149e+02  9.9997343507402988e+01  1.0001062358470242e+02  9.9903066485740069e+01  9.9991919815299411e+01  1.0005288874667735e+02  1.0002599189434194e+02  1.0003264319189648e+02  1.0001138242239389e+02  1.0004041066888360e+02  1.0026915439301159e+02  1.0027035723820867e+02  1.0039397062747076e+02  1.0045570352490373e+02  9.9999812854559153e+01  1.0000403578402511e+02  9.9999194795388476e+01  9.9997681903777490e+01  9.9999674531313957e+01  9.9996297300584558e+01  1.0038833218407504e+02  1.0039626495338328e+02  1.0042435642198069e+02  1.0040099759879345e+02  1.0045620544272096e+02  1.0041879271429207e+02  1.0045471346820237e+02  1.0049270291746271e+02  1.0041701817758496e+02  1.0009450341061434e+02  1.0019960322444443e+02  1.0011066303111068e+02  1.0018195499474173e+02  1.0024580095457600e+02  1.0037070119545953e+02  1.0013544274622411e+02  1.0005489868361909e+02  1.0006932337333612e+02  1.0022462687793879e+02  1.0019929520419990e+02  1.0011036731111560e+02  1.0043019809116491e+02  1.0044313464183914e+02  1.0050517415385852e+02  1.0064679083176405e+02  1.0017462084420632e+02  1.0010542130338639e+02  1.0013261996768992e+02  1.0007999873758945e+02  1.0009962232875434e+02  1.0017337212684446e+02  1.0022126395242807e+02  1.0012082321085964e+02  1.0026635107457523e+02  1.0021055082222642e+02  1.0023740982653472e+02  1.0000407008120629e+02  1.0002175847154702e+02  1.0001267676913203e+02  1.0001324525679748e+02  1.0000397434238604e+02  1.0001312123883346e+02  1.0025571001711862e+02  1.0013308912351592e+02  1.0017021291533732e+02  1.0016048151384062e+02  1.0000664159269543e+02  1.0004298236219600e+02  1.0002420873863676e+02  1.0004024714145149e+02  1.0003895054684902e+02  1.0005162157554868e+02  1.0004735618935419e+02  1.0009164646690814e+02  1.0003217197199579e+02  9.9954035248678039e+01  1.0006786160043212e+02  1.0014920558961752e+02  1.0007941518881623e+02  1.0008236267719043e+02  1.0014242981288483e+02  1.0007500122919308e+02  1.0007952393187905e+02  1.0015631601796915e+02  1.0000590372981976e+02  9.9956235248029614e+01  1.0002503046416162e+02  1.0008870395582291e+02  9.9989202977800929e+01  1.0004662923702850e+02  1.0008982907050428e+02  1.0002201108224479e+02  9.9977426990195468e+01  1.0005031475140476e+02  1.0014624916463592e+02  1.0009732968716996e+02  1.0007540767785363e+02  1.0011092935643629e+02  1.0015581809101285e+02  1.0013064760443555e+02  1.0012978010261476e+02  1.0012778615852146e+02  1.0006143617567975e+02  1.0017734922384969e+02  1.0016755779975493e+02  1.0008224609617740e+02  1.0009556107732550e+02  1.0021817258017545e+02  1.0019928102177121e+02  1.0035028566483147e+02  1.0054370472918367e+02  1.0048868656253090e+02  1.0072525893408893e+02  1.0040064259359983e+02  1.0003121047173531e+02  1.0014464805395380e+02  1.0008995992314178e+02  1.0012294749329637e+02  1.0019398755336658e+02  1.0037128621317528e+02  1.0028339943517575e+02  1.0031800931820028e+02  1.0025962589152977e+02  1.0031847134839316e+02  1.0037158216851773e+02  1.0046470116320015e+02  9.9947579544182830e+01  1.0004404745425325e+02  1.0001428007570919e+02  9.9993915327535021e+01  1.0005641522117368e+02  1.0006714628722661e+02  1.0011423370322032e+02  1.0009825089696729e+02  1.0000569845321907e+02  1.0000102438725260e+02  1.0002481141363897e+02  1.0002490805408745e+02  1.0001774515390116e+02  1.0000741551117689e+02  1.0000667488498760e+02  1.0001509822661701e+02  9.9993553104065981e+01  1.0000507299927632e+02  1.0005174013468071e+02  9.9944813588892302e+01  1.0000318929360431e+02  1.0003963499224822e+02  1.0009599028639467e+02  1.0006831975959231e+02  1.0022565828568865e+02  1.0011476435490678e+02  1.0021896037790633e+02  9.9998985944447895e+01  1.0005347092007116e+02  1.0008312035829778e+02  1.0002946435049712e+02  1.0161844254868551e+02  1.0074926907149742e+02  1.0083514284791163e+02  1.0085344042642697e+02  1.0200009968473422e+02  1.0211204669573917e+02  1.0112926197872373e+02  1.0054875973405287e+02  1.0055487645235601e+02  9.9991802687763254e+01  1.0000825211279512e+02  9.9972906296025513e+01  1.0002103217196792e+02  1.0075348869766087e+02  1.0083331929097700e+02  1.0058918700696208e+02  1.0064214572347184e+02  1.0073547205206214e+02  1.0143576281718046e+02  1.0061397689101915e+02  1.0138041835631431e+02  1.0207335119769023e+02  1.0048065196747012e+02  1.0001489347495891e+02  1.0002833909274138e+02  1.0003230419743964e+02  1.0002129653007435e+02  1.0004433299022034e+02  1.0006399236903803e+02  1.0074094437467151e+02  1.0085316664218274e+02  1.0056568389644474e+02  1.0108306384502644e+02  1.0208529647380990e+02  1.0163957831678266e+02  1.0004262919847716e+02  1.0010536357747236e+02  1.0004040328599403e+02  1.0002845830867261e+02  1.0000902651752459e+02  1.0009535182023249e+02  1.0007754264436917e+02  1.0002933008431248e+02  1.0040519259816928e+02  1.0045777063410358e+02  1.0043894107004930e+02  1.0045019574583084e+02  1.0041025693920044e+02  1.0044611078933526e+02  1.0054534736228854e+02  1.0003054801965511e+02  1.0015722932439014e+02  1.0009068231184368e+02  9.9989687758386623e+01  1.0014853213688075e+02  1.0003586570084063e+02  1.0041988781753312e+02  1.0043281671811964e+02  1.0042201764124970e+02  1.0046281226852396e+02  1.0044767327381125e+02  1.0049408370461880e+02  1.0046062870912739e+02  1.0042715372848271e+02  1.0006908387674609e+02  1.0010931851542598e+02  1.0005641353353334e+02  1.0005120437619736e+02  1.0003220067805819e+02  1.0007705630607690e+02  1.0003572398995050e+02  1.0003476819837728e+02  1.0007719139696189e+02  1.0038342449940643e+02  1.0069139382616200e+02  1.0066035300037329e+02  1.0001726980175067e+02  9.9990501699997893e+01  1.0001374428723584e+02  1.0003321440118000e+02  1.0002114010268009e+02  1.0004491005295779e+02  1.0003166025972259e+02  1.0003807037160844e+02  1.0002279284286209e+02  1.0003683580232533e+02  1.0002908367590231e+02  1.0030884412301273e+02  1.0028638941297082e+02  1.0020445704529273e+02  1.0036049636776215e+02  1.0002957105885426e+02  1.0005190894714707e+02  1.0008151404616662e+02  1.0002372787197960e+02  1.0003869870852320e+02  1.0003501126322539e+02  1.0008437886991382e+02  1.0007727654959479e+02  1.0008487256463876e+02  1.0004814651016451e+02  1.0002324520790565e+02  1.0001226720790655e+02  1.0001838509361156e+02  1.0000652289500326e+02  1.0003060781812103e+02  1.0005394625520175e+02  1.0055461425371196e+02  1.0055027758435213e+02  1.0059483630220046e+02  1.0058521679305450e+02  1.0000581771048466e+02  9.9988158695855446e+01  9.9990858343995129e+01  1.0001669400294584e+02  1.0003574402229050e+02  9.9954573683008093e+01  1.0003640004064833e+02  1.0003700599792973e+02  1.0004543310018919e+02  1.0004720347607501e+02  1.0001394789906162e+02  1.0000504099432200e+02  1.0000806978143160e+02  1.0002371362415082e+02  1.0145125570284452e+02  1.0050781484712986e+02  1.0018141857894659e+02  1.0046056329607494e+02  1.0043130414950814e+02  1.0119044320192600e+02  1.0049035163936523e+02  1.0011836385172097e+02  1.0001112186844401e+02  1.0008348264844228e+02  1.0012528197366186e+02  1.0002905501584077e+02  1.0003892037136356e+02  1.0003243762580469e+02  1.0004202638466303e+02  9.9997757337268951e+01  1.0000409442032377e+02  9.9999862258351655e+01  9.9999868684479623e+01  1.0048240573136660e+02  1.0050917174760802e+02  1.0052006552299567e+02  1.0060053677110531e+02  1.0015616973206706e+02  1.0029493575638409e+02  1.0026749961366288e+02  1.0000688779805856e+02  1.0002940455021071e+02  1.0003856133532450e+02  1.0000818480890815e+02  1.0004723595929671e+02  1.0005204675391352e+02  1.0046454143383109e+02  1.0041135449379908e+02  1.0045976868592842e+02  1.0042284410789107e+02  1.0040017034854941e+02  1.0039306259171143e+02  1.0039363529980530e+02  1.0037679767798097e+02  1.0003265064603271e+02  1.0008352830310847e+02  1.0006363073980009e+02  1.0012320393085331e+02  1.0006290509507072e+02  1.0002412192248413e+02  1.0003450604673985e+02  1.0015301506617877e+02  1.0008455303608507e+02  1.0010286374721818e+02  1.0012042403661903e+02  1.0009914438475602e+02  1.0011350138402499e+02  1.0023100948491884e+02  1.0070489583026402e+02  1.0055952875587558e+02  1.0048811929496756e+02  1.0001888562297388e+02  1.0003476922971771e+02  1.0000742643164581e+02  1.0002190772927463e+02  1.0004576402105863e+02  9.9988179253655261e+01  1.0004202604947604e+02  1.0003764778858168e+02  1.0004428373689058e+02  1.0001190579360899e+02  1.0011008506870877e+02  1.0029988998049902e+02  1.0045320337038353e+02  1.0024400642484754e+02  1.0023072370839662e+02  1.0014642315884618e+02  1.0015031104658827e+02  1.0011015259929577e+02  1.0007851082860419e+02  1.0012397367168811e+02  1.0011900640517617e+02  1.0009303867773731e+02  1.0006590943741433e+02  1.0003323992925480e+02  1.0006752042833010e+02  1.0003913058829457e+02  1.0005137955093907e+02  1.0003622380621397e+02  1.0006981454565485e+02  1.0002396328662866e+02  1.0001129168583265e+02  1.0002621621411180e+02  1.0002183615700267e+02  1.0006808774386514e+02  9.9989936643426276e+01  9.9973135870023626e+01  1.0002814680692890e+02  1.0004045849006754e+02  1.0000925514183508e+02  1.0005328508126387e+02  1.0001009926741568e+02  9.9974200805032140e+01  9.9998084427281526e+01  9.9993517122416776e+01  9.9961679472231197e+01  1.0001427847527228e+02  1.0000579885898061e+02  9.9975843412708045e+01  1.0000653329424918e+02  1.0021744679304403e+02  1.0019474057162483e+02  1.0027394822799270e+02  1.0022691960801220e+02  1.0010947009494292e+02  1.0005214759302190e+02  1.0001287015123742e+02  1.0004511241104042e+02  1.0002003427160543e+02  1.0003917789152283e+02  1.0009720904407426e+02  1.0039262603756588e+02  1.0035803792753892e+02  1.0026780826588914e+02  1.0016346982043923e+02  1.0023920645698595e+02  1.0024747354359835e+02  1.0043136185795544e+02  1.0044442801853322e+02  1.0041150845734992e+02  1.0040541362072510e+02  1.0038924791649123e+02  1.0040393257003807e+02  1.0005267472154800e