<?xml version="1.0"?>
<VTKFile type="UnstructuredGrid"  version="0.1"  >
<UnstructuredGrid>
<Piece  NumberOfPoints="343" NumberOfCells="1296">
<Points>
<DataArray  type="Float64"  NumberOfComponents="3"  format="ascii">0 0 0  1.666666666666667 0 0  3.333333333333333 0 0  5 0 0  0 1.666666666666667 0  1.666666666666667 1.666666666666667 0  3.333333333333333 1.666666666666667 0  5 1.666666666666667 0  0 3.333333333333333 0  1.666666666666667 3.333333333333333 0  3.333333333333333 3.333333333333333 0  5 3.333333333333333 0  0 5 0  1.666666666666667 5 0  3.333333333333333 5 0  5 5 0  0 0 1.666666666666667  1.666666666666667 0 1.666666666666667  3.333333333333333 0 1.666666666666667  5 0 1.666666666666667  0 1.666666666666667 1.666666666666667  1.666666666666667 1.666666666666667 1.666666666666667  3.333333333333333 1.666666666666667 1.666666666666667  5 1.666666666666667 1.666666666666667  0 3.333333333333333 1.666666666666667  1.666666666666667 3.333333333333333 1.666666666666667  3.333333333333333 3.333333333333333 1.666666666666667  5 3.333333333333333 1.666666666666667  0 5 1.666666666666667  1.666666666666667 5 1.666666666666667  3.333333333333333 5 1.666666666666667  5 5 1.666666666666667  0 0 3.333333333333333  1.666666666666667 0 3.333333333333333  3.333333333333333 0 3.333333333333333  5 0 3.333333333333333  0 1.666666666666667 3.333333333333333  1.666666666666667 1.666666666666667 3.333333333333333  3.333333333333333 1.666666666666667 3.333333333333333  5 1.666666666666667 3.333333333333333  0 3.333333333333333 3.333333333333333  1.666666666666667 3.333333333333333 3.333333333333333  3.333333333333333 3.333333333333333 3.333333333333333  5 3.333333333333333 3.333333333333333  0 5 3.333333333333333  1.666666666666667 5 3.333333333333333  3.333333333333333 5 3.333333333333333  5 5 3.333333333333333  0 0 5  1.666666666666667 0 5  3.333333333333333 0 5  5 0 5  0 1.666666666666667 5  1.666666666666667 1.666666666666667 5  3.333333333333333 1.666666666666667 5  5 1.666666666666667 5  0 3.333333333333333 5  1.666666666666667 3.333333333333333 5  3.333333333333333 3.333333333333333 5  5 3.333333333333333 5  0 5 5  1.666666666666667 5 5  3.333333333333333 5 5  5 5 5  0.8333333333333334 0 0  0 0.8333333333333334 0  0.8333333333333334 0.8333333333333334 0  0 0 0.8333333333333334  0.8333333333333334 0 0.8333333333333334  0 0.8333333333333334 0.8333333333333334  0.8333333333333334 0.8333333333333334 0.8333333333333334  2.5 0 0  1.666666666666667 0.8333333333333334 0  2.5 0.8333333333333334 0  1.666666666666667 0 0.8333333333333334  2.5 0 0.8333333333333334  1.666666666666667 0.8333333333333334 0.8333333333333334  2.5 0.8333333333333334 0.8333333333333334  4.166666666666667 0 0  3.333333333333333 0.8333333333333334 0  4.166666666666667 0.8333333333333334 0  3.333333333333333 0 0.8333333333333334  4.166666666666667 0 0.8333333333333334  3.333333333333333 0.8333333333333334 0.8333333333333334  4.166666666666667 0.8333333333333334 0.8333333333333334  5 0.8333333333333334 0  5 0 0.8333333333333334  5 0.8333333333333334 0.8333333333333334  0.8333333333333334 1.666666666666667 0  0 2.5 0  0.8333333333333334 2.5 0  0 1.666666666666667 0.8333333333333334  0.8333333333333334 1.666666666666667 0.8333333333333334  0 2.5 0.8333333333333334  0.8333333333333334 2.5 0.8333333333333334  2.5 1.666666666666667 0  1.666666666666667 2.5 0  2.5 2.5 0  1.666666666666667 1.666666666666667 0.8333333333333334  2.5 1.666666666666667 0.8333333333333334  1.666666666666667 2.5 0.8333333333333334  2.5 2.5 0.8333333333333334  4.166666666666667 1.666666666666667 0  3.333333333333333 2.5 0  4.166666666666667 2.5 0  3.333333333333333 1.666666666666667 0.8333333333333334  4.166666666666667 1.666666666666667 0.8333333333333334  3.333333333333333 2.5 0.8333333333333334  4.166666666666667 2.5 0.8333333333333334  5 2.5 0  5 1.666666666666667 0.8333333333333334  5 2.5 0.8333333333333334  0.8333333333333334 3.333333333333333 0  0 4.166666666666667 0  0.8333333333333334 4.166666666666667 0  0 3.333333333333333 0.8333333333333334  0.8333333333333334 3.333333333333333 0.8333333333333334  0 4.166666666666667 0.8333333333333334  0.8333333333333334 4.166666666666667 0.8333333333333334  2.5 3.333333333333333 0  1.666666666666667 4.166666666666667 0  2.5 4.166666666666667 0  1.666666666666667 3.333333333333333 0.8333333333333334  2.5 3.333333333333333 0.8333333333333334  1.666666666666667 4.166666666666667 0.8333333333333334  2.5 4.166666666666667 0.8333333333333334  4.166666666666667 3.333333333333333 0  3.333333333333333 4.166666666666667 0  4.166666666666667 4.166666666666667 0  3.333333333333333 3.333333333333333 0.8333333333333334  4.166666666666667 3.333333333333333 0.8333333333333334  3.333333333333333 4.166666666666667 0.8333333333333334  4.166666666666667 4.166666666666667 0.8333333333333334  5 4.166666666666667 0  5 3.333333333333333 0.8333333333333334  5 4.166666666666667 0.8333333333333334  0.8333333333333334 5 0  0 5 0.8333333333333334  0.8333333333333334 5 0.8333333333333334  2.5 5 0  1.666666666666667 5 0.8333333333333334  2.5 5 0.8333333333333334  4.166666666666667 5 0  3.333333333333333 5 0.8333333333333334  4.166666666666667 5 0.8333333333333334  5 5 0.8333333333333334  0.8333333333333334 0 1.666666666666667  0 0.8333333333333334 1.666666666666667  0.8333333333333334 0.8333333333333334 1.666666666666667  0 0 2.5  0.8333333333333334 0 2.5  0 0.8333333333333334 2.5  0.8333333333333334 0.8333333333333334 2.5  2.5 0 1.666666666666667  1.666666666666667 0.8333333333333334 1.666666666666667  2.5 0.8333333333333334 1.666666666666667  1.666666666666667 0 2.5  2.5 0 2.5  1.666666666666667 0.8333333333333334 2.5  2.5 0.8333333333333334 2.5  4.166666666666667 0 1.666666666666667  3.333333333333333 0.8333333333333334 1.666666666666667  4.166666666666667 0.8333333333333334 1.666666666666667  3.333333333333333 0 2.5  4.166666666666667 0 2.5  3.333333333333333 0.8333333333333334 2.5  4.166666666666667 0.8333333333333334 2.5  5 0.8333333333333334 1.666666666666667  5 0 2.5  5 0.8333333333333334 2.5  0.8333333333333334 1.666666666666667 1.666666666666667  0 2.5 1.666666666666667  0.8333333333333334 2.5 1.666666666666667  0 1.666666666666667 2.5  0.8333333333333334 1.666666666666667 2.5  0 2.5 2.5  0.8333333333333334 2.5 2.5  2.5 1.666666666666667 1.666666666666667  1.666666666666667 2.5 1.666666666666667  2.5 2.5 1.666666666666667  1.666666666666667 1.666666666666667 2.5  2.5 1.666666666666667 2.5  1.666666666666667 2.5 2.5  2.5 2.5 2.5  4.166666666666667 1.666666666666667 1.666666666666667  3.333333333333333 2.5 1.666666666666667  4.166666666666667 2.5 1.666666666666667  3.333333333333333 1.666666666666667 2.5  4.166666666666667 1.666666666666667 2.5  3.333333333333333 2.5 2.5  4.166666666666667 2.5 2.5  5 2.5 1.666666666666667  5 1.666666666666667 2.5  5 2.5 2.5  0.8333333333333334 3.333333333333333 1.666666666666667  0 4.166666666666667 1.666666666666667  0.8333333333333334 4.166666666666667 1.666666666666667  0 3.333333333333333 2.5  0.8333333333333334 3.333333333333333 2.5  0 4.166666666666667 2.5  0.8333333333333334 4.166666666666667 2.5  2.5 3.333333333333333 1.666666666666667  1.666666666666667 4.166666666666667 1.666666666666667  2.5 4.166666666666667 1.666666666666667  1.666666666666667 3.333333333333333 2.5  2.5 3.333333333333333 2.5  1.666666666666667 4.166666666666667 2.5  2.5 4.166666666666667 2.5  4.166666666666667 3.333333333333333 1.666666666666667  3.333333333333333 4.166666666666667 1.666666666666667  4.166666666666667 4.166666666666667 1.666666666666667  3.333333333333333 3.333333333333333 2.5  4.166666666666667 3.333333333333333 2.5  3.333333333333333 4.166666666666667 2.5  4.166666666666667 4.166666666666667 2.5  5 4.166666666666667 1.666666666666667  5 3.333333333333333 2.5  5 4.166666666666667 2.5  0.8333333333333334 5 1.666666666666667  0 5 2.5  0.8333333333333334 5 2.5  2.5 5 1.666666666666667  1.666666666666667 5 2.5  2.5 5 2.5  4.166666666666667 5 1.666666666666667  3.333333333333333 5 2.5  4.166666666666667 5 2.5  5 5 2.5  0.8333333333333334 0 3.333333333333333  0 0.8333333333333334 3.333333333333333  0.8333333333333334 0.8333333333333334 3.333333333333333  0 0 4.166666666666667  0.8333333333333334 0 4.166666666666667  0 0.8333333333333334 4.166666666666667  0.8333333333333334 0.8333333333333334 4.166666666666667  2.5 0 3.333333333333333  1.666666666666667 0.8333333333333334 3.333333333333333  2.5 0.8333333333333334 3.333333333333333  1.666666666666667 0 4.166666666666667  2.5 0 4.166666666666667  1.666666666666667 0.8333333333333334 4.166666666666667  2.5 0.8333333333333334 4.166666666666667  4.166666666666667 0 3.333333333333333  3.333333333333333 0.8333333333333334 3.333333333333333  4.166666666666667 0.8333333333333334 3.333333333333333  3.333333333333333 0 4.166666666666667  4.166666666666667 0 4.166666666666667  3.333333333333333 0.8333333333333334 4.166666666666667  4.166666666666667 0.8333333333333334 4.166666666666667  5 0.8333333333333334 3.333333333333333  5 0 4.166666666666667  5 0.8333333333333334 4.166666666666667  0.8333333333333334 1.666666666666667 3.333333333333333  0 2.5 3.333333333333333  0.8333333333333334 2.5 3.333333333333333  0 1.666666666666667 4.166666666666667  0.8333333333333334 1.666666666666667 4.166666666666667  0 2.5 4.166666666666667  0.8333333333333334 2.5 4.166666666666667  2.5 1.666666666666667 3.333333333333333  1.666666666666667 2.5 3.333333333333333  2.5 2.5 3.333333333333333  1.666666666666667 1.666666666666667 4.166666666666667  2.5 1.666666666666667 4.166666666666667  1.666666666666667 2.5 4.166666666666667  2.5 2.5 4.166666666666667  4.166666666666667 1.666666666666667 3.333333333333333  3.333333333333333 2.5 3.333333333333333  4.166666666666667 2.5 3.333333333333333  3.333333333333333 1.666666666666667 4.166666666666667  4.166666666666667 1.666666666666667 4.166666666666667  3.333333333333333 2.5 4.166666666666667  4.166666666666667 2.5 4.166666666666667  5 2.5 3.333333333333333  5 1.66666666
[...]
<PointData  Vectors="u"> 
<DataArray  type="Float64"  Name="u"  NumberOfComponents="3" format="ascii">2.0000000000098942e+02 9.6213116439941785e-10 9.5745673877974220e-10  1.9999999999810984e+02 1.0117415618931290e-09 1.0178828794363287e-09  1.9999999999584594e+02 9.5510315661497133e-10 8.7702239469565405e-10  1.9999999999371079e+02 4.1874825142930046e-10 4.7319647493992869e-10  2.0000000000098836e+02 3.9770909714602344e-10 9.7778126837188251e-10  1.9999999999809577e+02 2.9803589682353352e-10 9.7162927150244034e-10  1.9999999999580535e+02 2.5787275388890337e-10 9.5499201709234241e-10  1.9999999999357686e+02 8.7805818493977018e-11 4.3888236223296864e-10  2.0000000000098123e+02 1.9571207015769134e-10 9.4971530503974435e-10  1.9999999999806087e+02 1.7280324870618521e-10 8.8004960322705796e-10  1.9999999999573768e+02 1.2754222798205750e-10 8.8125656402152331e-10  1.9999999999352943e+02 3.6070998625898034e-12 5.0922021672587394e-10  2.0000000000093618e+02 -5.8270883605119759e-10 9.4542548965834389e-10  1.9999999999805752e+02 -5.0656746969165627e-10 9.3772060970971645e-10  1.9999999999578858e+02 -6.0617031485478301e-10 9.8032945422711657e-10  1.9999999999341887e+02 -1.9392426562938946e-10 5.1109989713443077e-10  2.0000000000101741e+02 1.0548142148345005e-09 3.2657073876645174e-10  1.9999999999802060e+02 9.1993878394247957e-10 2.6044432962656242e-10  1.9999999999581965e+02 8.8753056633376925e-10 1.8849879222317534e-10  1.9999999999357073e+02 3.8532979068975401e-10 7.5484175585766562e-11  2.0000000000097819e+02 2.7321348107346276e-10 2.6679165005376465e-10  1.9999999999804632e+02 2.5717045016688425e-10 2.1165285789404144e-10  1.9999999999574771e+02 2.2028326724867119e-10 1.5009255288052112e-10  1.9999999999364007e+02 3.5432775389473345e-11 7.2438905538079714e-11  2.0000000000096938e+02 1.8560554493925798e-10 2.2923681110654960e-10  1.9999999999796839e+02 1.0349274953874541e-10 1.8880050349207917e-10  1.9999999999572114e+02 7.4920885018303257e-11 1.9261658253613236e-10  1.9999999999346221e+02 5.2185963006768482e-11 8.2309817936822293e-11  2.0000000000091325e+02 -5.8308947438611219e-10 2.0470810723755739e-10  1.9999999999801926e+02 -5.2031820098669140e-10 2.1132707246371613e-10  1.9999999999572742e+02 -4.7359233495884236e-10 1.4339698683320941e-10  1.9999999999334673e+02 -2.1441262372241147e-10 3.9388650082774298e-11  2.0000000000095818e+02 9.6735649369116975e-10 1.4252108154438761e-10  1.9999999999806178e+02 9.3158910865778019e-10 7.8870890879280084e-11  1.9999999999581345e+02 8.6427023012878721e-10 1.0713335620034646e-10  1.9999999999349674e+02 3.9727325614193626e-10 2.9315840626672146e-11  2.0000000000089892e+02 2.4155484101277472e-10 9.7232094308586762e-11  1.9999999999803759e+02 2.2175679485598949e-10 5.8652927780668559e-11  1.9999999999580129e+02 1.8451584865766632e-10 6.8383785003783907e-11  1.9999999999349740e+02 7.9413936029713036e-11 1.5573111509731451e-11  2.0000000000094403e+02 1.8577217782292289e-10 1.1025264260783767e-10  1.9999999999801759e+02 8.5105688055049047e-11 1.1660527260263862e-10  1.9999999999571031e+02 1.6873683112961596e-10 1.1763201905648374e-10  1.9999999999347699e+02 1.9157077209195526e-11 9.3764722487139313e-12  2.0000000000086101e+02 -5.7344052256859885e-10 7.7042386154004506e-11  1.9999999999796088e+02 -6.3066714287430791e-10 7.1234093855303461e-11  1.9999999999569917e+02 -5.6475933068011766e-10 4.4830044182477919e-11  1.9999999999342134e+02 -2.0588601302729173e-10 -2.5737975730368209e-12  2.0000000000093175e+02 9.1948563748809785e-10 -5.6558269760066860e-10  1.9999999999798490e+02 9.5369629736650527e-10 -5.7119657964745699e-10  1.9999999999583090e+02 8.9005421628412852e-10 -4.8387711060041033e-10  1.9999999999344507e+02 4.6691175389737006e-10 -2.3390468990673972e-10  2.0000000000095241e+02 1.8111516556223072e-10 -6.4126266130115436e-10  1.9999999999795736e+02 1.8967939931487256e-10 -5.9791875607319279e-10  1.9999999999577045e+02 1.8718428410495925e-10 -5.9323549352793511e-10  1.9999999999331015e+02 7.8537157147372877e-11 -2.2801576540304635e-10  2.0000000000088858e+02 6.4631904436447828e-11 -6.3527719182503433e-10  1.9999999999797996e+02 7.1804801987964231e-11 -5.9088052792367204e-10  1.9999999999569866e+02 7.5996792334154826e-11 -5.5541270874236258e-10  1.9999999999341057e+02 -1.2602582673050091e-11 -1.7774384724936668e-10  2.0000000000088576e+02 -6.1289225692181917e-10 -5.6582123908850493e-10  1.9999999999794406e+02 -6.6404921731634954e-10 -6.1106732521428239e-10  1.9999999999571199e+02 -6.0195023814130160e-10 -5.7117366470705812e-10  1.9999999999340574e+02 -1.9076421242476484e-10 -2.2196148819904117e-10  1.9999999999874393e+02 -2.9187523526956039e-11 -2.6557732769863629e-11  1.9999999999990726e+02 -1.5625545945594093e-10 -1.2121301634862470e-10  1.9999999999858730e+02 -3.6603292642313879e-10 -6.1468825102412656e-10  2.0000000000002507e+02 -8.9945418300841778e-11 -1.6117574438851823e-10  1.9999999999855348e+02 -6.7576441881330477e-10 -3.2835987301623995e-10  1.9999999999930876e+02 -3.4575900156149980e-10 -2.5933019131763465e-10  1.9999999999873990e+02 -1.9370857523191589e-10 -1.0012722616246894e-10  1.9999999999674048e+02 6.6229368630278978e-12 -5.6021771064614547e-11  1.9999999999781173e+02 -1.1775504103444736e-10 -5.9105901999758466e-11  1.9999999999651180e+02 -3.4718540186031922e-10 -6.5937954061182804e-10  1.9999999999776057e+02 -1.1891581260030940e-10 -1.0130395733329452e-10  1.9999999999643140e+02 -7.1222773732421340e-10 -3.7885740195836387e-10  1.9999999999758072e+02 -2.4673571903836297e-10 -2.2939524542157215e-10  1.9999999999669575e+02 -1.3345345418157326e-10 -1.6197970755437977e-10  1.9999999999463782e+02 -3.8854637788853065e-11 -3.9711700565783258e-11  1.9999999999553148e+02 -1.0496156557822838e-10 -9.3365876045525146e-11  1.9999999999445816e+02 -3.0165388151845540e-10 -6.1915652815430622e-10  1.9999999999556542e+02 -3.8831914703281128e-11 -1.6361430060583209e-10  1.9999999999453618e+02 -7.5185152350856545e-10 -3.2006763431683662e-10  1.9999999999543587e+02 -2.1815026738987542e-10 -2.8091960031539867e-10  1.9999999999462327e+02 -1.4733133099109416e-10 -1.5373108957130865e-10  1.9999999999338337e+02 -2.5242446280721717e-11 -1.8862707769882636e-10  1.9999999999328628e+02 -2.2152640189300570e-10 -4.6096604509269194e-11  1.9999999999324248e+02 -4.8309245868630106e-11 -2.6820843976115396e-11  1.9999999999872136e+02 1.6249345249768135e-11 5.6324313225432677e-11  1.9999999999997524e+02 -1.9432892294505766e-11 -2.3054050701275625e-11  1.9999999999852784e+02 -1.8346625921722880e-10 -5.7593603813153995e-10  1.9999999999996405e+02 2.4438161127536558e-11 -1.2003376065753409e-10  1.9999999999867248e+02 -5.9759614130992353e-11 -2.3219395209280318e-10  1.9999999999933863e+02 -2.5960952057110134e-10 -3.4196482781275882e-10  1.9999999999870732e+02 1.4708011209390011e-11 -1.4215696653801921e-10  1.9999999999671576e+02 -3.5334504367264629e-11 -2.9282703888096711e-11  1.9999999999775082e+02 8.0119933375003368e-12 4.6623768800887074e-11  1.9999999999648043e+02 -1.9602972965266684e-10 -7.2279522728616959e-10  1.9999999999790302e+02 1.5587351883758861e-10 -2.2652984754577239e-11  1.9999999999655375e+02 -1.6487855594413501e-10 -1.8298887872253375e-10  1.9999999999763472e+02 -1.9341140273158020e-10 -1.8622401531702902e-10  1.9999999999660909e+02 -8.6553759069223779e-11 -1.6623154163565535e-10  1.9999999999466934e+02 -6.2732994147742609e-11 6.3215552287933125e-11  1.9999999999556439e+02 -7.7817382697284237e-11 7.6725483253636659e-11  1.9999999999441769e+02 -2.6527288725520447e-10 -6.1155578834056854e-10  1.9999999999562613e+02 7.5406420727550950e-11 -1.3278686428288032e-10  1.9999999999452621e+02 -2.4134411363424379e-10 -2.6158725236116734e-10  1.9999999999546839e+02 -1.4487362627284348e-10 -2.7372010173425766e-10  1.9999999999449037e+02 -1.0994068420233773e-10 -2.5833465284194909e-10  1.9999999999318794e+02 5.1391315972469704e-11 -1.4321720499076412e-10  1.9999999999333846e+02 3.9644257637126626e-11 -6.9138072050955765e-11  1.9999999999313511e+02 1.1196380714178866e-11 -8.4615214665835936e-11  1.9999999999879228e+02 -1.3194222525891727e-10 3.8325373310944847e-11  2.0000000000005889e+02 2.9976381310809420e-11 -1.2656690071783443e-11  1.9999999999846270e+02 -1.5296970019518952e-10 -7.4870379001005545e-10  2.0000000000006432e+02 -7.2448089037144967e-11 -1.4321793505546481e-10  1.9999999999865517e+02 -2.4548254756434839e-10 -2.1567566241861224e-10  1.9999999999924705e+02 -1.4890932725099205e-10 -3.3124999425063780e-10  1.9999999999866901e+02 -1.1465464312300497e-12 -1.6916884961769081e-10  1.9999999999664666e+02 -8.9573462786148308e-11 -4.3545222367589218e-11  1.9999999999782767e+02 -9.0688244883496238e-11 -1.5084232325056107e-11  1.9999999999641233e+02 -1.5708582219924157e-10 -6.6590692594678367e-10  1.9999999999783171e+02 1.5911090854787209e-11 -7.5610772231467525e-11  1.9999999999654662e+02 -1.6279429888707299e-10 -2.3527027391396437e-10  1.9999999999757313e+02 -7.6660646744125483e-11 -1.7695155657573610e-10  1.9999999999661338e+02 3.3506290612080005e-12 -1.9702312689699542e-10  1.9999999999461193e+02 -1.3037456745744273e-10 2.6281948578954285e-11  1.9999999999561234e+02 6.3525371207391559e-11 4.6609308248988966e-11  1.9999999999431191e+02 -8.9326966420659505e-11 -6.7815052942707782e-10  1.9999999999561371e+02 -1.0944143640631770e-11 -6.5231735774585707e-11  1.9999999999450571e+02 -2.0878439293567833e-10 -1.7943739588259420e-10  1.9999999999541697e+02 4.9880288909331956e-11 -2.5800583624978065e-10  1.9999999999445021e+02 2.0940467379516632e-11 -1.8209570519655015e-10  1.9999999999320079e+02 -3.4189919068327237e-11 -1.2360922987572925e-10  1.9999999999319598e+02 -5.9788833936483030e-11 -9.2023152964687505e-11  1.9999999999294860e+02 3.9409610344502524e-11 -2.8979129663378926e-11  1.9999999999872847e+02 -2.1975133144564801e-11 4.0062869349088641e-12  2.0000000000004007e+02 -3.0189855211827398e-11 -1.7168081041192109e-10  1.9999999999871275e+02 3.1624852834509349e-10 -1.1855309868412346e-10  1.9999999999672352e+02 -1.2629950257371529e-10 1.6282956661172197e-10  1.9999999999798385e+02 9.3663995958361779e-12 -8.8021342674662786e-11  1.9999999999666068e+02 1.6783110097168970e-10 -1.3758954966421050e-10  1.9999999999446348e+02 -3.8689500560168254e-12 8.3035905939790034e-11  1.9999999999575914e+02 -6.6717195556546096e-11 -1.4534781739826799e-10  1.9999999999460343e+02 2.0501350335507835e-10 -1.0782560103343104e-10  1.9999999999301974e+02 8.9150110866622364e-11 -3.1788169774090433e-11  1.9999999999884838e+02 1.9282824454162125e-11 -4.1130094451596574e-11  2.0000000000004150e+02 -1.0390305944317483e-10 -3.5435581772052047e-11  1.9999999999863115e+02 -2.3703133121071664e-10 -2.1996387055865349e-10  2.0000000000001745e+02 3.2997754766189061e-12 -5.4030929924339871e-11  1.9999999999849314e+02 -6.3383368278633528e-10 -2.5944457529357922e-10  1.9999999999945206e+02 -3.4840298292771008e-10 -2.7226734510950159e-10  1.9999999999868760e+02 -1.4846658638265645e-10 -2.5154378952976953e-11  1.9999999999661159e+02 -5.8702575313874687e-11 -7.8799486806504486e-11  1.9999999999787210e+02 -4.3726702411028292e-11 9.0934291142595900e-11  1.9999999999652127e+02 -1.2641241376892750e-10 -2.7269942560720751e-10  1.9999999999779240e+02 -1.0603403288022067e-11 -8.2300132888756520e-11  1.9999999999640755e+02 -6.5857182123038181e-10 -1.6553092664153996e-10  1.9999999999755494e+02 -2.2133804645127312e-10 -1.6680316610657846e-10  1.9999999999659488e+02 -1.6203669491735204e-10 -9.9272480913534088e-11  1.9999999999478408e+02 1.5466442351974432e-10 -1.0474346308703749e-10  1.9999999999567709e+02 -4.4691026609545846e-11 1.1365642214275092e-11  1.9999999999453439e+02 -2.3700836728004746e-10 -3.0615166899858224e-10  1.9999999999559711e+02 -2.8071621863025843e-11 7.7129866219768095e-11  1.9999999999447229e+02 -6.1373584123594687e-10 -2.2455508252680638e-10  1.9999999999541970e+02 -2.4187778387760985e-10 -1.3557881557868988e-10  1.9999999999456540e+02 -1.9171421679494699e-10 -7.4530336674438430e-11  1.9999999999338200e+02 -4.9383575542608766e-11 -4.4917199408872188e-11  1.9999999999329577e+02 -1.8379962526257237e-10 -3.0441043339132634e-11  1.9999999999322685e+02 -1.8295819287367199e-11 -1.5063526833160087e-12  1.9999999999884616e+02 5.9782237749514329e-11 1.1749533544452969e-10  2.0000000000002365e+02 -5.9587467125456108e-11 -8.9569237039406419e-11  1.9999999999871835e+02 -6.5312945974968933e-11 -2.7033601638874598e-10  2.0000000000004542e+02 -6.5576343677858883e-11 6.2181498061494297e-11  1.9999999999868751e+02 -2.4445281959046295e-10 -1.6948877047850517e-10  1.9999999999928619e+02 -2.3981505810210421e-10 -2.6002150446714683e-10  1.9999999999874211e+02 -9.4101283277131627e-11 -1.3043269972172545e-10  1.9999999999658485e+02 3.4593061779566129e-11 -9.9903277977306811e-12  1.9999999999777782e+02 2.8553481053247604e-11 4.6275662091486270e-11  1.9999999999660113e+02 -1.2263432595265068e-10 -3.6268839009789013e-10  1.9999999999780110e+02 1.0236029632469591e-10 -3.1125648881389753e-11  1.9999999999651774e+02 -2.1128743945756602e-10 -1.5782538817605669e-10  1.9999999999754917e+02 -1.8534421597499379e-10 -2.1250493501913222e-10  1.9999999999655907e+02 -9.9005055818737772e-11 -1.0372402819011233e-10  1.9999999999453468e+02 -4.1537748875859839e-12 -2.4690292226560558e-11  1.9999999999559813e+02 3.0954632238602954e-11 2.8675076605350643e-11  1.9999999999442153e+02 -5.8898105068628949e-11 -1.9323277916631968e-10  1.9999999999562786e+02 6.5000572392116842e-11 -2.7462804324057435e-11  1.9999999999453246e+02 -1.8894097420270048e-10 -4.6646375451723122e-11  1.9999999999546492e+02 -1.0752754869340645e-10 -2.2264117244735116e-10  1.9999999999446143e+02 -1.1582294615182823e-10 -1.5163931931221452e-10  1.9999999999336342e+02 1.9906604316604652e-11 3.2309834822772480e-11  1.9999999999326306e+02 1.8885965170114377e-11 -9.7546719470140355e-12  1.9999999999299985e+02 1.0371354384183881e-11 3.0854774968476101e-11  1.9999999999892560e+02 -6.4438493946259028e-11 -3.8013691670733156e-11  2.0000000000003249e+02 2.0983582004285818e-11 -1.2975556580140532e-10  1.9999999999862447e+02 -1.3855564126088051e-11 -2.3899746019331977e-10  1.9999999999990663e+02 -8.0667446998516462e-11 -1.0198481166617522e-10  1.9999999999863246e+02 -2.6519228587634108e-10 -2.2177808286397997e-10  1.9999999999926979e+02 -1.5569756802581220e-10 -2.7152075246974303e-10  1.9999999999866085e+02 6.4873153480974037e-11 -1.6857088700502817e-10  1.9999999999669305e+02 4.3646941694728689e-11 2.6770385340050161e-11  1.9999999999791405e+02 -4.3400042311316931e-11 1.7285523024127194e-11  1.9999999999650205e+02 4.4781198898725271e-12 -3.2072429998727929e-10  1.9999999999788480e+02 -4.0684660595942522e-11 -1.5929631639720280e-10  1.9999999999659630e+02 -1.9370735269023201e-10 -2.0771764169098464e-10  1.9999999999759316e+02 2.6554652534908756e-11 -2.3225575239619396e-10  1.9999999999658689e+02 -2.0845659937371513e-11 -1.4469737392819591e-10  1.9999999999454604e+02 -2.6596989509841476e-11 -4.5397018966791457e-12  1.9999999999563769e+02 4.9847254192172893e-11 -1.5163783922180043e-11  1.9999999999448667e+02 9.5164957485901737e-12 -3.6942773510752467e-10  1.9999999999558779e+02 2.1107235365339115e-11 -1.1835456522721421e-10  1.9999999999445757e+02 -2.6219672583598711e-10 -1.4109199055771265e-10  1.9999999999543354e+02 3.7652766008227288e-12 -8.1451304297483543e-11  1.9999999999436528e+02 -4.6605945967617443e-11 -1.6927335846963729e-10  1.9999999999308133e+02 -8.2961803445155616e-12 1.5369577199925181e-11  1.9999999999320451e+02 -1.6797056556688509e-12 -2.1602759413947905e-11  1.9999999999296278e+02 3.0723610261315107e-11 7.3459722865287116e-12  1.9999999999879913e+02 -1.0209369655897535e-10 1.2786368177274875e-10  2.0000000000011653e+02 -2.5891257064027556e-11 -8.4308664596924945e-11  1.9999999999878557e+02 1.7853723818684467e-10 -7.9749999962103647e-11  1.9999999999662018e+02 -3.1582103560493694e-11 1.2759948960520562e-10  1.9999999999792072e+02 -1.4822583067540840e-11 -1.7063957654004371e-10  1.9999999999668299e+02 2.4602956568916853e-10 -8.8699073753751159e-11  1.9999999999453073e+02 7.8735984362119871e-12 3.2036381711529239e-11  1.9999999999572131e+02 -8.6129349959081511e-11 -2.0841408737708458e-11  1.9999999999455898e+02 2.3515391326273561e-10 -4.7123172750722218e-11  1.9999999999308875e+02 6.4063686988857992e-11 -9.7739182739466273e-12  1.9999999999876874e+02 7.8710104162427577e-11 -1.2747243471696363e-10  2.0000000000008825e+02 -6.6548692685487404e-11 -1.2744987454336897e-10  1.9999999999861382e+02 -2.2981730663450383e-10 -2.5802151862682053e-10  2.0000000000006548e+02 -4.6432420054377641e-11 4.4750582052496236e-11  1.9999999999843493e+02 -7.4194651098215204e-10 -8.6182209641568930e-11  1.9999999999919575e+02 -3.2537653473542792e-10 -8.4235128572727400e-11  1.9999999999866540e+02 -1.7224504208525383e-10 7.5034728060118234e-11  1.9999999999663936e+02 -9.2592448521191051e-11 -1.6109536297574694e-10  1.9999999999782895e+02 -7.2394195913530429e-11 -2.0653956121478614e-11  1.9999999999653329e+02 -2.5824623335958353e-10 -1.5629695911382334e-10  1.9999999999772047e+02 3.2251709364790007e-11 1.3732942486690129e-11  1.9999999999648827e+02 -7.8742438290826914e-10 -1.3495859363555562e-10  1.9999999999753919e+02 -1.5127545273540211e-10 -4.4362794210949836e-11  1.9999999999663348e+02 -1.6315082587550123e-10 -3.6471994267420437e-12  1.9999999999464714e+02 -8.1439364954760724e-11 -9.5392837480039789e-11  1.9999999999570542e+02 -9.9960868235477867e-11 4.1024021780971900e-12  1.9999999999448420e+02 -1.6882877599648318e-10 -2.3731398738944039e-10  1.9999999999562357e+02 2.1376276114702202e-12 -3.8029578045400484e-12  1.9999999999442602e+02 -6.3818678204336222e-10 -1.4497205300559283e-10  1.9999999999539506e+02 -2.3822602990667124e-10 1.2650557133263608e-11  1.9999999999451873e+02 -1.7490796739943646e-10 -1.5165944128255943e-11  1.9999999999330646e+02 -3.8096950488664030e-11 -7.6473175748922056e-12  1.9999999999314670e+02 -1.1871941305162359e-10 3.0674630686540838e-11  1.9999999999299700e+02 -5.3951783446118570e-11 2.9199654718682266e-11  1.9999999999874177e+02 -2.3364501499420484e-11 -8.8339155898950743e-11  1.9999999999992755e+02 -1.6468823428928564e-10 -1.1352490275912575e-10  1.9999999999866262e+02 -1.6806189825191626e-10 -2.9520001608770046e-10  1.9999999999990882e+02 -5.7700075508531244e-11 2.6210748143651434e-11  1.9999999999868743e+02 -2.4466396845473895e-10 7.5310331665325122e-11  1.9999999999934835e+02 -3.0845366996555089e-10 -1.2351189096155604e-10  1.9999999999868757e+02 -1.2595535806888845e-10 6.4354592220805774e-11  1.9999999999658425e+02 8.8548657684210690e-11 -2.4340779425171582e-11  1.9999999999792669e+02 -1.0624985747636968e-11 -6.2356446353277914e-11  1.9999999999650535e+02 -1.7054723610384661e-10 -2.1019154043401617e-10  1.9999999999783211e+02 4.3153818616014768e-11 6.1099271236499752e-11  1.9999999999652638e+02 -2.2812494690320573e-10 -2.1027601600478286e-12  1.9999999999754817e+02 -1.5786052112039761e-10 -7.3774017433066393e-12  1.9999999999659022e+02 -9.4461557836157981e-11 -1.3117600555206687e-11  1.9999999999452905e+02 -4.0163417802298369e-11 -5.1285192872969875e-11  1.9999999999560475e+02 -3.1483046454765675e-11 -1.8956784175556991e-11  1.9999999999448488e+02 -1.1972232598582064e-10 -2.3216479112427495e-10  1.9999999999564847e+02 3.5625939985387473e-11 1.3526053555711892e-10  1.9999999999452706e+02 -3.7600286678718755e-10 3.9948190361660267e-11  1.9999999999533694e+02 -8.2914231682725236e-11 5.0116076059148991e-11  1.9999999999443128e+02 -1.3840095402806205e-10 -4.0793080511778335e-11  1.9999999999323094e+02 -2.2544954517188769e-11 -2.2334666669864874e-12  1.9999999999312354e+02 4.3162889727184225e-11 1.9501908910285533e-11  1.9999999999294056e+02 -2.1190010108806785e-11 2.7127100027738585e-11  1.9999999999879324e+02 1.2760527137577773e-11 -3.8830900450426248e-11  1.9999999999993901e+02 6.8885701958206248e-12 -1.4060788444335652e-10  1.9999999999868211e+02 -1.7105652554950943e-11 -2.6955832974981307e-10  2.00