<?xml version="1.0"?>
<VTKFile type="UnstructuredGrid"  version="0.1"  >
<UnstructuredGrid>
<Piece  NumberOfPoints="10313" NumberOfCells="53486">
<Points>
<DataArray  type="Float64"  NumberOfComponents="3"  format="ascii">9.090909090909092 1.515151515151515 0  10.60606060606061 1.515151515151515 0  10.60606060606061 3.03030303030303 0  10.60606060606061 3.03030303030303 1.515151515151515  9.090909090909092 3.03030303030303 0  9.090909090909092 1.515151515151515 1.515151515151515  9.090909090909092 3.03030303030303 1.515151515151515  12.12121212121212 1.515151515151515 0  12.12121212121212 3.03030303030303 0  12.12121212121212 3.03030303030303 1.515151515151515  13.63636363636364 3.03030303030303 0  13.63636363636364 3.03030303030303 1.515151515151515  10.60606060606061 4.545454545454546 0  10.60606060606061 4.545454545454546 1.515151515151515  9.090909090909092 4.545454545454546 0  9.090909090909092 4.545454545454546 1.515151515151515  12.12121212121212 4.545454545454546 0  12.12121212121212 4.545454545454546 1.515151515151515  13.63636363636364 4.545454545454546 0  13.63636363636364 4.545454545454546 1.515151515151515  15.15151515151515 3.03030303030303 0  15.15151515151515 4.545454545454546 0  15.15151515151515 4.545454545454546 1.515151515151515  15.15151515151515 3.03030303030303 1.515151515151515  16.66666666666667 4.545454545454546 0  16.66666666666667 4.545454545454546 1.515151515151515  10.60606060606061 6.060606060606061 0  10.60606060606061 6.060606060606061 1.515151515151515  9.090909090909092 6.060606060606061 0  9.090909090909092 6.060606060606061 1.515151515151515  12.12121212121212 6.060606060606061 0  12.12121212121212 6.060606060606061 1.515151515151515  13.63636363636364 6.060606060606061 0  13.63636363636364 6.060606060606061 1.515151515151515  15.15151515151515 6.060606060606061 0  15.15151515151515 6.060606060606061 1.515151515151515  16.66666666666667 6.060606060606061 0  16.66666666666667 6.060606060606061 1.515151515151515  18.18181818181818 6.060606060606061 0  18.18181818181818 6.060606060606061 1.515151515151515  10.60606060606061 7.575757575757576 0  10.60606060606061 7.575757575757576 1.515151515151515  9.090909090909092 7.575757575757576 0  9.090909090909092 7.575757575757576 1.515151515151515  12.12121212121212 7.575757575757576 0  12.12121212121212 7.575757575757576 1.515151515151515  13.63636363636364 7.575757575757576 0  13.63636363636364 7.575757575757576 1.515151515151515  15.15151515151515 7.575757575757576 0  15.15151515151515 7.575757575757576 1.515151515151515  16.66666666666667 7.575757575757576 0  16.66666666666667 7.575757575757576 1.515151515151515  18.18181818181818 7.575757575757576 0  18.18181818181818 7.575757575757576 1.515151515151515  19.6969696969697 6.060606060606061 0  19.6969696969697 7.575757575757576 0  19.6969696969697 7.575757575757576 1.515151515151515  21.21212121212121 7.575757575757576 0  21.21212121212121 7.575757575757576 1.515151515151515  10.60606060606061 9.090909090909092 0  10.60606060606061 9.090909090909092 1.515151515151515  9.090909090909092 9.090909090909092 0  9.090909090909092 9.090909090909092 1.515151515151515  12.12121212121212 9.090909090909092 0  12.12121212121212 9.090909090909092 1.515151515151515  13.63636363636364 9.090909090909092 0  13.63636363636364 9.090909090909092 1.515151515151515  15.15151515151515 9.090909090909092 0  15.15151515151515 9.090909090909092 1.515151515151515  16.66666666666667 9.090909090909092 0  16.66666666666667 9.090909090909092 1.515151515151515  18.18181818181818 9.090909090909092 0  18.18181818181818 9.090909090909092 1.515151515151515  19.6969696969697 9.090909090909092 0  19.6969696969697 9.090909090909092 1.515151515151515  21.21212121212121 9.090909090909092 0  21.21212121212121 9.090909090909092 1.515151515151515  22.72727272727273 7.575757575757576 0  22.72727272727273 9.090909090909092 0  22.72727272727273 9.090909090909092 1.515151515151515  22.72727272727273 7.575757575757576 1.515151515151515  24.24242424242424 7.575757575757576 0  24.24242424242424 9.090909090909092 0  24.24242424242424 9.090909090909092 1.515151515151515  25.75757575757576 9.090909090909092 0  25.75757575757576 9.090909090909092 1.515151515151515  10.60606060606061 10.60606060606061 0  10.60606060606061 10.60606060606061 1.515151515151515  9.090909090909092 10.60606060606061 0  9.090909090909092 10.60606060606061 1.515151515151515  12.12121212121212 10.60606060606061 0  12.12121212121212 10.60606060606061 1.515151515151515  13.63636363636364 10.60606060606061 0  13.63636363636364 10.60606060606061 1.515151515151515  15.15151515151515 10.60606060606061 0  15.15151515151515 10.60606060606061 1.515151515151515  16.66666666666667 10.60606060606061 0  16.66666666666667 10.60606060606061 1.515151515151515  18.18181818181818 10.60606060606061 0  18.18181818181818 10.60606060606061 1.515151515151515  19.6969696969697 10.60606060606061 0  19.6969696969697 10.60606060606061 1.515151515151515  21.21212121212121 10.60606060606061 0  21.21212121212121 10.60606060606061 1.515151515151515  22.72727272727273 10.60606060606061 0  22.72727272727273 10.60606060606061 1.515151515151515  24.24242424242424 10.60606060606061 0  24.24242424242424 10.60606060606061 1.515151515151515  25.75757575757576 10.60606060606061 0  25.75757575757576 10.60606060606061 1.515151515151515  27.27272727272727 9.090909090909092 0  27.27272727272727 10.60606060606061 0  27.27272727272727 10.60606060606061 1.515151515151515  28.78787878787879 10.60606060606061 0  28.78787878787879 10.60606060606061 1.515151515151515  10.60606060606061 12.12121212121212 0  10.60606060606061 12.12121212121212 1.515151515151515  9.090909090909092 12.12121212121212 0  9.090909090909092 12.12121212121212 1.515151515151515  12.12121212121212 12.12121212121212 0  12.12121212121212 12.12121212121212 1.515151515151515  13.63636363636364 12.12121212121212 0  13.63636363636364 12.12121212121212 1.515151515151515  15.15151515151515 12.12121212121212 0  15.15151515151515 12.12121212121212 1.515151515151515  16.66666666666667 12.12121212121212 0  16.66666666666667 12.12121212121212 1.515151515151515  18.18181818181818 12.12121212121212 0  18.18181818181818 12.12121212121212 1.515151515151515  19.6969696969697 12.12121212121212 0  19.6969696969697 12.12121212121212 1.515151515151515  21.21212121212121 12.12121212121212 0  21.21212121212121 12.12121212121212 1.515151515151515  22.72727272727273 12.12121212121212 0  22.72727272727273 12.12121212121212 1.515151515151515  24.24242424242424 12.12121212121212 0  24.24242424242424 12.12121212121212 1.515151515151515  25.75757575757576 12.12121212121212 0  25.75757575757576 12.12121212121212 1.515151515151515  27.27272727272727 12.12121212121212 0  27.27272727272727 12.12121212121212 1.515151515151515  28.78787878787879 12.12121212121212 0  28.78787878787879 12.12121212121212 1.515151515151515  30.3030303030303 10.60606060606061 0  30.3030303030303 12.12121212121212 0  30.3030303030303 12.12121212121212 1.515151515151515  31.81818181818182 12.12121212121212 0  31.81818181818182 12.12121212121212 1.515151515151515  10.60606060606061 13.63636363636364 0  10.60606060606061 13.63636363636364 1.515151515151515  9.090909090909092 13.63636363636364 0  9.090909090909092 13.63636363636364 1.515151515151515  12.12121212121212 13.63636363636364 0  12.12121212121212 13.63636363636364 1.515151515151515  13.63636363636364 13.63636363636364 0  13.63636363636364 13.63636363636364 1.515151515151515  15.15151515151515 13.63636363636364 0  15.15151515151515 13.63636363636364 1.515151515151515  16.66666666666667 13.63636363636364 0  16.66666666666667 13.63636363636364 1.515151515151515  18.18181818181818 13.63636363636364 0  18.18181818181818 13.63636363636364 1.515151515151515  19.6969696969697 13.63636363636364 0  19.6969696969697 13.63636363636364 1.515151515151515  21.21212121212121 13.63636363636364 0  21.21212121212121 13.63636363636364 1.515151515151515  22.72727272727273 13.63636363636364 0  22.72727272727273 13.63636363636364 1.515151515151515  24.24242424242424 13.63636363636364 0  24.24242424242424 13.63636363636364 1.515151515151515  25.75757575757576 13.63636363636364 0  25.75757575757576 13.63636363636364 1.515151515151515  27.27272727272727 13.63636363636364 0  27.27272727272727 13.63636363636364 1.515151515151515  28.78787878787879 13.63636363636364 0  28.78787878787879 13.63636363636364 1.515151515151515  30.3030303030303 13.63636363636364 0  30.3030303030303 13.63636363636364 1.515151515151515  31.81818181818182 13.63636363636364 0  31.81818181818182 13.63636363636364 1.515151515151515  33.33333333333334 12.12121212121212 0  33.33333333333334 13.63636363636364 0  33.33333333333334 13.63636363636364 1.515151515151515  34.84848484848485 12.12121212121212 0  34.84848484848485 13.63636363636364 0  34.84848484848485 13.63636363636364 1.515151515151515  36.36363636363637 13.63636363636364 0  36.36363636363637 13.63636363636364 1.515151515151515  10.60606060606061 15.15151515151515 0  10.60606060606061 15.15151515151515 1.515151515151515  9.090909090909092 15.15151515151515 0  9.090909090909092 15.15151515151515 1.515151515151515  12.12121212121212 15.15151515151515 0  12.12121212121212 15.15151515151515 1.515151515151515  13.63636363636364 15.15151515151515 0  13.63636363636364 15.15151515151515 1.515151515151515  15.15151515151515 15.15151515151515 0  15.15151515151515 15.15151515151515 1.515151515151515  16.66666666666667 15.15151515151515 0  16.66666666666667 15.15151515151515 1.515151515151515  18.18181818181818 15.15151515151515 0  18.18181818181818 15.15151515151515 1.515151515151515  19.6969696969697 15.15151515151515 0  19.6969696969697 15.15151515151515 1.515151515151515  21.21212121212121 15.15151515151515 0  21.21212121212121 15.15151515151515 1.515151515151515  22.72727272727273 15.15151515151515 0  22.72727272727273 15.15151515151515 1.515151515151515  24.24242424242424 15.15151515151515 0  24.24242424242424 15.15151515151515 1.515151515151515  
[...]
<PointData  Scalars="c_HbCO2"> 
<DataArray  type="Float64"  Name="c_HbCO2"  format="ascii">9.8977852664600580e-15  3.9343739805593712e-15  2.0323733391578276e-15  -2.9770210851498475e-15  2.0868217478079342e-15  -3.2221939195654366e-14  7.0577116791225876e-15  2.1100873588371313e-16  -1.5525334756642299e-15  5.8534808984536690e-15  4.2844295585253206e-16  -7.6505753021461711e-16  1.3722821476747463e-16  -1.1630334880473626e-15  1.0510385864440376e-15  -1.7590712633461476e-15  1.8725407423026879e-16  1.1395384981130645e-15  -1.1702867727748119e-17  1.2320351358856474e-16  -3.9744238307986463e-17  -1.6053890093553528e-17  5.5134207494377821e-17  8.0375561545666790e-17  1.8601027377857358e-18  -8.4177737112367265e-18  -1.2107953171345824e-16  -2.4045787915679353e-16  -1.8645676822011939e-18  5.3131682544876848e-16  5.9002152575467886e-17  1.1215823725735016e-16  -1.2851582479692607e-17  -2.1390788071998477e-17  5.5148899379148673e-18  -1.8946574115878525e-17  -7.6563933343708888e-19  -3.0253189362271416e-18  -9.7851059463964368e-19  2.4610791002460551e-18  4.9787062308768268e-18  4.1773936721296645e-17  -4.7644455243683468e-17  -4.6945714727329604e-17  3.7428423154592130e-18  -3.9112806148713726e-17  -5.0065923110738389e-18  -1.0521259751682564e-17  -6.0743556160244087e-19  -2.1506221622676844e-18  -3.8149597349034751e-19  1.5177747533225896e-18  1.9801042124345699e-19  -5.5733806464869332e-19  2.4974141218014126e-19  -9.7018965705281115e-20  -1.2195638882361262e-19  1.1738392440603541e-20  1.4136459510089050e-19  -1.6256417993036358e-18  4.1787892479123227e-18  3.0348022128506890e-18  2.3107775472303187e-18  -2.0872664883779367e-18  -7.0192357635336633e-18  7.9317809168010622e-19  3.7898017760273654e-18  3.5830518177461185e-20  -1.7222794118215331e-18  1.0711856148550186e-19  -1.4730838646577050e-19  -5.2722993817040452e-20  3.2367550680184610e-20  -1.0584075939830346e-20  5.0077727678144303e-20  5.7290355064790048e-21  -2.4491039773008941e-21  -8.1258786501248831e-21  6.2495733363634238e-22  3.8294611268898976e-21  -9.3804688361885766e-21  -1.2076195696049561e-21  -3.2965667571881394e-22  1.1784649228380925e-21  1.3098040554684166e-22  -3.4114526888088937e-22  1.6195763348316846e-19  -9.1024531239654203e-19  6.2716162745236689e-19  4.5991320426311981e-19  -4.9158123075807919e-20  6.6173806536274071e-19  8.2129417545200989e-20  -4.4448172992357680e-19  -1.1393037543528292e-19  -2.4778248352449956e-19  -2.3094612438064929e-21  1.6885376481898949e-19  2.4790029059567018e-21  1.3801707001296313e-20  5.0601438396349934e-21  -7.0112307299761298e-22  -4.2162024934295133e-22  7.7523027408186077e-21  -1.8637426156194383e-22  1.1057795243340476e-21  4.8413591307129861e-24  3.8090358485460577e-23  -2.6588540625334738e-23  -1.1124299589714231e-22  1.2686586864063810e-23  2.0167282054447521e-23  2.5430948000507625e-23  2.1017839022678393e-24  -7.6134281577589115e-24  -1.9713444072619137e-22  1.4319776121557325e-19  -3.2148077907675032e-21  -4.9199187892577981e-20  -1.0529582630014489e-19  5.3510885759702406e-20  -6.7493480084990104e-21  -5.2170861146410758e-21  3.4107303001558998e-20  6.6827954637645150e-20  5.9204237239669019e-21  -3.1211088939310979e-20  -1.3902966844958429e-21  -1.2795207350681928e-20  -1.0955554220046794e-21  2.9712457256742979e-21  9.7791714086267418e-23  -1.6808130127673065e-21  3.3421892915519435e-23  -6.9023678942535866e-22  9.6339053065988352e-24  -4.2097059728778659e-23  1.0670886816639943e-24  1.3899847707653398e-23  1.4409958458076983e-24  -3.6454360853180280e-24  1.6705472247612461e-25  2.5344795146740313e-24  -2.7500825538960040e-25  1.1142598898612217e-26  6.8479602498432196e-25  5.9235523704060556e-27  2.4678411863711813e-26  4.0640290394601061e-20  -6.2475253133266479e-20  -2.3818169559586131e-19  -8.3551142935357504e-20  2.9213975578784843e-21  1.0565670533863026e-19  1.9628454319642407e-19  -3.6056785660843553e-21  3.3234216856339502e-20  -1.5538705488422619e-19  -2.1750816846020697e-20  -2.2296186028837381e-21  1.0095259591757406e-22  7.8462831409772330e-21  6.1770675155739040e-22  4.1002737212936531e-22  -1.3982233606561457e-22  1.6525248822336601e-22  9.6186729683136845e-24  3.0953582840345523e-22  -4.4324680001735852e-24  1.7957047575439810e-23  -6.3995435863204528e-26  3.5651580064119503e-24  -7.3517041241248675e-25  -1.6682652618253842e-24  1.8294855518549248e-25  -5.6877405864488881e-27  -2.5846770169034819e-26  -2.4939307808989678e-25  -1.1385945793593773e-29  -1.4524398269085022e-26  -7.8585190978714203e-27  -5.0514019593183816e-28  4.9173366585591702e-27  9.5001118760921695e-28  5.7682053282455699e-29  -2.0356728169730150e-27  -5.2158325725386095e-29  -3.3636464511274652e-30  1.9602825787134832e-19  -1.1394539550112942e-19  -1.6819715739288060e-19  -2.9455366872325274e-19  7.0304276911131865e-19  -3.6222919991780246e-19  7.9172290409650037e-19  -1.3028177436831373e-18  2.0018035843380914e-19  -9.0876022064304840e-19  -7.7730503289259524e-20  7.3047005883375237e-20  1.2950003511830437e-20  1.5340106606827271e-20  -1.2763980125524677e-21  -5.0464119019028186e-21  -3.6797384542365430e-22  5.0167233021979521e-22  3.6484722325676218e-23  -5.6305992943319906e-23  -8.6770070634898987e-24  -2.7598721855031793e-23  5.8803819891568751e-24  1.8111929518029120e-24  -1.1039336184641653e-24  -8.6754037887597005e-25  2.2654493986529113e-25  2.4725569507410461e-25  -4.0361358737396705e-26  4.4598503067345734e-26  6.6404572025995582e-27  1.0406584139885427e-26  -6.7733777953430509e-28  1.7357299186445427e-28  -4.6285016357118063e-29  5.4487375761799139e-28  2.4064279895696428e-29  -1.4419802583344968e-30  -2.6819993891789457e-29  -1.1491907935804348e-29  7.3852864481412361e-29  6.4914458746423810e-30  -2.2208597646788721e-29  2.7106706528423145e-18  -4.0135940989448352e-19  1.1753879678613591e-18  -1.5749915679149954e-18  1.1357869698596903e-18  -3.2091048666644422e-18  1.4239771222564000e-19  -1.1901858273589839e-18  -9.1097441091459489e-20  2.3963296104145938e-19  3.4323345871862120e-20  -1.9373288262747546e-21  -5.5204677267736400e-21  -1.3197158155954497e-20  2.6806976079374948e-22  4.0522943996517075e-21  6.5414300051420070e-23  -7.5978629888737376e-22  -3.3567621409258211e-23  1.3227311395885261e-22  1.3219056914107625e-23  -1.1283455560240109e-23  -2.9641323304822803e-24  1.0264241145139559e-24  5.8579644015334660e-25  1.3696894794107673e-26  -1.1432663804672633e-25  -8.3027774783473549e-26  1.8874171663957115e-26  2.1595860398939622e-26  -2.0709413160727272e-27  -5.2296639218859271e-27  1.2335172957378374e-28  9.9746018397621282e-28  -8.1006617692297377e-30  -1.6282859942253674e-28  -2.2958226122883361e-29  2.0477736661394056e-29  2.2075281297340418e-30  -2.2310475426018026e-30  -1.4715197710350856e-30  1.8763958973458808e-30  -1.4546510745718720e-30  5.9558506750928341e-30  -2.2027161974971905e-31  7.4442736068685275e-32  1.2756525431092495e-18  -1.9831116580997887e-18  1.6435215572927089e-18  -2.5059825921670523e-19  5.7942682856910028e-19  -3.4746969092121297e-18  -2.8832825205128807e-19  -8.8777231472403823e-19  -9.2028410083384884e-20  4.0805451328635309e-19  1.1089850968249317e-20  -5.3486250201738366e-20  -8.3921173817465001e-21  -7.3400814357698971e-21  1.4084410688859280e-21  6.4401391802367189e-21  -9.4078334313653736e-23  -1.9115041446817140e-21  -4.0893250761137362e-23  4.5770353193615797e-22  1.5603160155306942e-23  -7.9070315631381278e-23  -4.6674874705529349e-24  9.9141631758314676e-24  1.0111996853452847e-24  -6.4866689759363602e-25  -1.9526158213332230e-25  -1.3001345487741610e-25  4.1182506762146342e-26  5.7365150460098886e-26  -6.8583284101642421e-27  -1.9708001547483000e-26  8.8282323144048030e-28  3.5224898499221492e-27  -1.0697782548991734e-28  -7.1742500204342480e-28  -2.5791744630419465e-29  1.6907804314864395e-28  5.4588375165412730e-32  4.0043751397839802e-31  6.7101204291332805e-30  -1.0170930275743868e-29  -1.2102105298109910e-30  7.3217177037176423e-31  5.5630761743592564e-32  1.1616280223304208e-31  -4.5483269863343594e-32  -6.1920468768602629e-33  2.7739427628780498e-32  8.0641223592452126e-19  -1.8212549487474255e-18  -4.9104433470756889e-20  -1.5956073916241493e-18  -2.8659671888154650e-19  2.2323014747840918e-19  -1.1026437849429342e-20  2.3471119583026034e-19  7.1757000904841273e-21  -6.7614262257992793e-20  -2.3222379981360741e-21  3.8651128098392704e-21  1.6774377123350284e-21  2.7525864794986527e-21  -2.6713915134574782e-22  -1.5724199048522339e-21  5.9213706098937251e-24  4.9428334649570353e-22  6.3078698857974367e-25  -1.2969338141686968e-22  -2.9662908492133212e-24  2.3418192989675305e-23  9.3994806526289144e-25  -2.8933276635128112e-24  -2.1482144881852260e-25  2.6588955802517331e-26  5.3210090156384226e-26  8.2663398254910024e-26  -1.1478406257186878e-26  -2.7701656875444139e-26  1.8130611931229235e-27  9.6279204165848594e-27  -3.7934233882046681e-28  -1.3127815018063170e-27  -1.3343318561733337e-29  3.8159739912883397e-28  -3.1101454787788009e-30  -1.1864422537298674e-29  1.1898096427864595e-29  -2.4665948506256573e-29  -3.1948255587299673e-30  4.0715812036119832e-30  4.5367046245921490e-31  -5.5572493601073265e-31  -5.5312886874106810e-32  3.4999429048987097e-32  -2.4047027135548161e-33  -5.3014083289054876e-33  2.4293175057383119e-32  -5.7008551410069049e-33  -5.6465703059710534e-33  -1.5027706560043180e-19  1.7708521824106391e-20  2.6432349123349799e-20  1.1361391979487946e-19  4.8565266748798239e-21  2.1923541505951952e-19  1.5752770525880033e-20  -7.1296750124199686e-21  -4.0131661139233381e-22  -2.9820640695985818e-20  -8.2985877322816217e-22  7.2063504464734413e-21  3.0609893301532591e-22  -1.1960339976632881e-21  -1.7475012305514773e-22  -1.0483189319559887e-22  3.2199119265124060e-23  1.1567248987694984e-22  -1.3628960246174491e-23  -7.3158640399615436e-23  1.4724601406240178e-24  1.9599079532906932e-23  9.8864228086418623e-27  -3.9772218251958741e-24  -6.3814600787799526e-26  4.3764139436921856e-25  3.3236281947014898e-26  -1.3490930572825958e-27  -9.2289321883603543e-27  -1.9172509247418878e-26  2.3123284367344680e-27  7.0085192964874941e-27  -5.3801597841523799e-28  -2.5391815788747012e-27  4.1255201600385452e-29  5.3241057523952544e-28  -2.7723612020979364e-30  -3.9408006271625705e-29  1.1219010238505660e-29  -3.9473502886332777e-29  -5.0433620149058260e-30  9.7447133837021495e-30  9.7565398183974095e-31  -2.0530946784000475e-30  -1.4717092979313709e-31  3.3196744546682212e-31  1.1529705398011431e-32  -1.2674883237240923e-32  1.6307821079577022e-33  -6.3254901359563149e-33  2.4040404197419976e-34  -3.7244224647295819e-33  1.6252137071292326e-33  2.9291789794363393e-34  -2.8102466089645246e-20  7.5436475002902654e-20  1.0362276982161694e-21  3.4256873902482143e-20  1.3180240889612312e-21  1.8914999875835375e-22  -8.1569115076221748e-22  4.0809832578322445e-21  1.7657749890612896e-22  1.7210287443948122e-21  -6.0010721411922845e-23  -9.4363696834673563e-22  -5.0274446872097974e-24  3.0882362287821854e-22  7.6385190782454577e-24  -1.2079302403856624e-22  -7.4867903068900177e-24  8.4784004807694586e-24  2.4135391115580626e-24  2.3760718864493698e-24  -5.8911824778858059e-25  -1.6391583536157734e-24  1.1289610110212027e-25  4.2811980602153958e-25  -1.1056059941329782e-26  -8.6479416210405396e-26  -3.9248859992122751e-28  1.2213666333732878e-26  7.6688059564937788e-28  1.5422265082297354e-28  -3.7055852868319961e-28  -3.4980775616958022e-28  9.1235365425169374e-29  4.7530869778032779e-28  -6.9263462869399066e-30  -5.3039994590992558e-29  2.9626345868446928e-30  -2.9287447455047777e-29  -4.1204913605297632e-30  1.2696127793145082e-29  1.1696346419559052e-30  -3.8335976772244245e-30  -2.3548240419234292e-31  7.5278697534260628e-31  2.4360069786454611e-32  -8.8494259816244018e-32  2.1032084718058767e-34  4.9993166403490683e-33  -7.0508367978724430e-33  1.3499076226354618e-33  1.8702690776037143e-21  2.2472447837319488e-21  -1.2279792688254827e-21  -8.3285302529137425e-22  -1.7949788532664907e-21  1.8598384757216104e-22  2.6025155597214028e-22  2.2575640421612723e-22  -8.1440134471528111e-22  -4.5563527943968247e-23  1.0791195002724192e-22  2.3390485451043156e-23  6.3682410537196990e-23  -6.0246807022908610e-24  -5.7885725306123471e-23  2.0799027113041797e-24  2.1827503439224907e-23  2.8737429954361606e-25  -5.1208363989427395e-24  -2.5319014854136227e-25  7.0777708985533561e-25  9.7319024238384781e-26  2.2417282275761209e-26  -2.7458148096504674e-26  -5.3505842830507014e-26  5.9905381306767405e-27  2.1017810234908199e-26  -9.4894998219631554e-28  -5.5099247810112130e-27  1.3253241237546394e-28  1.0663675084781194e-27  3.4150698160374524e-29  -1.7307229193069922e-28  -7.4426242412351940e-30  -1.7750382742930029e-29  -4.1135833795789142e-30  -1.9610943102503539e-30  -7.2055625896380724e-31  6.8336879356082676e-30  5.5561805797974909e-31  -3.3624157428363495e-30  -1.6138416999721456e-31  8.5975081668802668e-31  2.1201096825662152e-32  -1.3969088642616360e-31  3.4406295727713201e-35  1.5258347778303323e-32  -7.1724561731762243e-33  -7.5225936229517635e-34  -5.0872165359831606e-23  -5.1093961748917819e-22  -3.6183487169684687e-23  8.2502589874637295e-22  1.2192324554641518e-22  -1.4841915695429611e-22  -1.2704778820446026e-23  -1.4431008711027719e-22  4.4126801085791672e-24  1.2421110328269106e-22  1.6261960853982441e-24  -3.6117263106733574e-23  -1.5819811786471165e-24  4.7432044575754906e-24  1.8250950456263355e-24  3.3890792009259631e-24  -4.9687964877084053e-25  -1.7807928541801098e-24  9.2145329827167910e-26  6.4417390659614976e-25  -1.2625792219198729e-27  -1.3640433211445981e-25  -8.3685066720854617e-27  1.4475419474412344e-26  3.6695932365827854e-27  3.4774784583536653e-27  -1.0920330313550159e-27  -2.7976502182125065e-27  2.9469371101928155e-28  9.1304857089814454e-28  -3.2610994625783535e-29  -3.3055105471925261e-28  3.9027789250766850e-31  3.3911196263978970e-29  -4.3270322021684936e-30  1.4718483390683467e-29  1.7492916675025271e-30  -3.3873002354402651e-30  -3.6743636320172587e-31  -6.6768380139988846e-32  6.1510022483281968e-32  1.6322993446510590e-31  -1.3633513594311623e-32  -4.0682059970244850e-32  5.3231733119611363e-33  4.7736074318497937e-33  -2.1599494326622666e-33  -2.1964855951704798e-33  2.5210154458062905e-23  3.3528679589606828e-22  -9.4589674993127978e-23  2.4888246494312119e-22  -1.8107425554371490e-23  -1.2983447827469664e-22  -7.1191276489667746e-24  3.3901199124060815e-23  6.2901480768442316e-24  -2.6467974363746460e-25  -3.4073332303545330e-24  -9.2002210189330619e-24  8.0736959471340865e-26  7.2642148837416192e-24  -6.2861604365040327e-26  -1.8295242806692809e-24  -9.8841582497361936e-26  3.7652036450608421e-25  5.7216328889366365e-26  4.8271029839574337e-27  -2.1137685813215368e-26  -3.1562553771512314e-26  4.7887062048246947e-27  1.7442434240544817e-26  -6.0320068148107361e-28  -5.8638092848295499e-27  -1.2041248190170514e-28  1.2103054809442136e-27  9.0011450056193043e-29  -1.1806002532713051e-28  -4.0736129034946531e-29  -5.5986117981693352e-29  7.9159371029241335e-30  2.4432199145807103e-29  -1.8875251077084993e-30  7.3616914089290489e-30  1.2790391493665894e-30  -5.6077270951743467e-30  -5.3015761543665067e-31  2.2719075210140795e-30  1.5840356748588921e-31  -6.1916427139665983e-31  -3.5499773435663296e-32  1.3386706739507792e-31  9.0603660054760188e-33  -2.7946996325987257e-32  2.8126270539225619e-33  4.2149770456613459e-33  1.2319034216539863e-23  2.6035265391841171e-23  3.7222032999917282e-24  -9.1058351236610207e-24  -1.1166835214577713e-25  3.5279399582074844e-24  2.9598395282496711e-24  -3.6973051924170108e-25  -3.8182514165277386e-25  -1.2694441638918998e-23  -6.6879889433142369e-25  2.5042376488858241e-24  2.0991168298284324e-25  6.7469222214387946e-26  -1.8634994484000400e-25  -7.3856429985189641e-25  4.2718867838389254e-26  2.5577539688999109e-25  -6.1836516902767114e-27  -7.7612769386589215e-26  -2.2915175638810670e-27  1.7511024379301023e-26  2.2454553008446181e-27  -7.1879501148998764e-28  -9.6426716830239215e-28  -1.5903927449209375e-27  2.7855197518256358e-28  9.6036691879424930e-28  -7.2736066294384310e-29  -3.1702578815041868e-28  3.2443599295700439e-31  1.1101299370220173e-28  2.6829369923891410e-30  -1.0611460919723297e-29  1.2381931269174078e-32  3.0661313487824617e-31  -3.1503116113725379e-32  -1.0865499980668605e-30  -5.0011125341641369e-32  1.0707852695112684e-30  2.8859224719667643e-32  -4.0376606490439221e-31  -6.1449806860658200e-33  1.0699795298260584e-31  4.5361745967979219e-34  -2.4359430848532246e-32  3.4439006465361101e-33  7.1385378110664689e-33  4.1064612220175388e-24  -4.1462092603193032e-24  3.1342717940504467e-25  -1.4560228456629525e-24  -4.6841627652352748e-25  -2.9797028347984595e-24  -3.9181463030536448e-25  1.0216722106837517e-24  3.3132774328730232e-25  9.1085893163381364e-25  6.2677823208457280e-26  -6.7295742965870400e-25  -3.5501120013348957e-26  1.2118864363875138e-25  1.5393185906260421e-26  2.9961704935262241e-26  -5.6182912142194220e-27  -1.8508412594221787e-26  1.7687299247381848e-27  6.1837585959620104e-27  -3.0353750781221813e-28  -2.3116812725848994e-27  -4.0207317959351189e-29  8.0114541277851749e-28  7.3271593575694775e-29  -1.5094102005262276e-28  -3.5863828986706573e-29  -6.5648618972718681e-30  1.3095944020773113e-29  2.9118327187328276e-29  -2.5488377972082198e-30  -8.3016415311264487e-30  7.3384168700725920e-31  -2.1563278628571105e-30  -4.6120293967427912e-31  1.8816613624979756e-30  2.0653536749586144e-31  -6.8383283307677234e-31  -7.2255528612425590e-32  2.1436940223019405e-31  2.2065311211520035e-32  -5.9349638267706255e-32  -7.9209752339696847e-33  1.6491174832899682e-32  6.3810395712940401e-34  -2.9371714469638366e-33  -1.9176615719623465e-25  -1.2299760343445780e-24  -7.4785586602343825e-25  -1.9555753478337875e-24  8.1618575616269850e-26  1.3297014685725598e-25  9.1847298145621181e-26  8.2570785709121375e-26  -1.5533529803472763e-27  -1.3911267073928188e-25  -3.3973664615516536e-26  5.2034494271718619e-26  1.5585667146765438e-26  7.0918599308803499e-26  -4.5008732357045934e-28  -3.2385247724206971e-26  -8.8756575128623651e-28  4.0086321700218642e-27  4.5341887245334300e-28  6.2854920190016568e-29  -2.0293127994566789e-28  -3.2653094184990114e-28  9.4556857162166610e-29  2.4112418434374203e-28  -3.1567285668948469e-29  -1.4041972839244112e-28  9.7233946097623393e-30  5.1336870560129800e-29  1.3744176673015865e-30  -2.2799215252402572e-29  -1.1063209266433598e-30  2.4635794499979995e-30  2.9117769862746219e-31  -1.1587961136115995e-30  -1.3352174463848360e-31  9.2084761951705929e-31  7.3510404028044080e-32  -6.0993894376151981e-31  -3.3443315319388926e-32  2.5329445579617433e-31  1.1078991905482035e-32  -8.0710052004972565e-32  -3.4806067579295596e-33  2.2946388631442726e-32  -1.7363230936672024e-33  -7.1539920633748802e-33  4.9707757985417489e-26  -2.7088141199237913e-25  -1.0118542366095260e-27  -4.8517436292996534e-26  -1.4247036556333024e-26  -8.6643498734402883e-26  -1.6474015216524971e-26  -2.6341730142847545e-26  3.4516309081975769e-27  4.6389147458910216e-26  3.1775270044068418e-27  -2.0189643324346482e-26  -2.2080266531277069e-27  -4.3570259739130777e-28  6.4566046347350377e-28  3.5015653689609454e-27  -4.9234510889127813e-29  -1.1068823423262892e-27  -2.8277474616608452e-29  1.5870819932562651e-28  1.6431590858094742e-29  -2.3497625245441083e-29  -1.0117552395744766e-29  4.4509487717294334e-30  4.7305876283236645e-30  2.3473034327088174e-30  -2.2020230882625926e-30  -4.2204674740935292e-30  5.1944754972626590e-31  1.4109830808127499e-30  -1.3978507896219062e-31  3.4845385983035942e-31  9.4663336725218714e-32  -4.2970551181807632e-31  -5.2449161821042440e-32  1.4477865955764621e-31  2.1169373998071169e-32  -3.9991025450172107e-32  -7.3946235338436432e-33  1.0056166580215872e-32  3.3900971910961451e-33  -3.8363079449899422e-33  -1.3198865950190157e-33  4.5314087851350906e-34  4.6765879563047717e-27  -2.1979873753394199e-26  -4.1760787702