<?xml version="1.0"?>
<VTKFile type="UnstructuredGrid"  version="0.1"  >
<UnstructuredGrid>
<Piece  NumberOfPoints="10475" NumberOfCells="54123">
<Points>
<DataArray  type="Float64"  NumberOfComponents="3"  format="ascii">0 10.60606060606061 0  0 12.12121212121212 0  1.515151515151515 12.12121212121212 0  1.515151515151515 12.12121212121212 1.515151515151515  0 12.12121212121212 1.515151515151515  1.515151515151515 13.63636363636364 0  1.515151515151515 13.63636363636364 1.515151515151515  0 13.63636363636364 0  0 13.63636363636364 1.515151515151515  3.03030303030303 12.12121212121212 0  3.03030303030303 13.63636363636364 0  3.03030303030303 13.63636363636364 1.515151515151515  4.545454545454546 13.63636363636364 0  4.545454545454546 13.63636363636364 1.515151515151515  1.515151515151515 15.15151515151515 0  1.515151515151515 15.15151515151515 1.515151515151515  0 15.15151515151515 0  0 15.15151515151515 1.515151515151515  3.03030303030303 15.15151515151515 0  3.03030303030303 15.15151515151515 1.515151515151515  4.545454545454546 15.15151515151515 0  4.545454545454546 15.15151515151515 1.515151515151515  6.060606060606061 13.63636363636364 0  6.060606060606061 15.15151515151515 0  6.060606060606061 15.15151515151515 1.515151515151515  6.060606060606061 13.63636363636364 1.515151515151515  7.575757575757576 15.15151515151515 0  7.575757575757576 15.15151515151515 1.515151515151515  1.515151515151515 16.66666666666667 0  1.515151515151515 16.66666666666667 1.515151515151515  0 16.66666666666667 0  0 16.66666666666667 1.515151515151515  3.03030303030303 16.66666666666667 0  3.03030303030303 16.66666666666667 1.515151515151515  4.545454545454546 16.66666666666667 0  4.545454545454546 16.66666666666667 1.515151515151515  6.060606060606061 16.66666666666667 0  6.060606060606061 16.66666666666667 1.515151515151515  7.575757575757576 16.66666666666667 0  7.575757575757576 16.66666666666667 1.515151515151515  9.090909090909092 15.15151515151515 0  9.090909090909092 16.66666666666667 0  9.090909090909092 16.66666666666667 1.515151515151515  9.090909090909092 15.15151515151515 1.515151515151515  10.60606060606061 16.66666666666667 0  10.60606060606061 16.66666666666667 1.515151515151515  1.515151515151515 18.18181818181818 0  1.515151515151515 18.18181818181818 1.515151515151515  0 18.18181818181818 0  0 18.18181818181818 1.515151515151515  3.03030303030303 18.18181818181818 0  3.03030303030303 18.18181818181818 1.515151515151515  4.545454545454546 18.18181818181818 0  4.545454545454546 18.18181818181818 1.515151515151515  6.060606060606061 18.18181818181818 0  6.060606060606061 18.18181818181818 1.515151515151515  7.575757575757576 18.18181818181818 0  7.575757575757576 18.18181818181818 1.515151515151515  9.090909090909092 18.18181818181818 0  9.090909090909092 18.18181818181818 1.515151515151515  10.60606060606061 18.18181818181818 0  10.60606060606061 18.18181818181818 1.515151515151515  1.515151515151515 19.6969696969697 0  1.515151515151515 19.6969696969697 1.515151515151515  0 19.6969696969697 0  0 19.6969696969697 1.515151515151515  3.03030303030303 19.6969696969697 0  3.03030303030303 19.6969696969697 1.515151515151515  4.545454545454546 19.6969696969697 0  4.545454545454546 19.6969696969697 1.515151515151515  6.060606060606061 19.6969696969697 0  6.060606060606061 19.6969696969697 1.515151515151515  7.575757575757576 19.6969696969697 0  7.575757575757576 19.6969696969697 1.515151515151515  9.090909090909092 19.6969696969697 0  9.090909090909092 19.6969696969697 1.515151515151515  10.60606060606061 19.6969696969697 0  10.60606060606061 19.6969696969697 1.515151515151515  12.12121212121212 19.6969696969697 0  12.12121212121212 19.6969696969697 1.515151515151515  1.515151515151515 21.21212121212121 0  1.515151515151515 21.21212121212121 1.515151515151515  0 21.21212121212121 0  0 21.21212121212121 1.515151515151515  3.03030303030303 21.21212121212121 0  3.03030303030303 21.21212121212121 1.515151515151515  4.545454545454546 21.21212121212121 0  4.545454545454546 21.21212121212121 1.515151515151515  6.060606060606061 21.21212121212121 0  6.060606060606061 21.21212121212121 1.515151515151515  7.575757575757576 21.21212121212121 0  7.575757575757576 21.21212121212121 1.515151515151515  9.090909090909092 21.21212121212121 0  9.090909090909092 21.21212121212121 1.515151515151515  10.60606060606061 21.21212121212121 0  10.60606060606061 21.21212121212121 1.515151515151515  12.12121212121212 21.21212121212121 0  12.12121212121212 21.21212121212121 1.515151515151515  1.515151515151515 22.72727272727273 0  1.515151515151515 22.72727272727273 1.515151515151515  0 22.72727272727273 0  0 22.72727272727273 1.515151515151515  3.03030303030303 22.72727272727273 0  3.03030303030303 22.72727272727273 1.515151515151515  4.545454545454546 22.72727272727273 0  4.545454545454546 22.72727272727273 1.515151515151515  6.060606060606061 22.72727272727273 0  6.060606060606061 22.72727272727273 1.515151515151515  7.575757575757576 22.72727272727273 0  7.575757575757576 22.72727272727273 1.515151515151515  9.090909090909092 22.72727272727273 0  9.090909090909092 22.72727272727273 1.515151515151515  10.60606060606061 22.72727272727273 0  10.60606060606061 22.72727272727273 1.515151515151515  12.12121212121212 22.72727272727273 0  12.12121212121212 22.72727272727273 1.515151515151515  13.63636363636364 22.72727272727273 0  13.63636363636364 22.72727272727273 1.515151515151515  1.515151515151515 24.24242424242424 0  1.515151515151515 24.24242424242424 1.515151515151515  0 24.24242424242424 0  0 24.24242424242424 1.515151515151515  3.03030303030303 24.24242424242424 0  3.03030303030303 24.24242424242424 1.515151515151515  4.545454545454546 24.24242424242424 0  4.545454545454546 24.24242424242424 1.515151515151515  6.060606060606061 24.24242424242424 0  6.060606060606061 24.24242424242424 1.515151515151515  7.575757575757576 24.24242424242424 0  7.575757575757576 24.24242424242424 1.515151515151515  9.090909090909092 24.24242424242424 0  9.090909090909092 24.24242424242424 1.515151515151515  10.60606060606061 24.24242424242424 0  10.60606060606061 24.24242424242424 1.515151515151515  12.12121212121212 24.24242424242424 0  12.12121212121212 24.24242424242424 1.515151515151515  13.63636363636364 24.24242424242424 0  13.63636363636364 24.24242424242424 1.515151515151515  15.15151515151515 24.24242424242424 1.515151515151515  1.515151515151515 25.75757575757576 0  1.515151515151515 25.75757575757576 1.515151515151515  0 25.75757575757576 0  0 25.75757575757576 1.515151515151515  3.03030303030303 25.75757575757576 0  3.03030303030303 25.75757575757576 1.515151515151515  4.545454545454546 25.75757575757576 0  4.545454545454546 25.75757575757576 1.515151515151515  6.060606060606061 25.75757575757576 0  6.060606060606061 25.75757575757576 1.515151515151515  7.575757575757576 25.75757575757576 0  7.575757575757576 25.75757575757576 1.515151515151515  9.090909090909092 25.75757575757576 0  9.090909090909092 25.75757575757576 1.515151515151515  10.60606060606061 25.75757575757576 0  10.60606060606061 25.75757575757576 1.515151515151515  12.12121212121212 25.75757575757576 0  12.12121212121212 25.75757575757576 1.515151515151515  13.63636363636364 25.75757575757576 0  13.63636363636364 25.75757575757576 1.515151515151515  15.15151515151515 25.75757575757576 1.515151515151515  15.15151515151515 25.75757575757576 0  1.515151515151515 27.27272727272727 0  1.515151515151515 27.27272727272727 1.515151515151515  0 27.27272727272727 0  0 27.27272727272727 1.515151515151515  3.03030303030303 27.27272727272727 0  3.03030303030303 27.27272727272727 1.515151515151515  4.545454545454546 27.27272727272727 0  4.545454545454546 27.27272727272727 1.515151515151515  6.060606060606061 27.27272727272727 0  6.060606060606061 27.27272727272727 1.515151515151515  7.575757575757576 27.27272727272727 0  7.575757575757576 27.27272727272727 1.515151515151515  9.090909090909092 27.27272727272727 0  9.090909090909092 27.27272727272727 1.515151515151515  10.60606060606061 27.27272727272727 0  10.60606060606061 27.27272727272727 1.515151515151515  12.12121212121212 27.27272727272727 0  12.12121212121212 27.27272727272727 1.515151515151515  13.63636363636364 27.27272727272727 0  13.63636363636364 27.27272727272727 1.515151515151515  15.15151515151515 27.27272727272727 0  15.15151515151515 27.27272727272727 1.515151515151515  1.515151515151515 28.78787878787879 0  1.515151515151515 28.78787878787879 1.515151515151515  0 28.78787878787879 0  0 28.78787878787879 1.515151515151515  3.03030303030303 28.78787878787879 0  3.03030303030303 28.78787878787879 1.515151515151515  4.545454545454546 28.78787878787879 0  4.545454545454546 28.78787878787879 1.515151515151515  6.060606060606061 28.78787878787879 0  6.060606060606061 28.78787878787879 1.515151515151515  7.575757575757576 28.78787878787879 0  7.575757575757576 28.78787878787879 1.515151515151515  9.090909090909092 28.78787878787879 0  9.090909090909092 28.78787878787879 1.515151515151515  10.60606060606061 28.78787878787879 0  10.60606060606061 28.78787878787879 1.515151515151515  12.12121212121212 28.78787878787879 0  12.12121212121212 28.78787878787879 1.515151515151515  13.63636363636364 28.78787878787879 0  13.63636363636364 28.78787878787879 1.515151515151515  15.15151515151515 28.78787878787879 0  15.15151515151515 28.78787878787879 1.515151515151515  1.515151515151515 30.3030303030303 0  1.515151515151515 30.3030303030303 1.515151515151515  0 30.3030303030303 0  0 30.3030303030303 1.515151515151515  3.03030303030303 30.3030303030303 0  3.03030303030303 30.3030303030303 1.515151515151515  4.545454545454546 30.3030303030303 0  4.545454545454546 30.3030303030303 1.515151515151515  6.060606060606061 30.3030303030303 0  6.060606060606061 30.3030303030303 1.515151515151515  7.575757575757576 30.3030303030303 0  7.575757575757576 30.3030303030303 1.515151515151515  9.090909090909092 30.3030303030303 0  9.090909090909092 30.3030303030303 1
[...]
<PointData  Scalars="c_HbO2"> 
<DataArray  type="Float64"  Name="c_HbO2"  format="ascii">2.0000000000000011e-17  2.0000000000000011e-17  -4.7562933332439928e-18  -1.7288313075711128e-17  2.0000000000000011e-17  -3.0177190351405244e-18  1.6291572548570553e-17  2.0000000000000011e-17  2.0000000000000011e-17  4.2860220176646922e-17  -4.3271865239644968e-17  2.0162621830187628e-17  -1.0734214523540139e-16  3.9794442964363591e-17  -7.1438706704640289e-19  4.9760670789052882e-18  2.0000000000000011e-17  2.0000000000000011e-17  5.5568724074198808e-18  2.4801380039034019e-17  -4.5690270853651404e-17  -5.8468595272050383e-18  1.9092097145987857e-17  4.7499496971256201e-16  -4.3851766675347985e-17  3.1263234804876501e-16  -1.3374572888433971e-15  1.3152265929841775e-15  6.0430380996963688e-19  5.7865101045043158e-18  2.0000000000000011e-17  2.0000000000000011e-17  4.5943266657473068e-19  3.7313495729935461e-18  -2.2019965000463910e-17  -6.2416704362070028e-18  7.1571099276613326e-17  1.6719984345773292e-16  9.1000805278116139e-16  -7.7049562615998209e-16  -5.2561611689704509e-15  1.1611603707473104e-14  8.7662574249719785e-16  -9.2048021476755752e-15  8.4708457903424757e-14  -1.2542481558421249e-14  6.4630723570358889e-19  5.2981481764106246e-18  2.0000000000000011e-17  2.0000000000000011e-17  1.6933292060070841e-18  2.7719065360628454e-18  3.2574467709626173e-18  -7.8448981566002234e-18  4.8392992473456463e-17  3.6733497577479558e-17  8.2982909545035278e-16  -6.8586374379200771e-16  2.7553259290931216e-15  2.9968278783075386e-16  5.1360048665876101e-14  -7.8311956015283572e-15  8.2053031642978573e-19  5.6176902608097721e-18  2.0000000000000011e-17  2.0000000000000011e-17  8.7987776039220472e-20  8.9768058275268814e-19  -6.6333539372193989e-19  9.0365094618414815e-19  -2.2677868702074556e-17  -8.4460158974400021e-18  2.0831649103848077e-16  2.3432912011549837e-16  2.4653078363435491e-16  8.9651083299796144e-16  -4.9003328039020752e-15  -1.2910289674071901e-15  2.5200382373137734e-14  -5.6914217148240203e-14  8.4283073077001424e-19  5.6394783739307995e-18  2.0000000000000011e-17  2.0000000000000011e-17  7.4868384627967136e-20  7.8175867398572743e-19  -1.3069824326549885e-19  -3.1601779564799239e-19  6.2433140636974403e-18  -4.6886243040191394e-19  4.4793452243505652e-17  -9.0777801952975487e-18  -2.9186503152687810e-17  -2.3494920944280080e-17  4.3299118727109889e-17  1.3841521350392439e-16  8.2601091042693075e-16  3.5504349937572237e-15  8.3354327789147048e-19  5.6427605500158126e-18  2.0000000000000011e-17  2.0000000000000011e-17  1.0525558722219832e-19  7.4395409553505662e-19  6.1652881670944075e-20  5.2653895462103079e-20  3.4062062012763108e-19  -6.0787765175372634e-20  -3.2035022271585013e-18  2.6113424624958363e-18  -2.6628553733019519e-17  8.9339933163718270e-18  5.9757093077590670e-17  -3.2116960492946518e-17  -3.8293186902694017e-16  -1.7739550602698774e-16  -8.7820206516154656e-16  2.3573898438602670e-15  8.3294566959123067e-19  5.6426395362257850e-18  2.0000000000000011e-17  2.0000000000000011e-17  1.0876515193480669e-19  7.3490683650176094e-19  2.9103068231544470e-20  6.3590735350160529e-20  -3.8635198626598983e-21  -1.2610913959661201e-20  -3.9879526979750866e-19  -2.7286859447120788e-19  1.0739604376685678e-18  -3.1473104997786734e-18  5.4942353270470656e-19  -1.1019879966241362e-17  -1.6825504339440643e-17  3.0390796899195335e-17  -3.8374352183986365e-17  -1.9032013755756496e-16  7.0226399531233524e-17  8.3298700018413422e-19  5.6425501402650180e-18  2.0000000000000011e-17  2.0000000000000011e-17  1.0816378740505259e-19  7.3458131007466929e-19  2.3208000919745642e-20  6.2592206049271058e-20  -3.3143131553723957e-21  1.2770951651879841e-20  -1.3744836130790884e-20  4.8371028956905395e-20  2.0324921103851367e-19  2.6333182074411622e-19  -8.3265647251228472e-19  2.0479532679977236e-18  1.0769830111402684e-18  -2.7695848764311167e-18  8.0225478627893721e-18  3.0640528363595874e-18  -1.5966863017745955e-17  -1.5897552099218702e-18  8.3298149183066335e-19  5.6425251552242473e-18  2.0000000000000011e-17  2.0000000000000011e-17  1.0809807060445157e-19  7.3430877126938394e-19  2.3620026951402941e-20  6.0834506685430042e-20  2.8367101147516057e-21  5.9437027166096576e-21  9.2166942689669505e-21  -1.5940237327297165e-21  -9.3409098816687844e-21  -1.4139035317740884e-20  1.8345875600903518e-22  -1.3799955828097123e-19  3.0048202346528521e-19  -4.6537469516259778e-19  4.5622267144458538e-19  -4.2089360150844949e-20  -2.9559273372471595e-18  7.7775770182537651e-18  8.3297816528887923e-19  5.6425143899898759e-18  2.0000000000000011e-17  2.0000000000000011e-17  1.0808257247137567e-19  7.3428545288138076e-19  2.3520360619622228e-20  6.0749062656109220e-20  3.2013540350004815e-21  6.4801115354635813e-21  7.9840537409951816e-22  2.5021215783244763e-21  -2.1478652847189409e-21  7.6773377993313267e-21  6.9942554821746753e-21  1.9958714149311958e-20  1.3392080993326089e-20  3.5338858944423626e-20  6.5105950580756219e-20  1.8780296238482392e-19  1.1631885212268250e-19  -2.8455734040179856e-19  8.3297842167730351e-19  5.6425156885638804e-18  2.0000000000000011e-17  2.0000000000000011e-17  1.0808523176657945e-19  7.3427901839575585e-19  2.3539926777999738e-20  6.0684339575353631e-20  3.1707648230504052e-21  6.1182928798098386e-21  3.1421899734900141e-22  7.7108686724305331e-22  3.6291599194657632e-22  -5.1133725670956285e-22  4.0212049500367927e-22  -3.2688383144763257e-21  2.1027451748845099e-21  -5.5099438521565141e-21  -5.1929095162028136e-21  -2.5601448981249686e-20  -2.4016278486461804e-20  -2.2010397424616376e-20  1.2832691233505923e-19  -1.2956903828798853e-19  8.3297857069586478e-19  5.6425156048396975e-18  2.0000000000000011e-17  2.0000000000000011e-17  1.0808464573445238e-19  7.3428155296850921e-19  2.3534765424154637e-20  6.0680880683600569e-20  3.1261770699911504e-21  6.1627467186843701e-21  3.3289738405158552e-22  1.0030987049998502e-21  4.9880269752013200e-23  2.6172832365674251e-22  -8.3269663406639779e-23  4.6330027456346984e-22  -2.8114001966437978e-22  9.5563844435704141e-22  -2.9886019248011495e-22  2.9345460230414585e-21  3.1856160834652842e-21  5.9280537810720918e-21  -2.3370495918976719e-20  -6.1111730052263692e-20  8.3297858884606180e-19  5.6425155252383851e-18  2.0000000000000011e-17  2.0000000000000011e-17  1.0808433030222923e-19  7.3428102528625545e-19  2.3534883687552181e-20  6.0679103850617838e-20  3.1295314456805332e-21  6.1655073856355443e-21  3.4833739737467377e-22  9.5896776760015800e-22  4.4908912821882556e-23  1.0358552287683260e-22  6.1927150863724745e-24  -5.7488069285609428e-23  -1.6867689680653254e-23  -1.8940590430415223e-22  3.8462284774509810e-23  -4.0977405733979202e-22  -1.1034191046567321e-22  -1.6576004511070316e-21  2.7047317852424979e-21  -3.2994341747979392e-21  1.5533674541699411e-21  -8.4650443097048045e-21  8.3297858178773559e-19  5.6425155201146257e-18  2.0000000000000011e-17  2.0000000000000011e-17  1.0808431337844937e-19  7.3428106889611977e-19  2.3535226558661238e-20  6.0679331386466628e-20  3.1293706809226786e-21  6.1675993164684501e-21  3.4698716780329657e-22  9.5674510348508503e-22  4.4648118338754188e-23  1.3320973458762331e-22  7.2810831055341081e-24  3.2435221067873454e-23  1.7770361161571996e-24  3.3710747737799618e-23  1.1741322876685676e-24  5.7989584797004559e-23  1.9448992263580887e-22  2.5431039445026043e-22  -1.5979101166882583e-22  1.2247462088960410e-21  -1.3050248907123820e-22  3.7976834814973210e-22  8.3297859183235600e-19  5.6425155259150583e-18  2.0000000000000011e-17  2.0000000000000011e-17  1.0808431967953458e-19  7.3428108023146135e-19  2.3535246248583162e-20  6.0679246603958858e-20  3.1291201424939447e-21  6.1677540670676229e-21  3.4722053425475954e-22  9.5505449230014454e-22  4.4739184347196358e-23  1.3436184325233042e-22  5.9581197930971071e-24  1.7415160838685172e-23  1.4905684281734407e-25  -4.0702789849654508e-24  2.2297334106583944e-25  -9.0368735561562425e-24  -1.6814591145810032e-24  -1.9916915376591159e-23  4.9872622069441057e-24  4.4328916828269236e-23  -3.7035116136757933e-23  9.6435363146466041e-23  8.3297865306081918e-19  5.6425155628639511e-18  2.0000000000000011e-17  2.0000000000000011e-17  1.0808435345690482e-19  7.3428110104830233e-19  2.3535266788075985e-20  6.0679259856843588e-20  3.1291153482553109e-21  6.1678217483295556e-21  3.4736405142995837e-22  9.5481155931764626e-22  4.4577512420328746e-23  1.3531185755794406e-22  6.1026956566915940e-24  1.7141113152537503e-23  9.1311636008626387e-25  1.8865658155175861e-24  4.2597425157751982e-25  2.0632898665890492e-24  -1.8099762733110213e-25  3.5953249573748525e-24  1.9199636977677227e-24  7.4067215192460510e-24  3.0865866822032981e-24  3.8241064834219324e-26  -5.2393073094533905e-24  8.3297915555481193e-19  5.6425158752757304e-18  2.0000000000000011e-17  2.0000000000000011e-17  1.0808466063586451e-19  7.3428129868331049e-19  2.3535400758891172e-20  6.0679347986388825e-20  3.1291580467729313e-21  6.1678526424942386e-21  3.4738820209082927e-22  9.5479190031327277e-22  4.4522431762468626e-23  1.3548296183837262e-22  6.1779250906635275e-24  1.6722160504756735e-23  8.4691370869332060e-25  1.9152147421788930e-24  9.1661649677054559e-26  3.4073398274277774e-25  1.8703649667224867e-27  -4.3169721346238834e-25  -1.7560601585293752e-25  -1.1522621296175036e-24  8.7047314855562276e-25  -5.8679880119862823e-25  -3.4097610386552602e-24  -1.3094605989777172e-24  8.3298354639144573e-19  5.6425186686252678e-18  2.0000000000000011e-17  2.0000000000000011e-17  1.0808722246214480e-19  7.3428294102489868e-19  2.3536431281998045e-20  6.0680061612706862e-20  3.1295449619309222e-21  6.1681356560283440e-21  3.4752142328197422e-22  9.5489191565495950e-22  4.4550418672662820e-23  1.3552678105136823e-22  6.2039638937424060e-24  1.6652947497120113e-23  8.2193266847025535e-25  2.0605056581701510e-24  9.5841516589813111e-26  3.3089793347959062e-25  1.6443092976914661e-26  3.2481911535926507e-26  -5.4990256048449214e-27  7.8027520099091427e-26  -5.0206420638261849e-26  -5.1547411261960852e-26  -2.7168069664349107e-26  -4.7032409081329878e-25  -1.2638059674336782e-26  8.3302295823775438e-19  5.6425435422939810e-18  2.0000000000000011e-17  2.0000000000000011e-17  1.0810758926118133e-19  7.3429638338203775e-19  2.3545089379388945e-20  6.0686243823534147e-20  3.1328936505683406e-21  6.1705888217274185e-21  3.4839304950114245e-22  9.5568112120426336e-22  4.4698106166856436e-23  1.3571450562342011e-22  6.2260139123137807e-24  1.6679940201339627e-23  8.1899908555907698e-25  2.0921848088223668e-24  1.0279966271301777e-25  2.8949065970600752e-25  1.5494482962743159e-26  2.4832446564882674e-26  -2.8070064371605192e-28  2.3971276091361322e-27  -7.4445998866142534e-27  -2.4702347995117455e-26  -1.4207813404233255e-26  3.6928982063113204e-28  1.4998807499745328e-25  3.1401940825648356e-26  8.3335139989464093e-19  5.6427484689308290e-18  2.0000000000000011e-17  2.0000000000000011e-17  1.0828129436952365e-19  7.3441867372697253e-19  2.3628445841659101e-20  6.0744636078624458e-20  3.1566830216891993e-21  6.1917513747329577e-21  3.5233574844632562e-22  9.6093778284435277e-22  4.5204029988487444e-23  1.3660436142677834e-22  6.2983552662398817e-24  1.6800653537105566e-23  8.2938787353796602e-25  2.1104300026104147e-24  1.0576674261856380e-25  2.8436807353114695e-25  1.4293327751846177e-26  3.6003669828876527e-26  1.2886241561477647e-27  7.4989772836609736e-27  4.8762846622743557e-28  1.5366540984131886e-28  -1.1845733008487804e-28  1.6089041067079899e-27  -4.0913882678928121e-27  2.2250947606464233e-26  8.3606882315378400e-19  5.6446780292432568e-18  2.0000000000000011e-17  2.0000000000000011e-17  1.1022555418978629e-19  7.3572128636853604e-19  2.4275564325678841e-20  6.1308436841332330e-20  3.2596167409632236e-21  6.3411253204583214e-21  3.6431972403952753e-22  9.8533952388546659e-22  4.6940541290123867e-23  1.3966634169689300e-22  6.5664208150852651e-24  1.7203655199228026e-23  8.6577718836523066e-25  2.1684787349128096e-24  1.1072602669207414e-25  2.9210819631113167e-25  1.4600901053388412e-26  3.9004910001073068e-26  1.8597709551560995e-27  5.5836372668494412e-27  2.6156570678172129e-28  2.3466251160931248e-28  -3.3636950802202357e-30  -6.3499862341278821e-28  -1.0911064220460815e-27  -1.6987029288551937e-27  3.9044390339576698e-28  -1.7139264184218685e-27  8.7370558737819380e-19  5.6692655710014160e-18  2.0000000000000011e-17  2.0000000000000011e-17  1.2755964176829120e-19  7.5051472960244668e-19  2.6886035239854505e-20  6.5639896780384337e-20  3.5242627851900578e-21  7.0136986733726448e-21  4.0605750905855133e-22  1.0602967060594782e-21  5.3524139769969476e-23  1.4917484072914184e-22  7.4111940330215550e-24  1.8592871648829682e-23  9.7485525612533739e-25  2.3653034778039124e-24  1.2578670909766469e-25  3.1880379388402624e-25  1.6636689306435941e-26  4.2682208039844189e-26  2.2175724644533752e-27  5.6199450735850801e-27  2.9890792835850545e-28  6.5308315170590556e-28  8.4713344319316943e-30  8.6351535878787089e-29  -1.0681366143344524e-28  8.4508660052117600e-29  2.2635710407264695e-28  -4.3190471168537905e-28  1.3037247841028827e-18  6.0269677184853091e-18  2.0000000000000011e-17  2.0000000000000011e-17  1.8909338283223636e-19  8.8036560146073935e-19  3.2008736967042439e-20  8.4320382695248950e-20  4.5640390565908141e-21  8.7293919301800002e-21  5.6676865789903826e-22  1.2730765729475633e-21  7.1958776780398755e-23  1.8195072080774038e-22  9.7770287166239866e-24  2.3245339765767961e-23  1.3118127764114863e-24  2.9804354012450462e-24  1.7188369575274100e-25  3.9872567809024171e-25  2.2642712930156424e-26  5.3436111960044983e-26  3.0143768815232259e-27  7.0563804367865907e-27  4.0231790421410517e-28  9.2729536004299042e-28  5.1986403988407218e-29  1.2950651235625939e-28  8.6303712799666339e-30  1.1405317055549220e-29  1.0218612147352657e-29  -1.4121479820281043e-29  -2.6837250132657743e-29  1.8684944700857476e-29  2.3883367143026246e-18  1.0063458798179070e-17  2.0000000000000011e-17  2.0000000000000011e-17  2.6903207103764775e-19  1.3994285768164968e-18  6.1661577729557128e-20  1.1647508301816957e-19  8.2763784996142450e-21  1.3059585092979499e-20  9.1745023418127471e-22  2.0416850170862114e-21  1.2165189422944206e-22  2.9087814428449684e-22  1.7311763637038341e-23  3.6867079615162463e-23  2.3042179027945177e-24  4.7029368610681454e-24  2.9638244709477101e-25  6.3408667636109798e-25  3.9177676432382098e-26  8.5371194876249066e-26  5.2675686096855825e-27  1.1245115703992163e-26  7.0082794817571676e-28  1.4831750154645845e-27  9.3256790303126434e-29  1.9777791411006087e-28  1.3836302724832727e-29  2.5771611144508002e-29  -4.2722424484597585e-30  6.9607532351347361e-30  -5.5461868262839486e-30  1.1420131779881677e-29  -1.9371672715151332e-29  -4.4936491184745264e-29  1.1618304154553687e-17  -3.7861305016964959e-17  2.0000000000000011e-17  2.0000000000000011e-17  1.9129352372572496e-16  6.1019086659764326e-18  2.0000000000000011e-17  9.6067619103230058e-17  1.1564008086768206e-16  -4.8198857224861607e-17  2.8196317765206317e-16  -4.5447320574565945e-15  6.8326723267336642e-18  2.0000000000000011e-17  -4.1071227501696605e-19  6.9541602617908820e-17  1.6098547437437572e-16  -7.7665109994874426e-16  2.8287279606778079e-15  -7.2308177489782800e-14  5.1215830857931420e-18  2.0000000000000011e-17  2.7679220379943860e-18  -1.1883513776166361e-17  1.2373392962833652e-16  -8.6510604405958823e-17  1.4860123425395732e-15  1.7059266786556843e-14  9.0707097072341875e-14  5.3336460547240958e-18  2.0000000000000011e-17  7.5416347705261665e-19  8.5166217821567518e-20  -2.0958147186414716e-17  -8.7059636446718670e-17  1.1577696069611841e-15  3.6799848048902066e-15  5.3950964308671941e-14  5.3146463722045309e-18  2.0000000000000011e-17  1.2379949416218456e-18  7.4591651843204325e-19  5.4937104953270351e-18  -4.4586947421815848e-18  1.5526221182459608e-17  -3.2576655031772520e-15  -7.8384535069044518e-15  3.7812037723872024e-14  5.3256517386663924e-18  2.0000000000000011e-17  1.0851684429738813e-18  2.1996258011901564e-19  -2.3374281535751122e-19  -1.5819415190689989e-17  -1.9536637468557583e-17  -1.5951749650637049e-17  4.6245072189186547e-16  -1.0032474434190833e-14  5.3280510526608907e-18  2.0000000000000011e-17  1.0794016576261910e-18  2.4642626081133812e-19  5.9065147271360462e-20  -7.6381495170217522e-19  6.4343506334539171e-18  1.4292516811296108e-17  3.4076582181008454e-17  1.1261791997194809e-15  1.9565879270830165e-15  5.3277710469980376e-18  2.0000000000000011e-17  1.0792508847037526e-18  2.0715311781682811e-19  -4.0836761140071789e-21  6.6212106566723156e-20  6.9309655361104638e-20  -5.0391719862442641e-19  -9.2935180161893020e-18  2.6768501749462475e-17  -1.7165973748816130e-16  5.3277026739647746e-18  2.0000000000000011e-17  1.0795339916560099e-18  2.0038719268468329e-19  2.7057519257924326e-20  1.2975235302525991e-20  -7.2482572325248129e-21  -1.2182583202264517e-19  6.6557575936696168e-20  -5.9152308577336984e-18  4.7878710729927049e-18  -3.4842833227576068e-17  5.3277305098523784e-18  2.0000000000000011e-17  1.0794709851860554e-18  1.9986778476248662e-19  2.6719314946067883e-20  2.2270722526641147e-21  -5.2215478738179274e-22  3.8612062510315568e-21  5.5579152025105124e-20  -2.1382337048233423e-19  -1.6796376260475430e-18  -1.1842345636522603e-17  5.3277280661157228e-18  2.0000000000000011e-17  1.0794405787593220e-18  1.9977231696447139e-19  2.6446112177786748e-20  2.5054372827915658e-21  -3.9401178925551685e-22  -1.9533438444079798e-21  -3.7427474021716057e-21  -9.2621095221721321e-21  -2.4296584762148415e-19  -1.7344241894401699e-19  5.3277287338897462e-18  2.0000000000000011e-17  1.0794399731054820e-18  1.9981195352913300e-19  2.6534809561551642e-20  2.6958714620623738e-21  3.0878976539642303e-22  1.0647508997853507e-22  5.6497564546425388e-22  1.9502508850337283e-21  -1.9263665712040086e-20  1.1869795215641149e-19  6.1178426331365536e-19  5.3277287817790135e-18  2.0000000000000011e-17  1.0794399484692589e-18  1.9981841710560879e-19  2.6474194292500360e-20  2.6443657441140129e-21  3.0723372021151571e-22  3.1807947861758048e-23  3.2434880637640309e-23  3.5772965890428381e-22  1.5577415872426477e-21  1.3775753868019612e-20  -1.1827931127347180e-19  5.3277287960406626e-18  2.0000000000000011e-17  1.0794396785450422e-18  1.9981738996494620e-19  2.6467701989850598e-20  2.6999238803923411e-21  3.3096994250249771e-22  2.8073406348970644e-23  -1.1355079222616792e-23  2.3815017788958065e-23  -5.6690604143588957e-23  -1.1770322405115634e-21  -3.6319446884294368e-21  5.3277288036835700e-18  2.0000000000000011e-17  1.0794396875176764e-18  1.9981754439178645e-19  2.6467920962436832e-20  2.7055210279582936e-21  2.9759411836243354e-22  2.3896780395216500e-23  1.0634309952154882e-23  9.4071676717492201e-24  3.1843118289795780e-23  8.3373132487036782e-24  -3.1399590691771928e-22  8.0775466443592577e-22  5.3277288338689250e-18  2.0000000000000011e-17  1.0794397024025341e-18  1.9981757671449528e-19  2.6467532867652136e-20  2.7059292472431964e-21  2.9416763052684462e-22  3.8644805027581372e-23  1.1397382993256539e-23  -7.4915926361557188e-25  -1.4738896801673985e-25  -1.6210305076689397e-23  4.0540900063126158e-24  -5.5067871166388914e-23  5.3277290820810761e-18  2.0000000000000011e-17  1.0794398688372717e-18  1.9981765247347497e-19  2.6467548671574352e-20  2.7061402877744427e-21  2.9380802608174998e-22  4.0185501989809374e-23  6.3443209975085567e-24  -8.5998826568760300e-25  4.8615049599058592e-25  -5.1410323735698662e-25  -2.1818587734117233e-24  -1.0272365347496813e-23  5.3277313144329942e-18  2.0000000000000011e-17  1.0794412882599087e-18  1.9981827434479128e-19  2.6467797829738241e-20  2.7062428346453120e-21  2.9374513511887635e-22  4.0381580452764923e-23  5.7802299664637651e-24  5.4932543506843166e-25  4.6477118601903753e-25  6.0066717477394167e-27  -2.1477049337405818e-25  1.0442213410332060e-24  1.9017631231528324e-24  5.3277516934328479e-18  2.00000