<?xml version="1.0"?>
<VTKFile type="UnstructuredGrid"  version="0.1"  >
<UnstructuredGrid>
<Piece  NumberOfPoints="10179" NumberOfCells="52632">
<Points>
<DataArray  type="Float64"  NumberOfComponents="3"  format="ascii">0 0 0  1.515151515151515 0 0  1.515151515151515 1.515151515151515 0  1.515151515151515 1.515151515151515 1.515151515151515  1.515151515151515 0 1.515151515151515  0 0 1.515151515151515  0 1.515151515151515 0  0 1.515151515151515 1.515151515151515  3.03030303030303 0 0  3.03030303030303 1.515151515151515 0  3.03030303030303 1.515151515151515 1.515151515151515  3.03030303030303 0 1.515151515151515  4.545454545454546 0 0  4.545454545454546 1.515151515151515 0  4.545454545454546 1.515151515151515 1.515151515151515  4.545454545454546 0 1.515151515151515  6.060606060606061 0 0  6.060606060606061 1.515151515151515 0  6.060606060606061 1.515151515151515 1.515151515151515  6.060606060606061 0 1.515151515151515  7.575757575757576 0 0  7.575757575757576 1.515151515151515 0  7.575757575757576 1.515151515151515 1.515151515151515  7.575757575757576 0 1.515151515151515  9.090909090909092 0 1.515151515151515  9.090909090909092 1.515151515151515 1.515151515151515  9.090909090909092 1.515151515151515 0  1.515151515151515 3.03030303030303 0  1.515151515151515 3.03030303030303 1.515151515151515  0 3.03030303030303 0  0 3.03030303030303 1.515151515151515  3.03030303030303 3.03030303030303 0  3.03030303030303 3.03030303030303 1.515151515151515  4.545454545454546 3.03030303030303 0  4.545454545454546 3.03030303030303 1.515151515151515  6.060606060606061 3.03030303030303 0  6.060606060606061 3.03030303030303 1.515151515151515  7.575757575757576 3.03030303030303 0  7.575757575757576 3.03030303030303 1.515151515151515  9.090909090909092 3.03030303030303 0  9.090909090909092 3.03030303030303 1.515151515151515  1.515151515151515 4.545454545454546 0  1.515151515151515 4.545454545454546 1.515151515151515  0 4.545454545454546 0  0 4.545454545454546 1.515151515151515  3.03030303030303 4.545454545454546 0  3.03030303030303 4.545454545454546 1.515151515151515  4.545454545454546 4.545454545454546 0  4.545454545454546 4.545454545454546 1.515151515151515  6.060606060606061 4.545454545454546 0  6.060606060606061 4.545454545454546 1.515151515151515  7.575757575757576 4.545454545454546 0  7.575757575757576 4.545454545454546 1.515151515151515  9.090909090909092 4.545454545454546 0  9.090909090909092 4.545454545454546 1.515151515151515  1.515151515151515 6.060606060606061 0  1.515151515151515 6.060606060606061 1.515151515151515  0 6.060606060606061 0  0 6.060606060606061 1.515151515151515  3.03030303030303 6.060606060606061 0  3.03030303030303 6.060606060606061 1.515151515151515  4.545454545454546 6.060606060606061 0  4.545454545454546 6.060606060606061 1.515151515151515  6.060606060606061 6.060606060606061 0  6.060606060606061 6.060606060606061 1.515151515151515  7.575757575757576 6.060606060606061 0  7.575757575757576 6.060606060606061 1.515151515151515  9.090909090909092 6.060606060606061 0  9.090909090909092 6.060606060606061 1.515151515151515  1.515151515151515 7.575757575757576 0  1.515151515151515 7.575757575757576 1.515151515151515  0 7.575757575757576 0  0 7.575757575757576 1.515151515151515  3.03030303030303 7.575757575757576 0  3.03030303030303 7.575757575757576 1.515151515151515  4.545454545454546 7.575757575757576 0  4.545454545454546 7.575757575757576 1.515151515151515  6.060606060606061 7.575757575757576 0  6.060606060606061 7.575757575757576 1.515151515151515  7.575757575757576 7.575757575757576 0  7.575757575757576 7.575757575757576 1.515151515151515  9.090909090909092 7.575757575757576 0  9.090909090909092 7.575757575757576 1.515151515151515  1.515151515151515 9.090909090909092 0  1.515151515151515 9.090909090909092 1.515151515151515  0 9.090909090909092 0  0 9.090909090909092 1.515151515151515  3.03030303030303 9.090909090909092 0  3.03030303030303 9.090909090909092 1.515151515151515  4.545454545454546 9.090909090909092 0  4.545454545454546 9.090909090909092 1.515151515151515  6.060606060606061 9.090909090909092 0  6.060606060606061 9.090909090909092 1.515151515151515  7.575757575757576 9.090909090909092 0  7.575757575757576 9.090909090909092 1.515151515151515  9.090909090909092 9.090909090909092 0  9.090909090909092 9.090909090909092 1.515151515151515  1.515151515151515 10.60606060606061 0  1.515151515151515 10.60606060606061 1.515151515151515  0 10.60606060606061 0  0 10.60606060606061 1.515151515151515  3.03030303030303 10.60606060606061 0  3.03030303030303 10.60606060606061 1.515151515151515  4.545454545454546 10.60606060606061 0  4.545454545454546 10.60606060606061 1.515151515151515  6.060606060606061 10.60606060606061 0  6.060606060606061 10.60606060606061 1.515151515151515  7.575757575757576 10.60606060606061 0  7.575757575757576 10.60606060606061 1.515151515151515  9.090909090909092 10.60606060606061 0  9.090909090909092 10.60606060606061 1.515151515151515  1.515151515151515 12.12121212121212 0  1.515151515151515 12.12121212121212 1.515151515151515  0 12.12121212121212 1.515151515151515  3.03030303030303 12.12121212121212 0  3.03030303030303 12.12121212121212 1.515151515151515  4.545454545454546 12.12121212121212 0  4.545454545454546 12.12121212121212 1.515151515151515  6.060606060606061 12.12121212121212 0  6.060606060606061 12.12121212121212 1.515151515151515  7.575757575757576 12.12121212121212 0  7.575757575757576 12.12121212121212 1.515151515151515  9.090909090909092 12.12121212121212 0  9.090909090909092 12.12121212121212 1.515151515151515  3.03030303030303 13.63636363636364 1.515151515151515  4.545454545454546 13.63636363636364 0  4.545454545454546 13.63636363636364 1.515151515151515  6.060606060606061 13.63636363636364 0  6.060606060606061 13.63636363636364 1.515151515151515  7.575757575757576 13.63636363636364 0  7.575757575757576 13.63636363636364 1.515151515151515  9.090909090909092 13.63636363636364 0  9.090909090909092 13.63636363636364 1.515151515151515  7.575757575757576 15.15151515151515 0  7.575757575757576 15.15151515151515 1.515151515151515  9.090909090909092 15.15151515151515 0  9.090909090909092 15.15151515151515 1.515151515151515  1.515151515151515 1.515151515151515 3.03030303030303  1.515151515151515 0 3.03030303030303  0 0 3.03030303030303  0 1.515151515151515 3.03030303030303  3.03030303030303 1.515151515151515 3.03030303030303  3.03030303030303 0 3.03030303030303  4.545454545454546 1.515151515151515 3.03030303030303  4.545454545454546 0 3.03030303030303  6.060606060606061 1.515151515151515 3.03030303030303  6.060606060606061 0 3.03030303030303  7.575757575757576 1.515151515151515 3.03030303030303  7.575757575757576 0 3.03030303030303  9.090909090909092 1.515151515151515 3.03030303030303  9.090909090909092 0 3.03030303030303  1.515151515151515 3.03030303030303 3.03030303030303  0 3.03030303030303 3.03030303030303  3.03030303030303 3.03030303030303 3.03030303030303  4.545454545454546 3.03030303030303 3.03030303030303  6.060606060606061 3.03030303030303 3.03030303030303  7.575757575757576 3.03030303030303 3.03030303030303  9.090909090909092 3.03030303030303 3.03030303030303  10.60606060606061 3.03030303030303 3.03030303030303  1.515151515151515 4.545454545454546 3.03030303030303  0 4.545454545454546 3.03030303030303  3.03030303030303 4.545454545454546 3.03030303030303  4.545454545454546 4.545454545454546 3.03030303030303  6.060606060606061 4.545454545454546 3.03030303030303  7.575757575757576 4.545454545454546 3.03030303030303  9.090909090909092 4.545454545454546 3.03030303030303  10.60606060606061 4.545454545454546 3.03030303030303  1.515151515151515 6.060606060606061 3.03030303030303  0 6.060606060606061 3.03030303030303  3.03030303030303 6.060606060606061 3.03030303030303  4.545454545454546 6.060606060606061 3.03030303030303  6.060606060606061 6.060606060606061 3.03030303030303  7.575757575757576 6.060606060606061 3.03030303030303  9.090909090909092 6.060606060606061 3.03030303030303  10.60606060606061 6.060606060606061 3.03030303030303  1.515151515151515 7.575757575757576 3.03030303030303  0 7.575757575757576 3.03030303030303  3.03030303030303 7.575757575757576 3.03030303030303  4.545454545454546 7.575757575757576 3.03030303030303  6.060606060606061 7.575757575757576 3.03030303030303  7.575757575757576 7.575757575757576 3.03030303030303  9.090909090909092 7.575757575757576 3.03030303030303  10.60606060606061 7.575757575757576 3.03030303030303  1.515151515151515 9.090909090909092 3.03030303030303  0 9.090909090909092 3.03030303030303  3.03030303030303 9.090909090909092 3.03030303030303  4.545454545454546 9.090909090909092 3.03030303030303  6.060606060606061 9.090909090909092 3.03030303030303  7.575757575757576 9.090909090909092 3.03030303030303  9.090909090909092 9.090909090909092 3.03030303030303  10.60606060606061 9.090909090909092 3.03030303030303  1.515151515151515 10.60606060606061 3.03030303030303  0 10.60606060606061 3.03030303030303  3.03030303030303 10.60606060606061 3.03030303030303  4.545454545454546 10.60606060606061 3.03030303030303  6.060606060606061 10.60606060606061 3.03030303030303  7.575757575757576 10.60606060606061 3.03030303030303  9.090909090909092 10.60606060606061 3.03030303030303  1.515151515151515 12.12121212121212 3.03030303030303  0 12.12121212121212 3.03030303030303  3.03030303030303 12.12121212121212 3.03030303030303  4.545454545454546 12.12121212121212 3.03030303030303  6.060606060606061 12.12121212121212 3.03030303030303  7.575757575757576 12.12121212121212 3.03030303030303  9.090909090909092 12.12121212121212 3.03030303030303  10.60606060606061 12.12121212121212 3.03030303030303  3.03030303030303 13.63636363636364 3.03030303030303  4.545454545454546 13.63636363636364 3.03030303030303  6.060606060606061 13.63636363636364 3.03030303030303  7.575757575757576 13.63636363636364 3.03030303030303  9.090909090909092 13.63636363636364 3.03030303030303  10.60606060606061 13.63636363636364 3.03030303030303  6.060606060606061 15.15151515151515 3.03030303030303
[...]
<PointData  Scalars="p_CO2"> 
<DataArray  type="Float64"  Name="p_CO2"  format="ascii">4.5000000000000000e+01  4.5000000000000028e+01  4.5000000000009166e+01  4.5000000000041403e+01  4.5000000000009351e+01  4.5000000000000000e+01  4.5000000000000000e+01  4.5000000000000000e+01  4.5000000000000462e+01  4.5000000000013081e+01  4.5000000000063025e+01  4.5000000000013536e+01  4.5000000000001023e+01  4.5000000000013664e+01  4.5000000000068248e+01  4.5000000000014388e+01  4.5000000000000902e+01  4.5000000000012236e+01  4.5000000000059437e+01  4.5000000000012150e+01  4.4999999999998842e+01  4.5000000000009777e+01  4.5000000000046555e+01  4.5000000000009749e+01  4.5000000000006388e+01  4.5000000000049759e+01  4.5000000000010743e+01  4.5000000000011923e+01  4.5000000000055167e+01  4.5000000000000000e+01  4.5000000000000000e+01  4.5000000000017842e+01  4.5000000000086672e+01  4.5000000000019519e+01  4.5000000000095859e+01  4.5000000000016762e+01  4.5000000000083581e+01  4.5000000000011198e+01  4.5000000000059266e+01  4.5000000000010182e+01  4.5000000000039073e+01  4.5000000000012200e+01  4.5000000000058300e+01  4.5000000000000000e+01  4.5000000000000000e+01  4.5000000000019611e+01  4.5000000000094637e+01  4.5000000000021679e+01  4.5000000000105921e+01  4.5000000000018410e+01  4.5000000000090530e+01  4.5000000000010196e+01  4.5000000000053788e+01  4.4999999999986223e+01  4.4999999999996994e+01  4.5000000000012136e+01  4.5000000000057199e+01  4.5000000000000000e+01  4.5000000000000000e+01  4.5000000000019369e+01  4.5000000000093671e+01  4.5000000000022112e+01  4.5000000000106247e+01  4.5000000000017835e+01  4.5000000000087020e+01  4.5000000000008612e+01  4.5000000000037772e+01  4.4999999999982300e+01  4.4999999999965610e+01  4.5000000000011504e+01  4.5000000000051998e+01  4.5000000000000000e+01  4.5000000000000000e+01  4.5000000000018915e+01  4.5000000000088775e+01  4.5000000000021330e+01  4.5000000000102489e+01  4.5000000000017486e+01  4.5000000000081762e+01  4.5000000000004938e+01  4.5000000000017565e+01  4.4999999999983793e+01  4.4999999999925365e+01  4.5000000000010829e+01  4.5000000000047521e+01  4.5000000000000000e+01  4.5000000000000000e+01  4.5000000000017849e+01  4.5000000000084029e+01  4.5000000000021757e+01  4.5000000000099163e+01  4.5000000000018105e+01  4.5000000000079055e+01  4.5000000000003553e+01  4.5000000000002494e+01  4.4999999999978542e+01  4.4999999999852385e+01  4.5000000000009045e+01  4.5000000000040806e+01  4.5000000000000000e+01  4.5000000000000000e+01  4.5000000000016300e+01  4.5000000000076675e+01  4.5000000000021849e+01  4.5000000000098851e+01  4.5000000000019000e+01  4.5000000000079012e+01  4.5000000000007262e+01  4.5000000000002586e+01  4.4999999999984809e+01  4.4999999999887287e+01  4.4999999999998963e+01  4.5000000000020130e+01  4.5000000000000000e+01  4.5000000000015412e+01  4.5000000000071196e+01  4.5000000000021821e+01  4.5000000000099519e+01  4.5000000000019050e+01  4.5000000000074650e+01  4.5000000000008143e+01  4.4999999999997172e+01  4.5000000000009514e+01  4.4999999999911466e+01  4.5000000000075929e+01  4.5000000000009187e+01  4.5000000000116401e+01  4.5000000000037581e+01  4.5000000000106581e+01  4.5000000000001450e+01  4.4999999999958888e+01  4.4999999999988816e+01  4.4999999999857913e+01  4.4999999999989335e+01  4.4999999999817589e+01  4.4999999999964572e+01  4.4999999999749562e+01  4.5000000000054563e+01  4.5000000000011568e+01  4.5000000000000000e+01  4.5000000000000000e+01  4.5000000000087148e+01  4.5000000000018105e+01  4.5000000000097508e+01  4.5000000000020378e+01  4.5000000000085841e+01  4.5000000000017558e+01  4.5000000000060403e+01  4.5000000000012029e+01  4.5000000000038192e+01  4.5000000000006558e+01  4.5000000000075026e+01  4.5000000000000000e+01  4.5000000000122803e+01  4.5000000000138520e+01  4.5000000000121112e+01  4.5000000000078508e+01  4.5000000000051898e+01  4.5000000000056566e+01  4.5000000000078842e+01  4.5000000000000000e+01  4.5000000000131493e+01  4.5000000000148184e+01  4.5000000000124466e+01  4.5000000000068205e+01  4.5000000000003716e+01  4.4999999999975287e+01  4.5000000000075921e+01  4.5000000000000000e+01  4.5000000000127365e+01  4.5000000000142819e+01  4.5000000000112415e+01  4.5000000000032387e+01  4.4999999999929706e+01  4.4999999999806391e+01  4.5000000000069299e+01  4.5000000000000000e+01  4.5000000000118710e+01  4.5000000000134065e+01  4.5000000000094268e+01  4.4999999999988276e+01  4.4999999999842203e+01  4.4999999999727336e+01  4.5000000000063643e+01  4.5000000000000000e+01  4.5000000000111640e+01  4.5000000000127471e+01  4.5000000000082203e+01  4.4999999999948606e+01  4.4999999999701771e+01  4.4999999999564118e+01  4.5000000000054001e+01  4.5000000000000000e+01  4.5000000000102091e+01  4.5000000000123293e+01  4.5000000000072539e+01  4.4999999999921314e+01  4.4999999999655259e+01  4.5000000000007518e+01  4.5000000000000000e+01  4.5000000000096975e+01  4.5000000000115662e+01  4.5000000000046199e+01  4.4999999999887777e+01  4.4999999999627512e+01  4.4999999999250619e+01  4.5000000000087205e+01  4.5000000000019597e+01  4.5000000000011980e+01  4.4999999999814008e+01  4.4999999999552841e+01  4.4999999999140023e+01  4.5000000000257813e+01  4.4999999999686672e+01  4.4999999999465047e+01  4.4999999999093205e+01  4.4999999999485034e+01  4.4999999999131077e+01  4.5000000000058819e+01  4.5000000000012975e+01  4.5000000000000000e+01  4.5000000000000000e+01  4.5000000000095703e+01  4.5000000000019362e+01  4.5000000000108450e+01  4.5000000000022162e+01  4.5000000000093571e+01  4.5000000000018616e+01  4.5000000000060531e+01  4.5000000000013138e+01  4.5000000000019106e+01  4.5000000000005777e+01  4.4999999999990600e+01  4.4999999999965461e+01  4.5000000000079481e+01  4.5000000000000000e+01  4.5000000000132978e+01  4.5000000000150393e+01  4.5000000000125738e+01  4.5000000000069988e+01  4.4999999999997584e+01  4.4999999999878078e+01  4.5000000000082984e+01  4.5000000000000000e+01  4.5000000000137952e+01  4.5000000000152966e+01  4.5000000000120245e+01  4.5000000000037211e+01  4.4999999999925016e+01  4.4999999999736247e+01  4.5000000000076845e+01  4.5000000000000000e+01  4.5000000000127770e+01  4.5000000000136851e+01  4.5000000000090665e+01  4.4999999999981519e+01  4.4999999999818115e+01  4.4999999999603673e+01  4.5000000000069832e+01  4.5000000000000000e+01  4.5000000000113481e+01  4.5000000000116614e+01  4.5000000000052111e+01  4.4999999999910841e+01  4.4999999999695063e+01  4.4999999999417241e+01  4.5000000000063700e+01  4.5000000000000000e+01  4.5000000000105601e+01  4.5000000000103960e+01  4.5000000000022482e+01  4.4999999999835794e+01  4.4999999999549978e+01  4.4999999999191957e+01  4.5000000000060297e+01  4.5000000000000000e+01  4.5000000000098957e+01  4.5000000000096541e+01  4.4999999999997307e+01  4.4999999999775909e+01  4.4999999999430017e+01  4.4999999998941057e+01  4.5000000000057469e+01  4.5000000000000000e+01  4.5000000000100897e+01  4.5000000000080334e+01  4.4999999999960259e+01  4.4999999999713303e+01  4.4999999999332857e+01  4.4999999998785164e+01  4.5000000000054399e+01  4.5000000000150301e+01  4.5000000000049440e+01  4.4999999999899423e+01  4.4999999999628564e+01  4.4999999999240814e+01  4.4999999998715118e+01  4.4999999998067722e+01  4.5000000000049226e+01  4.4999999999898762e+01  4.4999999999532548e+01  4.4999999999154149e+01  4.4999999998638295e+01  4.4999999997979721e+01  4.4999999999289166e+01  4.4999999999171848e+01  4.4999999998568128e+01  4.4999999997872074e+01  4.4999999998520579e+01  4.4999999997771440e+01  4.5000000000057803e+01  4.5000000000012001e+01  4.5000000000000000e+01  4.5000000000000000e+01  4.5000000000093785e+01  4.5000000000019639e+01  4.5000000000104876e+01  4.5000000000022013e+01  4.5000000000086288e+01  4.5000000000017835e+01  4.5000000000041908e+01  4.5000000000009891e+01  4.4999999999979259e+01  4.4999999999998863e+01  4.4999999999904567e+01  4.4999999999987395e+01  4.5000000000077250e+01  4.5000000000000000e+01  4.5000000000126768e+01  4.5000000000140574e+01  4.5000000000107953e+01  4.5000000000031868e+01  4.4999999999917925e+01  4.4999999999766622e+01  4.4999999999558263e+01  4.5000000000077172e+01  4.5000000000000000e+01  4.5000000000126974e+01  4.5000000000134435e+01  4.5000000000085926e+01  4.4999999999978527e+01  4.4999999999810584e+01  4.4999999999565965e+01  4.4999999999219547e+01  4.5000000000069193e+01  4.5000000000000000e+01  4.5000000000108940e+01  4.5000000000103093e+01  4.5000000000035236e+01  4.4999999999892133e+01  4.4999999999669065e+01  4.4999999999345214e+01  4.4999999998831207e+01  4.5000000000060133e+01  4.5000000000000000e+01  4.5000000000088384e+01  4.5000000000066457e+01  4.4999999999974435e+01  4.4999999999788152e+01  4.4999999999500893e+01  4.4999999999095415e+01  4.4999999998479055e+01  4.5000000000054172e+01  4.5000000000000000e+01  4.5000000000075957e+01  4.5000000000040039e+01  4.4999999999916021e+01  4.4999999999684988e+01  4.4999999999327343e+01  4.4999999998829736e+01  4.4999999998154316e+01  4.5000000000053980e+01  4.5000000000000000e+01  4.5000000000069186e+01  4.5000000000024954e+01  4.4999999999873118e+01  4.4999999999596177e+01  4.4999999999168594e+01  4.4999999998598419e+01  4.4999999997859057e+01  4.5000000000056986e+01  4.5000000000000000e+01  4.5000000000067267e+01  4.4999999999998337e+01  4.4999999999828880e+01  4.4999999999512944e+01  4.4999999999041108e+01  4.4999999998420627e+01  4.4999999997626041e+01  4.5000000000080895e+01  4.5000000000000000e+01  4.4999999999970633e+01  4.4999999999968075e+01  4.4999999999753683e+01  4.4999999999425810e+01  4.4999999998926931e+01  4.4999999998265224e+01  4.4999999997434877e+01  4.4999999999911559e+01  4.4999999999655792e+01  4.4999999999332601e+01  4.4999999998819732e+01  4.4999999998137696e+01  4.4999999997263643e+01  4.4999999999113001e+01  4.4999999998697575e+01  4.4999999998013394e+01  4.4999999997175060e+01  4.4999999996209631e+01  4.4999999997936236e+01  4.4999999996999385e+01  4.4999999996170992e+01  4.4999999996113296e+01  4.5000000000051529e+01  4.5000000000011148e+01  4.5000000000000000e+01  4.5000000000000000e+01  4.5000000000081712e+01  4.5000000000017366e+01  4.5000000000087979e+01  4.5000000000017813e+01  4.5000000000067693e+01  4.5000000000014779e+01  4.5000000000013095e+01  4.5000000000005102e+01  4.4999999999931795e+01  4.4999999999988802e+01  4.4999999999827203e+01  4.4999999999974044e+01  4.4999999999958682e+01  4.4999999999698389e+01  4.5000000000068418e+01  4.5000000000000000e+01  4.5000000000109019e+01  4.5000000000114547e+01  4.5000000000076135e+01  4.4999999999981199e+01  4.4999999999832738e+01  4.4999999999626482e+01  4.4999999999354173e+01  4.5000000000067757e+01  4.5000000000000000e+01  4.5000000000104805e+01  4.5000000000099270e+01  4.5000000000036039e+01  4.4999999999903409e+01  4.4999999999688328e+01  4.4999999999380805e+01  4.4999999998956980e+01  4.5000000000058094e+01  4.5000000000000000e+01  4.5000000000081513e+01  4.5000000000055138e+01  4.4999999999964274e+01  4.4999999999789765e+01  4.4999999999511537e+01  4.4999999999099956e+01  4.4999999998516351e+01  4.5000000000046022e+01  4.5000000000000000e+01  4.5000000000053092e+01  4.5000000000002927e+01  4.4999999999877119e+01  4.4999999999648402e+01  4.4999999999301828e+01  4.4999999998796966e+01  4.4999999998106766e+01  4.4999999997080522e+01  4.5000000000038639e+01  4.5000000000000000e+01  4.5000000000032884e+01  4.4999999999959044e+01  4.4999999999795236e+01  4.4999999999512681e+01  4.4999999999090065e+01  4.4999999998500364e+01  4.4999999997704379e+01  4.4999999996637342e+01  4.5000000000038071e+01  4.5000000000000000e+01  4.5000000000023640e+01  4.4999999999931418e+01  4.4999999999728800e+01  4.4999999999397261e+01  4.4999999998905039e+01  4.4999999998233847e+01  4.4999999997355047e+01  4.4999999996217689e+01  4.5000000000037694e+01  4.5000000000000000e+01  4.5000000000015945e+01  4.4999999999905818e+01  4.4999999999675623e+01  4.4999999999293671e+01  4.4999999998742176e+01  4.4999999997999979e+01  4.4999999997069480e+01  4.4999999995876045e+01  4.5000000000041297e+01  4.5000000000000000e+01  4.4999999999999510e+01  4.4999999999863974e+01  4.4999999999609585e+01  4.4999999999205549e+01  4.4999999998603862e+01  4.4999999997816090e+01  4.4999999996818900e+01  4.4999999995580140e+01  4.5000000000024663e+01  4.4999999999947249e+01  4.4999999999802604e+01  4.4999999999510564e+01  4.4999999999115040e+01  4.4999999998478209e+01  4.4999999997625970e+01  4.4999999996603535e+01  4.4999999995247023e+01  4.4999999999094712e+01  4.4999999998354532e+01  4.4999999997465999e+01  4.4999999996432940e+01  4.4999999995144833e+01  4.4999999998160021e+01  4.4999999997286046e+01  4.4999999996231736e+01  4.4999999995143732e+01  4.4999999995094718e+01  4.5000000000043016e+01  4.5000000000009521e+01  4.5000000000000000e+01  4.5000000000000000e+01  4.5000000000066080e+01  4.5000000000014353e+01  4.5000000000067011e+01  4.5000000000014090e+01  4.5000000000040366e+01  4.5000000000008960e+01  4.4999999999976033e+01  4.4999999999999048e+01  4.4999999999873026e+01  4.4999999999977469e+01  4.4999999999737099e+01  4.4999999999958462e+01  4.4999999999554326e+01  4.4999999999924952e+01  4.4999999999331152e+01  4.5000000000056744e+01  4.5000000000000000e+01  4.5000000000087738e+01  4.5000000000082615e+01  4.5000000000034795e+01  4.4999999999922309e+01  4.4999999999734399e+01  4.4999999999482938e+01  4.4999999999130324e+01  4.4999999998678923e+01  4.5000000000056943e+01  4.5000000000000000e+01  4.5000000000082387e+01  4.5000000000063814e+01  4.4999999999987168e+01  4.4999999999829051e+01  4.4999999999565091e+01  4.4999999999191608e+01  4.4999999998690136e+01  4.4999999998028450e+01  4.5000000000047841e+01  4.5000000000000000e+01  4.5000000000058272e+01  4.5000000000013323e+01  4.4999999999896133e+01  4.4999999999688185e+01  4.4999999999363745e+01  4.4999999998885357e+01  4.4999999998246011e+01  4.4999999997441108e+01  4.5000000000032969e+01  4.5000000000000000e+01  4.5000000000022126e+01  4.4999999999945963e+01  4.4999999999782496e+01  4.4999999999515225e+01  4.4999999999116660e+01  4.4999999998554451e+01  4.4999999997798895e+01  4.4999999996785874e+01  4.5000000000021373e+01  4.5000000000000000e+01  4.4999999999989221e+01  4.4999999999880252e+01  4.4999999999671630e+01  4.4999999999339607e+01  4.4999999998861519e+01  4.4999999998216197e+01  4.4999999997330335e+01  4.4999999996199193e+01  4.4999999994784190e+01  4.5000000000016520e+01  4.5000000000000000e+01  4.4999999999971749e+01  4.4999999999835659e+01  4.4999999999587004e+01  4.4999999999195012e+01  4.4999999998643517e+01  4.4999999997892047e+01  4.4999999996915946e+01  4.4999999995448498e+01  4.4999999994228205e+01  4.5000000000010630e+01  4.5000000000000000e+01  4.4999999999957275e+01  4.4999999999803087e+01  4.4999999999519389e+01  4.4999999999074845e+01  4.4999999998445695e+01  4.4999999997618332e+01  4.4999999996556085e+01  4.4999999995119779e+01  4.5000000000007638e+01  4.5000000000000000e+01  4.4999999999940478e+01  4.4999999999762210e+01  4.4999999999455923e+01  4.4999999998977863e+01  4.4999999998284025e+01  4.4999999997372385e+01  4.4999999996241854e+01  4.4999999994660520e+01  4.4999999999996987e+01  4.4999999999901618e+01  4.4999999999707178e+01  4.4999999999380847e+01  4.4999999998867999e+01  4.4999999998134655e+01  4.4999999997180652e+01  4.4999999996004874e+01  4.4999999994608643e+01  4.4999999992971830e+01  4.4999999999690893e+01  4.4999999999210281e+01  4.4999999998751264e+01  4.4999999997988759e+01  4.4999999997008146e+01  4.4999999995831523e+01  4.4999999994463330e+01  4.4999999992810963e+01  4.4999999997897909e+01  4.4999999996893862e+01  4.4999999995748304e+01  4.4999999994388922e+01  4.4999999992624048e+01  4.4999999996870784e+01  4.4999999995787881e+01  4.4999999994293923e+01  4.4999999992589238e+01  4.5000000000035456e+01  4.5000000000007411e+01  4.5000000000000000e+01  4.5000000000000000e+01  4.5000000000049432e+01  4.5000000000010679e+01  4.5000000000040949e+01  4.5000000000009429e+01  4.5000000000005741e+01  4.5000000000003503e+01  4.4999999999929599e+01  4.4999999999988297e+01  4.4999999999814200e+01  4.4999999999967280e+01  4.4999999999648018e+01  4.4999999999940236e+01  4.4999999999450068e+01  4.4999999999911473e+01  4.4999999999879037e+01  4.4999999999237048e+01  4.5000000000047763e+01  4.5000000000000000e+01  4.5000000000066287e+01  4.5000000000048544e+01  4.4999999999982947e+01  4.4999999999849777e+01  4.4999999999639506e+01  4.4999999999336467e+01  4.4999999998945981e+01  4.4999999998417984e+01  4.5000000000049788e+01  4.5000000000000000e+01  4.5000000000065384e+01  4.5000000000030234e+01  4.4999999999929528e+01  4.4999999999739195e+01  4.4999999999440931e+01  4.4999999999021234e+01  4.4999999998451230e+01  4.4999999997613571e+01  4.5000000000042398e+01  4.5000000000000000e+01  4.5000000000042512e+01  4.4999999999978229e+01  4.4999999999834301e+01  4.4999999999585853e+01  4.4999999999208178e+01  4.4999999998681297e+01  4.4999999997976445e+01  4.4999999997121876e+01  4.4999999996140616e+01  4.5000000000027356e+01  4.5000000000000000e+01  4.5000000000000767e+01  4.4999999999896794e+01  4.4999999999701707e+01  4.4999999999386944e+01  4.4999999998942513e+01  4.4999999998313847e+01  4.4999999997497980e+01  4.4999999996494743e+01  4.4999999995351750e+01  4.5000000000010481e+01  4.5000000000000000e+01  4.4999999999957254e+01  4.4999999999809944e+01  4.4999999999567045e+01  4.4999999999182641e+01  4.4999999998656968e+01  4.4999999997943497e+01  4.4999999997003556e+01  4.4999999995858794e+01  4.4999999994398337e+01  4.4999999999997712e+01  4.5000000000000000e+01  4.4999999999923041e+01  4.4999999999746947e+01  4.4999999999453934e+01  4.4999999999016879e+01  4.4999999998409109e+01  4.4999999997595928e+01  4.4999999996549377e+01  4.4999999995238213e+01  4.4999999993602131e+01  4.4999999999988937e+01  4.5000000000000000e+01  4.4999999999902109e+01  4.4999999999705643e+01  4.4999999999373458e+01  4.4999999998881265e+01  4.4999999998197936e+01  4.4999999997287730e+01  4.4999999996156419e+01  4.4999999994755846e+01  4.4999999993046117e+01  4.4999999999981526e+01  4.5000000000000000e+01  4.4999999999875165e+01  4.4999999999663693e+01  4.4999999999307967e+01  4.4999999998769020e+01  4.4999999998012115e+01  4.4999999997046011e+01  4.4999999995840533e+01  4.4999999994381959e+01  4.4999999992701362e+01  4.4999999999978705e+01  4.5000000000000000e+01  4.4999999999838700e+01  4.4999999999611546e+01  4.4999999999217380e+01  4.4999999998650793e+01  4.4999999997849116e+01  4.4999999996821145e+01  4.4999999995571002e+01  4.4999999994103050e+01  4.4999999992360841e+01  4.4999999999775326e+01  4.4999999999435879e+01  4.4999999998894069e+01  4.4999999998544226e+01  4.4999999997689713e+01  4.4999999996631573e+01  4.4999999995371979e+01  4.4999999993924263e+01  4.4999999992240305e+01  4.4999999990354780e+01  4.4999999997543803e+01  4.4999999996551828e+01  4.4999999995302510e+01  4.4999999993798660e+01  4.4999999992051812e+01  4.4999999990140267e+01  4.4999999996546038e+01  4.4999999995256736e+01  4.4999999993750144e+01  4.4999999991913718e+01  4.4999999989809886e+01  4.4999999993833796e+01  4.4999999991651848e+01  4.4999999989583301e+01  4.5000000000028372e+01  4.5000000000006288e+01  4.5000000000000000e+01  4.5000000000000000e+01  4.5000000000034298e+01  4.5000000000007461e+01  4.5000000000017522e+01  4.5000000000004043e+01  4.4999999999971550e+01  4.4999999999995417e+01  4.4999999999887343e+01  4.4999999999982251e+01  4.4999999999754237e+01  4.4999999999959520e+01  4.4999999999581476e+01  4.4999999999927418e+01  4.4999999999373330e+01  4.4999999999892545e+01  4.4999999999174968e+01  4.4999999999883272e+01  4.4999999999079364e+01  4.5000000000039080e+01  4.5000000000000000e+01  4.5000000000046683e+01  4.5000000000016492e+01  4.4999999999931070e+01  4.4999999999783363e+01  4.4999999999551115e+01  4.4999999999229054e+01  4.4999999998822382e+01  4.4999999998372935e+01  4.4999999997870660e+01  4.5000000000044864e+01  4.500000000000000