<?xml version="1.0"?>
<VTKFile type="UnstructuredGrid"  version="0.1"  >
<UnstructuredGrid>
<Piece  NumberOfPoints="10313" NumberOfCells="53486">
<Points>
<DataArray  type="Float64"  NumberOfComponents="3"  format="ascii">9.090909090909092 1.515151515151515 0  10.60606060606061 1.515151515151515 0  10.60606060606061 3.03030303030303 0  10.60606060606061 3.03030303030303 1.515151515151515  9.090909090909092 3.03030303030303 0  9.090909090909092 1.515151515151515 1.515151515151515  9.090909090909092 3.03030303030303 1.515151515151515  12.12121212121212 1.515151515151515 0  12.12121212121212 3.03030303030303 0  12.12121212121212 3.03030303030303 1.515151515151515  13.63636363636364 3.03030303030303 0  13.63636363636364 3.03030303030303 1.515151515151515  10.60606060606061 4.545454545454546 0  10.60606060606061 4.545454545454546 1.515151515151515  9.090909090909092 4.545454545454546 0  9.090909090909092 4.545454545454546 1.515151515151515  12.12121212121212 4.545454545454546 0  12.12121212121212 4.545454545454546 1.515151515151515  13.63636363636364 4.545454545454546 0  13.63636363636364 4.545454545454546 1.515151515151515  15.15151515151515 3.03030303030303 0  15.15151515151515 4.545454545454546 0  15.15151515151515 4.545454545454546 1.515151515151515  15.15151515151515 3.03030303030303 1.515151515151515  16.66666666666667 4.545454545454546 0  16.66666666666667 4.545454545454546 1.515151515151515  10.60606060606061 6.060606060606061 0  10.60606060606061 6.060606060606061 1.515151515151515  9.090909090909092 6.060606060606061 0  9.090909090909092 6.060606060606061 1.515151515151515  12.12121212121212 6.060606060606061 0  12.12121212121212 6.060606060606061 1.515151515151515  13.63636363636364 6.060606060606061 0  13.63636363636364 6.060606060606061 1.515151515151515  15.15151515151515 6.060606060606061 0  15.15151515151515 6.060606060606061 1.515151515151515  16.66666666666667 6.060606060606061 0  16.66666666666667 6.060606060606061 1.515151515151515  18.18181818181818 6.060606060606061 0  18.18181818181818 6.060606060606061 1.515151515151515  10.60606060606061 7.575757575757576 0  10.60606060606061 7.575757575757576 1.515151515151515  9.090909090909092 7.575757575757576 0  9.090909090909092 7.575757575757576 1.515151515151515  12.12121212121212 7.575757575757576 0  12.12121212121212 7.575757575757576 1.515151515151515  13.63636363636364 7.575757575757576 0  13.63636363636364 7.575757575757576 1.515151515151515  15.15151515151515 7.575757575757576 0  15.15151515151515 7.575757575757576 1.515151515151515  16.66666666666667 7.575757575757576 0  16.66666666666667 7.575757575757576 1.515151515151515  18.18181818181818 7.575757575757576 0  18.18181818181818 7.575757575757576 1.515151515151515  19.6969696969697 6.060606060606061 0  19.6969696969697 7.575757575757576 0  19.6969696969697 7.575757575757576 1.515151515151515  21.21212121212121 7.575757575757576 0  21.21212121212121 7.575757575757576 1.515151515151515  10.60606060606061 9.090909090909092 0  10.60606060606061 9.090909090909092 1.515151515151515  9.090909090909092 9.090909090909092 0  9.090909090909092 9.090909090909092 1.515151515151515  12.12121212121212 9.090909090909092 0  12.12121212121212 9.090909090909092 1.515151515151515  13.63636363636364 9.090909090909092 0  13.63636363636364 9.090909090909092 1.515151515151515  15.15151515151515 9.090909090909092 0  15.15151515151515 9.090909090909092 1.515151515151515  16.66666666666667 9.090909090909092 0  16.66666666666667 9.090909090909092 1.515151515151515  18.18181818181818 9.090909090909092 0  18.18181818181818 9.090909090909092 1.515151515151515  19.6969696969697 9.090909090909092 0  19.6969696969697 9.090909090909092 1.515151515151515  21.21212121212121 9.090909090909092 0  21.21212121212121 9.090909090909092 1.515151515151515  22.72727272727273 7.575757575757576 0  22.72727272727273 9.090909090909092 0  22.72727272727273 9.090909090909092 1.515151515151515  22.72727272727273 7.575757575757576 1.515151515151515  24.24242424242424 7.575757575757576 0  24.24242424242424 9.090909090909092 0  24.24242424242424 9.090909090909092 1.515151515151515  25.75757575757576 9.090909090909092 0  25.75757575757576 9.090909090909092 1.515151515151515  10.60606060606061 10.60606060606061 0  10.60606060606061 10.60606060606061 1.515151515151515  9.090909090909092 10.60606060606061 0  9.090909090909092 10.60606060606061 1.515151515151515  12.12121212121212 10.60606060606061 0  12.12121212121212 10.60606060606061 1.515151515151515  13.63636363636364 10.60606060606061 0  13.63636363636364 10.60606060606061 1.515151515151515  15.15151515151515 10.60606060606061 0  15.15151515151515 10.60606060606061 1.515151515151515  16.66666666666667 10.60606060606061 0  16.66666666666667 10.60606060606061 1.515151515151515  18.18181818181818 10.60606060606061 0  18.18181818181818 10.60606060606061 1.515151515151515  19.6969696969697 10.60606060606061 0  19.6969696969697 10.60606060606061 1.515151515151515  21.21212121212121 10.60606060606061 0  21.21212121212121 10.60606060606061 1.515151515151515  22.72727272727273 10.60606060606061 0  22.72727272727273 10.60606060606061 1.515151515151515  24.24242424242424 10.60606060606061 0  24.24242424242424 10.60606060606061 1.515151515151515  25.75757575757576 10.60606060606061 0  25.75757575757576 10.60606060606061 1.515151515151515  27.27272727272727 9.090909090909092 0  27.27272727272727 10.60606060606061 0  27.27272727272727 10.60606060606061 1.515151515151515  28.78787878787879 10.60606060606061 0  28.78787878787879 10.60606060606061 1.515151515151515  10.60606060606061 12.12121212121212 0  10.60606060606061 12.12121212121212 1.515151515151515  9.090909090909092 12.12121212121212 0  9.090909090909092 12.12121212121212 1.515151515151515  12.12121212121212 12.12121212121212 0  12.12121212121212 12.12121212121212 1.515151515151515  13.63636363636364 12.12121212121212 0  13.63636363636364 12.12121212121212 1.515151515151515  15.15151515151515 12.12121212121212 0  15.15151515151515 12.12121212121212 1.515151515151515  16.66666666666667 12.12121212121212 0  16.66666666666667 12.12121212121212 1.515151515151515  18.18181818181818 12.12121212121212 0  18.18181818181818 12.12121212121212 1.515151515151515  19.6969696969697 12.12121212121212 0  19.6969696969697 12.12121212121212 1.515151515151515  21.21212121212121 12.12121212121212 0  21.21212121212121 12.12121212121212 1.515151515151515  22.72727272727273 12.12121212121212 0  22.72727272727273 12.12121212121212 1.515151515151515  24.24242424242424 12.12121212121212 0  24.24242424242424 12.12121212121212 1.515151515151515  25.75757575757576 12.12121212121212 0  25.75757575757576 12.12121212121212 1.515151515151515  27.27272727272727 12.12121212121212 0  27.27272727272727 12.12121212121212 1.515151515151515  28.78787878787879 12.12121212121212 0  28.78787878787879 12.12121212121212 1.515151515151515  30.3030303030303 10.60606060606061 0  30.3030303030303 12.12121212121212 0  30.3030303030303 12.12121212121212 1.515151515151515  31.81818181818182 12.12121212121212 0  31.81818181818182 12.12121212121212 1.515151515151515  10.60606060606061 13.63636363636364 0  10.60606060606061 13.63636363636364 1.515151515151515  9.090909090909092 13.63636363636364 0  9.090909090909092 13.63636363636364 1.515151515151515  12.12121212121212 13.63636363636364 0  12.12121212121212 13.63636363636364 1.515151515151515  13.63636363636364 13.63636363636364 0  13.63636363636364 13.63636363636364 1.515151515151515  15.15151515151515 13.63636363636364 0  15.15151515151515 13.63636363636364 1.515151515151515  16.66666666666667 13.63636363636364 0  16.66666666666667 13.63636363636364 1.515151515151515  18.18181818181818 13.63636363636364 0  18.18181818181818 13.63636363636364 1.515151515151515  19.6969696969697 13.63636363636364 0  19.6969696969697 13.63636363636364 1.515151515151515  21.21212121212121 13.63636363636364 0  21.21212121212121 13.63636363636364 1.515151515151515  22.72727272727273 13.63636363636364 0  22.72727272727273 13.63636363636364 1.515151515151515  24.24242424242424 13.63636363636364 0  24.24242424242424 13.63636363636364 1.515151515151515  25.75757575757576 13.63636363636364 0  25.75757575757576 13.63636363636364 1.515151515151515  27.27272727272727 13.63636363636364 0  27.27272727272727 13.63636363636364 1.515151515151515  28.78787878787879 13.63636363636364 0  28.78787878787879 13.63636363636364 1.515151515151515  30.3030303030303 13.63636363636364 0  30.3030303030303 13.63636363636364 1.515151515151515  31.81818181818182 13.63636363636364 0  31.81818181818182 13.63636363636364 1.515151515151515  33.33333333333334 12.12121212121212 0  33.33333333333334 13.63636363636364 0  33.33333333333334 13.63636363636364 1.515151515151515  34.84848484848485 12.12121212121212 0  34.84848484848485 13.63636363636364 0  34.84848484848485 13.63636363636364 1.515151515151515  36.36363636363637 13.63636363636364 0  36.36363636363637 13.63636363636364 1.515151515151515  10.60606060606061 15.15151515151515 0  10.60606060606061 15.15151515151515 1.515151515151515  9.090909090909092 15.15151515151515 0  9.090909090909092 15.15151515151515 1.515151515151515  12.12121212121212 15.15151515151515 0  12.12121212121212 15.15151515151515 1.515151515151515  13.63636363636364 15.15151515151515 0  13.63636363636364 15.15151515151515 1.515151515151515  15.15151515151515 15.15151515151515 0  15.15151515151515 15.15151515151515 1.515151515151515  16.66666666666667 15.15151515151515 0  16.66666666666667 15.15151515151515 1.515151515151515  18.18181818181818 15.15151515151515 0  18.18181818181818 15.15151515151515 1.515151515151515  19.6969696969697 15.15151515151515 0  19.6969696969697 15.15151515151515 1.515151515151515  21.21212121212121 15.15151515151515 0  21.21212121212121 15.15151515151515 1.515151515151515  22.72727272727273 15.15151515151515 0  22.72727272727273 15.15151515151515 1.515151515151515  24.24242424242424 15.15151515151515 0  24.24242424242424 15.15151515151515 1.515151515151515  
[...]
<PointData  Scalars="p_CO2"> 
<DataArray  type="Float64"  Name="p_CO2"  format="ascii">4.5000000000010743e+01  4.5000000000019952e+01  4.5000000000012591e+01  4.5000000000071488e+01  4.5000000000010182e+01  4.5000000000049759e+01  4.5000000000039073e+01  4.5000000000007340e+01  4.4999999999999233e+01  4.5000000000049575e+01  4.4999999999978158e+01  4.4999999999873694e+01  4.4999999999997073e+01  4.4999999999995545e+01  4.4999999999986223e+01  4.4999999999996994e+01  4.4999999999981164e+01  4.4999999999896531e+01  4.4999999999954746e+01  4.4999999999730711e+01  4.4999999999941373e+01  4.4999999999921016e+01  4.4999999999566420e+01  4.4999999999627676e+01  4.4999999999896147e+01  4.4999999999290132e+01  4.4999999999985839e+01  4.4999999999915907e+01  4.4999999999982300e+01  4.4999999999965610e+01  4.4999999999966398e+01  4.4999999999804118e+01  4.4999999999941927e+01  4.4999999999639165e+01  4.4999999999906038e+01  4.4999999999448868e+01  4.4999999999864642e+01  4.4999999999213323e+01  4.4999999999798590e+01  4.4999999998742354e+01  4.4999999999973063e+01  4.4999999999848988e+01  4.4999999999983793e+01  4.4999999999925365e+01  4.4999999999952919e+01  4.4999999999722107e+01  4.4999999999927830e+01  4.4999999999543753e+01  4.4999999999888601e+01  4.4999999999332530e+01  4.4999999999841194e+01  4.4999999999066759e+01  4.4999999999774104e+01  4.4999999998736570e+01  4.4999999999733426e+01  4.4999999999716607e+01  4.4999999998387366e+01  4.4999999999675815e+01  4.4999999998202242e+01  4.4999999999963705e+01  4.4999999999771212e+01  4.4999999999978542e+01  4.4999999999852385e+01  4.4999999999936890e+01  4.4999999999630042e+01  4.4999999999907850e+01  4.4999999999438728e+01  4.4999999999870518e+01  4.4999999999213038e+01  4.4999999999817668e+01  4.4999999998938279e+01  4.4999999999757712e+01  4.4999999998640469e+01  4.4999999999701494e+01  4.4999999998321591e+01  4.4999999999630646e+01  4.4999999997959243e+01  4.4999999999632813e+01  4.4999999999560671e+01  4.4999999997491550e+01  4.4999999997851397e+01  4.4999999999527837e+01  4.4999999999456229e+01  4.4999999996848388e+01  4.4999999999347416e+01  4.4999999996307864e+01  4.4999999999953317e+01  4.4999999999709487e+01  4.4999999999984809e+01  4.4999999999887287e+01  4.4999999999914976e+01  4.4999999999526679e+01  4.4999999999888999e+01  4.4999999999314774e+01  4.4999999999844839e+01  4.4999999999079719e+01  4.4999999999794312e+01  4.4999999998814431e+01  4.4999999999740332e+01  4.4999999998512138e+01  4.4999999999679659e+01  4.4999999998175454e+01  4.4999999999597954e+01  4.4999999997758430e+01  4.4999999999503913e+01  4.4999999997208057e+01  4.4999999999383633e+01  4.4999999996573010e+01  4.4999999999271814e+01  4.4999999995981106e+01  4.4999999999276092e+01  4.4999999999194834e+01  4.4999999995396429e+01  4.4999999999078696e+01  4.4999999994724128e+01  4.4999999999945409e+01  4.4999999999667963e+01  4.5000000000009514e+01  4.4999999999911466e+01  4.4999999999903352e+01  4.4999999999437406e+01  4.4999999999869559e+01  4.4999999999195566e+01  4.4999999999821426e+01  4.4999999998939373e+01  4.4999999999759012e+01  4.4999999998669843e+01  4.4999999999704826e+01  4.4999999998384340e+01  4.4999999999655884e+01  4.4999999998029928e+01  4.4999999999561773e+01  4.4999999997579629e+01  4.4999999999473303e+01  4.4999999996992756e+01  4.4999999999346613e+01  4.4999999996315630e+01  4.4999999999232841e+01  4.4999999995662399e+01  4.4999999999105718e+01  4.4999999994962984e+01  4.4999999998974012e+01  4.4999999994186638e+01  4.4999999998924658e+01  4.4999999998834483e+01  4.4999999993344865e+01  4.4999999998721641e+01  4.4999999992702712e+01  4.4999999999936414e+01  4.4999999999614722e+01  4.4999999999988816e+01  4.4999999999857913e+01  4.4999999999892189e+01  4.4999999999364107e+01  4.4999999999837897e+01  4.4999999999100012e+01  4.4999999999796593e+01  4.4999999998821188e+01  4.4999999999746869e+01  4.4999999998541327e+01  4.4999999999695753e+01  4.4999999998253053e+01  4.4999999999630504e+01  4.4999999997880700e+01  4.4999999999539455e+01  4.4999999997411045e+01  4.4999999999447944e+01  4.4999999996808995e+01  4.4999999999313516e+01  4.4999999996115164e+01  4.4999999999181107e+01  4.4999999995387924e+01  4.4999999999034863e+01  4.4999999994667618e+01  4.4999999998914966e+01  4.4999999993841847e+01  4.4999999998742496e+01  4.4999999993036546e+01  4.4999999998657728e+01  4.4999999992385327e+01  4.4999999998543011e+01  4.4999999998500670e+01  4.4999999991595026e+01  4.4999999998226166e+01  4.4999999998218179e+01  4.4999999989706552e+01  4.4999999997866873e+01  4.4999999988333727e+01  4.4999999999924249e+01  4.4999999999556742e+01  4.4999999999964572e+01  4.4999999999749562e+01  4.4999999999880792e+01  4.4999999999308223e+01  4.4999999999828844e+01  4.4999999999026016e+01  4.4999999999770672e+01  4.4999999998720043e+01  4.4999999999717659e+01  4.4999999998430575e+01  4.4999999999662187e+01  4.4999999998132772e+01  4.4999999999605109e+01  4.4999999997775816e+01  4.4999999999514927e+01  4.4999999997289933e+01  4.4999999999403506e+01  4.4999999996682973e+01  4.4999999999287681e+01  4.4999999995958810e+01  4.4999999999133578e+01  4.4999999995206061e+01  4.4999999998986198e+01  4.4999999994421088e+01  4.4999999998859394e+01  4.4999999993597896e+01  4.4999999998706862e+01  4.4999999992803119e+01  4.4999999998604061e+01  4.4999999992086465e+01  4.4999999998470422e+01  4.4999999991220903e+01  4.4999999998216879e+01  4.4999999990013301e+01  4.4999999997939170e+01  4.4999999988490956e+01  4.4999999997611951e+01  4.4999999997681471e+01  4.4999999986795906e+01  4.4999999997409326e+01  4.4999999986089129e+01  4.4999999999924768e+01  4.4999999999546617e+01  4.4999999999879343e+01  4.4999999999284150e+01  4.4999999999823700e+01  4.4999999998992649e+01  4.4999999999768946e+01  4.4999999998680771e+01  4.4999999999722419e+01  4.4999999998371685e+01  4.4999999999650221e+01  4.4999999998047706e+01  4.4999999999587097e+01  4.4999999997669050e+01  4.4999999999493902e+01  4.4999999997196277e+01  4.4999999999366906e+01  4.4999999996586311e+01  4.4999999999255969e+01  4.4999999995880671e+01  4.4999999999135127e+01  4.4999999995073054e+01  4.4999999998971148e+01  4.4999999994269942e+01  4.4999999998827384e+01  4.4999999993396152e+01  4.4999999998666723e+01  4.4999999992559090e+01  4.4999999998539934e+01  4.4999999991753178e+01  4.4999999998401847e+01  4.4999999990958820e+01  4.4999999998175134e+01  4.4999999989949600e+01  4.4999999998001648e+01  4.4999999988749337e+01  4.4999999997695234e+01  4.4999999987263948e+01  4.4999999997442195e+01  4.4999999985680780e+01  4.4999999997304066e+01  4.4999999997166405e+01  4.4999999984104775e+01  4.4999999985344921e+01  4.4999999997054530e+01  4.4999999982551699e+01  4.4999999999876032e+01  4.4999999999278010e+01  4.4999999999930758e+01  4.4999999999577376e+01  4.4999999999819451e+01  4.4999999998969308e+01  4.4999999999765798e+01  4.4999999998663370e+01  4.4999999999716884e+01  4.4999999998354440e+01  4.4999999999639684e+01  4.4999999998008832e+01  4.4999999999562313e+01  4.4999999997606551e+01  4.4999999999485958e+01  4.4999999997091876e+01  4.4999999999378943e+01  4.4999999996494459e+01  4.4999999999234539e+01  4.4999999995789068e+01  4.4999999999121691e+01  4.4999999995048057e+01  4.4999999998962188e+01  4.4999999994219280e+01  4.4999999998805073e+01  4.4999999993289173e+01  4.4999999998640043e+01  4.4999999992370014e+01  4.4999999998481954e+01  4.4999999991531190e+01  4.4999999998329017e+01  4.4999999990725883e+01  4.4999999998204885e+01  4.4999999989890426e+01  4.4999999997985690e+01  4.4999999988774185e+01  4.4999999997732544e+01  4.4999999987350598e+01  4.4999999997415124e+01  4.4999999985558333e+01  4.4999999997084501e+01  4.4999999983528028e+01  4.4999999996728327e+01  4.4999999981671891e+01  4.4999999996622755e+01  4.4999999996351953e+01  4.4999999979446557e+01  4.4999999995867455e+01  4.4999999977038186e+01  4.4999999999872230e+01  4.4999999999245802e+01  4.4999999999823324e+01  4.4999999998975333e+01  4.4999999999765684e+01  4.4999999998699629e+01  4.4999999999715271e+01  4.4999999998392958e+01  4.4999999999650626e+01  4.4999999998030340e+01  4.4999999999556074e+01  4.4999999997551548e+01  4.4999999999465793e+01  4.4999999997002476e+01  4.4999999999352944e+01  4.4999999996382435e+01  4.4999999999233118e+01  4.4999999995755672e+01  4.4999999999118508e+01  4.4999999995039865e+01  4.4999999998990468e+01  4.4999999994266361e+01  4.4999999998826027e+01  4.4999999993357108e+01  4.4999999998648953e+01  4.4999999992321598e+01  4.4999999998453070e+01  4.4999999991375063e+01  4.4999999998373838e+01  4.4999999990659134e+01  4.4999999998198255e+01  4.4999999989863184e+01  4.4999999998016108e+01  4.4999999988859834e+01  4.4999999997790233e+01  4.4999999987545742e+01  4.4999999997446871e+01  4.4999999985765868e+01  4.4999999997098861e+01  4.4999999983767651e+01  4.4999999996701675e+01  4.4999999981617933e+01  4.4999999996356770e+01  4.4999999979493566e+01  4.4999999995959016e+01  4.4999999977487839e+01  4.4999999995419081e+01  4.4999999995753122e+01  4.4999999975688638e+01  4.4999999995776420e+01  4.4999999976759348e+01  4.4999999999835779e+01  4.4999999998999598e+01  4.4999999999873147e+01  4.4999999999281684e+01  4.4999999999778069e+01  4.4999999998740513e+01  4.4999999999729368e+01  4.4999999998433992e+01  4.4999999999656161e+01  4.4999999998042469e+01  4.4999999999554717e+01  4.4999999997521840e+01  4.4999999999440931e+01  4.4999999996889208e+01  4.4999999999353243e+01  4.4999999996280998e+01  4.4999999999236728e+01  4.4999999995667153e+01  4.4999999999114678e+01  4.4999999995049471e+01  4.4999999998993871e+01  4.4999999994324767e+01  4.4999999998834163e+01  4.4999999993460328e+01  4.4999999998671392e+01  4.4999999992468837e+01  4.4999999998464851e+01  4.4999999991513889e+01  4.4999999998330239e+01  4.4999999990628190e+01  4.4999999998232759e+01  4.4999999989921250e+01  4.4999999998039527e+01  4.4999999989016210e+01  4.4999999997807862e+01  4.4999999987870041e+01  4.4999999997600533e+01  4.4999999986313433e+01  4.4999999997269875e+01  4.4999999984494757e+01  4.4999999996910738e+01  4.4999999982576099e+01  4.4999999996512308e+01  4.4999999980548445e+01  4.4999999996121581e+01  4.4999999978643331e+01  4.4999999995958923e+01  4.4999999977483320e+01  4.4999999995911899e+01  4.4999999977566496e+01  4.4999999996438405e+01  4.4999999995949075e+01  4.4999999978023880e+01  4.4999999978675746e+01  4.4999999999833648e+01  4.4999999999030102e+01  4.4999999999786070e+01  4.4999999998790415e+01  4.4999999999726199e+01  4.4999999998476810e+01  4.4999999999665569e+01  4.4999999998057696e+01  4.4999999999553097e+01  4.4999999997497085e+01  4.4999999999432738e+01  4.4999999996807489e+01  4.4999999999310049e+01  4.4999999996147295e+01  4.4999999999208136e+01  4.4999999995550283e+01  4.4999999999101526e+01  4.4999999995007457e+01  4.4999999998991164e+01  4.4999999994388226e+01  4.4999999998840430e+01  4.4999999993581547e+01  4.4999999998706038e+01  4.4999999992620836e+01  4.4999999998518661e+01  4.4999999991657660e+01  4.4999999998345118e+01  4.4999999990764330e+01  4.4999999998263569e+01  4.4999999989987998e+01  4.4999999998110056e+01  4.4999999989235967e+01  4.4999999997942332e+01  4.4999999988356734e+01  4.4999999997777216e+01  4.4999999987243328e+01  4.4999999997512070e+01  4.4999999985871817e+01  4.4999999997232159e+01  4.4999999984252476e+01  4.4999999996805869e+01  4.4999999982179617e+01  4.4999999996444139e+01  4.4999999980204244e+01  4.4999999996098779e+01  4.4999999978648326e+01  4.4999999996038042e+01  4.4999999978153738e+01  4.4999999996006281e+01  4.4999999978078755e+01  4.4999999999783888e+01  4.4999999998778932e+01  4.4999999999823608e+01  4.4999999999734818e+01  4.4999999998468105e+01  4.4999999999657192e+01  4.4999999998028159e+01  4.4999999999543952e+01  4.4999999997467050e+01  4.4999999999436653e+01  4.4999999996797406e+01  4.4999999999302531e+01  4.4999999996085158e+01  4.4999999999189257e+01  4.4999999995470858e+01  4.4999999999118323e+01  4.4999999994962828e+01  4.4999999998996984e+01  4.4999999994362675e+01  4.4999999998870180e+01  4.4999999993600213e+01  4.4999999998696829e+01  4.4999999992675235e+01  4.4999999998527102e+01  4.4999999991760752e+01  4.4999999998368054e+01  4.4999999990861198e+01  4.4999999998250487e+01  4.4999999990125794e+01  4.4999999998141455e+01  4.4999999989512474e+01  4.4999999998057866e+01  4.4999999988978331e+01  4.4999999997968828e+01  4.4999999988311892e+01  4.4999999997881616e+01  4.4999999987454565e+01  4.4999999997536776e+01  4.4999999986036194e+01  4.4999999997168885e+01  4.4999999983992225e+01  4.4999999996760224e+01  4.4999999981714247e+01  4.4999999996315040e+01  4.4999999979807129e+01  4.4999999996165315e+01  4.4999999978662608e+01  4.4999999996047308e+01  4.4999999978358439e+01  4.4999999999768370e+01  4.4999999998756806e+01  4.4999999999735060e+01  4.4999999998457014e+01  4.4999999999651202e+01  4.4999999998041908e+01  4.4999999999544919e+01  4.4999999997485389e+01  4.4999999999435147e+01  4.4999999996825039e+01  4.4999999999317275e+01  4.4999999996136467e+01  4.4999999999193641e+01  4.4999999995495791e+01  4.4999999999110280e+01  4.4999999994928331e+01  4.4999999999003492e+01  4.4999999994301795e+01  4.4999999998868738e+01  4.4999999993561595e+01  4.4999999998720078e+01  4.4999999992689631e+01  4.4999999998553626e+01  4.4999999991814931e+01  4.4999999998392873e+01  4.4999999990961065e+01  4.4999999998285404e+01  4.4999999990275164e+01  4.4999999998210598e+01  4.4999999989791547e+01  4.4999999998160483e+01  4.4999999989529940e+01  4.4999999998068446e+01  4.4999999989188709e+01  4.4999999997986748e+01  4.4999999988646216e+01  4.4999999997802547e+01  4.4999999987471348e+01  4.4999999997427238e+01  4.4999999985440517e+01  4.4999999996931727e+01  4.4999999982888156e+01  4.4999999996517630e+01  4.4999999980604727e+01  4.4999999996276408e+01  4.4999999979292369e+01  4.4999999996128281e+01  4.4999999978719778e+01  4.4999999999737568e+01  4.4999999998466720e+01  4.4999999999784244e+01  4.4999999998775188e+01  4.4999999999654783e+01  4.4999999998052601e+01  4.4999999999572502e+01  4.4999999997539803e+01  4.4999999999464947e+01  4.4999999996938321e+01  4.4999999999348780e+01  4.4999999996301874e+01  4.4999999999214339e+01  4.4999999995634674e+01  4.4999999999113648e+01  4.4999999994995910e+01  4.4999999998991917e+01  4.4999999994339021e+01  4.4999999998846135e+01  4.4999999993563620e+01  4.4999999998724206e+01  4.4999999992714109e+01  4.4999999998602981e+01  4.4999999991917917e+01  4.4999999998413884e+01  4.4999999991128334e+01  4.4999999998354504e+01  4.4999999990577194e+01  4.4999999998295777e+01  4.4999999990122042e+01  4.4999999998149853e+01  4.4999999989809652e+01  4.4999999998139536e+01  4.4999999989611219e+01  4.4999999998072433e+01  4.4999999989177248e+01  4.4999999997927048e+01  4.4999999988083971e+01  4.4999999997572580e+01  4.4999999986240965e+01  4.4999999997104950e+01  4.4999999983765086e+01  4.4999999996738474e+01  4.4999999981508395e+01  4.4999999996396220e+01  4.4999999980058455e+01  4.4999999996317584e+01  4.4999999979633685e+01  4.4999999999745683e+01  4.4999999998503633e+01  4.4999999999800053e+01  4.4999999998846398e+01  4.4999999999674095e+01  4.4999999998093962e+01  4.4999999999587367e+01  4.4999999997632351e+01  4.4999999999490605e+01  4.4999999997109207e+01  4.4999999999389473e+01  4.4999999996529731e+01  4.4999999999266215e+01  4.4999999995895202e+01  4.4999999999156550e+01  4.4999999995189484e+01  4.4999999999037428e+01  4.4999999994485989e+01  4.4999999998869356e+01  4.4999999993716386e+01  4.4999999998758199e+01  4.4999999992930206e+01  4.4999999998657024e+01  4.4999999992198617e+01  4.4999999998524821e+01  4.4999999991558752e+01  4.4999999998422659e+01  4.4999999990993061e+01  4.4999999998297909e+01  4.4999999990466947e+01  4.4999999998216751e+01  4.4999999990048664e+01  4.4999999998172001e+01  4.4999999989662427e+01  4.4999999998070180e+01  4.4999999989157175e+01  4.4999999997902904e+01  4.4999999988088028e+01  4.4999999997588255e+01  4.4999999986368827e+01  4.4999999997228009e+01  4.4999999984327353e+01  4.4999999996872283e+01  4.4999999982400027e+01  4.4999999996712823e+01  4.4999999981186122e+01  4.4999999996580769e+01  4.4999999980765665e+01  4.4999999999755801e+01  4.4999999998519357e+01  4.4999999999684547e+01  4.4999999998154649e+01  4.4999999999600362e+01  4.4999999997749043e+01  4.4999999999513413e+01  4.4999999997312699e+01  4.4999999999428447e+01  4.4999999996753381e+01  4.4999999999313701e+01  4.4999999996129311e+01  4.4999999999211667e+01  4.4999999995448512e+01  4.4999999999075598e+01  4.4999999994670105e+01  4.4999999998942634e+01  4.4999999993971322e+01  4.4999999998815120e+01  4.4999999993206998e+01  4.4999999998695309e+01  4.4999999992557164e+01  4.4999999998585530e+01  4.4999999991973375e+01  4.4999999998454918e+01  4.4999999991448384e+01  4.4999999998359982e+01  4.4999999990851407e+01  4.4999999998275584e+01  4.4999999990234265e+01  4.4999999998155765e+01  4.4999999989628975e+01  4.4999999998023384e+01  4.4999999988867025e+01  4.4999999997812019e+01  4.4999999987732302e+01  4.4999999997605741e+01  4.4999999986231082e+01  4.4999999997284924e+01  4.4999999984584313e+01  4.4999999997010597e+01  4.4999999983146047e+01  4.4999999996831271e+01  4.4999999982168212e+01  4.4999999996824009e+01  4.4999999981847132e+01  4.4999999999687169e+01  4.4999999998191882e+01  4.4999999999744588e+01  4.4999999998484327e+01  4.4999999999622275e+01  4.4999999997847524e+01  4.4999999999543220e+01  4.4999999997465792e+01  4.4999999999460492e+01  4.4999999996953754e+01  4.4999999999356312e+01  4.4999999996336193e+01  4.4999999999245674e+01  4.4999999995687666e+01  4.4999999999093752e+01  4.4999999994907554e+01  4.4999999998978922e+01  4.4999999994169400e+01  4.4999999998857867e+01  4.4999999993435921e+01  4.4999999998735106e+01  4.4999999992794230e+01  4.4999999998626947e+01  4.4999999992232446e+01  4.4999999998548695e+01  4.4999999991749029e+01  4.4999999998482167e+01  4.4999999991286813e+01  4.4999999998324633e+01  4.4999999990652007e+01  4.4999999998170559e+01  4.4999999989830357e+01  4.4999999997997264e+01  4.4999999988811737e+01  4.4999999997767702e+01  4.4999999987531091e+01  4.4999999997490946e+01  4.4999999986012391e+01  4.4999999997195438e+01  4.4999999984457403e+01  4.4999999997001289e+01  4.4999999983210699e+01  4.4999999996935344e+01  4.4999999982459997e+01  4.4999999996784823e+01  4.4999999982127306e+01  4.4999999999655500e+01  4.4999999998233953e+01  4.4999999999633864e+01  4.4999999997960657e+01  4.4999999999569404e+01  4.4999999997579337e+01  4.4999999999483727e+01  4.4999999997117413e+01  4.4999999999394142e+01  4.4999999996532800e+01  4.4999999999271040e+01  4.4999999995884728e+01  4.4999999999152394e+01  4.4999999995143249e+01  4.4999999999013880e+01  4.4999999994391587e+01  4.4999999998874742e+01  4.4999999993585924e+01  4.4999999998735937e+01  4.4999999992844543e+01  4.4999999998657188e+01  4.4999999992325272e+01  4.4999999998613006e+01  4.4999999991992119e+01  4.4999999998539820e+01  4.4999999991726455e+01  4.4999999998505515e+01  4.4999999991341504e+01  4.4999999998304673e+01  4.4999999990521182e+01  4.4999999998072660e+01  4.4999999989309281e+01  4.4999999997775518e+01  4.4999999987659329e+01  4.4999999997423238e+01  4.4999999985756965e+01  4.4999999997123922e+01  4.4999999984043122e+01  4.4999999996920920e+01  4.4999999982730195e+01  4.4999999996795886e+01  4.4999999981975471e+01  4.4999999996773191e+01  4.4999999981703212e+01  4.4999999999659700e+01  4.4999999998106134e+01  4.4999999999514408e+01  4.4999999997969361e+01  4.4999999999599922e+01  4.4999999997776719e+01  4.4999999999519773e+01  4.4999999997302076e+01  4.4999999999427075e+01  4.4999999996759435e+01  4.4999999999307860e+01  4.4999999996152901e+01  4.4999999999192077e+01  4.4999999995468642e+01  4.4999999999047589e+01  4.4999999994636163e+01  4.4999999998886445e+01  4.4999999993738371e+01  4.4999999998753886e+01  4.499999999294213