<?xml version="1.0"?>
<VTKFile type="UnstructuredGrid"  version="0.1"  >
<UnstructuredGrid>
<Piece  NumberOfPoints="10704" NumberOfCells="55381">
<Points>
<DataArray  type="Float64"  NumberOfComponents="3"  format="ascii">7.575757575757576 0 0  9.090909090909092 0 0  9.090909090909092 1.515151515151515 0  9.090909090909092 1.515151515151515 1.515151515151515  9.090909090909092 0 1.515151515151515  10.60606060606061 0 0  10.60606060606061 1.515151515151515 0  10.60606060606061 1.515151515151515 1.515151515151515  10.60606060606061 0 1.515151515151515  12.12121212121212 0 0  12.12121212121212 1.515151515151515 0  12.12121212121212 1.515151515151515 1.515151515151515  12.12121212121212 0 1.515151515151515  13.63636363636364 0 0  13.63636363636364 1.515151515151515 0  13.63636363636364 1.515151515151515 1.515151515151515  13.63636363636364 0 1.515151515151515  15.15151515151515 0 0  15.15151515151515 1.515151515151515 0  15.15151515151515 1.515151515151515 1.515151515151515  15.15151515151515 0 1.515151515151515  16.66666666666667 0 0  16.66666666666667 1.515151515151515 0  16.66666666666667 1.515151515151515 1.515151515151515  16.66666666666667 0 1.515151515151515  18.18181818181818 0 0  18.18181818181818 1.515151515151515 0  18.18181818181818 1.515151515151515 1.515151515151515  18.18181818181818 0 1.515151515151515  19.6969696969697 0 0  19.6969696969697 1.515151515151515 0  19.6969696969697 1.515151515151515 1.515151515151515  19.6969696969697 0 1.515151515151515  21.21212121212121 0 0  21.21212121212121 1.515151515151515 0  21.21212121212121 1.515151515151515 1.515151515151515  21.21212121212121 0 1.515151515151515  22.72727272727273 0 0  22.72727272727273 1.515151515151515 0  22.72727272727273 1.515151515151515 1.515151515151515  22.72727272727273 0 1.515151515151515  24.24242424242424 0 0  24.24242424242424 1.515151515151515 0  24.24242424242424 1.515151515151515 1.515151515151515  24.24242424242424 0 1.515151515151515  25.75757575757576 0 0  25.75757575757576 1.515151515151515 0  25.75757575757576 1.515151515151515 1.515151515151515  25.75757575757576 0 1.515151515151515  27.27272727272727 0 0  27.27272727272727 1.515151515151515 0  27.27272727272727 1.515151515151515 1.515151515151515  27.27272727272727 0 1.515151515151515  28.78787878787879 0 0  28.78787878787879 1.515151515151515 0  28.78787878787879 1.515151515151515 1.515151515151515  28.78787878787879 0 1.515151515151515  30.3030303030303 0 0  30.3030303030303 1.515151515151515 0  30.3030303030303 1.515151515151515 1.515151515151515  30.3030303030303 0 1.515151515151515  31.81818181818182 0 0  31.81818181818182 1.515151515151515 0  31.81818181818182 1.515151515151515 1.515151515151515  31.81818181818182 0 1.515151515151515  33.33333333333334 0 0  33.33333333333334 1.515151515151515 0  33.33333333333334 1.515151515151515 1.515151515151515  33.33333333333334 0 1.515151515151515  34.84848484848485 0 0  34.84848484848485 1.515151515151515 0  34.84848484848485 1.515151515151515 1.515151515151515  34.84848484848485 0 1.515151515151515  36.36363636363637 0 0  36.36363636363637 1.515151515151515 0  36.36363636363637 1.515151515151515 1.515151515151515  36.36363636363637 0 1.515151515151515  37.87878787878788 0 0  37.87878787878788 1.515151515151515 0  37.87878787878788 1.515151515151515 1.515151515151515  37.87878787878788 0 1.515151515151515  39.39393939393939 0 0  39.39393939393939 1.515151515151515 0  39.39393939393939 1.515151515151515 1.515151515151515  39.39393939393939 0 1.515151515151515  40.90909090909091 0 0  40.90909090909091 1.515151515151515 0  40.90909090909091 1.515151515151515 1.515151515151515  40.90909090909091 0 1.515151515151515  42.42424242424242 0 0  42.42424242424242 1.515151515151515 0  42.42424242424242 1.515151515151515 1.515151515151515  42.42424242424242 0 1.515151515151515  43.93939393939394 0 0  43.93939393939394 1.515151515151515 0  43.93939393939394 1.515151515151515 1.515151515151515  43.93939393939394 0 1.515151515151515  45.45454545454545 0 0  45.45454545454545 1.515151515151515 0  45.45454545454545 1.515151515151515 1.515151515151515  45.45454545454545 0 1.515151515151515  46.96969696969697 0 0  46.96969696969697 1.515151515151515 0  46.96969696969697 1.515151515151515 1.515151515151515  46.96969696969697 0 1.515151515151515  48.48484848484848 0 0  48.48484848484848 1.515151515151515 0  48.48484848484848 1.515151515151515 1.515151515151515  48.48484848484848 0 1.515151515151515  50 0 0  50 1.515151515151515 0  50 1.515151515151515 1.515151515151515  50 0 1.515151515151515  10.60606060606061 3.03030303030303 1.515151515151515  12.12121212121212 3.03030303030303 1.515151515151515  13.63636363636364 3.03030303030303 0  13.63636363636364 3.03030303030303 1.515151515151515  15.15151515151515 3.03030303030303 0  15.15151515151515 3.03030303030303 1.515151515151515  16.66666666666667 3.03030303030303 0  16.66666666666667 3.03030303030303 1.515151515151515  18.18181818181818 3.03030303030303 0  18.18181818181818 3.03030303030303 1.515151515151515  19.6969696969697 3.03030303030303 0  19.6969696969697 3.03030303030303 1.515151515151515  21.21212121212121 3.03030303030303 0  21.21212121212121 3.03030303030303 1.515151515151515  22.72727272727273 3.03030303030303 0  22.72727272727273 3.03030303030303 1.515151515151515  24.24242424242424 3.03030303030303 0  24.24242424242424 3.03030303030303 1.515151515151515  25.75757575757576 3.03030303030303 0  25.75757575757576 3.03030303030303 1.515151515151515  27.27272727272727 3.03030303030303 0  27.27272727272727 3.03030303030303 1.515151515151515  28.78787878787879 3.03030303030303 0  28.78787878787879 3.03030303030303 1.515151515151515  30.3030303030303 3.03030303030303 0  30.3030303030303 3.03030303030303 1.515151515151515  31.81818181818182 3.03030303030303 0  31.81818181818182 3.03030303030303 1.515151515151515  33.33333333333334 3.03030303030303 0  33.33333333333334 3.03030303030303 1.515151515151515  34.84848484848485 3.03030303030303 0  34.84848484848485 3.03030303030303 1.515151515151515  36.36363636363637 3.03030303030303 0  36.36363636363637 3.03030303030303 1.515151515151515  37.87878787878788 3.03030303030303 0  37.87878787878788 3.03030303030303 1.515151515151515  39.39393939393939 3.03030303030303 0  39.39393939393939 3.03030303030303 1.515151515151515  40.90909090909091 3.03030303030303 0  40.90909090909091 3.03030303030303 1.515151515151515  42.42424242424242 3.03030303030303 0  42.42424242424242 3.03030303030303 1.515151515151515  43.93939393939394 3.03030303030303 0  43.93939393939394 3.03030303030303 1.515151515151515  45.45454545454545 3.03030303030303 0  45.45454545454545 3.03030303030303 1.515151515151515  46.96969696969697 3.03030303030303 0  46.96969696969697 3.03030303030303 1.515151515151515  48.48484848484848 3.03030303030303 0  48.48484848484848 3.03030303030303 1.515151515151515  50 3.03030303030303 0  50 3.03030303030303 1.515151515151515  16.66666666666667 4.545454545454546 0  16.66666666666667 4.545454545454546 1.515151515151515  18.18181818181818 4.545454545454546 0  18.18181818181818 4.545454545454546 1.515151515151515  19.6969696969697 4.545454545454546 0  19.6969696969697 4.545454545454546 1.515151515151515  21.21212121212121 4.545454545454546 0  21.21212121212121 4.545454545454546 1.515151515151515  22.72727272727273 4.545454545454546 0  22.72727272727273 4.545454545454546 1.515151515151515  24.24242424242424 4.545454545454546 0  24.24242424242424 4.545454545454546 1.515151515151515  25.75757575757576 4.545454545454546 0  25.75757575757576 4.545454545454546 1.515151515151515  27.27272727272727 4.545454545454546 0  27.27272727272727 4.545454545454546 1.515151515151515  28.78787878787879 4.545454545454546 0  28.78787878787879 4.545454545454546 1.515151515151515  30.3030303030303 4.545454545454546 0  30.3030303030303 4.545454545454546 1.515151515151515  31.81818181818182 4.545454545454546 0  31.81818181818182 4.545454545454546 1.515151515151515  33.33333333333334 4.545454545454546 0  33.33333333333334 4.545454545454546 1.515151515151515  34.84848484848485 4.545454545454546 0  34.84848484848485 4.545454545454546 1.515151515151515  36.36363636363637 4.545454545454546 0  36.36363636363637 4.545454545454546 1.515151515151515  37.87878787878788 4.545454545454546 0  37.87878787878788 4.545454545454546 1.515151515151515  39.39393939393939 4.545454545454546 0  39.39393939393939 4.545454545454546 1.515151515151515  40.90909090909091 4.545454545454546 0  40.90909090909091 4.545454545454546 1.515151515151515  42.42424242424242 4.545454545454546 0  42.42424242424242 4.545454545454546 1.515151515151515  43.93939393939394 4.545454545454546 0  43.93939393939394 4.545454545454546 1.515151515151515  45.45454545454545 4.545454545454546 0  45.45454545454545 4.545454545454546 1.515151515151515  46.96969696969697 4.545454545454546 0  46.96969696969697 4.545454545454546 1.515151515151515  48.48484848484848 4.545454545454546 0  48.48484848484848 4.545454545454546 1.515151515151515  50 4.545454545454546 0  50 4.545454545454546 1.515151515151515  18.18181818181818 6.060606060606061 0  18.18181818181818 6.060606060606061 1.515151515151515  19.6969696969697 6.060606060606061 0  19.6969696969697 6.060606060606061 1.515151515151515  21.21212121212121 6.060606060606061 0  21.21212121212121 6.060606060606061 1.515151515151515  22.72727272727273 6.060606060606061 0  22.72727272727273 6.060606060606061 1.515151515151515  24.24242424242424 6.060606060606061 0  24.24242424242424 6.060606060606061 1.515151515151515  25.75757575757576 6.060606060606061 0  25.75757575757576 6.060606060606061 1.515151515151515  27.27272727272727 6.060606060606061 0  27.27272727272727 6.060606060606061 1.515151515151515  28.78787878787879 6.060606060606061 0  28.78787878787879 6.060606060606061 1.515151515151515  30.3030303030303 6.060606060606061 0  30.3030303030303 6.060606060606061 1.515151515151515  31.81818181818182 6.060606060606061 0  31.81818181818182 6.060606060606061 1.515151515151515  33.33333333333334
[...]
<PointData  Scalars="p_O2"> 
<DataArray  type="Float64"  Name="p_O2"  format="ascii">9.9783226483934499e+01  9.9838724324882563e+01  9.9331029417467306e+01  9.7286440234983345e+01  9.9331029417447027e+01  9.9873866939911480e+01  9.9475234249873566e+01  9.7861291715445830e+01  9.9475234249852079e+01  9.9897748691733284e+01  9.9574001041138217e+01  9.8258596924761363e+01  9.9574001041124177e+01  9.9914858694124248e+01  9.9645082939117714e+01  9.8546261719041240e+01  9.9645082939115611e+01  9.9927630758191981e+01  9.9698281959315793e+01  9.8762454817179886e+01  9.9698281959312808e+01  9.9937482863055948e+01  9.9739378670437944e+01  9.8929965403567223e+01  9.9739378670437361e+01  9.9945289429268513e+01  9.9771967413352542e+01  9.9063089965644821e+01  9.9771967413353508e+01  9.9951614996420091e+01  9.9798382163183163e+01  9.9171172993663760e+01  9.9798382163182822e+01  9.9956838059155871e+01  9.9820194110224591e+01  9.9260536398833963e+01  9.9820194110223753e+01  9.9961220499384012e+01  9.9838493534318047e+01  9.9335584001405834e+01  9.9838493534317067e+01  9.9964948392435474e+01  9.9854056748229880e+01  9.9399460984936383e+01  9.9854056748231798e+01  9.9968156963829884e+01  9.9867448798576930e+01  9.9454462173422726e+01  9.9867448798582771e+01  9.9970946379571870e+01  9.9879088739675808e+01  9.9502292846888622e+01  9.9879088739682558e+01  9.9973392029800380e+01  9.9889292296301761e+01  9.9544239916779972e+01  9.9889292296305655e+01  9.9975551391034074e+01  9.9898300416231422e+01  9.9581286877135241e+01  9.9898300416233610e+01  9.9977468696105973e+01  9.9906298751936291e+01  9.9614192459270640e+01  9.9906298751937896e+01  9.9979178157658225e+01  9.9913431143825363e+01  9.9643545199123309e+01  9.9913431143823288e+01  9.9980706208650503e+01  9.9919809022113029e+01  9.9669801566350841e+01  9.9919809022109533e+01  9.9982073052822344e+01  9.9925517943807577e+01  9.9693312525910230e+01  9.9925517943808558e+01  9.9983293711545514e+01  9.9930622042784222e+01  9.9714341656037263e+01  9.9930622042780016e+01  9.9984378684312219e+01  9.9935166886110125e+01  9.9733076807985341e+01  9.9935166886100646e+01  9.9985334293302756e+01  9.9939181036211366e+01  9.9749636516255450e+01  9.9939181036211494e+01  9.9986162748062938e+01  9.9942676478314837e+01  9.9764071804166534e+01  9.9942676478318830e+01  9.9986861939490097e+01  9.9945647962567890e+01  9.9776363585116044e+01  9.9945647962564308e+01  9.9987424951706416e+01  9.9948071218077928e+01  9.9786415476387219e+01  9.9948071218081580e+01  9.9987839304972539e+01  9.9949899945278986e+01  9.9794041511592710e+01  9.9949899945296423e+01  9.9988087625915355e+01  9.9951062117952219e+01  9.9798948143476025e+01  9.9951062117967240e+01  9.9988189583671698e+01  9.9951484822959827e+01  9.9800711190418610e+01  9.9951484822973384e+01  9.6378345326780803e+01  9.7029136094107045e+01  9.9389810916553984e+01  9.7506756579914864e+01  9.9479380216752659e+01  9.7869294027954140e+01  9.9549065082688770e+01  9.8152312553189631e+01  9.9604626371604624e+01  9.8378546686484142e+01  9.9649855812183347e+01  9.8563072427380035e+01  9.9687333149061772e+01  9.8716205392717640e+01  9.9718863730196958e+01  9.8845196573318049e+01  9.9745741853927257e+01  9.8955262575970764e+01  9.9768914891705222e+01  9.9050232475796435e+01  9.9789088715867251e+01  9.9132965806761518e+01  9.9806797215973134e+01  9.9205629499921230e+01  9.9822449164438822e+01  9.9269885320050690e+01  9.9836360387118717e+01  9.9327018946525811e+01  9.9848776138134539e+01  9.9378029989647885e+01  9.9859886761369026e+01  9.9423695137042444e+01  9.9869838607826892e+01  9.9464612251539549e+01  9.9878741474761824e+01  9.9501230462897695e+01  9.9886673370757080e+01  9.9533869465887946e+01  9.9893683095244668e+01  9.9562729975766061e+01  9.9899790888688059e+01  9.9587896365235480e+01  9.9904987226018221e+01  9.9609331765111278e+01  9.9909229665775300e+01  9.9626865252615517e+01  9.9912437547031146e+01  9.9640170120126783e+01  9.9914484864453584e+01  9.9648731698717455e+01  9.9915227260951980e+01  9.9651806600098666e+01  9.9370905748774533e+01  9.7424527676337391e+01  9.9446663653872875e+01  9.7732540608137967e+01  9.9508733209434496e+01  9.7985430187015453e+01  9.9560434887910020e+01  9.8196425934833286e+01  9.9604120985708036e+01  9.8374945343468980e+01  9.9641494950961913e+01  9.8527834335035635e+01  9.9673814075197939e+01  9.8660161335841252e+01  9.9702021703578680e+01  9.8775738721612640e+01  9.9726835535601438e+01  9.8877472968700090e+01  9.9748807796787702e+01  9.8967604311961836e+01  9.9768366912628437e+01  9.9047873324379566e+01  9.9785846702558175e+01  9.9119637952575005e+01  9.9801506926164635e+01  9.9183956077167622e+01  9.9815547653896772e+01  9.9241643361974141e+01  9.9828119062290980e+01  9.9293312732099636e+01  9.9839327673802643e+01  9.9339399532133370e+01  9.9849239657486393e+01  9.9380174811866624e+01  9.9857881505526990e+01  9.9415747986965329e+01  9.9865238157849248e+01  9.9446059142345462e+01  9.9871248428562993e+01  9.9470860355212423e+01  9.9875797410280796e+01  9.9489684534838432e+01  9.9878706050345784e+01  9.9501799565164703e+01  9.9879759637288217e+01  9.9506150350013883e+01  9.9300946154385116e+01  9.7136633081382229e+01  9.9377403930648057e+01  9.7447905086917544e+01  9.9441507939749457e+01  9.7709331379073546e+01  9.9495969308583028e+01  9.7931739781386867e+01  9.9542775120970504e+01  9.8123099047771518e+01  9.9583407002578994e+01  9.8289370524180342e+01  9.9618986241696888e+01  9.8435077862778968e+01  9.9650372191898526e+01  9.8563695670435038e+01  9.9678230196758975e+01  9.8677919093954088e+01  9.9703079143386191e+01  9.8779853300922937e+01  9.9725325066808750e+01  9.8871147804660907e+01  9.9745284953562347e+01  9.8953091849868585e+01  9.9763203451458807e+01  9.9026681492583705e+01  9.9779264250740425e+01  9.9092665334935532e+01  9.9793597264999079e+01  9.9151573371559891e+01  9.9806282286499979e+01  9.9203731612613851e+01  9.9817349446538614e+01  9.9249263777165098e+01  9.9826776524599595e+01  9.9288080200748681e+01  9.9834482888299490e+01  9.9319853030655779e+01  9.9840319620638510e+01  9.9343975701435497e+01  9.9844055883615027e+01  9.9359503787939332e+01  9.9845408546076129e+01  9.9365080410997379e+01  9.6957259650672668e+01  9.9332033499175623e+01  9.7260956958379012e+01  9.9395722877949410e+01  9.7520942110573799e+01  9.9450748402635426e+01  9.7745819811915410e+01  9.9498730623087440e+01  9.7942099658062148e+01  9.9540907676868443e+01  9.8114769340984893e+01  9.9578236289509164e+01  9.8267691984121186e+01  9.9611462431315289e+01  9.8403885606752524e+01  9.9641171349048278e+01  9.8525721869169629e+01  9.9667823248109642e+01  9.8635068303795265e+01  9.9691778735898126e+01  9.8733390000666958e+01  9.9713316738324110e+01  9.8821821340846640e+01  9.9732646670775608e+01  9.8901214761822445e+01  9.9749916000647019e+01  9.8972171022970656e+01  9.9765213870869502e+01  9.9035053594926467e+01  9.9778571087938232e+01  9.9089988344231770e+01  9.9789956464969322e+01  9.9136848430953123e+01  9.9799269216035754e+01  9.9175223136655063e+01  9.9806326836712216e+01  9.9204368098009951e+01  9.9810848371068516e+01  9.9223133366453894e+01  9.9812484878111334e+01  9.9229873038309648e+01  9.7399487399179861e+01  9.9420580304777999e+01  9.7621601507254397e+01  9.9468522017928493e+01  9.7817825471717711e+01  9.9511106967374403e+01  9.7992243215855225e+01  9.9549130583427456e+01  9.8148069203785255e+01  9.9583220867631638e+01  9.8287845668849229e+01  9.9613874214321754e+01  9.8413584987152220e+01  9.9641481099183451e+01  9.8526872058793003e+01  9.9666344197306458e+01  9.8628936643110379e+01  9.9688690619591327e+01  9.8720702229912561e+01  9.9708679339974609e+01  9.8802815632054248e+01  9.9726404426741212e+01  9.8875659680372152e+01  9.9741894320718842e+01  9.8939349937373436e+01  9.9755107078585539e+01  9.8993715041890553e+01  9.9765921181159243e+01  9.9038259006368122e+01  9.9774121219465272e+01  9.9072102425716253e+01  9.9779378215860575e+01  9.9093898375138110e+01  9.9781280645675750e+01  9.9101727316978042e+01  9.7546471675254509e+01  9.9449508709560007e+01  9.7739497051144596e+01  9.9491735292052667e+01  9.7912521033425932e+01  9.9529702468703448e+01  9.8068170729113319e+01  9.9563926387397970e+01  9.8208536571800522e+01  9.9594814603902208e+01  9.8335271236079848e+01  9.9622683618717915e+01  9.8449659433930279e+01  9.9647770597488915e+01  9.8552664551318017e+01  9.9670240239051580e+01  9.8644955857996308e+01  9.9690187316268833e+01  9.8726918305437280e+01  9.9707635052773469e+01  9.8798645492627500e+01  9.9722529166268032e+01  9.8859915056124592e+01  9.9734727080471345e+01  9.8910144396986013e+01  9.9743981498062809e+01  9.8948323200398974e+01  9.9749917958496738e+01  9.8972917934794012e+01  9.9752066147782472e+01  9.8981753228288426e+01  9.7698790047995843e+01  9.9480989183549056e+01  9.7868225905495947e+01  9.9518343162494006e+01  9.8021412986034150e+01  9.9552130251834086e+01  9.8160027104993574e+01  9.9582672118518772e+01  9.8285372702771241e+01  9.9610209246363723e+01  9.8398425630354410e+01  9.9634906942916615e+01  9.8499856764057668e+01  9.9656856978150770e+01  9.8590038054230646e+01  9.9676074928084788e+01  9.8669031217861516e+01  9.9692492965646153e+01  9.8736557964637996e+01  9.9705947503025598e+01  9.8791949265676621e+01  9.9716160764060788e+01  9.8834069651569436e+01  9.9722715790600986e+01  9.8861211195758955e+01  9.9725087792308997e+01  9.8870962660642007e+01  9.7853372584850135e+01  9.8002295691428429e+01  9.9546587354702822e+01  9.8137215458906837e+01  9.9576277704416185e+01  9.8259097976857220e+01  9.9602942734028900e+01  9.8368598826442138e+01  9.9626668249898628e+01  9.8466064907497895e+01  9.9647460352398141e+01  9.8551518614954986e+01  9.9665236973354709e+01  9.8624622903497510e+01  9.9679814014848290e+01  9.8684624376355060e+01  9.9690885067658073e+01  9.8730269960912906e+01  9.9697994101979091e+01  9.8759691364772650e+01  9.9700566625804456e+01  9.8770263364013672e+01  9.8135592815896388e+01  9.9574567406694840e+01  9.8252084041251223e+01  9.9599837119540425e+01  9.8355885372862289e+01  9.9622002710257732e+01  9.8446975404078458e+01  9.9640967769359122e+01  9.8524957961000595e+01  9.9656528702995544e+01  9.8588999446042322e+01  9.9668352771095797e+01  9.8637738615660751e+01  9.9675948720031244e+01  9.8669162584364599e+01  9.9678697534812073e+01  9.8680455666332236e+01  9.9599879565986811e+01  9.8356130482281188e+01  9.9619860686265781e+01  9.8438282944441454e+01  9.9636264453890945e+01  9.8505784302347124e+01  9.9648734555497114e+01  9.8557176447504318e+01  9.9656748754618661e+01  9.8590319294199304e+01  9.9659649032417150e+01  9.8602231598198486e+01  9.8365194747961368e+01  9.9619165796756633e+01  9.8435572359156609e+01  9.9632173942084080e+01  9.8489172776764946e+01  9.9640536921933261e+01  9.8523747563644747e+01  9.9643563515331806e+01  9.8536175944103192e+01  9.8434209000115914e+01  9.9627430207540414e+01  9.8469927809684251e+01  9.9630557851815624e+01  9.8482768655657836e+01  9.6378345326748672e+01  9.9108628590080045e+01  9.8875477527162644e+01  9.5454545871776276e+01  9.7029136093957305e+01  9.9271253761500816e+01  9.7506756579703904e+01  9.9389810916466175e+01  9.7869294028101905e+01  9.9479380216770835e+01  9.8152312553260643e+01  9.9549065082702796e+01  9.8378546686523094e+01  9.9604626371613293e+01  9.8563072427402346e+01  9.9649855812186871e+01  9.8716205392735333e+01  9.9687333149069232e+01  9.8845196573350393e+01  9.9718863730209151e+01  9.8955262576031927e+01  9.9745741853945532e+01  9.9050232475875362e+01  9.9768914891732067e+01  9.9132965806844425e+01  9.9789088715898572e+01  9.9205629499989229e+01  9.9806797215999737e+01  9.9269885320092556e+01  9.9822449164453417e+01  9.9327018946542225e+01  9.9836360387127684e+01  9.9378029989651253e+01  9.9848776138138504e+01  9.9423695137042515e+01  9.9859886761364095e+01  9.9464612251555792e+01  9.9869838607835675e+01  9.9501230462925449e+01  9.9878741474762649e+01  9.9533869465920489e+01  9.9886673370763262e+01  9.9562729975755573e+01  9.9893683095241315e+01  9.9587896365205310e+01  9.9899790888677288e+01  9.9609331765057263e+01  9.9904987226017809e+01  9.9626865252567896e+01  9.9909229665753273e+01  9.9640170120108621e+01  9.9912437547043623e+01  9.9648731698749444e+01  9.9914484864473891e+01  9.9651806600176471e+01  9.9915227261001576e+01  9.3862559393975303e+01  9.4929252661897806e+01  9.5722608528484272e+01  9.6330737184800043e+01  9.6809017270358609e+01  9.7193545829978817e+01  9.7508618205142639e+01  9.7771052051165796e+01  9.7992778147434123e+01  9.8182443996558490e+01  9.8346435763564088e+01  9.8489546665537276e+01  9.8615424213646421e+01  9.8726875388244537e+01  9.8826078206790100e+01  9.8914730052050302e+01  9.8994152141530336e+01  9.9065362662885761e+01  9.9129126693534232e+01  9.9185988089107639e+01  9.9236286479718530e+01  9.9280160990909735e+01  9.9317541068828376e+01  9.9348123667105227e+01  9.9371334906643369e+01  9.9386273087640873e+01  9.9391635987568563e+01  9.4092412400867900e+01  9.4905320385142758e+01  9.5551291708397599e+01  9.6074897732207347e+01  9.6506749252889279e+01  9.6868379046049597e+01  9.7175262597261522e+01  9.7438736429856533e+01  9.7667246390702104e+01  9.7867178197206115e+01  9.8043421123511393e+01  9.8199757177429859e+01  9.8339133521124239e+01  9.8463854941780056e+01  9.8575720189873692e+01  9.8676117745482600e+01  9.8766091174774544e+01  9.8846380584528006e+01  9.8917444089858037e+01  9.8979461243369897e+01  9.9032318741620188e+01  9.9075577210359327e+01  9.9108416295954257e+01  9.9129553664288679e+01  9.9137141842442787e+01  9.5042544637591874e+01  9.5574157780234856e+01  9.6022265400844404e+01  9.6404627153875182e+01  9.6734418971130253e+01  9.7021562249565207e+01  9.7273626143037490e+01  9.7496450369067475e+01  9.7694581334413016e+01  9.7871581014417004e+01  9.8030247231495508e+01  9.8172770757588083e+01  9.8300846067395383e+01  9.8415746825162955e+01  9.8518373215005397e+01  9.8609275340374595e+01  9.8688654675120318e+01  9.8756343635971419e+01  9.8811761528013349e+01  9.8853843194210100e+01  9.8880934719445932e+01  9.8890660819548486e+01  9.4722564449625750e+01  9.5243179877154716e+01  9.5690181329955593e+01  9.6077767893437070e+01  9.6416755629059907e+01  9.6715478631856072e+01  9.6980421922042524e+01  9.7216671297392523e+01  9.7428235935768541e+01  9.7618280758287781e+01  9.7789293315645665e+01  9.7943201799161187e+01  9.8081455194904748e+01  9.8205072639547168e+01  9.8314666082267479e+01  9.8410437989268331e+01  9.8492153743242952e+01  9.8559086353463897e+01  9.8609928892557406e+01  9.8642667791891441e+01  9.8654422298606292e+01  9.4537821709837203e+01  9.5038372843855583e+01  9.5474861718547047e+01  9.5858492135007680e+01  9.6197984228746193e+01  9.6500183548193306e+01  9.6770499938669772e+01  9.7013225968072263e+01  9.7231768407511908e+01  9.7428815495992552e+01  9.7606455382499220e+01  9.7766256004680201e+01  9.7909312926947393e+01  9.8036268788113986e+01  9.8147305629902732e+01  9.8242109209011829e+01  9.8319802210133489e+01  9.8378840865256223e+01  9.8416866958145945e+01  9.8430521203655687e+01  9.5725026471910837e+01  9.6059482906319658e+01  9.6359646670978492e+01  9.6629947470509222e+01  9.6873919688730325e+01  9.7094363077289458e+01  9.7293456357740951e+01  9.7472832882488447e+01  9.7633624068136015e+01  9.7776473598047872e+01  9.7901523064679566e+01  9.8008367526098681e+01  9.8095977174102174e+01  9.8162578738731312e+01  9.8205487546484733e+01  9.8220896926256572e+01  9.5986817624188689e+01  9.6281070914344667e+01  9.6547336876261710e+01  9.6788450363545039e+01  9.7006620275505313e+01  9.7203498294302534e+01  9.7380215880374763e+01  9.7537391799343951e+01  9.7675110202960525e+01  9.7792867093407594e+01  9.7889480662748426e+01  9.7962958311828956e+01  9.8010310318737325e+01  9.8027317562754490e+01  9.6254044707174430e+01  9.6513097555250226e+01  9.6747937360185674e+01  9.6960196054020059e+01  9.7150976175676121e+01  9.7320850943706375e+01  9.7469834386285953e+01  9.7597318742090707e+01  9.7701973973524602e+01  9.7781601458861815e+01  9.7832931008236926e+01  9.7851369328152344e+01  9.6518999366328401e+01  9.6744518844164077e+01  9.6947481328334973e+01  9.7128400242144707e+01  9.7287211950253280e+01  9.7423204484719420e+01  9.7534907015594513e+01  9.7619931482376202e+01  9.7674754848168732e+01  9.7694450799870594e+01  9.6961324246775590e+01  9.7128516832179955e+01  9.7271782308724397e+01  9.7389520300565266e+01  9.7479173155018444e+01  9.7536995434429954e+01  9.7557771369662120e+01  9.7144095509076820e+01  9.7266850982188942e+01  9.7360356442242619e+01  9.7420677033174584e+01  9.7442353059288166e+01  9.7167741568499821e+01  9.7264322743043465e+01  9.7326639307981807e+01  9.7349034717004486e+01  9.7278477551725686e+01  9.5085013951854577e+01  9.8788912333193622e+01  9.5928096701337381e+01  9.9000083044291657e+01  9.6557870047658653e+01  9.9156732761254617e+01  9.7042355496993125e+01  9.9276651830665998e+01  9.7424527676721041e+01  9.9370905748789738e+01  9.7732540608256329e+01  9.9446663653902249e+01  9.7985430187084120e+01  9.9508733209452515e+01  9.8196425934880182e+01  9.9560434887919442e+01  9.8374945343534094e+01  9.9604120985719817e+01  9.8527834335167370e+01  9.9641494951003324e+01  9.8660161336029446e+01  9.9673814075256786e+01  9.8775738721806704e+01  9.9702021703636348e+01  9.8877472968846462e+01  9.9726835535648163e+01  9.8967604312045168e+01  9.9748807796812102e+01  9.9047873324404407e+01  9.9768366912637831e+01  9.9119637952572830e+01  9.9785846702564228e+01  9.9183956077184575e+01  9.9801506926176813e+01  9.9241643362023680e+01  9.9815547653918387e+01  9.9293312732171756e+01  9.9828119062309625e+01  9.9339399532193440e+01  9.9839327673827626e+01  9.9380174811853252e+01  9.9849239657491722e+01  9.9415747986903270e+01  9.9857881505514158e+01  9.9446059142227213e+01  9.9865238157813806e+01  9.9470860355076141e+01  9.9871248428537058e+01  9.9489684534718592e+01  9.9875797410261455e+01  9.9501799565080844e+01  9.9878706050325476e+01  9.9506150349971975e+01  9.9879759637317434e+01  9.1663319994974827e+01  9.3045926599559095e+01  9.4092412401029634e+01  9.4905320385354315e+01  9.5551291708500770e+01  9.6074897732333923e+01  9.6506749252978025e+01  9.6868379046123692e+01  9.7175262597346531e+01  9.7438736429986008e+01  9.7667246390874197e+01  9.7867178197371643e+01  9.8043421123626132e+01  9.8199757177480052e+01  9.8339133521129895e+01  9.8463854941770123e+01  9.8575720189889537e+01  9.8676117745540239e+01  9.8766091174834955e+01  9.8846380584562056e+01  9.8917444089860624e+01  9.8979461243300037e+01  9.9032318741489178e+01  9.9075577210197451e+01  9.9108416295825293e+01  9.9129553664131691e+01  9.9137141842232154e+01  9.0455547151223271e+01  8.8662558292039890e+01  9.1836485926925732e+01  9.2923473160016684e+01  9.3796145810882663e+01  9.4509270503257156e+01  9.5101277329691939e+01  9.5599661359863617e+01  9.6024453313792279e+01  9.6390489542970229e+01  9.6708924180223875e+01  9.6988254492717303e+01  9.7235027630421300e+01  9.7454334797932020e+01  9.7650160753778096e+01  9.7825632759212894e+01  9.7983197977284505e+01  9.8124748498794233e+01  9.8251706620728655e+01  9.8365078482613953e+01  9.8465480895556638e+01  9.8553143664663054e+01  9.8627887554138269e+01  9.8689076003724793e+01  9.8735536545539503e+01  9.8765445678926653e+01  9.8776182753188039e+01  9.1136693350225244e+01  9.2192388369251475e+01  9.3063465989867709e+01  9.3792352542363474e+01  9.4410003751921067e+01  9.4939336858127788e+01  9.5397553386083345e+01  9.5797729920082361e+01  9.6149921568544556e+01  9.6461936969236078e+01  9.6739888655540810e+01  9.6988587255288039e+01  9.7211825091983798e+01  9.7412579723197993e+01  9.7593157905807729e+01  9.7755293603722777e+01  9.7900208788911939e+01  9.8028642172977101e+01  9.8140848126278016e+01  9.8236565525615518e+01  9.8314953821929222e+01  9.8374490983575527e+01  9.8412825283480132e+01  9.8426587664687119e+01  9.2596414207332543e+01  9.3314106899986641e+01  9.3933002515604983e+01  9.4471578570049971e