<?xml version="1.0"?>
<VTKFile type="UnstructuredGrid"  version="0.1"  >
<UnstructuredGrid>
<Piece  NumberOfPoints="10313" NumberOfCells="53486">
<Points>
<DataArray  type="Float64"  NumberOfComponents="3"  format="ascii">9.090909090909092 1.515151515151515 0  10.60606060606061 1.515151515151515 0  10.60606060606061 3.03030303030303 0  10.60606060606061 3.03030303030303 1.515151515151515  9.090909090909092 3.03030303030303 0  9.090909090909092 1.515151515151515 1.515151515151515  9.090909090909092 3.03030303030303 1.515151515151515  12.12121212121212 1.515151515151515 0  12.12121212121212 3.03030303030303 0  12.12121212121212 3.03030303030303 1.515151515151515  13.63636363636364 3.03030303030303 0  13.63636363636364 3.03030303030303 1.515151515151515  10.60606060606061 4.545454545454546 0  10.60606060606061 4.545454545454546 1.515151515151515  9.090909090909092 4.545454545454546 0  9.090909090909092 4.545454545454546 1.515151515151515  12.12121212121212 4.545454545454546 0  12.12121212121212 4.545454545454546 1.515151515151515  13.63636363636364 4.545454545454546 0  13.63636363636364 4.545454545454546 1.515151515151515  15.15151515151515 3.03030303030303 0  15.15151515151515 4.545454545454546 0  15.15151515151515 4.545454545454546 1.515151515151515  15.15151515151515 3.03030303030303 1.515151515151515  16.66666666666667 4.545454545454546 0  16.66666666666667 4.545454545454546 1.515151515151515  10.60606060606061 6.060606060606061 0  10.60606060606061 6.060606060606061 1.515151515151515  9.090909090909092 6.060606060606061 0  9.090909090909092 6.060606060606061 1.515151515151515  12.12121212121212 6.060606060606061 0  12.12121212121212 6.060606060606061 1.515151515151515  13.63636363636364 6.060606060606061 0  13.63636363636364 6.060606060606061 1.515151515151515  15.15151515151515 6.060606060606061 0  15.15151515151515 6.060606060606061 1.515151515151515  16.66666666666667 6.060606060606061 0  16.66666666666667 6.060606060606061 1.515151515151515  18.18181818181818 6.060606060606061 0  18.18181818181818 6.060606060606061 1.515151515151515  10.60606060606061 7.575757575757576 0  10.60606060606061 7.575757575757576 1.515151515151515  9.090909090909092 7.575757575757576 0  9.090909090909092 7.575757575757576 1.515151515151515  12.12121212121212 7.575757575757576 0  12.12121212121212 7.575757575757576 1.515151515151515  13.63636363636364 7.575757575757576 0  13.63636363636364 7.575757575757576 1.515151515151515  15.15151515151515 7.575757575757576 0  15.15151515151515 7.575757575757576 1.515151515151515  16.66666666666667 7.575757575757576 0  16.66666666666667 7.575757575757576 1.515151515151515  18.18181818181818 7.575757575757576 0  18.18181818181818 7.575757575757576 1.515151515151515  19.6969696969697 6.060606060606061 0  19.6969696969697 7.575757575757576 0  19.6969696969697 7.575757575757576 1.515151515151515  21.21212121212121 7.575757575757576 0  21.21212121212121 7.575757575757576 1.515151515151515  10.60606060606061 9.090909090909092 0  10.60606060606061 9.090909090909092 1.515151515151515  9.090909090909092 9.090909090909092 0  9.090909090909092 9.090909090909092 1.515151515151515  12.12121212121212 9.090909090909092 0  12.12121212121212 9.090909090909092 1.515151515151515  13.63636363636364 9.090909090909092 0  13.63636363636364 9.090909090909092 1.515151515151515  15.15151515151515 9.090909090909092 0  15.15151515151515 9.090909090909092 1.515151515151515  16.66666666666667 9.090909090909092 0  16.66666666666667 9.090909090909092 1.515151515151515  18.18181818181818 9.090909090909092 0  18.18181818181818 9.090909090909092 1.515151515151515  19.6969696969697 9.090909090909092 0  19.6969696969697 9.090909090909092 1.515151515151515  21.21212121212121 9.090909090909092 0  21.21212121212121 9.090909090909092 1.515151515151515  22.72727272727273 7.575757575757576 0  22.72727272727273 9.090909090909092 0  22.72727272727273 9.090909090909092 1.515151515151515  22.72727272727273 7.575757575757576 1.515151515151515  24.24242424242424 7.575757575757576 0  24.24242424242424 9.090909090909092 0  24.24242424242424 9.090909090909092 1.515151515151515  25.75757575757576 9.090909090909092 0  25.75757575757576 9.090909090909092 1.515151515151515  10.60606060606061 10.60606060606061 0  10.60606060606061 10.60606060606061 1.515151515151515  9.090909090909092 10.60606060606061 0  9.090909090909092 10.60606060606061 1.515151515151515  12.12121212121212 10.60606060606061 0  12.12121212121212 10.60606060606061 1.515151515151515  13.63636363636364 10.60606060606061 0  13.63636363636364 10.60606060606061 1.515151515151515  15.15151515151515 10.60606060606061 0  15.15151515151515 10.60606060606061 1.515151515151515  16.66666666666667 10.60606060606061 0  16.66666666666667 10.60606060606061 1.515151515151515  18.18181818181818 10.60606060606061 0  18.18181818181818 10.60606060606061 1.515151515151515  19.6969696969697 10.60606060606061 0  19.6969696969697 10.60606060606061 1.515151515151515  21.21212121212121 10.60606060606061 0  21.21212121212121 10.60606060606061 1.515151515151515  22.72727272727273 10.60606060606061 0  22.72727272727273 10.60606060606061 1.515151515151515  24.24242424242424 10.60606060606061 0  24.24242424242424 10.60606060606061 1.515151515151515  25.75757575757576 10.60606060606061 0  25.75757575757576 10.60606060606061 1.515151515151515  27.27272727272727 9.090909090909092 0  27.27272727272727 10.60606060606061 0  27.27272727272727 10.60606060606061 1.515151515151515  28.78787878787879 10.60606060606061 0  28.78787878787879 10.60606060606061 1.515151515151515  10.60606060606061 12.12121212121212 0  10.60606060606061 12.12121212121212 1.515151515151515  9.090909090909092 12.12121212121212 0  9.090909090909092 12.12121212121212 1.515151515151515  12.12121212121212 12.12121212121212 0  12.12121212121212 12.12121212121212 1.515151515151515  13.63636363636364 12.12121212121212 0  13.63636363636364 12.12121212121212 1.515151515151515  15.15151515151515 12.12121212121212 0  15.15151515151515 12.12121212121212 1.515151515151515  16.66666666666667 12.12121212121212 0  16.66666666666667 12.12121212121212 1.515151515151515  18.18181818181818 12.12121212121212 0  18.18181818181818 12.12121212121212 1.515151515151515  19.6969696969697 12.12121212121212 0  19.6969696969697 12.12121212121212 1.515151515151515  21.21212121212121 12.12121212121212 0  21.21212121212121 12.12121212121212 1.515151515151515  22.72727272727273 12.12121212121212 0  22.72727272727273 12.12121212121212 1.515151515151515  24.24242424242424 12.12121212121212 0  24.24242424242424 12.12121212121212 1.515151515151515  25.75757575757576 12.12121212121212 0  25.75757575757576 12.12121212121212 1.515151515151515  27.27272727272727 12.12121212121212 0  27.27272727272727 12.12121212121212 1.515151515151515  28.78787878787879 12.12121212121212 0  28.78787878787879 12.12121212121212 1.515151515151515  30.3030303030303 10.60606060606061 0  30.3030303030303 12.12121212121212 0  30.3030303030303 12.12121212121212 1.515151515151515  31.81818181818182 12.12121212121212 0  31.81818181818182 12.12121212121212 1.515151515151515  10.60606060606061 13.63636363636364 0  10.60606060606061 13.63636363636364 1.515151515151515  9.090909090909092 13.63636363636364 0  9.090909090909092 13.63636363636364 1.515151515151515  12.12121212121212 13.63636363636364 0  12.12121212121212 13.63636363636364 1.515151515151515  13.63636363636364 13.63636363636364 0  13.63636363636364 13.63636363636364 1.515151515151515  15.15151515151515 13.63636363636364 0  15.15151515151515 13.63636363636364 1.515151515151515  16.66666666666667 13.63636363636364 0  16.66666666666667 13.63636363636364 1.515151515151515  18.18181818181818 13.63636363636364 0  18.18181818181818 13.63636363636364 1.515151515151515  19.6969696969697 13.63636363636364 0  19.6969696969697 13.63636363636364 1.515151515151515  21.21212121212121 13.63636363636364 0  21.21212121212121 13.63636363636364 1.515151515151515  22.72727272727273 13.63636363636364 0  22.72727272727273 13.63636363636364 1.515151515151515  24.24242424242424 13.63636363636364 0  24.24242424242424 13.63636363636364 1.515151515151515  25.75757575757576 13.63636363636364 0  25.75757575757576 13.63636363636364 1.515151515151515  27.27272727272727 13.63636363636364 0  27.27272727272727 13.63636363636364 1.515151515151515  28.78787878787879 13.63636363636364 0  28.78787878787879 13.63636363636364 1.515151515151515  30.3030303030303 13.63636363636364 0  30.3030303030303 13.63636363636364 1.515151515151515  31.81818181818182 13.63636363636364 0  31.81818181818182 13.63636363636364 1.515151515151515  33.33333333333334 12.12121212121212 0  33.33333333333334 13.63636363636364 0  33.33333333333334 13.63636363636364 1.515151515151515  34.84848484848485 12.12121212121212 0  34.84848484848485 13.63636363636364 0  34.84848484848485 13.63636363636364 1.515151515151515  36.36363636363637 13.63636363636364 0  36.36363636363637 13.63636363636364 1.515151515151515  10.60606060606061 15.15151515151515 0  10.60606060606061 15.15151515151515 1.515151515151515  9.090909090909092 15.15151515151515 0  9.090909090909092 15.15151515151515 1.515151515151515  12.12121212121212 15.15151515151515 0  12.12121212121212 15.15151515151515 1.515151515151515  13.63636363636364 15.15151515151515 0  13.63636363636364 15.15151515151515 1.515151515151515  15.15151515151515 15.15151515151515 0  15.15151515151515 15.15151515151515 1.515151515151515  16.66666666666667 15.15151515151515 0  16.66666666666667 15.15151515151515 1.515151515151515  18.18181818181818 15.15151515151515 0  18.18181818181818 15.15151515151515 1.515151515151515  19.6969696969697 15.15151515151515 0  19.6969696969697 15.15151515151515 1.515151515151515  21.21212121212121 15.15151515151515 0  21.21212121212121 15.15151515151515 1.515151515151515  22.72727272727273 15.15151515151515 0  22.72727272727273 15.15151515151515 1.515151515151515  24.24242424242424 15.15151515151515 0  24.24242424242424 15.15151515151515 1.515151515151515  
[...]
<PointData  Scalars="p_O2"> 
<DataArray  type="Float64"  Name="p_O2"  format="ascii">9.9331029417467306e+01  9.9475234249873566e+01  9.9108628590098832e+01  9.6378345326780803e+01  9.8875477527190654e+01  9.7286440234983345e+01  9.5454545871813266e+01  9.9574001041138217e+01  9.9271253761511900e+01  9.7029136094107045e+01  9.9389810916553984e+01  9.7506756579914864e+01  9.8788912333205147e+01  9.5085013951901047e+01  9.8493179994297662e+01  9.3916360853046044e+01  9.9000083044293874e+01  9.5928096701343463e+01  9.9156732761249756e+01  9.6557870047602961e+01  9.9479380216752659e+01  9.9276651830631735e+01  9.7042355496874862e+01  9.7869294027954140e+01  9.9370905748774533e+01  9.7424527676337391e+01  9.8522123383532744e+01  9.4004696506149003e+01  9.8188243171789694e+01  9.2686974892700292e+01  9.8766291841250862e+01  9.4978352383956093e+01  9.8950863127166500e+01  9.5719555113254444e+01  9.9094282355090229e+01  9.6298394977633279e+01  9.9208362082334517e+01  9.6760526572523602e+01  9.9300946154385116e+01  9.7136633081382229e+01  9.8306509406992134e+01  9.3130333159015862e+01  9.7952798917291659e+01  9.1735341137263148e+01  9.8570676123028747e+01  9.4183023407870607e+01  9.8773959722984770e+01  9.4998844419606939e+01  9.8934294527025443e+01  9.5645560744991414e+01  9.9063425524760021e+01  9.6168365845892097e+01  9.9169318316768738e+01  9.6598308857851819e+01  9.9377403930648057e+01  9.9257530618101299e+01  9.6957259650672668e+01  9.9332033499175623e+01  9.7260956958379012e+01  9.8135946192809456e+01  9.2437548088499895e+01  9.7774265785615640e+01  9.1011891698980406e+01  9.8410614919064741e+01  9.3531592145710846e+01  9.8625256080874877e+01  9.4392635083227745e+01  9.8796878048174520e+01  9.5084606793098999e+01  9.8936756992638919e+01  9.5650716038037928e+01  9.9052651879473657e+01  9.6121104531054286e+01  9.9150057228122876e+01  9.6517333294480011e+01  9.9232955368078493e+01  9.6855148730167130e+01  9.9395722877949410e+01  9.9304289077752472e+01  9.7146255408305237e+01  9.7520942110573799e+01  9.9450748402635426e+01  9.9366269162103663e+01  9.7399487399179861e+01  9.9420580304777999e+01  9.7621601507254397e+01  9.8002810023024509e+01  9.1895935932737615e+01  9.7639993140115791e+01  9.0466549082074962e+01  9.8281730854794148e+01  9.3006493747958146e+01  9.8502396325430169e+01  9.3891426529597737e+01  9.8680910143526617e+01  9.4610985626393898e+01  9.8827974885408523e+01  9.5206023759922715e+01  9.8951003721438042e+01  9.5705246765077547e+01  9.9055293884648933e+01  9.6129385475977344e+01  9.9144723786099249e+01  9.6493740344141415e+01  9.9222189286990698e+01  9.6809806712052790e+01  9.9289888028842114e+01  9.7086351037857781e+01  9.9349510719885600e+01  9.7330144071814942e+01  9.9468522017928493e+01  9.9402373087893508e+01  9.7546471675254509e+01  9.9449508709560007e+01  9.7739497051144596e+01  9.7899716981419843e+01  9.1475948132314244e+01  9.7539254486236388e+01  9.0056611754949586e+01  9.8179143475315612e+01  9.2588108163857044e+01  9.8402270433680030e+01  9.3482667267842302e+01  9.8584492727580923e+01  9.4217011704658688e+01  9.8735994994653041e+01  9.4829886554479415e+01  9.8863829467998201e+01  9.5348519354784969e+01  9.8973050709871373e+01  9.5792640541290808e+01  9.9067379071331459e+01  9.6176894405343347e+01  9.9149610912511960e+01  9.6512359831877518e+01  9.9221883958300637e+01  9.6807549787717420e+01  9.9285855240533508e+01  9.7069090182814037e+01  9.9342823856966191e+01  9.7302193056727305e+01  9.9393817535940556e+01  9.7510993037098501e+01  9.9491735292052667e+01  9.9439654664796933e+01  9.7698790047995843e+01  9.9480989183549056e+01  9.7868225905495947e+01  9.7820303819342456e+01  9.1152030345212140e+01  9.7463671618437871e+01  8.9748551308445201e+01  9.8098219483720925e+01  9.2257766189794964e+01  9.8321614664951483e+01  9.3153167028408376e+01  9.8505395683428091e+01  9.3893648501545826e+01  9.8659344842590286e+01  9.4516324430904234e+01  9.8790201872190337e+01  9.5047149275859113e+01  9.8902788044678147e+01  9.5504898830831891e+01  9.9000654525341815e+01  9.5903522056006366e+01  9.9086477790676369e+01  9.6253602976256147e+01  9.9162312378855134e+01  9.6563309590493930e+01  9.9229758834838734e+01  9.6839032347993736e+01  9.9290078853090364e+01  9.7085826402641899e+01  9.9344276170266838e+01  9.7307724932153491e+01  9.9393154416118136e+01  9.7507964737196914e+01  9.9437358933776295e+01  9.7689150206985218e+01  9.9518343162494006e+01  9.9477407075994648e+01  9.7853372584850135e+01  9.9552130251834086e+01  9.9513709923345786e+01  9.8002295691428429e+01  9.9546587354702822e+01  9.8137215458906837e+01  9.7759428365338252e+01  9.0903464602837445e+01  9.7406972343082288e+01  8.9517155521305341e+01  9.8034926704172193e+01  9.1999183372368591e+01  9.8257373697415886e+01  9.2890558613493482e+01  9.8441369371398807e+01  9.3631771324964859e+01  9.8596412711434084e+01  9.4258788274519475e+01  9.8729001021119018e+01  9.4796578633525215e+01  9.8843758352189298e+01  9.5263113819836491e+01  9.8944080938842234e+01  9.5671708834884669e+01  9.9032526626583220e+01  9.6032460776086552e+01  9.9111060912408306e+01  9.6353171065786711e+01  9.9181218614573680e+01  9.6639958741246701e+01  9.9244213629161706e+01  9.6897680955567196e+01  9.9301015412638648e+01  9.7130228400103377e+01  9.9352403314758789e+01  9.7340736571983143e+01  9.9399005626639891e+01  9.7531738409192386e+01  9.9441327693282403e+01  9.7705274606798227e+01  9.9479771892288213e+01  9.7862972194529007e+01  9.9514651283006884e+01  9.8006098220082521e+01  9.9576277704416185e+01  9.9546198054215878e+01  9.8135592815896388e+01  9.9574567406694840e+01  9.8252084041251223e+01  9.7713092958165817e+01  9.0714098666539655e+01  9.7985940611378354e+01  9.1798904808248935e+01  9.8206880533672603e+01  9.2684030222149644e+01  9.8390336566480016e+01  9.3422945962551040e+01  9.8545622708104204e+01  9.4050870219390660e+01  9.8679062170486290e+01  9.4592065291660603e+01  9.8795125777504765e+01  9.5063878606355615e+01  9.8897080831733234e+01  9.5479098719106375e+01  9.8987380119241635e+01  9.5847392702115826e+01  9.9067905563905938e+01  9.6176219110687910e+01  9.9140126740981984e+01  9.6471428724789035e+01  9.9205207382229844e+01  9.6737671991993139e+01  9.9264078848772272e+01  9.6978682288676310e+01  9.9317491831108200e+01  9.7197476501270160e+01  9.9366053163365464e+01  9.7396498563479412e+01  9.9410252067136042e+01  9.7577722139711497e+01  9.9450478566988693e+01  9.7742722803694505e+01  9.9487035815323736e+01  9.7892726288993558e+01  9.9520147386217303e+01  9.8028636817228119e+01  9.9549960110241230e+01  9.8151047630579313e+01  9.9599837119540425e+01  9.9576542635840909e+01  9.8260234354960360e+01  9.8355885372862289e+01  9.9599879565986811e+01  9.8356130482281188e+01  9.7948622295969514e+01  9.1646230690738165e+01  9.7678270254736915e+01  9.0571671840374407e+01  9.8167919380963596e+01  9.2524586772069696e+01  9.8350493325752879e+01  9.3259840537923850e+01  9.8505545148020772e+01  9.3886753005166753e+01  9.8639280489429638e+01  9.4429109209250157e+01  9.8756058495549183e+01  9.4903802062282708e+01  9.8859046421439359e+01  9.5323212025641865e+01  9.8950611013465689e+01  9.5696654502907109e+01  9.9032562396593889e+01  9.6031294037389117e+01  9.9106311597184202e+01  9.6332741233872397e+01  9.9172975460929067e+01  9.6605453884855123e+01  9.9233448334580558e+01  9.6853013026775216e+01  9.9288451994395061e+01  9.7078316353294511e+01  9.9338570820945137e+01  9.7283715091648574e+01  9.9384276577761739e+01  9.7471110715391404e+01  9.9425945537533863e+01  9.7642021855611802e+01  9.9463869671445877e+01  9.7797627903470911e+01  9.9498262927587817e+01  9.7938793175296524e+01  9.9529263130035488e+01  9.8066073604601073e+01  9.9556929640551047e+01  9.8179706409476836e+01  9.9581236584920546e+01  9.8279581836671596e+01  9.9619860686265781e+01  9.9602061112058323e+01  9.8365194747961368e+01  9.9619165796756633e+01  9.8435572359156609e+01  9.7920943470078342e+01  9.1532924344083895e+01  9.8138723918891614e+01  9.2405049339368375e+01  9.8320350051540316e+01  9.3136395568503033e+01  9.8474958336306173e+01  9.3761462758798046e+01  9.8608679282648666e+01  9.4303730862924411e+01  9.8725795061866421e+01  9.4779779519830186e+01  9.8829399851351184e+01  9.5201691213171088e+01  9.8921794490541672e+01  9.5578512157860857e+01  9.9004731830880630e+01  9.5917172612755436e+01  9.9079574506308205e+01  9.6223084945413120e+01  9.9147399357184725e+01  9.6500542847493634e+01  9.9209068217021567e+01  9.6752993814078550e+01  9.9265276771888466e+01  9.6983228243571602e+01  9.9316588631149514e+01  9.7193511836601942e+01  9.9363459043928302e+01  9.7385677985967362e+01  9.9406251038905225e+01  9.7561190664129128e+01  9.9445245710774742e+01  9.7721184334078330e+01  9.9480647668508468e+01  9.7866484715189685e+01  9.9512586156640225e+01  9.7997612286632901e+01  9.9541111964045555e+01  9.8114768863842968e+01  9.9566189889331028e+01  9.8217806219045798e+01  9.9587686195170846e+01  9.8306174361774893e+01  9.9605350121021502e+01  9.8378845622688743e+01  9.9632173942084080e+01  9.9618788164475546e+01  9.8434209000115914e+01  9.9627430207540414e+01  9.8469927809684251e+01  9.8117946289640216e+01  9.2319934642318984e+01  9.7901400079131207e+01  9.1452870404808451e+01  9.8298738143202158e+01  9.3047854203939409e+01  9.8452877883731119e+01  9.3670990093289063e+01  9.8586450777983700e+01  9.4212638365594159e+01  9.8703689085418688e+01  9.4689175419567320e+01  9.8807637048717083e+01  9.5112480110568058e+01  9.8900548595442530e+01  9.5491407106498102e+01  9.8984134419387416e+01  9.5832714328437845e+01  9.9059720504088418e+01  9.6141664153512693e+01  9.9128352630520496e+01  9.6422423029108344e+01  9.9190866827894666e+01  9.6678332626614946e+01  9.9247937662238414e+01  9.6912096642879206e+01  9.9300111626877879e+01  9.7125910443503770e+01  9.9347830148803084e+01  9.7321550564915029e+01  9.9391445032950315e+01  9.7500434765658468e+01  9.9431228087087916e+01  9.7663659235433130e+01  9.9467375946659118e+01  9.7812016808965623e+01  9.9500010601516465e+01  9.7945998033902072e+01  9.9529175724612301e+01  9.8065775368235364e+01  9.9554828550668660e+01  9.8171169390854004e+01  9.9576826711467731e+01  9.8261594541196601e+01  9.9594909069184254e+01  9.8335980412179850e+01  9.9608669224207645e+01  9.8392662922895369e+01  9.9617520713327693e+01  9.8429238273811066e+01  9.9630557851815624e+01  9.9620724154781669e+01  9.8442388028243471e+01  9.8482768655657836e+01  9.8104618065529209e+01  9.2265300549383966e+01  9.8284800161427199e+01  9.2990724971055343e+01  9.8438566773342160e+01  9.3612332847157802e+01  9.8571978253953162e+01  9.4153318712948959e+01  9.8689237465125544e+01  9.4629939110347763e+01  9.8793357923431287e+01  9.5053947542599886e+01  9.8886563738827860e+01  9.5434076950978735e+01  9.8970538109831736e+01  9.5776972933416531e+01  9.9046582600958445e+01  9.6087798040598571e+01  9.9115721919713167e+01  9.6370632508329479e+01  9.9178774308652962e+01  9.6628745189089813e+01  9.9236399571973024e+01  9.6864779298193326e+01  9.9289132092124703e+01  9.7080880540643733e+01  9.9337403411908213e+01  9.7278784887405948e+01  9.9381557242312141e+01  9.7459876847270280e+01  9.9421858659065663e+01  9.7625224926075290e+01  9.9458498514069674e+01  9.7775598150846164e+01  9.9491593563684631e+01  9.7911465504189891e+01  9.9521182404532567e+01  9.8032978511546375e+01  9.9547216954521105e+01  9.8139935818388949e+01  9.9569548869004052e+01  9.8231727209046014e+01  9.9587909916221307e+01  9.8307253017329671e+01  9.9601884964815213e+01  9.8364813167769483e+01  9.9610876544758455e+01  9.8401958661245061e+01  9.9614130606248111e+01  9.8415314072770840e+01  9.8277975019342605e+01  9.2962723716507668e+01  9.8098114878333249e+01  9.8431535783051970e+01  9.3583499349204374e+01  9.8564846670193944e+01  9.4124082148231253e+01  9.8682097050772015e+01  9.4600673475977544e+01  9.8786285890983962e+01  9.5024967432061175e+01  9.8879622864237589e+01  9.5405638071474883e+01  9.8963777627489947e+01  9.5749275780746672e+01  9.9040039551176989e+01  9.6060993400751968e+01  9.9109422696968892e+01  9.6344827766754761e+01  9.9172736232816249e+01  9.6604010728331943e+01  9.9230632366919821e+01  9.6841154515694555e+01  9.9283639203659305e+01  9.7058379210498984e+01  9.9332183130210439e+01  9.7257399724941607e+01  9.9376603615773206e+01  9.7439583222133834e+01  9.9417162198380112e+01  9.7605983719577281e+01  9.9454046691500693e+01  9.7757357775156407e+01  9.9487371112232026e+01  9.7894163103119638e+01  9.9517171419893273e+01  9.8016540351091592e+01  9.9543396796174861e+01  9.8124276853057211e+01  9.9565895850521727e+01  9.8216749780000043e+01  9.9584396765028814e+01  9.8292844602026491e+01  9.9598480019775508e+01  9.8350843057485250e+01  9.9607542603945788e+01  9.8388273390958204e+01  9.9610822192179413e+01  9.8401731541833527e+01  9.8277985038500901e+01  9.2962722625972944e+01  9.8431540621612484e+01  9.3583498028008464e+01  9.8564846990787132e+01  9.4124080690984826e+01  9.8682093568240973e+01  9.4600671953198017e+01  9.8786279315115493e+01  9.5024965894001014e+01  9.8879613861343714e+01  9.5405636552634746e+01  9.8963766798209903e+01  9.5749274304201833e+01  9.9040027420412557e+01  9.6060991981718033e+01  9.9109409712645373e+01  9.6344826415405805e+01  9.9172722770295252e+01  9.6604009451871548e+01  9.9230618736845557e+01  9.6841153319952141e+01  9.9283625661500608e+01  9.7058378101006781e+01  9.9332169886498008e+01  9.7257398707766242e+01  9.9376590846455642e+01  9.7439582304641462e+01  9.9417150054833968e+01  9.7605982910992424e+01  9.9454035310516915e+01  9.7757357087190513e+01  9.9487360625536539e+01  9.7894162550341775e+01  9.9517161964138495e+01  9.8016539951509586e+01  9.9543388522948248e+01  9.8124276628170620e+01  9.9565888937283987e+01  9.8216749753972437e+01  9.9584391426124128e+01  9.8292844799031599e+01  9.9598476514161504e+01  9.8350843490628165e+01  9.9607541181890269e+01  9.8388274024736788e+01  9.9610821258343577e+01  9.8401732202792005e+01  9.8438579540004042e+01  9.3612328691738625e+01  9.8284828560969231e+01  9.2990721458319157e+01  9.8571977491401896e+01  9.4153314193755776e+01  9.8689225398059136e+01  9.4629934431562916e+01  9.8793336729864947e+01  9.5053942847259435e+01  9.8886535441506652e+01  9.5434072335683538e+01  9.8970504516087558e+01  9.5776968461575279e+01  9.9046545278720828e+01  9.6087793753349175e+01  9.9115682198568948e+01  9.6370628432805972e+01  9.9178733296760896e+01  9.6628741344502814e+01  9.9236358182031168e+01  9.6864775700212888e+01  9.9289091071667045e+01  9.7080877204560494e+01  9.9337363374959622e+01  9.7278781830550528e+01  9.9381518700919742e+01  9.7459874091001623e+01  9.9421822053579220e+01  9.7625222497624733e+01  9.9458464242841814e+01  9.7775596084908372e+01  9.9491562011853333e+01  9.7911463844327457e+01  9.9521153973531469e+01  9.8032977311439183e+01  9.9547192092244657e+01  9.8139935142290597e+01  9.9569528101948137e+01  9.8231727129765673e+01  9.9587893882856946e+01  9.8307253607075779e+01  9.9601874438926714e+01  9.8364814465703503e+01  9.9610872275341137e+01  9.8401960561215262e+01  9.9614127805790304e+01  9.8415316051028512e+01  9.8452893147883287e+01  9.3670982534669307e+01  9.8298779701536859e+01  9.3047847544259440e+01  9.8586443635997753e+01  9.4212630351964165e+01  9.8703663502683554e+01  9.4689167264042467e+01  9.8807596806132636e+01  9.5112472024331950e+01  9.8900497132194303e+01  9.5491399226671945e+01  9.8984074756303116e+01  9.5832706741374324e+01  9.9059655224251216e+01  9.6141656912887669e+01  9.9128283897144442e+01  9.6422416169089857e+01  9.9190796424328511e+01  9.6678326171250717e+01  9.9247867043134704e+01  9.6912090612574403e+01  9.9300041973797747e+01  9.7125904859679252e+01  9.9347762425894686e+01  9.7321545453582161e+01  9.9391380040632711e+01  9.7500430160328591e+01  9.9431166513346454e+01  9.7663655179952400e+01  9.9467318415797905e+01  9.7812013359816660e+01  9.9499957722157433e+01  9.7945995262842828e+01  9.9529128137768083e+01  9.8065773363956609e+01  9.9554786979625817e+01  9.8171168259918659e+01  9.9576792014956510e+01  9.8261594404573032e+01  9.9594882296559874e+01  9.8335981390474927e+01  9.9608651654075388e+01  9.8392665081508994e+01  9.9617513587617253e+01  9.8429241435372177e+01  9.9620719491895827e+01  9.8442391309993127e+01  9.8474966441061412e+01  9.3761450875253814e+01  9.8608656536459094e+01  9.4303718670541201e+01  9.8725747518730572e+01  9.4779767390327493e+01  9.8829333077727767e+01  9.5201679380225912e+01  9.8921713403088120e+01  9.5578500761405977e+01  9.9004640642863691e+01  9.5917161732887962e+01  9.9079476744609224e+01  9.6223074626732952e+01  9.9147297920736477e+01  9.6500533115621124e+01  9.9208965456181119e+01  9.6752984686845437e+01  9.9265174575635115e+01  9.6983219738376036e+01  9.9316488514106567e+01  9.7193503975604969e+01  9.9363362229255188e+01  9.7385670800005997e+01  9.9406158535592098e+01  9.7561184196124401e+01  9.9445158385448352e+01  9.7721178642242478e+01  9.9480566313180688e+01  9.7866479876300204e+01  9.9512511554254957e+01  9.7997608399142365e+01  9.9541044954275364e+01  9.8114766050493373e+01  9.9566131437126842e+01  9.8217804628040142e+01  9.9587637463918796e+01  9.8306174161888649e+01  9.9605312549110394e+01  9.8378846982442340e+01  9.9618763519562634e+01  9.8434212011494168e+01  9.9627420214954384e+01  9.8469932224450233e+01  9.9630551334243549e+01  9.8482773217445512e+01  9.8639228443921795e+01  9.4429091969114651e+01  9.8505531333081080e+01  9.3886735582499981e+01  9.8755976754067348e+01  9.4903785347866901e+01  9.8858942493730822e+01  9.5323196021328499e+01  9.8950491292659521e+01  9.5696639296539374e+01  9.9032432189758723e+01  9.6031279662808686e+01  9.9106175223744913e+01  9.6332727698247979e+01  9.9172836382640952e+01  9.6605441185770175e+01  9.9233309294170240e+01  9.6853001162452429e+01  9.9288315150354606e+01  9.7078305329023962e+01  9.9338437872044096e+01  9.7283704924034140e+01  9.9384148875558239e+01  9.7471101435704981e+01  9.9425824187270848e+01  9.7642013512893868e+01  9.9463755623302603e+01  9.7797620567943383e+01  9.9498157061437055e+01  9.7938786941914401e+01  9.9529166336749867e+01  9.8066068597031531e+01  9.9556842903503281e+01  9.8179702783114593e+01  9.9581161065381565e+01  9.8279579780074769e+01  9.9601998241216833e+01  9.8365194477149927e+01  9.9619117372446965e+01  9.8435574090521996e+01  9.9632142198919638e+01  9.8489176629295869e+01  9.9640524055222571e+01  9.8523753218649233e+01  9.9643555158638193e+01  9.8536181754440179e+01  9.8678962031750899e+01  9.4592042066969611e+01  9.8794993546364282e+01  9.5063856681763951e+01  9.8896925973115131e+01  9.5479078129035898e+01  9.8987210344599291e+01  9.5847373411902268e+01  9.9067727028384539e+01  9.6176201060293792e+01  9.9139944277924911e+01  9.6471411852674066e+01  9.9205024737833369e+01  9.6737656247165859e+01  9.9263898898750725e+01  9.6978667636469098e+01  9.9317316771855431e+01  9.7197462926069065e+01  9.9365884676917460e+01  9.7396486070440247e+01  9.9410091462583821e+01  9.7577710756389351e+01  9.9450326902478352e+01  9.7742712582293677e+01  9.9486894005515154e+01  9.7892717309295691e+01  9.9520016300588196e+01  9.8028629190406932e+01  9.9549840666542096e+01  9.8151041503695367e+01  9.9576435894661813e+01  9.8260229914494076e+01  9.9599786830141852e+01  9.8356127956440673e+01  9.9619783610355285e+01  9.8438282595095515e+01  9.9636205159117821e+01  9.8505786393157464e+01  9.9648695715363303e+01  9.8557181124827309e+01  9.9656733016803713e+01  9.8590326169439251e+01  9.9659638860923948e+01  9.8602238614612602e+01  9.8843555200598814e+01  9.5263086187577485e+01  9.8728828359990388e+01  9.4796548603343723e+01  9.8943858404118828e+01  9.5671683359946357e+01  9.9032293296468225e+01  9.6032437223297009e+01  9.9110823313366637e+01  9.6353149233867100e+01  9.9180981635415108e+01  9.6639938471554260e+01  9.9243980886792244e+01  9.6897662131797929e+01  9.9300789556358964e+01  9.7130210944622391e+01  9.9352186274569789e+01  9.7340720442139158e+01  9.9398798814466090e+01  9.7531723594643012e