<?xml version="1.0"?>
<VTKFile type="UnstructuredGrid"  version="0.1"  >
<UnstructuredGrid>
<Piece  NumberOfPoints="13270" NumberOfCells="62708">
<Points>
<DataArray  type="Float64"  NumberOfComponents="3"  format="ascii">24.1805305480957 33.10403060913086 31.40691947937012  23.47398228619849 32.51958450290155 30.69426314771805  24.1376475033407 32.61014467034077 30.54462772315951  23.9158228573446 33.05219560417866 30.80171256965609  24.4023551940918 32.66197967529297 31.14983463287354  23.73868997694959 32.57141950785375 31.29947005743207  24.62417984008789 32.21992874145508 30.89274978637695  23.96051462294568 32.12936857401586 31.04238521093549  23.65111516659351 33.00036059922646 30.19650565994206  23.29684940580348 32.03880840657664 31.19202063549403  17.95992602331125 27.39468892653674 37.02409534569711  18.45130215731479 26.9527861485198 36.46876777278543  18.54133474183394 26.58996175458415 37.25667061626401  18.24980592496119 26.28499293764814 36.60668627926366  18.94267829131832 26.51088337050286 35.91344019987373  21.8010651694571 37.18613362373468 29.03427286212382  22.42578959496435 36.66380407292682 28.52364418107673  22.49379207444089 36.55205282614855 29.42889940338117  22.73208234468356 37.3729312190321 28.91713138121968  23.66309951991002 37.55972881432952 28.79998990031553  23.35680677019081 36.85060166822424 28.40650270017259  23.42480924966735 36.73885042144597 29.31175792247702  23.18651897942468 35.91797202856242 29.82352594463852  23.11851649994814 36.02972327534069 28.91827072233408  23.05051402047161 36.14147452211896 28.01301550002965  20.85755920410156 31.2291202545166 27.01577949523926  21.26211770426844 31.68654782765348 27.40895347473411  20.8558419550619 31.8289933919235 27.4192531573513  20.77613194834803 31.38722760670622 27.41761283752708  20.93726921081543 31.67088603973389 27.01741981506348  21.34354496002197 31.52844047546387 27.00712013244629  21.0169792175293 32.11265182495117 27.0190601348877  21.42325496673584 31.97020626068115 27.00876045227051  21.82953071594238 31.82776069641113 26.99846076965332  20.6947046925945 31.54533495889583 27.8194461798149  20.3646297454834 29.41546058654785 36.3160514831543  19.5131184752233 29.58927545320775 36.2602690338461  19.82918961651691 29.4600592292312 35.88880335680349  19.87443071451041 29.81829380029094 36.19742010624672  20.00331750619629 29.18644223946466 36.37890041075368  20.19050185580403 29.68907757631439 35.82595442920412  19.64200526690917 28.95742389238147 36.44174933835306  20.01637396612465 29.96269456608093 35.33585737525393  19.70030282483104 30.09191079005748 35.70732305229654  19.38423168353742 30.22112701403402 36.07878872933914  18.93540954589844 26.75423049926758 30.36422920227051  19.29642697450466 26.7670771505823 30.05010993257458  19.34605026245117 26.33495998382568 30.10824012756348  18.98282166597194 26.81353730225466 29.98975474611218  19.24901485443115 26.70777034759521 30.42458438873291  19.03244495391846 26.38142013549805 30.04788494110107  19.56262016296387 26.66131019592285 30.48493957519531  19.12948036193848 26.00860977172852 29.73154067993164  19.07985707399196 26.44072693848513 29.67341048494275  19.03023378604545 26.87284410524174 29.61528028995385  24.08733234525855 28.11174577457565 32.15123212058749  23.65433154958922 28.9426211986499 32.06150262027953  24.09893194245757 28.71551889581875 32.71784363719512  24.22211068805109 29.09572251963846 32.29722772114337  24.35688903084363 30.07969926470127 32.44322332169924  23.66593114678824 29.54639431989299 32.62811413688716  23.78910989238176 29.9265979437127 32.20749822083541  24.23371028525011 29.69949564088156 32.86383923775099  24.11053153965659 29.31929201706184 33.28445515380274  23.22133075391989 29.77349662272414 31.97177311997158  13.00804042816162 31.26049041748047 31.82843017578125  13.34251504639224 30.58125170104931 31.84660889482522  13.74047157334148 30.96045137984328 32.04283408430485  13.39998695420085 31.12230135542922 32.25382880476383  13.00203042725162 30.74310167663525 32.05760361528421  13.34852504730225 31.09864044189453 31.61743545532227  13.68900966644287 30.93679046630859 31.40644073486328  13.79193348024008 30.98411229337798 32.67922743374642  13.39397695329085 30.60491261458401 32.48300224426679  12.99602042634161 30.22571293579004 32.28677705478716  20.26705932617188 39.31787872314453 31.79626083374023  20.24798795869045 39.18376360142688 31.08495497012354  20.19570276429348 38.89483843052844 31.54085993075586  20.57253127326246 39.05444541910971 31.31732228990673  20.31934452056885 39.60680389404297 31.34035587310791  20.37162971496582 39.89572906494141 30.88445091247559  20.62481646765944 39.34337059000815 30.86141732927441  20.87800322035305 38.79101211507489 30.83838374607323  20.50117471138407 38.63140512649362 31.06192138692236  20.12434620241509 38.47179813791236 31.2854590277715  22.27211952209473 33.25748062133789 26.4819393157959  22.71914793999351 33.69910331331554 27.2721590150364  22.36106580487946 34.03017012526851 27.55050241463581  22.07265621987447 33.35414434489756 27.2512166411912  22.43073835498852 33.0230775329446 26.97287324159179  22.56052910709972 33.93350640170884 26.78122508924051  22.84893869210471 34.60953218207978 27.08051086268512  21.87319291765421 33.45080806845724 28.0204939665865  22.23127505276826 33.11974125650427 27.74215056698709  22.58935718788231 32.7886744445513 27.46380716738769  23.97229430303965 32.59839738282906 34.51761277538555  24.20564837255806 31.98695420995614 34.28691434026929  23.90915902951503 32.10368590624772 34.86639642352594  24.3605438046073 32.1967552630347 34.88541713067532  24.74879330617496 31.79511314324033 35.2532214859651  24.14251309903344 31.49224273337479 34.63569798840968  24.59389787412572 31.58531209016177 34.65471869555907  24.29740853108268 31.70204378645336 35.23420077881571  23.84602375599041 31.60897442966638 35.21518007166632  24.43900244207648 31.37551103708321 34.05621590515304  20.07486915588379 28.99049949645996 27.51592063903809  20.33488878283742 28.95015415869191 28.14970086310981  20.01006683381059 29.21496306260748 27.79448428388688  20.11922296557668 28.8005941840215 28.08405659888862  20.29053497314453 29.14005947113037 27.58156490325928  20.50620079040527 29.28961944580078 27.64720916748047  20.22573265107134 29.36452303727789 27.86012854810808  20.16357677526957 28.61068887158304 28.65219255873915  20.05442064350348 29.02505775016902 28.36262024373741  19.9452645117374 29.439426628755 28.07304792873568  20.08691024780273 29.44869995117188 37.04869842529297  19.65877775047722 29.31039220418127 37.49485474718126  19.56644303833924 28.93352122702942 37.14054353793787  20.09018993377686 29.21718502044678 37.39975929260254  20.09346961975098 28.98567008972168 37.75082015991211  19.66205743645134 29.07887727345617 37.84591561449083  19.56972272431336 28.70200629630433 37.49160440524744  19.04597582887575 28.41834250288697 37.23238865058278  19.13831054101372 28.79521348003882 37.58669985982617  19.2306452531517 29.17208445719066 37.94101106906955  26.22722053527832 29.05203056335449 29.49580001831055  26.21837963646127 28.59094908468272 29.01655469858573  26.20096554344369 28.93458845846202 29.0100248905413  25.991400380785 28.80747416250254 29.33748994791434  26.45419979095459 28.83550548553467 29.17486476898193  26.43678569793701 29.17914485931396 29.1683349609375  26.6463508605957 29.30625915527344 28.84086990356445  26.66376495361328 28.96261978149414 28.84739971160889  26.68117904663086 28.61898040771484 28.85392951965332  25.75558022629168 28.5629177616506 29.17917987751814  22.42385703297143 33.73845950609135 32.64426256666015  23.16945421456033 34.5493789124699 32.43378623119645  23.19144814463735 33.90978218937016 32.74594901558243  22.89913924848613 34.02292178343005 32.20502590092899  22.69417199904562 34.2649166351312 32.87302289692761  22.96448696511982 34.79137376417106 33.10178322719506  23.46176311071154 34.43623931841002 32.97470934584989  23.37442146400083 34.30738406076875 31.76578923519783  23.66673036015204 34.19424446670887 32.30671234985127  23.95903925630326 34.08110487264899 32.84763546450472  18.07826995849609 31.0513801574707 29.45578956604004  18.78518507883548 30.91594637592173 29.20883475058945  18.50119040415287 30.82365168292856 29.57269488089951  18.41178512573242 31.25512504577637 29.43052005767822  18.36226463317871 31.14367485046387 29.09192943572998  18.74530029296875 31.45886993408203 29.40525054931641  18.83470557138919 31.02739657123423 29.5474253725377  18.69577980041504 31.34741973876953 29.06665992736816  18.64625930786133 31.23596954345703 28.72806930541992  18.92411084980964 30.59592320838642 29.68960019575898  17.63603973388672 34.65597152709961 30.66024971008301  18.39740559260283 35.05151554728257 30.76606119900547  18.21502587000762 34.76344677592026 31.00129069119297  17.79686023717398 35.34376655189951 31.07447715887524  17.81841945648193 34.94404029846191 30.42502021789551  18.00079917907715 35.23210906982422 30.18979072570801  17.9792399597692 35.63183532326181 30.83924766668774  17.95768074046124 36.0315615766994 31.48870460766748  18.37584637329488 35.45124180072015 31.41551813998521  18.79401200612851 34.87092202474092 31.34233167230294  23.71343987529195 36.34953438254654 24.4221381134763  24.35906255081252 36.7043496742096 24.36918995335407  23.99750187866322 36.5857690354865 23.99515107125862  24.26361829519638 36.19594437271296 24.20853720290172  22.64785003662109 33.79932022094727 25.6840705871582  23.62717674119145 33.65360965537376 25.61741890987896  23.37504241807133 34.14207019614524 25.54418816647076  23.21072719437749 33.8098100643093 25.96995892605328  23.06429958343506 33.64311981201172 25.33153057098389  22.81216526031494 34.1315803527832 25.25829982757568  22.97648048400879 34.46384048461914 24.83252906799316  23.22861480712891 33.97537994384766 24.90575981140137  23.48074913024902 33.48691940307617 24.97899055480957  23.77360435213388 33.82029990767133 26.25584
[...]
<PointData  Vectors="u"> 
<DataArray  type="Float64"  Name="u"  NumberOfComponents="3" format="ascii">4.7659502858801641e+00 1.6014523238511451e+01 8.7076295464015729e+01  4.5969151604121521e+01 6.8586502500696356e-01 2.8190303695268526e+01  1.8613888907794514e+01 -4.5423844873029706e+00 1.5620339504218252e+01  1.8040129461885272e+01 -3.3840775209679591e-01 3.4448591149801892e+01  -1.1518049333176300e+01 -5.6059456294614769e+00 3.9160023529078615e+01  3.3439659745906447e+01 5.5170671067685557e+00 5.7101113071521169e+01  -5.1758416514979375e+00 -1.2192281846010147e+01 2.1659731796998567e+01  2.5258871833461829e+01 -3.6088715104437412e+00 4.0118953965013205e+01  3.9004210341388934e+01 1.6213528153224257e+00 1.1793298760034203e+01  5.7840329103110562e+01 1.4589512997552563e+00 4.3868740017445063e+01  3.1862452297691913e+01 -7.4870222889877070e+01 -2.0714026050218544e+00  4.0455679003976265e+01 -6.5871965304256591e+01 1.8713439454328100e+00  3.7216884396176589e+01 -6.5623648246192118e+01 -1.5166314735920907e+00  3.4766502469584033e+01 -6.2168456202205761e+01 3.8538233332046636e+00  5.0485889487968372e+01 -6.1053870296518689e+01 3.6415629143873511e+00  9.5338339810808236e+01 -3.7838926444303054e+00 -2.1497426873051189e+01  7.8410773486388123e+01 -2.4178654206432657e-01 -2.3631709185836414e+01  8.2256891660118583e+01 8.1357841363994787e-01 -6.0086858979207669e+00  7.8595606416168167e+01 1.1948477927954315e+00 -1.4441671082722779e+01  5.9814141622718630e+01 4.3334402686947282e+00 -1.2845053438097146e+01  6.2770540240918962e+01 2.7730175062173044e+00 -2.2887682890963333e+01  6.1220862649644559e+01 6.1986661081878491e+00 -4.8952648044823812e+00  6.2264930409821034e+01 6.1769009296125974e+00 5.3456179905020544e+00  6.4148693303563903e+01 3.5715352059094361e+00 -1.5725998667586872e+01  6.6133538133701109e+01 1.4027498775092904e+00 -3.1149148291970871e+01  7.1030288511912730e+01 2.0096127626093377e+01 -4.7393533416400109e+00  7.5079227250990982e+01 1.8230603123269834e+01 -6.4168606446514129e+00  6.8899205922226471e+01 1.8698081491329454e+01 -5.6669949198565579e+00  7.0724749313019885e+01 2.1415434181934785e+01 -5.9733026359177783e+00  7.2720279068307960e+01 1.8061252804908548e+01 1.1879566710763907e+00  7.8556128571411449e+01 1.9112188178812033e+01 1.3614591235201825e+00  7.3902854015784129e+01 1.6658767387795262e+01 -1.0742557650108326e+00  8.3980291902296173e+01 1.9907585410091997e+01 -3.6843986874625743e+00  9.0611894324592583e+01 2.3639279103567400e+01 -1.8375069372139823e+01  6.8959748168461331e+01 2.0503641289507051e+01 -9.1957698457247279e+00  5.1453119309593035e+01 -6.3441553371351318e+01 -5.7851715324132137e+01  5.5990847094450125e+01 -6.2397966441970780e+01 -3.6036475066371679e+01  6.4897620991215263e+01 -5.5021746306760683e+01 -3.9868328870292331e+01  5.6163306261801814e+01 -5.8833175705248976e+01 -5.1414608609414742e+01  4.9945224206660875e+01 -6.6867623887837937e+01 -4.0122604692646668e+01  6.9432739330515787e+01 -4.9774151806207868e+01 -5.4548961907883253e+01  5.1878812067470832e+01 -6.8112545035628969e+01 -2.8275606302897224e+01  8.8004747454961276e+01 -4.0266861435761037e+01 -4.4562417345896080e+01  7.3849222146452021e+01 -4.9095831892533354e+01 -4.4242094975360814e+01  6.3885744042691172e+01 -5.5813141213841490e+01 -4.1788465109717535e+01  1.1140205104831361e+02 4.1070625276818376e+01 5.2503174865928649e+01  1.0733672783376210e+02 3.4741918937161323e+01 6.2946228986300731e+01  1.1149239721574696e+02 5.6995517591947987e+01 6.7176018308068279e+01  9.1577976281287576e+01 3.4395897418192966e+01 5.1430993945468913e+01  1.1408461573341879e+02 2.3700545598195408e+01 7.9637026822345263e+01  1.1431196050522472e+02 5.9991622702426874e+01 5.0723146439198281e+01  1.2292530720339674e+02 -4.6241542177378117e+00 8.3086383492982719e+01  9.0740345400607950e+01 8.5117237617650730e+01 5.2590966130631600e+01  9.0254199081497035e+01 5.1113776492881321e+01 5.8421387454740177e+01  8.3385033536935211e+01 3.7268136616117495e+01 5.3071354534441468e+01  9.1154899810364100e+01 -9.0187045683154636e+00 6.6711124078281770e+01  8.5103795941130556e+01 -8.5361170142186840e+00 5.8350577177013527e+01  1.0396705537133049e+02 -7.5363652611390792e+00 7.2552525697711701e+01  8.7494298330812597e+01 -1.2904744067663669e+01 7.7767699669994158e+01  7.4425450094946953e+01 -1.8972389567813015e+00 9.8526697391041793e+01  9.8458953815100813e+01 -5.5040990450084970e-01 6.7800301268108640e+01  7.8960017118719321e+01 -4.0492400454458242e+00 7.0505115641934978e+01  9.3580836008644440e+01 3.6063323949653117e+00 9.4053658657397918e+01  1.2041449890591539e+02 3.4631618148679904e+00 8.4609862738127930e+01  8.5609025269884185e+01 -3.8219807219400352e+00 5.1500882698434239e+01  2.8142926468553810e+02 -2.1552448256040083e+02 -1.5161185014524526e+02  1.8318648784193559e+02 -1.5857278882022408e+02 -9.0390523746973244e+01  1.9758720743863157e+02 -1.5107072484884466e+02 -7.3724703649492682e+01  2.4552183451766879e+02 -1.8463742820088655e+02 -7.5319947766775485e+01  2.3318332903326325e+02 -2.1177030945428265e+02 -1.0046915315744779e+02  1.9597202629610905e+02 -1.5285861249657077e+02 -1.4300956542465653e+02  1.6539084551664655e+02 -1.2497473797221338e+02 -9.9502386700489183e+01  2.1350176953989131e+02 -1.6197576996058004e+02 -3.4016192033217422e+01  2.0774858124071039e+02 -1.8170900322708880e+02 -4.6345755793126337e+01  1.7965036976825417e+02 -2.0547799817161581e+02 -5.8508773938925607e+01  3.3655770373276636e+02 -9.5247192561296572e+00 -4.4715347729378280e+01  2.1968978627455718e+02 -4.6797764486535876e+00 -3.6964896360232743e+01  2.6200805475082797e+02 -1.2230213023641863e+01 -4.4165376154185097e+01  2.3178317372360061e+02 1.5721142365190380e+01 7.0697722524714610e+00  3.0446831191170156e+02 -1.2766042200226089e+01 -3.1112454774449624e+01  2.2342332516937898e+02 5.9840403537167557e+00 -1.6034176210168102e+01  1.9366434695555381e+02 3.3939563249910405e+00 -6.9072749657955583e+00  1.7945463661443958e+02 2.0904165632763355e-01 -1.7608285811648479e+00  2.0345605071276276e+02 -4.5997333170722694e+00 -1.9989587385713730e+01  2.2540756412973116e+02 -1.0975502103118178e+01 -4.3126559020531587e+01  9.9499236855292651e+01 7.8437518481075745e+00 -6.0427266008160082e+01  7.5005846768776792e+01 6.0030012670597959e+00 -4.2578643366673781e+01  7.5714248481836250e+01 4.9271592858267113e+00 -3.4057986926292223e+01  8.3046716812689752e+01 9.0994840172654072e+00 -3.2969643050273618e+01  8.6273318858033335e+01 1.1993008704504200e+01 -4.6921244383035713e+01  8.3105185066688506e+01 2.7785871233195460e+00 -5.1037773402208707e+01  7.4310728988056411e+01 1.7506552094972920e+00 -4.5863459485417394e+01  7.4140865550017935e+01 6.4605699331535513e+00 -2.3163287233549742e+01  7.5426547604481783e+01 9.3396023883538302e+00 -2.7696093170639998e+01  7.5773630793310957e+01 1.2580242249551199e+01 -3.6049611951148243e+01  1.3908056629372311e+02 1.2778866407467833e+01 7.2778807584625199e+01  1.4533214683791536e+02 1.0922750594653264e+01 7.5593854009308316e+01  1.4340107697809668e+02 1.0527210774749717e+01 7.3265644921952827e+01  1.4337361952408594e+02 5.9804292656678140e+00 7.1786762150823009e+01  1.4697692970665770e+02 -1.3346900330893549e-01 7.7126661407232788e+01  1.4817087423412750e+02 8.9603344941383778e+00 7.7254504265533868e+01  1.4855685173441350e+02 5.9674656372273267e+00 7.6133757072268452e+01  1.4853665583029334e+02 3.2381550287646546e+00 7.5321899515794485e+01  1.4804896144378557e+02 7.9171145460126446e+00 7.6092817759801363e+01  1.5054969986942118e+02 1.1485203644223960e+01 8.1996429596297489e+01  1.2806183735226836e+02 4.5880477788725877e+01 5.7056616297390434e+01  1.1040346117586419e+02 2.9635311279256541e+01 2.2741153710660690e+01  1.1188275090846568e+02 4.2464597491482543e+01 3.8218893884891820e+01  1.1202770243700942e+02 3.3481371148457058e+01 2.9620854077999503e+01  1.3590586013369526e+02 4.0304073311887215e+01 4.0813624506032276e+01  1.4127244009014416e+02 3.1636552698162188e+01 -6.0470905373286934e+00  1.1253517489734810e+02 3.6595876719377479e+01 2.1312083677932467e+01  9.9153144731165838e+01 2.4400156083637118e+01 2.7782702831543592e+01  9.9467899869871161e+01 2.9433069410278851e+01 2.5858576436598664e+01  1.0049028665894907e+02 3.5891056928992548e+01 2.3874126897815710e+01  3.3090675325600884e+01 -8.4828777152106824e+01 -4.3036845412522474e+01  3.2842381063987112e+01 -8.5961830034998414e+01 -2.7411821062188643e+01  4.4158610182610929e+01 -7.8493241477760179e+01 -2.3584844848092629e+01  3.0944337550078327e+01 -9.7365355367979518e+01 -3.4390500044854882e+01  3.7390601881790928e+01 -1.0025576879254245e+02 -2.2561698726568100e+01  3.5168603136692610e+01 -9.1223437057934603e+01 -2.0018347273364451e+01  4.4217647981851350e+01 -8.3627437124350052e+01 -1.7494831024817564e+01  4.5880927779818293e+01 -7.7850251996534624e+01 -1.3770887033174027e+01  4.3962933184269566e+01 -8.2890446345507002e+01 -1.6698736161101341e+01  4.1474118402389379e+01 -8.7024821823583395e+01 -1.7967156899396606e+01  -7.0828371557046532e+00 -8.9291745988600475e+00 2.5338017585946897e+01  2.9507034360043889e+00 1.7760584244948582e-01 2.5039880316579211e+01  6.1444015750149139e-01 1.5800878325094212e+00 1.6372915100516629e+01  4.2928277225439091e+00 -4.8336745079051768e+00 2.9297993016343721e+01  -8.0998399774230645e+00 -3.9340170062739626e+00 1.6807922933472355e+01  -4.9367650910578265e+00 1.6863351578544807e+00 8.7695913913574195e+00  -1.7374541004256070e+00 1.0478177092654786e+01 9.5602812394206271e-01  -4.5594900312406867e+00 7.4503165324896923e+00 6.8799605771515209e+00  -5.7225113378346206e+00 2.7892570246861372e+00 1.6089556920128306e+01  1.4083973825070331e+01 -5.2434759545588749e-01 3.2769326628414916e+01  1.1356371839683909e+02 2.2364325232326927e+01 7.3237086670121968e+01  9.6274832850355480e+01 1.3847473959855289e+01 9.1226149484941175e+01  1.0761771557593053e+02 1.7999829341018483e+01 8.7149639843522266e+01  9.7285875354128507e+01 1.4852673166412375e+01 7.6752841170234248e+01  1.0699642424204347e+02 2.4882424863505150e+01 8.5813759550374556e+01  9.9121841468609588e+01 2.2055798638192375e+01 9.3786757958196276e+01  1.0866616532985918e+02 1.6190293988770875e+01 9.3097189453623670e+01  7.5314116124551532e+01 8.8508502378779710e+00 8.3611286629256483e+01  9.7801430644082870e+01 1.2539527058215107e+01 1.0348909741915202e+02  1.2174026543334668e+02 1.4426583541379303e+01 1.0181392482208504e+02  9.0887538001865821e+01 1.0300440031866713e+00 -5.8474743116619692e+01  7.6376647766105663e+01 2.8923176015274983e+01 -2.8363770206145027e+01  8.5213777424030951e+01 8.6811992378975411e+00 -3.3611839866932520e+01  9.4517809286614622e+01 9.5905968060694686e+00 -6.8106656545652797e+01  7.1751482807901283e+01 3.9574037782477745e+01 -4.7015119071925263e+01  7.8365253148934258e+01 3.3087989697818024e+01 -6.8069106750354521e+01  8.6238718181277974e+01 1.2545101584914892e+01 -3.4899723452463554e+01  6.0401878304416641e+01 6.7729761375351075e+01 -4.9600672236925966e+01  6.2052064550702333e+01 6.3001401552169440e+01 -2.9124512626634438e+01  8.4370094412201837e+01 7.7673008207690533e+00 -1.7930017390592944e+01  2.2588539700639322e+02 -7.0398313052257024e+01 -8.1312198358885396e+01  1.7955447910986587e+02 -5.9450166530054922e+01 -9.1710307655506767e+01  1.8376363650076513e+02 -6.3962079567241616e+01 -8.6804666052971385e+01  1.9835261254139328e+02 -5.8544740428005916e+01 -8.0583320367464594e+01  2.2387907902192723e+02 -7.8862969184481571e+01 -9.8267317849189169e+01  2.1181969496040185e+02 -6.6638284620463722e+01 -1.0264527757542902e+02  1.9849442861885998e+02 -5.2265494769644711e+01 -8.7476352901462818e+01  1.9245486783962400e+02 -5.1543744144411590e+01 -9.1817731229280170e+01  1.8874058474997096e+02 -5.8820443994942998e+01 -8.6324880142851356e+01  1.7782602640542950e+02 -5.6980799491182893e+01 -7.5205552831241690e+01  9.0964943582183352e+01 -5.9288387850101358e+00 -1.0251191324163743e+02  7.2031184470431157e+01 -4.0845173953007921e+00 -1.1410330648880266e+02  8.8205017207599369e+01 -5.9363900361573814e+00 -1.1820618654341628e+02  7.6369600139481875e+01 -7.7011674354767905e+00 -1.1728058730617109e+02  9.5115810451605682e+01 -1.0632746411746233e+01 -8.0231042498041617e+01  7.4489746869761646e+01 -5.6033451445428524e+00 -9.3969882029252517e+01  8.1963122630990327e+01 -9.0990135881093170e+00 -8.7505279783854121e+01  7.9398767692139458e+01 -4.2442168302142598e+00 -7.9503687703950007e+01  8.6582817695373890e+01 -1.0727189168909359e+01 -9.0940109239237685e+01  9.8467178853935309e+01 -1.6607476194638018e+01 -8.5295924679839118e+01  1.0584687967964904e+02 -1.9346633970447655e+01 -9.2879751448476810e+01  9.5219798898199116e+01 -1.3921120093910993e+01 -1.0194010494308277e+02  8.5475759019007356e+01 -1.7873177686192570e+01 -1.1704618562668213e+02  6.6029835247410901e+01 -5.2550221904999461e-01 -7.6991252418019926e+01  1.8743546062888758e+00 -5.7820667489122442e+01 -5.3549823010040489e+00  2.8806756015738774e+01 -6.9888773821465222e+01 -5.8698980491785315e+00  1.9633616624114403e+01 -6.4521867310388274e+01 -5.8557963564828439e+00  3.5483645630618035e+01 -7.4186810495485474e+01 -9.3832127172566189e+00  2.1125297215354443e+01 -7.4634456797422132e+01 -8.1739992104735837e+00  2.8237341423709129e+01 -8.1620997845682567e+01 -1.9139502495325740e+00  3.4714112557340627e+01 -8.1206838261565977e+01 -6.1052138573588746e+00  4.0162015965393088e+01 -8.0094289974359398e+01 -9.5504568739431299e+00  3.8502947530895355e+01 -7.3299532759598492e+01 -1.1560263781619650e+01  3.2242657332202903e+01 -6.6048796107436957e+01 -6.7210938994425895e+00  1.0190981053857088e+02 -1.7563323623153959e+01 -4.3760454774299909e+01  8.8127891242565454e+01 -9.1208729959625785e+00 -3.7163210439350628e+01  7.7744840988113495e+01 -1.0368774080566075e+01 -3.9905685400300506e+01  8.6404474693980148e+01 -1.0105919776418324e+01 -3.5174896760272354e+01  8.4449085555601144e+01 -2.0231682709857825e+01 -5.2284330529519984e+01  1.0177373471319943e+02 -1.7214904255726559e+01 -4.6293621515758531e+01  6.9311106100046288e+01 -2.1923604082954462e+01 -5.2760795078484826e+01  8.7793825479783109e+01 -1.9429772153355902e+01 -5.3017125516725521e+01  8.0289380683254379e+01 -3.7045490484695036e+00 -3.2078118341231416e+01  1.0204711305787134e+02 -1.5251747400334303e+01 -4.7821921287540569e+01  2.2903545283672594e+02 6.2622622529304294e+01 -1.1396137503224709e+01  1.8863137996281853e+02 4.0353632888944787e+01 2.9388728253133696e+01  1.9160932387955194e+02 3.3569250950569270e+01 1.7986454200391321e+01  1.9259016679742751e+02 4.8699522458302496e+01 1.6107722104389499e+01  2.0505540345783379e+02 4.0784166924209636e+01 2.7158294410833552e+01  2.3560802278418720e+02 4.8761549033276950e+01 -2.7528874299982209e+00  2.2154665481864518e+02 3.9434373936867317e+01 -1.6596651444377397e+00  2.0859691692267040e+02 4.2346382608924166e+01 3.0339123022549959e+01  2.1658268856378510e+02 5.0366909605999282e+01 5.1082086616407096e+01  1.7246703621556847e+02 3.6492020711761832e+01 3.0206033642910107e+01  9.9293980325251553e+01 -3.0278016913437870e+01 -3.0464791450804828e+01  1.1377503315573367e+02 -3.8871037373047855e+01 -2.5932684116412297e+01  1.1492105065751744e+02 -3.9163934202163354e+01 -3.7178441327338220e+01  1.1623156764474014e+02 -5.0588756033669974e+01 -2.6515899977656598e+01  1.2968213875756101e+02 -6.6862840518812902e+01 -1.6647289475218503e+01  1.2676894588625984e+02 -5.5666651794640345e+01 -1.9695333286652758e+01  1.2968581486460783e+02 -5.7152750436409157e+01 -3.1014105508543565e+01  1.3038672101652861e+02 -4.4339282575057446e+01 -4.3216655870845074e+01  1.2650278337226612e+02 -4.4687722132017548e+01 -3.2378269967252137e+01  1.2400336785723123e+02 -4.4034851780875925e+01 -2.0821359026239858e+01  7.6401539843070722e+01 4.5302609700835097e+00 -1.1099331057704184e+01  7.7586905186760887e+01 4.4745137076886665e-01 1.1320137587700962e+01  7.8998408657675995e+01 6.6021027022339140e+00 4.8448607820548384e+00  8.6591167354500200e+01 -9.3346527155071843e+00 -4.1630479405919454e+00  7.4343989301226685e+01 -3.8919818500981562e+00 -2.5645221782169778e+00  7.1987714246604000e+01 -9.1022323444844737e+00 2.8974382726346009e+00  8.5142602539275828e+01 -1.4696267548581035e+01 3.2506791815019427e+00  9.3816905290416912e+01 -1.9054063230503154e+01 3.0942719844148150e+00  8.7224613147928579e+01 -6.2086545705960230e+00 7.6432918033521720e+00  8.3161660939443607e+01 7.6415426443979184e+00 1.6470930600160191e+01  1.4144461480236041e+02 9.9830900925616763e+00 -1.1233004457548689e+02  1.0595831415577689e+02 6.9105414778628154e+00 -1.0514554441836616e+02  1.0866230477028807e+02 9.3265483635002866e+00 -1.1057359254697727e+02  1.1911534723357720e+02 1.3495217621559391e+01 -1.0826914932926687e+02  1.2376328889235360e+02 6.2869425943705970e+00 -9.9824012461362017e+01  1.1846453008669927e+02 8.7151987087685168e+00 -9.1935239711031159e+01  1.1571073110265574e+02 1.6571682445554874e+01 -1.0038455953429128e+02  1.2005357737142444e+02 1.4407563769255029e+01 -1.2283249792113212e+02  1.0197258845975732e+02 7.6661680813945052e+00 -1.1842557793914175e+02  9.0825849011985454e+01 4.1324198104858469e+00 -1.1310227219401629e+02  2.1601436581657424e+02 -7.4157474816008090e+01 -5.2408412365472948e+01  1.9931416511640290e+02 -4.4779443014064114e+01 -2.7377081339019586e+01  1.8126647047977127e+02 -5.2499672771087198e+01 -4.7614483114139311e+01  1.9865274737707068e+02 -5.0494632067362303e+01 -1.9481629606522333e+01  2.1640575680122348e+02 -7.0243047533607125e+01 -5.8272025157280055e+01  1.7818526250973849e+02 -5.7467767305242077e+01 -4.0256307313241180e+01  2.2841871015130400e+02 -4.6095334090841334e+01 -5.6162250548778665e+01  1.5837420111651403e+02 -4.7972007701195224e+01 -4.9128272034795231e+01  1.6377933636473506e+02 -4.1957360920749068e+01 -3.1852621505870246e+01  1.7663177233926299e+02 -3.0559705730332389e+01 -6.2962132182701396e+00  1.2120004971569078e+02 -9.3963919864051334e+01 4.3508811387328663e+01  1.0236329769515781e+02 -8.4010510917790612e+01 3.9718106466066168e+00  1.1736394083177547e+02 -9.9387023961432973e+01 1.1371338120403037e+01  9.4519396759195430e+01 -8.1830778765261798e+01 1.1464079131207273e+01  9.5906864344009222e+01 -7.6776056879070836e+01 2.5911001707954792e+01  7.9957515640784450e+01 -8.2199653896924204e+01 -1.2497878861584606e+01  1.0183969574602942e+02 -8.9348043716216210e+01 -3.5846643949828971e+00  8.0013205430626442e+01 -6.9401499405428169e+01 1.1458569654504975e+00  8.3034544268573029e+01 -6.3343200607865995e+01 1.2070927542378030e+01  1.1854500329771396e+02 -1.0298777202215074e+02 -2.9399819761831978e+00  8.0409551235668260e+01 -4.2440930563955659e+00 1.2786284897837881e+02  8.0792708805435851e+01 -1.1166741741333791e+01 1.1007834771508671e+02  7.9990673868373150e+01 -6.1745236802446062e+00 1.0955765175607239e+02  8.4783620749020614e+01 -1.1732249779687223e+01 9.8376003668031444e+01  8.5646221083119897e+01 -1.8961605822389501e+01 1.3852489228028779e+02  6.9672674493484976e+01 -1.4135195147002729e+01 1.3775449388459981e+02  9.3205434494663862e+01 2.8532395912203743e+00 1.0531887356000991e+02  6.4716702773750058e+01 -2.8748265975210905e+00 9.6613442668712352e+01  7.5297213712568080e+01 -1.0467724502188382e+01 1.0914230791699617e+02  8.5356638066508495e+01 -1.1409596533922290e+01 1.0218581764812858e+02  9.7193183868748534e+01 -9.1793055147027346e+01 9.5415761128486238e+01  7.8605439139976028e+01 -7.8670725894570268e+01 7.2270660183133316e+01  4.6207679245860014e+01 -6.9632565192103868e+01 7.9383907379531010e+01  6.7361567132591873e+01 -7.9233293030308900e+01 9.2952233557981089e+01  6.2440571213682830e+01 -6.5784312199162272e+01 7.4846906478225947e+01  5.3700022578589319e+01 -6.3442730167787175e+01 6.1827995775973228e+01  6.7786092663005803e+01 -6.6689111173108913e+01 6.3346255761643462e+01  4.2266547943217525e+01 -5.6755864905489609e+01 6.8131392037430814e+01  3.0363218185234636e+01 -5.8109019378171283e+01 6.3883748626003403e+01  7.5010443639616341e+01 -6.6617613661243425e+01 5.0811016406291174e+01  6.9552921244310696e+01 4.707687640799