<?xml version="1.0"?>
<VTKFile type="UnstructuredGrid"  version="0.1"  >
<UnstructuredGrid>
<Piece  NumberOfPoints="13703" NumberOfCells="65247">
<Points>
<DataArray  type="Float64"  NumberOfComponents="3"  format="ascii">30.36918067932129 17.33448028564453 31.27371978759766  30.79474907801214 17.32051035995998 31.76592470808663  31.11275410325848 17.52706404193269 31.36244590729482  30.64394402177655 17.56054945453035 31.547625617683  30.51998573555688 17.09444119107417 31.49201887800129  30.98879581703881 17.06095577847651 31.30683916761311  30.83799076080322 17.30099487304688 31.08854007720947  31.30680084228516 17.26750946044922 30.90336036682129  30.67079079179247 16.8544020965038 31.71031796840492  30.9187073642318 17.78661862341616 31.82153144776834  24.6630802154541 16.33919906616211 39.24499130249023  24.55533535793472 15.60583270181701 39.14407865161451  25.0927406888917 15.81473867861404 39.18634746061961  24.77701473236084 15.84879970550537 39.56854057312012  24.89094924926758 15.35840034484863 39.89208984375  24.98499583137232 15.08137231426894 39.08543480974389  25.20667520579844 15.3243393179573 39.5098967312495  25.5224011623293 15.29027829106597 39.127703618749  23.67685410921737 15.8527686830812 36.77911726006793  23.32404425308516 15.67638804281873 36.02000778208093  23.61304531395677 15.28629771357659 36.51190669088876  22.93856548381536 15.49130610835876 36.37214370895616  22.20027685841335 15.12984353363631 35.96517015784438  22.58575562768314 15.31492546809628 35.61303423096916  22.87475668855475 14.92483513885415 36.10493313977699  23.54923651869616 14.71982674407199 36.2446961217096  23.26023545782455 15.10991707331412 35.75279721290177  22.97123439695294 15.50000740255625 35.26089830409393  30.26991081237793 15.58191013336182 36.13534164428711  30.40787130822697 15.43608407317271 35.45925847816771  30.34846487035165 15.83308293248181 35.76069799820914  30.9207008361392 15.5923339382746 35.63837270244714  31.57149085990048 15.60275774318739 35.14140376060718  30.98010727401453 15.19533507896551 35.33693318240571  30.99925489411292 15.8435067373946 35.26372905636917  30.42701892832537 16.0842557316018 35.38605435213118  30.26574173844001 17.93357407843525 34.75490156340927  30.64570123157661 17.18673016273852 34.09217499416657  30.65399454929484 17.35421268376802 34.65656817566622  30.10073204698691 17.28329787194669 34.57986949142311  30.25744842072178 17.76609155740576 34.19050838190962  29.93572235553381 16.63302166545814 34.40483741943695  30.48898485784174 16.70393647727946 34.48153610368006  30.09243872926868 17.1158153509172 34.01547630992347  30.24915510300355 17.59860903637626 33.62611520040998  31.04224736014967 16.77485128910078 34.55823478792316  23.30981063842773 14.82209968566895 34.57474899291992  23.56081669776305 15.2502583057868 35.11330684263398  23.14052251769034 15.1610535441126 34.91782364850692  23.42952357856195 14.77096321487047 35.40972255731477  23.73010481850045 14.91130444734315 34.77023218704697  24.15039899857316 15.00050920901735 34.96571538117403  23.84981775863466 14.86016797654467 35.60520575144182  29.01284027099609 17.74966049194336 31.65987968444824  29.55858283464961 17.64149531456127 32.00245444562545  29.42270469665527 17.79185485839844 31.54790496826172  29.29329490661621 17.43872547149658 31.6907844543457  29.57374954223633 17.1277904510498 31.72168922424316  29.96844726030879 17.68368968101635 31.89047972943892  29.83903747026973 17.33056029411449 32.03335921552291  29.70315933227539 17.48091983795166 31.57880973815918  29.83256912231445 17.83404922485352 31.4359302520752  30.10432539830314 17.53333013717918 32.34502920680264  30.53357028961182 17.04229545593262 31.17330455780029  31.00238037109375 17.00881004333496 30.98812484741211  30.69795989990234 16.7501106262207 31.07288932800293  30.68437534584741 16.80225636136225 31.39160364820393  31.40233859505248 16.54349718150854 31.5005206676147  31.13076362099242 16.77700719890356 31.56732555347896  31.43518409218382 17.03570661601782 31.48256107288814  31.27395534515381 16.77530002593994 30.92131996154785  30.9695348739624 16.51660060882568 31.00608444213867  31.24110984802246 16.28309059143066 30.93927955627441  31.56356734208249 16.80390377158641 32.061761778955  29.77523994445801 16.84803009033203 36.28807067871094  29.72892009788313 16.71569518651988 35.92157261772735  30.02141879666598 16.93186835260444 36.00226928792313  29.9608097076416 16.61942958831787 36.16332054138184  30.1463794708252 16.39082908630371 36.03857040405273  29.9750989500911 16.7995334487923 35.63577122693955  29.91448986106672 16.48709468450572 35.79682248039825  30.20698855984957 16.70326785059028 35.87751915059403  30.26759764887395 17.01570661487685 35.71646789713533  29.68260025130825 16.58336028270774 35.55507455674376  28.631566763641 16.57702983507994 36.60195767715769  28.42391371256986 15.7017342175458 36.50536164949089  27.95794057754846 16.23910239272642 36.26657570329281  28.40189686796889 16.15388912885944 36.84350005626042  28.65358360824197 16.1248749237663 36.26381927038814  28.67560045284293 15.67272001245266 35.9256808636186  27.72827068187635 15.81596168650591 36.50811808239555  27.97995742214942 15.78694748141277 35.92843729652327  28.17222697229679 15.73074842263894 37.08504243536317  27.28431439145591 15.90117495037289 35.93119372942793  27.74214475810041 15.78116171456314 38.19482564301943  27.89485369863152 15.20967896033919 37.8739479817495  28.27395209401602 15.55649062443245 37.90751337692964  28.15035208791251 15.47808572102058 38.30727839157807  23.59461975097656 16.88644027709961 38.19760131835938  24.1754280323368 16.84902120618352 38.09039553701551  23.9007230991703 16.86070657758245 37.80666026174696  24.04480771116071 16.39765618654245 38.13516080999334  23.86932468414307 16.87475490570068 38.48133659362793  24.14402961730957 16.86306953430176 38.76507186889648  24.31951264432722 16.38597081514352 38.41889608526189  24.49499567134486 15.90887209598528 38.0727203016273  24.35091105935445 16.37192248702528 37.74421975338092  24.20682644736404 16.83497287806529 37.41571920513454  29.16165924072266 14.66110038757324 37.17647171020508  29.29144178121558 14.75506475001961 36.54183770624529  29.18252303209665 14.57524081220406 36.54761399072174  28.93556676595679 14.82180001765877 36.89209367243181  29.51753425598145 14.59436511993408 36.82621574401855  29.87340927124023 14.52762985229492 36.47595977783203  29.53839804735544 14.5085055445649 36.19735802453522  28.70947429119093 14.98249964774429 36.60771563465855  28.95643055733079 14.73594044228959 36.26323595294848  29.20338682347064 14.48938123683489 35.91875627123841  30.20044039209425 15.32791496938898 33.91520740967427  30.29458204011141 15.0579136920663 34.72383500693925  30.31372966020981 15.70608535049539 34.65063088090272  30.88596562599736 15.46533635628818 34.52830558514073  27.55875099258974 14.87617128322137 36.66090486566405  27.7139892901839 15.27642731853369 35.76297746928344  27.85120759075081 14.76392548495793 36.1278330374015  27.08097242031558 15.16682670555885 35.55698225731426  27.42153269202283 15.38867311679713 36.29604929754599  27.21819072088249 14.65432487198309 35.92183782543232  28.14366418891189 14.65167968669449 35.59476120913894  27.15714073181152 16.9112606048584 31.97138023376465  27.43887042999268 16.51747512817383 32.03261566162109  27.52321324901894 16.30889785041604 32.73369399072065  27.52289581298828 16.90996551513672 31.9966402053833  27.07311534881592 16.51877021789551 32.00735569000244  26.98908996582031 16.12627983093262 32.04333114624023  27.8889683301957 16.30760276069436 32.75895396233931  27.43918786602334 15.91640746345315 32.76966944695845  27.88865089416504 16.90867042541504 32.02190017700195  27.88928576622637 15.70653509597367 33.49600774767666  31.07680048567109 18.10255907951351 32.83645572609233  31.04534872411735 17.67591462916302 33.77597450069727  31.34848656212289 17.41161718846789 33.47823037893059  30.96611563234286 17.58628661724975 32.93354134148449  30.66297779433732 17.85058405794489 33.23128546325115  31.45917141545112 17.92788965073165 33.38114476353844  31.84154234523115 17.75322022194979 33.92583380098455  30.85543077901463 17.07001415498598 33.03062695687663  30.55229294100909 17.33431159568112 33.32837107864331  32.13304901123047 16.61285018920898 36.93857955932617  32.34324843096731 16.90103572237487 36.22576970803637  31.95428854632376 16.59562056887146 36.41370458352466  31.89323163406554 17.14099578731876 36.30193887325788  32.52200889587402 16.9182653427124 36.75064468383789  32.91096878051758 17.22368049621582 36.56270980834961  32.28219151870909 17.44641094082218 36.1140039977696  31.65341425690061 17.66914138542854 35.6652981871896  31.71447116915883 17.12376616698123 35.77706389745637  31.77552808141705 16.57839094853393 35.88882960772314  26.79001045227051 15.24361038208008 39.89208984375  27.30186693174072 15.36266877388293 39.46976066171504  26.85420743924804 15.46261908745105 39.46976066171504  27.1567922693496 15.03252538123338 39.34714969220716  27.23766994476318 15.14366006851196 39.89208984375  27.68532943725586 15.04370975494385 39.89208984375  26.91840442622558 15.68162779282202 39.04743147968009  27.22098925632714 15.25153408660435 38.9248205101722  22.96999931335449 13.97387981414795 35.25186920166016  23.60253345099847 14.4710235824547 35.53947757745637  22.97061685515371 14.7369436083521 35.25638375287704  23.25961791602533 14.34685327910997 35.74828266168488  23.31291484832764 14.09805011749268 35.04306411743164  23.65583038330078 14.2222204208374 34.83425903320312  23.31353239012686 14.86111391169683 35.04757866864853  31.40888772078336 16.67662111881736 35.22353219782315  31.10127350487121 16.33132334006786 35.63744197992716  31.30686911002508 16.18880451614409 34.84981927426517  31.67350947065876 16.09057434586066 35.51511668416516  30.73463314423752 16.42955351035129 34.97214457002717  24.70858690889333 15.06984959316372 36.21916985709421  2
[...]
<PointData  Vectors="u"> 
<DataArray  type="Float64"  Name="u"  NumberOfComponents="3" format="ascii">2.0379450986167052e+02 -3.6060719924868437e+01 -8.8769345958549820e+01  2.0745962241621663e+02 -1.7152984202984793e+01 -8.3329986066344659e+01  2.1714372586039156e+02 -1.4727163531802434e+01 -8.8575679372467448e+01  2.1687052656851773e+02 -2.2189643822741996e+01 -8.2773868273666793e+01  1.9948739217708356e+02 -2.2761278190648529e+01 -9.0677208188332884e+01  2.0969421351406771e+02 -1.0090695345925008e+01 -8.2141534870857726e+01  2.1124995139094344e+02 -1.5304732513128929e+01 -8.2861487519573600e+01  2.3582238238711039e+02 -6.3997472652153276e+00 -9.8258094455791351e+01  2.0081623438520649e+02 -1.3126249918581520e+01 -8.6232985207891517e+01  2.1488850836830838e+02 -1.4625181158249182e+01 -8.3210456848326288e+01  6.3772426647422137e+01 7.4037169392149664e+01 1.6188741996603031e+01  6.9499755642391790e+01 6.6843977015860105e+01 -3.3933323004481069e+00  6.2275104603048497e+01 6.7726658923018420e+01 4.0236169145329255e+00  7.1782529279896622e+01 8.6749915070124786e+01 1.7857015455682987e+01  7.4969102853886895e+01 7.2229906733336975e+01 -9.3642566558632279e-01  6.5513447291182388e+01 6.4159396666356017e+01 -4.3013578806365667e+00  6.3268410658964669e+01 6.7208481058591815e+01 -5.7441335092351831e-01  6.2356910270961365e+01 6.3053025730813474e+01 -4.1459273598692441e+00  6.2963438580218501e+01 3.4218700306745262e+01 -1.5503803060241652e+00  5.7419234058651654e+01 2.3376195636955785e+01 -2.9826484080227003e+00  6.0345210037802261e+01 3.7622107084240284e+01 -9.7556811623232544e+00  5.0263086173482812e+01 3.0904346773828291e+01 -6.4284013101017532e+00  3.3614715715957388e+01 2.7545086020937578e+01 -1.2081758033650273e+01  4.2881526908493534e+01 1.8952159121085984e+01 -7.0468338016414585e+00  4.7529643593259649e+01 3.5920726577768022e+01 -1.5772332459134537e+01  5.8946403437272309e+01 4.3597605892337697e+01 -1.9086847705769539e+01  5.5155855018144344e+01 2.7025324970361041e+01 -1.2482360051973748e+01  5.1941240114525407e+01 1.0457154124203228e+01 -1.4090553616721280e+00  2.5129776781597852e+02 4.2542815761970822e+01 1.3534169640856481e+01  1.8851311480389893e+02 2.0766459614437721e+01 -2.4027397756312396e+01  1.9766743319627625e+02 2.3564346004383470e+01 -3.0480938706606814e-01  1.6263205987392169e+02 1.1209340397403105e+01 2.1711011067319883e-01  1.4110237475083306e+02 -5.0580443823767176e+00 -3.8191332810221716e+01  1.7154224306367092e+02 9.8812594152663262e+00 -2.3277571216508587e+01  1.5611105314772917e+02 4.2490029470227837e+00 -2.3403793284102253e+01  1.7507654832757470e+02 1.3351452641353445e+01 -1.9226725460584632e+01  1.6009514575925937e+02 9.3661485132140569e+00 -2.6620556653508448e+01  1.6264867795068520e+02 1.6326886530525684e+00 -4.5934044736333682e+01  1.5474232728512712e+02 5.2783841608678719e+00 -3.5666637255524961e+01  1.6347353724228785e+02 7.1024677510525365e+00 -3.2220704465845564e+01  1.6718560537967230e+02 3.0046012546500647e+00 -3.2786310726719194e+01  1.7100477907575743e+02 1.0150589408122935e+01 -3.8297812246763264e+01  1.6422760809874509e+02 5.6434854348128809e+00 -4.1062753474962200e+01  1.7089310011375423e+02 2.2430336746948036e+00 -3.8973372767236000e+01  1.7772345517022063e+02 -3.3365920331119012e+00 -4.1293225073014248e+01  1.5044540309652695e+02 7.7221368116766020e-01 -4.5445396674805018e+01  6.4683597203605842e+01 -4.2401366718875005e-01 -1.8801285096474864e+01  6.2656560537413547e+01 1.1118546485654157e+01 -8.7970831762845005e+00  5.6373152180361537e+01 7.3757608567613815e+00 -7.6448334169902337e+00  5.8580409273545506e+01 2.5657769776528461e+01 -2.0399629839924380e+01  6.5824609808379350e+01 5.1088290814602946e+00 -2.0118415311851066e+01  7.0960271420612827e+01 1.2054492613574816e+01 -1.7368248279089382e+01  6.4572378962771310e+01 2.9123450331398811e+01 -1.9347342289770001e+01  2.4774163838547989e+02 -5.9735859386000833e+01 -2.8130630575480935e+00  2.2985388330095768e+02 -3.8321470333500883e+01 -4.2254722624480650e+01  2.5539926387686177e+02 -6.0384654941185858e+01 -3.1739107418888395e+01  2.4391369603645887e+02 -4.3831563651823778e+01 -3.8963127109865823e+01  2.4334923717397703e+02 -4.2700228836121305e+01 -7.6907606946833482e+01  2.2744282434732364e+02 -3.8118745320143070e+01 -6.2318717705213551e+01  2.2040820525489863e+02 -3.0838873191687714e+01 -6.6224759376774770e+01  2.5646621007479359e+02 -6.2947180643033228e+01 -8.1349999326530977e+01  2.5682284909586002e+02 -6.5165551443291406e+01 -5.7411338647966495e+01  2.0975811664575335e+02 -2.2036179344427165e+01 -5.8169145134245220e+01  1.8480944881991530e+02 -2.4966095191064120e+01 -8.8650934399532574e+01  2.1465069590506295e+02 3.8111856874107337e+00 -6.5653274051504454e+01  1.8372110334415115e+02 -6.1094969039302285e+00 -6.9623587732216009e+01  1.9602431436094247e+02 -1.2268406958883087e+01 -8.8604809245692621e+01  2.1307604112892767e+02 -9.5052280915471812e+00 -9.1754514997241500e+01  2.0772960060080760e+02 -1.0660298207409566e+01 -8.6012041555282778e+01  2.1314346284205973e+02 -1.0497561108086654e+01 -9.5954786858386427e+01  2.4045057310274052e+02 -4.1453941605705884e+00 -7.8321136893362095e+01  2.1335278018167932e+02 -1.0613774294192927e+01 -5.9956651027135173e+01  2.3268820104499736e+02 1.3179143911800900e-01 -7.7183115277324532e+01  1.9866953800295809e+02 -1.2366472859208296e+01 -9.8022546003836709e+01  2.4402329859713973e+02 4.5298992125947578e+01 -7.0880438686528521e+01  2.0068317253867494e+02 2.8598988371454059e+01 -4.7875988097677059e+01  2.0123791074271634e+02 1.0647960836700468e+01 -1.3261017601699470e+01  2.6378357676429073e+02 3.2008196351222274e+01 -7.8264869725863688e+00  2.3504152178736470e+02 1.5174528765041909e+01 1.3950215161968003e+01  1.7853398667102516e+02 1.7678441182379238e+01 -2.8197053873068565e+01  1.9749205098173567e+02 2.1286241714663333e+01 -3.6245566584335634e+01  1.9332093436323569e+02 6.7733411834583555e+00 -4.3943961771939826e+00  1.7134894929216554e+02 7.2832709257367778e+00 -1.5315613966361441e+01  1.7820049549647138e+02 2.2188426023684677e+01 -3.9683361122935764e+01  1.1008979776154784e+02 5.4629925972944662e+01 -6.6762983631762353e+01  1.0413125833310869e+02 4.5747724344656952e+01 -7.5279746273486097e+01  1.0918762647504811e+02 4.1785231646919797e+01 -4.5321245115786731e+01  8.9373612065629743e+01 5.4992925336559928e+01 -6.8148830949914270e+01  1.2009532301780203e+02 4.4196070678740831e+01 -7.1455377268504307e+01  1.3629989349554234e+02 3.8236971934694296e+01 -6.8850990826110731e+01  9.7688496135092649e+01 4.4373446836176939e+01 -4.6056128152995669e+01  1.1737825150488669e+02 3.8047221494009626e+01 -4.8218832481547516e+01  7.7258633722648696e+01 5.3155411015544090e+01 -6.4317151657740922e+01  1.0705070835381137e+02 3.5409355419226806e+01 -3.1721515292169542e+01  4.8809472299763854e+01 6.0721338194823609e+01 -4.1734481366377167e+01  5.3394625785959413e+01 5.1750965672896754e+01 -5.0101158899361373e+01  3.7710965504643013e+01 5.8865904104988580e+01 -6.3162528022548045e+01  3.0486576902938534e+01 5.4904981004992514e+01 -5.3612799071898017e+01  7.5240014859570778e+01 6.1403958509037992e+01 2.5701850818665324e+01  6.5181373776233684e+01 5.2510079677969394e+01 1.9290961475464808e+01  6.8674685515336350e+01 4.6874860993517593e+01 1.9663265132252409e+01  6.7493740305380271e+01 5.4244130854705013e+01 9.9409617498511142e+00  6.4632413252934995e+01 7.1790727793203899e+01 2.3459094900880999e+01  5.8536180745590499e+01 7.2551148676687717e+01 2.2540526171292786e+01  6.4952919767606105e+01 6.0099919099045685e+01 1.0579953870040024e+01  6.6963026890223574e+01 5.3875702705662640e+01 3.3700411716173811e-01  6.7902040241775367e+01 4.6985500662019120e+01 6.8544649748168789e+00  7.0275663878804039e+01 3.7765044343929411e+01 1.4649189580870212e+01  7.2145077998991511e+01 2.9379588930725873e+01 -1.5003068903151174e+02  1.4093301378301203e+02 2.7654726043577185e+01 -1.5059090900719670e+02  1.4068347991002580e+02 3.6112836637667684e+01 -1.3059342407365958e+02  9.5353737336600929e+01 3.5656754776485883e+01 -1.1954407949400952e+02  1.4057626990270850e+02 1.6193132030982895e+01 -1.6907683757116794e+02  2.6870107557658457e+02 5.8482002016541344e+01 -1.4300180752644772e+02  2.0275855342355405e+02 4.6812024048344206e+01 -1.1599739161506334e+02  1.0943603909081973e+02 4.1312512788801818e+01 -9.6623682542477610e+01  1.4076425166761425e+02 4.0059313417070108e+01 -9.8754698266693310e+01  1.7265339530901920e+02 4.4168565753155136e+01 -8.5508569870387035e+01  1.8644466765141976e+02 1.7458055582449450e+01 -5.0615587210964350e+01  1.8486523010430921e+02 1.9946288114139165e+01 -4.3877686547953203e+01  1.7577987039520875e+02 1.3408797656354782e+01 -4.2147594827933204e+01  1.7029065162797906e+02 6.0796862274234265e+00 -4.7702223291740147e+01  9.2484829239878906e+01 4.8911097581465540e+01 -5.0035387318019438e+01  1.1591176742593710e+02 3.9669677199550470e+01 -4.5301309114202283e+01  1.1120104412546620e+02 4.6561696170229936e+01 -5.4579541761403448e+01  1.0726128468383348e+02 3.7160933949590110e+01 -3.4498685251014791e+01  9.9324449848533803e+01 4.3232435350094100e+01 -4.1523337207323692e+01  1.0298264852162875e+02 4.6941789802316897e+01 -4.2206489753842625e+01  1.2928678610477860e+02 4.4881625278758371e+01 -5.5409862731347452e+01  1.7889422728980767e+02 -5.5879073491509473e+01 2.3875640384066582e+01  1.6148352624194601e+02 -3.6554664699729365e+01 9.1451500232252432e+00  1.5479322901282197e+02 -1.4938437200537837e+01 -5.3855850692841782e+00  1.8027482367143108e+02 -4.3080425212853491e+01 1.5034263553534528e+01  1.6058275981888912e+02 -5.2363096644854487e+01 6.6985526613183244e-01  1.4760023414458072e+02 -4.3956101593454939e+01 -5.6291304274166638e+00  1.6619667991150493e+02 -7.9805447904946192e+00 -9.9031968122202709e+00  1.4566732812259949e+02 -1.0861008666086050e+01 -1.0726521273595027e+01  1.9513928130717855e+02 -3.3534520977224609e+01 4.0290819893263308e+00  1.4843615668547599e+02 1.0313276855521746e+01 -2.1210979807407369e+01  1.8732588488983436e+02 -6.7959791714973488e+00 -7.0216407861136105e+01  1.6168612455477623e+02 -4.9871784120785895e-01 -5.5757124419616687e+01  1.6167736376595042e+02 -4.0597818651882172e+00 -7.0291843376265476e+01  1.8364886311611068e+02 -7.9308211598637834e+00 -6.8866653905885414e+01  1.8190480922783595e+02 -6.5494945216818499e+00 -5.4095889072767193e+01  1.5964460695273445e+02 -1.6584485039340893e+00 -7.2485410974920953e+01  1.2945708074541363e+02 7.7765020683983843e-01 -7.2457100776324253e+01  1.8248126347021375e+02 -6.5867817001548863e+00 -6.8774762032159927e+01  1.7930880674200753e+02 -4.6552824943934983e+00 -5.4876110820385890e+01  4.1678694400194473e+01 -1.9330149520572711e+01 -2.1154882408669522e+00  6.1007725529546398e+01 -6.6021039416486511e+00 -1.9149306144763948e+01  7.6907265039871959e+01 -1.1281725476821400e+01 -3.0940084762500142e+00  8.3782965125988213e+01 4.2340684793329120e-01 -6.7412217446382661e+00  4.0793080941653145e+01 1.7954409984382407e+00 -2.4841458034058874e+01  2.1714848794614809e+01 2.0201185647566870e+01 -1.3706474662572957e+01  6.8242292637015524e+01 1.2630319944611372e+01 -1.4797804846570726e+01  1.0886477539205518e+02 1.1534022128269504e+01 -2.0534175442891971e+01  1.0201622727350816e+02 -3.8687906499535896e-01 -1.8336462169343982e+01  9.9182217729339385e+01 -8.6744772709556894e+00 -1.4239976736405598e+01  4.4113387941083012e+01 5.6628517478565762e+01 -4.3477084754296663e-01  2.8868428420011760e+01 5.3028676923318791e+01 -1.4425440428270575e+01  4.4021536655734181e+01 5.7932552578300424e+01 -8.3733330564084003e+00  4.0966504325172544e+01 5.2461987017586893e+01 -1.3341154613458409e+01  3.1656074882354098e+01 5.0932373840488111e+01 1.0488468653388432e-01  5.2781601713914004e+00 3.7776038487417068e+01 -7.7478922510088877e+00  4.7298508216075049e+01 5.8977496498065790e+01 -1.5281869286461736e+01  4.3437250851622309e+01 5.4815908038223014e+01 -2.2578022102156357e+01  4.8186983471458021e+01 3.6650945451824505e+01 -4.0393671465147712e+01  6.0512780745108749e+01 3.4930525977076208e+01 -2.7289933067883698e+01  5.0499532785271498e+01 2.1788173690336514e+01 -1.8872297781443834e+01  5.4688185330342407e+01 4.1898926839751866e+01 -2.8730948956332412e+01  5.7228354546818935e+01 2.9608065027642148e+01 -3.8977671502239033e+01  6.3655302826372306e+01 2.1844589718732362e+01 -4.1459904230012178e+01  5.8292040328780445e+01 1.4733095239787787e+01 -1.7893744624622890e+01  1.2922266871523018e+02 -2.0857843742471349e+00 -2.9703713536804781e+01  1.4011791619040471e+02 -2.0750661476677418e-01 -6.4665541413435124e+00  1.4551324037349858e+02 -2.2210498476647649e+00 -4.1309398761574343e+01  1.1885735896747373e+02 -7.6028426662327737e+00 -2.4130645558540721e+01  1.5863388152328471e+02 5.5923655901602816e+00 -3.2189502920558489e+01  7.3486616774132074e+01 3.8784505016313581e+01 -1.6269566119838537e+01  6.5383467946367659e+01 2.6732489658103656e+01 -6.4625950278990576e+00  7.3605736559282079e+01 2.6362322189918608e+01 -5.4427656568092573e+00  6.7908322071734020e+01 3.6708685910183952e+01 -7.9854856699242367e+00  6.7944488230063001e+01 2.4694568248751640e+01 1.9966020956983095e+00  7.3964998561133186e+01 1.4838627112998632e+01 6.8475561691653990e+00  8.8681166122048752e-02 1.1550836484189695e+00 1.0567357594208628e+00  4.9670106215360805e+00 2.0570002928280369e+00 -4.3484792192769905e-02  7.6758447016574999e-02 6.7654873971923859e+00 -1.8320889925592327e+00  5.5255446610933303e+00 2.0788865205315634e+00 8.8234393992015392e-01  -1.9189171939768143e-01 1.2808555167307560e+00 -3.9077082601047036e-01  -5.4860840120467647e-01 1.1919154074668599e+00 -2.5841443523388890e+00  -3.0278482973488235e-01 5.2255036536799144e+00 -4.6096459086518440e+00  9.9352892827515262e+00 8.8751280009660358e-02 3.2191245438565228e+00  9.2179179776827791e+00 5.5522861299706419e+00 -7.6670604147105825e-01  5.9022645214236391e+00 1.4857578802798816e+01 -7.3737234652548631e+00  5.1866693315648265e+00 3.0539959859584538e+01 -4.9066851919358712e+00  1.5789983523189324e+01 4.4835419989366414e+01 -1.2785961003124093e+01  4.3960709213215630e+00 4.8064845748858666e+01 -1.2307420487379297e+01  -4.2478933835173569e+00 3.7325139018233784e+01 -7.0662032751337360e+00  -1.2714147175630652e+01 3.3071877670690171e+01 -1.1615135792828632e+01  -1.2490993946392930e+01 4.6752711537585853e+01 -1.5900561777709488e+01  3.2217488766686717e+00 6.6270217133714439e+01 -2.2395850341102570e+01  7.8524380933857742e+01 2.7614034276589109e+01 2.8518699364690375e-01  8.6095024633264558e+01 2.8208513834563181e+01 -1.0140154967167399e+01  7.7111111336960604e+01 3.8168428142523375e+01 -9.8934074947603090e+00  8.2646458536573022e+01 1.4683632998992938e+01 -2.0441132347492048e+00  8.1781713056537328e+01 2.6863397006118255e+01 -1.5580677619609979e+01  9.1660380259828457e+01 1.3713400001019675e+01 -1.3111739310840900e+01  7.9169315169249941e+01 3.8862061324320557e+01 -6.3048981522870040e+00  1.0869645653767931e+02 4.3076866404247369e+01 -6.2731320547027735e+01  1.3345069928066499e+02 3.9493584152025335e+01 -6.0524958421540099e+01  1.4907899981353847e+02 6.2360482256850354e+00 -4.4280766042148436e+01  1.4034656367910947e+02 -1.5456467335466659e+00 -5.7860133032987740e+01  8.3974859559583095e+01 4.9006407037194819e+01 -2.8516178836565214e+01  7.5243459661545998e+01 4.9450662699290284e+01 -1.5877131331212771e+01  8.1351906599401815e+01 4.2794844691287324e+01 -1.7442086932510414e+01  7.2451576130314933e+01 4.9050201098589596e+01 -1.0651125509040751e+01  8.1994913851762973e+01 5.1643817457241930e+01 -1.3154051854991479e+02  7.2311893875136732e+01 5.3236893731764184e+01 -8.9992600063690588e+01  1.2429239393551866e+02 4.2782559810633316e+01 -9.6047426485164834e+01  9.6755170200334774e+01 5.8739284578117001e+01 -9.4776578135802907e+01  1.5010590389215750e+02 2.4248442205636010e+01 -3.3928890968250386e+01  1.4540259713761029e+02 3.2625920465793364e+01 -5.1894923401394422e+01  1.6279511917031593e+02 2.5692080429656546e+01 -4.6193616511247598e+01  1.6198835616808429e+02 2.5391752071876283e+01 -4.1763630152397319e+01  1.6465427354632152e+02 3.4006462728126358e+01 -6.5836532957057926e+01  1.8023352759921673e+02 2.4621180409513148e+01 -4.6012714466096561e+01  1.7344122920983432e+02 2.9516610898375415e+01 -5.0890226021804693e+01  1.6241443716573548e+02 3.2996140577329797e+01 -6.4055245581369277e+01  6.4288362244081469e+01 6.5471141905360113e+01 -2.5540551229162660e+00  6.2726548162084235e+01 6.5147771947996958e+01 -5.7741980384751181e-02  6.5748972700851795e+01 6.3410880620811966e+01 2.2827799074171884e-01  6.5663042108181955e+01 6.9112530766401733e+01 2.2460655655069614e-01  6.5013582697010307e+01 6.6445843697478139e+01 -1.3340938103795780e-01  6.1264765070320720e+01 6.3543257234554694e+01 8.8536660766513869e-02  6.1567479482266471e+01 6.3813978433590016e+01 -3.2963265469057323e+00  1.7176498290248941e+02 2.6217825984549106e+00 -5.4481202851634748e+01  1.8410222239784841e+02 1.5550020864586334e-01 -6.2452186408421703e+01  1.8291767739281471e+02 4.5080766772196332e+00 -6.3248574365512454e+01  1.8465096076527217e+02 1.0949547347238735e+01 -5.0102964458265461e+01  1.7643395727378143e+02 1.1553268655025953e+01 -4.4798489653540059e+01  1.8838602655944601e+02 1.8302790455230264e+00 -4.6081019755109466e+01  1.7804177082484324e+02 5.8689316691414986e+00 -4.2155988473861868e+01  1.7574740444845497e+02 -6.4033764133697169e+00 -7.9031836040830498e+01  1.8328626363594759e+02 -2.6370304849320203e+01 2.5314111108058885e+01  9.9503806767765369e+01 -3.5124512348227796e+01 6.0646638587362823e+01  1.2000255215992139e+02 -1.1461780606891082e+01 1.7716211155123268e+01  1.4714468653877248e+02 -3.4357244373029516e+01 6.2195802060993934e+01  1.2933832940509691e+02 -3.2826332278755217e+01 4.3089371818249361e+01  9.5556870185792192e+01 -2.2857915021335337e+01 2.6148629428616605e+01  1.1591340223203883e+02 -8.0980669190438928e+00 1.4043556444677593e+01  9.7033013785748352e+01 -1.1078984446681275e+01 8.9703239098867495e+00  1.3981754021987473e+02 -5.3704034427857712e+00 6.0637670013910487e+01  7.4077963133051625e+01 5.1013727083125630e+01 -2.3550930054605946e+01  6.4777869702301956e+01 5.6003782188681932e+01 -3.1586374069223861e+01  7.5726305375786637e+01 5.2451089707252684e+01 -4.0210349306671191e+01  7.6270288104361939e+01 5.3789820210046983e+01 -2.9817315100860807e+01  8.1082610846879177e+01 5.8564431130321736e+01 -3.6052794844476274e+01  6.4080537097362296e+01 6.2712310657169283e+01 -3.9880016320974697e+01  7.6737973711486518e+01 5.7984389362235646e+01 -5.0144458404391678e+01  5.9181528664213246e+01 5.7152468338564248e+01 -5.2464336786065367e+01  -4.6113887759019700e+00 2.0575330702179070e+01 -7.0762535205132302e+00  -6.9528265970993330e-01 4.7822573125320972e+01 -1.8883858819247180e+01  -2.5054672649760843e+01 3.7026293998252342e+01 -1.5506589601342389e+01  -2.1808101779286670e+01 2.9218782463122345e+01 -2.1134955015801495e+01  4.1236809714355882e+00 3.3887593535044573e+01 -1.7851540262623818e+01  -5.9030932411836892e+00 1.8780303827483500e+01 -1.2757277017940716e+01  -4.5961191076546664e+00 4.8124110860725800e+01 -2.5539414143384139e+01  1.3002430309321273e+01 5.6801391394159900e+01 -2.5525632158725152e+01  7.2100342375325468e+01 2.5813677512482982e+01 8.5033100243757023e+00  6.7175299332763771e+01 3.5080623042021067e+01 5.8996343490304124e+00  7.2421662958056032e+01 3.6687660115570722e+01 -1.7505652525831827e+00  7.3843219276051457e+01 3.7954470683387846e+01 4.6370155070515615e+00  6.4321628615703714e+00 6.3973074751555700e+01 -9.7099540882014335e+00  6.2109409439932541e+00 4.7058360705636645e+01 -3.5457046954316475e+01  1.3616543766389174e+01 6.5576353786013101e+01 -3.1780102074520638e+01  3.1321538565053768e+01 6.0379578822363897e+01 -1.2493348433471930e+01  -9.1216052953781646e-01 5.1007736776138195e+01 -5.6241292703327499e+00  1.5124578649441927e+01 6.4519894065198613e+01 -4.6422864628485840e+01  3.3981832489202141e+01 5.9372119737347269e+01 -2.8436244158254816e+01  7.9402557281698080e+01 4.4176009543027426e+01 -2.1