<?xml version="1.0"?>
<VTKFile type="UnstructuredGrid"  version="0.1"  >
<UnstructuredGrid>
<Piece  NumberOfPoints="3786" NumberOfCells="18490">
<Points>
<DataArray  type="Float64"  NumberOfComponents="3"  format="ascii">25 30 15  25 30 16.25  25 28.75 16.25  23.75 28.75 16.25  25 30 17.5  25 28.75 17.5  37.5 27.5 2.5  37.5 27.5 3.75  37.5 26.25 3.75  36.25 26.25 3.75  37.5 27.5 5  35 27.5 2.5  36.25 27.5 3.75  36.25 27.5 2.5  35 27.5 3.75  35 27.5 5  36.25 27.5 5  38.75 27.5 3.75  38.75 27.5 2.5  38.75 26.25 3.75  40 27.5 2.5  40 27.5 3.75  40 27.5 5  38.75 27.5 5  38.75 26.25 5  36.25 27.5 6.25  36.25 26.25 6.25  37.5 27.5 6.25  37.5 27.5 7.5  35 27.5 6.25  35 27.5 7.5  36.25 27.5 7.5  38.75 27.5 6.25  38.75 26.25 6.25  40 27.5 6.25  40 27.5 7.5  38.75 27.5 7.5  32.5 27.5 7.5  33.75 27.5 8.75  33.75 27.5 7.5  33.75 26.25 8.75  35 27.5 8.75  35 27.5 10  32.5 27.5 10  33.75 27.5 10  33.75 26.25 10  32.5 27.5 8.75  38.75 27.5 8.75  38.75 26.25 8.75  40 27.5 8.75  40 27.5 10  37.5 27.5 8.75  37.5 27.5 10  38.75 27.5 10  30 27.5 10  31.25 27.5 11.25  31.25 27.5 10  31.25 26.25 11.25  32.5 27.5 11.25  32.5 27.5 12.5  30 27.5 12.5  31.25 27.5 12.5  31.25 26.25 12.5  30 27.5 11.25  35 27.5 11.25  35 26.25 11.25  33.75 26.25 11.25  35 27.5 12.5  33.75 27.5 11.25  33.75 27.5 12.5  36.25 27.5 11.25  36.25 27.5 10  36.25 26.25 11.25  37.5 27.5 11.25  37.5 27.5 12.5  36.25 27.5 12.5  40 27.5 12.5  40 26.25 12.5  38.75 26.25 12.5  38.75 26.25 11.25  38.75 27.5 11.25  40 27.5 11.25  38.75 27.5 12.5  32.5 27.5 13.75  32.5 26.25 13.75  31.25 26.25 13.75  32.5 27.5 15  31.25 27.5 13.75  30 27.5 13.75  30 27.5 15  31.25 27.5 15  35 27.5 13.75  35 26.25 13.75  33.75 26.25 13.75  35 27.5 15  35 26.25 15  33.75 26.25 15  33.75 27.5 13.75  33.75 27.5 15  37.5 27.5 13.75  37.5 26.25 13.75  36.25 26.25 13.75  37.5 27.5 15  37.5 25 15  37.5 26.25 15  36.25 26.25 15  36.25 27.5 13.75  36.25 27.5 15  40 27.5 13.75  40 26.25 13.75  38.75 26.25 13.75  40 27.5 15  40 25 15  40 26.25 15  38.75 26.25 15  38.75 25 15  38.75 27.5 13.75  38.75 27.5 15  32.5 27.5 16.25  32.5 26.25 16.25  31.25 26.25 16.25  32.5 27.5 17.5  32.5 25 17.5  32.5 26.25 17.5  31.25 26.25 17.5  31.25 27.5 16.25  30 27.5 17.5  31.25 27.5 17.5  30 27.5 16.25  35 27.5 16.25  35 26.25 16.25  33.75 26.25 16.25  35 27.5 17.5  35 25 17.5  35 26.25 17.5  33.75 26.25 17.5  33.75 25 17.5  33.75 27.5 16.25  33.75 27.5 17.5  37.5 26.25 16.25  36.25 26.25 16.25  37.5 27.5 16.25  37.5 27.5 17.5  37.5 25 16.25  37.5 25 17.5  37.5 26.25 17.5  36.25 26.25 17.5  36.25 27.5 16.25  36.25 27.5 17.5  38.75 26.25 16.25  40 26.25 16.25  40 27.5 16.25  40 27.5 17.5  40 25 16.25  40 25 17.5  40 26.25 17.5  38.75 26.25 17.5  38.75 25 17.5  38.75 27.5 16.25  38.75 27.5 17.5  32.5 26.25 18.75  31.25 26.25 18.75  33.75 26.25 18.75  35 26.25 18.75  35 27.5 18.75  35 27.5 20  35 25 18.75  35 25 20  35 26.25 20  33.75 26.25 20  33.75 27.5 18.75  37.5 26.25 18.75  36.25 26.25 18.75  37.5 27.5 18.75  37.5 27.5 20  37.5 25 18.75  37.5 25 20  37.5 26.25 20  36.25 26.25 20  36.25 25 20  36.25 27.5 18.75  36.25 27.5 20  38.75 26.25 18.75  38.75 27.5 18.75  40 27.5 18.75  40 27.5 20  35 26.25 21.25  33.75 26.25 21.25  36.25 26.25 21.25  42.5 27.5 0  42.5 27.5 1.25  42.5 26.25 1.25  41.25 26.25 1.25  42.5 26.25 0  41.25 26.25 0  42.5 27.5 2.5  42.5 26.25 2.5  41.25 26.25 2.5  40 27.5 0  41.25 27.5 1.25  41.25 27.5 0  41.25 27.5 2.5  40 27.5 1.25  45 25 0  45 26.25 1.25  45 26.25 0  43.75 26.25 1.25  43.75 26.25 0  45 27.5 0  45 27.5 1.25  45 27.5 2.5  45 25 1.25  45 25 2.5  45 26.25 2.5  43.75 26.25 2.5  43.75 27.5 1.25  43.75 27.5 0  43.75 27.5 2.5  47.5 25 0  47.5 26.25 1.25  47.5 26.25 0  46.25 26.25 1.25  46.25 26.25 0  47.5 27.5 0  47.5 27.5 1.25  47.5 27.5 2.5  47.5 25 2.5  47.5 26.25 2.5  46.25 26.25 2.5  46.25 27.5 1.25  46.25 27.5 0  46.25 27.5 2.5  50 27.5 0  50 27.5 1.25  50 26.25 1.25  48.75 26.25 1.25  50 27.5 2.5  50 25 2.5  50 26.25 2.5  48.75 26.25 2.5  48.75 26.25 0  48.75 27.5 1.25  48.75 27.5 0  48.75 27.5 2.5  46.25 28.75 1.25  46.25 28.75 0  47.5 28.75 1.25  47.5 28.75 0  47.5 30 0  47.5 30 1.25  47.5 30 2.5  47.5 28.75 2.5  46.25 28.75 2.5  48.75 28.75 1.25  48.75 28.75 0  50 28.75 1.25  50 28.75 0  50 30 0  50 30 1.25  50 30 2.5  50 28.75 2.5  48.75 28.75 2.5  48.75 30 1.25  48.75 30 0  48.75 30 2.5  40 26.25 3.75  40 26.25 5  42.5 27.5 3.75  42.5 26.25 3.75  41.25 26.25 3.75  42.5 27.5 5  42.5 25 5  42.5 26.25 5  41.25 26.25 5  41.25 27.5 3.75  41.25 27.5 5  45 26.25 3.75  43.75 26.25 3.75  45 27.5 3.75  45 27.5 5  45 25 5  45 26.25 5  43.75 26.25 5  43.75 25 5  43.75 27.5 3.75  43.75 27.5 5  47.5 26.25 3.75  46.25 26.25 3.75  47.5 27.5 3.75  47.5 27.5 5  47.5 25 5  47.5 26.25 5  46.25 26.25 5  46.25 27.5 3.75  46.25 27.5 5  50 26.25 3.75  48.75 26.25 3.75  50 27.5 3.75  50 27.5 5  50 25 3.75  50 25 5  50 26.25 5  48.75 26.25 5  48.75 27.5 3.75  48.75 27.5 5  48.75 28.75 3.75  50 28.75 3.75  50 30 3.75  50 30 5  50 28.75 5  48.75 28.75 5  48.75 30 3.75  40 26.25 6.25  42.5 26.25 6.25  41.25 26.25 6.25  42.5 27.5 6.25  42.5 27.5 7.5  42.5 25 6.25  42.5 25 7.5  42.5 26.25 7.5  41.25 26.25 7.5  41.25 27.5 6.25  41.25 27.5 7.5  43.75 26.25 6.25  45 26.25 6.25  45 27.5 6.25  45 27.5 7.5  45 25 6.25  45 25 7.5  45 26.25 7.5  43.75 26.25 7.5  43.75 25 7.5  43.75 27.5 6.25  43.75 27.5 7.5  47.5 26.25 6.25  46.25 26.25 6.25  47.5 27.5 6.25  47.5 27.5 7.5  47.5 25 7.5  47.5 26.25 7.5  46.25 26.25 7.5  46.25 25 7.5  46.25 27.5 6.25  46.25 27.5 7.5  50 26.25 6.25  48.75 26.25 6.25  50 27.5 6.25  50 27.5 7.5  50 25 7.5  50 26.25 7.5  48.75 26.25 7.5  48.75 25 7.5  48.75 27.5 6.25  48.75 27.5 7.5  46.25 25 8.75  46.25 23.75 8.75  47.5 25 8.75  47.5 25 10  45 25 10  46.25 25 10  46.25 23.75 10  45 25 8.75  42.5 26.25 8.75  41.25 26.25 8.75  42.5 27.5 8.75  42.5 27.5 10  42.5 26.25 10  41.25 26.25 10  41.25 27.5 8.75  41.25 27.5 10  43.75 26.25 8.75  45 26.25 8.75  45 27.5 8.75  45 27.5 10  45 26.25 10  43.75 26.25 10  43.75 27.5 8.75  43.75 27.5 10  46.25 26.25 8.75  47.5 26.25 8.75  47.5 27.5 8.75  47.5 27.5 10  47.5 26.25 10  46.25 26.25 10  46.25 27.5 8.75  46.25 27.5 10  48.75 26.25 8.75  50 26.25 8.75  50 27.5 8.75  50 27.5 10  50 25 10  50 26.25 10  48.75 26.25 10  48.75 25 10  48.75 27.5 8.75  48.75 27.5 10  46.25 25 11.25  46.25 23.75 11.25  47.5 25 11.25  47.5 25 12.5  45 25 11.25  45 25 12.5  46.25 25 12.5  48.75 25 11.25  48.75 23.75 11.25  50 25 11.25  50 25 12.5  48.75 25 12.5  48.75 23.75 12.5  40 26.25 11.25  42.5 27.5 11.25  42.5 26.25 11.25  41.25 26.25 11.25  42.5 27.5 12.5  42.5 25 12.5  42.5 26.25 12.5  41.25 26.25 12.5  41.25 27.5 11.25  41.25 27.5 12.5  45 26.25 11.25  43.75 26.25 11.25  45 27.5 11.25  45 27.5 12.5  45 26.25 12.5  43.75 26.25 12.5  43.75 27.5 11.25  43.75 27.5 12.5  46.25 26.25 11.25  47.5 26.25 11.25  47.5 27.5 11.25  47.5 27.5 12.5  47.5 26.25 12.5  46.25 26.25 12.5  46.25 27.5 11.25  46.25 27.5 12.5  48.75 26.25 11.25  50 26.25 11.25  50 27.5 11.25  50 27.5 12.5  50 26.25 12.5  48.75 26.25 12.5  48.75 27.5 11.25  48.75 27.5 12.5  47.5 25 13.75  47.5 23.75 13.75  46.25 23.75 13.75  47.5 25 15  46.25 25 13.75  45 25 15  46.25 25 15  46.25 23.75 15  45 25 13.75  48.75 25 13.75  48.75 23.75 13.75  50 25 13.75  50 25 15  48.75 25 15  48.75 23.75 15  42.5 26.25 13.75  41.25 26.25 13.75  42.5 27.5 13.75  42.5 27.5 15  42.5 25 15  42.5 26.25 15  41.25 26.25 15  41.25 25 15  41.25 27.5 13.75  41.25 27.5 15  45 26.25 13.75  43.75 26.25 13.75  45 27.5 13.75  45 27.5 15  45 26.25 15  43.75 26.25 15  43.75 25 15  43.75 27.5 13.75  43.75 27.5 15  46.25 26.25 13.75  47.5 26.25 13.75  47.5 27.5 13.75  47.5 27.5 15  47.5 26.25 15  46.25 26.25 15  46.25 27.5 13.75  46.25 27.5 15  48.75 26.25 13.75  50 26.25 13.75  50 27.5 13.75  50 27.5 15  50 26.25 15  48.75 26.25 15  48.75 27.5 13.75  48.75 27.5 15  42.5 25 16.25  42.5 23.75 16.25  41.25 23.75 16.25  42.5 25 17.5  42.5 22.5 17.5  42.5 23.75 17.5  41.25 23.75 17.5  41.25 25 16.25  41.25 25 17.5  45 25 16.25  45 23.75 16.25  43.75 23.75 16.25  45 25 17.5  45 22.5 17.5  45 23.75 17.5  43.75 23.75 17.5  43.75 25 16.25  43.75 25 17.5  47.5 25 16.25  47.5 23.75 16.25  46.25 23.75 16.25  47.5 25 17.5  46.25 25 16.25  46.25 23.75 17.5  46.25 25 17.5  48.75 25 16.25  48.75 23.75 16.25  50 25 16.25  50 25 17.5  48.75 25 17.5  48.75 23.75 17.5  41.25 26.25 16.25  42.5 26.25 16.25  42.5 27.5 16.25  42.5 27.5 17.5  42.5 26.25 17.5  41.25 26.25 17.5  41.25 27.5 16.25  41.25 27.5 17.5  43.75 26.25 16.25  45 26.25 16.25  45 27.5 16.25  45 27.5 17.5  45 26.25 17.5  43.75 26.25 17.5  43.75 27.5 16.25  43.75 27.5 17.5  46.25 26.25 16.25  47.5 26.25 16.25  47.5 27.5 16.25  47.5 27.5 17.5  47.5 26.25 17.5  46.25 26.25 17.5  46.25 27.5 16.25  46.25 27.5 17.5  48.75 26.25 16.25  50 26.25 16.25  50 27.5 16.25  50 27.5 17.5  50 26.25 17.5  48.75 26.25 17.5  48.75 27.5 16.25  48.75 27.5 17.5  42.5 23.75 18.75  41.25 23.75 18.75  42.5 25 18.75  42.5 25 20  42.5 22.5 18.75  42.5 22.5 20  42.5 23.75 20  41.25 25 18.75  45 23.75 18.75  43.75 23.75 18.75  45 25 18.75  45 25 20  45 22.5 20  45 23.75 20  43.75 23.75 20  43.75 25 18.75  43.75 25 20  47.5 25 18.75  47.5 23.75 18.75  46.25 23.75 18.75  47.5 25 20  47.5 22.5 20  47.5 23.75 20  46.25 23.75 20  46.25 25 18.75  46.25 25 20  50 25 18.75  50 23.75 18.75  48.75 23.75 18.75  50 25 20  48.75 25 18.75  48.75 25 20  41.25 26.25 18.75  42.5 26.25 18.75  42.5 27.5 18.75  42.5 27.5 20  42.5 26.25 20  41.25 27.5 18.75  43.75 26.25 18.75  45 26.25 18.75  45 27.5 18.75  45 27.5 20  45 26.25 20  43.75 26.25 20  43.75 27.5 18.75  43.75 27.5 20  46.25 26.25 18.75  47.5 26.25 18.75  47.5 27.5 18.75  47.5 27.5 20  47.5 26.25 20  46.25 26.25 20  46.25 27.5 18.75  46.25 27.5 20  48.75 26.25 18.75  50 26.25 18.75  50 27.5 18.75  50 27.5 20  50 26.25 20  48.75 26.25 20  48.75 27.5 18.75  48.75 27.5 20  45 23.75 21.25  43.75 23.75 21.25  46.25 23.75 21.25  43.75 26.25 21.25  43.75 27.5 21.25  46.25 26.25 21.25  47.5 26.25 21.25  47.5 27.5 21.25  46.25 27.5 21.25  48.75 26.25 21.25  50 26.25 21.25  50 27.5 21.25  50 27.
[...]
<PointData  Scalars="c_HbCO2"> 
<DataArray  type="Float64"  Name="c_HbCO2"  format="ascii">1.3549140382749230e-31  8.0188518868833695e-32  7.8238654859124664e-33  -4.1881928020400787e-31  1.3549119084006857e-31  8.0188389355582788e-32  1.7012418066478360e-36  1.0072461092621505e-36  9.8811781094438033e-38  -5.2582253219772523e-36  1.7014917585372001e-36  1.6254785524335449e-35  -3.1127466074343325e-36  -3.0337857116162929e-37  9.6201818024157625e-36  1.6254431358422680e-35  -3.0445036411632824e-37  -3.2593083890623564e-37  -3.2013301530927814e-38  -5.5050802243964359e-37  1.7801926312909039e-37  1.0536827492984160e-37  1.7797632613414848e-37  -3.1604023828673482e-38  -3.2602714184101262e-37  -3.1120469033703669e-36  -5.2594368374236490e-36  1.0071982080319548e-36  1.7004134545683318e-36  9.6192031051722748e-36  1.6257471450517141e-35  -3.0504117758758322e-37  -3.2576830949529175e-37  -5.5052278113916096e-37  1.0516245383765388e-37  1.7799227077510276e-37  -3.1662310252552058e-38  1.5531199614438780e-34  -2.9736127138807946e-35  -2.8956502885615803e-36  -5.0245951297609374e-35  9.6234507325316939e-36  1.6259212425113558e-35  1.5531496363998955e-34  -2.8948905267244114e-36  -2.9737462581553328e-35  9.1916644260945903e-35  -3.2549894579303881e-37  -5.5038328322310388e-37  1.0548228825999085e-37  1.7757643775843548e-37  1.0063040710561466e-36  1.7014455883789897e-36  -3.1233899863155889e-38  1.4840691251421532e-33  -2.8416531094922483e-34  -2.7716436606353974e-35  -4.8010849072700838e-34  9.1924793362291699e-35  1.5532761897811360e-34  1.4839850315591788e-33  -2.7766550167094691e-35  -2.8413105012367668e-34  8.7829306645279951e-34  9.6201729314911287e-36  9.3692326412233111e-37  -5.0244347220072447e-35  1.6245885442344120e-35  -2.9738819363192387e-35  -2.9102614659777408e-36  -3.1115037574931364e-36  -3.0371040947090358e-37  -5.2632118824520540e-36  1.0080014816203035e-36  1.7005445751345892e-36  -3.0576120012322188e-37  1.7828785618319975e-37  1.0583992566022336e-37  -3.2462517938233312e-37  -5.4917319205346070e-37  -3.2489526913994174e-37  1.0496403365974463e-37  -3.1145462131318278e-38  9.1934922272252515e-35  8.9887292570238858e-36  -4.8009623360983225e-34  1.5532371613456305e-34  -2.8413670266254303e-34  8.7823943259870157e-34  1.4840532893036034e-33  -2.7730991586542929e-35  9.6145410876475007e-36  9.2953162743681964e-37  -5.0250362998884781e-35  1.6253708070793345e-35  9.6103633456928618e-36  -2.9751394636229511e-35  -2.9737240472166474e-35  -2.8956955671966370e-36  1.0086132256713472e-36  9.8493525489599628e-38  -5.2666569427605464e-36  1.7015279967670498e-36  1.6945530227222390e-36  1.0090992562558538e-36  -3.1189689711976715e-36  -3.1128569247559379e-36  -3.0263099739500016e-37  1.0564265525599338e-37  1.0742125805381615e-38  -5.4939412459565949e-37  1.7824574972601221e-37  1.7740815783719330e-37  1.0629074419636372e-37  -3.2558507625692081e-37  -3.6497244998147668e-38  -3.2533051193502503e-37  -3.1508025297514949e-38  9.1908142421499591e-35  8.9067732461117704e-36  -4.8013129141018764e-34  1.5529575328144635e-34  1.5532168475419227e-34  9.1900009593895838e-35  -2.8416382673605341e-34  -2.8411680898211293e-34  1.4841216333342878e-33  -2.7687883665392796e-35  8.7840237904017968e-34  9.6149104996164204e-36  9.1518613996585953e-37  -5.0274264737412946e-35  1.6255480529945336e-35  1.6248894740569136e-35  9.6207735667607527e-36  -2.9729567415932422e-35  -2.8990638188014793e-36  -2.9724468329744008e-35  -2.8921079356577906e-36  9.8906666352485664e-38  -5.2635993307950922e-36  1.0068887608980257e-36  1.7025902204714799e-36  1.0017572883288606e-36  1.7010756791389720e-36  1.0122983410868334e-36  -3.1087561323488919e-36  -3.1105808156969898e-36  -2.9800087320917415e-37  -5.5257120707851742e-37  1.1239410460989799e-38  1.0553941481263013e-37  1.7758109796549175e-37  1.0606645857837212e-37  1.7731983807183767e-37  1.0550606370834899e-37  -3.2703074865908325e-37  -3.4942581133400070e-38  -3.2522140398220552e-37  -3.3169718241058627e-38  8.9829364536443205e-36  -4.8014132834710748e-34  -5.0236251305098386e-35  9.4472913156738191e-37  9.6260165385685171e-36  1.6258959373498584e-35  9.6270127654992023e-36  1.6263807535548213e-35  9.6274072167901881e-36  -2.9747269138178510e-35  -2.9733834298368964e-35  1.0002678803227142e-37  -5.2518060659193481e-36  1.0050871379531050e-36  1.7012753002108043e-36  1.0057134767186795e-36  1.6979356568014103e-36  1.0113896241062018e-36  -3.1093267942545892e-36  -2.9654014953374522e-37  -3.1093800708892078e-36  -2.9761296698271075e-37  -5.5001346997552503e-37  -3.2796070079147506e-37  1.0436705687808132e-37  1.7784246056417800e-37  9.3365661923169209e-37  -5.0239051053985206e-35  -5.2712076359723049e-36  1.8644889447643745e-38  1.1028693467534325e-38  1.1046887720081967e-39  -5.7577255093121798e-38  1.1081338471041439e-38  -3.4090258657620702e-38  1.8691889978279462e-38  1.1124289073598304e-38  -3.3996872933391296e-38  1.7798429382088341e-37  -3.4083074460701461e-38  -3.3068528218508668e-39  -3.2677656554016621e-39  1.0534607688918299e-37  1.9474933235283619e-39  1.1279390658378771e-40  1.1487856703347724e-39  -6.0296122709004321e-39  -3.5413762921755705e-39  1.9494249879072389e-39  1.1556656654575513e-39  1.9448471810061966e-39  1.1439051722731591e-39  1.9342143573953415e-39  1.1193742740888068e-39  -3.6189385411300489e-39  -3.5712364672958305e-39  -3.4760017209445024e-40  -3.8472841566179400e-40  2.0413750963000163e-40  5.8920336226738208e-42  1.0839274802419647e-40  -6.3870409685750006e-40  -3.8556166682303074e-40  2.0355245601779986e-40  1.2095557378441739e-40  2.0507170647399470e-40  2.0770020675712004e-40  1.1973069312037761e-40  -3.7496396145394280e-40  -3.7485471464164635e-40  -4.4901544402502543e-41  -3.6640573481557846e-41  4.1463820427724710e-41  2.4699020106302654e-41  3.4600205036244130e-42  -7.4554491504759597e-41  4.2825819804090883e-41  4.2099915348747425e-41  2.4580228856819633e-41  -4.6290121464099768e-41  -4.1430578815665976e-41  -4.2340373433517380e-41  -3.6860434050929930e-42  -3.4047837468127133e-42  -6.3115280588084742e-40  -3.7261697868937141e-40  1.2324563215117452e-41  1.2325770913892127e-40  2.0621966069349063e-40  1.2201907025717042e-40  2.0651961310846089e-40  1.2180209713935066e-40  -3.7559783515975552e-40  -7.3101988304420973e-41  -4.3256094574668253e-41  2.1717017098923372e-42  2.4141667774914499e-41  4.2924395056993931e-41  2.5467261781707556e-41  4.2922471940785308e-41  2.5660990577514878e-41  -4.2780888700852749e-41  -4.2977951826755813e-41  -4.2126101168840159e-42  -3.9609316114034905e-42  1.0227596657835618e-38  1.0517565052114679e-37  1.1072222548994322e-38  1.1916144192125335e-39  -5.7529127389184912e-38  1.8660233906651922e-38  1.8649024871307186e-38  1.1144095470160383e-38  -3.4054329315389950e-38  -3.4048968094076078e-38  -3.2626800257035624e-39  9.9954381567094676e-41  -6.0308688361836941e-39  1.1581048002480788e-39  1.9518599288196012e-39  1.9288656077186106e-39  1.1644895204186999e-39  -3.5759131177861768e-39  -3.6158599196395273e-40  -3.5873076559220540e-39  -3.5679474085095871e-40  1.7918383225014475e-41  -6.2017752129614024e-40  1.2093984507527152e-40  2.0770856726574293e-40  2.2911365975549925e-40  1.2333327353630667e-40  -3.5888632079790891e-40  -3.7493409188653593e-40  -3.5013361453984242e-41  1.6749072142403006e-42  -6.9189830946426889e-41  2.5196133925189267e-41  4.7221008146246962e-41  2.8306022188784456e-41  3.8419054246634378e-41  3.6018587981045792e-41  -3.5567005927607165e-41  -4.2843938304023209e-41  -9.4513456238600069e-43  -7.3478499689377739e-41  1.7729148042124253e-42  2.5490392526930742e-41  4.2978414967231702e-41  2.3481825997489473e-41  -4.4015371941531429e-41  -4.2966436555366366e-41  1.0079667435094622e-38  1.0110894111963489e-39  -5.7631816187856471e-38  1.1012657981065849e-38  1.8640593893795730e-38  1.0882959780054837e-38  1.8555415494391649e-38  1.1044395655355178e-38  -3.3945406500291144e-38  -3.4087469017963879e-38  -3.3801457292907537e-39  -6.0104245478947067e-39  1.0246325335511500e-40  1.1493303508131604e-39  1.9606431453097746e-39  1.1171286522331284e-39  1.9337069790117987e-39  1.1846308668999155e-39  -3.5197505281055032e-39  -4.2591196547270674e-40  -3.5604338890950691e-39  -3.2689418562089773e-40  6.5425700481413380e-42  -6.3843894681540995e-40  1.1916992569875601e-40  2.0975800493828505e-40  2.1501402861689123e-40  1.2471757290434517e-40  -3.8825276553809400e-40  -1.9751803261810742e-41  -3.8214041748632136e-40  -4.3145673870151923e-41  1.3030071431388202e-41  -6.1999353717724174e-41  3.0404705961988893e-41  4.9320157007530798e-41  5.7639500047155932e-41  3.8616500025961054e-41  -3.0338066624981242e-41  8.0910628936186311e-42  -4.1379311711140076e-41  3.1312775388329963e-42  -4.2782107906941836e-40  -6.3679100362097800e-40  1.0077397606285978e-40  2.1592615445003612e-40  2.3417731630454061e-39  -1.8509143408390361e-40  -3.6205424593168238e-40  1.0464607073640402e-39  1.2194849667583331e-39  -5.7338472797047706e-38  1.1031900512197294e-38  1.8653270352094347e-38  1.1090086040165692e-38  -3.3959950733855860e-38  -3.4292839627179916e-38  -3.8533417084596118e-39  -5.9393980626153818e-39  1.4403762409828552e-40  1.1546703405845087e-39  1.9940320098576609e-39  1.1408643310123395e-39  -3.6310638601353765e-39  -3.5380010062638932e-39  -2.5382992030798414e-40  -6.3868681501778470e-40  2.4273646739434384e-41  1.2583210061237416e-40  2.1203097565714204e-40  1.1376676362699725e-40  -4.6289598868738259e-40  -3.8125370230164767e-40  -6.1275708977083497e-41  -4.8280996818412156e-41  2.0408789695726195e-41  3.2697127879768051e-41  4.8380588665032779e-41  3.9963355017166460e-42  1.5095785210224704e-41  -3.4975883825639316e-41  3.4730796873708026e-42  -3.3127385892942406e-41  3.2939286785337324e-42  -2.1990695728172047e-40  -3.5595623265178579e-40  1.7210712051446655e-40  3.3769342117749338e-40  1.8926894459989373e-39  2.1892680659527252e-39  1.1460329554799906e-40  -6.7389496824437994e-41  -1.0091785803506150e-40  -9.2917852709438104e-41  -6.6689217314369335e-41  -2.4809780957674992e-42  -4.7271337638029690e-41  1.0319131282577404e-38  1.1015959243813406e-38  1.0287028158779305e-39  -5.8070115034171920e-38  1.8578204265112978e-38  1.9050689244960298e-38  1.0777684753598174e-38  -3.4993723667000373e-38  -3.4591348204648124e-38  -3.5173905741755057e-39  5.4640601310318030e-40  -5.5400461236556837e-39  1.2020933151887565e-39  1.9410148440399428e-39  1.2436011418319605e-39  -2.9376001206917906e-39  -3.3286740346241603e-39  -2.1127322811786412e-40  -6.0155736178053090e-40  2.1172216034563095e-41  1.1338444572683462e-40  1.9943718609748527e-40  1.8861871688311865e-40  -3.7153333429035064e-40  -4.2054883112512913e-40  -9.3056655634957405e-41  -7.4558969463780330e-41  -3.3171222092720104e-41  2.8312095484524362e-41  4.9754844011144362e-41  -4.7833246698727223e-41  -3.7713409102284726e-41  -3.6287857309763366e-41  5.1668250345473064e-42  2.5899384309411913e-40  3.6970770531501249e-41  -6.7070318300428640e-40  2.1454530402704401e-40  -3.0766823539174631e-40  2.0205247261231463e-39  -6.8087197580328087e-41  -4.9761717205638611e-40  1.1134616596133066e-39  -4.6171061539677451e-41  -6.0847154210387408e-41  -1.5479840543024874e-40  2.5830450507299640e-41  4.5104099934895128e-41  5.3944790127245428e-41  6.3730458190571834e-40  -5.7871829512022715e-38  1.1023599345106539e-38  1.8597046895854457e-38  1.7447756068108105e-38  1.1258634190576068e-38  -3.4899103482500773e-38  -4.8405906519569052e-39  -3.4347244986343965e-38  -3.4978770430590403e-39  1.5295583161017711e-40  -5.9824003962353157e-39  1.1370874024909840e-39  1.9629811836676464e-39  1.1799292495360425e-39  -3.4577458691374517e-39  -1.3622662607920082e-40  -3.5167614344060959e-39  -3.2256854755407273e-40  -6.2959366596453626e-40  2.7652017826650772e-41  1.2345658848814647e-40  2.0521385104901499e-40  1.1694364157559587e-40  -3.5468971528638662e-40  -4.0073415787268466e-40  -3.6546270185477934e-41  -7.1638826557186814e-41  -2.3442239823458995e-41  3.8817928805841084e-41  4.4191428829862064e-41  2.9357637076971522e-41  -4.4794965594395149e-41  -3.9687455515272956e-41  -2.8176722974827287e-42  1.1226160691581428e-38  1.1392597421947449e-39  -5.7925052438166855e-38  1.8757022013378226e-38  2.0523129870949186e-38  1.2547446161599109e-38  -3.3302452756236345e-38  -3.4268122660402908e-38  -3.7696219803261067e-39  1.3913295148421112e-39  4.5576216041278830e-40  -5.6390813313594690e-39  2.1664491799899207e-39  2.8285188659216017e-39  1.5462431397973160e-39  -2.1139410347288711e-39  -3.2801505686222912e-39  -2.4019356845090712e-40  -1.0959483607843083e-40  -2.7791730033284253e-40  -6.6235888896933385e-40  -1.7318376388082770e-40  -4.7879078821694639e-40  -4.8899365557578276e-40  -3.2731546433736416e-40  -5.3524546271180015e-41  2.2472573654593066e-41  3.3539220789847629e-40  4.3817344153276263e-40  -2.4305462224523552e-42  6.1103911362478627e-41  -5.7588294774914757e-38  1.2449690014706260e-39  1.1031222181298771e-38  1.8575057634290253e-38  1.1063566067942849e-38  -3.4231357184772409e-38  -3.4080173370976167e-38  -3.2717457415185468e-39  -6.0171094542468711e-39  4.5077673064208576e-41  1.1166700883965152e-39  1.9518680862898294e-39  1.1334912534879283e-39  -3.7066384189613884e-39  -3.6064051741167931e-39  -3.0417557475555916e-40  -6.7217572939810939e-40  -6.1468065854303462e-41  1.6309184135502529e-40  2.4323045489451707e-40  -1.0007376096627096e-40  -4.4903726567335288e-40  -3.4206726092523213e-40  1.1553970955260368e-41  -7.4417382016827541e-41  1.1115499677386525e-40  2.2158653353176576e-41  1.8226586090290365e-41  3.0544082637241725e-40  -3.8990368284943933e-41  -7.1442826914694897e-41  -1.4966584878984847e-42  1.7657816488052222e-39  -5.5624749757153687e-38  1.0507316989261735e-38  2.0678825157684536e-38  1.1543288366106344e-38  1.7458578755064506e-38  1.0515974878410870e-38  -3.2113102710553568e-38  -3.9709195736413872e-40  -5.2100154826390664e-39  6.4494112388267818e-40  3.0246671600879402e-39  2.5800501378201308e-39  2.4888147601626077e-39  -1.1101068376534576e-39  -3.3490400628442315e-39  2.9228546136444856e-39  -3.5231562069602276e-40  -1.8668743619853993e-40  -6.6477912384420090e-40  -4.1390671924705343e-41  -2.3133196235167998e-40  3.4815782570864139e-42  -2.7028114681481443e-40  -5.4349336609520567e-40  -3.5723742237025048e-40  5.2147014993275629e-40  5.3742697769760024e-40  -6.6812130344262471e-41  2.9920252722472458e-40  -2.5446329057157058e-41  2.5993124074827279e-40  -5.7348479159879692e-38  6.0117889390827046e-40  1.0601973463311972e-38  1.8479233212585734e-38  1.1399920161981833e-38  -3.4780221276097575e-38  -5.9122540070572611e-39  -7.7373166835594041e-41  1.0821406446257716e-39  1.7683800536916518e-39  6.2701742388090121e-40  -2.8767058810751295e-39  -3.6361342329189421e-39  -5.4592624441927694e-40  -6.9418087530359681e-40  -1.0952949370058648e-40  1.5439599390943597e-40  2.9084692289000402e-40  1.3556818470189842e-40  -3.5853568196223230e-40  -3.7559122423993041e-40  -2.5560696948470919e-42  -8.6221038402688276e-41  5.9381445867598946e-41  5.8489932896155188e-42  6.6635568895886265e-41  -9.6334101132637697e-41  2.0796122849893698e-41  -8.7798752565698499e-41  2.9954990083603998e-41  1.5247913562517044e-39  -5.6911165602986861e-39  -3.7539790968130771e-40  -5.7658599691368610e-39  -4.0517778267696327e-39  -1.2155533369557398e-39  -7.3552183219681395e-41  3.0051908304866837e-40  -4.8615518646366102e-40  1.3663220380608139e-41  5.0406416791405865e-41  1.4450944022415149e-40  1.3681934203011889e-40  1.3721719803847364e-40  4.9863894629420231e-42  5.0240509050563997e-41  5.6758242867480699e-41  1.6254395733380278e-35  9.6192253533956233e-36  9.3702880634192659e-37  -5.0247332999888107e-35  1.6254740904955471e-35  9.6191074070266250e-36  -2.9739881383509471e-35  1.5532005925538745e-34  -2.9735612073723511e-35  -2.9020814282494937e-36  -2.9737447870964293e-35  1.5531344267774195e-34  -2.9016238685664093e-36  9.1924866147949765e-35  1.7014993302440490e-36  1.0067359050187513e-36  9.8202864504185304e-38  -5.2587841887142947e-36  1.7011845376885043e-36  1.0067667384076262e-36  -3.1120955558722070e-36  -3.1119585565088615e-36  -3.0302832479865471e-37  -3.0349841917352172e-37  1.0151104828436219e-38  1.0524216929781230e-37  -5.5055121187478541e-37  -3.2572785878430718e-37  1.7799846601898831e-37  1.0535466726031309e-37  1.7802679643311740e-37  1.0534353129345187e-37  -3.2598689541769502e-37  -3.2586126698422401e-37  -3.1984249056469071e-38  -3.1815236469875020e-38  -5.7585075974131456e-38  -3.4072188650355385e-38  1.0623000574600391e-39  1.1016788522344961e-38  1.8629601913910963e-38  1.1025093732065071e-38  1.8632734968402875e-38  1.1005049374114352e-38  -3.4088339439123196e-38  -3.4069431732158011e-38  -3.2985964761089276e-39  -3.3128817144559211e-39  -6.0273249911677423e-39  -3.5678047280667405e-39  1.1539250588004477e-40  1.1542210051106246e-39  1.9498377606902254e-39  1.1535364278529423e-39  1.9498899653656783e-39  1.1621665219042048e-39  -3.5634536414389064e-39  -3.5674122189080645e-39  -3.4722452010612367e-40  -3.4998437205880983e-40  -3.7381653632196488e-40  -3.6504319087439132e-41  -3.6686074972597799e-41  1.4180100256375806e-32  8.3922406165639383e-33  8.1878111063915537e-34  -4.3832466705404776e-32  1.4180103424637176e-32  1.4180043520904593e-32  8.3921941339605605e-33  -2.5941612445006878e-32  1.3549138157936258e-31  -2.5941368551747836e-32  -2.5308658053353033e-33  -2.5941388729136888e-32  1.3549121164576815e-31  -2.5309372296000524e-33  8.0188106244535690e-32  1.4840411028108681e-33  8.5681258230190604e-35  8.7829714406796960e-34  -4.5874057792300475e-33  -2.7149782402390198e-33  1.4840443832955133e-33  8.7830361907312887e-34  1.4840450676260362e-33  1.4840613895597347e-33  8.7830927264667693e-34  -2.7149643578290921e-33  -2.7149654853909938e-33  -2.6488491375545616e-34  -2.6488217890769148e-34  8.9683812629225205e-36  9.1919138048507965e-35  -4.8009631053196759e-34  -2.8413588635141590e-34  1.5531550216296501e-34  9.1920720402526091e-35  1.5531581231550610e-34  9.1920335118490710e-35  -2.8413595749157474e-34  -2.7718698419857961e-35  -2.8413805447617548e-34  -2.7719627407667913e-35  -2.7720504766621511e-35  -5.0245517413856053e-35  -2.9737302947161805e-35  9.3838628097159197e-37  9.6197373129292540e-36  1.6254949675093262e-35  9.6202284757952395e-36  1.6254919183688751e-35  9.6202302618606084e-36  -2.9736928030095197e-35  -2.9737149020861785e-35  -2.9011961224687568e-36  -2.9011414169669675e-36  -5.2585722919100755e-36  -3.1120196263241056e-36  9.8184461556365456e-38  1.0067301165831981e-36  1.7011782189378626e-36  1.0068125558674042e-36  1.7011897073474040e-36  1.0068117325938316e-36  -3.1121666220940457e-36  -3.1121739593076241e-36  -3.0358329723888945e-37  -3.0361269662204429e-37  -5.5033017769483069e-37  -3.2571549776891049e-37  1.0307735187830017e-38  1.0540302233282181e-37  1.7803759739595902e-37  1.0536764608586562e-37  1.7803889925294596e-37  1.0538389245621690e-37  -3.2569129471428004e-37  -3.2571740192628552e-37  -3.1787402790105426e-38  -3.1783168921973442e-38  -5.7599564676325515e-38  -3.4089477390390623e-38  1.0743526460112297e-39  1.1025109445146575e-38  1.8633727820006275e-38  1.1027929363313344e-38  1.8633301901490059e-38  1.1029416518040492e-38  -3.4089172400665987e-38  -3.4087990238259620e-38  -3.3242488564595457e-39  -3.3256553696666635e-39  -6.0276979161642673e-39  -3.5671121499580797e-39  1.1233343757718547e-40  1.1543536804331613e-39  1.9502813205822756e-39  1.1542629643499911e-39  1.9504110742926529e-39  1.1535952399209325e-39  -3.5675507146493703e-39  -3.5675075197314623e-39  -3.4781665821879406e-40  -3.4807260416652795e-40  -6.3149308566940188e-40  -3.7384633612855441e-40  1.1938374352756573e-41  1.2204536240778413e-40  2.0637967368359434e-40  1.2213504211400874e-40  2.0636872529747081e-40  1.2215986453528356e-40  -3.7363089955616750e-40  -3.7373179410048034e-40  -3.6474526628909224e-41  -3.6374477713959027e-41  -7.3018200144546767e-41  -4.3241898