<?xml version="1.0"?>
<VTKFile type="UnstructuredGrid"  version="0.1"  >
<UnstructuredGrid>
<Piece  NumberOfPoints="4075" NumberOfCells="20137">
<Points>
<DataArray  type="Float64"  NumberOfComponents="3"  format="ascii">27.5 37.5 37.5  27.5 37.5 38.75  27.5 36.25 38.75  26.25 36.25 38.75  27.5 37.5 40  27.5 35 40  27.5 36.25 40  26.25 37.5 38.75  27.5 38.75 38.75  27.5 38.75 37.5  26.25 38.75 38.75  27.5 40 37.5  27.5 40 38.75  27.5 40 40  27.5 38.75 40  27.5 38.75 41.25  26.25 38.75 41.25  27.5 40 41.25  27.5 40 42.5  27.5 37.5 41.25  27.5 37.5 42.5  27.5 38.75 42.5  26.25 40 41.25  27.5 41.25 41.25  27.5 41.25 40  26.25 41.25 41.25  27.5 42.5 40  27.5 42.5 41.25  27.5 42.5 42.5  27.5 41.25 42.5  45 37.5 35  45 37.5 36.25  45 36.25 36.25  43.75 36.25 36.25  45 37.5 37.5  45 35 37.5  45 36.25 37.5  42.5 35 37.5  43.75 36.25 37.5  43.75 35 37.5  42.5 37.5 35  43.75 37.5 36.25  43.75 37.5 35  47.5 37.5 35  47.5 37.5 36.25  47.5 36.25 36.25  46.25 36.25 36.25  47.5 37.5 37.5  47.5 35 37.5  47.5 36.25 37.5  46.25 36.25 37.5  46.25 35 37.5  46.25 37.5 36.25  46.25 37.5 37.5  50 37.5 35  50 37.5 36.25  50 36.25 36.25  48.75 36.25 36.25  50 37.5 37.5  50 35 37.5  50 36.25 37.5  48.75 36.25 37.5  48.75 35 37.5  48.75 37.5 36.25  48.75 37.5 35  48.75 37.5 37.5  42.5 35 38.75  42.5 33.75 38.75  41.25 33.75 38.75  42.5 35 40  42.5 32.5 37.5  42.5 32.5 38.75  42.5 32.5 40  42.5 33.75 40  43.75 35 38.75  43.75 33.75 38.75  45 35 38.75  45 35 40  43.75 33.75 40  43.75 35 40  47.5 35 38.75  46.25 35 38.75  46.25 33.75 38.75  47.5 35 40  48.75 35 38.75  48.75 33.75 38.75  46.25 36.25 38.75  47.5 36.25 38.75  47.5 37.5 38.75  47.5 37.5 40  47.5 36.25 40  48.75 36.25 38.75  50 36.25 38.75  50 37.5 38.75  50 37.5 40  50 35 38.75  50 35 40  50 36.25 40  48.75 36.25 40  48.75 35 40  48.75 37.5 38.75  48.75 37.5 40  45 35 41.25  45 33.75 41.25  43.75 33.75 41.25  45 35 42.5  47.5 35 41.25  47.5 33.75 41.25  46.25 33.75 41.25  47.5 35 42.5  46.25 35 41.25  46.25 35 40  46.25 35 42.5  48.75 35 41.25  48.75 33.75 41.25  50 35 41.25  50 35 42.5  48.75 35 42.5  48.75 33.75 42.5  30 37.5 32.5  30 38.75 33.75  30 37.5 33.75  28.75 38.75 33.75  30 37.5 35  30 38.75 35  30 40 35  27.5 37.5 35  28.75 38.75 35  28.75 37.5 35  27.5 38.75 35  27.5 38.75 33.75  27.5 40 35  28.75 40 35  32.5 37.5 32.5  32.5 38.75 33.75  32.5 38.75 32.5  31.25 38.75 33.75  32.5 40 32.5  32.5 40 33.75  32.5 40 35  32.5 37.5 33.75  32.5 37.5 35  32.5 38.75 35  31.25 38.75 35  31.25 37.5 35  31.25 40 35  35 40 32.5  35 40 33.75  35 38.75 33.75  33.75 38.75 33.75  35 40 35  35 37.5 35  35 38.75 35  33.75 38.75 35  33.75 37.5 35  33.75 40 33.75  33.75 40 32.5  33.75 40 35  37.5 40 32.5  37.5 40 33.75  37.5 38.75 33.75  36.25 38.75 33.75  37.5 38.75 32.5  36.25 38.75 32.5  37.5 40 35  37.5 37.5 35  37.5 38.75 35  36.25 38.75 35  36.25 37.5 35  36.25 40 33.75  36.25 40 32.5  36.25 40 35  40 40 32.5  40 40 33.75  40 38.75 33.75  38.75 38.75 33.75  40 38.75 32.5  38.75 38.75 32.5  40 40 35  40 37.5 35  40 38.75 35  38.75 38.75 35  38.75 40 33.75  38.75 40 32.5  38.75 40 35  42.5 37.5 32.5  42.5 38.75 33.75  42.5 37.5 33.75  41.25 38.75 33.75  42.5 38.75 35  42.5 40 35  41.25 38.75 35  41.25 37.5 35  41.25 40 35  41.25 40 33.75  43.75 38.75 35  43.75 38.75 33.75  45 38.75 35  45 40 35  43.75 40 35  33.75 41.25 33.75  35 41.25 33.75  35 41.25 35  35 42.5 35  33.75 41.25 35  36.25 41.25 33.75  37.5 41.25 33.75  37.5 41.25 35  37.5 42.5 35  36.25 41.25 35  36.25 42.5 35  38.75 41.25 33.75  40 41.25 33.75  40 41.25 35  40 42.5 35  38.75 41.25 35  38.75 42.5 35  41.25 41.25 33.75  41.25 41.25 35  42.5 41.25 35  42.5 42.5 35  41.25 42.5 35  30 37.5 36.25  30 36.25 36.25  28.75 36.25 36.25  30 37.5 37.5  30 35 37.5  30 36.25 37.5  28.75 36.25 37.5  28.75 37.5 36.25  28.75 37.5 37.5  27.5 37.5 36.25  32.5 37.5 36.25  32.5 36.25 36.25  31.25 36.25 36.25  32.5 37.5 37.5  32.5 35 37.5  32.5 36.25 37.5  31.25 36.25 37.5  31.25 35 37.5  31.25 37.5 36.25  31.25 37.5 37.5  35 37.5 36.25  35 36.25 36.25  33.75 36.25 36.25  35 37.5 37.5  35 35 37.5  35 36.25 37.5  33.75 36.25 37.5  33.75 35 37.5  33.75 37.5 36.25  33.75 37.5 37.5  37.5 37.5 36.25  37.5 36.25 36.25  36.25 36.25 36.25  37.5 37.5 37.5  37.5 35 37.5  37.5 36.25 37.5  36.25 36.25 37.5  36.25 35 37.5  36.25 37.5 36.25  36.25 37.5 37.5  40 37.5 36.25  40 36.25 36.25  38.75 36.25 36.25  40 37.5 37.5  40 35 37.5  40 36.25 37.5  38.75 36.25 37.5  38.75 35 37.5  38.75 37.5 36.25  38.75 37.5 37.5  42.5 37.5 36.25  42.5 36.25 36.25  41.25 36.25 36.25  42.5 37.5 37.5  42.5 36.25 37.5  41.25 36.25 37.5  41.25 37.5 36.25  41.25 37.5 37.5  43.75 37.5 37.5  28.75 38.75 36.25  30 38.75 36.25  30 40 36.25  30 40 37.5  30 38.75 37.5  28.75 38.75 37.5  28.75 40 36.25  27.5 38.75 36.25  28.75 40 37.5  27.5 40 36.25  31.25 38.75 36.25  32.5 38.75 36.25  32.5 40 36.25  32.5 40 37.5  32.5 38.75 37.5  31.25 38.75 37.5  31.25 40 36.25  31.25 40 37.5  33.75 38.75 36.25  35 38.75 36.25  35 40 36.25  35 40 37.5  35 38.75 37.5  33.75 38.75 37.5  33.75 40 36.25  33.75 40 37.5  36.25 38.75 36.25  37.5 38.75 36.25  37.5 40 36.25  37.5 40 37.5  37.5 38.75 37.5  36.25 38.75 37.5  36.25 40 36.25  36.25 40 37.5  40 38.75 36.25  38.75 38.75 36.25  40 40 36.25  40 40 37.5  40 38.75 37.5  38.75 38.75 37.5  38.75 40 36.25  38.75 40 37.5  41.25 38.75 36.25  42.5 38.75 36.25  42.5 40 36.25  42.5 40 37.5  42.5 38.75 37.5  41.25 38.75 37.5  41.25 40 36.25  41.25 40 37.5  43.75 38.75 36.25  45 38.75 36.25  45 40 36.25  45 40 37.5  45 38.75 37.5  43.75 38.75 37.5  43.75 40 36.25  43.75 40 37.5  47.5 38.75 36.25  47.5 38.75 35  46.25 38.75 36.25  46.25 38.75 35  47.5 40 35  47.5 40 36.25  47.5 40 37.5  47.5 38.75 37.5  46.25 38.75 37.5  46.25 40 36.25  46.25 40 35  46.25 40 37.5  48.75 38.75 36.25  48.75 38.75 35  50 38.75 36.25  50 38.75 35  50 40 35  50 40 36.25  50 40 37.5  50 38.75 37.5  48.75 38.75 37.5  48.75 40 36.25  48.75 40 35  48.75 40 37.5  28.75 41.25 36.25  28.75 41.25 35  30 41.25 36.25  30 41.25 35  30 42.5 35  30 42.5 36.25  30 42.5 37.5  30 41.25 37.5  28.75 41.25 37.5  27.5 42.5 35  28.75 42.5 36.25  28.75 42.5 35  27.5 41.25 37.5  27.5 42.5 37.5  28.75 42.5 37.5  31.25 41.25 36.25  31.25 41.25 35  32.5 41.25 36.25  32.5 41.25 35  32.5 42.5 35  32.5 42.5 36.25  32.5 42.5 37.5  32.5 41.25 37.5  31.25 41.25 37.5  31.25 42.5 36.25  31.25 42.5 35  31.25 42.5 37.5  33.75 41.25 36.25  35 41.25 36.25  35 42.5 36.25  35 42.5 37.5  35 41.25 37.5  33.75 41.25 37.5  33.75 42.5 36.25  33.75 42.5 35  33.75 42.5 37.5  36.25 41.25 36.25  37.5 41.25 36.25  37.5 42.5 36.25  37.5 42.5 37.5  37.5 41.25 37.5  36.25 41.25 37.5  36.25 42.5 36.25  36.25 42.5 37.5  38.75 41.25 36.25  40 41.25 36.25  40 42.5 36.25  40 42.5 37.5  40 41.25 37.5  38.75 41.25 37.5  38.75 42.5 36.25  38.75 42.5 37.5  41.25 41.25 36.25  42.5 41.25 36.25  42.5 42.5 36.25  42.5 42.5 37.5  42.5 41.25 37.5  41.25 41.25 37.5  41.25 42.5 36.25  41.25 42.5 37.5  43.75 41.25 36.25  43.75 41.25 35  45 41.25 36.25  45 41.25 35  45 42.5 35  45 42.5 36.25  45 42.5 37.5  45 41.25 37.5  43.75 41.25 37.5  43.75 42.5 36.25  43.75 42.5 35  43.75 42.5 37.5  46.25 41.25 36.25  46.25 41.25 35  47.5 41.25 36.25  47.5 41.25 35  47.5 42.5 35  47.5 42.5 36.25  47.5 42.5 37.5  47.5 41.25 37.5  46.25 41.25 37.5  46.25 42.5 36.25  46.25 42.5 35  46.25 42.5 37.5  48.75 41.25 36.25  48.75 41.25 35  50 41.25 36.25  50 41.25 35  50 42.5 35  50 42.5 36.25  50 42.5 37.5  50 41.25 37.5  48.75 41.25 37.5  48.75 42.5 36.25  48.75 42.5 35  48.75 42.5 37.5  28.75 43.75 36.25  28.75 43.75 35  30 43.75 36.25  30 43.75 35  30 45 35  30 45 36.25  30 45 37.5  30 43.75 37.5  28.75 43.75 37.5  27.5 43.75 35  27.5 45 35  28.75 45 36.25  28.75 45 35  31.25 43.75 36.25  31.25 43.75 35  32.5 43.75 36.25  32.5 43.75 35  32.5 45 35  32.5 45 36.25  32.5 45 37.5  32.5 43.75 37.5  31.25 43.75 37.5  31.25 45 36.25  31.25 45 35  31.25 45 37.5  33.75 43.75 36.25  33.75 43.75 35  35 43.75 36.25  35 43.75 35  35 45 35  35 45 36.25  35 45 37.5  35 43.75 37.5  33.75 43.75 37.5  33.75 45 36.25  33.75 45 35  33.75 45 37.5  36.25 43.75 36.25  36.25 43.75 35  37.5 43.75 36.25  37.5 43.75 35  37.5 45 35  37.5 45 36.25  37.5 45 37.5  37.5 43.75 37.5  36.25 43.75 37.5  36.25 45 36.25  36.25 45 35  36.25 45 37.5  38.75 43.75 36.25  38.75 43.75 35  40 43.75 36.25  40 43.75 35  40 45 35  40 45 36.25  40 45 37.5  40 43.75 37.5  38.75 43.75 37.5  38.75 45 36.25  38.75 45 35  38.75 45 37.5  41.25 43.75 36.25  41.25 43.75 35  42.5 43.75 36.25  42.5 43.75 35  42.5 45 35  42.5 45 36.25  42.5 45 37.5  42.5 43.75 37.5  41.25 43.75 37.5  41.25 45 36.25  41.25 45 35  41.25 45 37.5  43.75 43.75 36.25  43.75 43.75 35  45 43.75 36.25  45 43.75 35  45 45 35  45 45 36.25  45 45 37.5  45 43.75 37.5  43.75 43.75 37.5  43.75 45 36.25  43.75 45 35  43.75 45 37.5  46.25 43.75 36.25  46.25 43.75 35  47.5 43.75 36.25  47.5 43.75 35  47.5 45 35  47.5 45 36.25  47.5 45 37.5  47.5 43.75 37.5  46.25 43.75 37.5  46.25 45 36.25  46.25 45 35  46.25 45 37.5  48.75 43.75 36.25  48.75 43.75 35  50 43.75 36.25  50 43.75 35  50 45 35  50 45 36.25  50 45 37.5  50 43.75 37.5  48.75 43.75 37.5  48.75 45 36.25  48.75 45 35  48.75 45 37.5  28.75 46.25 36.25  28.75 46.25 35  30 46.25 36.25  30 46.25 35  30 47.5 35  30 47.5 36.25  30 47.5 37.5  30 46.25 37.5  28.75 46.25 37.5  28.75 47.5 36.25  27.5 47.5 37.5  28.75 47.5 37.5  31.25 46.25 36.25  31.25 46.25 35  32.5 46.25 36.25  32.5 46.25 35  32.5 47.5 35  32.5 47.5 36.25  32.5 47.5 37.5  32.5 46.25 37.5  31.25 46.25 37.5  31.25 47.5 36.25  31.25 47.5 35  31.25 47.5 37.5  33.75 46.25 36.25  33.75 46.25 35  35 46.25 36.25  35 46.25 35  35 47.5 35  35 47.5 36.25  35 47.5 37.5  35 46.25 37.5  33.75 46.25 37.5  33.75 47.5 36.25  33.75 47.5 35  33.75 47.5 37.5  36.25 46.25 36.25  36.25 46.25 35  37.5 46.25 36.25  37.5 46.25 35  37.5 47.5 35  37.5 47.5 36.25  37.5 47.5 37.5  37.5 46.25 37.5  36.25 46.25 37.5  36.25 47.5 36.25  36.25 47.5 35  36.25 47.5 37.5  38.75 46.25 36.25  38.75 46.25 35  40 46.25 36.25  40 46.25 35  40 47.5 35  40 47.5 36.25  40 47.5 37.5  40
[...]
<PointData  Scalars="c_HbO2"> 
<DataArray  type="Float64"  Name="c_HbO2"  format="ascii">4.4313307178014408e-28  2.6226063314617620e-28  2.5589214066155840e-29  -1.3697625320723220e-27  4.4313017026261038e-28  4.4312794495671508e-28  2.6225821559442687e-28  -8.1066932707276180e-28  2.5587860380710830e-29  2.6225904825422925e-28  -1.3697627333762419e-27  4.4312970777212443e-28  2.6225843183087929e-28  4.4312898327970177e-28  2.6225777144397491e-28  2.5586746911866411e-29  -1.3697630996689468e-27  2.6225795758391602e-28  4.4312865984373253e-28  2.6225864708533882e-28  4.4312893905019754e-28  2.6225791570900647e-28  -8.1066895968623946e-28  2.5586304904031982e-29  2.6225810728634996e-28  -1.3697628246679040e-27  4.4312869043286199e-28  2.6225714228668635e-28  4.4312853371812126e-28  2.6225765524871099e-28  6.0018486715922479e-35  3.3543934908643765e-35  -3.3384673540109119e-37  -1.8812939677441989e-34  6.0808538283374389e-35  5.6606889206893335e-35  3.5306992653782797e-35  5.8359071743044959e-34  -1.1052731745040320e-34  -7.7006680240968969e-36  5.8449581089619497e-34  -1.1111457512263386e-34  -1.1019791457707320e-35  6.5753101915145622e-36  3.4675215226464255e-36  2.2354597480382469e-36  -2.0371627745201932e-35  6.1577969161571780e-36  1.0829106245397880e-35  6.6191381523333621e-36  -9.6615605483270092e-36  3.0080925709778314e-36  -1.1678928207510792e-35  -1.3033873605071134e-36  1.3724173420939914e-36  2.9261944113205644e-37  -1.0491376671617623e-36  -2.1237365816558393e-36  1.4655886584132929e-36  -2.7266707325139148e-36  -2.9384645919991933e-36  -1.5104198231021378e-36  1.4260089950786605e-36  -1.3261412224656126e-36  -9.3749453004297010e-38  -1.5291347262843694e-37  3.5109681251721233e-34  3.3116118007578964e-35  -1.8101460567142402e-33  5.8346851697765277e-34  5.9283983257186035e-34  3.6050713568057905e-34  5.8596788820970194e-34  3.4206453552987243e-34  -1.1179665538669514e-34  -1.8628648028952048e-34  2.7705495718006928e-35  4.9256387260745191e-35  -1.1043557501173591e-34  -1.7482762918496572e-35  5.1136007086616886e-36  -1.2562558306978245e-35  -2.0344427305602042e-35  9.8115846084537621e-36  -2.8235890971590461e-37  -2.8442303539584026e-36  -2.0120394284362494e-35  2.2208742489803232e-36  3.2960795346242332e-36  6.4347097684949264e-36  3.4692931814322335e-36  -2.3113241052972134e-36  -1.6154963904710943e-36  1.6807922628042301e-36  1.7341440210655302e-36  -5.9483819217228582e-36  -1.6379179677696154e-36  -3.8462307851877035e-37  -1.1589901578667635e-36  2.8188994044670196e-36  -1.1037695037201492e-36  -7.0489108589177682e-38  2.6108385332084200e-35  2.7731769880961331e-36  -1.8911531083228456e-34  6.3283884334875806e-35  4.3068049360768559e-36  3.5011654338905503e-36  -1.6920338409513537e-35  7.9670327614122186e-36  -1.4524705806129674e-35  1.4185349931175108e-36  1.2697549266433808e-36  -2.2310176221578526e-36  -2.9741148327518148e-36  -6.3101701069166015e-37  6.5502677198468131e-37  -8.9563622184631467e-37  -1.9767326112240885e-36  4.6376207039693342e-29  2.6776218787018745e-30  2.7447001494410997e-29  -1.4335529977184697e-28  4.6376538725035127e-29  2.7447264864864594e-29  4.6376678818569040e-29  4.4313280854010704e-28  -8.4843370658422802e-29  -8.2783277422759740e-30  2.6225902751085750e-28  2.5587139296151823e-29  4.4313014845395208e-28  -8.2778340255419332e-30  4.8536839859460041e-30  2.8036572925121705e-31  2.8724889497230923e-30  -1.5003292283075836e-29  4.8535561643391146e-30  2.8725927613195109e-30  4.8536664266703927e-30  2.8726594028542603e-30  4.8536264242609358e-30  2.8725218396161164e-30  -8.8794720393787212e-30  -8.6655090793393315e-31  -8.6619309356276817e-31  5.0794995389187899e-31  3.0061828991166275e-31  2.9300228413555210e-32  -1.5701402159218545e-30  5.0796381813164463e-31  5.0795032838091582e-31  3.0061741245570756e-31  -9.2928916033770744e-31  -9.0624512189639761e-32  -9.2928216983613964e-31  -9.0645564891538501e-32  -9.0657101909317410e-32  5.3153157994405126e-32  3.1466724220346474e-32  3.0765732315709818e-33  -1.6433567150057067e-31  3.1454481237593187e-32  -9.7270584904911698e-32  5.3162494682627167e-32  5.3196093020865800e-32  3.1456792111385547e-32  -9.7258102458496967e-32  -9.4670784941357025e-33  -9.7258569036018162e-32  -9.5032916637104684e-33  -9.4826769983402259e-33  5.5644425891858715e-33  3.2925272627824043e-33  3.1312802392248785e-34  -1.7188316430339801e-32  3.2984662025755596e-33  -1.0171418598802451e-32  5.5639197074862679e-33  5.5613269795830285e-33  3.2948739355070997e-33  -1.0173338596830166e-32  -1.0168445371820521e-32  -9.9061921334685047e-34  -9.8787999251928712e-34  5.8280994756683139e-34  3.6246148782146785e-35  3.4510697073721237e-34  -1.8053136019273867e-33  3.4774157071316715e-34  5.8220831481671585e-34  -1.0629118431781436e-33  -1.0706338193045474e-34  -1.0326717825323649e-34  -1.0643536327627892e-33  -1.1144696712906139e-34  -1.8788584304874734e-34  3.5444754221569083e-35  6.1148455644555883e-35  -1.0844728317813727e-35  -1.5702026266157815e-30  2.9334876641899411e-32  3.0064010476583645e-31  5.0798038422275242e-31  -9.2929684019404966e-31  -1.6433100047951549e-31  3.0728223389355182e-33  3.1463654768568217e-32  5.3161886465595545e-32  -9.7253619455602954e-32  -9.4892998673380583e-33  -1.7198857840261268e-32  3.2101103743976794e-34  3.2922934011342168e-33  5.5629487399796727e-33  -1.0178150449644907e-32  -9.9370308420413148e-34  -1.7997648723006651e-33  -1.0651996856295212e-33  3.4456904107508753e-34  5.8212620742783582e-34  -1.0372097997701275e-34  2.7446667541467157e-29  2.6772061149907919e-30  -1.4335278718628041e-28  4.6376531858952890e-29  4.6377284680561984e-29  2.7447536984368067e-29  -8.4838681891286261e-29  -8.4841511277014340e-29  -8.2753888993555531e-30  2.6226499635564789e-28  2.8725369335352477e-30  2.8012032507293418e-31  -1.5003382977207996e-29  4.8536641686732907e-30  4.8536728809605738e-30  2.8724639360826444e-30  -8.8796245373758386e-30  -8.6658894909950026e-31  -8.8795623568740787e-30  -8.6641751780686992e-31  3.0063860809221807e-31  2.9371727766432662e-32  -1.5701764573389267e-30  5.0796466137824000e-31  5.0799346417065102e-31  3.0062991488822615e-31  -9.2923881641546713e-31  -9.0524953401097453e-32  -9.2928993078369476e-31  -9.0688676721264774e-32  3.1468883948509207e-32  3.1372821141323992e-33  -1.6428675308425997e-31  5.3167963626550583e-32  5.3155767379209662e-32  3.1476559273332855e-32  -9.7224565846589827e-32  -9.5470325886252121e-33  -9.7235641821379096e-32  -9.4797323918657704e-33  3.3001499389249290e-33  3.1496425493968261e-34  -1.7166685559041884e-32  5.5677195835350531e-33  5.5733880137893418e-33  3.2959071304276779e-33  -1.0165443175830637e-32  -9.6278787167540096e-34  -1.0173425043456048e-32  -9.9266376215224428e-34  3.4891642774349778e-34  3.7294032099977692e-35  -1.7982750795566198e-33  5.8254933294155334e-34  3.4814566011561630e-34  -1.0679428515932759e-33  -1.0650726611095976e-33  -1.0512278363530337e-34  -1.0921790950324462e-35  -1.4335523938313193e-28  2.6771834625563520e-30  2.7447275520744707e-29  4.6376660188423834e-29  2.7446844588832838e-29  -8.4841909738698552e-29  -8.4843103675595188e-29  2.5589727028957308e-29  -8.2776143380305108e-30  2.6225850643421358e-28  -1.5003188833979207e-29  2.8037618535557262e-31  2.8725496444569414e-30  4.8537092369462511e-30  2.8725971001063838e-30  -8.8793270898918653e-30  -8.8793673196134781e-30  -8.6615926620851040e-31  -1.5702010637883831e-30  2.9334731762560857e-32  3.0063389242212064e-31  5.0797412251358191e-31  3.0063480406239585e-31  -9.2929896167762079e-31  -9.2928238981573558e-31  -9.0680979514607741e-32  -1.6433059998674380e-31  3.0584936968232421e-33  3.1458898499086054e-32  5.3160154255464141e-32  3.1452486750903169e-32  -9.7261153695512726e-32  -9.7258707444851850e-32  -9.4920923881171041e-33  3.1643541551419152e-34  -1.7201704646868408e-32  3.2912288870171589e-33  5.5627314767567311e-33  3.2913178271618175e-33  -1.0183659928535830e-32  -1.0181662533332573e-32  -9.9270611920803986e-34  -1.7994501384294332e-33  3.4018651150628560e-35  3.4405782647854469e-34  5.8206208665975725e-34  3.4413664835514754e-34  -1.0649468280250833e-33  -1.0649170202781662e-33  -1.0344875407613059e-34  -1.8838166060892132e-34  3.8704071246556128e-36  3.6209435311182263e-35  6.1006720415121175e-35  3.6308036558886305e-35  -1.1151774948513023e-34  -1.1134858804973076e-34  -1.0820110769600936e-35  7.5380686747012371e-37  4.0501972670570417e-36  -1.9362059073452793e-35  -1.1527581011393834e-35  6.6139959308375320e-36  3.9219206275222886e-36  6.5231065614809825e-36  3.7844448690994013e-36  -1.1204012955512567e-35  -1.1334499139518306e-35  -9.6839597447564842e-37  -1.0264290341177858e-36  -2.3706583231064688e-36  -1.3317798475209073e-36  1.7467481171557724e-37  9.8093703557166646e-37  1.4226225409760669e-36  7.4121836920094210e-37  1.3215211732057156e-36  1.0114923372210429e-36  -1.5003143455725251e-36  -1.4224645727208848e-36  -1.0291425983209587e-37  -1.5465589593244272e-37  -1.4335546770418189e-28  -8.4841702549515215e-29  2.6778234103732151e-30  2.7446610083075196e-29  4.6376643858221093e-29  2.7447407221226057e-29  4.6376687208115172e-29  2.7447348966665518e-29  -8.4842656018126340e-29  4.4312857263524283e-28  -8.4841775775223491e-29  -8.2777362100972774e-30  2.6225787070792184e-28  4.4312881599064507e-28  -8.2771359384705834e-30  -1.5003443619113302e-29  -8.8794665192681964e-30  2.8028377881303032e-31  2.8725820777471990e-30  4.8537264714283173e-30  2.8725766827106308e-30  4.8537006961376183e-30  2.8725423629376371e-30  -8.8794022343862569e-30  -8.8793944494149974e-30  -8.6616540719943933e-31  -8.6618992916228493e-31  -1.5702220423781962e-30  2.9344704141568985e-32  3.0063525971993322e-31  5.0798039003532855e-31  3.0063274597124018e-31  -9.2928612918567503e-31  -9.2931292918561739e-31  -9.0678986787534177e-32  -9.0681242207687572e-32  -1.6433021146417555e-31  3.0698287776297918e-33  3.1461852625032885e-32  5.3161404526369898e-32  3.1462971097286753e-32  -9.7256417688638174e-32  -9.7258853578854446e-32  -9.4916480678093787e-33  -1.7196614383855556e-32  3.2153493280320204e-34  3.2923796467217771e-33  5.5628563121784835e-33  3.2927385402794531e-33  -1.0176205406598682e-32  -1.0177359134440603e-32  -9.9394173315003993e-34  -1.7994612681507602e-33  3.3490832252300044e-35  3.4450617337313994e-34  5.8208168822117506e-34  3.4453189449568780e-34  -1.0649200370609972e-33  -1.0650013298498568e-33  -1.0389857021267837e-34  -1.8830873744392731e-34  -1.1150380453568855e-34  3.4225863425665226e-36  3.6042495185377129e-35  6.0954099656217545e-35  3.6092375533231815e-35  6.0947577633479491e-35  3.6017328274147073e-35  -1.1150162807728058e-34  -1.1150523935911513e-34  -1.0891336875342868e-35  -1.0843709984229884e-35  -1.9792999424321394e-35  -1.1687085944495789e-35  3.3189897822511113e-37  3.8383143743588057e-36  6.4649567858246917e-36  3.8090163422595900e-36  6.4474344429155621e-36  3.8120887225400400e-36  -1.1737160205984920e-35  -1.1666067791412283e-35  -1.1105118277047986e-36  -1.1351506514285235e-36  -2.2959767065532671e-36  -1.3640431976000223e-36  5.8685704799367963e-38  8.4899123426069346e-37  1.3614571754039920e-36  7.8255590720160576e-37  1.3348861083570576e-36  7.7910378978787216e-37  -1.3397979220390871e-36  -1.3521475514627105e-36  -1.3842643136282725e-37  -1.3111199036705697e-37  -1.4335563658502259e-28  -8.4842243195640710e-29  2.6779012159893026e-30  2.7447395027661248e-29  4.6376797961412905e-29  2.7447335154728786e-29  4.6376640501157379e-29  2.7447300630874296e-29  -8.4842362098418651e-29  2.6225769220321227e-28  4.4312755456392549e-28  -8.4842817541135770e-29  -8.2770027857642849e-30  -1.5003360872832112e-29  -8.8794788679868008e-30  2.8023612195042293e-31  2.8725760956916825e-30  4.8537696448927313e-30  2.8725749850370722e-30  4.8536921808156205e-30  2.8725682155193323e-30  -8.8794485620023672e-30  -8.8794906087678745e-30  -8.6623916704519264e-31  -8.6625858427197176e-31  -1.5702352364231647e-30  -9.2929015399038472e-31  2.9335554284037633e-32  3.0063961937361040e-31  5.0799080460941183e-31  3.0063725749595968e-31  5.0797727602105113e-31  3.0063137994549595e-31  -9.2928953267911389e-31  -9.2932141242383289e-31  -9.0675593553238809e-32  -9.0633806881591170e-32  -1.6433375186076592e-31  -9.7257155450494661e-32  3.0727567488231577e-33  3.1463090311687239e-32  5.3162522910241857e-32  3.1462295190500149e-32  5.3162416197680803e-32  3.1462492462537667e-32  -9.7255314165147153e-32  -9.7257290554033047e-32  -9.4907323127491899e-33  -9.4916188212227884e-33  -1.7197032781520838e-32  -1.0176878665062838e-32  3.2117217096365272e-34  3.2924219925223977e-33  5.5629253097654380e-33  3.2922598484186560e-33  5.5629928363256698e-33  3.2921879526260294e-33  -1.0177862781455804e-32  -1.0178406638037403e-32  -9.9390067987978526e-34  -9.9421678122878611e-34  -1.7993266448229849e-33  -1.0650056503015354e-33  3.3542052018597841e-35  3.4454145496467115e-34  5.8207448082918721e-34  3.4444358833677040e-34  5.8208843186103868e-34  3.4450915306165300e-34  -1.0648423206915548e-33  -1.0648788181792798e-33  -1.0389582441736548e-34  -1.0396179659902257e-34  -1.8831026183130965e-34  -1.1144884463088947e-34  3.5093813412815035e-36  3.6087591488498210e-35  6.0927653708571079e-35  3.6064277391731747e-35  6.0926349203888699e-35  3.6068963429023730e-35  -1.1148171490921763e-34  -1.1147072993939158e-34  -1.0859475078028154e-35  -1.0829231267075774e-35  -1.9724833301251429e-35  -1.1647769693846981e-35  3.6707827451848703e-37  3.8099082048874473e-36  6.4464517234801053e-36  3.8162441188369985e-36  6.4456429576256432e-36  3.8153911735791532e-36  -1.1684312571273205e-35  -1.1681391717495435e-35  -1.1364822624079617e-36  -1.1318798227476530e-36  -2.2782971962552034e-36  -1.3504102130742764e-36  7.2740641130601963e-38  7.7880897719797693e-37  1.3345193284199510e-36  7.9042765033856399e-37  1.3346466008233115e-36  7.9076544868334349e-37  -1.3489690369158876e-36  -1.3488981899211439e-36  -1.3023614290797104e-37  -1.3053000834252499e-37  -1.4335548137164263e-28  -8.4842132161752394e-29  2.6775785559704867e-30  2.7446895892997668e-29  4.6376505103797919e-29  2.7447271800450765e-29  4.6376460557536705e-29  2.7446894747348800e-29  -8.4841911006002055e-29  -8.4842062533924156e-29  4.4312820167515435e-28  -8.2771810045251923e-30  -1.5003297905679728e-29  -8.8793768960681046e-30  2.8021862217972492e-31  2.8726264375285730e-30  4.8537276813906804e-30  2.8725684682259888e-30  4.8536872569213911e-30  2.8726193554756934e-30  -8.8793632841317285e-30  -8.8793729420137265e-30  -8.6615406234021220e-31  -8.6618347258872496e-31  -1.5702405562854013e-30  -9.2933020015068268e-31  2.9335637395138699e-32  3.0064695255878311e-31  5.0798931333680994e-31  3.0063735661311668e-31  5.0798532265321338e-31  3.0063676452734023e-31  -9.2930612330731249e-31  -9.2931542560057655e-31  -9.0671457688670791e-32  -9.0658214322776176e-32  -1.6433753890000627e-31  -9.7257202724993510e-32  3.0728664802555657e-33  3.1464035319701337e-32  5.3163288322876470e-32  3.1463110783649765e-32  5.3164072549463002e-32  3.1463009858249703e-32  -9.7256081094398587e-32  -9.7260914954311058e-32  -9.4945688785395493e-33  -9.4954195647976383e-33  -1.7196855398858971e-32  -1.0178048480114853e-32  3.2140915469700498e-34  3.2919938018427568e-33  5.5629625184487587e-33  3.2922445974290713e-33  5.5632220615660950e-33  3.2928886156917398e-33  -1.0178099254224890e-32  -1.0177522954131046e-32  -9.9475372835484487e-34  -9.9409278068039793e-34  -1.7993226108578323e-33  -1.0648736154460433e-33  3.3580977454353300e-35  3.4451407621731181e-34  5.8206756723695618e-34  3.4440618204513589e-34  5.8207528214798655e-34  3.4447985876155209e-34  -1.0651050466683240e-33  -1.0647839446345169e-33  -1.0393983540206371e-34  -1.0420781705250746e-34  -1.8829594189675466e-34  -1.1145982543639718e-34  3.5063567223326491e-36  3.6065566415677957e-35  6.0930324190884459e-35  3.6063470397011402e-35  6.0920364744168192e-35  3.6064297208228843e-35  -1.1144412739337876e-34  -1.1145781897785207e-34  -1.0867248826695676e-35  -1.0834687417656061e-35  -1.9732062653968536e-35  -1.1678340780322043e-35  3.7191161914161136e-37  3.8164291753424986e-36  6.4462829061973890e-36  3.8165156691938400e-36  6.4462290194475814e-36  3.8166988647618394e-36  -1.1679809085008322e-35  -1.1681627410593517e-35  -1.1375391952082696e-36  -1.1321280423661066e-36  -2.2788586541511102e-36  -1.3478319599736820e-36  7.7244243583005073e-38  7.9060929862461067e-37  1.3348101573247127e-36  7.9021674386249776e-37  1.3350136313388557e-36  7.9033631177676504e-37  -1.3489005494487735e-36  -1.3490780489355301e-36  -1.3135795152975331e-37  -1.3077580511592283e-37  2.6777149317805796e-30  2.7447385399439037e-29  -1.4335521638012401e-28  -8.4842985267622136e-29  4.6376660156073704e-29  2.7447306290306817e-29  4.6376463326909295e-29  2.7447216736355252e-29  -8.4842298817980175e-29  4.4312816533729592e-28  -8.4842843868259809e-29  -8.2769439012509986e-30  -8.2773936189432746e-30  -1.5003249036158887e-29  -8.8794414650175049e-30  2.8026436625597984e-31  2.8725397853463004e-30  4.8536867513978771e-30  2.8725811527208870e-30  4.8536800762964650e-30  2.8725629258691440e-30  -8.8793315376074275e-30  -8.8792737675593417e-30  -8.6620721937842041e-31  -8.6619995232737121e-31  -1.5702266179509546e-30  -9.2930531541524520e-31  2.9329736094817717e-32  3.0063677155016329e-31  5.0798391171733332e-31  3.0063924730539593e-31  5.0798425976923667e-31  3.0063202369601741e-31  -9.2931370635372592e-31  -9.2929720283650594e-31  -9.0651856795908120e-32  -9.0662802395131636e-32  -1.6433740723630384e-31  -9.7260116426393974e-32  3.0722520459175331e-33  3.1463894003878846e-32  5.3163034828134146e-32  3.1463538361993259e-32  5.3164253202050062e-32  3.1463837687862233e-32  -9.7261403721156320e-32  -9.7259010191892090e-32  -9.4918231596233936e-33  -9.4920231478850871e-33  -1.7198041141497687e-32  -1.0177068792282590e-32  3.2198195816502760e-34  3.2924356123340534e-33  5.5631052182488163e-33  3.2925782260638674e-33  5.5634215675665956e-33  3.2928912968495085e-33  -1.0178342043661727e-32  -1.0178221488142632e-32  -9.9400527360970996e-34  -9.9407244746778534e-34  -1.7994420157694007e-33  -1.0647221398846123e-33  3.3607107875018560e-35  3.4451223692351958e-34  5.8206379979176617e-34  3.4447243656461656e-34  5.8209060697990362e-34  3.4454065029460094e-34  -1.0648998820570103e-33  -1.0650625750266805e-33  -1.0381191198231957e-34  -1.0406189812405162e-34  -1.8828509121487551e-34  -1.1146155797431574e-34  3.5073730744077638e-36  3.6065529241623779e-35  6.0929617365254206e-35  3.6061178483590983e-35  6.0914422178519389e-35  3.6060200022955175e-35  -1.1140433722229211e-34  -1.1144650302581524e-34  -1.0872252507583027e-35  -1.0815014542185287e-35  -1.9731536369050159e-35  -1.1680477474832730e-35  3.7117453250959425e-37  3.8162572110149482e-36  6.4465427284005816e-36  3.8163853962766664e-36  6.4459790450849588e-36  3.8163341169749779e-36  -1.1679096495772374e-35  -1.1678833773110590e-35  -1.1371389021864191e-36  -1.1323205331916785e-36  -2.2790694650934581e-36  7.6863553231657860e-38  7.9020503403135989e-37  1.3350123441046085e-36  -1.3489098171073716e-36  -1.3091208967537965e-37  -1.3490516688158208e-36  2.7447302978228837e-29  2.6779801406058886e-30  -1.4335488816409836e-28  4.6377381895396851e-29  -8.4841550435724530e-29  -8.2768556295886432e-30  2.8724796742214575e-30  2.8028192005485572e-31  -1.5003215532949626e-29  4.8535935703092163e-30  -8.8793236611225319e-30  -8.6586648847832416e-31  -8.8794989133235607e-30  3.0053689430629384e-31  2.9236616875950410e-32  -1.5701834783679441e-30  5.0798418811711672e-31  -9.2912253398703220e-31  -9.0482158268506083e-32  3.1450557145919687e-32  3.0887159846908778e-33  -1.6443282624769003e-31  5.3150760030715703e-32  -9.7337521672550530e-32  -9.5079359045571526e-33  3.2891059032793374e-33  3.3620422536731628e-34  -1.7173642797423606e-32  5.5564719492843573e-33  -1.0180585028711070e-32  -9.8952243623996494e-34  -1.0783892573981445e-33  -1.0693642963544058e-33  -1.14274817