<?xml version="1.0"?>
<VTKFile type="UnstructuredGrid"  version="0.1"  >
<UnstructuredGrid>
<Piece  NumberOfPoints="3819" NumberOfCells="18971">
<Points>
<DataArray  type="Float64"  NumberOfComponents="3"  format="ascii">25 27.5 32.5  25 28.75 33.75  25 28.75 32.5  23.75 28.75 33.75  25 30 32.5  25 30 33.75  25 30 35  25 27.5 33.75  25 27.5 35  25 28.75 35  26.25 28.75 33.75  26.25 30 33.75  26.25 30 35  27.5 30 35  26.25 31.25 33.75  26.25 31.25 35  27.5 31.25 35  27.5 32.5 35  25 31.25 35  25 32.5 35  26.25 32.5 35  26.25 32.5 33.75  26.25 33.75 35  26.25 33.75 33.75  27.5 33.75 35  27.5 35 35  26.25 35 35  26.25 35 33.75  27.5 36.25 35  26.25 36.25 35  26.25 36.25 33.75  27.5 37.5 35  26.25 31.25 36.25  27.5 31.25 36.25  27.5 32.5 36.25  27.5 32.5 37.5  26.25 32.5 36.25  26.25 33.75 36.25  27.5 33.75 36.25  27.5 35 36.25  27.5 35 37.5  27.5 33.75 37.5  26.25 33.75 37.5  26.25 35 36.25  27.5 36.25 36.25  26.25 36.25 36.25  27.5 37.5 36.25  27.5 37.5 37.5  27.5 36.25 37.5  27.5 33.75 38.75  26.25 33.75 38.75  27.5 35 38.75  27.5 35 40  26.25 35 38.75  27.5 36.25 38.75  26.25 36.25 38.75  32.5 25 25  32.5 25 26.25  32.5 23.75 26.25  31.25 23.75 26.25  32.5 25 27.5  32.5 23.75 27.5  31.25 23.75 27.5  30 25 25  31.25 25 26.25  31.25 25 25  30 25 27.5  31.25 25 27.5  30 25 26.25  35 22.5 27.5  35 23.75 27.5  33.75 23.75 27.5  33.75 23.75 26.25  35 25 27.5  33.75 25 27.5  33.75 25 26.25  27.5 25 25  27.5 26.25 26.25  27.5 26.25 25  26.25 26.25 26.25  26.25 26.25 25  27.5 27.5 25  27.5 27.5 26.25  27.5 27.5 27.5  27.5 25 26.25  27.5 25 27.5  27.5 26.25 27.5  25 25 27.5  26.25 26.25 27.5  26.25 25 27.5  25 27.5 27.5  26.25 27.5 27.5  28.75 26.25 26.25  28.75 26.25 25  28.75 25 25  30 26.25 26.25  30 26.25 25  30 27.5 25  30 27.5 26.25  30 27.5 27.5  28.75 25 26.25  30 26.25 27.5  28.75 26.25 27.5  28.75 25 27.5  28.75 27.5 26.25  28.75 27.5 25  28.75 27.5 27.5  31.25 26.25 26.25  32.5 26.25 26.25  32.5 26.25 27.5  32.5 27.5 27.5  31.25 26.25 27.5  31.25 27.5 27.5  31.25 27.5 26.25  33.75 26.25 26.25  33.75 25 25  35 25 25  35 26.25 26.25  35 25 26.25  35 26.25 27.5  35 27.5 27.5  33.75 26.25 27.5  33.75 27.5 27.5  36.25 26.25 26.25  36.25 25 26.25  36.25 25 25  37.5 25 25  37.5 26.25 26.25  37.5 25 26.25  37.5 25 27.5  37.5 26.25 27.5  37.5 27.5 27.5  36.25 26.25 27.5  36.25 25 27.5  36.25 27.5 27.5  38.75 26.25 26.25  38.75 25 26.25  38.75 25 25  40 25 25  40 26.25 26.25  40 25 26.25  40 25 27.5  40 26.25 27.5  40 27.5 27.5  38.75 26.25 27.5  38.75 25 27.5  38.75 27.5 27.5  41.25 26.25 26.25  41.25 25 26.25  41.25 25 25  42.5 25 25  42.5 26.25 26.25  42.5 25 26.25  42.5 25 27.5  42.5 26.25 27.5  42.5 27.5 27.5  41.25 26.25 27.5  41.25 25 27.5  41.25 27.5 27.5  43.75 26.25 26.25  43.75 26.25 27.5  43.75 27.5 27.5  45 27.5 27.5  28.75 28.75 26.25  30 28.75 26.25  30 28.75 27.5  30 30 27.5  28.75 28.75 27.5  27.5 28.75 26.25  27.5 28.75 27.5  27.5 30 27.5  28.75 30 27.5  31.25 28.75 26.25  31.25 28.75 27.5  32.5 28.75 27.5  32.5 30 27.5  31.25 30 27.5  27.5 25 28.75  27.5 23.75 28.75  26.25 23.75 28.75  27.5 25 30  26.25 25 28.75  25 25 30  26.25 25 30  26.25 23.75 30  30 25 28.75  30 23.75 28.75  28.75 23.75 28.75  30 25 30  30 23.75 30  28.75 23.75 30  28.75 25 28.75  28.75 25 30  32.5 25 28.75  32.5 23.75 28.75  31.25 23.75 28.75  32.5 25 30  32.5 22.5 30  32.5 23.75 30  31.25 23.75 30  31.25 25 28.75  31.25 25 30  35 23.75 28.75  33.75 23.75 28.75  35 25 28.75  35 25 30  35 22.5 28.75  35 22.5 30  35 23.75 30  33.75 23.75 30  33.75 22.5 30  33.75 25 28.75  33.75 25 30  36.25 23.75 28.75  36.25 23.75 27.5  36.25 22.5 27.5  37.5 22.5 27.5  37.5 23.75 28.75  37.5 23.75 27.5  37.5 25 28.75  37.5 25 30  36.25 22.5 28.75  37.5 22.5 28.75  37.5 22.5 30  37.5 23.75 30  36.25 23.75 30  36.25 22.5 30  36.25 25 28.75  36.25 25 30  38.75 23.75 28.75  38.75 22.5 28.75  38.75 23.75 30  38.75 22.5 30  40 22.5 30  40 23.75 30  40 25 30  38.75 23.75 27.5  38.75 25 28.75  40 25 28.75  38.75 25 30  26.25 26.25 28.75  27.5 26.25 28.75  27.5 27.5 28.75  27.5 27.5 30  27.5 26.25 30  26.25 26.25 30  26.25 27.5 28.75  25 27.5 30  26.25 27.5 30  28.75 26.25 28.75  30 26.25 28.75  30 27.5 28.75  30 27.5 30  30 26.25 30  28.75 26.25 30  28.75 27.5 28.75  28.75 27.5 30  31.25 26.25 28.75  32.5 26.25 28.75  32.5 27.5 28.75  32.5 27.5 30  32.5 26.25 30  31.25 26.25 30  31.25 27.5 28.75  31.25 27.5 30  33.75 26.25 28.75  35 26.25 28.75  35 27.5 28.75  35 27.5 30  35 26.25 30  33.75 26.25 30  33.75 27.5 28.75  33.75 27.5 30  36.25 26.25 28.75  37.5 26.25 28.75  37.5 27.5 28.75  37.5 27.5 30  37.5 26.25 30  36.25 26.25 30  36.25 27.5 28.75  36.25 27.5 30  38.75 26.25 28.75  40 26.25 28.75  40 27.5 28.75  40 27.5 30  40 26.25 30  38.75 26.25 30  38.75 27.5 28.75  38.75 27.5 30  41.25 26.25 28.75  42.5 26.25 28.75  42.5 27.5 28.75  42.5 27.5 30  41.25 25 28.75  42.5 25 28.75  42.5 25 30  42.5 26.25 30  41.25 26.25 30  41.25 25 30  41.25 27.5 28.75  41.25 27.5 30  43.75 26.25 28.75  43.75 25 28.75  43.75 26.25 30  43.75 25 30  45 25 30  45 26.25 30  45 27.5 30  43.75 27.5 28.75  45 27.5 28.75  43.75 27.5 30  26.25 28.75 28.75  26.25 28.75 27.5  27.5 28.75 28.75  27.5 30 28.75  27.5 30 30  27.5 28.75 30  26.25 28.75 30  25 30 30  26.25 30 30  28.75 28.75 28.75  30 28.75 28.75  30 30 28.75  30 30 30  30 28.75 30  28.75 28.75 30  28.75 30 28.75  28.75 30 30  31.25 28.75 28.75  32.5 28.75 28.75  32.5 30 28.75  32.5 30 30  32.5 28.75 30  31.25 28.75 30  31.25 30 28.75  31.25 30 30  33.75 28.75 28.75  33.75 28.75 27.5  35 28.75 28.75  35 28.75 27.5  35 30 27.5  35 30 28.75  35 30 30  35 28.75 30  33.75 28.75 30  33.75 30 28.75  33.75 30 27.5  33.75 30 30  36.25 28.75 28.75  36.25 28.75 27.5  37.5 28.75 28.75  37.5 28.75 27.5  37.5 30 27.5  37.5 30 28.75  37.5 30 30  37.5 28.75 30  36.25 28.75 30  36.25 30 28.75  36.25 30 27.5  36.25 30 30  38.75 28.75 28.75  38.75 28.75 27.5  40 28.75 28.75  40 28.75 27.5  40 30 27.5  40 30 28.75  40 30 30  40 28.75 30  38.75 28.75 30  38.75 30 28.75  38.75 30 27.5  38.75 30 30  41.25 28.75 28.75  41.25 28.75 27.5  42.5 28.75 28.75  42.5 28.75 27.5  42.5 30 27.5  42.5 30 28.75  42.5 30 30  42.5 28.75 30  41.25 28.75 30  41.25 30 28.75  41.25 30 27.5  41.25 30 30  43.75 28.75 28.75  43.75 28.75 27.5  45 28.75 28.75  45 28.75 27.5  45 30 27.5  45 30 28.75  45 30 30  45 28.75 30  43.75 28.75 30  43.75 30 28.75  43.75 30 27.5  43.75 30 30  46.25 28.75 28.75  46.25 27.5 28.75  46.25 27.5 27.5  47.5 27.5 27.5  47.5 28.75 28.75  47.5 27.5 28.75  47.5 27.5 30  47.5 28.75 30  47.5 30 30  46.25 28.75 30  46.25 27.5 30  46.25 30 30  46.25 30 28.75  48.75 28.75 28.75  48.75 27.5 28.75  48.75 27.5 27.5  50 27.5 27.5  50 28.75 28.75  50 27.5 28.75  50 27.5 30  50 28.75 30  50 30 30  48.75 28.75 30  48.75 27.5 30  48.75 30 30  28.75 31.25 28.75  30 31.25 28.75  30 31.25 30  30 32.5 30  28.75 31.25 30  27.5 31.25 28.75  27.5 31.25 30  27.5 32.5 30  28.75 32.5 30  31.25 31.25 28.75  31.25 31.25 27.5  32.5 31.25 28.75  32.5 31.25 27.5  32.5 32.5 27.5  32.5 32.5 28.75  32.5 32.5 30  32.5 31.25 30  31.25 31.25 30  31.25 32.5 30  33.75 31.25 28.75  33.75 31.25 27.5  35 31.25 28.75  35 31.25 27.5  35 32.5 27.5  35 32.5 28.75  35 32.5 30  35 31.25 30  33.75 31.25 30  33.75 32.5 28.75  33.75 32.5 27.5  33.75 32.5 30  36.25 31.25 28.75  36.25 31.25 27.5  37.5 31.25 28.75  37.5 31.25 27.5  37.5 32.5 27.5  37.5 32.5 28.75  37.5 32.5 30  37.5 31.25 30  36.25 31.25 30  36.25 32.5 28.75  36.25 32.5 27.5  36.25 32.5 30  38.75 31.25 28.75  40 31.25 28.75  40 31.25 30  40 32.5 30  38.75 31.25 30  38.75 32.5 30  38.75 32.5 28.75  41.25 31.25 28.75  42.5 31.25 28.75  42.5 31.25 30  42.5 32.5 30  41.25 31.25 30  41.25 32.5 30  43.75 31.25 28.75  45 31.25 28.75  45 31.25 30  45 32.5 30  43.75 31.25 30  43.75 32.5 30  46.25 31.25 28.75  46.25 31.25 30  47.5 31.25 30  47.5 32.5 30  46.25 32.5 30  33.75 33.75 28.75  35 33.75 28.75  35 33.75 30  35 35 30  33.75 33.75 30  36.25 33.75 28.75  37.5 33.75 28.75  37.5 33.75 30  37.5 35 30  36.25 33.75 30  36.25 35 30  38.75 33.75 28.75  38.75 33.75 30  40 33.75 30  40 35 30  38.75 35 30  27.5 25 31.25  27.5 23.75 31.25  26.25 23.75 31.25  27.5 25 32.5  26.25 25 31.25  30 25 31.25  30 23.75 31.25  28.75 23.75 31.25  30 25 32.5  28.75 25 31.25  28.75 25 32.5  32.5 23.75 31.25  31.25 23.75 31.25  32.5 25 31.25  32.5 25 32.5  32.5 22.5 31.25  32.5 22.5 32.5  32.5 23.75 32.5  31.25 25 31.25  31.25 25 32.5  33.75 23.75 31.25  35 23.75 31.25  35 25 31.25  35 25 32.5  33.75 25 31.25  33.75 25 32.5  36.25 23.75 31.25  37.5 23.75 31.25  37.5 25 31.25  37.5 25 32.5  36.25 25 31.25  36.25 25 32.5  38.75 23.75 31.25  40 23.75 31.25  40 25 31.25  40 25 32.5  38.75 25 31.25  38.75 25 32.5  41.25 23.75 31.25  41.25 23.75 30  41.25 25 31.25  42.5 25 31.25  42.5 25 32.5  41.25 25 32.5  26.25 26.25 31.25  27.5 26.25 31.25  27.5 27.5 31.25  27.5 27.5 32.5  27.5 26.25 32.5  26.25 26.25 32.5  26.25 27.5 31.25  26.25 27.5 32.5  28.75 26.25 31.25  30 26.25 31.25  30 27.5 31.25  30 27.5 32.5  30 26.25 32.5  28.75 26.25 32.5  28.75 27.5 31.25  28.75 27.5 32.5  31.25 26.25 31.25  32.5 26.25 31.25  32.5 27.5 31.25  32.5 27.5 32.5  32.5 26.25 32.5  31.25 26.25 32.5  31.25 27.5 31.25  31.25 27.5 32.5  33.75 26.25 31.25  35 26.25 31.25  35 27.5 31.25  35 27.5 32.5  35 26.25 32.5  33.75 26.25 32.5  33.75 27.5 31.25  33.75 27.5 32.5  36.25 26.25 31.25  37.5 26.25 31.25  37.5 27.5 31.25  37.5 27.5 32.5  37.5 26.25 32.5  36.25 26.25 32.5  36.25 27.5 31.25  36.25 27.5 32.5  38.75 26.25 31.25  40 26.25 31.25  40 27.5 31.25  40 27.5 32.5  40 26.25 32.5  38.75 26.25 32.5  38.75 27.5 31.25  38.75 27.5 32.5  41.25 26.25 31.25  42.5 26.25 31.25  42.5 27.5 31.25  42.5 27.5 32.5  42.5 26.25 32.5  41.25 26.25 32.5  41.25 27.5 31.25  41.25 27.5 32.5  43.75 26.25 31.25  45 26.25 31.25  45 27.5 31.25  45 27.5 32.5  43.75 25 31.25  45 25 31.25  45 25 32.5  45 26.25 32.5  43.75 26.25 32.5  43.75 25 32.5  43.75 27.5 31.25  43.75 27.5 32.5  46.25 26.25 31.25  46.25 25 31.25  46.25 26.25 32.5  46.25 25 32.5  47.5 25 32.5  47.5 26.25 32.5  47.5 27.5 32.5  46.25 27.5 32.
[...]
<PointData  Scalars="c_HbO2"> 
<DataArray  type="Float64"  Name="c_HbO2"  format="ascii">4.2341014071114052e-27  2.4449928358010335e-28  2.5058785907397279e-27  -1.3088089388394583e-26  4.2341091838377648e-27  2.5058800019644205e-27  4.2340928265679749e-27  2.5058847330322150e-27  4.2341148276650510e-27  2.5059030133931142e-27  -1.3697590654875956e-27  -8.1067022700384201e-28  -7.9098989339336740e-29  4.4312500076569511e-28  -1.3697689459205885e-27  -8.1067917299603805e-28  2.6225324350532653e-28  4.4312765502477422e-28  2.5058578613407947e-27  4.2340850402060262e-27  -7.9101270997058534e-29  -8.1067191594947556e-28  -8.1067467985751717e-28  -1.3697654093837346e-27  2.6226003280986663e-28  4.4312891140020206e-28  -7.9088524544136830e-29  -8.1066682883111633e-28  2.6225917612013650e-28  -8.1066745229012311e-28  -1.3697621453485921e-27  4.4313280854010704e-28  -1.3697803731317787e-27  2.5575408780471399e-29  2.6224805646444125e-28  4.4312567959287516e-28  -8.1067829282966203e-28  -1.3697656732926188e-27  2.5587255377199803e-29  2.6225848380252367e-28  4.4313053663448151e-28  2.6225773004239394e-28  -8.1067700424853058e-28  -8.1066729972529312e-28  2.5589478059494043e-29  -1.3697599264065203e-27  2.6226499635564789e-28  4.4313307178014408e-28  2.6226159469736801e-28  2.5586458864759866e-29  -1.3697668998811432e-27  2.6225820836067663e-28  4.4312794495671508e-28  -8.1066846663422842e-28  2.5589214066155840e-29  -1.3697625320723220e-27  4.8534263910015856e-30  2.8727363792863544e-30  2.7941638533601373e-31  -1.5004694419987249e-29  4.8536030461403892e-30  2.8709245079344973e-30  -8.8816343156710955e-30  4.6377281019524785e-29  -8.8787987575677973e-30  -8.6707613535200188e-31  4.6375046445487522e-29  -8.6574183386423441e-31  2.7447578397936887e-29  5.0812527757237727e-31  3.0098824456806754e-31  -9.2917063618126843e-31  -1.5703977608305694e-30  5.0808410720063675e-31  -9.0364718461207741e-32  -9.2948004551245659e-31  4.4312523165270638e-28  2.5587981149880062e-29  2.6225631540801818e-28  -1.3697633364691274e-27  -8.1067119108813483e-28  4.4312804696957544e-28  2.6225686527780243e-28  4.4312995903199992e-28  2.6225467434352229e-28  4.4313848513296925e-28  2.6226261401128500e-28  4.2341053880676838e-27  -8.1066702931149329e-28  -7.9079177136869954e-29  4.2340875653640926e-27  -7.9090875671571899e-29  -1.4335429370539104e-28  -8.4842058083557067e-29  -8.2773049797578659e-30  2.6781801637416673e-30  2.7447544886705996e-29  4.6376457720726228e-29  2.7447150538224748e-29  4.6376278922453026e-29  -8.4839997389865583e-29  2.7446654951903529e-29  -8.4840868659514188e-29  -8.2775510433527154e-30  -8.4842568684990904e-29  -8.2770861255642537e-30  -8.2784283275509544e-30  -1.5003022496211588e-29  2.8027375623600284e-31  2.8724825348761482e-30  4.8536430753645056e-30  -8.8793766819538863e-30  -8.6624876368967400e-31  -8.8792925612395467e-30  -1.5701887409167933e-30  -9.0781734627615372e-32  5.0801408242302552e-31  2.9309795296713302e-32  3.0060407084092194e-31  3.0056872362649683e-31  5.0797309229156946e-31  -9.2936631201888566e-31  -9.0659666834252965e-32  -1.6434364107397409e-31  -9.7242349651403410e-32  -9.4782522458554295e-33  5.3281779871877499e-32  3.0559555502330100e-33  3.1440363019542972e-32  5.3216306184386584e-32  3.1455101507247562e-32  5.3162468750194939e-32  -9.7268324039515144e-32  -9.5473130852764582e-33  -9.4874951997072585e-33  -1.7209528488240168e-32  -1.0188850644395000e-32  -8.9617254163764949e-34  5.6112217697995998e-33  3.2112775038943543e-34  3.2829553869907369e-33  5.5778413579917804e-33  3.2898599859198035e-33  5.5630784624504852e-33  -1.0180106214550566e-32  -1.0006519688349619e-33  -9.9244894916035971e-34  -1.7986922322577457e-33  -1.0574349272040806e-33  -1.0985604941802432e-34  5.9248538195675571e-34  2.8700368756819586e-35  3.3899452900784869e-34  5.7982194095809289e-34  3.4153832237449174e-34  5.8262669866507794e-34  -1.0634554885556332e-33  -1.0003368724674092e-34  -1.0359680849437915e-34  -1.9138173575986784e-34  -1.1238455848059223e-34  -1.0527168037896370e-35  6.1087746416390504e-35  -1.4335536565774562e-28  2.6777510791759495e-30  2.7447183724161357e-29  4.6376485600290704e-29  -8.4842905911421861e-29  2.5586099832977235e-29  2.6226076596000998e-28  4.4313104334585126e-28  -8.2783542178480384e-30  -1.5003171580602671e-29  -8.8793624488345842e-30  2.8725327022734174e-30  4.8536483640460923e-30  -8.6632858223093786e-31  2.6227022918124381e-28  2.5586646490858114e-29  -1.3697643160749778e-27  4.4313513743993723e-28  -8.1065550547303067e-28  4.2341061815159552e-27  -7.9077664230284607e-29  -8.1068550343450256e-28  2.7446354343480808e-29  2.6737306009205895e-30  -1.4335554958838265e-28  4.6375050608813178e-29  2.7441946181927832e-29  -8.4846360672496385e-29  -8.4839626761151893e-29  -8.2748073833095454e-30  2.8729135266750449e-30  2.8122858250669913e-31  -1.5004558658537980e-29  4.8535013614231949e-30  4.8552609581208603e-30  2.8734373863979403e-30  -8.8790540953866668e-30  -8.8785783832138815e-30  -8.6580517280936075e-31  3.0266299061202911e-32  -1.5683766567692003e-30  3.0086646695289622e-31  5.0807467173418578e-31  3.0111166679699621e-31  5.0899118467519522e-31  3.0068432047279797e-31  -9.2745470019430863e-31  -8.8612024629290067e-32  -9.2853157178256377e-31  -9.0416857849613752e-32  -1.6451146201694226e-31  -9.7221132401726575e-32  -9.7435497447561169e-33  5.3189098041417688e-32  2.8411889926227577e-33  3.1655376939278088e-32  3.1617540059726031e-32  5.3235363148938392e-32  -9.8038185065379157e-32  3.0939359590873301e-32  5.1984429979224942e-32  3.0967958086390263e-32  -9.7572232180817959e-32  -1.0985916008371137e-32  -9.7224441093624357e-32  -9.5251067942432913e-33  -1.7273191874805506e-32  -1.0746543254833189e-32  -1.0467705800173333e-32  -1.7729097486563753e-33  5.5473433788754120e-33  3.3158993107418731e-33  5.5573307098170688e-33  -1.0089267267035120e-32  -1.0152131981114230e-32  3.3200571343726907e-33  -9.6590744292496619e-34  -1.3697579344852219e-27  2.5591999932129109e-29  2.6226072925994445e-28  4.4312938591636194e-28  2.6226479473308707e-28  -8.1067219734800840e-28  -8.1066921160623110e-28  4.2340438918454645e-27  -7.9073805977059277e-29  -1.4335481735024172e-28  2.6768209034198542e-30  2.7446771096779718e-29  4.6376298249798549e-29  2.7447687255068437e-29  -8.4841932197134449e-29  -8.4843849375159943e-29  -8.2783230608996732e-30  -1.5002893174214904e-29  2.8016537070718695e-31  2.8725122799050083e-30  4.8536094368902279e-30  2.8724602462513583e-30  -8.8789554702921234e-30  -8.8793454626486321e-30  -8.6632942928924696e-31  -1.5702809934856406e-30  2.9255590886655063e-32  3.0061173211314233e-31  5.0796636449279821e-31  3.0062886861413849e-31  -9.2939082424246381e-31  -9.2930810153400463e-31  -9.0646323387706773e-32  -1.6436296174809658e-31  3.0510739577167937e-33  3.1455985415567002e-32  5.3162309609809312e-32  3.1436609424261591e-32  -9.7247632925935096e-32  -9.7248918120053807e-32  -9.4826164737968956e-33  -1.7193017655392333e-32  3.1479726851751944e-34  3.2908383776857158e-33  5.5637533192999679e-33  3.2896878752720273e-33  -1.0164795998486496e-32  -1.0180577788226044e-32  -9.9496662138904100e-34  -1.7988349134645189e-33  3.1245709444751758e-35  3.4459943427764485e-34  5.8218241116998302e-34  -1.0588759430235490e-33  3.4348236752250551e-34  5.7892528012721185e-34  3.4500268282594458e-34  -1.0601884104066320e-33  -8.8765500249561763e-35  -1.0659027715855866e-33  -1.0539843995600816e-34  -1.8791586268985659e-34  -1.1000107319647883e-34  -1.0952839934487188e-34  -3.5273167965662402e-36  6.1935747582265323e-35  3.5333912195731756e-35  6.0909721597151275e-35  -1.1183386467082168e-34  3.5835120116412997e-35  -1.1000229192275248e-35  -1.3697968921412895e-27  -8.1067096092303378e-28  2.5591433492817595e-29  2.6226393206379057e-28  4.4313129525623856e-28  2.6225807231629345e-28  -8.1067752397731493e-28  4.2340916959999706e-27  -7.9086973289317651e-29  -1.4335634912428830e-28  2.6776700851986036e-30  2.7447018129940872e-29  4.6376472178044140e-29  2.7446997141194288e-29  -8.4843059058699793e-29  -8.4842092886937541e-29  -8.2778520398809127e-30  -1.5003111608120080e-29  2.8024571585312959e-31  2.8725383331046299e-30  4.8536161912429995e-30  2.8725108796511864e-30  -8.8792941428839925e-30  -8.8793840882398043e-30  -8.6623746762351033e-31  -1.5701784208575354e-30  -9.2929244350039125e-31  2.9333592600180542e-32  3.0063282006518366e-31  5.0796791285804916e-31  3.0063069054958173e-31  5.0796333422122414e-31  3.0063036469497455e-31  -9.2926731511513021e-31  -9.2929049505286076e-31  -9.0669870237381819e-32  -9.0660684585498017e-32  -1.6432784995958826e-31  -9.7255699069825070e-32  3.0693301240326180e-33  3.1462913178524982e-32  5.3161807385343590e-32  3.1462321501617177e-32  5.3162555092507723e-32  3.1466642026022924e-32  -9.7250029775717941e-32  -9.7257016589753418e-32  -9.4889367714940966e-33  -9.4882512574110870e-33  -1.7197306528038048e-32  -1.0178598489699348e-32  3.2080135609041206e-34  3.2929219272118041e-33  5.5635653917941906e-33  3.2926258611107498e-33  5.5645990950432483e-33  3.2932398364989121e-33  -1.0176821608177597e-32  -1.0178961088198788e-32  -9.9325917347398591e-34  -9.9331916013822812e-34  -1.7999663408610140e-33  -1.0650357996017943e-33  3.3695476342393067e-35  3.4455385226771936e-34  5.8224149715237556e-34  3.4465542225606930e-34  5.8223399296964759e-34  3.4445444113880654e-34  -1.0655858147408786e-33  -1.0653243646284808e-33  -1.0388450394511239e-34  -1.0401173676394024e-34  -1.8831951942930775e-34  -1.1159845603849548e-34  3.4811941928201048e-36  3.6009263478018195e-35  6.0953962763548283e-35  3.6054855824652219e-35  6.0988391972475086e-35  3.6351297630953224e-35  -1.1120702977258382e-34  -1.1150556750492335e-34  -1.0917985483353198e-35  -1.0778740187122800e-35  -1.9743094914572405e-35  -1.1655055973398134e-35  -1.2060727986898004e-36  6.5295946850470386e-36  3.7212655021159176e-37  3.8254334293801579e-36  6.3529781479194429e-36  3.7422726789113334e-36  6.4360893715605766e-36  -1.1641433656827777e-35  -9.7897902940213295e-37  -1.1700446433867021e-36  -1.1692152575910178e-35  -2.2924925192330227e-36  -1.3588280154855880e-36  -8.3635663391451668e-38  1.4196371125114788e-36  9.5632474008912127e-38  7.9005594329176317e-37  1.2270485899580920e-36  8.8237122844719362e-37  1.3752493922248771e-36  -1.3897975732958469e-36  -2.2772046262959435e-37  -1.5621164323606107e-37  -1.4335544424031925e-28  2.6778340422245987e-30  2.7447256023472883e-29  4.6376511679789632e-29  -8.4842703385048727e-29  2.5588751510399920e-29  2.6225828999386354e-28  4.4312798068144073e-28  -8.2773503592269734e-30  -1.5003162943228148e-29  -8.8793392674432958e-30  2.8026205672563214e-31  2.8725494362881368e-30  4.8536424839056297e-30  2.8725344896183023e-30  4.8536412540613378e-30  2.8725348173022025e-30  -8.8793333316547097e-30  -8.6629358928147104e-31  -1.5701867865482209e-30  -9.2928975637378292e-31  2.9332052065674654e-32  3.0063262964662574e-31  5.0796837487983722e-31  3.0063109982767045e-31  5.0796645485109606e-31  3.0063133367586370e-31  -9.2928480450721581e-31  -9.2928750495628884e-31  -9.0667615034825717e-32  -9.0669554766301369e-32  -1.6433074596942376e-31  -9.7256357457300350e-32  3.0697254401647204e-33  3.1463182410321647e-32  5.3162388131078262e-32  3.1463094328359014e-32  5.3162189249798713e-32  3.1462530164799697e-32  -9.7255969729431158e-32  -9.7256914605515168e-32  -9.4891479028412400e-33  -9.4896322071554567e-33  -1.7198452394600397e-32  3.2122861328317880e-34  3.2926455410751545e-33  5.5638321325592745e-33  -1.0178291390997233e-32  -9.9313926646326419e-34  -1.0178677820281597e-32  -1.7999497006537458e-33  3.3645066546729345e-35  3.4478486926122136e-34  5.8230955821875360e-34  -1.0652116890358516e-33  -1.0400499655192274e-34  -1.8837577454235927e-34  3.5083085264430590e-36  3.6021730505697933e-35  6.0948923824548403e-35  -1.1145318498397053e-34  -1.0892438340134149e-35  -1.9739763171175217e-35  -1.1696942328008927e-35  3.8104043095991281e-36  6.4511921172780938e-36  -1.1382091276227758e-36  -1.5701884912097358e-30  2.9332006117249327e-32  3.0063008759857831e-31  5.0796664629223573e-31  -9.2928703722461958e-31  -1.6433009199123077e-31  3.0699208046744482e-33  3.1463332179523324e-32  5.3161438539580242e-32  -9.7255366448842323e-32  -9.4865643844986936e-33  -1.7198466264613801e-32  -1.0178662370841847e-32  3.2928906869478175e-33  5.5637873190841917e-33  -9.9341845530711279e-34  2.6225734807360101e-28  2.5575598492675839e-29  -1.3697690076504652e-27  4.4312395674796294e-28  -8.1066556872963121e-28  2.7443593560122538e-29  2.6705135755669914e-30  -1.4336152902632967e-28  4.6375068718734753e-29  -8.4844315265035371e-29  -8.2824817982063383e-30  2.7943527028938587e-31  -1.5005371393307665e-29  2.8717240392314458e-30  4.8527193329036169e-30  2.8749978760615080e-30  4.8542542999923367e-30  2.8713829669340984e-30  -8.8799437581638058e-30  -8.6561988972741729e-31  -1.5700080301646721e-30  2.9590628094954745e-32  3.0058727951215230e-31  5.0779061663276021e-31  -9.2936436381618146e-31  -9.1371657904163962e-32  -1.6466191777189327e-31  2.3472524641950896e-33  3.1406431953290847e-32  5.3105490751018531e-32  -9.7460273663564368e-32  -9.4128802244462724e-33  -1.7612561237427341e-32  3.8548205399700066e-34  3.1998600249885673e-33  5.5357671944897544e-33  -1.0335745784914117e-32  -1.0929201437428431e-33  -1.8292737234179827e-33  -1.1188975808624709e-33  -1.0604073548152877e-33  3.4233911235398512e-34  5.7475266972733515e-34  -1.1259926890787720e-34  -1.3697775661030290e-27  2.5593850752913787e-29  2.6225540917050857e-28  4.4312942598510404e-28  2.6226061158649571e-28  -8.1067652105537645e-28  -8.1069646327015739e-28  -7.9095570393787545e-29  -1.4335571269487183e-28  2.6784853730154361e-30  2.7447103256949313e-29  4.6376593339026522e-29  2.7446515492956443e-29  -8.4843640846437243e-29  -8.4842325056621655e-29  -8.2775190355665523e-30  -1.5002917528462636e-29  2.8013471891195818e-31  2.8725750298253352e-30  4.8536619771382733e-30  2.8721890827191057e-30  -8.8795656714085651e-30  -8.8792824039771583e-30  -8.6624091173593218e-31  -1.5702741170444422e-30  2.9288689720173815e-32  3.0062643061622756e-31  5.0805167509522431e-31  3.0072614353452500e-31  -9.2928844132013362e-31  -9.2924966019816921e-31  -9.0586045821420105e-32  -1.6435216065634004e-31  3.1140288445880111e-33  3.1439985952667629e-32  5.3131544101451437e-32  3.1560225465583856e-32  -9.7175356694365467e-32  -9.7275436571251568e-32  -9.5053491137003319e-33  -1.7165334503248656e-32  3.2648987042378941e-34  3.3051784378881156e-33  5.5622455834922686e-33  3.2907870395977558e-33  -1.0148014630269684e-32  -1.0197478066039673e-32  -1.0141546220645417e-33  -1.8014393051947751e-33  3.6501673319757943e-35  3.4265477993844408e-34  5.8736403487115528e-34  3.4400424868728615e-34  -1.0818369775358055e-33  -1.0656947043668575e-33  -9.6216723498386218e-35  -1.8833751454214295e-34  1.6784274086541585e-36  3.5799406140433585e-35  5.9996832674410935e-35  -1.0772274903277299e-34  3.9600616514089299e-35  6.5962371987942317e-35  3.6225161225559672e-35  -1.1170497022631963e-34  -7.9052604925046418e-36  -1.1220559183067378e-34  -1.2247122731345073e-35  -2.0301275827691982e-35  -1.0376717677177056e-35  -1.1865658044135055e-35  -6.6381730074037097e-37  4.0575564007303125e-36  3.9093463965421193e-36  6.6500903639003345e-36  -4.5823540418546065e-37  -1.1692126765782675e-35  -1.3697629775894283e-27  2.5590653386617779e-29  2.6226059471586396e-28  4.4313057885312998e-28  2.6225948212780078e-28  -8.1067123719783721e-28  -8.1066121128302129e-28  -7.9088004077699311e-29  -1.4335571184343654e-28  2.6772622101745131e-30  2.7446982766138543e-29  4.6376381108123603e-29  2.7446858002954029e-29  -8.4842456171530046e-29  -8.4843162509489832e-29  -8.2779668885988806e-30  -1.5003058994899962e-29  2.8021948938767545e-31  2.8725155649543196e-30  4.8536116848714245e-30  2.8725142063752962e-30  -8.8792988757225324e-30  -8.8792748986593801e-30  -8.6620686037998859e-31  -1.5701776718936870e-30  2.9313616607119461e-32  3.0062545952564758e-31  5.0797486357814137e-31  3.0061352114987619e-31  -9.2929130691922595e-31  -9.2927913625993586e-31  -9.0656672707064772e-32  -1.6433774921110285e-31  3.0653277194473078e-33  3.1467371017807260e-32  5.3164305832740757e-32  3.1443705859649657e-32  -9.7267249564501861e-32  -9.7252702040431834e-32  -9.4740289335874881e-33  -1.7204696326652054e-32  3.2371341917883016e-34  3.2932190090887515e-33  5.5662528393285246e-33  3.3017052545517191e-33  -1.0189767150907424e-32  -1.0176791153842719e-32  -9.9506672828253238e-34  -1.8004390135195182e-33  3.2722760995079311e-35  3.4423847200741776e-34  5.8247868709325313e-34  3.4349814403760134e-34  -1.0591454607190575e-33  -1.0666401082742247e-33  -1.0288582626345850e-34  -1.8895303587524739e-34  4.0707344958393934e-36  3.6410752864285032e-35  6.0818133169735991e-35  3.4597677549322039e-35  -1.1324587456662077e-34  -1.1131736847722838e-34  -1.0869357314379658e-35  -1.9717104656537827e-35  3.5879007393505828e-37  3.9558973698084256e-36  6.2124118145034493e-36  3.6315386464455064e-36  3.1501084485125686e-36  -1.1319143637515702e-35  -1.1625015640257802e-35  -9.1632692436868170e-37  -2.3355711426877594e-36  -4.0374511452646112e-38  9.0092423457273545e-37  1.0208277889228981e-36  -1.5348129302341002e-36  5.7806447939546342e-37  1.5472676797288390e-36  2.2217570529631692e-37  -1.7813951274795302e-36  -6.7198230372377922e-37  -1.1825416181952835e-36  -3.4768252809410636e-38  -1.3697654642985831e-27  -8.1067072174812834e-28  2.5586709965406269e-29  2.6225831801495370e-28  4.4312953310082958e-28  2.6225766944001595e-28  -8.1067233081564141e-28  -1.4335543194893275e-28  2.6778769470805144e-30  2.7447123509544870e-29  4.6376595021695881e-29  2.7447196243018570e-29  -8.4842220637178380e-29  -8.4842402850949594e-29  -8.2777833169175425e-30  -1.5003126094118639e-29  2.8025364232861485e-31  2.8725346417264095e-30  4.8536313560407313e-30  2.8725342129985351e-30  -8.8793535050539137e-30  -8.8793530643082077e-30  -8.6628578873703531e-31  -1.5701825705717938e-30  2.9331266820156468e-32  3.0062899767555960e-31  5.0796313684186161e-31  3.0063892638771187e-31  -9.2928062788807712e-31  -9.2928576766034072e-31  -9.0662933099159548e-32  -1.6432900074067124e-31  3.0674457569689251e-33  3.1462996586037698e-32  5.3160817488578286e-32  3.1455161137376332e-32  -9.7252602137536861e-32  -9.7256129937386879e-32  -9.4882791694693221e-33  -1.7198715338642615e-32  3.2122974522556194e-34  3.2930945826055981e-33  5.5635366225740262e-33  3.2907928093332393e-33  -1.0180373212154064e-32  -1.0178176285984490e-32  -9.9247990242695209e-34  -1.8000173580772790e-33  3.3745360692079252e-35  3.4470160483475145e-34  5.8228886022451906e-34  3.4415126727729054e-34  -1.0659400561748981e-33  -1.0650198130007234e-33  -1.0354994206197423e-34  -1.8842746387960374e-34  3.4363750519398660e-36  3.6035850216895040e-35  6.0979107967300012e-35  3.6213662435048081e-35  -1.1116134836172733e-34  -1.1144120159185834e-34  -1.0685193848255497e-35  -1.9731075757958895e-35  3.9117684781103748e-37  3.8454314223491993e-36  6.4159368072108398e-36  3.7179085477629463e-36  -1.1727059659614535e-35  -1.1693420608424216e-35  -1.1890591610560685e-36  -2.2502813605781110e-36  -1.3652753807500008e-36  8.1047023141808617e-38  7.7870979736758747e-37  1.3330287158641734e-36  7.7498948567380260e-37  1.4133922490034860e-36  7.4986842615439229e-37  -1.2960971041804186e-36  -1.3549808091427465e-36  -1.3371450226449955e-37  -1.2981272388946426e-37  -1.5701880509332584e-30  2.9333166082591105e-32  3.0063411198762246e-31  5.0796512341496591e-31  3.0063312969420536e-31  -1.6432952816091343e-31  3.0699146021341198e-33  3.1462745203140979e-32  5.3161153180314224e-32  3.1463808377233476e-32  -9.7255245649414795e-32  -9.7252607729567644e-32  -9.4868432646788311e-33  -1.7198361662869752e-32  3.2126578739635982e-34  3.2927464618312594e-33  5.5639247661087711e-33  3.2930856986788749e-33  -1.0178313627659807e-32  -1.0178835722029303e-32  -9