<?xml version="1.0"?>
<VTKFile type="UnstructuredGrid"  version="0.1"  >
<UnstructuredGrid>
<Piece  NumberOfPoints="3890" NumberOfCells="19071">
<Points>
<DataArray  type="Float64"  NumberOfComponents="3"  format="ascii">25 17.5 25  25 17.5 26.25  25 16.25 26.25  23.75 16.25 26.25  25 17.5 27.5  23.75 17.5 26.25  25 18.75 26.25  25 18.75 25  23.75 18.75 26.25  23.75 18.75 25  25 20 25  25 20 26.25  25 20 27.5  25 18.75 27.5  22.5 15 7.5  22.5 16.25 8.75  22.5 16.25 7.5  21.25 16.25 8.75  22.5 17.5 7.5  22.5 17.5 8.75  22.5 17.5 10  22.5 15 8.75  22.5 15 10  22.5 16.25 10  21.25 16.25 10  22.5 18.75 8.75  22.5 18.75 7.5  21.25 18.75 8.75  22.5 20 7.5  22.5 20 8.75  22.5 20 10  22.5 18.75 10  21.25 18.75 10  22.5 16.25 11.25  21.25 16.25 11.25  22.5 17.5 11.25  22.5 17.5 12.5  21.25 17.5 11.25  22.5 18.75 11.25  21.25 18.75 11.25  22.5 20 11.25  22.5 20 12.5  22.5 18.75 12.5  21.25 18.75 12.5  22.5 21.25 11.25  22.5 21.25 10  21.25 21.25 11.25  22.5 22.5 10  22.5 22.5 11.25  22.5 22.5 12.5  22.5 21.25 12.5  23.75 17.5 13.75  22.5 17.5 13.75  23.75 16.25 13.75  22.5 17.5 15  23.75 17.5 15  25 17.5 15  22.5 18.75 13.75  21.25 18.75 13.75  22.5 20 13.75  22.5 20 15  22.5 18.75 15  21.25 18.75 15  23.75 18.75 13.75  23.75 18.75 15  25 18.75 15  25 20 15  23.75 20 15  23.75 20 13.75  22.5 21.25 13.75  21.25 21.25 13.75  22.5 22.5 13.75  22.5 22.5 15  22.5 21.25 15  23.75 21.25 13.75  23.75 21.25 15  25 21.25 15  25 22.5 15  23.75 22.5 15  23.75 22.5 13.75  23.75 23.75 13.75  23.75 23.75 15  25 23.75 15  25 25 15  22.5 18.75 16.25  21.25 18.75 16.25  22.5 20 16.25  22.5 20 17.5  22.5 17.5 16.25  22.5 17.5 17.5  22.5 18.75 17.5  23.75 18.75 16.25  25 18.75 16.25  25 20 16.25  25 20 17.5  23.75 17.5 16.25  25 17.5 16.25  25 17.5 17.5  25 18.75 17.5  23.75 18.75 17.5  23.75 17.5 17.5  23.75 20 16.25  23.75 20 17.5  23.75 21.25 16.25  25 21.25 16.25  25 22.5 16.25  25 22.5 17.5  25 21.25 17.5  23.75 21.25 17.5  23.75 22.5 16.25  22.5 22.5 17.5  23.75 22.5 17.5  22.5 22.5 16.25  23.75 23.75 16.25  25 23.75 16.25  25 25 16.25  25 25 17.5  25 23.75 17.5  23.75 23.75 17.5  23.75 18.75 18.75  25 18.75 18.75  25 20 18.75  25 20 20  25 17.5 18.75  25 17.5 20  25 18.75 20  23.75 18.75 20  23.75 20 18.75  23.75 21.25 18.75  25 21.25 18.75  25 22.5 18.75  25 22.5 20  25 21.25 20  23.75 22.5 18.75  23.75 23.75 18.75  25 23.75 18.75  25 25 18.75  25 25 20  25 23.75 20  25 18.75 21.25  23.75 18.75 21.25  25 20 21.25  25 20 22.5  25 17.5 21.25  25 17.5 22.5  25 18.75 22.5  22.5 17.5 22.5  23.75 18.75 22.5  23.75 17.5 22.5  23.75 17.5 23.75  23.75 16.25 23.75  25 17.5 23.75  23.75 18.75 23.75  25 18.75 23.75  25 20 23.75  22.5 23.75 15  22.5 25 15  23.75 25 15  22.5 25 12.5  23.75 25 13.75  22.5 25 13.75  23.75 26.25 13.75  23.75 26.25 15  25 26.25 15  25 27.5 15  23.75 25 16.25  23.75 26.25 16.25  25 26.25 16.25  25 27.5 16.25  25 27.5 17.5  25 26.25 17.5  23.75 27.5 16.25  25 28.75 16.25  25 28.75 15  23.75 28.75 16.25  25 30 15  25 28.75 17.5  26.25 21.25 21.25  25 21.25 21.25  26.25 21.25 22.5  25 21.25 22.5  25 22.5 22.5  26.25 22.5 22.5  27.5 22.5 22.5  26.25 21.25 23.75  26.25 22.5 23.75  27.5 22.5 23.75  27.5 22.5 25  25 21.25 23.75  26.25 21.25 25  25 21.25 25  25 22.5 25  26.25 22.5 25  25 22.5 23.75  26.25 23.75 23.75  27.5 23.75 23.75  27.5 23.75 25  27.5 25 25  26.25 23.75 25  25 25 25  26.25 25 25  28.75 23.75 23.75  28.75 22.5 23.75  28.75 23.75 25  28.75 22.5 25  30 22.5 25  30 23.75 25  30 25 25  28.75 25 25  26.25 21.25 26.25  26.25 22.5 26.25  27.5 22.5 26.25  27.5 22.5 27.5  25 21.25 26.25  26.25 21.25 27.5  25 21.25 27.5  25 22.5 27.5  26.25 22.5 27.5  25 22.5 26.25  26.25 23.75 26.25  27.5 23.75 26.25  27.5 25 26.25  27.5 25 27.5  27.5 23.75 27.5  26.25 23.75 27.5  26.25 25 26.25  25 25 27.5  26.25 25 27.5  28.75 23.75 26.25  30 23.75 26.25  30 25 26.25  30 25 27.5  28.75 22.5 26.25  30 22.5 26.25  30 22.5 27.5  30 23.75 27.5  28.75 23.75 27.5  28.75 22.5 27.5  28.75 25 26.25  28.75 25 27.5  31.25 23.75 26.25  31.25 23.75 25  31.25 22.5 25  32.5 22.5 25  32.5 23.75 26.25  32.5 23.75 25  32.5 25 25  31.25 22.5 26.25  32.5 22.5 26.25  32.5 22.5 27.5  32.5 23.75 27.5  31.25 23.75 27.5  31.25 22.5 27.5  31.25 25 25  33.75 23.75 26.25  33.75 22.5 26.25  33.75 23.75 27.5  33.75 22.5 27.5  35 22.5 27.5  26.25 26.25 26.25  26.25 26.25 25  26.25 21.25 28.75  26.25 20 27.5  27.5 20 27.5  27.5 21.25 28.75  27.5 21.25 27.5  27.5 22.5 28.75  26.25 22.5 28.75  28.75 21.25 28.75  28.75 22.5 28.75  26.25 23.75 28.75  27.5 23.75 28.75  28.75 23.75 28.75  30 23.75 28.75  31.25 23.75 28.75  33.75 23.75 28.75  30 15 15  31.25 15 15  31.25 13.75 15  31.25 13.75 13.75  32.5 15 15  31.25 15 16.25  31.25 13.75 16.25  32.5 15 16.25  32.5 15 17.5  30 15 16.25  30 15 17.5  31.25 15 17.5  35 15 15  36.25 15 16.25  35 15 16.25  36.25 13.75 16.25  35 15 17.5  36.25 15 17.5  37.5 15 17.5  30 16.25 16.25  28.75 16.25 16.25  30 16.25 17.5  30 17.5 17.5  28.75 16.25 17.5  27.5 17.5 17.5  28.75 17.5 17.5  31.25 16.25 16.25  32.5 16.25 16.25  32.5 16.25 17.5  32.5 17.5 17.5  31.25 16.25 17.5  31.25 17.5 17.5  35 16.25 16.25  33.75 16.25 16.25  35 16.25 17.5  35 17.5 17.5  33.75 16.25 17.5  33.75 15 17.5  33.75 17.5 17.5  36.25 16.25 16.25  36.25 16.25 17.5  37.5 16.25 17.5  37.5 17.5 17.5  36.25 17.5 17.5  26.25 17.5 18.75  26.25 17.5 17.5  26.25 16.25 18.75  27.5 17.5 18.75  27.5 17.5 20  26.25 17.5 20  26.25 16.25 20  30 16.25 18.75  28.75 16.25 18.75  30 17.5 18.75  30 17.5 20  30 16.25 20  28.75 16.25 20  28.75 17.5 18.75  28.75 17.5 20  31.25 16.25 18.75  32.5 16.25 18.75  32.5 17.5 18.75  32.5 17.5 20  32.5 16.25 20  31.25 16.25 20  31.25 17.5 18.75  31.25 17.5 20  33.75 16.25 18.75  35 16.25 18.75  35 17.5 18.75  35 17.5 20  35 16.25 20  33.75 16.25 20  33.75 17.5 18.75  33.75 17.5 20  36.25 16.25 18.75  37.5 16.25 18.75  37.5 17.5 18.75  37.5 17.5 20  37.5 15 18.75  37.5 15 20  37.5 16.25 20  36.25 16.25 20  36.25 17.5 18.75  36.25 17.5 20  26.25 18.75 18.75  27.5 18.75 18.75  27.5 18.75 20  27.5 20 20  26.25 18.75 20  26.25 20 20  28.75 18.75 18.75  30 18.75 18.75  30 18.75 20  30 20 20  28.75 18.75 20  28.75 20 20  31.25 18.75 18.75  32.5 18.75 18.75  32.5 18.75 20  32.5 20 20  31.25 18.75 20  31.25 20 20  33.75 18.75 18.75  35 18.75 18.75  35 18.75 20  35 20 20  33.75 18.75 20  33.75 20 20  36.25 18.75 18.75  37.5 18.75 18.75  37.5 18.75 20  37.5 20 20  36.25 18.75 20  36.25 20 20  27.5 17.5 21.25  27.5 16.25 21.25  26.25 16.25 21.25  27.5 17.5 22.5  27.5 15 22.5  27.5 16.25 22.5  26.25 16.25 22.5  26.25 17.5 21.25  26.25 17.5 22.5  30 17.5 21.25  30 16.25 21.25  28.75 16.25 21.25  30 17.5 22.5  30 16.25 22.5  28.75 16.25 22.5  28.75 17.5 21.25  28.75 17.5 22.5  32.5 17.5 21.25  32.5 16.25 21.25  31.25 16.25 21.25  32.5 17.5 22.5  32.5 16.25 22.5  31.25 16.25 22.5  31.25 17.5 21.25  31.25 17.5 22.5  35 17.5 21.25  35 16.25 21.25  33.75 16.25 21.25  35 17.5 22.5  35 16.25 22.5  33.75 16.25 22.5  33.75 17.5 21.25  33.75 17.5 22.5  37.5 16.25 21.25  36.25 16.25 21.25  37.5 17.5 21.25  37.5 17.5 22.5  37.5 15 21.25  37.5 15 22.5  37.5 16.25 22.5  36.25 16.25 22.5  36.25 17.5 21.25  36.25 17.5 22.5  26.25 18.75 21.25  27.5 18.75 21.25  27.5 20 21.25  27.5 20 22.5  27.5 18.75 22.5  26.25 18.75 22.5  26.25 20 21.25  26.25 20 22.5  28.75 18.75 21.25  30 18.75 21.25  30 20 21.25  30 20 22.5  30 18.75 22.5  28.75 18.75 22.5  28.75 20 21.25  28.75 20 22.5  31.25 18.75 21.25  32.5 18.75 21.25  32.5 20 21.25  32.5 20 22.5  32.5 18.75 22.5  31.25 18.75 22.5  31.25 20 21.25  31.25 20 22.5  33.75 18.75 21.25  35 18.75 21.25  35 20 21.25  35 20 22.5  35 18.75 22.5  33.75 18.75 22.5  33.75 20 21.25  33.75 20 22.5  36.25 18.75 21.25  37.5 18.75 21.25  37.5 20 21.25  37.5 20 22.5  37.5 18.75 22.5  36.25 18.75 22.5  36.25 20 21.25  36.25 20 22.5  27.5 21.25 21.25  27.5 21.25 22.5  28.75 21.25 21.25  30 21.25 21.25  30 21.25 22.5  30 22.5 22.5  28.75 21.25 22.5  28.75 22.5 22.5  31.25 21.25 21.25  32.5 21.25 21.25  32.5 21.25 22.5  32.5 22.5 22.5  31.25 21.25 22.5  31.25 22.5 22.5  33.75 21.25 21.25  35 21.25 21.25  35 21.25 22.5  35 22.5 22.5  33.75 21.25 22.5  33.75 22.5 22.5  36.25 21.25 21.25  37.5 21.25 21.25  37.5 21.25 22.5  37.5 22.5 22.5  36.25 21.25 22.5  36.25 22.5 22.5  27.5 16.25 23.75  26.25 16.25 23.75  27.5 17.5 23.75  27.5 17.5 25  27.5 15 25  27.5 16.25 25  26.25 16.25 25  26.25 17.5 23.75  26.25 17.5 25  30 17.5 23.75  30 16.25 23.75  28.75 16.25 23.75  30 17.5 25  30 16.25 25  28.75 16.25 25  28.75 17.5 23.75  28.75 17.5 25  32.5 17.5 23.75  32.5 16.25 23.75  31.25 16.25 23.75  32.5 17.5 25  32.5 15 25  32.5 16.25 25  31.25 17.5 23.75  31.25 17.5 25  35 17.5 23.75  35 16.25 23.75  33.75 16.25 23.75  35 17.5 25  35 16.25 25  33.75 17.5 23.75  33.75 17.5 25  37.5 16.25 23.75  36.25 16.25 23.75  37.5 17.5 23.75  37.5 17.5 25  37.5 15 23.75  37.5 15 25  37.5 16.25 25  36.25 16.25 25  36.25 17.5 23.75  36.25 17.5 25  26.25 18.75 23.75  27.5 18.75 23.75  27.5 20 23.75  27.5 20 25  27.5 18.75 25  26.25 18.75 25  26.25 20 23.75  26.25 20 25  28.75 18.75 23.75  30 18.75 23.75  30 20 23.75  30 20 25  30 18.75 25  28.75 18.75 25  28.75 20 23.75  28.75 20 25  31.25 18.75 23.75  32.5 18.75 23.75  32.5 20 23.75  32.5 20 25  32.5 18.75 25  31.25 18.75 25  31.25 20 23.75  31.25 20 25  33.75 18.75 23.75  35 18.75 23.75  35 20 23.75  35 20 25  35 18.75 25  33.75 18.75 25  33.75 20 23.75  33.75 20 25  36.25 18.75 23.75  37.5 18.75 23.75  37.5 20 23.75  37.5 20 25  37.5 18.75 25  36.25 18.75 25  36.25 20 23.75  36.25 20 25  27.5 21.25 23.75  27.5 21.25 25  28.75 21.25 23.75  30 21.25 23.75  30 22.5 23.75  30 21.25 25  28.75 21.25 25  31.25 21.25 23.75  32.5 21.25 23.75  32.5 22.5 23.75  32.5 21.25 25  31.25 21.25 25  31.25 22.5 23.75  33.75 21.25 23.75  35 21.25 23.75  35 22.5 23.75  35 22.5 25  35 21.25 25  33.75 21.25 25  33.75 22.5 23.75  33.75 22.5 25  36.25 21.25 23.75  37.5 21.25 23.75  37.5 22.5 23.75  37.5 22.5 25  37.5 21.25 25  36.25 21.25 25  36.25 22.5 23.75  36.25 22.5 25  30 23.75 23.75  31.25 23.75 23.75  32.5 23.75 23.75  33.75 23.75 23.75  35 
[...]
<PointData  Scalars="p_O2"> 
<DataArray  type="Float64"  Name="p_O2"  format="ascii">7.2803454138662872e+01  7.2890511764182364e+01  7.3809952043583507e+01  7.2394227458543270e+01  7.3057850288899473e+01  7.1456020407573874e+01  7.2084335182511992e+01  7.2039705040845391e+01  7.0621336717610291e+01  7.0579372990733802e+01  7.1372944524664817e+01  7.1464581818084710e+01  7.1641696431443009e+01  7.2301817771517676e+01  8.5180207732390869e+01  8.2600809411671293e+01  8.4600968009959075e+01  8.1445785054616863e+01  8.4077269282735443e+01  8.2051639953348129e+01  8.0137886264049101e+01  8.3299116268028314e+01  8.1522286757764945e+01  8.0794909123889482e+01  7.9556994828024528e+01  8.1549676598840335e+01  8.3671890547147427e+01  8.0367813917951551e+01  8.3316021498234420e+01  8.1190010169453686e+01  7.9181095837123578e+01  7.9627930455014138e+01  7.8363540442993468e+01  7.9110746753047508e+01  7.7790785582987311e+01  7.8442447749991047e+01  7.6862044814244697e+01  7.7102031503519271e+01  7.7839430717726742e+01  7.6488994173771502e+01  7.7399566040897980e+01  7.5738802633848081e+01  7.6262867577847942e+01  7.4860800024138541e+01  7.7016025556083846e+01  7.8872360364669646e+01  7.5650918056756424e+01  7.8621120447815827e+01  7.6788880779764895e+01  7.5080768428418892e+01  7.5375393141943974e+01  7.6860776955480716e+01  7.5503460589355754e+01  7.7610338865605684e+01  7.4255300158022550e+01  7.5658851863863688e+01  7.6981209084880248e+01  7.4817807731811726e+01  7.3358542700311631e+01  7.4309501984216539e+01  7.2996525365816623e+01  7.3583328939686936e+01  7.2095553831340567e+01  7.6192441184117399e+01  7.5001890981516894e+01  7.6342067671162823e+01  7.5782821230986485e+01  7.4428776903027767e+01  7.5692716575230804e+01  7.3874696138506579e+01  7.2399897968501577e+01  7.3609684166416727e+01  7.2258413072785260e+01  7.2588284713932708e+01  7.5268110943844846e+01  7.4028113343847494e+01  7.5390823490052014e+01  7.5074400298645315e+01  7.3704432350034097e+01  7.5005025786201628e+01  7.4812830234892317e+01  7.3548325668032419e+01  7.4920720721523153e+01  7.4840177741161327e+01  7.2471745154420489e+01  7.0948511808814189e+01  7.1908094377904447e+01  7.0927513640541434e+01  7.3221929867687791e+01  7.2290564872877226e+01  7.1562495470627127e+01  7.3914992017691077e+01  7.5295310422420201e+01  7.4755958294345717e+01  7.3827057841211086e+01  7.4650572821595290e+01  7.6008098926099080e+01  7.5127525124432893e+01  7.4433627752012526e+01  7.3032709019784562e+01  7.3747980303517863e+01  7.3363793095570230e+01  7.2414524218544628e+01  7.2896279388569226e+01  7.4301259936818241e+01  7.4015518261473844e+01  7.3057850288815303e+01  7.3401039158959392e+01  7.1976627385192614e+01  7.2605650221784586e+01  7.0127626234814713e+01  7.1628770749035098e+01  7.1137352203082486e+01  7.2394227458326270e+01  7.3809952041775261e+01  7.3770667650599535e+01  7.2803454137818647e+01  7.2890511764271963e+01  7.1456020407893320e+01  7.2247243625658953e+01  7.3673756300249849e+01  7.3094249386909041e+01  7.2454124823357688e+01  7.4433627751868499e+01  7.3827057841186132e+01  7.3094249386345965e+01  7.1657651545832579e+01  7.1657651546722946e+01  7.1158264783688608e+01  7.2610202428557784e+01  7.2301817772175127e+01  7.1641696432226752e+01  7.2003865710274596e+01  7.0847012462822264e+01  7.0621336718208269e+01  7.2084335182301274e+01  7.2039705040961678e+01  7.1372944524150043e+01  7.1464581818990823e+01  7.2610202428156185e+01  7.1158264783308780e+01  7.2003865709828574e+01  7.1641696432060982e+01  7.3401039159008889e+01  7.3057850289105460e+01  7.2301817771643684e+01  7.0127626234842580e+01  7.0847012462781763e+01  7.1628770749342621e+01  7.1456020407787918e+01  7.2394227458663309e+01  7.2890511764540065e+01  7.0621336717785468e+01  7.2084335182166527e+01  7.1464581818867003e+01  7.2099565497458215e+01  7.2015393293866111e+01  7.3465423434664459e+01  7.4864216725680450e+01  7.4778135392817290e+01  7.3379321610095886e+01  7.4812830237663391e+01  7.3548325668801354e+01  7.4920720722574373e+01  7.5074400300647056e+01  7.2355420439756614e+01  7.2394227458973887e+01  7.3809952042109671e+01  7.4015518262835784e+01  7.3057850288686723e+01  7.2890511764163705e+01  7.2605650222709585e+01  7.4301259937882691e+01  7.5390823492729723e+01  7.2896279389028876e+01  7.5782821235068326e+01  7.3401039158850480e+01  7.2910053528637121e+01  7.1500573595824477e+01  7.2598772267012663e+01  7.1176942512337249e+01  7.0803460660857922e+01  7.2239758046181976e+01  7.3609104833584894e+01  7.2373907254215908e+01  7.2055936868590493e+01  7.3434741929182962e+01  7.3345255926665402e+01  7.0951772232297927e+01  7.2331231834925021e+01  7.0903369859878055e+01  7.0526131843717366e+01  7.1968887239808822e+01  7.0620482218984478e+01  7.1826444155294013e+01  7.3216340210284571e+01  7.3168998725345460e+01  7.3078620853248154e+01  7.1782741815108253e+01  7.0245951683881671e+01  7.1695192772652618e+01  7.4539860295912646e+01  7.4756365734365033e+01  7.4498263777406891e+01  7.4673595414122332e+01  7.5935547131107725e+01  7.5769743220189255e+01  7.5685068008761505e+01  7.4414914760751913e+01  7.2373907255023965e+01  7.2055936868540144e+01  7.3434741929403458e+01  7.3609104833767532e+01  7.0951772231228944e+01  7.2598772266485255e+01  7.1176942511946834e+01  7.0803460659731527e+01  7.2239758046294057e+01  7.0620482219017902e+01  7.1826444155419807e+01  7.3216340210528472e+01  7.3168998725099712e+01  7.3345255926138719e+01  7.3434741929138596e+01  7.2055936868327123e+01  7.1782741814715649e+01  7.0526131842208088e+01  7.1968887239650684e+01  7.4539860295786909e+01  7.5813731877392954e+01  7.5769743220097141e+01  7.5935547131003361e+01  7.4756365735008359e+01  7.6019355553934076e+01  7.6183349018073187e+01  7.6019355554043969e+01  7.4756365735087257e+01  7.4929541180585488e+01  7.4498263778272872e+01  7.4673595413753276e+01  7.7021719165145328e+01  7.6982584378450682e+01  7.7145931337406111e+01  7.8290999739867772e+01  7.8176958841576706e+01  7.8136490803958154e+01  7.8057917291608391e+01  7.7223739764046542e+01  7.8368744839680659e+01  7.8521542770618808e+01  7.8368744840446709e+01  7.7223739763432405e+01  7.7385100448189419e+01  7.6904152237177257e+01  7.9267524269499674e+01  7.9454536916320748e+01  7.9454536915721192e+01  7.9603659313474310e+01  8.0622028886968081e+01  7.1826444154638665e+01  7.1782741814350700e+01  7.2910053528684983e+01  7.3057105365436968e+01  7.4404047324778233e+01  7.4270206484099475e+01  7.3963358573306181e+01  7.3963358574101164e+01  7.2598772266291618e+01  7.5562504242874084e+01  7.5268660111450387e+01  7.2373907253987156e+01  7.3748846985858506e+01  7.5056655383063116e+01  7.6313496695093747e+01  7.7504264316713147e+01  7.9714623321562300e+01  8.3051720662152150e+01  8.3982381608511545e+01  8.4847454565083453e+01  8.5636025155046198e+01  8.4852952183467792e+01  8.3246890979564313e+01  8.4120110981251315e+01  8.4150174928083914e+01  8.3509288563920805e+01  8.2284391333772462e+01  8.1585881733405316e+01  8.2578517666292385e+01  8.6432233763031022e+01  8.6530991287024776e+01  8.5790587525970693e+01  8.7256270177487551e+01  8.5204750379716472e+01  8.5971423707502026e+01  8.6684442198078216e+01  8.1445274169202648e+01  8.0383936560577055e+01  8.0750519593984762e+01  7.9990305207023624e+01  7.9662432239148316e+01  7.7689505552944141e+01  7.8874072484263351e+01  8.2441635724874757e+01  8.3381683794845841e+01  8.2743092756524987e+01  8.2044541298686667e+01  8.1776249372929811e+01  8.1049232646941448e+01  8.5088880830777711e+01  8.4262064355037111e+01  8.4504363648491321e+01  8.3865020195652534e+01  8.3651622300014523e+01  8.4385564967477464e+01  8.2984579280086777e+01  8.5860162820382200e+01  8.5301589756207093e+01  8.6044741551063296e+01  8.5460434499406560e+01  8.4691076596950580e+01  7.5769067924603902e+01  7.6445157537026503e+01  7.6599960083401456e+01  7.7037607970163833e+01  7.6466693885262899e+01  7.5182723856541273e+01  7.6076791405130265e+01  8.0130797771114175e+01  7.9016415710690467e+01  7.9384277796636098e+01  7.8852786986299236e+01  7.9657180640840338e+01  7.8526319470832533e+01  7.8242812356950381e+01  7.7693783577638499e+01  8.1179482029757025e+01  8.2172110263258432e+01  8.1485310065785725e+01  8.0994392896167952e+01  8.1734407653131726e+01  8.0724713233759161e+01  8.0465087642395545e+01  7.9955756779368841e+01  8.3103511116265125e+01  8.3980479806953284e+01  8.3351345456836967e+01  8.2900218590067595e+01  8.3578169900552211e+01  8.2684238358492280e+01  8.2447367850639083e+01  8.1977803875860374e+01  8.4799767121719114e+01  8.5564709758060758e+01  8.4989442626699216e+01  8.4575873734754779e+01  8.6253459980972679e+01  8.5874917338301245e+01  8.5195960817406430e+01  8.4414597248355250e+01  8.4198813412454072e+01  8.3767346207153636e+01  7.5027154067303755e+01  7.6323784500313863e+01  7.5777289068957586e+01  7.5173865735901927e+01  7.4466667598363287e+01  7.3848944823611106e+01  7.7550435722594756e+01  7.8720670447185839e+01  7.8211127026090267e+01  7.7648634186352126e+01  7.7024656195249150e+01  7.6445108694344711e+01  7.9824578222136822e+01  8.0872870237446278e+01  8.0401679699215478e+01  7.9881551490198589e+01  7.9336116333626379e+01  7.8797593105869495e+01  8.1858377437106370e+01  8.2788652009899877e+01  8.2355324911977547e+01  8.1876911996956892e+01  8.1407583868649667e+01  8.0910434824810281e+01  8.3659029847684010e+01  8.4473272051164116e+01  8.4075902450551908e+01  8.3636982649655266e+01  8.3244548980382731e+01  8.2787227158586006e+01  7.6063512611992863e+01  7.6906233549591221e+01  7.5632661036483654e+01  7.5738800024495077e+01  7.7623028124120339e+01  7.6635171285715501e+01  7.5354856092357380e+01  7.4765436091534369e+01  7.4433523777519326e+01  7.8475762774384975e+01  7.9256985824709830e+01  7.8109979522779469e+01  7.8172209617902737e+01  7.9003116506741151e+01  7.7848254196977052e+01  7.7301630979508687e+01  7.6989329394879576e+01  8.0644833025470803e+01  8.1364043868416445e+01  8.0338226022870856e+01  8.0363540825516679e+01  8.1128515540773748e+01  8.0094251003380876e+01  7.9591024629255202e+01  7.9300143797975181e+01  8.2577900463324639e+01  8.3237099747045264e+01  8.2327904467248970e+01  8.2318775699511392e+01  8.3020026922208629e+01  8.2102126286812265e+01  8.1641072407764270e+01  8.1371992275471300e+01  8.4882439598941545e+01  8.4087405357664267e+01  8.4279393848240815e+01  8.4041437503507893e+01  8.5603680041538752e+01  8.5385866210649098e+01  8.4683162514701507e+01  8.3879330728758120e+01  8.3457919742733907e+01  8.3209917400617996e+01  7.3991360446431614e+01  7.5319350941334520e+01  7.4747241793639446e+01  7.4404047323612573e+01  7.5026923441939729e+01  7.3693469967183916e+01  7.3406049411079167e+01  7.3057105365828633e+01  7.6578367219085592e+01  7.7782970718703012e+01  7.7249273273049354e+01  7.6928024043427001e+01  7.7509132030054161e+01  7.6297397430443780e+01  7.6028755836960201e+01  7.5699635415319250e+01  7.8921257384663164e+01  8.0004703043745153e+01  7.9510948214017588e+01  7.9212929307575578e+01  7.9750648185531034e+01  7.8659076162525324e+01  7.8410216913294903e+01  7.8103060543982252e+01  8.1024649619704320e+01  8.1989191509871674e+01  8.1534927381714510e+01  8.1260140312204101e+01  8.1755024263648622e+01  8.0781807837106555e+01  8.0552673443403279e+01  8.0268073905457626e+01  8.2892593650407505e+01  8.3738926260207023e+01  8.3322208888194652e+01  8.3069675911964708e+01  8.3523928936741072e+01  8.2668623410845711e+01  8.2458368966666541e+01  8.2195713731985862e+01  7.4270206483986016e+01  7.3963358573381186e+01  7.5562504241947224e+01  7.6802562122335772e+01  7.6515223351125655e+01  7.6183349016051622e+01  7.5268660110744790e+01  7.4929541179961333e+01  7.7976375365798361e+01  7.9096227775712663e+01  7.8829633596310785e+01  7.8521542768972793e+01  7.7701978329239083e+01  7.7385100446523325e+01  8.0151885649725600e+01  8.1152017223404911e+01  8.0906269542552423e+01  8.0622028885560184e+01  7.9897565947445614e+01  7.9603659311459538e+01  8.2089749589337615e+01  8.2969481410559638e+01  8.2743826846277415e+01  8.2482478168947708e+01  8.1855064538866174e+01  8.1583592618240175e+01  7.6440685014579245e+01  7.5153317902266608e+01  7.5579557301641231e+01  7.5497270692038754e+01  7.7401014342689209e+01  7.6402898671517349e+01  7.5115691240004367e+01  7.4267990848033648e+01  7.4185316402958946e+01  7.8022628113691894e+01  7.8821247565637321e+01  7.7658805988774205e+01  7.7945781329845488e+01  7.8785523174544309e+01  7.7622951083406974e+01  7.6833096350485718e+01  7.6755253600965474e+01  8.0224331844177357e+01  8.0959820027409307e+01  7.9918015489836833e+01  8.0153212168196362e+01  8.1774995826275045e+01  8.0926517651166634e+01  7.9154381898953119e+01  7.9081780017396781e+01  8.2189984370139527e+01  8.2864305578855436e+01  8.1939399518751074e+01  8.2124594952928675e+01  8.2833633193266508e+01  8.1237165508968175e+01  8.1169835020271051e+01  8.4539616609404831e+01  8.3729788926697822e+01  8.3922581915673277e+01  8.3862718542362316e+01  8.5277179658229841e+01  8.5222333009956529e+01  8.4511682958337261e+01  8.3700445953020619e+01  8.3085960351303271e+01  8.3023627332891564e+01  7.3477902838394328e+01  7.4820311066285839e+01  7.4235362945367427e+01  7.4148564090592032e+01  7.4777912516430973e+01  7.3437264843004328e+01  7.2880208126176086e+01  7.2794720248571281e+01  7.6094408767762587e+01  7.7315278221249216e+01  7.6769451011310721e+01  7.6688248196117129e+01  7.7275561003927521e+01  7.6055709263878924e+01  7.5532878499546726e+01  7.5451894706352832e+01  7.8469967686675815e+01  7.9570351630395621e+01  7.9065248648293704e+01  7.8989989029219672e+01  7.9533580158782144e+01  7.8433550624770916e+01  7.7947610661092938e+01  7.7871710484291569e+01  8.0606980912616066e+01  8.1588233015079098e+01  8.1123426594520339e+01  8.1054148751045076e+01  8.1554538130280989e+01  8.0572970842101043e+01  8.0124368587021664e+01  8.0053704940964664e+01  8.2507798477805224e+01  8.3369910508904582e+01  8.2943441654458724e+01  8.2879956964276602e+01  8.3339340428332605e+01  8.2476139483713126e+01  8.2063645149529236e+01  8.1998022854897712e+01  7.3748846985710131e+01  7.3703189334110590e+01  7.5056655382400038e+01  7.6313496695102458e+01  7.6019355552828600e+01  7.6270962962027312e+01  7.5016030093878783e+01  7.7504264315820762e+01  7.8641662835708118e+01  7.8368744838824455e+01  7.8602452722075725e+01  7.7466040936261351e+01  7.7223739762250446e+01  7.9714623320934052e+01  8.0732113307586602e+01  8.0480521553547817e+01  8.0408902140384328e+01  8.0696302502314893e+01  7.9678927532497681e+01  7.9454536915140210e+01  7.9381920539943621e+01  8.1686651132597376e+01  8.2582808424268805e+01  8.2351772908230700e+01  8.2286102080149590e+01  8.2550400316274008e+01  8.1653421885156831e+01  8.1446575471576836e+01  8.1379007906370958e+01  7.5813731876204784e+01  7.7021719164001937e+01  7.8176958840500959e+01  7.9267524268817652e+01  8.0302690590960680e+01  8.0265790577228387e+01  8.0193389478871936e+01  7.9230977586405601e+01  7.9157718725183813e+01  8.1274349785512825e+01  8.2187251585770682e+01  8.1240327650973001e+01  7.6440685014582854e+01  7.5153317902725178e+01  7.4267990847730758e+01  7.7658805988338102e+01  7.6833096350558165e+01  7.3477902838718791e+01  7.4820311066314034e+01  7.4235362946143212e+01  7.2880208126532295e+01  7.6094408768396079e+01  7.5532878500119153e+01  7.6769451012172496e+01  7.6928024044184667e+01  7.5699635416750525e+01  7.3748846986453117e+01  7.5056655383219336e+01  7.6313496696882879e+01  7.6515223352090345e+01  7.5268660112090330e+01  7.7504264317399787e+01  7.8641662837866050e+01  7.9714623322092010e+01  8.0732113309343120e+01  8.0480521553475128e+01  8.1686651134017950e+01  8.2582808426126391e+01  8.2351772909191411e+01  8.2482478170823882e+01  8.1446575471875974e+01  8.1583592620001980e+01  8.1855064541146760e+01  8.0302690589863786e+01  8.1274349785512229e+01  8.2089749592303548e+01  8.9220010963226414e+01  8.9272877931910770e+01  8.9766119930696007e+01  9.0073070268453506e+01  9.0548984053296181e+01  9.0268107632825163e+01  8.8517986371276308e+01  8.6932937152901658e+01  8.7344830945779165e+01  8.7644882501401142e+01  8.7953287490045639e+01  8.7557796957912984e+01  8.7210801865455892e+01  8.6569908461971650e+01  8.7326780645892669e+01  8.6274151535251875e+01  8.5920467295774927e+01  8.5327272933410057e+01  8.6020935948888479e+01  8.5723691137921790e+01  8.5229294477064855e+01  8.4848424871118837e+01  8.4427872031719815e+01  8.5158614557498666e+01  8.6310721705081235e+01  8.7056802419472163e+01  8.5620397649700593e+01  8.5043482519760616e+01  8.5428783751745399e+01  8.4525387934585524e+01  8.4126170984272960e+01  8.4868590248926452e+01  8.4636549588683053e+01  8.4319004040074020e+01  8.3883867138900840e+01  8.3787645562432118e+01  8.4543199086492564e+01  8.4336217657022331e+01  8.4095979896462367e+01  8.3571288186952600e+01  8.3320679997446419e+01  8.5236229609371989e+01  8.5291630208023605e+01  8.4701398536791658e+01  8.4171378416241822e+01  8.3762923646021079e+01  8.3416603696668901e+01  8.3385616186830134e+01  8.3701842679922692e+01  8.4461780649779925e+01  8.4157995606478920e+01  8.3915012929005130e+01  8.3195223029233617e+01  8.3132232985224789e+01  8.3036987213632386e+01  8.3416603698963883e+01  9.9506201524525423e+01  9.8079452936207943e+01  9.9461078349439902e+01  9.7949691210957795e+01  9.9425782266425699e+01  9.9418614381822024e+01  9.7933072607778499e+01  9.6459401495094795e+01  9.9337272390508801e+01  9.7794786640667681e+01  9.9380918577218111e+01  9.7644440798140550e+01  9.5966540945170891e+01  9.6223368434068817e+01  9.9565676336561467e+01  9.8308280843429273e+01  9.9525338937002260e+01  9.8198968056424164e+01  9.9495596229729315e+01  9.9487243419515764e+01  9.8176683978702968e+01  9.6875787557849065e+01  9.7108409444563179e+01  9.6922230667234956e+01  9.8059830329018851e+01  9.9455401997212391e+01  9.6676086742038621e+01  9.9615782342092700e+01  9.8501663894985597e+01  9.9579646066031344e+01  9.8409196363458207e+01  9.9554476928553171e+01  9.9545441506174839e+01  9.8383303601763913e+01  9.7229205835501730e+01  9.7438090968642882e+01  9.7280389967083352e+01  9.8284193399601122e+01  9.9518435439601134e+01  9.7059636352049026e+01  9.9658017399177808e+01  9.8665018343287230e+01  9.9625528726277452e+01  9.8587017511768977e+01  9.9604284380627718e+01  9.9594748015036188e+01  9.8558339290577479e+01  9.7528767824498374e+01  9.8783474022007425e+01  9.7914699077161771e+01  9.7716832454566216e+01  9.7583614894005080e+01  9.8474525635538882e+01  9.9571898134401692e+01  9.7385195892957100e+01  9.9121784856221282e+01  9.6922088424034627e+01  9.9138031413759663e+01  9.9185426850839320e+01  9.9239921273981949e+01  9.7129001206207874e+01  9.9194185192203307e+01  9.9152332007879053e+01  9.6987465182492173e+01  9.4843997004426214e+01  9.5377754788820837e+01  9.5100437124476670e+01  9.4750657255533866e+01  9.9071526198082182e+01  9.9025973793093016e+01  9.6772829422320939e+01  9.9093821368751932e+01  9.4081288593373941e+01  9.4479754216544080e+01  9.7490941011597357e+01  9.9295862671940810e+01  9.7318572635001132e+01  9.9249052307409215e+01  9.9257703643559339e+01  9.7361289981375180e+01  9.5481544131986624e+01  9.5715014110038510e+01  9.5422830326231704e+01  9.5685225636743979e+01  9.7181830349592261e+01  9.9208813318753428e+01  9.5176251571116239e+01  9.7649661107168910e+01  9.9341768356592425e+01  9.7794903796156831e+01  9.9381233950822804e+01  9.9346615221931913e+01  9.7676873239194535e+01  9.6020446051141960e+01  9.6232074826111358e+01  9.5985349520700595e+01  9.7525175980615870e+01  9.9305305658397927e+01  9.5761894489420357e+01  9.7929107890830281e+01  9.9420027703487619e+01  9.8052395999756385e+01  9.9453544873497435e+01  9.9422229449222243e+01  9.7945342500704029e+01  9.6479333814426553e+01  9.6670691746731720e+01  9.6460899158810378e+01  9.7816224755515222e+01  9.9387074874071473e+01  9.6258928285595829e+01  9.8166503333031670e+01  9.9486514557621319e+01  9.8271420182298357e+01  9.9515053291127188e+01  9.9486758650891701e+01  9.8174481621111710e