<?xml version="1.0"?>
<VTKFile type="UnstructuredGrid"  version="0.1"  >
<UnstructuredGrid>
<Piece  NumberOfPoints="3917" NumberOfCells="19156">
<Points>
<DataArray  type="Float64"  NumberOfComponents="3"  format="ascii">25 27.5 35  26.25 28.75 35  25 28.75 35  26.25 28.75 33.75  25 30 35  26.25 30 35  27.5 30 35  25 28.75 36.25  23.75 28.75 36.25  25 30 36.25  25 30 37.5  25 27.5 36.25  25 27.5 37.5  25 28.75 37.5  26.25 28.75 36.25  26.25 30 36.25  27.5 30 36.25  27.5 30 37.5  26.25 28.75 37.5  26.25 30 37.5  26.25 31.25 36.25  27.5 31.25 36.25  27.5 31.25 37.5  27.5 32.5 37.5  26.25 31.25 37.5  25 32.5 37.5  26.25 32.5 37.5  25 32.5 35  26.25 32.5 36.25  25 32.5 36.25  26.25 33.75 36.25  26.25 33.75 37.5  26.25 28.75 38.75  26.25 30 38.75  27.5 30 38.75  27.5 30 40  25 27.5 40  26.25 28.75 40  25 28.75 40  25 30 40  26.25 30 40  25 30 38.75  26.25 31.25 38.75  27.5 31.25 38.75  27.5 32.5 38.75  27.5 32.5 40  27.5 31.25 40  26.25 31.25 40  26.25 32.5 38.75  26.25 33.75 38.75  27.5 33.75 38.75  27.5 33.75 40  27.5 35 40  26.25 33.75 40  26.25 28.75 41.25  26.25 30 41.25  27.5 30 41.25  27.5 30 42.5  25 27.5 42.5  26.25 28.75 42.5  25 28.75 42.5  25 30 42.5  26.25 30 42.5  25 30 41.25  26.25 31.25 41.25  27.5 31.25 41.25  27.5 32.5 41.25  27.5 32.5 42.5  27.5 31.25 42.5  26.25 31.25 42.5  26.25 32.5 41.25  27.5 33.75 41.25  26.25 33.75 41.25  27.5 35 41.25  27.5 35 42.5  27.5 33.75 42.5  26.25 33.75 42.5  26.25 35 41.25  27.5 36.25 41.25  27.5 36.25 40  26.25 36.25 41.25  27.5 37.5 40  27.5 37.5 41.25  27.5 37.5 42.5  27.5 36.25 42.5  26.25 36.25 42.5  26.25 37.5 41.25  26.25 38.75 41.25  27.5 38.75 41.25  25 28.75 43.75  23.75 28.75 43.75  25 30 43.75  25 30 45  25 27.5 43.75  25 27.5 45  25 28.75 45  26.25 28.75 43.75  26.25 30 43.75  27.5 30 43.75  27.5 30 45  26.25 28.75 45  26.25 30 45  26.25 31.25 43.75  27.5 31.25 43.75  27.5 32.5 43.75  27.5 32.5 45  27.5 31.25 45  26.25 31.25 45  26.25 32.5 43.75  25 31.25 45  25 32.5 45  26.25 32.5 45  27.5 33.75 43.75  26.25 33.75 43.75  27.5 35 43.75  27.5 35 45  27.5 33.75 45  26.25 33.75 45  26.25 35 43.75  26.25 35 45  27.5 36.25 43.75  26.25 36.25 43.75  27.5 37.5 43.75  27.5 37.5 45  27.5 36.25 45  26.25 36.25 45  26.25 28.75 46.25  26.25 30 46.25  27.5 30 46.25  27.5 30 47.5  25 28.75 46.25  25 27.5 46.25  25 27.5 47.5  26.25 28.75 47.5  25 28.75 47.5  25 30 47.5  26.25 30 47.5  25 30 46.25  26.25 31.25 46.25  27.5 31.25 46.25  27.5 32.5 46.25  27.5 32.5 47.5  27.5 31.25 47.5  26.25 31.25 47.5  26.25 32.5 46.25  26.25 33.75 46.25  27.5 33.75 46.25  27.5 35 46.25  27.5 35 47.5  27.5 33.75 47.5  26.25 33.75 47.5  26.25 35 46.25  25 35 47.5  26.25 35 47.5  27.5 36.25 46.25  26.25 36.25 46.25  27.5 37.5 46.25  27.5 37.5 47.5  27.5 36.25 47.5  26.25 36.25 47.5  26.25 37.5 46.25  27.5 38.75 46.25  27.5 38.75 45  26.25 38.75 46.25  27.5 40 45  27.5 40 46.25  27.5 40 47.5  27.5 38.75 47.5  26.25 38.75 47.5  25 28.75 48.75  23.75 28.75 48.75  25 30 48.75  25 30 50  26.25 28.75 48.75  26.25 30 48.75  27.5 30 48.75  27.5 30 50  26.25 30 50  26.25 31.25 48.75  27.5 31.25 48.75  27.5 32.5 48.75  27.5 32.5 50  27.5 31.25 50  26.25 31.25 50  26.25 32.5 48.75  26.25 32.5 50  27.5 33.75 48.75  26.25 33.75 48.75  27.5 35 48.75  27.5 35 50  27.5 33.75 50  26.25 33.75 50  26.25 35 48.75  26.25 35 50  26.25 36.25 48.75  27.5 36.25 48.75  27.5 37.5 48.75  27.5 37.5 50  27.5 36.25 50  26.25 36.25 50  26.25 37.5 48.75  27.5 38.75 48.75  26.25 38.75 48.75  27.5 40 48.75  27.5 40 50  27.5 38.75 50  25 22.5 37.5  26.25 22.5 38.75  26.25 22.5 37.5  26.25 21.25 38.75  27.5 22.5 37.5  27.5 22.5 38.75  27.5 22.5 40  25 22.5 38.75  25 22.5 40  26.25 22.5 40  25 23.75 38.75  25 23.75 37.5  23.75 23.75 38.75  23.75 23.75 37.5  25 25 37.5  25 25 38.75  25 25 40  25 23.75 40  26.25 23.75 38.75  26.25 23.75 37.5  27.5 23.75 38.75  27.5 23.75 37.5  27.5 25 37.5  27.5 25 38.75  27.5 25 40  27.5 23.75 40  26.25 23.75 40  26.25 25 38.75  26.25 25 37.5  26.25 25 40  26.25 26.25 38.75  26.25 26.25 37.5  27.5 26.25 38.75  27.5 26.25 37.5  27.5 27.5 37.5  27.5 27.5 38.75  27.5 27.5 40  27.5 26.25 40  26.25 26.25 40  25 26.25 37.5  26.25 27.5 38.75  26.25 27.5 37.5  25 26.25 38.75  25 26.25 40  26.25 27.5 40  25 27.5 38.75  27.5 28.75 38.75  27.5 28.75 40  27.5 22.5 41.25  27.5 21.25 41.25  26.25 21.25 41.25  27.5 22.5 42.5  27.5 20 42.5  27.5 21.25 42.5  25 20 42.5  26.25 21.25 42.5  26.25 20 42.5  26.25 22.5 41.25  25 22.5 42.5  26.25 22.5 42.5  25 22.5 41.25  26.25 23.75 41.25  27.5 23.75 41.25  27.5 25 41.25  27.5 25 42.5  27.5 23.75 42.5  26.25 23.75 42.5  26.25 25 41.25  25 23.75 41.25  25 23.75 42.5  25 25 42.5  26.25 25 42.5  25 25 41.25  26.25 26.25 41.25  27.5 26.25 41.25  27.5 27.5 41.25  27.5 27.5 42.5  27.5 26.25 42.5  26.25 26.25 42.5  26.25 27.5 41.25  25 26.25 42.5  26.25 27.5 42.5  25 27.5 41.25  27.5 28.75 41.25  27.5 28.75 42.5  26.25 21.25 43.75  27.5 21.25 43.75  27.5 22.5 43.75  27.5 22.5 45  26.25 20 43.75  27.5 20 43.75  27.5 20 45  27.5 21.25 45  25 20 45  26.25 21.25 45  26.25 20 45  26.25 22.5 43.75  25 22.5 45  26.25 22.5 45  26.25 23.75 43.75  27.5 23.75 43.75  27.5 25 43.75  27.5 25 45  27.5 23.75 45  26.25 23.75 45  26.25 25 43.75  25 25 45  26.25 25 45  25 25 43.75  25 26.25 43.75  23.75 26.25 43.75  25 26.25 45  26.25 26.25 43.75  27.5 26.25 43.75  27.5 27.5 43.75  27.5 27.5 45  27.5 26.25 45  26.25 26.25 45  26.25 27.5 43.75  26.25 27.5 45  27.5 28.75 43.75  27.5 28.75 45  27.5 20 46.25  27.5 18.75 46.25  26.25 18.75 46.25  27.5 20 47.5  27.5 17.5 47.5  27.5 18.75 47.5  26.25 18.75 47.5  26.25 20 46.25  25 20 47.5  26.25 20 47.5  26.25 21.25 46.25  27.5 21.25 46.25  27.5 22.5 46.25  27.5 22.5 47.5  27.5 21.25 47.5  26.25 21.25 47.5  26.25 22.5 46.25  25 21.25 47.5  25 22.5 47.5  26.25 22.5 47.5  25 22.5 46.25  26.25 23.75 46.25  27.5 23.75 46.25  27.5 25 46.25  27.5 25 47.5  27.5 23.75 47.5  26.25 23.75 47.5  26.25 25 46.25  25 23.75 47.5  25 25 47.5  26.25 25 47.5  25 25 46.25  26.25 26.25 46.25  27.5 26.25 46.25  27.5 27.5 46.25  27.5 27.5 47.5  27.5 26.25 47.5  26.25 26.25 47.5  26.25 27.5 46.25  25 26.25 46.25  25 26.25 47.5  26.25 27.5 47.5  27.5 28.75 46.25  27.5 28.75 47.5  27.5 18.75 48.75  26.25 18.75 48.75  27.5 20 48.75  27.5 20 50  27.5 17.5 50  27.5 18.75 50  26.25 18.75 50  26.25 20 48.75  25 20 50  26.25 20 50  26.25 21.25 48.75  27.5 21.25 48.75  27.5 22.5 48.75  27.5 22.5 50  27.5 21.25 50  26.25 21.25 50  26.25 22.5 48.75  25 22.5 50  26.25 22.5 50  25 22.5 48.75  26.25 23.75 48.75  27.5 23.75 48.75  27.5 25 48.75  27.5 25 50  27.5 23.75 50  26.25 23.75 50  26.25 25 48.75  25 25 50  26.25 25 50  25 25 48.75  25 26.25 48.75  23.75 26.25 48.75  25 27.5 48.75  25 27.5 50  25 26.25 50  26.25 26.25 48.75  27.5 26.25 48.75  27.5 27.5 48.75  27.5 27.5 50  27.5 26.25 50  26.25 26.25 50  26.25 27.5 48.75  26.25 27.5 50  25 28.75 50  27.5 28.75 48.75  27.5 28.75 50  26.25 28.75 50  25 22.5 35  25 23.75 35  25 23.75 33.75  23.75 23.75 33.75  25 25 35  23.75 23.75 35  27.5 22.5 35  27.5 23.75 35  26.25 23.75 35  26.25 23.75 33.75  27.5 25 35  26.25 25 35  25 25 32.5  26.25 25 33.75  25 25 33.75  25 26.25 33.75  25 26.25 32.5  23.75 26.25 33.75  25 27.5 32.5  25 27.5 33.75  25 26.25 35  26.25 26.25 33.75  26.25 26.25 35  27.5 26.25 35  27.5 27.5 35  26.25 27.5 35  26.25 27.5 33.75  27.5 28.75 35  25 23.75 36.25  23.75 23.75 36.25  25 25 36.25  23.75 25 36.25  27.5 23.75 36.25  26.25 23.75 36.25  27.5 25 36.25  26.25 25 36.25  25 26.25 36.25  23.75 26.25 36.25  26.25 26.25 36.25  27.5 26.25 36.25  27.5 27.5 36.25  26.25 27.5 36.25  27.5 28.75 36.25  27.5 28.75 37.5  27.5 22.5 32.5  27.5 23.75 32.5  27.5 23.75 31.25  26.25 23.75 31.25  27.5 25 32.5  26.25 23.75 32.5  26.25 25 32.5  26.25 25 31.25  30 22.5 32.5  30 23.75 32.5  30 23.75 31.25  28.75 23.75 31.25  30 25 32.5  28.75 23.75 32.5  28.75 25 32.5  31.25 23.75 32.5  31.25 22.5 32.5  31.25 23.75 31.25  32.5 22.5 32.5  32.5 23.75 32.5  32.5 25 32.5  31.25 25 32.5  32.5 22.5 30  33.75 23.75 31.25  33.75 22.5 31.25  33.75 22.5 30  35 22.5 30  35 23.75 31.25  35 22.5 31.25  35 22.5 32.5  35 23.75 32.5  35 25 32.5  32.5 22.5 31.25  33.75 23.75 32.5  33.75 22.5 32.5  33.75 25 32.5  36.25 23.75 31.25  36.25 22.5 31.25  36.25 22.5 30  37.5 22.5 30  37.5 23.75 31.25  37.5 22.5 31.25  37.5 22.5 32.5  37.5 23.75 32.5  37.5 25 32.5  36.25 23.75 32.5  36.25 22.5 32.5  36.25 25 32.5  38.75 23.75 31.25  38.75 22.5 31.25  38.75 22.5 30  40 22.5 30  40 23.75 31.25  40 22.5 31.25  40 22.5 32.5  40 23.75 32.5  40 25 32.5  38.75 23.75 32.5  38.75 22.5 32.5  38.75 25 32.5  41.25 23.75 31.25  41.25 23.75 32.5  41.25 25 32.5  42.5 25 32.5  26.25 26.25 32.5  26.25 26.25 31.25  32.5 22.5 33.75  32.5 21.25 33.75  31.25 21.25 33.75  32.5 22.5 35  32.5 20 35  32.5 21.25 35  31.25 21.25 35  31.25 22.5 33.75  30 22.5 35  31.25 22.5 35  30 22.5 33.75  33.75 22.5 33.75  33.75 21.25 33.75  33.75 21.25 32.5  35 22.5 33.75  35 22.5 35  33.75 21.25 35  33.75 22.5 35  27.5 23.75 33.75  27.5 25 33.75  30 23.75 33.75  28.75 23.75 33.75  30 25 33.75  30 25 35  30 23.75 35  28.75 23.75 35  28.75 25 33.75  28.75 25 35  31.25 23.75 33.75  32.5 23.75 33.75  32.5 25 33.75  32.5 25 35  32.5 23.75 35  31.25 23.75 35  31.25 25 33.75  31.25 25 35  33.75 23.75 33.75  35 23.75 33.75  35 25 33.75  35 25 35  35 23.75 35  33.75 23.75 35  33.75 25 33.75  33.75 25 35  36.25 23.75 33.75  37.5 23.75 33.75  37.5 25 33.75  37.5 25 35  36.25 22.5 33.75  37.5 22.5 33.75  37.5 22.5 35  37.5 23.75 35  36.25 23.75 35  36.25 22.5 35  36.25 25 33.75  36.25 25 35  38.75 23.75 33.75  40 23.75 33.75  40 25 33.75  40 25 35  38.75 22.5 33.75  40 22.5 33.75  40 22.5 35  40 23.75 35  38.75 23.75 35  38.75 22.5 35  38.75 25 33.75  38.75 25 35  41.25 23.75 33.75  41.25 22.5 32.5  42.5 22.5 32.5  42.5 23.75 33.75  42.5 23.75 32.5  42.5 25 33.75  42.5 25 35  41.25 22.5 33.75  42.5 22.5 33.75  42.5 22.5 35  42.5 23.75 35  41.25 23.75 35  41.25 22.5 35  41.25 25 33.75  41.25 25 35  43.75 23.75 33.75  43.75 22.5 33.75  43.75 23.75 35  43.75 22.5 35  45 22.5 35  45 23.75 35  45 25 35  43.75 2
[...]
<PointData  Scalars="p_O2"> 
<DataArray  type="Float64"  Name="p_O2"  format="ascii">7.5019116068456924e+01  7.6615862211504094e+01  7.5313814298680924e+01  7.5577964627145477e+01  7.5728903681255872e+01  7.7019850040882687e+01  7.8243481223343082e+01  7.6541229758267278e+01  7.5213701949596569e+01  7.6934670801502492e+01  7.8292875559271721e+01  7.6261931267257367e+01  7.7661517181817473e+01  7.7923613376959594e+01  7.7799001983474142e+01  7.8181729245060339e+01  7.9360541990273703e+01  8.0611669194534770e+01  7.9127521083108888e+01  7.9486541327752590e+01  7.8676786284881402e+01  7.9839737785187594e+01  8.1061015918199445e+01  8.1613043574362962e+01  7.9950996704987958e+01  7.9361815464658079e+01  8.0522702919707683e+01  7.6929820712327015e+01  7.9286047517482913e+01  7.8073279473503902e+01  8.0011430366623387e+01  8.1203509661945887e+01  8.0600229740149544e+01  8.0933149706733730e+01  8.1994934464451731e+01  8.3506880047369393e+01  8.0928189863395687e+01  8.2214199552833463e+01  8.1150674271256278e+01  8.1464210446685712e+01  8.2518719805398263e+01  7.9803381797199691e+01  8.1363906696412343e+01  8.2411464879626237e+01  8.2923252844434515e+01  8.4355769537394593e+01  8.3887738825562550e+01  8.2912787581892559e+01  8.1894227529913110e+01  8.2525885964679247e+01  8.3531435501258557e+01  8.4912050980716842e+01  8.5557459718012623e+01  8.3976114386982587e+01  8.3964432855431070e+01  8.4238368265693012e+01  8.5142218678174487e+01  8.6893617290431706e+01  8.4791841815171168e+01  8.5843542478799250e+01  8.4968279249470939e+01  8.5216984810154258e+01  8.6084860222358344e+01  8.3271071000225518e+01  8.4592908822057311e+01  8.5484706892654756e+01  8.5905646084066007e+01  8.7565974788791181e+01  8.7195226876557840e+01  8.6397228166751376e+01  8.5029555397846465e+01  8.6406042978684752e+01  8.5549853767890824e+01  8.6986724356225466e+01  8.8518396988850355e+01  8.8006778578115146e+01  8.7240574614596881e+01  8.6155228723778734e+01  8.7648165934229453e+01  8.6292478349679755e+01  8.6846771885442834e+01  8.7116980684970486e+01  8.8390297198017564e+01  8.9755417128820085e+01  8.9101286581286800e+01  8.8384029779541862e+01  8.7625026166243060e+01  8.8489725117907852e+01  8.9212301708424263e+01  8.7078700500777842e+01  8.6257943254588795e+01  8.7291977979033234e+01  8.9482910424457174e+01  8.6927414688794656e+01  8.9181860645832643e+01  8.9306783642055564e+01  8.7841540093123271e+01  8.8048392599273768e+01  8.8751532414867611e+01  9.0704150896054855e+01  8.9945730103389451e+01  9.0116487035408696e+01  8.8316179739479040e+01  8.9009988258153456e+01  8.9327731391702613e+01  9.1179711498139753e+01  9.0917452581311565e+01  9.0337571296227125e+01  8.8646089607068134e+01  8.9711399488445238e+01  8.9993599844208646e+01  9.0609979115091321e+01  8.9705569951804478e+01  8.9039347313185417e+01  9.0144181505257578e+01  9.1853735536516396e+01  9.1491614284485223e+01  9.0934745846418039e+01  8.9497100811964785e+01  9.1312840019376992e+01  9.0643982580807673e+01  9.0020245473713572e+01  9.1204977834734265e+01  9.2729755723991744e+01  9.2266442699566483e+01  9.1745030334909202e+01  9.2140741302989284e+01  9.2274026884961529e+01  9.2737446715853622e+01  9.4835354477137287e+01  9.1635967809820087e+01  9.1538437301203530e+01  9.3977378214504270e+01  9.4408730839402580e+01  9.4046699708092518e+01  9.4144448448439135e+01  9.4503447104500935e+01  9.1773488202571485e+01  9.2446609569193228e+01  9.2903903738544017e+01  9.3108586417476786e+01  9.5099065066123131e+01  9.4953625197542692e+01  9.4626099060703453e+01  9.2659282436796133e+01  9.2912863440926671e+01  9.3352039272072389e+01  9.3634725360401035e+01  9.5472971076722303e+01  9.5272069338006219e+01  9.4957503674190065e+01  9.3208128578251348e+01  9.4834231282703598e+01  9.5167405001476553e+01  9.3956941651999486e+01  9.3545690133198505e+01  9.4318720086226321e+01  9.5959156675158184e+01  9.5701991228500731e+01  9.5407405660622544e+01  9.3925903330295455e+01  9.4719727492442715e+01  9.3243235976260351e+01  9.4348719365546600e+01  9.3805835294569647e+01  9.5159160989880945e+01  9.6556676206031739e+01  9.6244240948703606e+01  9.5978458894178772e+01  9.6516842208571518e+01  9.6286087352531297e+01  9.6573981550633917e+01  9.9038314807696153e+01  9.6729731136738707e+01  9.6785088858192992e+01  9.6980082962247465e+01  9.9152528566714366e+01  9.9097698983573011e+01  9.6856776048844324e+01  9.7049198869315674e+01  9.7134196870834927e+01  9.9195766961485219e+01  9.9171919735824318e+01  9.9117813137332689e+01  9.6945128819692968e+01  9.9142603117092193e+01  9.7235308890439669e+01  9.7050493758703013e+01  9.7352733642196867e+01  9.9257082763486650e+01  9.9224136188837917e+01  9.9172167998245470e+01  9.7173202036661053e+01  9.9206599658914641e+01  9.7313516502892213e+01  9.7486601406398506e+01  9.7636932471664309e+01  9.9336826168606237e+01  9.9294644414534275e+01  9.9245973659380283e+01  9.7471594528162115e+01  9.7803595294907637e+01  9.7647424444874019e+01  9.7986262484934770e+01  9.9434850850387633e+01  9.9383592616568464e+01  7.7661517184417633e+01  8.0363624099796482e+01  7.8872338849499542e+01  8.0600229744538964e+01  8.0016178096023367e+01  8.1443026214834191e+01  8.3002320170925543e+01  7.9217643410055132e+01  8.0928189867153989e+01  8.1997804232383615e+01  7.9072408282377168e+01  7.7504941524501135e+01  7.7852851490127108e+01  7.6220682019262966e+01  7.7452868304836755e+01  7.9024106235681543e+01  8.0751112559254963e+01  8.0795304468349229e+01  8.0222159071298933e+01  7.8719753066096189e+01  8.1305718779989462e+01  7.9868008007811980e+01  7.9818685808232772e+01  8.1260011830323066e+01  8.2835028312164653e+01  8.2876806904695385e+01  8.1868430920405359e+01  8.0175087298600360e+01  7.8668980729519703e+01  8.1825385935100357e+01  8.0222159070163158e+01  7.8719753066219667e+01  8.1305718780116962e+01  7.9868008008940606e+01  8.0016178097268380e+01  8.1443026215627071e+01  8.3002320172106252e+01  8.2876806904282589e+01  8.1868430918944469e+01  7.7504941522253304e+01  8.0363624097938555e+01  7.8872338848999590e+01  7.9072408279003952e+01  8.0795304465305634e+01  8.1997804232001656e+01  7.9217643405185157e+01  8.1672480667463844e+01  8.3212077264465748e+01  8.4688565396897587e+01  8.4877149781794159e+01  8.3964432857879984e+01  8.6494172074356868e+01  8.6893617292075973e+01  8.6660213715646066e+01  8.5216984817076991e+01  8.5843542480544158e+01  8.6084860225120906e+01  8.3769792992311892e+01  8.4791841817600044e+01  8.5672096749604378e+01  8.2788668043721003e+01  8.3653435237252651e+01  8.4575729539204303e+01  8.4538171029016809e+01  8.6361764371302513e+01  8.6394830369839980e+01  8.5569611682982540e+01  8.3614722057150374e+01  8.2669095638304483e+01  8.4686479525836290e+01  8.4651442090831154e+01  8.5535515558253934e+01  8.2629331928965769e+01  8.3653435234795793e+01  8.4575729538294283e+01  8.4688565395865425e+01  8.6494172072403089e+01  8.6394830368590206e+01  8.5569611681507126e+01  8.3769792990069149e+01  8.4686479525509256e+01  8.5672096747276854e+01  8.2788668040052414e+01  8.4877149780641020e+01  8.6660213713696265e+01  8.7841540096230759e+01  8.8551544531078676e+01  8.8409286192624918e+01  9.0421732894720790e+01  8.8048392603007571e+01  8.8751532416731365e+01  9.0704150898789891e+01  9.0539118735387433e+01  8.9482910430279929e+01  8.9945730107070929e+01  9.0116487039313142e+01  8.7694595740243912e+01  8.9181860648929003e+01  8.9824436747778890e+01  8.7606761491420073e+01  8.8324178432562235e+01  8.8295851042181823e+01  9.0328136287684742e+01  9.0351509651919926e+01  8.9751940004264327e+01  8.7577541417075594e+01  8.9082470391963355e+01  8.9727822361721437e+01  8.6807039426383710e+01  8.6837078371457764e+01  8.6010247144980895e+01  8.9107273237829375e+01  8.7606761490214254e+01  8.8324178431048168e+01  8.8409286190073715e+01  9.0421732892169317e+01  9.0351509650479329e+01  8.9751940003270519e+01  8.7694595737602754e+01  8.9824436745105089e+01  8.8551544528319781e+01  9.0539118732354567e+01  9.2737446718634715e+01  9.2903903741288801e+01  9.2446609572433431e+01  9.4835354479423899e+01  9.5099065069260135e+01  9.4953625200127391e+01  9.4626099062812798e+01  9.2274026888060590e+01  9.4144448450917778e+01  9.4503447106745426e+01  9.2140741305822345e+01  9.2608667465952308e+01  9.2517074098449186e+01  9.4678788680163620e+01  9.4743860860654507e+01  9.4408730841295707e+01  9.2046073061394068e+01  9.4046699709894881e+01  9.3977378215378678e+01  9.4341459666737478e+01  9.1538437303033604e+01  9.1989491378927539e+01  9.2462282107161343e+01  9.2444045823953886e+01  9.4626908202675693e+01  9.4639863905445310e+01  9.4301255188161932e+01  9.1970669825920112e+01  9.3935993418588950e+01  9.3922231730181778e+01  9.4287880878528753e+01  9.1460845048769016e+01  9.1989491378565788e+01  9.2462282106130132e+01  9.2517074096456412e+01  9.4678788678881745e+01  9.4639863904861130e+01  9.4301255187857507e+01  9.2046073059482296e+01  9.1480206883858131e+01  9.3935993418926927e+01  9.4341459665629998e+01  9.2608667463341661e+01  9.4743860858702405e+01  9.7049198871226508e+01  9.6856776050068859e+01  9.6980082963825140e+01  9.9152528567152459e+01  9.9195766962034270e+01  9.9171919736376282e+01  9.9117813137731360e+01  9.6785088859445111e+01  9.9038314808231291e+01  9.9097698983994391e+01  9.6729731137918733e+01  9.6926616802023119e+01  9.6888592190248076e+01  9.9126860641061455e+01  9.9137528551066936e+01  9.9082167581058030e+01  9.6690416178647325e+01  9.9010912964585927e+01  9.9071136701608410e+01  9.6476322874906884e+01  9.6666919479945108e+01  9.6865846694911198e+01  9.6858276543529144e+01  9.9118355667739635e+01  9.9120479537582554e+01  9.9064544767140163e+01  9.6659103860028210e+01  9.9001868915986705e+01  9.9062351594120827e+01  9.6444089597151958e+01  9.6452132668717468e+01  9.6219677297111218e+01  9.6476322874106060e+01  9.9010912964294619e+01  9.9004125913375518e+01  9.6666919479831478e+01  9.6865846694604500e+01  9.6888592189488932e+01  9.9126860640852911e+01  9.9120479537493694e+01  9.9064544767059076e+01  9.6690416177980325e+01  9.9071136701386749e+01  9.9022282363860995e+01  9.6926616800776713e+01  9.9137528550695919e+01  9.9082167580683759e+01  7.5019116074080912e+01  7.4843031435435250e+01  7.3747627688898376e+01  7.2333591671128602e+01  7.4784466245099082e+01  7.3462863708240832e+01  7.7572714458880839e+01  7.7405774420538023e+01  7.6156894407974477e+01  7.5097614048938311e+01  7.7350201677853789e+01  7.6099737331978005e+01  7.2743041151766832e+01  7.5037786082717290e+01  7.3686352485828465e+01  7.3747627686966709e+01  7.2806655019300010e+01  7.2333591667328335e+01  7.2997907301854369e+01  7.3931839402060945e+01  7.4843031432572317e+01  7.5097614049502425e+01  7.6156894408491624e+01  7.7405774421726647e+01  7.7572714453126906e+01  7.6328654910144365e+01  7.5277380956788463e+01  7.7851627408092611e+01  7.6095067383494452e+01  7.4757708758721591e+01  7.6039567176465098e+01  7.4701048859137956e+01  7.8567336967455958e+01  7.7364244273994188e+01  7.8514720207268368e+01  7.7310104230164214e+01  7.6095067383499753e+01  7.4757708758627359e+01  7.7364244276934514e+01  7.8567336971267594e+01  7.8725392078042859e+01  7.7526934846363844e+01  7.8989483487890652e+01  8.0263764355800390e+01  7.5683770393076514e+01  7.5502154476184899e+01  7.4759082645450547e+01  7.3418249019226820e+01  7.5441693673748418e+01  7.4185300478950040e+01  7.4123163796557563e+01  7.3354153285919452e+01  7.8122003023331516e+01  7.7951728107899385e+01  7.7259760976313103e+01  7.6039576425397783e+01  7.7895003550634826e+01  7.6757464105596824e+01  7.6698817225709846e+01  7.9085590732164832e+01  7.9249856337892425e+01  7.8419902128766651e+01  8.0317914365168548e+01  8.0159745425444314e+01  8.0107024781731766e+01  7.9030849043254975e+01  7.9164214546071335e+01  8.0561458883302251e+01  8.0718560888783600e+01  8.0219723420462131e+01  8.1215881530632061e+01  8.1543489040566286e+01  8.1694382765067644e+01  8.2277399659448918e+01  8.2131379884629396e+01  8.2082687542576011e+01  7.9683721694205175e+01  8.1174839194771792e+01  8.1326899102427646e+01  8.1124140525100586e+01  8.2466493902192283e+01  8.2611304596637694e+01  8.2152604158088891e+01  8.3029517326276405e+01  8.3330197204278434e+01  8.3469118432817339e+01  8.4003929674067919e+01  8.3869545608337461e+01  8.3824717923234161e+01  8.3029638327000541e+01  8.3169744489543447e+01  8.2982907275543340e+01  8.4133896342731674e+01  8.4267171040175924e+01  8.3845798942726532e+01  8.4600064968097271e+01  8.4876296059439539e+01  8.5004227183678225e+01  8.5495340719416475e+01  8.5371625931928733e+01  8.5330346123028775e+01  8.4650577722815143e+01  8.4779478951844993e+01  8.4607570960543242e+01  8.5555374266441575e+01  8.6030844563933528e+01  8.5991175023636828e+01  8.6587283327717969e+01  7.4185300480788854e+01  7.3418249020313098e+01  8.1065936943344497e+01  8.1319319549828037e+01  8.0293088802337863e+01  8.1926463463581285e+01  8.2506409694478009e+01  8.2168127569826169e+01  8.1179448342700553e+01  8.0029725535240289e+01  7.9870839906777206e+01  8.0928186963774223e+01  7.8933921287587211e+01  8.2043596348300653e+01  8.2287023433059744e+01  8.1580199926173051e+01  8.2963551215040908e+01  8.3750982557724569e+01  8.3099122409145210e+01  8.2867020031334420e+01  7.6384106262979358e+01  7.6325913544190939e+01  7.8770152845997430e+01  7.7607955125370452e+01  7.8715593345760880e+01  7.9662481908933202e+01  7.9714547038546812e+01  7.8591145144000848e+01  7.7551528432034502e+01  7.8537279514102210e+01  7.9871784519272808e+01  8.0913900579580186e+01  8.0863221855287435e+01  8.1733128558693551e+01  8.1781459980209888e+01  8.0777505398051943e+01  7.9819148432214106e+01  8.0727292323901651e+01  8.1897469781387713e+01  8.2823262453004162e+01  8.2776479310888050e+01  8.3572663384874033e+01  8.3617255862393193e+01  8.2727692199903174e+01  8.1848747520362025e+01  8.2681239681242019e+01  8.3691793784842659e+01  8.4503202221043381e+01  8.4460150223662353e+01  8.5187970075868662e+01  8.3826371869383635e+01  8.4632258326283377e+01  8.5351951236266558e+01  8.5228987763240383e+01  8.4450900078713858e+01  8.4579152849628827e+01  8.3646904963711151e+01  8.4408123329409648e+01  8.5257169704590893e+01  8.5952777352917735e+01  8.5913146467851988e+01  8.6579682068918800e+01  8.5380938071428417e+01  8.6071546357850607e+01  8.6730545723504676e+01  8.6617426336147744e+01  8.5951399903430030e+01  8.6069302071738989e+01  8.5215874111276904e+01  8.5912063338723300e+01  8.6588385222953661e+01  8.6149715165544805e+01  8.6739898828338042e+01  8.7161442580033906e+01  8.6625472040022444e+01  8.7124789687192063e+01  8.7738810119249052e+01  8.6702486965745067e+01  8.7271264381098931e+01  8.7878273602755357e+01  8.7773707754818204e+01  8.7225633620342904e+01  8.7334290310629157e+01  8.6550306034032005e+01  8.7189372958114021e+01  8.7668302802767258e+01  8.7774282341254462e+01  8.8258261456687691e+01  8.8359156206037923e+01  8.8772305501039952e+01  8.8674600099916887e+01  8.8641986887210891e+01  8.7151615383867025e+01  8.7632927978512598e+01  8.7114753887976832e+01  8.7568285791796654e+01  8.8069695725183919e+01  8.8224584858298968e+01  7.6384106265685674e+01  7.7607955128146116e+01  7.8770152845926177e+01  7.9714547040174111e+01  7.9870839910128083e+01  7.8591145147502360e+01  7.8752888255844752e+01  7.7777373273368141e+01  7.9871784519757867e+01  8.0913900579385356e+01  8.1781459981770425e+01  8.1926463463582408e+01  8.0777505399294540e+01  8.0928186963342739e+01  8.1897469784297172e+01  8.2823262455213850e+01  8.3617255865456968e+01  8.3750982562520349e+01  8.2727692201871463e+01  8.2867020033955640e+01  8.4503202228309277e+01  8.3869545618549182e+01  8.3691793789467383e+01  8.4003929697318952e+01  8.4632258341879563e+01  8.5351951247628207e+01  8.5228987769187555e+01  8.4450900082844413e+01  8.4579152855510543e+01  8.5495340746080913e+01  8.6071546378389669e+01  8.5952777361318780e+01  8.5257169710161861e+01  8.6730545741135089e+01  8.6617426344387852e+01  8.5951399910545874e+01  8.5380938088911122e+01  8.6069302086771131e+01  8.7161442593494783e+01  8.6625472058232404e+01  8.6588385232990490e+01  8.6739898865351535e+01  8.7271264408524701e+01  8.7878273626304960e+01  8.7773707766286179e+01  8.7225633630093654e+01  8.6702486989692616e+01  8.6149715196037619e+01  8.7334290331225674e+01  8.8103957092627198e+01  8.7603990628633383e+01  8.7668302817227286e+01  8.7710958019724799e+01  8.8206597819526110e+01  8.8772305530333739e+01  8.8674600114926903e+01  8.8258261469951719e+01  8.7774282371138796e+01  8.7262051490970691e+01  8.8359156232430394e+01  8.8223362518489907e+01  8.8732987336450833e+01  8.8257378314813579e+01  8.8461749089890020e+01  8.8359274950996934e+01  8.8830748598108556e+01  8.9368569352219993e+01  8.8428408705954524e+01  8.7940858295716538e+01  8.8700351652056966e+01  8.9244462429714659e+01  8.9275523581065897e+01  8.9016433621338507e+01  8.8984699800818433e+01  8.8561621207333616e+01  8.9111495055076333e+01  8.8468273771107704e+01  8.8968097800768263e+01  8.8501652284310367e+01  8.8906507505498411e+01  8.8601637228330006e+01  8.9064019688737801e+01  8.9591359281459944e+01  8.8874322932933055e+01  8.8404110305176687e+01  8.8936075207484279e+01  8.9469593703165373e+01  8.9500069488711944e+01  8.9441248465773953e+01  8.9410617881545406e+01  8.9002910889885641e+01  8.9532997784688874e+01  7.9022927271645401e+01  7.8060219621612532e+01  8.0131604504790772e+01  8.0497214680354986e+01  7.9401900277422158e+01  8.6269076884789357e+01  8.5586837922208304e+01  8.6918679402171591e+01  8.7181221649873748e+01  8.6265442231248301e+01  8.5556566284340875e+01  8.5842333530924790e+01  8.6539256224187923e+01  8.6892216423678789e+01  8.7453839216691762e+01  8.8052109819031173e+01  8.8294552135522892e+01  8.7514964740783910e+01  8.7767013294151539e+01  8.7950443048623001e+01  8.8377182047152061e+01  8.8934686918072558e+01  8.9161051347152579e+01  8.8526864060896045e+01  8.8760699937460018e+01  8.8993190661976541e+01  8.8727587797389631e+01  8.9523175963695479e+01  8.9738638498565379e+01  8.9269466807679564e+01  8.9489644912922131e+01  8.9223393113108585e+01  8.8767759950038609e+01  8.9163090474441304e+01  8.8999245255070861e+01  8.9445473514525290e+01  8.9954393251984357e+01  8.9743036188992178e+01  8.9685444497535499e+01  8.9386297929629620e+01  8.9897877434528468e+01  8.9729204900685573e+01  8.9294990269166405e+01  8.9671482242268411e+01  9.0224425288488590e+01  9.0551833823357640e+01  9.0169296808375051e+01  9.0013955364042047e+01  9.0347828262594675e+01  9.0498399725071394e+01  8.3125998786517798e+01  8.2181268628200598e+01  8.2897519920994071e+01  8.3976364948225736e+01  8.3445834848608328e+01  8.4489631601947210e+01  8.4190232479906385e+01  8.3296155410170257e+01  8.1943637648802536e+01  8.2114238850288302e+01  8.3073645059210818e+01  8.0931613913512294e+01  8.4284965776191470e+01  8.4847642721847322e+01  8.3973659739566386e+01  8.4014298228112082e+01  8.4637237762180234e+01  8.5619183957541111e+01  8.5141798147347643e+01  8.6091204373259885e+01  8.5816014837183332e+01  8.5029615954058627e+01  8.5316789663874502e+01  8.3794926493376337e+01  8.4824337792430569e+01  8.6550750754089663e+01  8.6814302070726583e+01  8.5627160899185370e+01  8.7487064984412967e+01  8.7234706353194952e+01  8.7054020219733331e+01  8.4792641153485917e+01  8.5425490063714520e+01  8.6160304931314144e+01  8.6362140207375631e+01  8.0783755848273856e+01  7.9706482894900091e+01  8.0734498927092375e+01  8.1929606071818597e+01  8.1975741611261796e+01  8.0952470714566374e+01  8.1095909256842162e+01  7.9655503591340576e+01  8.0904703728615274e+01  8.1801137971139781e+01  8.2760434671874037e+01  8.2714740968215082e+01  8.3805280034767222e+01  8.3848048564178058e+01  8.2940215387954851e+01  8.1753650150988520e+01  8.2895753065892450e+01  8.3663246168934450e+01  8.4510885886194245e+01  8.4468751228773300e+01  8.5461570332376638e+01  8.5500984551266370e+01  8.4701118541811496e+01  8.3619342127164472e+01  8.4660037820256889e+01  8.5304340534460977e+01  8.6044178407734094e+01  8.6005440142071919e