<?xml version="1.0"?>
<VTKFile type="UnstructuredGrid"  version="0.1"  >
<UnstructuredGrid>
<Piece  NumberOfPoints="3786" NumberOfCells="18490">
<Points>
<DataArray  type="Float64"  NumberOfComponents="3"  format="ascii">25 30 15  25 30 16.25  25 28.75 16.25  23.75 28.75 16.25  25 30 17.5  25 28.75 17.5  37.5 27.5 2.5  37.5 27.5 3.75  37.5 26.25 3.75  36.25 26.25 3.75  37.5 27.5 5  35 27.5 2.5  36.25 27.5 3.75  36.25 27.5 2.5  35 27.5 3.75  35 27.5 5  36.25 27.5 5  38.75 27.5 3.75  38.75 27.5 2.5  38.75 26.25 3.75  40 27.5 2.5  40 27.5 3.75  40 27.5 5  38.75 27.5 5  38.75 26.25 5  36.25 27.5 6.25  36.25 26.25 6.25  37.5 27.5 6.25  37.5 27.5 7.5  35 27.5 6.25  35 27.5 7.5  36.25 27.5 7.5  38.75 27.5 6.25  38.75 26.25 6.25  40 27.5 6.25  40 27.5 7.5  38.75 27.5 7.5  32.5 27.5 7.5  33.75 27.5 8.75  33.75 27.5 7.5  33.75 26.25 8.75  35 27.5 8.75  35 27.5 10  32.5 27.5 10  33.75 27.5 10  33.75 26.25 10  32.5 27.5 8.75  38.75 27.5 8.75  38.75 26.25 8.75  40 27.5 8.75  40 27.5 10  37.5 27.5 8.75  37.5 27.5 10  38.75 27.5 10  30 27.5 10  31.25 27.5 11.25  31.25 27.5 10  31.25 26.25 11.25  32.5 27.5 11.25  32.5 27.5 12.5  30 27.5 12.5  31.25 27.5 12.5  31.25 26.25 12.5  30 27.5 11.25  35 27.5 11.25  35 26.25 11.25  33.75 26.25 11.25  35 27.5 12.5  33.75 27.5 11.25  33.75 27.5 12.5  36.25 27.5 11.25  36.25 27.5 10  36.25 26.25 11.25  37.5 27.5 11.25  37.5 27.5 12.5  36.25 27.5 12.5  40 27.5 12.5  40 26.25 12.5  38.75 26.25 12.5  38.75 26.25 11.25  38.75 27.5 11.25  40 27.5 11.25  38.75 27.5 12.5  32.5 27.5 13.75  32.5 26.25 13.75  31.25 26.25 13.75  32.5 27.5 15  31.25 27.5 13.75  30 27.5 13.75  30 27.5 15  31.25 27.5 15  35 27.5 13.75  35 26.25 13.75  33.75 26.25 13.75  35 27.5 15  35 26.25 15  33.75 26.25 15  33.75 27.5 13.75  33.75 27.5 15  37.5 27.5 13.75  37.5 26.25 13.75  36.25 26.25 13.75  37.5 27.5 15  37.5 25 15  37.5 26.25 15  36.25 26.25 15  36.25 27.5 13.75  36.25 27.5 15  40 27.5 13.75  40 26.25 13.75  38.75 26.25 13.75  40 27.5 15  40 25 15  40 26.25 15  38.75 26.25 15  38.75 25 15  38.75 27.5 13.75  38.75 27.5 15  32.5 27.5 16.25  32.5 26.25 16.25  31.25 26.25 16.25  32.5 27.5 17.5  32.5 25 17.5  32.5 26.25 17.5  31.25 26.25 17.5  31.25 27.5 16.25  30 27.5 17.5  31.25 27.5 17.5  30 27.5 16.25  35 27.5 16.25  35 26.25 16.25  33.75 26.25 16.25  35 27.5 17.5  35 25 17.5  35 26.25 17.5  33.75 26.25 17.5  33.75 25 17.5  33.75 27.5 16.25  33.75 27.5 17.5  37.5 26.25 16.25  36.25 26.25 16.25  37.5 27.5 16.25  37.5 27.5 17.5  37.5 25 16.25  37.5 25 17.5  37.5 26.25 17.5  36.25 26.25 17.5  36.25 27.5 16.25  36.25 27.5 17.5  38.75 26.25 16.25  40 26.25 16.25  40 27.5 16.25  40 27.5 17.5  40 25 16.25  40 25 17.5  40 26.25 17.5  38.75 26.25 17.5  38.75 25 17.5  38.75 27.5 16.25  38.75 27.5 17.5  32.5 26.25 18.75  31.25 26.25 18.75  33.75 26.25 18.75  35 26.25 18.75  35 27.5 18.75  35 27.5 20  35 25 18.75  35 25 20  35 26.25 20  33.75 26.25 20  33.75 27.5 18.75  37.5 26.25 18.75  36.25 26.25 18.75  37.5 27.5 18.75  37.5 27.5 20  37.5 25 18.75  37.5 25 20  37.5 26.25 20  36.25 26.25 20  36.25 25 20  36.25 27.5 18.75  36.25 27.5 20  38.75 26.25 18.75  38.75 27.5 18.75  40 27.5 18.75  40 27.5 20  35 26.25 21.25  33.75 26.25 21.25  36.25 26.25 21.25  42.5 27.5 0  42.5 27.5 1.25  42.5 26.25 1.25  41.25 26.25 1.25  42.5 26.25 0  41.25 26.25 0  42.5 27.5 2.5  42.5 26.25 2.5  41.25 26.25 2.5  40 27.5 0  41.25 27.5 1.25  41.25 27.5 0  41.25 27.5 2.5  40 27.5 1.25  45 25 0  45 26.25 1.25  45 26.25 0  43.75 26.25 1.25  43.75 26.25 0  45 27.5 0  45 27.5 1.25  45 27.5 2.5  45 25 1.25  45 25 2.5  45 26.25 2.5  43.75 26.25 2.5  43.75 27.5 1.25  43.75 27.5 0  43.75 27.5 2.5  47.5 25 0  47.5 26.25 1.25  47.5 26.25 0  46.25 26.25 1.25  46.25 26.25 0  47.5 27.5 0  47.5 27.5 1.25  47.5 27.5 2.5  47.5 25 2.5  47.5 26.25 2.5  46.25 26.25 2.5  46.25 27.5 1.25  46.25 27.5 0  46.25 27.5 2.5  50 27.5 0  50 27.5 1.25  50 26.25 1.25  48.75 26.25 1.25  50 27.5 2.5  50 25 2.5  50 26.25 2.5  48.75 26.25 2.5  48.75 26.25 0  48.75 27.5 1.25  48.75 27.5 0  48.75 27.5 2.5  46.25 28.75 1.25  46.25 28.75 0  47.5 28.75 1.25  47.5 28.75 0  47.5 30 0  47.5 30 1.25  47.5 30 2.5  47.5 28.75 2.5  46.25 28.75 2.5  48.75 28.75 1.25  48.75 28.75 0  50 28.75 1.25  50 28.75 0  50 30 0  50 30 1.25  50 30 2.5  50 28.75 2.5  48.75 28.75 2.5  48.75 30 1.25  48.75 30 0  48.75 30 2.5  40 26.25 3.75  40 26.25 5  42.5 27.5 3.75  42.5 26.25 3.75  41.25 26.25 3.75  42.5 27.5 5  42.5 25 5  42.5 26.25 5  41.25 26.25 5  41.25 27.5 3.75  41.25 27.5 5  45 26.25 3.75  43.75 26.25 3.75  45 27.5 3.75  45 27.5 5  45 25 5  45 26.25 5  43.75 26.25 5  43.75 25 5  43.75 27.5 3.75  43.75 27.5 5  47.5 26.25 3.75  46.25 26.25 3.75  47.5 27.5 3.75  47.5 27.5 5  47.5 25 5  47.5 26.25 5  46.25 26.25 5  46.25 27.5 3.75  46.25 27.5 5  50 26.25 3.75  48.75 26.25 3.75  50 27.5 3.75  50 27.5 5  50 25 3.75  50 25 5  50 26.25 5  48.75 26.25 5  48.75 27.5 3.75  48.75 27.5 5  48.75 28.75 3.75  50 28.75 3.75  50 30 3.75  50 30 5  50 28.75 5  48.75 28.75 5  48.75 30 3.75  40 26.25 6.25  42.5 26.25 6.25  41.25 26.25 6.25  42.5 27.5 6.25  42.5 27.5 7.5  42.5 25 6.25  42.5 25 7.5  42.5 26.25 7.5  41.25 26.25 7.5  41.25 27.5 6.25  41.25 27.5 7.5  43.75 26.25 6.25  45 26.25 6.25  45 27.5 6.25  45 27.5 7.5  45 25 6.25  45 25 7.5  45 26.25 7.5  43.75 26.25 7.5  43.75 25 7.5  43.75 27.5 6.25  43.75 27.5 7.5  47.5 26.25 6.25  46.25 26.25 6.25  47.5 27.5 6.25  47.5 27.5 7.5  47.5 25 7.5  47.5 26.25 7.5  46.25 26.25 7.5  46.25 25 7.5  46.25 27.5 6.25  46.25 27.5 7.5  50 26.25 6.25  48.75 26.25 6.25  50 27.5 6.25  50 27.5 7.5  50 25 7.5  50 26.25 7.5  48.75 26.25 7.5  48.75 25 7.5  48.75 27.5 6.25  48.75 27.5 7.5  46.25 25 8.75  46.25 23.75 8.75  47.5 25 8.75  47.5 25 10  45 25 10  46.25 25 10  46.25 23.75 10  45 25 8.75  42.5 26.25 8.75  41.25 26.25 8.75  42.5 27.5 8.75  42.5 27.5 10  42.5 26.25 10  41.25 26.25 10  41.25 27.5 8.75  41.25 27.5 10  43.75 26.25 8.75  45 26.25 8.75  45 27.5 8.75  45 27.5 10  45 26.25 10  43.75 26.25 10  43.75 27.5 8.75  43.75 27.5 10  46.25 26.25 8.75  47.5 26.25 8.75  47.5 27.5 8.75  47.5 27.5 10  47.5 26.25 10  46.25 26.25 10  46.25 27.5 8.75  46.25 27.5 10  48.75 26.25 8.75  50 26.25 8.75  50 27.5 8.75  50 27.5 10  50 25 10  50 26.25 10  48.75 26.25 10  48.75 25 10  48.75 27.5 8.75  48.75 27.5 10  46.25 25 11.25  46.25 23.75 11.25  47.5 25 11.25  47.5 25 12.5  45 25 11.25  45 25 12.5  46.25 25 12.5  48.75 25 11.25  48.75 23.75 11.25  50 25 11.25  50 25 12.5  48.75 25 12.5  48.75 23.75 12.5  40 26.25 11.25  42.5 27.5 11.25  42.5 26.25 11.25  41.25 26.25 11.25  42.5 27.5 12.5  42.5 25 12.5  42.5 26.25 12.5  41.25 26.25 12.5  41.25 27.5 11.25  41.25 27.5 12.5  45 26.25 11.25  43.75 26.25 11.25  45 27.5 11.25  45 27.5 12.5  45 26.25 12.5  43.75 26.25 12.5  43.75 27.5 11.25  43.75 27.5 12.5  46.25 26.25 11.25  47.5 26.25 11.25  47.5 27.5 11.25  47.5 27.5 12.5  47.5 26.25 12.5  46.25 26.25 12.5  46.25 27.5 11.25  46.25 27.5 12.5  48.75 26.25 11.25  50 26.25 11.25  50 27.5 11.25  50 27.5 12.5  50 26.25 12.5  48.75 26.25 12.5  48.75 27.5 11.25  48.75 27.5 12.5  47.5 25 13.75  47.5 23.75 13.75  46.25 23.75 13.75  47.5 25 15  46.25 25 13.75  45 25 15  46.25 25 15  46.25 23.75 15  45 25 13.75  48.75 25 13.75  48.75 23.75 13.75  50 25 13.75  50 25 15  48.75 25 15  48.75 23.75 15  42.5 26.25 13.75  41.25 26.25 13.75  42.5 27.5 13.75  42.5 27.5 15  42.5 25 15  42.5 26.25 15  41.25 26.25 15  41.25 25 15  41.25 27.5 13.75  41.25 27.5 15  45 26.25 13.75  43.75 26.25 13.75  45 27.5 13.75  45 27.5 15  45 26.25 15  43.75 26.25 15  43.75 25 15  43.75 27.5 13.75  43.75 27.5 15  46.25 26.25 13.75  47.5 26.25 13.75  47.5 27.5 13.75  47.5 27.5 15  47.5 26.25 15  46.25 26.25 15  46.25 27.5 13.75  46.25 27.5 15  48.75 26.25 13.75  50 26.25 13.75  50 27.5 13.75  50 27.5 15  50 26.25 15  48.75 26.25 15  48.75 27.5 13.75  48.75 27.5 15  42.5 25 16.25  42.5 23.75 16.25  41.25 23.75 16.25  42.5 25 17.5  42.5 22.5 17.5  42.5 23.75 17.5  41.25 23.75 17.5  41.25 25 16.25  41.25 25 17.5  45 25 16.25  45 23.75 16.25  43.75 23.75 16.25  45 25 17.5  45 22.5 17.5  45 23.75 17.5  43.75 23.75 17.5  43.75 25 16.25  43.75 25 17.5  47.5 25 16.25  47.5 23.75 16.25  46.25 23.75 16.25  47.5 25 17.5  46.25 25 16.25  46.25 23.75 17.5  46.25 25 17.5  48.75 25 16.25  48.75 23.75 16.25  50 25 16.25  50 25 17.5  48.75 25 17.5  48.75 23.75 17.5  41.25 26.25 16.25  42.5 26.25 16.25  42.5 27.5 16.25  42.5 27.5 17.5  42.5 26.25 17.5  41.25 26.25 17.5  41.25 27.5 16.25  41.25 27.5 17.5  43.75 26.25 16.25  45 26.25 16.25  45 27.5 16.25  45 27.5 17.5  45 26.25 17.5  43.75 26.25 17.5  43.75 27.5 16.25  43.75 27.5 17.5  46.25 26.25 16.25  47.5 26.25 16.25  47.5 27.5 16.25  47.5 27.5 17.5  47.5 26.25 17.5  46.25 26.25 17.5  46.25 27.5 16.25  46.25 27.5 17.5  48.75 26.25 16.25  50 26.25 16.25  50 27.5 16.25  50 27.5 17.5  50 26.25 17.5  48.75 26.25 17.5  48.75 27.5 16.25  48.75 27.5 17.5  42.5 23.75 18.75  41.25 23.75 18.75  42.5 25 18.75  42.5 25 20  42.5 22.5 18.75  42.5 22.5 20  42.5 23.75 20  41.25 25 18.75  45 23.75 18.75  43.75 23.75 18.75  45 25 18.75  45 25 20  45 22.5 20  45 23.75 20  43.75 23.75 20  43.75 25 18.75  43.75 25 20  47.5 25 18.75  47.5 23.75 18.75  46.25 23.75 18.75  47.5 25 20  47.5 22.5 20  47.5 23.75 20  46.25 23.75 20  46.25 25 18.75  46.25 25 20  50 25 18.75  50 23.75 18.75  48.75 23.75 18.75  50 25 20  48.75 25 18.75  48.75 25 20  41.25 26.25 18.75  42.5 26.25 18.75  42.5 27.5 18.75  42.5 27.5 20  42.5 26.25 20  41.25 27.5 18.75  43.75 26.25 18.75  45 26.25 18.75  45 27.5 18.75  45 27.5 20  45 26.25 20  43.75 26.25 20  43.75 27.5 18.75  43.75 27.5 20  46.25 26.25 18.75  47.5 26.25 18.75  47.5 27.5 18.75  47.5 27.5 20  47.5 26.25 20  46.25 26.25 20  46.25 27.5 18.75  46.25 27.5 20  48.75 26.25 18.75  50 26.25 18.75  50 27.5 18.75  50 27.5 20  50 26.25 20  48.75 26.25 20  48.75 27.5 18.75  48.75 27.5 20  45 23.75 21.25  43.75 23.75 21.25  46.25 23.75 21.25  43.75 26.25 21.25  43.75 27.5 21.25  46.25 26.25 21.25  47.5 26.25 21.25  47.5 27.5 21.25  46.25 27.5 21.25  48.75 26.25 21.25  50 26.25 21.25  50 27.5 21.25  50 27.
[...]
<PointData  Scalars="p_O2"> 
<DataArray  type="Float64"  Name="p_O2"  format="ascii">7.5728903702056115e+01  7.4674289993213435e+01  7.4240123558474508e+01  7.2836444783537459e+01  7.3768613471495399e+01  7.3317939847536095e+01  9.6645658369762799e+01  9.5273817406673714e+01  9.5234284545904018e+01  9.4970076709178258e+01  9.3935087216291222e+01  9.6256991031031873e+01  9.5011387414719195e+01  9.6458877752460069e+01  9.4727861556967127e+01  9.3237281478712447e+01  9.3599562217493528e+01  9.5515710351270940e+01  9.6817754248857497e+01  9.5477868579156436e+01  9.6975375899345195e+01  9.5737333256173216e+01  9.4528136834864341e+01  9.4244513596532528e+01  9.4195933864239635e+01  9.2232976017047307e+01  9.2168611767164094e+01  9.2638414521621115e+01  9.1392160274347361e+01  9.1795521197623643e+01  9.0412071973453237e+01  9.0920526970848201e+01  9.3012549910791790e+01  9.2953556511006454e+01  9.3355669508716673e+01  9.2227363344976894e+01  9.1827690798099127e+01  8.9279641416699306e+01  8.8478444973800137e+01  8.9865634794698209e+01  8.8385116837553298e+01  8.9095539970760072e+01  8.7853586887863543e+01  8.6441655860220578e+01  8.7171402066599001e+01  8.7067406109704834e+01  8.7817474750421979e+01  9.0697218885560176e+01  9.0618628266063965e+01  9.1150127066788087e+01  9.0130300984093552e+01  9.0204012358403247e+01  8.9080933750941625e+01  8.9627773126061214e+01  8.4831311695163748e+01  8.4314770445951638e+01  8.5662403901729022e+01  8.4191270184881589e+01  8.5159319194529971e+01  8.3976364968059215e+01  8.2114238877443157e+01  8.3073645084219365e+01  8.2940215411410406e+01  8.3415603432467435e+01  8.6692894856954936e+01  8.6583594048562631e+01  8.5837449410632090e+01  8.5619183965947400e+01  8.5951424835198608e+01  8.4824337807148510e+01  8.7385138959260146e+01  8.8489735580529754e+01  8.7280392795308870e+01  8.8029123657103767e+01  8.7054020219807427e+01  8.6362140212593189e+01  8.8285197693631460e+01  8.8185390979833699e+01  8.7591063252982892e+01  8.8529154413678114e+01  8.8625317708197585e+01  8.9173617990931973e+01  8.7695129937062390e+01  8.2897519942842976e+01  8.2760434690702539e+01  8.1801137995345385e+01  8.1926463484719221e+01  8.1943637674691004e+01  8.0931613943214927e+01  7.9870839936059383e+01  8.0928186988463750e+01  8.4637237774833807e+01  8.4510885893663499e+01  8.3663246181464615e+01  8.3750982572742615e+01  8.3617255870048737e+01  8.2727692213129345e+01  8.3794926510829370e+01  8.2867020050473101e+01  8.6160304932969723e+01  8.6044178399071853e+01  8.5304340531412720e+01  8.5351951240442659e+01  8.5187970064676605e+01  8.5228987757704502e+01  8.4450900076294232e+01  8.5425490071199619e+01  8.4579152859459327e+01  8.7469538449557547e+01  8.7362750978627062e+01  8.6730485975258489e+01  8.6730545714846130e+01  8.6579682034586327e+01  8.6617426315232848e+01  8.5951399890160516e+01  8.5912063314958374e+01  8.6841809520613566e+01  8.6069302069445740e+01  8.1065936966182335e+01  8.0913900597720854e+01  7.9871784541428582e+01  8.0317914389662846e+01  8.0107024801870253e+01  8.0159745449939990e+01  7.9085590750721892e+01  8.0029725559361651e+01  7.8122003042829874e+01  7.9249856356964045e+01  7.8933921313419916e+01  8.2963551232207109e+01  8.2823262462464612e+01  8.1897469795902424e+01  8.2277399678425581e+01  8.2082687549874322e+01  8.2131379896167473e+01  8.1174839209579602e+01  8.1124140536479246e+01  8.2043596368984041e+01  8.1326899122344230e+01  8.4503202217787148e+01  8.3691793786779272e+01  8.4632258333266208e+01  8.4003929683452327e+01  8.4460150212519991e+01  8.3824717912911368e+01  8.3869545606887456e+01  8.3029638330260227e+01  8.3826371882042324e+01  8.3169744504413615e+01  8.5257169692957149e+01  8.5952777334550817e+01  8.6071546353320699e+01  8.5495340717860913e+01  8.5913146436649939e+01  8.5330346092471572e+01  8.5371625914449893e+01  8.4650577713235947e+01  8.4607570938807982e+01  8.5380938072531507e+01  8.4779478955359664e+01  7.9520345587346242e+01  7.8419902150601672e+01  8.0561458893496379e+01  8.1543489055158858e+01  8.1694382784734415e+01  8.1215881553344744e+01  8.1493168549560849e+01  8.1009323591812858e+01  8.1060978669981878e+01  8.0058476192035073e+01  8.0718560904586795e+01  8.3330197202990192e+01  8.2466493909478203e+01  8.3469118444421923e+01  8.3029517342352520e+01  8.3283853735037127e+01  8.2839272676236689e+01  8.2886860349282017e+01  8.2003921636402282e+01  8.1954329362726597e+01  8.2611304613230160e+01  8.2152604178482036e+01  8.4133896333698686e+01  8.4267171041124158e+01  8.5004227185432455e+01  8.4600064978750353e+01  8.0684839305682203e+01  7.9666673749253121e+01  8.1643089632532579e+01  9.9549260195285370e+01  9.8392731541425533e+01  9.8378891260178420e+01  9.8303293143912285e+01  9.9545378795819076e+01  9.9524166442169516e+01  9.7246869673242585e+01  9.7223160827007291e+01  9.7093836459157444e+01  9.9504723078448421e+01  9.8317694251988854e+01  9.9528205016076456e+01  9.7118504907414660e+01  9.8234012684373084e+01  9.9578845531403957e+01  9.8502476005205722e+01  9.9580053195651487e+01  9.8445462031622057e+01  9.9564057041709773e+01  9.9583671963600054e+01  9.8515380036619064e+01  9.7456720338679659e+01  9.8498168747463041e+01  9.7427234757303268e+01  9.7434613723927228e+01  9.7337057257942291e+01  9.8458800782384955e+01  9.9567797539663488e+01  9.7359907847427110e+01  9.9601914736811011e+01  9.8584492774093178e+01  9.9603063166318108e+01  9.8549168697305348e+01  9.9593153027710898e+01  9.9606504315679686e+01  9.8596763499158328e+01  9.7595990579337453e+01  9.7567950015275599e+01  9.7574967943543641e+01  9.7514516022725672e+01  9.8561713203742741e+01  9.9596670668072832e+01  9.7536007274098310e+01  9.9615008024775150e+01  9.8627097229771337e+01  9.8615064670480621e+01  9.8607059906003485e+01  9.7647904424394937e+01  9.7620407482183694e+01  9.7627289510081212e+01  9.7613589535163598e+01  9.9609394251075017e+01  9.8619154760715986e+01  9.9612785637496629e+01  9.7634311203792507e+01  9.8582560175805824e+01  9.9602516650346175e+01  9.8617153451410118e+01  9.9612221773902917e+01  9.9620190594773959e+01  9.8645570411338127e+01  9.7679608251919248e+01  9.7630923409528734e+01  9.7571722313249325e+01  9.8639251612451829e+01  9.9618421298613555e+01  9.8647089667289592e+01  9.9620618688512820e+01  9.9628426710121047e+01  9.8674949558698941e+01  9.7729888213563314e+01  9.7682156926585336e+01  9.7668742310618299e+01  9.8667257423656324e+01  9.9626274373011199e+01  9.7716723487446714e+01  9.5701082369841870e+01  9.4481594199754170e+01  9.6119219680869861e+01  9.6085797031493186e+01  9.5903864250005967e+01  9.5017116382060777e+01  9.4959873037685867e+01  9.4974196809510730e+01  9.4741204064143943e+01  9.5938637266294336e+01  9.4785853721744161e+01  9.6383350698116814e+01  9.6246058648124659e+01  9.6414518163351786e+01  9.5395427509304938e+01  9.5342036755930636e+01  9.5355398158808327e+01  9.5179490195680359e+01  9.5165681520441638e+01  9.6278273331115798e+01  9.5220861773696186e+01  9.6580906087743273e+01  9.6495812707955650e+01  9.6610547566491036e+01  9.5646648499061300e+01  9.5595865608746692e+01  9.5608575430522734e+01  9.5499515948674798e+01  9.6526113891821936e+01  9.5538434802487956e+01  9.6654560328338121e+01  9.6635274372116399e+01  9.6683627732931569e+01  9.5740319611402370e+01  9.6644856587853937e+01  9.5690518036578823e+01  9.5702982526778541e+01  9.5678261507371431e+01  9.6664492144472064e+01  9.5715791277961472e+01  9.6713040029076268e+01  9.6731924213101976e+01  9.6799225940675967e+01  9.5888805140437185e+01  9.5802356405070626e+01  9.5778150515525823e+01  9.6780693645829018e+01  9.3299142183249145e+01  9.3895464594915651e+01  9.3613357036030095e+01  9.3947603621457475e+01  9.2917368366011516e+01  9.3878063696683071e+01  9.2835977947057927e+01  9.2856343972121763e+01  9.2527418071498758e+01  9.3667591851526865e+01  9.2590887506924005e+01  9.4144114349803957e+01  9.4357227617357410e+01  9.4405864231338128e+01  9.3451950659860017e+01  9.4340993048654141e+01  9.3376009190408652e+01  9.3395014076914052e+01  9.3146365941087126e+01  9.3126728243304200e+01  9.4194377637054828e+01  9.3205201317528477e+01  9.4664036053101128e+01  9.4531863275405399e+01  9.4710301320823120e+01  9.3807258458149306e+01  9.3735008044896219e+01  9.3753090702759579e+01  9.3598815974011529e+01  9.3580334026731819e+01  9.4579153804609788e+01  9.3654180943485756e+01  9.4778464183929927e+01  9.4748499861851712e+01  9.4823837096095502e+01  9.3939796189235565e+01  9.3868935160943806e+01  9.3886670465816167e+01  9.3851689146960013e+01  9.3833862171101543e+01  9.4794106488638462e+01  9.3905087656945341e+01  9.2684953087806889e+01  9.2706015056648141e+01  9.2860628929610670e+01  9.2030627870112838e+01  9.1577206999014138e+01  9.1835227929704061e+01  9.1858738937002940e+01  9.2452928221758128e+01  9.1863158658100659e+01  9.1490017136577407e+01  9.1932679562630298e+01  9.0999348486954375e+01  9.0921769025992617e+01  9.0507266089899943e+01  9.1562313445624071e+01  9.0587930743888634e+01  9.2192302472965977e+01  9.2474584347530282e+01  9.2539462974608853e+01  9.1673795330493277e+01  9.1601378922457016e+01  9.1287556962318732e+01  9.2259337692697912e+01  9.1362372242316283e+01  9.2706015060864374e+01  9.2881237085927310e+01  9.2942970110425421e+01  9.2122550222510142e+01  9.2053633966956482e+01  9.1858738946049144e+01  9.2769108270276178e+01  9.1929168839541603e+01  9.2993238167607984e+01  9.3032976254889221e+01  9.3093525109500632e+01  9.2290033539339476e+01  9.2199868293793955e+01  9.2222435099968536e+01  9.2178225923988990e+01  9.2155543108638554e+01  9.3054097129450128e+01  9.2246169307426229e+01  9.1036062795696836e+01  9.1061878200889922e+01  9.1249805186651329e+01  9.0522571194873819e+01  9.0753880395041080e+01  8.9987547104623147e+01  9.0291947483007974e+01  9.1386466921632419e+01  9.1411375668545645e+01  9.1434962438781781e+01  9.0722384334609998e+01  9.0670046401268337e+01  9.0697029331427686e+01  8.9081409233696945e+01  9.0122691284050291e+01  9.0037538800254694e+01  8.9584733250351434e+01  8.9307518021327056e+01  8.9184547915244238e+01  8.9215318388965571e+01  8.8727418419664318e+01  8.9673258300117624e+01  8.8823254690160340e+01  9.0780419033724527e+01  9.0437312705874291e+01  9.0859924608436586e+01  9.0102396246098436e+01  9.0016288948320692e+01  8.9646276589947149e+01  9.0519442311553462e+01  8.9735215341738112e+01  9.1061878211769468e+01  9.1275067876194456e+01  9.1350743591905569e+01  9.0631909305083653e+01  9.0549936055877907e+01  9.0319908922926970e+01  9.1139210231858669e+01  9.0403670205749407e+01  9.1411375678996251e+01  9.1459744361468069e+01  9.1533977672064580e+01  9.0829646156092480e+01  9.0749230102922510e+01  9.0697029347411146e+01  9.1485986672136292e+01  9.0777852954851696e+01  8.9852926538275952e+01  8.9882227911308604e+01  8.9636886626533837e+01  8.9244462357270663e+01  8.9606948478071104e+01  8.8641986822141803e+01  8.8984699733557690e+01  8.9016433541322385e+01  8.9282350910204002e+01  9.0010244359248446e+01  9.0039138045432352e+01  9.0066077835719327e+01  8.9469593621795809e+01  8.9410617805527707e+01  8.9441248369139799e+01  8.8459436647152202e+01  8.7939759997957282e+01  8.8558117787793648e+01  8.7878273582853055e+01  8.7738810068910524e+01  8.7773707719171384e+01  8.7225633591996797e+01  8.7189372916409411e+01  8.8042317255694854e+01  8.7334290296164113e+01  8.9313121755294063e+01  8.8918678322801810e+01  8.9405305923290427e+01  8.8772305472242920e+01  8.8674600053521146e+01  8.8258261414828183e+01  8.8224584800877267e+01  8.9013882408413053e+01  8.8359156181078106e+01  8.9636886638240782e+01  8.9882227928114617e+01  8.9970001481777345e+01  8.9368569284059916e+01  8.9275523510427490e+01  8.9016433554743102e+01  8.9726567947068389e+01  8.9111494991039564e+01  9.0039138065120042e+01  9.0094825299905338e+01  9.0180936951517467e+01  8.9591359210709967e+01  8.9500069414797593e+01  8.9441248392636737e+01  9.0125684812723435e+01  8.9532997714351325e+01  8.7124789642280945e+01  8.7161442532224200e+01  8.6588385182166149e+01  8.6587283290415073e+01  8.6739898797733815e+01  8.6625472001843008e+01  8.6030844529812271e+01  8.6550305996254934e+01  8.5991174989530236e+01  8.8069695668080385e+01  8.8103957018989220e+01  8.7668302752411890e+01  8.7568285741990849e+01  8.7710957940420869e+01  8.7603990558610164e+01  8.7151615337948712e+01  8.7632927927715684e+01  8.7114753845796457e+01  8.8700351584920710e+01  8.8732987250156540e+01  8.8461749009655449e+01  8.8223362453995833e+01  8.8428408643302546e+01  8.7975606267360604e+01  8.7940858237574659e+01  8.8874322863979700e+01  8.8906507419220816e+01  8.8936075134967552e+01  8.8468273707510008e+01  8.8404110243025386e+01  8.8437657367013401e+01  8.6588385199104138e+01  8.7161442550916860e+01  8.7271264368619100e+01  8.6739898826037461e+01  8.6625472018211880e+01  8.6030844544676995e+01  8.6702486957170933e+01  8.6149715162806757e+01  8.7668302768206047e+01  8.8103957036321958e+01  8.8206597765622917e+01  8.7710957969621504e+01  8.7603990576508764e+01  8.7151615358403262e+01  8.7774282324457218e+01  8.7262051448378656e+01  8.8461749027883087e+01  8.8732987270042429e+01  8.8830748533315273e+01  8.8359274889007580e+01  8.8257378253068026e+01  8.7975606286598747e+01  8.8561621148090069e+01  8.8079696719671645e+01  8.8906507438678929e+01  8.8968097733036274e+01  8.9064019622256239e+01  8.8601637166794035e+01  8.8501652222816617e+01  8.8437657387908018e+01  8.9002910824941267e+01  8.8538142554840434e+01  8.6168169913105146e+01  8.5555374237216895e+01  8.6128668479623485e+01  8.5750901897791223e+01  8.6286526068233499e+01  8.5913079250085005e+01  8.5791483316415935e+01  8.5514345704787004e+01  8.7177073819090538e+01  8.6710581143637512e+01  8.7140134853197523e+01  8.6787220881596511e+01  8.6938885573578531e+01  8.6825176167936277e+01  8.6347158073709480e+01  8.6672448717433141e+01  8.6307979512793835e+01  8.7815856279174852e+01  8.7851052035678833e+01  8.7560374426151512e+01  8.7479809226475197e+01  8.7624322244424562e+01  8.7515977535089291e+01  8.7218019293638889e+01  8.7524422820571246e+01  8.7181076080186102e+01  8.8068540200806964e+01  8.8103078302228255e+01  8.8037051212204716e+01  8.7738848543615163e+01  8.8002339255796173e+01  8.7670978662852292e+01  8.5555374250333045e+01  8.6168169930540884e+01  8.6286526100031750e+01  8.5913079284409605e+01  8.5791483339358706e+01  8.5678312252676861e+01  8.6710581165963745e+01  8.7177073839857954e+01  8.7287735809312295e+01  8.6938885604887858e+01  8.6825176183280689e+01  8.6347158101238293e+01  8.6824821370891641e+01  8.6464535579771976e+01  8.7560374452126922e+01  8.7851052060012535e+01  8.7956481884730835e+01  8.7624322284790651e+01  8.7515977561341913e+01  8.7218019315913992e+01  8.7668067981662873e+01  8.7328685253770132e+01  8.8037051238434444e+01  8.8103078326071056e+01  8.8206535091697731e+01  8.7880663982774038e+01  8.7774342426023722e+01  8.7706651098496607e+01  8.8141024440399462e+01  8.7813502003946240e+01  8.6549876666446991e+01  8.6062918145053828e+01  8.6950130756687940e+01  8.6062918169067402e+01  8.6182748505009002e+01  8.6950130775520918e+01  8.7253741910349603e+01  8.7364367534957239e+01  8.7063122005767468e+01  8.7448049530632417e+01  8.7517031612750372e+01  8.7625594982599154e+01  8.7442546118986485e+01  8.7480788629903969e+01  8.7295593137798960e+01  8.7332372843043004e+01  8.7557152640609587e+01  9.9406806993795882e+01  9.7885215556017044e+01  9.7843550278071618e+01  9.7717488725985802e+01  9.6379359014441789e+01  9.6308012052834727e+01  9.6092682127565226e+01  9.9334366189871403e+01  9.7761054271862946e+01  9.9371946091457261e+01  9.9359726624044796e+01  9.5938781870440579e+01  9.6167276584382563e+01  9.7627231035770976e+01  9.9468929731284689e+01  9.8106519542324079e+01  9.8068441244055791e+01  9.7960405657801289e+01  9.6757559320423852e+01  9.6692344827086259e+01  9.6507685861342694e+01  9.8000237624716419e+01  9.9439096974675763e+01  9.6575898880280150e+01  9.8258987472808343e+01  9.9511726958189229e+01  9.8167922095096984e+01  9.9486170770743612e+01  9.9521502456812939e+01  9.8293844336229057e+01  9.7077858759632676e+01  9.7018154099187612e+01  9.6862425824789653e+01  9.8204338208559051e+01  9.9496383666972704e+01  9.6924797623993044e+01  9.8341642272036850e+01  9.9534920954285354e+01  9.8415742078991400e+01  9.9555712927815918e+01  9.9564713394639810e+01  9.8447836590791297e+01  9.7341265771628130e+01  9.7286287215927644e+01  9.7159526522942002e+01  9.8375054375804112e+01  9.9544290935866243e+01  9.7216759500099002e+01  9.8480973679122386e+01  9.9574015462874286e+01  9.8536826942919916e+01  9.9589685981790211e+01  9.9598070603320920e+01  9.8566726220754305e+01  9.7544683995036493e+01  9.7493462101147784e+01  9.7397892042876165e+01  9.8511891707533408e+01  9.9582685676693217e+01  9.7450857386747316e+01  9.8611617802895736e+01  9.9610664903264933e+01  9.7621503715536292e+01  9.9195766963195155e+01  9.7134196877040694e+01  9.7049198875592026e+01  9.6856776054953883e+01  9.5099065076719114e+01  9.4835354487725667e+01  9.4953625208198645e+01  9.4626099071254956e+01  9.9084823692282626e+01  9.6945128826121277e+01  9.9142603118851056e+01  9.9117813139062491e+01  9.4427969935060929e+01  9.4777254051852168e+01  9.6739728868993609e+01  9.9250269297556883e+01  9.7391663626961076e+01  9.9268170005002432e+01  9.7227034401383690e+01  9.9221907973035286e+01  9.9290104878156541e+01  9.7469854630438419e+01  9.5671040740770138e+01  9.5427986890156888e+01  9.5537209593934620e+01  9.5256567964127001e+01  9.7308630604766591e+01  9.9244799289779053e+01  9.5396208178403000e+01  9.7685760089031646e+01  9.9350783518857327e+01  9.7544246654892120e+01  9.9311036219538977e+01  9.9370843980565766e+01  9.7757276335906582e+01  9.6161421967728188e+01  9.6038986105918667e+01  9.5797474973837595e+01  9.5692790826957889e+01  9.7619067795602533e+01  9.9332024599848239e+01  9.5925554304608198e+01  9.7817018280426296e+01  9.9387643375073708e+01  9.7938692920579058e+01  9.9421806108675241e+01  9.9440093349463268e+01  9.8003892771960906e+01  9.6582575632710601e+01  9.6470931630769442e+01  9.6263098773106293e+01  9.7885320572022763e+01  9.9406801434445327e+01  9.6380044349461471e+01  9.8051323289490128e+01  9.9453424887798249e+01  9.8155323625913979e+01  9.9482617186026246e+01  9.9499276686158083e+01  9.8214723921475610e+01  9.6942871843638969e+01  9.6841142412901149e+01  9.6663383123004195e+01  9.8113550548870663e+01  9.9470877694057421e+01  9.6769945990692094e+01  9.8250984564758255e+01  9.9509465720468668e+01  9.8338470358584772e+01  9.9534017454916750e+01  9.9549229740220142e+01  9.8392713368957786e+01  9.7247204965427372e+01  9.7154295962103035e+01  9.7004690627275849e+01  9.8307718520121568e+01  9.9525376873554251e+01  9.7101860275902197e+01  9.8417811477863950e+01  9.9556281679375658e+01  9.8488891360376428e+01  9.9576226345183002e+01  9.9590206447278206e+01  9.8538742763459723e+01  9.7496988723199848e+01  9.7411593040763861e+01  9.7289999454200796e+01  9.8469754479488486e+01  9.9570848486834706e+01  9.7378973778691787e+01  9.8551428268528497e+01  9.9593772864311745e+01  9.8604949051157064e+01  9.9608789006841363e+01  9.9621794631597879e+01  9.8651326958623812e+01  9.7689616888316991e+01  9.7610165151593733e+01  9.7518586773196262e+01  9.8599416539459710e+01  9.9607230082499683e+01  9.7600794349153574e+01  9.8648756209632296e+01  9.9621079337324531e+01  9.8681883537664049e+01  9.9630373209435874e+01  9.9642722815268939e+01  9.8725922879512382e+01  9.7817270336278767e+01  9.7741821034195326e+01  9.7685128990266591e+01  9.8693805719926942e+01  9.9633712061149353e+01  9.7762307241582164e+01  9.8703041432678631e+01  9.9636308960667705e+01  9.8710545323262409e+01  9.9638412671657576e+01  9.9650511803628376e+01  9.8753707006567282e+01  9.7864820275094843e+01  9.7790873224626139e+01  9.7778030595972950e+01  9.8746433060007789e+01  9.9648476485515744e+01  9.7852371344694035e+01  9.7050493765263525e+01  9.9172168000096619e+01  9.7235308896556290e+01  9.9224136190545920e+01  9.9257082765203933e+01  9.7352733648330215e