<?xml version="1.0"?>
<VTKFile type="UnstructuredGrid"  version="0.1"  >
<UnstructuredGrid>
<Piece  NumberOfPoints="3850" NumberOfCells="18761">
<Points>
<DataArray  type="Float64"  NumberOfComponents="3"  format="ascii">0 15 25  1.25 16.25 26.25  1.25 16.25 25  0 16.25 25  0 17.5 25  1.25 17.5 26.25  1.25 17.5 25  2.5 17.5 25  0 16.25 26.25  0 17.5 26.25  0 17.5 27.5  2.5 15 25  3.75 16.25 26.25  3.75 16.25 25  3.75 15 25  5 15 25  5 16.25 26.25  5 16.25 25  5 17.5 25  2.5 16.25 25  3.75 17.5 26.25  3.75 17.5 25  6.25 16.25 26.25  6.25 16.25 25  6.25 15 25  7.5 15 25  7.5 16.25 25  7.5 17.5 25  6.25 17.5 25  1.25 18.75 26.25  1.25 18.75 25  2.5 18.75 26.25  2.5 18.75 25  2.5 20 25  0 18.75 25  0 20 25  1.25 20 25  0 18.75 26.25  3.75 18.75 26.25  3.75 18.75 25  5 18.75 25  5 20 25  3.75 20 25  3.75 21.25 26.25  3.75 21.25 25  5 21.25 25  5 22.5 25  2.5 21.25 25  2.5 22.5 25  3.75 22.5 26.25  3.75 22.5 25  3.75 23.75 26.25  3.75 23.75 25  5 23.75 25  5 25 25  0 10 0  1.25 11.25 1.25  1.25 11.25 0  0 11.25 0  0 12.5 0  1.25 12.5 1.25  1.25 12.5 0  2.5 12.5 0  2.5 12.5 1.25  2.5 12.5 2.5  0 12.5 2.5  1.25 12.5 2.5  1.25 11.25 2.5  0 11.25 2.5  0 11.25 1.25  0 12.5 1.25  5 12.5 0  5 12.5 1.25  5 11.25 1.25  3.75 11.25 1.25  5 11.25 0  3.75 11.25 0  5 12.5 2.5  5 11.25 2.5  3.75 11.25 2.5  3.75 12.5 1.25  3.75 12.5 0  3.75 12.5 2.5  7.5 12.5 0  7.5 12.5 1.25  7.5 11.25 1.25  6.25 11.25 1.25  7.5 11.25 0  6.25 11.25 0  7.5 12.5 2.5  7.5 11.25 2.5  6.25 11.25 2.5  6.25 12.5 1.25  6.25 12.5 0  6.25 12.5 2.5  10 10 0  10 11.25 1.25  10 11.25 0  8.75 11.25 1.25  8.75 11.25 0  10 12.5 0  10 12.5 1.25  10 12.5 2.5  10 10 1.25  10 10 2.5  10 11.25 2.5  8.75 11.25 2.5  8.75 12.5 1.25  8.75 12.5 0  8.75 12.5 2.5  1.25 13.75 1.25  1.25 13.75 0  2.5 13.75 1.25  2.5 13.75 0  2.5 15 0  2.5 15 1.25  2.5 15 2.5  2.5 13.75 2.5  1.25 13.75 2.5  0 13.75 0  0 15 0  1.25 15 1.25  1.25 15 0  0 13.75 1.25  0 13.75 2.5  0 15 2.5  1.25 15 2.5  0 15 1.25  3.75 13.75 1.25  3.75 13.75 0  5 13.75 1.25  5 13.75 0  5 15 0  5 15 1.25  5 15 2.5  5 13.75 2.5  3.75 13.75 2.5  3.75 15 1.25  3.75 15 0  3.75 15 2.5  6.25 13.75 1.25  6.25 13.75 0  7.5 13.75 1.25  7.5 13.75 0  7.5 15 0  7.5 15 1.25  7.5 15 2.5  7.5 13.75 2.5  6.25 13.75 2.5  6.25 15 1.25  6.25 15 0  6.25 15 2.5  8.75 13.75 1.25  8.75 13.75 0  10 13.75 1.25  10 13.75 0  10 15 0  10 15 1.25  10 15 2.5  10 13.75 2.5  8.75 13.75 2.5  8.75 15 1.25  8.75 15 0  8.75 15 2.5  3.75 16.25 1.25  3.75 16.25 0  5 16.25 1.25  5 16.25 0  5 17.5 0  5 17.5 1.25  5 17.5 2.5  5 16.25 2.5  3.75 16.25 2.5  6.25 16.25 1.25  6.25 16.25 0  7.5 16.25 1.25  7.5 16.25 0  7.5 17.5 0  7.5 17.5 1.25  7.5 17.5 2.5  7.5 16.25 2.5  6.25 16.25 2.5  6.25 17.5 1.25  6.25 17.5 0  6.25 17.5 2.5  8.75 16.25 1.25  8.75 16.25 0  10 16.25 1.25  10 16.25 0  10 17.5 0  10 17.5 1.25  10 17.5 2.5  10 16.25 2.5  8.75 16.25 2.5  8.75 17.5 1.25  8.75 17.5 0  8.75 17.5 2.5  1.25 12.5 3.75  1.25 11.25 3.75  2.5 12.5 3.75  2.5 12.5 5  0 12.5 3.75  0 11.25 3.75  0 12.5 5  1.25 12.5 5  5 12.5 3.75  5 11.25 3.75  3.75 11.25 3.75  5 12.5 5  5 11.25 5  3.75 11.25 5  3.75 12.5 3.75  3.75 12.5 5  7.5 12.5 3.75  7.5 11.25 3.75  6.25 11.25 3.75  7.5 12.5 5  7.5 11.25 5  6.25 11.25 5  6.25 12.5 3.75  6.25 12.5 5  10 11.25 3.75  8.75 11.25 3.75  10 12.5 3.75  10 12.5 5  10 10 3.75  10 10 5  10 11.25 5  8.75 11.25 5  8.75 12.5 3.75  8.75 12.5 5  1.25 13.75 3.75  2.5 13.75 3.75  2.5 15 3.75  2.5 15 5  2.5 13.75 5  1.25 13.75 5  1.25 15 3.75  0 13.75 3.75  0 13.75 5  0 15 5  1.25 15 5  0 15 3.75  3.75 13.75 3.75  5 13.75 3.75  5 15 3.75  5 15 5  5 13.75 5  3.75 13.75 5  3.75 15 3.75  3.75 15 5  6.25 13.75 3.75  7.5 13.75 3.75  7.5 15 3.75  7.5 15 5  7.5 13.75 5  6.25 13.75 5  6.25 15 3.75  6.25 15 5  8.75 13.75 3.75  10 13.75 3.75  10 15 3.75  10 15 5  10 13.75 5  8.75 13.75 5  8.75 15 3.75  8.75 15 5  1.25 16.25 3.75  2.5 16.25 3.75  2.5 16.25 5  2.5 17.5 5  1.25 16.25 5  0 16.25 3.75  0 16.25 5  0 17.5 5  1.25 17.5 5  3.75 16.25 3.75  5 16.25 3.75  5 17.5 3.75  5 17.5 5  5 16.25 5  3.75 16.25 5  3.75 17.5 5  6.25 16.25 3.75  7.5 16.25 3.75  7.5 17.5 3.75  7.5 17.5 5  7.5 16.25 5  6.25 16.25 5  6.25 17.5 3.75  6.25 17.5 5  8.75 16.25 3.75  10 16.25 3.75  10 17.5 3.75  10 17.5 5  10 16.25 5  8.75 16.25 5  8.75 17.5 3.75  8.75 17.5 5  2.5 12.5 6.25  2.5 11.25 6.25  1.25 11.25 6.25  2.5 12.5 7.5  1.25 12.5 6.25  0 12.5 6.25  0 12.5 7.5  1.25 12.5 7.5  5 12.5 6.25  5 11.25 6.25  3.75 11.25 6.25  5 12.5 7.5  5 11.25 7.5  3.75 11.25 7.5  3.75 12.5 6.25  3.75 12.5 7.5  7.5 12.5 6.25  7.5 11.25 6.25  6.25 11.25 6.25  7.5 12.5 7.5  7.5 11.25 7.5  6.25 11.25 7.5  6.25 12.5 6.25  6.25 12.5 7.5  10 11.25 6.25  8.75 11.25 6.25  10 12.5 6.25  10 12.5 7.5  10 10 6.25  10 10 7.5  10 11.25 7.5  8.75 11.25 7.5  8.75 12.5 6.25  8.75 12.5 7.5  1.25 13.75 6.25  2.5 13.75 6.25  2.5 15 6.25  2.5 15 7.5  2.5 13.75 7.5  1.25 13.75 7.5  1.25 15 6.25  0 13.75 6.25  0 13.75 7.5  0 15 7.5  1.25 15 7.5  0 15 6.25  3.75 13.75 6.25  5 13.75 6.25  5 15 6.25  5 15 7.5  5 13.75 7.5  3.75 13.75 7.5  3.75 15 6.25  3.75 15 7.5  6.25 13.75 6.25  7.5 13.75 6.25  7.5 15 6.25  7.5 15 7.5  7.5 13.75 7.5  6.25 13.75 7.5  6.25 15 6.25  6.25 15 7.5  8.75 13.75 6.25  10 13.75 6.25  10 15 6.25  10 15 7.5  10 13.75 7.5  8.75 13.75 7.5  8.75 15 6.25  8.75 15 7.5  1.25 16.25 6.25  2.5 16.25 6.25  2.5 17.5 6.25  2.5 17.5 7.5  2.5 16.25 7.5  1.25 16.25 7.5  1.25 17.5 6.25  0 16.25 6.25  0 16.25 7.5  0 17.5 7.5  1.25 17.5 7.5  0 17.5 6.25  3.75 16.25 6.25  5 16.25 6.25  5 17.5 6.25  5 17.5 7.5  5 16.25 7.5  3.75 16.25 7.5  3.75 17.5 6.25  3.75 17.5 7.5  6.25 16.25 6.25  7.5 16.25 6.25  7.5 17.5 6.25  7.5 17.5 7.5  7.5 16.25 7.5  6.25 16.25 7.5  6.25 17.5 6.25  6.25 17.5 7.5  8.75 16.25 6.25  10 16.25 6.25  10 17.5 6.25  10 17.5 7.5  10 16.25 7.5  8.75 16.25 7.5  8.75 17.5 6.25  8.75 17.5 7.5  1.25 18.75 6.25  2.5 18.75 6.25  2.5 18.75 7.5  2.5 20 7.5  1.25 18.75 7.5  0 18.75 6.25  0 18.75 7.5  0 20 7.5  1.25 20 7.5  3.75 18.75 6.25  5 18.75 6.25  5 18.75 7.5  5 20 7.5  3.75 18.75 7.5  3.75 20 7.5  6.25 18.75 6.25  7.5 18.75 6.25  7.5 18.75 7.5  7.5 20 7.5  6.25 18.75 7.5  6.25 20 7.5  8.75 18.75 6.25  10 18.75 6.25  10 18.75 7.5  10 20 7.5  8.75 18.75 7.5  8.75 20 7.5  11.25 18.75 6.25  11.25 18.75 7.5  11.25 20 7.5  12.5 20 7.5  5 12.5 8.75  5 11.25 8.75  3.75 11.25 8.75  5 12.5 10  3.75 12.5 8.75  2.5 12.5 8.75  2.5 12.5 10  3.75 12.5 10  7.5 12.5 8.75  7.5 11.25 8.75  6.25 11.25 8.75  7.5 12.5 10  6.25 12.5 8.75  6.25 12.5 10  10 11.25 8.75  8.75 11.25 8.75  10 12.5 8.75  10 12.5 10  10 11.25 10  8.75 11.25 10  8.75 12.5 8.75  8.75 12.5 10  1.25 13.75 8.75  2.5 13.75 8.75  2.5 15 8.75  2.5 15 10  1.25 12.5 8.75  2.5 13.75 10  0 12.5 8.75  0 12.5 10  1.25 13.75 10  1.25 12.5 10  1.25 15 8.75  0 13.75 8.75  0 13.75 10  0 15 10  1.25 15 10  0 15 8.75  3.75 13.75 8.75  5 13.75 8.75  5 15 8.75  5 15 10  5 13.75 10  3.75 13.75 10  3.75 15 8.75  3.75 15 10  6.25 13.75 8.75  7.5 13.75 8.75  7.5 15 8.75  7.5 15 10  7.5 13.75 10  6.25 13.75 10  6.25 15 8.75  6.25 15 10  8.75 13.75 8.75  10 13.75 8.75  10 15 8.75  10 15 10  10 13.75 10  8.75 13.75 10  8.75 15 8.75  8.75 15 10  1.25 16.25 8.75  2.5 16.25 8.75  2.5 17.5 8.75  2.5 17.5 10  2.5 16.25 10  1.25 16.25 10  1.25 17.5 8.75  0 16.25 8.75  0 16.25 10  0 17.5 10  1.25 17.5 10  0 17.5 8.75  3.75 16.25 8.75  5 16.25 8.75  5 17.5 8.75  5 17.5 10  5 16.25 10  3.75 16.25 10  3.75 17.5 8.75  3.75 17.5 10  6.25 16.25 8.75  7.5 16.25 8.75  7.5 17.5 8.75  7.5 17.5 10  7.5 16.25 10  6.25 16.25 10  6.25 17.5 8.75  6.25 17.5 10  8.75 16.25 8.75  10 16.25 8.75  10 17.5 8.75  10 17.5 10  10 16.25 10  8.75 16.25 10  8.75 17.5 8.75  8.75 17.5 10  11.25 16.25 8.75  11.25 16.25 10  11.25 17.5 10  12.5 17.5 10  11.25 17.5 8.75  1.25 18.75 8.75  2.5 18.75 8.75  2.5 20 8.75  2.5 20 10  2.5 18.75 10  1.25 18.75 10  1.25 20 8.75  0 18.75 8.75  0 18.75 10  0 20 10  1.25 20 10  0 20 8.75  3.75 18.75 8.75  5 18.75 8.75  5 20 8.75  5 20 10  5 18.75 10  3.75 18.75 10  3.75 20 8.75  3.75 20 10  6.25 18.75 8.75  7.5 18.75 8.75  7.5 20 8.75  7.5 20 10  7.5 18.75 10  6.25 18.75 10  6.25 20 8.75  6.25 20 10  8.75 18.75 8.75  10 18.75 8.75  10 20 8.75  10 20 10  10 18.75 10  8.75 18.75 10  8.75 20 8.75  8.75 20 10  11.25 18.75 8.75  11.25 18.75 10  12.5 18.75 10  12.5 20 10  11.25 20 8.75  12.5 20 8.75  11.25 20 10  1.25 21.25 8.75  2.5 21.25 8.75  2.5 21.25 10  2.5 22.5 10  1.25 21.25 10  0 21.25 8.75  0 21.25 10  0 22.5 10  1.25 22.5 10  3.75 21.25 8.75  5 21.25 8.75  5 21.25 10  5 22.5 10  3.75 21.25 10  3.75 22.5 10  6.25 21.25 8.75  7.5 21.25 8.75  7.5 21.25 10  7.5 22.5 10  6.25 21.25 10  6.25 22.5 10  8.75 21.25 8.75  10 21.25 8.75  10 21.25 10  10 22.5 10  8.75 21.25 10  8.75 22.5 10  11.25 21.25 8.75  12.5 21.25 8.75  12.5 21.25 10  12.5 22.5 10  11.25 21.25 10  11.25 22.5 10  3.75 12.5 11.25  3.75 11.25 11.25  5 12.5 11.25  5 12.5 12.5  2.5 12.5 11.25  2.5 12.5 12.5  3.75 12.5 12.5  10 12.5 11.25  10 11.25 11.25  8.75 11.25 11.25  10 12.5 12.5  10 11.25 12.5  8.75 11.25 12.5  8.75 12.5 11.25  7.5 12.5 12.5  8.75 12.5 12.5  7.5 12.5 11.25  1.25 13.75 11.25  2.5 13.75 11.25  2.5 15 11.25  2.5 15 12.5  1.25 12.5 11.25  2.5 13.75 12.5  0 12.5 11.25  0 12.5 12.5  1.25 13.75 12.5  1.25 12.5 12.5  1.25 15 11.25  0 13.75 11.25  0 13.75 12.5  0 15 12.5  1.25 15 12.5  0 15 11.25  3.75 13.75 11.25  5 13.75 11.25  5 15 11.25  5 15 12.5  5 13.75 12.5  3.75 13.75 12.5  3.75 15 11.25  3.75 15 12.5  6.25 13.75 11.25  7.5 13.75 11.25  7.5 15 11.25  7.5 15 12.5  6.25 12.5 11.25  7.5 13.75 12.5  6.25 13.75 12.5  6.25 12.5 12.5  6.25 15 11.25  6.25 15 12.5  8.75 13.75 11.25  10 13.75 11.25  10 15 11.25  10 15 12.5  10 13.75 12.5  8.75 13.75 12.5  8.75 15 11.25  8.75 15 12.5  1.25 16.25 11.25  2.5 16.25 11.25  2.5 17.5 11.25  2.5 17.5 12.5  2.5 16.25 12.5  1.25 16.25 12.5  1.25 17.5 11.25  0 16.25 11.25  0 16.25 12.5  0 17.5 12.5  1.25 17.5 12.5  0 17.5 11.25  3.75 16.25 11.25  5 16.25 11.25  5 17.5 11.25  5 17.5 12.5  5 16.25 12.5  3.75 16.25 12.5  3.75 17.5 11.25  3.75 17.5 12.5  6.25 16.25 11.25  7
[...]
<PointData  Vectors="u"> 
<DataArray  type="Float64"  Name="u"  NumberOfComponents="3" format="ascii">2.0000000000061524e+02 1.4251666130630218e-10 -2.5978820850196206e-11  1.9999999999901524e+02 -1.2062057675522279e-10 6.9648729538925073e-12  1.9999999999911515e+02 -2.7583519392712855e-10 -1.1730464264634854e-10  2.0000000000000182e+02 -7.5067559501652263e-11 1.2784502659890786e-10  2.0000000000064227e+02 1.2290758093018659e-10 -6.0247222438595237e-11  1.9999999999905060e+02 -1.8021334198733400e-10 -1.1922676522721855e-10  1.9999999999898495e+02 -5.0649334128784994e-11 6.3494820214164772e-11  1.9999999999821816e+02 1.8859551525665440e-10 4.9312234317095403e-12  1.9999999999968753e+02 -9.2330134228095034e-11 -5.8751662063590420e-12  2.0000000000004908e+02 -1.2057911045161337e-10 2.5819260984553976e-12  2.0000000000059580e+02 1.0442969063765815e-10 1.0954343476845833e-10  1.9999999999820602e+02 1.6031380638375000e-10 2.6081703438474047e-11  1.9999999999717659e+02 -1.1779642807358434e-10 -9.8037961299053448e-11  1.9999999999709499e+02 -2.5256986914754481e-10 -8.6123853531192968e-11  1.9999999999721493e+02 -5.7754109459043397e-11 1.0432171736859704e-10  1.9999999999646451e+02 1.7342225432870560e-10 -3.4131983702980436e-11  1.9999999999616389e+02 -1.1355576208868237e-10 -1.4225964514009723e-10  1.9999999999626311e+02 -5.2000941249651874e-11 7.9538476782118000e-11  1.9999999999645141e+02 1.0286953718418267e-10 -7.4823798748817336e-12  1.9999999999818709e+02 -5.9882465547513186e-11 -8.3027017254030417e-12  1.9999999999720038e+02 -1.5531086070539787e-10 -1.2836198685219774e-10  1.9999999999718437e+02 -7.1318660612012150e-11 6.3671126227253374e-11  1.9999999999534302e+02 -1.4297388460298188e-10 -1.1574272328044558e-10  1.9999999999520296e+02 -2.2857963741085890e-10 -6.1867385640604311e-11  1.9999999999542928e+02 -5.4973925857954603e-11 9.8500645433109701e-11  1.9999999999465862e+02 1.3150078723713945e-10 -2.0988047703427527e-11  1.9999999999447874e+02 -6.4937676878366316e-11 7.5299742852381440e-11  1.9999999999465410e+02 1.5125825590202674e-10 -1.8879132072173260e-11  1.9999999999546296e+02 -6.7259057802060947e-11 1.0015639670439991e-10  1.9999999999903193e+02 -9.2309510933805335e-11 -1.1191756244010356e-11  1.9999999999909093e+02 -2.4461898758429805e-10 -7.4356953164808416e-11  1.9999999999808603e+02 -2.4231857843111789e-10 -1.7083180452220362e-10  1.9999999999822529e+02 -6.6784807460748730e-11 -1.6126720806068227e-11  1.9999999999821398e+02 1.9310089984249040e-10 -1.9811012491292900e-11  2.0000000000011738e+02 3.1436910668663988e-11 7.6694605062448670e-11  2.0000000000053919e+02 1.4606902279934287e-10 -4.9109398157346645e-11  1.9999999999902502e+02 -4.7152917901577654e-11 3.8691527156026278e-11  1.9999999999970069e+02 -2.5935970922463819e-11 1.4763445643718648e-11  1.9999999999717903e+02 -9.4491687233794056e-11 -6.4106856512281399e-11  1.9999999999702490e+02 -2.3201267999903805e-10 -3.8626012767966137e-11  1.9999999999628776e+02 -1.8877008008934199e-11 6.9273239840155534e-11  1.9999999999645524e+02 1.7460394591036458e-10 -3.0582085491208251e-11  1.9999999999719637e+02 -5.7675682256800615e-11 6.4096763441411805e-11  1.9999999999716178e+02 -5.9895643491441553e-11 -9.7113469239660351e-11  1.9999999999708524e+02 -2.2290609709208841e-10 -7.8542750521603840e-11  1.9999999999625575e+02 -2.3250300052532880e-11 4.3531037890377820e-11  1.9999999999645436e+02 1.0728277377030214e-10 -1.4963206682541832e-11  1.9999999999815992e+02 -6.7983930483177768e-11 -8.5333882972458550e-12  1.9999999999819474e+02 1.5784975924202594e-10 -1.4343614030903839e-11  1.9999999999715541e+02 -2.2253241608957004e-10 -1.1740419600034829e-10  1.9999999999724835e+02 -1.4651556600675454e-10 8.1835758210704724e-11  1.9999999999719176e+02 -6.1787633513652016e-11 -6.1484709977613981e-11  1.9999999999705096e+02 -2.2626540804340645e-10 -4.8305856614890891e-11  1.9999999999629162e+02 -1.9701330317811825e-11 1.0168034803852893e-10  1.9999999999645294e+02 1.3537797557303594e-10 1.3191013725916805e-11  2.0000000000054882e+02 1.0420997134513004e-10 8.0477057328634479e-10  1.9999999999901735e+02 -8.9288955129005079e-11 -1.0676421955292694e-10  1.9999999999909753e+02 -2.1940609376946942e-10 -5.7759121261771394e-10  2.0000000000003314e+02 -8.9663238247018903e-11 3.7991362502473248e-11  2.0000000000061470e+02 1.3474003951176710e-10 8.0309301730818945e-10  1.9999999999907754e+02 -2.2953524238934086e-10 -2.2156773775306127e-10  1.9999999999903864e+02 -9.9736695015581312e-11 -1.9991922990681192e-11  1.9999999999818388e+02 1.7045719073435835e-10 7.3993767872094048e-10  1.9999999999814631e+02 -8.5759665003482137e-11 -7.2863013838898125e-11  1.9999999999815182e+02 1.2987305272078631e-10 2.1827487545639074e-10  2.0000000000056014e+02 1.9289063764423079e-10 1.7822535887809258e-10  1.9999999999903329e+02 -8.9194865574061085e-11 5.7873486434911661e-11  1.9999999999908468e+02 -1.5103925765123514e-10 -4.4237775501197446e-11  2.0000000000001268e+02 -1.4868993582267227e-10 -9.4733568116518817e-11  1.9999999999973471e+02 -8.0938087279105416e-11 -1.3490306343661060e-10  1.9999999999996149e+02 -5.4478989559027787e-11 -8.0172538196013110e-11  1.9999999999648708e+02 1.5743589045664001e-10 7.2398458709181246e-10  1.9999999999636907e+02 -2.4645702516551575e-11 -8.4753229140755458e-11  1.9999999999615886e+02 -1.2939379949671196e-10 -2.1542566787302931e-10  1.9999999999717235e+02 -9.0761805596648820e-11 -1.4539222136671973e-10  1.9999999999631731e+02 -4.3311725216719618e-11 -7.7516616034253826e-11  1.9999999999705034e+02 -2.4862015616323714e-10 -5.4312150504859507e-10  1.9999999999644578e+02 1.0467512214456100e-10 1.7942363679503360e-10  1.9999999999633923e+02 -4.7997317886320955e-11 2.8467724779304666e-11  1.9999999999716053e+02 -1.4920356438061948e-10 -1.5910073241569303e-10  1.9999999999715908e+02 -1.8416497569716038e-10 -2.1200757879511626e-10  1.9999999999724201e+02 -4.9381680220129740e-11 -1.3436870164302431e-11  1.9999999999719338e+02 -2.3321803865570928e-11 3.3570661042833060e-11  1.9999999999464430e+02 1.5994458091886492e-10 7.3523332182122088e-10  1.9999999999452743e+02 1.7959450687149366e-11 -1.0388650628560889e-10  1.9999999999434914e+02 -1.5799548809270948e-10 -2.1527920185685156e-10  1.9999999999535260e+02 -8.3921116924925564e-11 -1.8707653021551430e-10  1.9999999999443813e+02 -3.6417020274209941e-11 -1.5804727290266887e-11  1.9999999999521361e+02 -1.8153351105895054e-10 -5.4143619562093011e-10  1.9999999999468270e+02 1.2723021118188661e-10 1.7095095250306971e-10  1.9999999999455378e+02 -6.5804657562397373e-11 7.8714681758899926e-12  1.9999999999530593e+02 -1.3215446678446292e-10 -2.2393966468848025e-10  1.9999999999529959e+02 -1.9037038192277505e-10 -2.5577667656066595e-10  1.9999999999542680e+02 -6.7788832833907805e-11 1.6217238601068296e-11  1.9999999999537374e+02 -3.6307344449787200e-11 -4.0632188978175820e-12  1.9999999999291757e+02 1.0041923313771405e-10 7.2858144693214596e-10  1.9999999999262087e+02 -1.6905977221479942e-10 -2.3818091059857898e-10  1.9999999999268221e+02 -3.4199457132079553e-11 -4.3079797770645487e-11  1.9999999999355722e+02 -1.0463917908376166e-10 -1.7276554727236228e-10  1.9999999999343646e+02 -2.0547681553128810e-10 -4.7199475140396808e-10  1.9999999999288477e+02 1.2760827659456597e-10 6.8337490790148946e-10  1.9999999999270628e+02 -5.9890835857370235e-12 -7.2634723305093670e-11  1.9999999999288914e+02 1.0846026678251076e-10 1.8715263954274499e-10  1.9999999999267885e+02 -1.0308514025818227e-11 -6.8724302044757113e-11  1.9999999999287309e+02 1.0065728893801502e-10 1.4862520009900401e-10  1.9999999999268954e+02 -4.9287685896688076e-11 4.5918955074694473e-11  1.9999999999349799e+02 -1.3816813454935931e-10 -1.6805916933623844e-10  1.9999999999348091e+02 -1.5196155378441170e-10 -2.0554137417731883e-10  1.9999999999358505e+02 -6.8033806078085394e-11 -1.3121615107924498e-11  1.9999999999358096e+02 1.4508030778359966e-11 4.1746906741875733e-11  1.9999999999895374e+02 -8.8210626865291923e-11 -9.7404848798051022e-11  1.9999999999908081e+02 -2.1728220214473819e-10 -6.2864633960219605e-10  1.9999999999819318e+02 -2.4834960582088098e-10 -3.5608184993390170e-10  1.9999999999824422e+02 -5.4407056795436900e-11 6.7551402726685338e-11  1.9999999999823135e+02 1.6662568849940959e-10 7.5960708389610335e-10  1.9999999999817976e+02 -3.9593104298420170e-11 -9.1008569621958678e-11  1.9999999999817990e+02 1.3851414651413972e-10 1.8082077836238907e-10  1.9999999999824277e+02 -5.5372468557343887e-11 2.8448400635098647e-11  1.9999999999904219e+02 -1.6765997441360658e-10 -4.2274405069486955e-11  2.0000000000002942e+02 -7.8032660914648240e-12 1.0282822373822966e-10  2.0000000000062053e+02 1.8290099453465856e-10 7.7241981953522544e-10  1.9999999999902860e+02 -1.0517000904974648e-10 -2.0306847217966857e-10  1.9999999999896531e+02 -6.7038136965425065e-11 2.2577279006450546e-11  1.9999999999965601e+02 -8.0248059311462922e-11 -1.1029575136523697e-10  1.9999999999994569e+02 -1.6056334440743037e-10 -7.5705891690328055e-11  2.0000000000059279e+02 1.4343657576071977e-10 1.0252725492890802e-10  1.9999999999900760e+02 -5.4275194690615856e-11 1.9044335614358225e-11  1.9999999999996422e+02 -1.2527642725594196e-12 -1.0130644986185964e-10  1.9999999999715709e+02 -6.6744630109926168e-11 -2.1946703422977074e-10  1.9999999999705702e+02 -2.1686819090860199e-10 -4.8574503001184842e-10  1.9999999999614207e+02 -1.4842405825910778e-10 -2.3201522737432542e-10  1.9999999999627059e+02 -6.1832685994782617e-11 -9.5673364125791935e-12  1.9999999999647980e+02 1.3556832177166282e-10 7.3751455297578512e-10  1.9999999999635764e+02 -1.3517405538649490e-11 -1.2650154450363935e-10  1.9999999999645433e+02 1.0569890662996935e-10 2.0603644682751939e-10  1.9999999999632917e+02 -3.8622694949771580e-11 5.1303904233982601e-11  1.9999999999715877e+02 -1.2664096589904818e-10 -1.4462305789315841e-10  1.9999999999708530e+02 -2.1612826602988875e-10 -2.7306637572019059e-10  1.9999999999718369e+02 -1.7847142301594420e-10 6.0210965390603939e-11  1.9999999999719358e+02 -3.2806888851081610e-11 6.9020959582408734e-11  1.9999999999536257e+02 -1.0473425038995352e-10 -2.3055075789417021e-10  1.9999999999524044e+02 -2.2800005836019255e-10 -5.4458972762249641e-10  1.9999999999437355e+02 -1.4981386651622343e-10 -2.2922343635561382e-10  1.9999999999443295e+02 -6.2825256477028021e-11 2.7956398428043970e-11  1.9999999999465962e+02 1.0655905174482694e-10 7.5384601248892003e-10  1.9999999999455602e+02 -4.1979703062815582e-11 -1.0406923936017428e-10  1.9999999999465084e+02 1.0027274001118873e-10 2.0406747632615294e-10  1.9999999999457103e+02 -2.6798371987604813e-11 4.3191617547706189e-11  1.9999999999531414e+02 -8.3926013493324708e-11 -2.0215341196364944e-10  1.9999999999528015e+02 -1.9576405073184611e-10 -2.3854264365598648e-10  1.9999999999533836e+02 -1.0013621447610883e-10 1.7223899305816364e-11  1.9999999999541663e+02 -7.0983558645391566e-12 6.9897405334678381e-11  1.9999999999352593e+02 -9.9855799166656708e-11 -2.0656805118927501e-10  1.9999999999343274e+02 -2.3436935240406302e-10 -4.7139290573151581e-10  1.9999999999262172e+02 -1.4721988541960069e-10 -2.5248573849333556e-10  1.9999999999266009e+02 -2.9049735951948082e-11 -8.6069322782907495e-12  1.9999999999290412e+02 1.2274151578430741e-10 7.2088076987684936e-10  1.9999999999268047e+02 1.4781310550606031e-11 -8.7752387302360734e-11  1.9999999999284705e+02 1.0795445385960568e-10 1.8601720054245146e-10  1.9999999999266376e+02 -5.5140796137143531e-11 5.3240785682754363e-11  1.9999999999350001e+02 -1.3518885813957980e-10 -1.2171710001123014e-10  1.9999999999349274e+02 -2.0312769468623633e-10 -2.1501275301733948e-10  1.9999999999355919e+02 -1.2812003632684161e-10 2.3404882663278414e-11  1.9999999999356913e+02 -2.0463960049774616e-11 5.6202688242698350e-11  1.9999999999717136e+02 -6.5823682457724067e-11 -1.8400456339941855e-10  1.9999999999722834e+02 -2.1989696480382640e-10 -5.4407068105492152e-10  1.9999999999616159e+02 -1.3843490819249392e-10 -2.5904153505965423e-10  1.9999999999629031e+02 -8.3524958629841923e-11 4.9690473013300263e-11  1.9999999999645314e+02 1.6968578427648906e-10 7.4468985878082081e-10  1.9999999999642066e+02 -6.0241632642254075e-11 -1.0521444930038102e-10  1.9999999999639866e+02 1.5685300391322525e-10 2.1404077699762511e-10  1.9999999999633616e+02 -2.9027317341214566e-11 8.0042055735015121e-11  1.9999999999720740e+02 -9.9858218696157721e-11 -2.2047621471133358e-10  1.9999999999536075e+02 -7.0885094797893196e-11 -2.1881643501240530e-10  1.9999999999521759e+02 -2.0148964693404571e-10 -5.7426464237203939e-10  1.9999999999432404e+02 -9.2644150838771592e-11 -2.1532243607293104e-10  1.9999999999438774e+02 -3.1074762745566900e-11 3.2302599333003820e-11  1.9999999999462139e+02 1.4654225233840300e-10 7.3027122778573335e-10  1.9999999999452987e+02 -5.9942742541578394e-11 -3.9537958644798697e-11  1.9999999999463924e+02 1.5188102914841129e-10 1.5980653017235398e-10  1.9999999999450944e+02 -3.3771592805972107e-11 3.7572991528791130e-11  1.9999999999534256e+02 -1.1928704051599675e-10 -1.2344021213141750e-10  1.9999999999534469e+02 -1.0907187459637469e-10 -2.1874227270821899e-10  1.9999999999542459e+02 -1.1799989465253899e-10 5.9781826366000596e-12  1.9999999999548197e+02 -3.6071490911257181e-11 3.2705497124920068e-11  1.9999999999356058e+02 -6.7499703640968986e-11 -1.5801015277167466e-10  1.9999999999344007e+02 -2.3693796257920842e-10 -5.1988251784127990e-10  1.9999999999260601e+02 -1.3936700550404957e-10 -2.4208426696015850e-10  1.9999999999267038e+02 -7.9075768576837049e-11 -1.4818080824868756e-11  1.9999999999290409e+02 1.5608627887418839e-10 7.3338695529072459e-10  1.9999999999267840e+02 -3.5116672441141019e-11 -8.3054075490496655e-11  1.9999999999282011e+02 1.5608813098659992e-10 1.3615956825742456e-10  1.9999999999265452e+02 -5.8460537889661833e-11 4.0672406782114475e-11  1.9999999999352650e+02 -1.1026642808199762e-10 -1.8440429160972851e-10  1.9999999999351130e+02 -1.2609948806370735e-10 -1.7458701438179378e-10  1.9999999999360111e+02 -4.5615460998689543e-11 8.6886068732387748e-12  1.9999999999354557e+02 -1.8332795411630270e-11 4.5192498989125654e-11  1.9999999999904506e+02 -1.7903904790214702e-10 -1.3112462450856896e-10  1.9999999999898492e+02 -9.2304702569529666e-11 -8.6967523786173647e-11  1.9999999999820588e+02 -8.7441629628590084e-11 -1.6024359040765040e-11  1.9999999999819650e+02 1.1664440999661693e-10 1.2447646374946736e-10  2.0000000000005051e+02 -8.8910597818526774e-11 -8.1292908345451274e-11  1.9999999999966940e+02 -6.4659508570415569e-11 -6.2768428562135061e-13  2.0000000000057602e+02 1.2311317051385050e-10 1.3723089126844529e-10  1.9999999999901794e+02 -2.2180100064551790e-11 2.3711996113728012e-11  1.9999999999633235e+02 -9.8127764159376343e-12 -1.9799214216800039e-11  1.9999999999613479e+02 -1.2111700126439558e-10 -1.1029912787023864e-10  1.9999999999715351e+02 -7.6152689851383851e-11 -7.8699745075523553e-11  1.9999999999646462e+02 1.3102772512372571e-10 1.1914163280219141e-10  1.9999999999631649e+02 -2.2555647058781207e-11 2.8117992579323868e-12  1.9999999999714436e+02 -1.4084299769011836e-10 -1.5874384332789805e-10  1.9999999999711542e+02 -1.7940344795813393e-10 -1.0989662969242731e-10  1.9999999999715536e+02 3.8525175107585388e-12 2.6938591036593731e-11  1.9999999999455926e+02 4.7297591574263632e-11 -8.2852257644375343e-12  1.9999999999437611e+02 -1.0048689059619126e-10 -1.4464248935071389e-10  1.9999999999530829e+02 -9.2750844281165242e-11 -8.2762817749064982e-11  1.9999999999463762e+02 1.5189848438487495e-10 1.6582666301689101e-10  1.9999999999455432e+02 1.0912845552418320e-11 9.2952415423408776e-11  1.9999999999532247e+02 -7.0603005912878699e-11 -1.4354469522030149e-10  1.9999999999531786e+02 -1.6513549832817782e-10 -4.4629738557459732e-11  1.9999999999546193e+02 1.7497458493889139e-11 1.1358730318953263e-11  1.9999999999262738e+02 -1.0154210109672490e-10 -5.0449033891550776e-11  1.9999999999358653e+02 -9.2849036599903854e-11 -6.8477056743088397e-11  1.9999999999270906e+02 -4.5616608072501282e-11 4.1323558286501099e-11  1.9999999999289406e+02 7.9403421996231782e-11 1.5855369565840809e-10  1.9999999999274340e+02 3.0582427688862732e-11 1.4282098910615696e-11  1.9999999999291069e+02 1.1991660884487193e-10 1.6110923491611725e-10  1.9999999999271697e+02 -1.1970475641388633e-12 3.5911909631441380e-11  1.9999999999360170e+02 -8.1940409570281179e-11 -1.8108559801561789e-10  1.9999999999352912e+02 -1.7669366660008825e-10 -6.5026859320533001e-11  1.9999999999364366e+02 2.6578892348687586e-11 4.7242317513815519e-11  1.9999999999897406e+02 -9.8234393251247363e-11 -1.0940999751254964e-10  1.9999999999816654e+02 -2.4486689170769225e-10 -2.1216057453656156e-10  1.9999999999819900e+02 -1.5344845814773870e-10 -2.9363808611758693e-11  1.9999999999821435e+02 1.5770628702782377e-10 1.3280157874162273e-10  1.9999999999817354e+02 -9.6091960401443658e-11 -8.8510824928224147e-11  1.9999999999903008e+02 -1.4847122259620467e-10 -1.7772901621141415e-10  1.9999999999902982e+02 -2.2771370658620697e-10 -1.3246974052274753e-10  1.9999999999961000e+02 -1.0013163750922491e-10 -8.3929371482140864e-11  2.0000000000003618e+02 -9.2334200764620659e-11 -4.4212859374662622e-11  2.0000000000054874e+02 1.3082674389935806e-10 1.4440922676660677e-10  1.9999999999897159e+02 -7.8773476140217405e-12 2.3271965471161102e-11  2.0000000000001319e+02 -1.1883362798222921e-10 -2.7268790436073591e-13  1.9999999999712534e+02 -8.8394935856729381e-11 -6.0024354772520902e-11  1.9999999999614130e+02 -1.2834800642901353e-10 -1.1403898145392847e-10  1.9999999999636475e+02 5.2185446582297128e-12 -1.5254623342679853e-11  1.9999999999644606e+02 1.0045458130908532e-10 1.0689464836280789e-10  1.9999999999636256e+02 -5.4060114290655027e-11 3.6808875089302035e-11  1.9999999999717102e+02 -1.3421660231624973e-10 -1.7909734727308978e-10  1.9999999999712702e+02 -2.0664974876493934e-10 -9.5621089575132027e-11  1.9999999999721896e+02 2.2161938980446089e-11 7.9387354616342460e-12  1.9999999999533827e+02 -7.7806794299831127e-11 -3.4219318844920095e-11  1.9999999999438015e+02 -1.1717443264541907e-10 -9.5092051387503039e-11  1.9999999999455048e+02 -1.9661393590524966e-12 2.7727390574507256e-12  1.9999999999461008e+02 1.1254850151618736e-10 1.3925062668319385e-10  1.9999999999455576e+02 -4.8806261755153076e-11 3.4938059894520871e-11  1.9999999999531178e+02 -1.2445907589937781e-10 -2.2069703273216007e-10  1.9999999999531281e+02 -1.8751865082991951e-10 -5.6312828821660405e-11  1.9999999999545682e+02 6.6792731124803543e-12 -3.2984756116764878e-11  1.9999999999352696e+02 -1.0411595455032374e-10 -7.7699056282364110e-11  1.9999999999261721e+02 -1.1478223331421026e-10 -6.2583519846429610e-11  1.9999999999266549e+02 -1.5850476934963981e-11 2.3997969060296218e-11  1.9999999999286851e+02 8.7757274860919054e-11 1.1775218367503088e-10  1.9999999999264983e+02 -5.4753682157941941e-11 5.6810646708801871e-11  1.9999999999353554e+02 -1.6692072435209050e-10 -1.5625380501513019e-10  1.9999999999351584e+02 -1.7795064974300718e-10 -8.8911559162942737e-11  1.9999999999363581e+02 -4.3295958772930536e-11 3.1860976155402727e-11  1.9999999999898733e+02 -6.2056909562507395e-11 -5.8976776691788194e-11  1.9999999999819318e+02 -1.9965670689355941e-10 -2.2649321158611698e-11  1.9999999999817814e+02 -8.1386863360823674e-11 -5.7591061841614769e-11  1.9999999999816754e+02 1.4423407310543458e-10 8.2772849859027957e-11  1.9999999999902658e+02 -1.0457595381217053e-10 -1.4788951088802283e-10  1.9999999999972613e+02 -2.0179136117713298e-11 3.6989206477045800e-12  1.9999999999999244e+02 -8.2087988739268451e-11 -1.1560919296623632e-11  2.0000000000061442e+02 1.4303968289513026e-10 6.4643061495254318e-11  1.9999999999895863e+02 -8.4030234596012788e-11 7.4150680893162628e-11  1.9999999999716530e+02 -5.0013970567311989e-11 -7.0375029654234556e-11  1.9999999999616043e+02 -9.8796553777989970e-11 -9.5429751143992414e-11  1.9999999999636103e+02 -4.3229525238752901e-11 2.3333395694688241e-