<?xml version="1.0"?>
<VTKFile type="UnstructuredGrid"  version="0.1"  >
<UnstructuredGrid>
<Piece  NumberOfPoints="4075" NumberOfCells="20137">
<Points>
<DataArray  type="Float64"  NumberOfComponents="3"  format="ascii">27.5 37.5 37.5  27.5 37.5 38.75  27.5 36.25 38.75  26.25 36.25 38.75  27.5 37.5 40  27.5 35 40  27.5 36.25 40  26.25 37.5 38.75  27.5 38.75 38.75  27.5 38.75 37.5  26.25 38.75 38.75  27.5 40 37.5  27.5 40 38.75  27.5 40 40  27.5 38.75 40  27.5 38.75 41.25  26.25 38.75 41.25  27.5 40 41.25  27.5 40 42.5  27.5 37.5 41.25  27.5 37.5 42.5  27.5 38.75 42.5  26.25 40 41.25  27.5 41.25 41.25  27.5 41.25 40  26.25 41.25 41.25  27.5 42.5 40  27.5 42.5 41.25  27.5 42.5 42.5  27.5 41.25 42.5  45 37.5 35  45 37.5 36.25  45 36.25 36.25  43.75 36.25 36.25  45 37.5 37.5  45 35 37.5  45 36.25 37.5  42.5 35 37.5  43.75 36.25 37.5  43.75 35 37.5  42.5 37.5 35  43.75 37.5 36.25  43.75 37.5 35  47.5 37.5 35  47.5 37.5 36.25  47.5 36.25 36.25  46.25 36.25 36.25  47.5 37.5 37.5  47.5 35 37.5  47.5 36.25 37.5  46.25 36.25 37.5  46.25 35 37.5  46.25 37.5 36.25  46.25 37.5 37.5  50 37.5 35  50 37.5 36.25  50 36.25 36.25  48.75 36.25 36.25  50 37.5 37.5  50 35 37.5  50 36.25 37.5  48.75 36.25 37.5  48.75 35 37.5  48.75 37.5 36.25  48.75 37.5 35  48.75 37.5 37.5  42.5 35 38.75  42.5 33.75 38.75  41.25 33.75 38.75  42.5 35 40  42.5 32.5 37.5  42.5 32.5 38.75  42.5 32.5 40  42.5 33.75 40  43.75 35 38.75  43.75 33.75 38.75  45 35 38.75  45 35 40  43.75 33.75 40  43.75 35 40  47.5 35 38.75  46.25 35 38.75  46.25 33.75 38.75  47.5 35 40  48.75 35 38.75  48.75 33.75 38.75  46.25 36.25 38.75  47.5 36.25 38.75  47.5 37.5 38.75  47.5 37.5 40  47.5 36.25 40  48.75 36.25 38.75  50 36.25 38.75  50 37.5 38.75  50 37.5 40  50 35 38.75  50 35 40  50 36.25 40  48.75 36.25 40  48.75 35 40  48.75 37.5 38.75  48.75 37.5 40  45 35 41.25  45 33.75 41.25  43.75 33.75 41.25  45 35 42.5  47.5 35 41.25  47.5 33.75 41.25  46.25 33.75 41.25  47.5 35 42.5  46.25 35 41.25  46.25 35 40  46.25 35 42.5  48.75 35 41.25  48.75 33.75 41.25  50 35 41.25  50 35 42.5  48.75 35 42.5  48.75 33.75 42.5  30 37.5 32.5  30 38.75 33.75  30 37.5 33.75  28.75 38.75 33.75  30 37.5 35  30 38.75 35  30 40 35  27.5 37.5 35  28.75 38.75 35  28.75 37.5 35  27.5 38.75 35  27.5 38.75 33.75  27.5 40 35  28.75 40 35  32.5 37.5 32.5  32.5 38.75 33.75  32.5 38.75 32.5  31.25 38.75 33.75  32.5 40 32.5  32.5 40 33.75  32.5 40 35  32.5 37.5 33.75  32.5 37.5 35  32.5 38.75 35  31.25 38.75 35  31.25 37.5 35  31.25 40 35  35 40 32.5  35 40 33.75  35 38.75 33.75  33.75 38.75 33.75  35 40 35  35 37.5 35  35 38.75 35  33.75 38.75 35  33.75 37.5 35  33.75 40 33.75  33.75 40 32.5  33.75 40 35  37.5 40 32.5  37.5 40 33.75  37.5 38.75 33.75  36.25 38.75 33.75  37.5 38.75 32.5  36.25 38.75 32.5  37.5 40 35  37.5 37.5 35  37.5 38.75 35  36.25 38.75 35  36.25 37.5 35  36.25 40 33.75  36.25 40 32.5  36.25 40 35  40 40 32.5  40 40 33.75  40 38.75 33.75  38.75 38.75 33.75  40 38.75 32.5  38.75 38.75 32.5  40 40 35  40 37.5 35  40 38.75 35  38.75 38.75 35  38.75 40 33.75  38.75 40 32.5  38.75 40 35  42.5 37.5 32.5  42.5 38.75 33.75  42.5 37.5 33.75  41.25 38.75 33.75  42.5 38.75 35  42.5 40 35  41.25 38.75 35  41.25 37.5 35  41.25 40 35  41.25 40 33.75  43.75 38.75 35  43.75 38.75 33.75  45 38.75 35  45 40 35  43.75 40 35  33.75 41.25 33.75  35 41.25 33.75  35 41.25 35  35 42.5 35  33.75 41.25 35  36.25 41.25 33.75  37.5 41.25 33.75  37.5 41.25 35  37.5 42.5 35  36.25 41.25 35  36.25 42.5 35  38.75 41.25 33.75  40 41.25 33.75  40 41.25 35  40 42.5 35  38.75 41.25 35  38.75 42.5 35  41.25 41.25 33.75  41.25 41.25 35  42.5 41.25 35  42.5 42.5 35  41.25 42.5 35  30 37.5 36.25  30 36.25 36.25  28.75 36.25 36.25  30 37.5 37.5  30 35 37.5  30 36.25 37.5  28.75 36.25 37.5  28.75 37.5 36.25  28.75 37.5 37.5  27.5 37.5 36.25  32.5 37.5 36.25  32.5 36.25 36.25  31.25 36.25 36.25  32.5 37.5 37.5  32.5 35 37.5  32.5 36.25 37.5  31.25 36.25 37.5  31.25 35 37.5  31.25 37.5 36.25  31.25 37.5 37.5  35 37.5 36.25  35 36.25 36.25  33.75 36.25 36.25  35 37.5 37.5  35 35 37.5  35 36.25 37.5  33.75 36.25 37.5  33.75 35 37.5  33.75 37.5 36.25  33.75 37.5 37.5  37.5 37.5 36.25  37.5 36.25 36.25  36.25 36.25 36.25  37.5 37.5 37.5  37.5 35 37.5  37.5 36.25 37.5  36.25 36.25 37.5  36.25 35 37.5  36.25 37.5 36.25  36.25 37.5 37.5  40 37.5 36.25  40 36.25 36.25  38.75 36.25 36.25  40 37.5 37.5  40 35 37.5  40 36.25 37.5  38.75 36.25 37.5  38.75 35 37.5  38.75 37.5 36.25  38.75 37.5 37.5  42.5 37.5 36.25  42.5 36.25 36.25  41.25 36.25 36.25  42.5 37.5 37.5  42.5 36.25 37.5  41.25 36.25 37.5  41.25 37.5 36.25  41.25 37.5 37.5  43.75 37.5 37.5  28.75 38.75 36.25  30 38.75 36.25  30 40 36.25  30 40 37.5  30 38.75 37.5  28.75 38.75 37.5  28.75 40 36.25  27.5 38.75 36.25  28.75 40 37.5  27.5 40 36.25  31.25 38.75 36.25  32.5 38.75 36.25  32.5 40 36.25  32.5 40 37.5  32.5 38.75 37.5  31.25 38.75 37.5  31.25 40 36.25  31.25 40 37.5  33.75 38.75 36.25  35 38.75 36.25  35 40 36.25  35 40 37.5  35 38.75 37.5  33.75 38.75 37.5  33.75 40 36.25  33.75 40 37.5  36.25 38.75 36.25  37.5 38.75 36.25  37.5 40 36.25  37.5 40 37.5  37.5 38.75 37.5  36.25 38.75 37.5  36.25 40 36.25  36.25 40 37.5  40 38.75 36.25  38.75 38.75 36.25  40 40 36.25  40 40 37.5  40 38.75 37.5  38.75 38.75 37.5  38.75 40 36.25  38.75 40 37.5  41.25 38.75 36.25  42.5 38.75 36.25  42.5 40 36.25  42.5 40 37.5  42.5 38.75 37.5  41.25 38.75 37.5  41.25 40 36.25  41.25 40 37.5  43.75 38.75 36.25  45 38.75 36.25  45 40 36.25  45 40 37.5  45 38.75 37.5  43.75 38.75 37.5  43.75 40 36.25  43.75 40 37.5  47.5 38.75 36.25  47.5 38.75 35  46.25 38.75 36.25  46.25 38.75 35  47.5 40 35  47.5 40 36.25  47.5 40 37.5  47.5 38.75 37.5  46.25 38.75 37.5  46.25 40 36.25  46.25 40 35  46.25 40 37.5  48.75 38.75 36.25  48.75 38.75 35  50 38.75 36.25  50 38.75 35  50 40 35  50 40 36.25  50 40 37.5  50 38.75 37.5  48.75 38.75 37.5  48.75 40 36.25  48.75 40 35  48.75 40 37.5  28.75 41.25 36.25  28.75 41.25 35  30 41.25 36.25  30 41.25 35  30 42.5 35  30 42.5 36.25  30 42.5 37.5  30 41.25 37.5  28.75 41.25 37.5  27.5 42.5 35  28.75 42.5 36.25  28.75 42.5 35  27.5 41.25 37.5  27.5 42.5 37.5  28.75 42.5 37.5  31.25 41.25 36.25  31.25 41.25 35  32.5 41.25 36.25  32.5 41.25 35  32.5 42.5 35  32.5 42.5 36.25  32.5 42.5 37.5  32.5 41.25 37.5  31.25 41.25 37.5  31.25 42.5 36.25  31.25 42.5 35  31.25 42.5 37.5  33.75 41.25 36.25  35 41.25 36.25  35 42.5 36.25  35 42.5 37.5  35 41.25 37.5  33.75 41.25 37.5  33.75 42.5 36.25  33.75 42.5 35  33.75 42.5 37.5  36.25 41.25 36.25  37.5 41.25 36.25  37.5 42.5 36.25  37.5 42.5 37.5  37.5 41.25 37.5  36.25 41.25 37.5  36.25 42.5 36.25  36.25 42.5 37.5  38.75 41.25 36.25  40 41.25 36.25  40 42.5 36.25  40 42.5 37.5  40 41.25 37.5  38.75 41.25 37.5  38.75 42.5 36.25  38.75 42.5 37.5  41.25 41.25 36.25  42.5 41.25 36.25  42.5 42.5 36.25  42.5 42.5 37.5  42.5 41.25 37.5  41.25 41.25 37.5  41.25 42.5 36.25  41.25 42.5 37.5  43.75 41.25 36.25  43.75 41.25 35  45 41.25 36.25  45 41.25 35  45 42.5 35  45 42.5 36.25  45 42.5 37.5  45 41.25 37.5  43.75 41.25 37.5  43.75 42.5 36.25  43.75 42.5 35  43.75 42.5 37.5  46.25 41.25 36.25  46.25 41.25 35  47.5 41.25 36.25  47.5 41.25 35  47.5 42.5 35  47.5 42.5 36.25  47.5 42.5 37.5  47.5 41.25 37.5  46.25 41.25 37.5  46.25 42.5 36.25  46.25 42.5 35  46.25 42.5 37.5  48.75 41.25 36.25  48.75 41.25 35  50 41.25 36.25  50 41.25 35  50 42.5 35  50 42.5 36.25  50 42.5 37.5  50 41.25 37.5  48.75 41.25 37.5  48.75 42.5 36.25  48.75 42.5 35  48.75 42.5 37.5  28.75 43.75 36.25  28.75 43.75 35  30 43.75 36.25  30 43.75 35  30 45 35  30 45 36.25  30 45 37.5  30 43.75 37.5  28.75 43.75 37.5  27.5 43.75 35  27.5 45 35  28.75 45 36.25  28.75 45 35  31.25 43.75 36.25  31.25 43.75 35  32.5 43.75 36.25  32.5 43.75 35  32.5 45 35  32.5 45 36.25  32.5 45 37.5  32.5 43.75 37.5  31.25 43.75 37.5  31.25 45 36.25  31.25 45 35  31.25 45 37.5  33.75 43.75 36.25  33.75 43.75 35  35 43.75 36.25  35 43.75 35  35 45 35  35 45 36.25  35 45 37.5  35 43.75 37.5  33.75 43.75 37.5  33.75 45 36.25  33.75 45 35  33.75 45 37.5  36.25 43.75 36.25  36.25 43.75 35  37.5 43.75 36.25  37.5 43.75 35  37.5 45 35  37.5 45 36.25  37.5 45 37.5  37.5 43.75 37.5  36.25 43.75 37.5  36.25 45 36.25  36.25 45 35  36.25 45 37.5  38.75 43.75 36.25  38.75 43.75 35  40 43.75 36.25  40 43.75 35  40 45 35  40 45 36.25  40 45 37.5  40 43.75 37.5  38.75 43.75 37.5  38.75 45 36.25  38.75 45 35  38.75 45 37.5  41.25 43.75 36.25  41.25 43.75 35  42.5 43.75 36.25  42.5 43.75 35  42.5 45 35  42.5 45 36.25  42.5 45 37.5  42.5 43.75 37.5  41.25 43.75 37.5  41.25 45 36.25  41.25 45 35  41.25 45 37.5  43.75 43.75 36.25  43.75 43.75 35  45 43.75 36.25  45 43.75 35  45 45 35  45 45 36.25  45 45 37.5  45 43.75 37.5  43.75 43.75 37.5  43.75 45 36.25  43.75 45 35  43.75 45 37.5  46.25 43.75 36.25  46.25 43.75 35  47.5 43.75 36.25  47.5 43.75 35  47.5 45 35  47.5 45 36.25  47.5 45 37.5  47.5 43.75 37.5  46.25 43.75 37.5  46.25 45 36.25  46.25 45 35  46.25 45 37.5  48.75 43.75 36.25  48.75 43.75 35  50 43.75 36.25  50 43.75 35  50 45 35  50 45 36.25  50 45 37.5  50 43.75 37.5  48.75 43.75 37.5  48.75 45 36.25  48.75 45 35  48.75 45 37.5  28.75 46.25 36.25  28.75 46.25 35  30 46.25 36.25  30 46.25 35  30 47.5 35  30 47.5 36.25  30 47.5 37.5  30 46.25 37.5  28.75 46.25 37.5  28.75 47.5 36.25  27.5 47.5 37.5  28.75 47.5 37.5  31.25 46.25 36.25  31.25 46.25 35  32.5 46.25 36.25  32.5 46.25 35  32.5 47.5 35  32.5 47.5 36.25  32.5 47.5 37.5  32.5 46.25 37.5  31.25 46.25 37.5  31.25 47.5 36.25  31.25 47.5 35  31.25 47.5 37.5  33.75 46.25 36.25  33.75 46.25 35  35 46.25 36.25  35 46.25 35  35 47.5 35  35 47.5 36.25  35 47.5 37.5  35 46.25 37.5  33.75 46.25 37.5  33.75 47.5 36.25  33.75 47.5 35  33.75 47.5 37.5  36.25 46.25 36.25  36.25 46.25 35  37.5 46.25 36.25  37.5 46.25 35  37.5 47.5 35  37.5 47.5 36.25  37.5 47.5 37.5  37.5 46.25 37.5  36.25 46.25 37.5  36.25 47.5 36.25  36.25 47.5 35  36.25 47.5 37.5  38.75 46.25 36.25  38.75 46.25 35  40 46.25 36.25  40 46.25 35  40 47.5 35  40 47.5 36.25  40 47.5 37.5  40
[...]
<PointData  Vectors="u"> 
<DataArray  type="Float64"  Name="u"  NumberOfComponents="3" format="ascii">1.9999999998080369e+02 6.7435946793420646e-11 9.1782977181941230e-11  1.9999999998060181e+02 -1.8512843361501737e-11 -6.5015542621752541e-11  1.9999999998053221e+02 -1.2582489958394495e-10 -9.1998744542398940e-11  1.9999999998145947e+02 -9.6320383485590438e-11 -9.6827025531819566e-11  1.9999999998080273e+02 4.7224816061502986e-11 1.0239879235731319e-10  1.9999999998080867e+02 8.4427833694365478e-11 7.2593226830741553e-11  1.9999999998060230e+02 1.3937936033630923e-11 1.4438470418945211e-11  1.9999999998144060e+02 -2.2374978178018641e-10 -1.6345668880325971e-10  1.9999999998058834e+02 -1.3323734661553061e-10 -1.0669226106496926e-10  1.9999999998058283e+02 -3.1235135842740671e-11 -3.3175300719392655e-11  1.9999999998141703e+02 -7.0933799304969960e-11 -1.1251523057535069e-10  1.9999999998078064e+02 1.1372330228380289e-10 5.2919603516988490e-11  1.9999999998064249e+02 4.0279595339878543e-11 -6.3355493986238996e-11  1.9999999998079289e+02 9.1618013337366543e-11 9.5705946290383768e-11  1.9999999998062381e+02 -3.2364708482918409e-11 -4.2214362313157856e-13  1.9999999998057214e+02 -1.1109853443092021e-10 -1.3532776005477948e-10  1.9999999998143446e+02 -7.7921640074440133e-11 -1.1123349176161426e-10  1.9999999998062754e+02 -4.5138811228948370e-12 -3.1244855107157033e-11  1.9999999998080705e+02 7.9281686371028013e-11 9.0330909156659194e-11  1.9999999998056987e+02 -2.5344641425877658e-11 -8.0874085174651600e-11  1.9999999998077314e+02 7.0040168588772495e-11 1.0235411383456241e-10  1.9999999998061131e+02 9.8338819616793460e-12 3.1571796657258960e-12  1.9999999998139521e+02 -2.0973213575902885e-10 -1.4952115918534214e-10  1.9999999998059039e+02 -1.3071089474743765e-10 -1.5176305490712544e-10  1.9999999998061716e+02 -2.2815940740549816e-11 -4.4700577591185583e-12  1.9999999998143267e+02 -1.2469922840820848e-10 -1.3011325558505841e-10  1.9999999998081813e+02 6.6911594698799462e-11 8.6338725499590882e-11  1.9999999998062222e+02 5.6935771054542662e-12 -2.6400281525585228e-11  1.9999999998080608e+02 7.3638895590582729e-11 7.5977132294790993e-11  1.9999999998062546e+02 -4.1689327482835488e-11 2.9518710999994647e-11  1.9999999996961506e+02 1.3345126138204000e-10 -4.3919492738171589e-12  1.9999999996955981e+02 -8.3669971995644277e-11 -3.1141164106668897e-11  1.9999999996938308e+02 -1.4166221640890975e-10 -9.8960210224418965e-11  1.9999999997023673e+02 -1.0629905573512102e-10 -1.0478181639127759e-10  1.9999999996963541e+02 7.5539065704878613e-11 7.8376314366163399e-11  1.9999999996963192e+02 6.9258972245155631e-11 6.5999631848557666e-11  1.9999999996957305e+02 -8.4218619525675546e-11 -9.8913514787521461e-11  1.9999999997110771e+02 5.4482895554234423e-11 8.1013616199353985e-11  1.9999999997023164e+02 -1.2739323513078969e-10 -1.7046699932121317e-10  1.9999999997028749e+02 -5.7462413244648364e-11 -1.3487991950835301e-12  1.9999999997116225e+02 1.0405399076869585e-10 3.4526617395676438e-11  1.9999999997025199e+02 -1.6132728039468324e-10 -1.5059047290634411e-10  1.9999999997024656e+02 -3.2451146880405017e-11 -4.6547940315987618e-11  1.9999999996813128e+02 1.1236580829707322e-10 4.9216851737204872e-11  1.9999999996804206e+02 -8.4520879821882540e-11 -3.2599092795882588e-11  1.9999999996787986e+02 -1.0631944979902765e-10 -1.1007552803072388e-10  1.9999999996872106e+02 -1.1079795111671427e-10 -8.5526400436864574e-11  1.9999999996809314e+02 7.3208968551390464e-11 5.4131658578753413e-11  1.9999999996806619e+02 7.4694614599368445e-11 4.4283816783868299e-11  1.9999999996801080e+02 -2.5680012879123793e-11 -2.1753563678776360e-11  1.9999999996868962e+02 -1.0459588790587935e-10 -1.8850834583650591e-10  1.9999999996880791e+02 -2.1549645366021117e-12 -6.4648735343932526e-11  1.9999999996871642e+02 -1.7258317658710218e-10 -9.9768529103363681e-11  1.9999999996881164e+02 -1.2378716196173519e-10 -9.8152757201498432e-12  1.9999999996647790e+02 4.6956524777795993e-11 3.8382491895210154e-11  1.9999999996632076e+02 -1.3866935717584281e-10 -2.0091459678730053e-11  1.9999999996620804e+02 9.8456225134807806e-12 5.2630197938789683e-12  1.9999999996721115e+02 -8.4354471266896107e-11 -9.9065537306917588e-11  1.9999999996647691e+02 3.3401431472535191e-11 1.9915102017675225e-11  1.9999999996649325e+02 2.6959338287152101e-11 1.9831774012836538e-11  1.9999999996630018e+02 -2.3725972236904107e-11 1.1371477779696061e-11  1.9999999996724677e+02 -9.4801721992504177e-11 -2.2441710926685440e-10  1.9999999996729926e+02 -2.1061482808578951e-11 -3.3004776768196586e-11  1.9999999996720919e+02 -1.4989509423223196e-10 -1.1188644384215576e-10  1.9999999996727439e+02 -9.6485795561457452e-11 6.7396903137128526e-11  1.9999999996726012e+02 -7.6876389421271803e-11 -3.9560292536702599e-11  1.9999999997112604e+02 -8.1802706678631101e-11 -1.5666222446442692e-11  1.9999999997089583e+02 -9.4666677143574187e-11 -1.2592059261004322e-10  1.9999999997173930e+02 -1.1053382148657228e-10 -1.0425438149181545e-10  1.9999999997112377e+02 7.1394051669559826e-11 8.9484428612883197e-11  1.9999999997116183e+02 7.5082585432138940e-11 6.4984307554221133e-11  1.9999999997104550e+02 -3.7098380058756961e-11 -2.4359211922332802e-11  1.9999999997113585e+02 9.6019100632302242e-11 9.7277867697849905e-11  1.9999999997108873e+02 -3.4172308803149262e-11 -7.3729114906517372e-11  1.9999999997017636e+02 -1.1825509225255936e-10 -1.0082510351159253e-10  1.9999999997020265e+02 -1.1346779360548678e-10 -8.6560972741635379e-11  1.9999999996952593e+02 -8.2106805188042037e-11 -4.4802987697382896e-11  1.9999999996959113e+02 9.5729123057062712e-11 8.9440246665506834e-11  1.9999999997021513e+02 -1.3602516880895327e-10 -1.5392870106243497e-10  1.9999999997029818e+02 -6.5056888406427342e-11 4.6355996045044790e-11  1.9999999996802958e+02 1.1498712407667010e-11 -4.5624810848412921e-11  1.9999999996869161e+02 -1.0562818261767736e-10 -1.2460911379671157e-10  1.9999999996869735e+02 -1.3649797373251484e-10 -1.0757568826954422e-10  1.9999999996807296e+02 6.9840627553463919e-11 9.4148648208109234e-11  1.9999999996724924e+02 -1.8673752778731306e-10 -9.0849337802838897e-11  1.9999999996722099e+02 -1.1729592250182107e-10 -1.0241896464642847e-10  1.9999999996872307e+02 -8.8516779951947318e-11 -8.0068210763787444e-11  1.9999999996782782e+02 -1.1017754239665624e-10 -1.0247392665232471e-10  1.9999999996808728e+02 -1.2900319230552627e-10 -7.0644105487068695e-11  1.9999999996809046e+02 4.6542577005074265e-11 9.6923238966909055e-11  1.9999999996805735e+02 -3.6525370755694777e-11 -1.0439282789469606e-10  1.9999999996721110e+02 -9.9172813488937717e-11 -9.7981989072551532e-11  1.9999999996623822e+02 2.4449130492238334e-11 1.9900811766963421e-11  1.9999999996637814e+02 -1.5532811611867415e-10 2.9130780060864361e-12  1.9999999996645005e+02 1.9263555093438348e-11 4.2828637885806196e-11  1.9999999996632957e+02 1.5254370984898366e-11 -1.4517759862319453e-11  1.9999999996647449e+02 2.2004057635231229e-11 4.7575077396504200e-11  1.9999999996631880e+02 -8.3673204120169925e-12 -1.4602268752299131e-10  1.9999999996725046e+02 -9.1745675259891021e-11 -1.1383995936996798e-10  1.9999999996731722e+02 -2.6399817800890882e-11 -2.2011874257184879e-11  1.9999999996723486e+02 -1.2470997471693501e-10 -1.1883090389787020e-10  1.9999999996729829e+02 -9.3629629916795683e-11 -2.6077489586533736e-11  1.9999999996960119e+02 -1.0338207582558754e-10 1.3499859764983810e-11  1.9999999996937765e+02 -1.0565772193589438e-10 -7.0046152204182731e-11  1.9999999997020711e+02 -9.6959671575685296e-11 -7.3014078251039031e-11  1.9999999996961603e+02 6.8968633184401824e-11 9.5357714041734641e-11  1.9999999996800781e+02 -8.0568823031256142e-11 -1.5421035250194402e-11  1.9999999996787139e+02 -9.8926332544150068e-11 -8.6548685197324502e-11  1.9999999996868596e+02 -9.2409522488716649e-11 -8.5290527818639725e-11  1.9999999996806784e+02 4.7787950179163744e-11 9.0796034656205001e-11  1.9999999996868650e+02 -1.0678429015266399e-10 -1.2779018370857319e-10  1.9999999996879075e+02 1.3915902272221377e-11 3.3187958064545021e-11  1.9999999996876525e+02 -6.4910012643014348e-11 -1.4408541603268068e-11  1.9999999996722954e+02 -1.5366152003193358e-10 -9.7840088444653556e-11  1.9999999996720197e+02 -1.1895135220485567e-10 -9.9227993151872287e-11  1.9999999996630780e+02 -1.6230372563912681e-10 -2.0539283742424166e-11  1.9999999996650834e+02 5.2593238682967364e-12 2.1470707785071483e-11  1.9999999996721843e+02 -1.2394485874253790e-10 -9.6559151158175204e-11  1.9999999996720052e+02 -1.2080716317674621e-10 -1.6570338999227885e-10  1.9999999997908225e+02 7.4912553571353576e-11 2.0262714907255395e-11  1.9999999997881332e+02 -6.1802919418921609e-11 -6.8310850673674737e-12  1.9999999997903413e+02 -2.5781086461668183e-11 -7.7330740397259596e-11  1.9999999997979722e+02 -8.4554800644765406e-11 1.3066967946720322e-11  1.9999999997910359e+02 1.0319239421245289e-10 9.9739984958987591e-11  1.9999999997900630e+02 -2.8349432186762764e-12 -3.4310134686186212e-11  1.9999999997908003e+02 1.2363796925532564e-10 3.0686659565452741e-11  1.9999999998077172e+02 7.4871584661499482e-11 6.0173953958630945e-11  1.9999999997974155e+02 -9.0191172362813972e-11 -1.6075219138724563e-10  1.9999999997981749e+02 -1.5695131137636884e-11 -4.7873711903003401e-11  1.9999999998060017e+02 5.8759921860539182e-12 8.5450113366201200e-11  1.9999999998070385e+02 -2.8777595157655782e-11 -6.5905548476919665e-11  1.9999999998079124e+02 9.6334999857871225e-11 7.3945992118933657e-11  1.9999999997985475e+02 -5.4008358364268989e-11 4.8056992996132972e-11  1.9999999997746508e+02 1.1752500886952721e-10 6.0514234975340584e-11  1.9999999997738956e+02 -2.2360088030045901e-10 -1.7284183845100587e-10  1.9999999997744638e+02 -2.0418081606966056e-11 -2.2064631505277662e-11  1.9999999997819725e+02 -5.5884978412713207e-11 -9.9312783655376480e-11  1.9999999997744411e+02 9.3314831917858312e-11 2.0027920537960868e-11  1.9999999997736288e+02 -5.5113914256661234e-11 -2.7561162771917876e-11  1.9999999997745124e+02 1.4287372378549425e-10 5.9586562250989052e-11  1.9999999997742790e+02 -1.1778205992427614e-10 -4.2580949095012474e-12  1.9999999997749234e+02 7.8410343120794388e-11 6.2084202689163863e-11  1.9999999997738959e+02 -6.0248002114468829e-11 -1.7014099635465278e-11  1.9999999997808339e+02 -9.1016554514649728e-11 -2.5544262529673379e-10  1.9999999997818733e+02 -3.0657497450240337e-11 -4.2535731646578263e-11  1.9999999997817642e+02 -6.2923108160628547e-11 -1.5347255092460303e-11  1.9999999997590544e+02 1.0344051172851160e-10 1.1499449845067643e-11  1.9999999997582086e+02 -2.3869016232782552e-11 -1.9992586953999249e-11  1.9999999997564120e+02 -9.4735388823815307e-11 -1.0860407725554534e-10  1.9999999997652057e+02 -8.2010082309873017e-11 -8.9660851366158888e-11  1.9999999997587219e+02 9.7596871714100603e-11 6.8026933878910100e-11  1.9999999997586033e+02 6.2375018014896904e-11 9.3256416285245087e-11  1.9999999997577683e+02 -6.9305797632660033e-11 -1.5958586641682814e-11  1.9999999997650366e+02 -1.3106975146180786e-10 -1.3726680552161652e-10  1.9999999997658134e+02 -4.3910840897807342e-11 2.3365252208800153e-11  1.9999999997651361e+02 -1.7787986617904743e-10 -1.1774169076819403e-10  1.9999999997655044e+02 -3.6541079602542456e-11 8.7409142703463713e-11  1.9999999997657304e+02 -1.8948846219324615e-11 7.8012955760218380e-13  1.9999999997426724e+02 1.1621335645982684e-10 -1.1554381073433640e-11  1.9999999997419724e+02 -2.4675199917178076e-11 -2.8773940379633664e-11  1.9999999997395088e+02 -1.3177983101906245e-10 -9.3274537430381032e-11  1.9999999997493342e+02 -9.0567673829449102e-11 -8.6790940676166350e-11  1.9999999997413849e+02 -4.6045921015475925e-11 9.2221587826209629e-11  1.9999999997479057e+02 -1.8355691614560518e-10 -1.1713730841978456e-10  1.9999999997427437e+02 9.7157687362926883e-11 6.8059433739490250e-11  1.9999999997428168e+02 5.4412063918713283e-11 5.5280625492083059e-11  1.9999999997419704e+02 -5.4580243325138919e-11 -1.4112287184636909e-11  1.9999999997488976e+02 -1.2273228367601861e-10 -1.9176880803219659e-10  1.9999999997496673e+02 -1.6680864754978714e-11 -2.0072274186441452e-11  1.9999999997485318e+02 -1.6405903989942586e-10 -1.1913545125393197e-10  1.9999999997496820e+02 -3.4674049681779502e-11 6.1077649252594157e-11  1.9999999997498452e+02 1.8893790840980198e-11 -2.0736157490358298e-11  1.9999999997275970e+02 1.2142617721202859e-10 -1.5008393716953605e-11  1.9999999997266042e+02 3.8112682793552110e-11 -2.2019561724162606e-11  1.9999999997253906e+02 -1.1567482771461008e-10 -9.2357304825876639e-11  1.9999999997335672e+02 -8.7904902436580900e-11 -6.1844632878910292e-11  1.9999999997261435e+02 -6.3085485853310986e-11 3.0625621966154549e-11  1.9999999997322294e+02 -2.2516809536109368e-10 -1.0027863465295621e-10  1.9999999997274313e+02 1.0991707658213324e-10 6.1631068144774864e-11  1.9999999997270149e+02 6.4566643952424440e-11 9.3967784644770020e-11  1.9999999997262361e+02 -4.9511718339108361e-11 -1.9138519277030467e-11  1.9999999997329613e+02 -1.1778181217321469e-10 -2.0660922828281196e-10  1.9999999997329542e+02 -1.8196255619115791e-10 -1.0077475046409681e-10  1.9999999997340313e+02 1.0929002097242372e-11 5.3218190443069718e-11  1.9999999997339540e+02 -7.0819236414417215e-12 -2.3765183869159745e-11  1.9999999997119050e+02 7.1623805359102485e-11 5.5597735858568761e-11  1.9999999997089444e+02 -1.4939227273562400e-10 2.2306910604733650e-12  1.9999999997111493e+02 -7.8269673411036958e-11 -5.3513563319472927e-12  1.9999999997183085e+02 -8.7492129546746062e-11 -4.1371196719960402e-11  1.9999999997104624e+02 -5.9825036095927482e-11 -8.2195471096390698e-11  1.9999999997117996e+02 1.0156206567116131e-10 -2.2706890195880446e-11  1.9999999997181447e+02 -1.2861208180140056e-10 -1.6770051662801554e-10  1.9999999997192003e+02 -6.8714295404263837e-11 -5.8765872908154657e-11  1.9999999997183539e+02 3.9073643948137440e-11 -2.7771705589159049e-11  1.9999999997177864e+02 -2.0402227123704800e-10 -7.7680104384869864e-11  1.9999999997021487e+02 -1.4647368399600512e-10 -2.3982820190308609e-10  1.9999999997023889e+02 -9.5702370423640720e-11 -2.0131791058433831e-11  1.9999999996941713e+02 -4.4885276681518843e-11 -5.5426055781973577e-11  1.9999999996963686e+02 7.3507694000113957e-11 -5.1783808023918479e-11  1.9999999997022496e+02 -8.5399242137574856e-11 -4.1553230334674812e-11  1.9999999997656366e+02 -3.1680660958784538e-11 -5.1110653710705537e-11  1.9999999997556694e+02 -8.6873505542813993e-11 -4.3417711478712563e-11  1.9999999997578880e+02 -1.6772085624443581e-11 -3.9691606119929360e-11  1.9999999997585527e+02 1.2015640348764629e-10 9.6670812513385906e-12  1.9999999997655297e+02 -9.3116606238564126e-11 -2.5486630820753820e-10  1.9999999997489502e+02 -5.9991490443574917e-11 -5.5919675575091110e-11  1.9999999997397063e+02 -8.4433131704446866e-11 -2.0912252953213227e-11  1.9999999997418030e+02 -9.0360097669155808e-12 -3.9675118674938342e-11  1.9999999997429470e+02 1.1115474725049029e-10 5.7359958512738394e-12  1.9999999997489641e+02 -1.1734457020523185e-10 -1.9749876006502836e-10  1.9999999997495900e+02 -1.0298430730581380e-10 -2.9678419925468155e-12  1.9999999997333362e+02 -4.5176193195011027e-11 -6.6991474518364444e-11  1.9999999997243572e+02 -7.5030469575165632e-11 -5.4150055940918471e-11  1.9999999997264905e+02 -3.8846214510923685e-11 -4.4551551794398871e-11  1.9999999997275467e+02 1.1687977303137463e-10 -2.9508470287192119e-11  1.9999999997330494e+02 -1.0127500385648659e-10 -1.8520021134485911e-10  1.9999999997339802e+02 -6.1323182413549196e-11 9.7343438878949130e-12  1.9999999997181425e+02 -6.4390214372871931e-11 -2.7244898038550731e-11  1.9999999997176437e+02 -1.1906591014645493e-10 -2.9488804946172483e-10  1.9999999997098240e+02 -6.6901826202971501e-11 -6.7110527439510064e-11  1.9999999997116828e+02 1.1197479941665275e-10 -5.7891679846898343e-11  1.9999999997180851e+02 -8.0088287292500969e-11 -7.0930333347491608e-11  1.9999999997902745e+02 -1.4294737105170688e-11 -8.1325785332366555e-11  1.9999999997886047e+02 -1.1467516806765890e-10 -1.2291207817492605e-10  1.9999999997973171e+02 -8.0617457824329089e-11 -3.8350341168851950e-11  1.9999999997903868e+02 9.9019099471438938e-11 1.0432434472221649e-10  1.9999999997904595e+02 5.3139203358274915e-12 1.0425122789314520e-10  1.9999999997901975e+02 -5.5505158426878311e-11 -1.3251476173659890e-10  1.9999999997978858e+02 -8.3216055604041213e-11 -7.0098005879288714e-11  1.9999999997971884e+02 -1.6516672174004533e-10 -6.6719188893352218e-11  1.9999999997977679e+02 -9.1822094791165912e-11 2.0604347866679437e-11  1.9999999998061199e+02 2.5730027446957719e-11 -1.6657370498761692e-11  1.9999999997737427e+02 -3.3780983975794755e-11 -6.8949492007626601e-11  1.9999999997725908e+02 -1.0413010780810124e-10 -1.3077377527388112e-10  1.9999999997813606e+02 -8.6940584126346604e-11 -9.8910946629647311e-11  1.9999999997750328e+02 1.0109619780086546e-10 7.1721525562720534e-11  1.9999999997750871e+02 -1.5125055244008424e-12 1.0570045610512345e-10  1.9999999997740099e+02 -9.9386319146579190e-11 -4.6872032374924032e-11  1.9999999997813055e+02 -1.0170947710625855e-10 -2.0458012172057752e-10  1.9999999997818017e+02 -5.5832069239798233e-11 -8.5825079777159500e-11  1.9999999997810090e+02 -2.1711413850091859e-10 -1.3763846686106928e-10  1.9999999997816030e+02 -7.0330963195491127e-12 -4.3850300919899961e-11  1.9999999997580673e+02 -1.3192390888484865e-11 -4.8100669614156866e-11  1.9999999997561869e+02 -5.4592441835375196e-11 -1.3983473944942488e-10  1.9999999997652245e+02 -1.0031413508168954e-10 -1.1451604809789861e-10  1.9999999997589575e+02 8.9918729624291608e-11 3.7606456348836691e-11  1.9999999997590172e+02 2.8264437088293795e-12 9.6940042957083875e-11  1.9999999997579940e+02 -4.8303301021423257e-11 -2.3854794290778774e-11  1.9999999997648285e+02 -1.1574767707803080e-10 -1.8063971111587325e-10  1.9999999997655155e+02 -1.1772556318673443e-11 -9.3342814643949877e-11  1.9999999997653612e+02 -1.8565058619067006e-10 -1.3157759668925751e-10  1.9999999997659353e+02 -3.2397047225179350e-12 -3.3085516046829572e-11  1.9999999997418027e+02 -3.5573365581222293e-11 -4.7011765120732522e-11  1.9999999997401807e+02 -1.0791247266391572e-10 -9.0814897349238353e-11  1.9999999997493074e+02 -9.2093035269495330e-11 -7.5804477982705333e-11  1.9999999997428986e+02 5.6349214763263116e-11 7.3473458180899604e-11  1.9999999997430302e+02 1.0505791980954595e-11 9.2214562391272334e-11  1.9999999997417115e+02 -7.9231063516165246e-11 -3.1626606640434609e-11  1.9999999997490210e+02 -1.1528983564266873e-10 -2.0666313081734050e-10  1.9999999997496747e+02 -8.7963403214172459e-12 -1.2562187418782168e-10  1.9999999997485830e+02 -2.1272164103555600e-10 -9.1668911607760257e-11  1.9999999997492989e+02 -1.3338522004300605e-11 -4.2130779284401391e-11  1.9999999997260358e+02 -4.2714142905153919e-12 -1.0032196420026044e-10  1.9999999997249370e+02 -1.3874758075266085e-10 -1.2412795608096506e-10  1.9999999997339202e+02 -9.8062270339110008e-11 -9.0342390075011522e-11  1.9999999997269498e+02 6.4776052637835497e-11 9.3065045961447779e-11  1.9999999997268256e+02 2.8933860658382042e-11 8.7428165706149183e-11  1.9999999997260079e+02 -8.3059218656522224e-11 -2.1254161906829946e-11  1.9999999997329556e+02 -1.2731235808452160e-10 -2.1306362587584939e-10  1.9999999997338858e+02 -1.6192035368555818e-11 -1.3775154600033544e-10  1.9999999997331088e+02 -2.4274931147160176e-10 -9.2929147892844563e-11  1.9999999997337707e+02 -1.8316380526296985e-11 -3.2594841084886822e-11  1.9999999997111169e+02 -3.5458711615194686e-11 -5.2265526385268133e-11  1.9999999997104533e+02 -1.9061573609237291e-11 -4.7272660863726408e-11  1.9999999997183161e+02 -8.1804021989105669e-11 -1.0091785631096599e-10  1.9999999997115137e+02 2.3045591925973651e-11 6.2215563306710077e-11  1.9999999997110675e+02 -1.8536354882333597e-11 2.6111688868858152e-11  1.9999999997177883e+02 -1.5687936944453583e-10 -1.5214561746317855e-10  1.9999999997179313e+02 -1.8498506743832099e-10 -