<?xml version="1.0"?>
<VTKFile type="UnstructuredGrid"  version="0.1"  >
<UnstructuredGrid>
<Piece  NumberOfPoints="3964" NumberOfCells="18978">
<Points>
<DataArray  type="Float64"  NumberOfComponents="3"  format="ascii">37.5 0 10  38.75 1.25 11.25  38.75 0 11.25  38.75 0 10  40 0 10  40 1.25 11.25  40 0 11.25  40 0 12.5  40 1.25 12.5  40 2.5 12.5  37.5 0 11.25  37.5 0 12.5  38.75 1.25 12.5  38.75 0 12.5  41.25 1.25 11.25  41.25 0 11.25  41.25 1.25 12.5  41.25 0 12.5  42.5 0 12.5  42.5 1.25 12.5  42.5 2.5 12.5  41.25 2.5 12.5  38.75 1.25 13.75  40 1.25 13.75  40 2.5 13.75  40 2.5 15  38.75 0 13.75  40 0 13.75  40 0 15  40 1.25 15  37.5 0 13.75  37.5 0 15  38.75 1.25 15  38.75 0 15  41.25 1.25 13.75  42.5 1.25 13.75  42.5 2.5 13.75  42.5 2.5 15  41.25 0 13.75  42.5 0 13.75  42.5 0 15  42.5 1.25 15  41.25 1.25 15  41.25 0 15  41.25 2.5 13.75  41.25 2.5 15  43.75 1.25 13.75  43.75 1.25 12.5  43.75 0 12.5  45 0 12.5  45 1.25 13.75  45 1.25 12.5  45 2.5 12.5  45 2.5 13.75  45 2.5 15  43.75 0 13.75  45 0 13.75  45 0 15  45 1.25 15  43.75 1.25 15  43.75 0 15  43.75 2.5 13.75  43.75 2.5 12.5  43.75 2.5 15  46.25 1.25 13.75  46.25 1.25 12.5  46.25 0 12.5  47.5 0 12.5  47.5 1.25 13.75  47.5 1.25 12.5  47.5 2.5 12.5  47.5 2.5 13.75  47.5 2.5 15  46.25 0 13.75  47.5 0 13.75  47.5 0 15  47.5 1.25 15  46.25 1.25 15  46.25 0 15  46.25 2.5 13.75  46.25 2.5 12.5  46.25 2.5 15  48.75 1.25 13.75  48.75 1.25 12.5  48.75 0 12.5  50 0 12.5  50 1.25 13.75  50 1.25 12.5  50 2.5 12.5  50 2.5 13.75  50 2.5 15  48.75 0 13.75  50 0 13.75  50 0 15  50 1.25 15  48.75 1.25 15  48.75 0 15  48.75 2.5 13.75  48.75 2.5 12.5  48.75 2.5 15  41.25 3.75 13.75  41.25 3.75 12.5  42.5 3.75 13.75  42.5 3.75 12.5  42.5 5 12.5  42.5 5 13.75  42.5 5 15  42.5 3.75 15  41.25 3.75 15  40 3.75 12.5  40 5 12.5  41.25 5 13.75  41.25 5 12.5  40 3.75 13.75  40 3.75 15  41.25 5 15  43.75 3.75 13.75  45 3.75 13.75  45 3.75 15  45 5 15  43.75 3.75 15  43.75 5 15  43.75 5 13.75  46.25 3.75 13.75  47.5 3.75 13.75  47.5 3.75 15  47.5 5 15  46.25 3.75 15  46.25 5 15  48.75 3.75 13.75  50 3.75 13.75  50 3.75 15  50 5 15  48.75 3.75 15  48.75 5 15  41.25 6.25 13.75  42.5 6.25 13.75  42.5 6.25 15  42.5 7.5 15  41.25 6.25 15  40 7.5 15  41.25 7.5 15  41.25 7.5 13.75  43.75 6.25 13.75  43.75 6.25 15  45 6.25 15  45 7.5 15  43.75 7.5 15  41.25 8.75 15  41.25 8.75 13.75  42.5 8.75 15  42.5 10 15  40 10 15  41.25 10 15  38.75 1.25 16.25  40 1.25 16.25  40 2.5 16.25  40 2.5 17.5  38.75 0 16.25  40 0 16.25  40 0 17.5  40 1.25 17.5  37.5 0 16.25  37.5 0 17.5  38.75 0 17.5  41.25 1.25 16.25  42.5 1.25 16.25  42.5 2.5 16.25  42.5 2.5 17.5  41.25 0 16.25  42.5 0 16.25  42.5 0 17.5  42.5 1.25 17.5  41.25 1.25 17.5  41.25 0 17.5  41.25 2.5 16.25  41.25 2.5 17.5  43.75 1.25 16.25  45 1.25 16.25  45 2.5 16.25  45 2.5 17.5  43.75 0 16.25  45 0 16.25  45 0 17.5  45 1.25 17.5  43.75 1.25 17.5  43.75 0 17.5  43.75 2.5 16.25  43.75 2.5 17.5  46.25 1.25 16.25  47.5 1.25 16.25  47.5 2.5 16.25  47.5 2.5 17.5  46.25 0 16.25  47.5 0 16.25  47.5 0 17.5  47.5 1.25 17.5  46.25 1.25 17.5  46.25 0 17.5  46.25 2.5 16.25  46.25 2.5 17.5  48.75 1.25 16.25  50 1.25 16.25  50 2.5 16.25  50 2.5 17.5  48.75 0 16.25  50 0 16.25  50 0 17.5  50 1.25 17.5  48.75 1.25 17.5  48.75 0 17.5  48.75 2.5 16.25  48.75 2.5 17.5  41.25 3.75 16.25  42.5 3.75 16.25  42.5 5 16.25  42.5 5 17.5  42.5 3.75 17.5  41.25 3.75 17.5  41.25 5 16.25  40 3.75 16.25  40 3.75 17.5  40 5 17.5  41.25 5 17.5  43.75 3.75 16.25  45 3.75 16.25  45 5 16.25  45 5 17.5  45 3.75 17.5  43.75 3.75 17.5  43.75 5 16.25  43.75 5 17.5  46.25 3.75 16.25  47.5 3.75 16.25  47.5 5 16.25  47.5 5 17.5  47.5 3.75 17.5  46.25 3.75 17.5  46.25 5 16.25  46.25 5 17.5  48.75 3.75 16.25  50 3.75 16.25  50 5 16.25  50 5 17.5  50 3.75 17.5  48.75 3.75 17.5  48.75 5 16.25  48.75 5 17.5  42.5 6.25 16.25  41.25 6.25 16.25  42.5 7.5 16.25  42.5 7.5 17.5  42.5 6.25 17.5  41.25 6.25 17.5  41.25 7.5 16.25  40 6.25 17.5  40 6.25 16.25  40 7.5 17.5  41.25 7.5 17.5  40 7.5 16.25  43.75 6.25 16.25  45 6.25 16.25  45 7.5 16.25  45 7.5 17.5  45 6.25 17.5  43.75 6.25 17.5  43.75 7.5 16.25  43.75 7.5 17.5  46.25 6.25 16.25  46.25 6.25 15  47.5 6.25 16.25  47.5 6.25 15  47.5 7.5 15  47.5 7.5 16.25  47.5 7.5 17.5  47.5 6.25 17.5  46.25 6.25 17.5  46.25 7.5 16.25  46.25 7.5 15  46.25 7.5 17.5  48.75 6.25 16.25  48.75 6.25 15  50 6.25 16.25  50 6.25 15  50 7.5 15  50 7.5 16.25  50 7.5 17.5  50 6.25 17.5  48.75 6.25 17.5  48.75 7.5 16.25  48.75 7.5 15  48.75 7.5 17.5  41.25 8.75 16.25  42.5 8.75 16.25  42.5 10 16.25  42.5 10 17.5  42.5 8.75 17.5  41.25 8.75 17.5  41.25 10 16.25  40 10 17.5  41.25 10 17.5  40 10 16.25  43.75 8.75 16.25  43.75 8.75 15  45 8.75 16.25  45 8.75 15  45 10 15  45 10 16.25  45 10 17.5  45 8.75 17.5  43.75 8.75 17.5  43.75 10 16.25  43.75 10 15  43.75 10 17.5  46.25 8.75 16.25  47.5 8.75 16.25  47.5 8.75 17.5  47.5 10 17.5  46.25 8.75 17.5  46.25 10 17.5  46.25 10 16.25  48.75 8.75 16.25  50 8.75 16.25  50 8.75 17.5  50 10 17.5  48.75 8.75 17.5  48.75 10 17.5  40 11.25 16.25  40 11.25 15  38.75 11.25 16.25  38.75 11.25 15  40 12.5 15  40 12.5 16.25  40 12.5 17.5  40 11.25 17.5  38.75 12.5 16.25  41.25 11.25 16.25  41.25 11.25 15  42.5 11.25 16.25  42.5 11.25 15  42.5 12.5 15  42.5 12.5 16.25  42.5 12.5 17.5  42.5 11.25 17.5  41.25 11.25 17.5  41.25 12.5 16.25  41.25 12.5 15  41.25 12.5 17.5  43.75 11.25 16.25  45 11.25 16.25  45 11.25 17.5  45 12.5 17.5  43.75 11.25 17.5  43.75 12.5 17.5  43.75 12.5 16.25  46.25 11.25 16.25  46.25 11.25 17.5  47.5 11.25 17.5  47.5 12.5 17.5  46.25 12.5 17.5  40 13.75 16.25  38.75 13.75 16.25  40 13.75 17.5  40 15 17.5  38.75 13.75 17.5  38.75 15 17.5  41.25 13.75 16.25  42.5 13.75 16.25  42.5 13.75 17.5  42.5 15 17.5  41.25 13.75 17.5  41.25 15 17.5  43.75 13.75 16.25  43.75 13.75 17.5  45 13.75 17.5  45 15 17.5  43.75 15 17.5  41.25 1.25 18.75  42.5 1.25 18.75  42.5 2.5 18.75  42.5 2.5 20  41.25 0 18.75  42.5 0 18.75  42.5 0 20  42.5 1.25 20  40 0 18.75  40 0 20  41.25 1.25 20  41.25 0 20  41.25 2.5 18.75  40 1.25 20  40 2.5 20  41.25 2.5 20  40 2.5 18.75  43.75 1.25 18.75  45 1.25 18.75  45 2.5 18.75  45 2.5 20  43.75 0 18.75  45 0 18.75  45 0 20  45 1.25 20  43.75 1.25 20  43.75 0 20  43.75 2.5 18.75  43.75 2.5 20  46.25 1.25 18.75  47.5 1.25 18.75  47.5 2.5 18.75  47.5 2.5 20  46.25 0 18.75  47.5 0 18.75  47.5 0 20  47.5 1.25 20  46.25 1.25 20  46.25 0 20  46.25 2.5 18.75  46.25 2.5 20  48.75 1.25 18.75  50 1.25 18.75  50 2.5 18.75  50 2.5 20  48.75 0 18.75  50 0 18.75  50 0 20  50 1.25 20  48.75 1.25 20  48.75 0 20  48.75 2.5 18.75  48.75 2.5 20  40 3.75 18.75  38.75 3.75 18.75  40 5 18.75  40 5 20  40 3.75 20  38.75 3.75 20  41.25 3.75 18.75  42.5 3.75 18.75  42.5 5 18.75  42.5 5 20  42.5 3.75 20  41.25 3.75 20  41.25 5 18.75  41.25 5 20  43.75 3.75 18.75  45 3.75 18.75  45 5 18.75  45 5 20  45 3.75 20  43.75 3.75 20  43.75 5 18.75  43.75 5 20  46.25 3.75 18.75  47.5 3.75 18.75  47.5 5 18.75  47.5 5 20  47.5 3.75 20  46.25 3.75 20  46.25 5 18.75  46.25 5 20  48.75 3.75 18.75  50 3.75 18.75  50 5 18.75  50 5 20  50 3.75 20  48.75 3.75 20  48.75 5 18.75  48.75 5 20  41.25 6.25 18.75  42.5 6.25 18.75  42.5 7.5 18.75  42.5 7.5 20  42.5 6.25 20  41.25 6.25 20  41.25 7.5 18.75  40 6.25 18.75  40 6.25 20  40 7.5 20  41.25 7.5 20  40 7.5 18.75  43.75 6.25 18.75  45 6.25 18.75  45 7.5 18.75  45 7.5 20  45 6.25 20  43.75 6.25 20  43.75 7.5 18.75  43.75 7.5 20  46.25 6.25 18.75  47.5 6.25 18.75  47.5 7.5 18.75  47.5 7.5 20  47.5 6.25 20  46.25 6.25 20  46.25 7.5 18.75  46.25 7.5 20  48.75 6.25 18.75  50 6.25 18.75  50 7.5 18.75  50 7.5 20  50 6.25 20  48.75 6.25 20  48.75 7.5 18.75  48.75 7.5 20  41.25 8.75 18.75  42.5 8.75 18.75  42.5 10 18.75  42.5 10 20  42.5 8.75 20  41.25 8.75 20  41.25 10 18.75  40 10 20  41.25 10 20  40 10 18.75  43.75 8.75 18.75  45 8.75 18.75  45 10 18.75  45 10 20  45 8.75 20  43.75 8.75 20  43.75 10 18.75  43.75 10 20  46.25 8.75 18.75  47.5 8.75 18.75  47.5 10 18.75  47.5 10 20  47.5 8.75 20  46.25 8.75 20  46.25 10 18.75  46.25 10 20  48.75 8.75 18.75  50 8.75 18.75  50 10 18.75  50 10 20  50 8.75 20  48.75 8.75 20  48.75 10 18.75  48.75 10 20  40 11.25 18.75  38.75 11.25 18.75  40 12.5 18.75  40 12.5 20  40 11.25 20  38.75 12.5 18.75  41.25 11.25 18.75  42.5 11.25 18.75  42.5 12.5 18.75  42.5 12.5 20  42.5 11.25 20  41.25 11.25 20  41.25 12.5 18.75  41.25 12.5 20  43.75 11.25 18.75  45 11.25 18.75  45 12.5 18.75  45 12.5 20  45 11.25 20  43.75 11.25 20  43.75 12.5 18.75  43.75 12.5 20  46.25 11.25 18.75  47.5 11.25 18.75  47.5 12.5 18.75  47.5 12.5 20  47.5 11.25 20  46.25 11.25 20  46.25 12.5 18.75  46.25 12.5 20  48.75 11.25 18.75  48.75 11.25 17.5  50 11.25 18.75  50 11.25 17.5  50 12.5 17.5  50 12.5 18.75  50 12.5 20  50 11.25 20  48.75 11.25 20  48.75 12.5 18.75  48.75 12.5 17.5  48.75 12.5 20  40 13.75 18.75  38.75 13.75 18.75  40 15 18.75  40 15 20  40 13.75 20  38.75 13.75 20  41.25 13.75 18.75  42.5 13.75 18.75  42.5 15 18.75  42.5 15 20  42.5 13.75 20  41.25 13.75 20  41.25 15 18.75  41.25 15 20  43.75 13.75 18.75  45 13.75 18.75  45 15 18.75  45 15 20  45 13.75 20  43.75 13.75 20  43.75 15 18.75  43.75 15 20  46.25 13.75 18.75  46.25 13.75 17.5  47.5 13.75 18.75  47.5 13.75 17.5  47.5 15 17.5  47.5 15 18.75  47.5 15 20  47.5 13.75 20  46.25 13.75 20  46.25 15 18.75  46.25 15 17.5  46.25 15 20  48.75 13.75 18.75  48.75 13.75 17.5  50 13.75 18.75  50 13.75 17.5  50 15 17.5  50 15 18.75  50 15 20  50 13.75 20  48.75 13.75 20  48.75 15 18.75  48.75 15 17.5  48.75 15 20  40 16.25 18.75  38.75 16.25 18.75  40 16.25 20  40 17.5 20  38.75 16.25 20  41.25 16.25 18.75  42.5 16.25 18.75  42.5 16.25 20  42.5 17.5 20  41.25 16.25 20  41.25 17.5 20  43.75 16.25 18.75  45 16.25 18.75  45 16.25 20  45 17.5 20  43.75 16.25 20  43.75 17.5 20  46.25 16.25 18.75  47.5 16.25 18.75  47.5 16.25 20  47.5 17.5 20  46.25 16.25 20  46.25 17.5 20  48.75 16.25 18.75  50 16.25 18.75  50 16.25 20  50 17.5 20  48.75 16.25 20  48.75 17.5 20  40 18.75 20  38.75 18.75 20  38.75 18.75 18.75  40 20 20  40 1.25 21.25  38.75 1.25 21
[...]
<PointData  Vectors="u"> 
<DataArray  type="Float64"  Name="u"  NumberOfComponents="3" format="ascii">1.9999999997439718e+02 6.2306873941541520e-10 3.4372198710185449e-11  1.9999999997340308e+02 -1.2652422902338685e-10 -3.7349550180185681e-11  1.9999999997340450e+02 -3.1717357082989468e-10 2.4023152655215762e-11  1.9999999997347030e+02 3.6057290780322668e-11 1.6715328835820045e-10  1.9999999997273164e+02 5.4903832900543867e-10 1.0631669549079373e-11  1.9999999997248571e+02 -1.6106247799706558e-10 -3.6460222903741227e-11  1.9999999997257328e+02 -4.5113996001275289e-12 6.3786401393847799e-12  1.9999999997272371e+02 5.6601957642726566e-10 1.1359522464872006e-10  1.9999999997270226e+02 -1.2441164324939096e-10 -1.3153020517474681e-10  1.9999999997274713e+02 1.4934727624638426e-10 7.8748854339358495e-11  1.9999999997424632e+02 6.3634783799759969e-11 -4.8203323826135736e-12  1.9999999997437027e+02 5.0752293886263264e-10 9.2970759468377550e-11  1.9999999997344685e+02 -1.0975894225011621e-10 5.2660263993959397e-11  1.9999999997346751e+02 -4.4143565759616817e-12 -1.1661294793416363e-10  1.9999999997186876e+02 -9.7989387209022884e-11 -4.7217402309175755e-11  1.9999999997180547e+02 -4.2133723636498822e-10 -2.8229408660263268e-11  1.9999999997182007e+02 -1.5475693950155090e-10 -1.9731173959522455e-10  1.9999999997185219e+02 -8.1276026412295791e-11 -1.0196427480614749e-10  1.9999999997126358e+02 5.9781991435412450e-10 1.2117110181353270e-11  1.9999999997109987e+02 -8.4607630010013843e-11 -8.0875894726964441e-12  1.9999999997124303e+02 9.4042925612739759e-11 -1.8449561650254363e-11  1.9999999997189565e+02 -5.1084084547081500e-11 -2.7346156449954877e-11  1.9999999997345469e+02 -8.9652404787408425e-11 -8.7899178156349949e-11  1.9999999997265746e+02 -1.0508778833717019e-10 -2.2389951038281773e-10  1.9999999997274705e+02 -5.6218448621031012e-11 -6.2838273952317586e-11  1.9999999997269569e+02 1.0128735029133352e-10 1.0000117071701514e-10  1.9999999997345537e+02 -4.2329486171647616e-10 -6.5709755222161830e-13  1.9999999997273267e+02 5.8604124026141697e-12 -7.7918031446812692e-11  1.9999999997271186e+02 4.7279559495915039e-10 1.1794757784689474e-10  1.9999999997274114e+02 -5.9152849953970063e-11 2.8687765305195385e-11  1.9999999997422398e+02 7.3328595348988331e-11 -5.3231017367673438e-11  1.9999999997436296e+02 5.0358839937662513e-10 9.4754238242904818e-11  1.9999999997342175e+02 -1.2752623023309777e-10 -9.7166779137923237e-11  1.9999999997346185e+02 1.1143979711073830e-10 -8.9214532010809945e-11  1.9999999997182502e+02 -1.5674874045028587e-10 -6.7850762463844234e-11  1.9999999997094162e+02 -9.5581511537329231e-11 -1.3040333563351295e-10  1.9999999997111090e+02 1.8361066779026334e-12 -4.1109759008734572e-11  1.9999999997123894e+02 8.3268388825205603e-11 1.1577023226758297e-10  1.9999999997182789e+02 -3.2635714561258421e-10 -8.2223033096399174e-14  1.9999999997107994e+02 6.4156011944058408e-11 4.1411859742551480e-13  1.9999999997121216e+02 4.8295222910460499e-10 1.1395733868723634e-10  1.9999999997114480e+02 -1.0500959123412375e-10 5.8854733455123582e-11  1.9999999997184452e+02 -1.8083292035091552e-11 -9.5754777107306590e-11  1.9999999997193942e+02 4.9470078458014060e-12 -7.5099657410846012e-11  1.9999999997180254e+02 -1.4397536032752931e-10 -1.1795620904859604e-10  1.9999999997188888e+02 3.2088574507304047e-11 -9.3035887190795212e-11  1.9999999997029926e+02 -1.3965859466135837e-10 -1.0049650430408299e-10  1.9999999997013549e+02 -2.7549358534030732e-10 -4.4440415604865429e-11  1.9999999997030480e+02 -1.5985680807540600e-11 -2.1432313042697262e-11  1.9999999996969595e+02 6.2626745416433922e-10 1.1182609593211414e-11  1.9999999996939442e+02 -1.1153880803312602e-10 -9.8303805472982344e-11  1.9999999996957976e+02 -9.4341062600757665e-11 2.0990228612288847e-11  1.9999999996973435e+02 9.6669565747376891e-11 2.3237154322844929e-12  1.9999999996963228e+02 2.8427586958382128e-11 -5.2248744939592577e-11  1.9999999996970607e+02 7.0525979658795824e-11 1.0226349158306626e-10  1.9999999997030682e+02 -3.5101680122086265e-10 3.0848719648837829e-11  1.9999999996952766e+02 6.6100935085696377e-11 -1.4608021628725114e-11  1.9999999996966264e+02 4.5220074300134626e-10 9.1686042875647734e-11  1.9999999996961469e+02 -8.2922295626733266e-11 6.2518633215164955e-11  1.9999999997025651e+02 -5.7878574856612657e-11 -9.8332822528110165e-11  1.9999999997035414e+02 2.0263746519974425e-11 -4.4043624145469859e-11  1.9999999997026180e+02 -1.7466822685912475e-10 -1.0945331285518190e-10  1.9999999997032660e+02 -9.5695892845624540e-11 6.3513037426259661e-11  1.9999999997031719e+02 6.4542472020345305e-11 -7.4036051900783284e-11  1.9999999996878137e+02 -1.1543097184259755e-10 -8.9011495077241365e-11  1.9999999996867516e+02 -2.2637593185412308e-10 -9.6724371872080803e-11  1.9999999996879663e+02 -7.0743662357418151e-11 -3.3664923352335722e-11  1.9999999996826335e+02 6.2724415915295467e-10 -4.6331334404708258e-11  1.9999999996798653e+02 -9.7245773013518299e-11 -6.3845959776329456e-11  1.9999999996810027e+02 -1.2413751265443949e-10 1.5354932838898583e-12  1.9999999996818929e+02 1.0774642714481446e-10 -1.8814709177470174e-11  1.9999999996810999e+02 9.1007717282625021e-12 -1.8800406526944757e-11  1.9999999996820324e+02 7.6962896225811470e-11 6.2265854162922740e-11  1.9999999996879146e+02 -2.8421401743128435e-10 4.9162780071436213e-11  1.9999999996810649e+02 3.1341171757141384e-11 2.8246128033954963e-11  1.9999999996821003e+02 4.4165490599228612e-10 5.9381446744934549e-11  1.9999999996814850e+02 -6.6058593893207382e-11 3.0613460794951037e-11  1.9999999996874212e+02 -1.3238607872224905e-11 -9.8518349548023386e-11  1.9999999996883258e+02 2.2613964167457701e-11 -3.9323533932105549e-11  1.9999999996875795e+02 -1.2027435369438425e-10 -1.1815255138735486e-10  1.9999999996883136e+02 -3.8979930914075589e-11 5.0953423688854663e-11  1.9999999996886507e+02 4.7720960693498968e-11 -1.0264957683754675e-10  1.9999999996733399e+02 -1.1412643030764539e-10 -9.8049927473185545e-11  1.9999999996724642e+02 -2.5704724455889574e-10 -5.9776047843873349e-11  1.9999999996735281e+02 -6.1614378759870653e-11 1.6078483709131077e-11  1.9999999996661680e+02 2.5244548199728520e-10 2.1270886899861754e-11  1.9999999996640844e+02 -6.6764307215813975e-12 -1.0291918917741084e-11  1.9999999996647014e+02 3.6015470054345379e-12 1.3265308269279978e-10  1.9999999996661842e+02 4.6109580818989055e-11 1.9128257502656809e-11  1.9999999996643609e+02 -8.2370235790497717e-12 -1.1439219813936089e-11  1.9999999996661299e+02 2.5983984016290184e-11 2.9614993109356368e-11  1.9999999996738291e+02 -2.5880251721792926e-10 2.7309561541080073e-11  1.9999999996644186e+02 -4.9210608259917493e-11 -1.9443886984441241e-11  1.9999999996661961e+02 1.9276668725835495e-10 6.9785440896346557e-12  1.9999999996645201e+02 1.6999140435017177e-11 3.2795967604799468e-11  1.9999999996733459e+02 -1.2747684842568433e-11 -1.2114909977222534e-10  1.9999999996732822e+02 3.6675705101813408e-11 -1.0000221340304374e-10  1.9999999996734979e+02 -1.8484196295624334e-10 -7.1400813374159037e-11  1.9999999996739945e+02 -8.3496479103484546e-11 7.6508498140290854e-11  1.9999999996738237e+02 5.8171979813225051e-11 -1.3013504463282363e-10  1.9999999997183028e+02 -8.3612483401267074e-11 -9.7732550366016118e-11  1.9999999997174442e+02 -1.9493915958399963e-10 -3.8019363084930280e-11  1.9999999997100812e+02 -1.1790792276702795e-10 -7.8511688236541499e-11  1.9999999997106053e+02 7.1097136180335435e-12 4.5384194273168281e-11  1.9999999997121529e+02 1.1954622323275649e-10 -3.1721469554341398e-12  1.9999999997112604e+02 2.0128457527975957e-11 -3.9760694996583053e-11  1.9999999997126170e+02 1.2872826067710237e-10 7.7693881484236820e-11  1.9999999997114620e+02 -4.6027923412832633e-11 -4.7908611197611592e-11  1.9999999997184165e+02 -9.9493704473797412e-11 -1.7328646870473871e-10  1.9999999997257194e+02 -2.4460928690820110e-11 -3.8904100949143642e-11  1.9999999997270345e+02 1.1104264149291066e-10 1.7689825415354322e-11  1.9999999997182570e+02 -1.3624804334275121e-10 -1.0889894533936836e-10  1.9999999997192808e+02 -6.4341552568193709e-11 5.0523906372941698e-11  1.9999999997265499e+02 -2.0398097617926332e-10 -2.1124147690019257e-10  1.9999999997267867e+02 -3.0836597668613463e-11 -1.1699298287084872e-10  1.9999999997190375e+02 2.1537002281696888e-12 -5.8505497103821344e-11  1.9999999997030025e+02 -6.4182729641195459e-11 -6.4876149883627230e-11  1.9999999996937345e+02 -9.9387723144161893e-11 -2.2825376150268250e-11  1.9999999996961753e+02 9.4860990610645646e-12 -6.3635028636126098e-11  1.9999999996970791e+02 1.1563559527860646e-10 2.7736556529779044e-11  1.9999999997026416e+02 -7.9580419357433623e-11 -1.6092247420757781e-10  1.9999999997031253e+02 4.4577571838175384e-11 -4.2804086364537097e-11  1.9999999997030179e+02 -2.0268676304736007e-10 -1.3146194043815493e-11  1.9999999996879865e+02 -6.3560386766284702e-11 -6.6466495026524623e-11  1.9999999996787966e+02 -1.0357778108784198e-10 -2.1474065009710757e-11  1.9999999996812619e+02 9.8839253438070005e-12 -7.1587439123902179e-11  1.9999999996816314e+02 1.0144523199616357e-10 2.1726903971695933e-11  1.9999999996876028e+02 -4.8977857518730215e-11 -1.8351401218831972e-10  1.9999999996888783e+02 -7.4466839293622602e-11 1.8361098677839152e-11  1.9999999996731847e+02 -8.3890097975809541e-11 -3.0657695633658511e-11  1.9999999996633289e+02 1.9503631275759378e-11 -1.3760932904873291e-11  1.9999999996640446e+02 -4.4594073510441220e-12 -1.4274516224666476e-11  1.9999999996658124e+02 4.2054428872383787e-11 -5.3114996363900883e-12  1.9999999996732754e+02 -8.8976509157944380e-11 -2.1321370190793401e-10  1.9999999996734240e+02 -8.3239353200152411e-11 1.7402778210879813e-11  1.9999999997188058e+02 -9.2950944475854015e-11 -7.0945907906128547e-11  1.9999999997092073e+02 -9.0309711098927742e-11 -6.3700436321525275e-11  1.9999999997115174e+02 -6.9974153488444340e-11 -4.3259473545503035e-11  1.9999999997125482e+02 8.9669109059420954e-11 2.4066496795094345e-11  1.9999999997185697e+02 -1.2399050900930840e-10 -1.8167406485941708e-10  1.9999999997265084e+02 1.3048417241335754e-10 9.4675940306875941e-11  1.9999999997189386e+02 -9.9510265318371040e-12 -5.2914082130405772e-11  1.9999999997187899e+02 -2.2015040591899813e-10 -9.2417583838358672e-12  1.9999999997030801e+02 -6.9820525463694856e-11 -1.8739689998268844e-11  1.9999999997027933e+02 -1.6151927671131274e-10 -2.2933606652886979e-10  1.9999999996950982e+02 -2.6506686420924811e-11 3.4731578870699829e-12  1.9999999996972926e+02 9.2653599325346744e-11 -2.3553663220216427e-11  1.9999999997032370e+02 -7.8992666948375346e-11 3.6780438103993515e-12  1.9999999997181715e+02 -1.0004601397531409e-10 -2.1343805672285755e-10  1.9999999997188777e+02 -4.9090117543444167e-11 -4.1432921795975927e-11  1.9999999997109521e+02 -1.1028260670309932e-11 2.6652013778805483e-11  1.9999999997123368e+02 8.6950990786515687e-11 7.4035252939103135e-12  1.9999999997265661e+02 1.3938864547496986e-10 5.7411136364905210e-11  1.9999999997190432e+02 -1.0177219916205975e-10 4.6788909866578893e-11  1.9999999997346490e+02 -1.0647620652018895e-10 -4.8850635895432664e-11  1.9999999997274739e+02 8.8090650257813114e-12 -1.7491628328409821e-10  1.9999999997268054e+02 3.3238619242859308e-11 -5.7973170357735183e-11  1.9999999997270126e+02 3.5482135971672575e-11 1.2752938975561199e-10  1.9999999997346939e+02 -4.2822165844312201e-10 -5.6986387843023089e-11  1.9999999997270342e+02 5.6760933159719020e-11 -4.0413452104230077e-11  1.9999999997269794e+02 5.0927076796816541e-10 1.0739901917257418e-10  1.9999999997271996e+02 -9.8377095218196969e-11 -8.2373165233226734e-11  1.9999999997420636e+02 -1.1399751180745630e-12 -1.3251904357494651e-11  1.9999999997434793e+02 4.9893170742769403e-10 8.3734951434358511e-11  1.9999999997348991e+02 1.2028218232888112e-10 -7.3508139848232791e-11  1.9999999997181303e+02 -9.8401825563544585e-11 -5.2249240069114522e-11  1.9999999997101608e+02 -5.6094924719366715e-11 -1.2126793125716191e-10  1.9999999997105007e+02 2.4771156533914648e-11 -8.4943738198447614e-11  1.9999999997125983e+02 2.3170115476562986e-12 1.1839789836108640e-10  1.9999999997187842e+02 -3.9676349711401437e-10 -7.3299303205393470e-11  1.9999999997107648e+02 5.3326866962246009e-11 -3.1718807936556835e-11  1.9999999997122046e+02 4.5483708261524713e-10 6.4467340872116373e-11  1.9999999997115094e+02 -5.0301886339524095e-11 1.2303007562936887e-11  1.9999999997181146e+02 -2.3978898536088952e-12 -1.6385753561973051e-10  1.9999999997188456e+02 3.6902422597304095e-11 -6.9128458738768369e-11  1.9999999997178259e+02 -1.7328610433718815e-11 -2.0736134183467754e-10  1.9999999997184560e+02 -1.7838616686768531e-11 -8.5264016217694980e-11  1.9999999997028073e+02 -6.9025889880905752e-11 -7.6387012536960612e-11  1.9999999996945800e+02 -2.2487291846477332e-11 -1.5057215535308937e-10  1.9999999996953147e+02 2.3974283559873678e-11 -5.0917878152173031e-11  1.9999999996972099e+02 4.0868914834880776e-11 8.8226203204720662e-11  1.9999999997028806e+02 -3.7440486771352276e-10 -6.4041158808821457e-11  1.9999999996953437e+02 3.1607616423206224e-11 -2.9551619850931070e-11  1.9999999996969183e+02 4.3825403747561581e-10 6.3172770123380602e-11  1.9999999996961245e+02 -7.2281576027870209e-11 5.0251363226850482e-12  1.9999999997021823e+02 -2.4516875331863303e-11 -1.6325883606071766e-10  1.9999999997030386e+02 2.4108354081287757e-11 -5.9669556018424984e-11  1.9999999997019609e+02 -7.5454601705991061e-11 -1.9342399993729645e-10  1.9999999997031892e+02 1.2075011993622077e-11 -7.7771213294647953e-11  1.9999999996878020e+02 -8.3213564334748044e-11 -6.4394048801837628e-11  1.9999999996794705e+02 -4.3737296769098981e-11 -9.0998682537732174e-11  1.9999999996805332e+02 1.3565928733922262e-11 -4.9256702313911387e-11  1.9999999996820921e+02 4.9976362208584136e-11 9.5668184539128641e-11  1.9999999996877793e+02 -3.4002433658580621e-10 -3.4695662427046063e-11  1.9999999996805198e+02 6.9103064236199444e-11 -1.9998665608762083e-11  1.9999999996817857e+02 4.3092823318726422e-10 6.2400863833446001e-11  1.9999999996812272e+02 -9.2356409246471717e-11 -3.6402080493211627e-11  1.9999999996875005e+02 -2.3593925251101441e-11 -1.9927778144871797e-10  1.9999999996883349e+02 2.7984058121551057e-11 -8.6860234046279324e-11  1.9999999996867410e+02 2.8606322872753552e-11 -2.0277938068617814e-10  1.9999999996882150e+02 1.5638339755342979e-11 -6.4150079714915950e-11  1.9999999996731566e+02 -2.8797095473871507e-11 -8.4102188101768349e-11  1.9999999996628466e+02 -3.6038826466713538e-11 1.3540593221072013e-11  1.9999999996645178e+02 -6.0643277544282534e-12 -8.1311562726831767e-12  1.9999999996661842e+02 1.6881497057479594e-11 3.6930358830695253e-11  1.9999999996734567e+02 -2.8381658409738320e-10 -2.7533015926054283e-11  1.9999999996647730e+02 -2.3879561646476414e-11 -2.1597158623411764e-11  1.9999999996657488e+02 1.8359026255677358e-10 2.4116775844229480e-11  1.9999999996640688e+02 7.6041381414825593e-12 -8.0684430252889296e-12  1.9999999996732285e+02 -4.8088735824618137e-12 -1.8163547552972940e-10  1.9999999996734746e+02 5.4649620888142092e-12 -1.0880159021595822e-10  1.9999999996727067e+02 8.3373002735959231e-13 -1.5441281171801008e-10  1.9999999996736656e+02 6.8949362992265267e-12 -1.0110939523425659e-10  1.9999999997184696e+02 -1.0240204745717625e-10 -7.7636685575044157e-11  1.9999999997097581e+02 -7.8163588355961003e-11 -1.3288997406064541e-10  1.9999999997116635e+02 1.1951433056430861e-11 -8.3953740401426582e-11  1.9999999997122907e+02 8.7204140293208998e-11 5.4245420177675280e-11  1.9999999997111473e+02 2.2649082806154328e-12 -4.1021925509196227e-11  1.9999999997182900e+02 -7.6490418791735983e-11 -1.5597939463287047e-10  1.9999999997186174e+02 -1.2475011481047108e-10 -9.7241365760188196e-11  1.9999999997266795e+02 -1.7037234112279385e-10 -1.9643480229544780e-10  1.9999999997265880e+02 -4.0726902110580031e-12 -1.0038712890657118e-10  1.9999999997264706e+02 1.2774427924352700e-10 1.2170465005085844e-10  1.9999999997188797e+02 6.5101007071506382e-12 -1.5554599533839448e-11  1.9999999997029840e+02 -5.1051302790604065e-11 -9.5899099879441538e-11  1.9999999996945189e+02 -8.6197945035796441e-11 -1.2017269335008536e-10  1.9999999996960187e+02 -1.1619539618690027e-12 -4.8299656209008003e-11  1.9999999996969785e+02 9.6299900306991373e-11 4.8775801352746485e-11  1.9999999996961546e+02 -7.7353574721817311e-12 -3.4238482317451562e-11  1.9999999997027737e+02 -8.6056565909111119e-11 -1.6737305470127287e-10  1.9999999997026001e+02 -1.4623990558231186e-10 -9.9889948230186528e-11  1.9999999997035366e+02 -1.1563918124412132e-11 -7.2446249958727939e-11  1.9999999996878955e+02 -6.2758462148443315e-11 -7.9718347551607698e-11  1.9999999996796447e+02 -4.6022921107304970e-11 -1.1454130625965558e-10  1.9999999996809697e+02 -1.5734001835275983e-11 -3.2945821510262224e-11  1.9999999996816223e+02 7.9870018540701175e-11 6.0312970324358138e-11  1.9999999996809734e+02 2.6502254690911560e-12 -2.3646996631767851e-11  1.9999999996876704e+02 -5.8011442805879543e-11 -1.9111104094186003e-10  1.9999999996876531e+02 -1.6551574462139127e-10 -1.2701918406137917e-10  1.9999999996886908e+02 -6.1242012831076908e-12 -2.5988683985368595e-11  1.9999999996730389e+02 -9.9649753772529907e-11 -9.4983988648165111e-11  1.9999999996641168e+02 4.3756767198280669e-12 -1.7370217823541444e-11  1.9999999996642958e+02 2.5529511671312934e-11 2.6026332061567352e-12  1.9999999996660148e+02 3.5847608964728450e-11 2.8037294282037236e-11  1.9999999996645110e+02 -1.4068424665236893e-11 2.7450310650548960e-11  1.9999999996731154e+02 -8.0518316307232593e-11 -1.7769866600488089e-10  1.9999999996731066e+02 -1.4948358488409491e-10 -1.1034240519313897e-10  1.9999999996733348e+02 2.3825554779201286e-12 -2.8680395227656718e-12  1.9999999997100926e+02 -1.4212071199358461e-10 -1.2838239690399691e-10  1.9999999997182678e+02 -9.4082223324264878e-11 -7.9483557636995580e-11  1.9999999997115717e+02 1.0367799275547471e-11 -3.6139051429065155e-11  1.9999999997122808e+02 9.8197204344863251e-11 4.8376826834441024e-11  1.9999999997111760e+02 -3.4880319968685020e-11 -4.9203976244830381e-11  1.9999999997180913e+02 -1.3475025043340612e-10 -1.5417051711442367e-10  1.9999999997182394e+02 -1.3748380265422393e-10 -1.2125217439070635e-10  1.9999999997266528e+02 -4.2915978929094554e-11 -4.5159085517802698e-11  1.9999999997267389e+02 -1.8300134613223775e-10 -1.7718599440711047e-10  1.9999999997262432e+02 1.0327385251258106e-10 1.1344076861953111e-10  1.9999999997184938e+02 1.1794997727208331e-12 -1.8233621277132092e-11  1.9999999997266426e+02 -5.2178887031737361e-11 -3.8427775994718341e-11  1.9999999997027899e+02 -1.2032285615504880e-10 -1.0958045222196027e-10  1.9999999996943095e+02 -1.1261540289957221e-10 -1.1042406187193878e-10  1.9999999996962552e+02 -1.9352931137175382e-11 -4.1910901906856249e-11  1.9999999996971968e+02 9.4891437974135999e-11 6.9466984232279319e-11  1.9999999996964218e+02 -4.1640561087386428e-11 -3.7507954863392166e-11  1.9999999997028362e+02 -1.2841742015554564e-10 -2.4003218502898489e-10  1.9999999997024108e+02 -1.6569149610946284e-10 -1.1902325462735701e-10  1.9999999997034917e+02 -4.2127786133737921e-12 -3.7055102635951314e-11  1.9999999996878825e+02 -9.6127240709884946e-11 -1.0445889740645235e-10  1.9999999996868311e+02 -1.9931611827359168e-10 -2.3982633558452908e-11  1.9999999996794384e+02 -1.4565874174576604e-10 -1.0110955387174874e-10  1.9999999996805201e+02 -7.2450628194663897e-11 6.9067250206347367e-11  1.9999999996818599e+02 6.9654232226379223e-11 -4.2754668707600200e-12  1.9999999996810340e+02 -2.9951632203208281e-11 -2.4635693823947306e-11  1.9999999996817567e+02 7.4330147285787688e-11 5.1895482996176067e-11  1.9999999996810467e+02 -8.6743402128100487e-11 -4.8663494568858321e-11  1.9999999996873049e+02 -1.0707423438971794e-10 -1.7771709799523353e-10  1.9999999996871421e+02 -1.7051820083595686e-10 -1.1069837099681884e-10  1.9999999996877344e+02 -7.3962824639854342e-11 7.0354892287290866e-11  1.999999