<?xml version="1.0"?>
<VTKFile type="UnstructuredGrid"  version="0.1"  >
<UnstructuredGrid>
<Piece  NumberOfPoints="3917" NumberOfCells="19156">
<Points>
<DataArray  type="Float64"  NumberOfComponents="3"  format="ascii">25 27.5 35  26.25 28.75 35  25 28.75 35  26.25 28.75 33.75  25 30 35  26.25 30 35  27.5 30 35  25 28.75 36.25  23.75 28.75 36.25  25 30 36.25  25 30 37.5  25 27.5 36.25  25 27.5 37.5  25 28.75 37.5  26.25 28.75 36.25  26.25 30 36.25  27.5 30 36.25  27.5 30 37.5  26.25 28.75 37.5  26.25 30 37.5  26.25 31.25 36.25  27.5 31.25 36.25  27.5 31.25 37.5  27.5 32.5 37.5  26.25 31.25 37.5  25 32.5 37.5  26.25 32.5 37.5  25 32.5 35  26.25 32.5 36.25  25 32.5 36.25  26.25 33.75 36.25  26.25 33.75 37.5  26.25 28.75 38.75  26.25 30 38.75  27.5 30 38.75  27.5 30 40  25 27.5 40  26.25 28.75 40  25 28.75 40  25 30 40  26.25 30 40  25 30 38.75  26.25 31.25 38.75  27.5 31.25 38.75  27.5 32.5 38.75  27.5 32.5 40  27.5 31.25 40  26.25 31.25 40  26.25 32.5 38.75  26.25 33.75 38.75  27.5 33.75 38.75  27.5 33.75 40  27.5 35 40  26.25 33.75 40  26.25 28.75 41.25  26.25 30 41.25  27.5 30 41.25  27.5 30 42.5  25 27.5 42.5  26.25 28.75 42.5  25 28.75 42.5  25 30 42.5  26.25 30 42.5  25 30 41.25  26.25 31.25 41.25  27.5 31.25 41.25  27.5 32.5 41.25  27.5 32.5 42.5  27.5 31.25 42.5  26.25 31.25 42.5  26.25 32.5 41.25  27.5 33.75 41.25  26.25 33.75 41.25  27.5 35 41.25  27.5 35 42.5  27.5 33.75 42.5  26.25 33.75 42.5  26.25 35 41.25  27.5 36.25 41.25  27.5 36.25 40  26.25 36.25 41.25  27.5 37.5 40  27.5 37.5 41.25  27.5 37.5 42.5  27.5 36.25 42.5  26.25 36.25 42.5  26.25 37.5 41.25  26.25 38.75 41.25  27.5 38.75 41.25  25 28.75 43.75  23.75 28.75 43.75  25 30 43.75  25 30 45  25 27.5 43.75  25 27.5 45  25 28.75 45  26.25 28.75 43.75  26.25 30 43.75  27.5 30 43.75  27.5 30 45  26.25 28.75 45  26.25 30 45  26.25 31.25 43.75  27.5 31.25 43.75  27.5 32.5 43.75  27.5 32.5 45  27.5 31.25 45  26.25 31.25 45  26.25 32.5 43.75  25 31.25 45  25 32.5 45  26.25 32.5 45  27.5 33.75 43.75  26.25 33.75 43.75  27.5 35 43.75  27.5 35 45  27.5 33.75 45  26.25 33.75 45  26.25 35 43.75  26.25 35 45  27.5 36.25 43.75  26.25 36.25 43.75  27.5 37.5 43.75  27.5 37.5 45  27.5 36.25 45  26.25 36.25 45  26.25 28.75 46.25  26.25 30 46.25  27.5 30 46.25  27.5 30 47.5  25 28.75 46.25  25 27.5 46.25  25 27.5 47.5  26.25 28.75 47.5  25 28.75 47.5  25 30 47.5  26.25 30 47.5  25 30 46.25  26.25 31.25 46.25  27.5 31.25 46.25  27.5 32.5 46.25  27.5 32.5 47.5  27.5 31.25 47.5  26.25 31.25 47.5  26.25 32.5 46.25  26.25 33.75 46.25  27.5 33.75 46.25  27.5 35 46.25  27.5 35 47.5  27.5 33.75 47.5  26.25 33.75 47.5  26.25 35 46.25  25 35 47.5  26.25 35 47.5  27.5 36.25 46.25  26.25 36.25 46.25  27.5 37.5 46.25  27.5 37.5 47.5  27.5 36.25 47.5  26.25 36.25 47.5  26.25 37.5 46.25  27.5 38.75 46.25  27.5 38.75 45  26.25 38.75 46.25  27.5 40 45  27.5 40 46.25  27.5 40 47.5  27.5 38.75 47.5  26.25 38.75 47.5  25 28.75 48.75  23.75 28.75 48.75  25 30 48.75  25 30 50  26.25 28.75 48.75  26.25 30 48.75  27.5 30 48.75  27.5 30 50  26.25 30 50  26.25 31.25 48.75  27.5 31.25 48.75  27.5 32.5 48.75  27.5 32.5 50  27.5 31.25 50  26.25 31.25 50  26.25 32.5 48.75  26.25 32.5 50  27.5 33.75 48.75  26.25 33.75 48.75  27.5 35 48.75  27.5 35 50  27.5 33.75 50  26.25 33.75 50  26.25 35 48.75  26.25 35 50  26.25 36.25 48.75  27.5 36.25 48.75  27.5 37.5 48.75  27.5 37.5 50  27.5 36.25 50  26.25 36.25 50  26.25 37.5 48.75  27.5 38.75 48.75  26.25 38.75 48.75  27.5 40 48.75  27.5 40 50  27.5 38.75 50  25 22.5 37.5  26.25 22.5 38.75  26.25 22.5 37.5  26.25 21.25 38.75  27.5 22.5 37.5  27.5 22.5 38.75  27.5 22.5 40  25 22.5 38.75  25 22.5 40  26.25 22.5 40  25 23.75 38.75  25 23.75 37.5  23.75 23.75 38.75  23.75 23.75 37.5  25 25 37.5  25 25 38.75  25 25 40  25 23.75 40  26.25 23.75 38.75  26.25 23.75 37.5  27.5 23.75 38.75  27.5 23.75 37.5  27.5 25 37.5  27.5 25 38.75  27.5 25 40  27.5 23.75 40  26.25 23.75 40  26.25 25 38.75  26.25 25 37.5  26.25 25 40  26.25 26.25 38.75  26.25 26.25 37.5  27.5 26.25 38.75  27.5 26.25 37.5  27.5 27.5 37.5  27.5 27.5 38.75  27.5 27.5 40  27.5 26.25 40  26.25 26.25 40  25 26.25 37.5  26.25 27.5 38.75  26.25 27.5 37.5  25 26.25 38.75  25 26.25 40  26.25 27.5 40  25 27.5 38.75  27.5 28.75 38.75  27.5 28.75 40  27.5 22.5 41.25  27.5 21.25 41.25  26.25 21.25 41.25  27.5 22.5 42.5  27.5 20 42.5  27.5 21.25 42.5  25 20 42.5  26.25 21.25 42.5  26.25 20 42.5  26.25 22.5 41.25  25 22.5 42.5  26.25 22.5 42.5  25 22.5 41.25  26.25 23.75 41.25  27.5 23.75 41.25  27.5 25 41.25  27.5 25 42.5  27.5 23.75 42.5  26.25 23.75 42.5  26.25 25 41.25  25 23.75 41.25  25 23.75 42.5  25 25 42.5  26.25 25 42.5  25 25 41.25  26.25 26.25 41.25  27.5 26.25 41.25  27.5 27.5 41.25  27.5 27.5 42.5  27.5 26.25 42.5  26.25 26.25 42.5  26.25 27.5 41.25  25 26.25 42.5  26.25 27.5 42.5  25 27.5 41.25  27.5 28.75 41.25  27.5 28.75 42.5  26.25 21.25 43.75  27.5 21.25 43.75  27.5 22.5 43.75  27.5 22.5 45  26.25 20 43.75  27.5 20 43.75  27.5 20 45  27.5 21.25 45  25 20 45  26.25 21.25 45  26.25 20 45  26.25 22.5 43.75  25 22.5 45  26.25 22.5 45  26.25 23.75 43.75  27.5 23.75 43.75  27.5 25 43.75  27.5 25 45  27.5 23.75 45  26.25 23.75 45  26.25 25 43.75  25 25 45  26.25 25 45  25 25 43.75  25 26.25 43.75  23.75 26.25 43.75  25 26.25 45  26.25 26.25 43.75  27.5 26.25 43.75  27.5 27.5 43.75  27.5 27.5 45  27.5 26.25 45  26.25 26.25 45  26.25 27.5 43.75  26.25 27.5 45  27.5 28.75 43.75  27.5 28.75 45  27.5 20 46.25  27.5 18.75 46.25  26.25 18.75 46.25  27.5 20 47.5  27.5 17.5 47.5  27.5 18.75 47.5  26.25 18.75 47.5  26.25 20 46.25  25 20 47.5  26.25 20 47.5  26.25 21.25 46.25  27.5 21.25 46.25  27.5 22.5 46.25  27.5 22.5 47.5  27.5 21.25 47.5  26.25 21.25 47.5  26.25 22.5 46.25  25 21.25 47.5  25 22.5 47.5  26.25 22.5 47.5  25 22.5 46.25  26.25 23.75 46.25  27.5 23.75 46.25  27.5 25 46.25  27.5 25 47.5  27.5 23.75 47.5  26.25 23.75 47.5  26.25 25 46.25  25 23.75 47.5  25 25 47.5  26.25 25 47.5  25 25 46.25  26.25 26.25 46.25  27.5 26.25 46.25  27.5 27.5 46.25  27.5 27.5 47.5  27.5 26.25 47.5  26.25 26.25 47.5  26.25 27.5 46.25  25 26.25 46.25  25 26.25 47.5  26.25 27.5 47.5  27.5 28.75 46.25  27.5 28.75 47.5  27.5 18.75 48.75  26.25 18.75 48.75  27.5 20 48.75  27.5 20 50  27.5 17.5 50  27.5 18.75 50  26.25 18.75 50  26.25 20 48.75  25 20 50  26.25 20 50  26.25 21.25 48.75  27.5 21.25 48.75  27.5 22.5 48.75  27.5 22.5 50  27.5 21.25 50  26.25 21.25 50  26.25 22.5 48.75  25 22.5 50  26.25 22.5 50  25 22.5 48.75  26.25 23.75 48.75  27.5 23.75 48.75  27.5 25 48.75  27.5 25 50  27.5 23.75 50  26.25 23.75 50  26.25 25 48.75  25 25 50  26.25 25 50  25 25 48.75  25 26.25 48.75  23.75 26.25 48.75  25 27.5 48.75  25 27.5 50  25 26.25 50  26.25 26.25 48.75  27.5 26.25 48.75  27.5 27.5 48.75  27.5 27.5 50  27.5 26.25 50  26.25 26.25 50  26.25 27.5 48.75  26.25 27.5 50  25 28.75 50  27.5 28.75 48.75  27.5 28.75 50  26.25 28.75 50  25 22.5 35  25 23.75 35  25 23.75 33.75  23.75 23.75 33.75  25 25 35  23.75 23.75 35  27.5 22.5 35  27.5 23.75 35  26.25 23.75 35  26.25 23.75 33.75  27.5 25 35  26.25 25 35  25 25 32.5  26.25 25 33.75  25 25 33.75  25 26.25 33.75  25 26.25 32.5  23.75 26.25 33.75  25 27.5 32.5  25 27.5 33.75  25 26.25 35  26.25 26.25 33.75  26.25 26.25 35  27.5 26.25 35  27.5 27.5 35  26.25 27.5 35  26.25 27.5 33.75  27.5 28.75 35  25 23.75 36.25  23.75 23.75 36.25  25 25 36.25  23.75 25 36.25  27.5 23.75 36.25  26.25 23.75 36.25  27.5 25 36.25  26.25 25 36.25  25 26.25 36.25  23.75 26.25 36.25  26.25 26.25 36.25  27.5 26.25 36.25  27.5 27.5 36.25  26.25 27.5 36.25  27.5 28.75 36.25  27.5 28.75 37.5  27.5 22.5 32.5  27.5 23.75 32.5  27.5 23.75 31.25  26.25 23.75 31.25  27.5 25 32.5  26.25 23.75 32.5  26.25 25 32.5  26.25 25 31.25  30 22.5 32.5  30 23.75 32.5  30 23.75 31.25  28.75 23.75 31.25  30 25 32.5  28.75 23.75 32.5  28.75 25 32.5  31.25 23.75 32.5  31.25 22.5 32.5  31.25 23.75 31.25  32.5 22.5 32.5  32.5 23.75 32.5  32.5 25 32.5  31.25 25 32.5  32.5 22.5 30  33.75 23.75 31.25  33.75 22.5 31.25  33.75 22.5 30  35 22.5 30  35 23.75 31.25  35 22.5 31.25  35 22.5 32.5  35 23.75 32.5  35 25 32.5  32.5 22.5 31.25  33.75 23.75 32.5  33.75 22.5 32.5  33.75 25 32.5  36.25 23.75 31.25  36.25 22.5 31.25  36.25 22.5 30  37.5 22.5 30  37.5 23.75 31.25  37.5 22.5 31.25  37.5 22.5 32.5  37.5 23.75 32.5  37.5 25 32.5  36.25 23.75 32.5  36.25 22.5 32.5  36.25 25 32.5  38.75 23.75 31.25  38.75 22.5 31.25  38.75 22.5 30  40 22.5 30  40 23.75 31.25  40 22.5 31.25  40 22.5 32.5  40 23.75 32.5  40 25 32.5  38.75 23.75 32.5  38.75 22.5 32.5  38.75 25 32.5  41.25 23.75 31.25  41.25 23.75 32.5  41.25 25 32.5  42.5 25 32.5  26.25 26.25 32.5  26.25 26.25 31.25  32.5 22.5 33.75  32.5 21.25 33.75  31.25 21.25 33.75  32.5 22.5 35  32.5 20 35  32.5 21.25 35  31.25 21.25 35  31.25 22.5 33.75  30 22.5 35  31.25 22.5 35  30 22.5 33.75  33.75 22.5 33.75  33.75 21.25 33.75  33.75 21.25 32.5  35 22.5 33.75  35 22.5 35  33.75 21.25 35  33.75 22.5 35  27.5 23.75 33.75  27.5 25 33.75  30 23.75 33.75  28.75 23.75 33.75  30 25 33.75  30 25 35  30 23.75 35  28.75 23.75 35  28.75 25 33.75  28.75 25 35  31.25 23.75 33.75  32.5 23.75 33.75  32.5 25 33.75  32.5 25 35  32.5 23.75 35  31.25 23.75 35  31.25 25 33.75  31.25 25 35  33.75 23.75 33.75  35 23.75 33.75  35 25 33.75  35 25 35  35 23.75 35  33.75 23.75 35  33.75 25 33.75  33.75 25 35  36.25 23.75 33.75  37.5 23.75 33.75  37.5 25 33.75  37.5 25 35  36.25 22.5 33.75  37.5 22.5 33.75  37.5 22.5 35  37.5 23.75 35  36.25 23.75 35  36.25 22.5 35  36.25 25 33.75  36.25 25 35  38.75 23.75 33.75  40 23.75 33.75  40 25 33.75  40 25 35  38.75 22.5 33.75  40 22.5 33.75  40 22.5 35  40 23.75 35  38.75 23.75 35  38.75 22.5 35  38.75 25 33.75  38.75 25 35  41.25 23.75 33.75  41.25 22.5 32.5  42.5 22.5 32.5  42.5 23.75 33.75  42.5 23.75 32.5  42.5 25 33.75  42.5 25 35  41.25 22.5 33.75  42.5 22.5 33.75  42.5 22.5 35  42.5 23.75 35  41.25 23.75 35  41.25 22.5 35  41.25 25 33.75  41.25 25 35  43.75 23.75 33.75  43.75 22.5 33.75  43.75 23.75 35  43.75 22.5 35  45 22.5 35  45 23.75 35  45 25 35  43.75 2
[...]
<PointData  Vectors="u"> 
<DataArray  type="Float64"  Name="u"  NumberOfComponents="3" format="ascii">1.9999999998240730e+02 -6.1683131069288143e-11 5.9676093319431556e-11  1.9999999998140441e+02 1.6353061631507197e-11 -2.3485922329343661e-10  1.9999999998234375e+02 2.5836290494119188e-12 -4.7331641704350738e-11  1.9999999998143144e+02 3.1841724439269356e-11 -5.7178995365244273e-11  1.9999999998247768e+02 -5.0701763994168361e-12 8.1286116307864518e-11  1.9999999998146350e+02 1.2712792735161375e-11 -1.0122555232615008e-10  1.9999999998078113e+02 2.9256438640679789e-11 5.0764170848406485e-11  1.9999999998218763e+02 1.9287541370210494e-11 -1.8574943409722663e-10  1.9999999998306930e+02 -4.1477641384977383e-11 -1.3006065444800235e-10  1.9999999998229467e+02 3.2577732016877976e-13 -1.3931101957067372e-10  1.9999999998250107e+02 -2.8714164935815774e-11 1.3195857760561429e-10  1.9999999998225800e+02 9.4366062456440483e-12 2.0643795154083756e-11  1.9999999998244431e+02 -1.0295503561467649e-10 3.1486248249295284e-11  1.9999999998236100e+02 -5.1676376239970094e-12 4.0288147828216599e-11  1.9999999998146373e+02 -2.8513756212901408e-13 -9.7144915192389881e-11  1.9999999998133237e+02 -2.3177082110265858e-11 -2.4934823280501335e-10  1.9999999998060034e+02 3.6488272600393660e-11 -4.7765480834138011e-11  1.9999999998081611e+02 3.4586358733199561e-11 9.1818002255319684e-11  1.9999999998147251e+02 -1.9585147285181887e-11 -2.5221197522929799e-10  1.9999999998149605e+02 -1.7361195738609829e-11 -7.4562114665396019e-11  1.9999999998144943e+02 -7.6372841871909805e-11 -1.1170250433832329e-10  1.9999999998055227e+02 -7.6540215742931081e-11 -1.0000414710855886e-10  1.9999999998067400e+02 2.6417120434518179e-11 3.6182199502525020e-12  1.9999999998083828e+02 9.9374807452900492e-11 1.0212982359198043e-10  1.9999999998144037e+02 -5.1591386079901671e-11 -2.0820593535346406e-10  1.9999999998241725e+02 8.5263328960938632e-11 1.0161663724643412e-10  1.9999999998152603e+02 1.1225880958590981e-11 -2.6736381247872417e-11  1.9999999998243638e+02 8.5283546955637542e-11 8.5686471906084119e-11  1.9999999998144315e+02 -1.9989477170616123e-10 -1.2842929193889901e-10  1.9999999998233383e+02 -6.2986015868175650e-13 -6.8088197168788240e-11  1.9999999998143107e+02 -1.0422562543453743e-10 -9.1146500747174113e-11  1.9999999998148292e+02 -1.2456464491198433e-10 -1.2867528881656107e-10  1.9999999998142036e+02 -9.1612916204528191e-12 -8.0710679775024764e-11  1.9999999998131759e+02 -1.3706359280337213e-11 -1.7765765469310370e-10  1.9999999998064851e+02 9.6553194635525541e-11 -4.0012759393038858e-11  1.9999999998081654e+02 3.6822946523838350e-11 1.2810799894811543e-10  1.9999999998248452e+02 -8.3506839403149899e-11 4.6290149728184947e-11  1.9999999998141578e+02 5.2411769187297734e-11 -1.8455102294412346e-10  1.9999999998242649e+02 -1.8211289829639706e-11 -1.9722803327694812e-11  1.9999999998252329e+02 1.2252244560091094e-11 1.3417716203516593e-10  1.9999999998150460e+02 -8.6222548817808570e-12 -4.5400337046865656e-11  1.9999999998231783e+02 -4.4129215207855443e-11 -5.2591176986972161e-11  1.9999999998147828e+02 -5.3188198517005802e-11 -4.9147422038712270e-11  1.9999999998055364e+02 -7.4462574357515494e-11 -1.0101087377095920e-10  1.9999999998063896e+02 1.4060331850538414e-11 -4.0686232434632728e-11  1.9999999998080744e+02 8.6888513268830802e-11 8.2806438213973241e-11  1.9999999998062660e+02 7.8372562171776542e-12 -5.1904274206170059e-13  1.9999999998141794e+02 -8.2692100453950191e-11 -1.8157318986507202e-10  1.9999999998145145e+02 -2.0388905084914297e-10 -7.8732488594133174e-11  1.9999999998146052e+02 -8.0595715724279512e-11 -9.5860641016241699e-11  1.9999999998058988e+02 -1.1764727987653563e-10 -1.0498243057640486e-10  1.9999999998064982e+02 -1.8357590484904322e-11 -3.4089809169556033e-11  1.9999999998081296e+02 6.7299856336718083e-11 7.2094899157531143e-11  1.9999999998144327e+02 -1.1062705805961076e-10 -1.8847135125872631e-10  1.9999999998147135e+02 1.8852184170282650e-11 -8.8886691412943011e-11  1.9999999998134055e+02 -1.2909645339861563e-11 -2.3748503886100983e-10  1.9999999998062054e+02 5.9815509373421723e-11 -1.1736126631625825e-11  1.9999999998084203e+02 1.8422137704810484e-11 9.5826802046952719e-11  1.9999999998247077e+02 -5.7379838094478641e-11 9.6606128563376111e-11  1.9999999998147129e+02 3.1463268634864442e-11 -2.1574717695675453e-10  1.9999999998242484e+02 -4.1991381472881770e-11 1.0501307260043009e-11  1.9999999998252363e+02 7.1751304862766995e-12 1.2226634575707978e-10  1.9999999998151134e+02 -4.2320651197604023e-11 -7.9671394681755939e-11  1.9999999998233065e+02 -2.9090672046339883e-11 -7.5140332753030743e-11  1.9999999998148564e+02 -8.6811609223337589e-11 -9.4748124291863492e-11  1.9999999998057450e+02 -1.1030515354347885e-10 -1.0584386812590476e-10  1.9999999998065005e+02 1.7545857847934011e-11 -1.1237459539302267e-11  1.9999999998082782e+02 8.2581386908092085e-11 6.9359979622496567e-11  1.9999999998066701e+02 -1.1198983422021329e-11 -2.3237094667368282e-11  1.9999999998143741e+02 -4.6140001815108999e-11 -2.2575781273036081e-10  1.9999999998144236e+02 -1.9620416663559381e-10 -1.0455762287202763e-10  1.9999999998062398e+02 -1.3425628056591531e-10 -1.1386466286847325e-10  1.9999999998143170e+02 -1.0138784755374242e-10 -9.2043737172692104e-11  1.9999999998062614e+02 -6.5983012671912739e-12 -1.6823140852780305e-11  1.9999999998082731e+02 8.3442171860439417e-11 5.6287040244275706e-11  1.9999999998061526e+02 -4.2992064906161563e-11 -2.3921821383868473e-11  1.9999999998144844e+02 -1.2277784651638624e-10 -1.2809109563217719e-10  1.9999999998144526e+02 -1.4894714736236710e-10 -1.2328301044617944e-10  1.9999999998057447e+02 -1.3499791790105723e-10 -1.3628142423443512e-10  1.9999999998063657e+02 -1.3985347465145741e-12 2.3379432236600742e-11  1.9999999998145663e+02 -8.6190814028678513e-11 -1.0765330265312107e-10  1.9999999998080682e+02 6.1806265067277779e-11 1.0039287760585700e-10  1.9999999998058129e+02 -2.8235648553951527e-11 -7.4415965816285161e-11  1.9999999998077357e+02 7.0810238103313689e-11 1.0318142073195543e-10  1.9999999998059084e+02 -5.6385171922221225e-11 -6.9951736798832859e-12  1.9999999998143801e+02 -9.3758596887082084e-11 -1.2821171722062783e-10  1.9999999998141624e+02 -2.2311414335403740e-10 -9.2725238113272617e-11  1.9999999998142738e+02 -8.0755449001858537e-11 -1.1653313244971960e-10  1.9999999998057316e+02 -1.0244494582583316e-10 -1.2817718565283243e-10  1.9999999998221563e+02 5.7806754984248975e-11 -1.3488115210950144e-10  1.9999999998311279e+02 -3.0440584856821862e-11 -5.6971603984317573e-11  1.9999999998232076e+02 -1.2591576660352880e-11 -8.8622770315801902e-11  1.9999999998250519e+02 1.0494587675964409e-11 1.5557653162265252e-10  1.9999999998227779e+02 1.0641947736541214e-10 -4.4368438718326294e-11  1.9999999998243683e+02 -8.6293824476242443e-11 8.5335540824783518e-11  1.9999999998236905e+02 2.6889932476427582e-11 8.1784090129513756e-12  1.9999999998147294e+02 1.4823869705336580e-11 -1.0853578114560609e-10  1.9999999998134044e+02 -4.3764987524736500e-11 -2.2443903416219254e-10  1.9999999998065931e+02 5.0216916475361368e-11 -4.5217566301293911e-11  1.9999999998083342e+02 4.8165492974519247e-11 1.0544871835789130e-10  1.9999999998141035e+02 4.2597984867336935e-11 -1.8268141028521416e-10  1.9999999998146762e+02 4.2615352369131627e-12 -6.1861798796846049e-11  1.9999999998146521e+02 -7.7243285199844263e-11 -7.2397377606317464e-11  1.9999999998062995e+02 -1.2464738765739487e-10 -1.2864108642647946e-10  1.9999999998065184e+02 2.2167389503259881e-11 9.9468456205960961e-12  1.9999999998084039e+02 7.4647971351790163e-11 9.8982018788013099e-11  1.9999999998064015e+02 1.2482546543166465e-11 2.3334754845873908e-11  1.9999999998143730e+02 -6.3107662670370585e-11 -1.3883137029755274e-10  1.9999999998142690e+02 -1.2401573930744562e-10 -1.3674286902423094e-10  1.9999999998235688e+02 -1.1887655988761427e-12 2.6389450266825529e-11  1.9999999998247245e+02 4.1255751287489205e-11 7.8734140008037386e-11  1.9999999998149687e+02 -4.6789461790067112e-11 3.0618230526015473e-11  1.9999999998057635e+02 -1.6553761305311825e-10 -1.0615220127515994e-10  1.9999999998145557e+02 -1.3370548727695179e-10 -1.4809069711992566e-10  1.9999999998060412e+02 1.7054941407036533e-11 1.2652109887111866e-11  1.9999999998080685e+02 8.5651666828456902e-11 7.9423997943674289e-11  1.9999999998064749e+02 -3.5538850942444828e-11 -1.0737706152161611e-11  1.9999999998143980e+02 -1.4130275941092825e-10 -1.5372123058354716e-10  1.9999999998145074e+02 -1.1238521296020929e-10 -1.1456965107045865e-10  1.9999999998152853e+02 7.6041894667189456e-11 -1.6401029890173653e-11  1.9999999998052218e+02 -1.4558357735454827e-10 -1.2441084968410314e-10  1.9999999998145802e+02 -7.7050815328987598e-11 -1.0421399713459872e-10  1.9999999998058669e+02 7.4348822886762379e-12 -3.1318104979477364e-11  1.9999999998078022e+02 7.3612259766423715e-11 1.0944843576480153e-10  1.9999999998058519e+02 -2.9271816403871775e-11 -1.3466318251926002e-11  1.9999999998143323e+02 -1.2956369107263388e-10 -2.0487592022065065e-10  1.9999999998144591e+02 3.7005386312670900e-11 -9.7280118880392614e-11  1.9999999998133208e+02 7.7840646376154504e-12 -1.9696047147327858e-10  1.9999999998064064e+02 3.2420578112133793e-11 -7.4899916480883554e-11  1.9999999998082373e+02 4.9277002317314236e-11 6.1817640435872181e-11  1.9999999998222157e+02 9.4068565815767766e-11 -1.5094263831853160e-10  1.9999999998227008e+02 1.1252287067132627e-10 -4.6033396214891911e-11  1.9999999998242566e+02 -6.4693734891482243e-11 3.1622539362831998e-11  1.9999999998143201e+02 3.4540761426258704e-11 -1.7712957857931960e-10  1.9999999998238866e+02 5.2925906547621167e-11 -6.2004669873232851e-12  1.9999999998250081e+02 3.5590829296885739e-12 5.6266466738184954e-11  1.9999999998147109e+02 2.2212441933721708e-11 -8.4435474124908104e-11  1.9999999998230368e+02 -1.5059148230636921e-13 -6.2202242831082945e-11  1.9999999998145765e+02 -5.0682817748111204e-11 -8.8823422762529075e-11  1.9999999998056950e+02 -8.5894556998928983e-11 -1.2595960007617098e-10  1.9999999998062603e+02 -9.7691813352118166e-12 -3.8520853279357990e-11  1.9999999998082026e+02 8.1559974716429231e-11 3.6187904920569561e-11  1.9999999998065778e+02 -9.1240142131504402e-12 -1.1567837283275056e-11  1.9999999998143122e+02 -7.3137310243601980e-11 -2.1241628126587882e-10  1.9999999998143394e+02 -2.3545769942102395e-10 -1.0722736203840120e-10  1.9999999998144443e+02 -1.1861740944335782e-10 -9.2540004538095089e-11  1.9999999998060315e+02 -1.3845702339949685e-10 -1.2320641424286216e-10  1.9999999998062279e+02 -1.2681680732249246e-11 -2.7230009475443216e-11  1.9999999998083121e+02 9.8076185548487192e-11 4.5044927299139943e-11  1.9999999998065357e+02 -4.3409157704478631e-11 -5.7631573280541390e-11  1.9999999998146853e+02 -1.0473684220919293e-10 -1.8706865514350597e-10  1.9999999998139941e+02 -1.7412143557628241e-10 -9.7035597147096126e-11  1.9999999998245460e+02 1.2234724322288512e-10 1.0647548166677971e-11  1.9999999998148891e+02 -1.9580320044917936e-11 -5.6793208981775870e-11  1.9999999998057200e+02 -1.0109343045360050e-10 -9.4910892829654293e-11  1.9999999998146166e+02 -1.0412487919343354e-10 -1.1934342275277869e-10  1.9999999998063032e+02 -1.4731068421909817e-11 -7.8613406657627433e-11  1.9999999998081714e+02 5.2072693012337119e-11 2.2770994058304053e-11  1.9999999998067238e+02 -7.1475582003632852e-11 -4.6853204374703408e-11  1.9999999998144193e+02 -1.0480499159026124e-10 -1.9403898808809031e-10  1.9999999998146836e+02 -1.5921127432704639e-10 -1.3728902502649832e-10  1.9999999998055236e+02 -1.4361052757581186e-10 -1.3987904732996727e-10  1.9999999998060559e+02 -3.7378366225278508e-11 2.2785176630147845e-11  1.9999999998145634e+02 -9.9189430128955237e-11 -1.2326918095845999e-10  1.9999999998080048e+02 7.6648769740488887e-11 7.3381939580553143e-11  1.9999999998062111e+02 -1.4674431676354808e-11 -2.9015331267063177e-11  1.9999999998081341e+02 1.0437211533321774e-10 4.1650072264618861e-11  1.9999999998064689e+02 -1.1633582275568041e-11 -6.4811694046717005e-11  1.9999999998141911e+02 -1.2099341095953466e-10 -2.4082203257879853e-10  1.9999999998215952e+02 2.5281549843946127e-11 3.0011099008103898e-11  1.9999999998305177e+02 1.1105461939896774e-11 5.3514903176411599e-11  1.9999999998233278e+02 -2.5250649848141056e-12 3.9897941199752304e-11  1.9999999998244110e+02 2.3357368990277139e-12 -5.0821849140212421e-10  1.9999999998142545e+02 6.6303903265267637e-11 -8.9648930132725874e-12  1.9999999998131628e+02 -9.9862424166500510e-13 -1.3387518950370981e-10  1.9999999998064027e+02 5.1393917064041411e-11 1.4722496831717936e-11  1.9999999998081253e+02 7.5352398154346013e-12 -4.9322824926406746e-10  1.9999999998148746e+02 1.4802472145400689e-11 1.8775509041709766e-11  1.9999999998144969e+02 -9.6118275285641963e-11 1.1682952611558699e-11  1.9999999998057356e+02 -7.6873579999579147e-11 -5.4697693257836742e-11  1.9999999998063646e+02 1.3587582612449085e-11 2.6470959474443471e-11  1.9999999998079133e+02 8.0858172039148181e-11 -4.3736862402609759e-10  1.9999999998058800e+02 2.0257241755547931e-11 3.4752634143793961e-11  1.9999999998154198e+02 2.1813539583874236e-12 1.5736486930008262e-10  1.9999999998144855e+02 -2.1511016613542797e-10 -1.1026887521495020e-11  1.9999999998150710e+02 7.4717561609342271e-11 -2.7425696284983718e-11  1.9999999998057848e+02 -1.1851375934432501e-10 2.2755037871326820e-11  1.9999999998146467e+02 -9.6604118902690978e-11 2.8461542299489358e-11  1.9999999998062785e+02 -2.7427968585742304e-11 2.2796213498274970e-11  1.9999999998080278e+02 3.7045815510811737e-11 -4.8398110536451573e-10  1.9999999998061534e+02 -3.3544180504632432e-11 -3.7025358725092504e-11  1.9999999998155403e+02 9.1122035310137948e-12 2.3604169826913632e-10  1.9999999998141931e+02 -2.1097526457960177e-10 1.0494111269822518e-11  1.9999999998146376e+02 3.8503246608720593e-11 2.9577116597351244e-11  1.9999999998143397e+02 -1.2466840112735034e-10 1.0677977716662416e-11  1.9999999998055330e+02 -1.1729065792265719e-10 -3.3988326580307486e-11  1.9999999998065869e+02 -3.0681052555705646e-11 3.6010378546417430e-11  1.9999999998078712e+02 6.0445395169618405e-11 -4.8573470027304693e-10  1.9999999998064681e+02 -3.5188839136861690e-11 1.5626353289844148e-11  1.9999999998150881e+02 -1.8978440932133175e-11 1.5122178216955143e-10  1.9999999998141283e+02 -2.0960944977537879e-10 8.6054766656500983e-12  1.9999999998058323e+02 -8.4791257027998804e-11 1.9299520865427584e-11  1.9999999998142880e+02 -1.0107230571374634e-10 3.9951935713615365e-11  1.9999999998063228e+02 -8.0504291153046217e-13 2.4230169542344010e-11  1.9999999998078613e+02 5.2943647435113997e-11 -5.1252466069983862e-10  1.9999999998063987e+02 -7.0011015447517202e-12 1.5598020166275795e-11  1.9999999998247881e+02 1.3360434440523039e-10 -6.2248915686983133e-11  1.9999999998141132e+02 -1.4255312136529464e-10 -1.1244044120514257e-10  1.9999999998145685e+02 -4.7012992795066233e-11 3.6092480416968284e-11  1.9999999998145276e+02 -6.3827695231645037e-11 -1.3161413776904621e-10  1.9999999998077129e+02 7.6889581080231985e-11 2.3360701791070403e-11  1.9999999998064803e+02 -2.1513421510573966e-11 -2.8179331478710034e-11  1.9999999998080625e+02 8.6415416903564642e-11 7.5379636877573644e-11  1.9999999998235805e+02 1.5391203344039036e-11 -5.0413204078399059e-11  1.9999999998246366e+02 9.1314065998929202e-11 1.0497612515660377e-10  1.9999999998148428e+02 7.0177989148504543e-11 -2.1949141941375456e-11  1.9999999998217029e+02 -1.0067335219129311e-10 -1.2931679047296558e-10  1.9999999998230237e+02 -1.4832914453328839e-11 5.1360131908134894e-11  1.9999999998308039e+02 -6.3727298274889915e-11 -1.1292995471854407e-10  1.9999999998297736e+02 -2.1539442376596384e-10 -6.1452056548677227e-11  1.9999999998247031e+02 9.4021431214011019e-11 -4.3837010762378631e-11  1.9999999998231888e+02 -1.3002579377735498e-11 -1.7888880813548045e-11  1.9999999998243788e+02 1.1795283498741070e-10 8.6751695643189201e-11  1.9999999998235572e+02 -7.0372990784535895e-12 -3.7001610437853873e-11  1.9999999998140433e+02 -8.8212703540581647e-11 -1.1880276402039893e-10  1.9999999998128879e+02 -1.8054078634270414e-10 -7.7367746192867788e-11  1.9999999998059155e+02 -1.5786807747910052e-10 -1.2608447054989558e-10  1.9999999998059062e+02 -1.1772166632724716e-11 9.6968425449312635e-11  1.9999999998076686e+02 9.0501632899613649e-11 -4.3393075545272974e-12  1.9999999998060096e+02 3.9686048555742006e-11 1.8626771736496258e-11  1.9999999998078519e+02 1.0633898739583655e-10 1.0911688573593584e-10  1.9999999998060446e+02 -2.0234838456069144e-11 2.7052505738461819e-11  1.9999999998141172e+02 -1.3381091006122222e-10 -1.9833920844641412e-10  1.9999999998138057e+02 -1.4535514581684911e-10 -1.1753763071308152e-10  1.9999999998143741e+02 -8.4061949743724214e-11 6.8057367960104434e-11  1.9999999998150176e+02 1.4860102969158945e-11 7.3713589361137634e-13  1.9999999998138509e+02 -4.0514920138801179e-11 -1.1576951432369273e-10  1.9999999998129277e+02 -1.7091501812933736e-10 -3.7672375566470420e-11  1.9999999998054000e+02 -9.2914664887154073e-11 -1.1898833243455607e-10  1.9999999998060568e+02 -8.9233769355768565e-12 1.2975977914755261e-10  1.9999999998076058e+02 5.1438804073369873e-11 5.0026227443913811e-11  1.9999999998060241e+02 -5.2099248976082453e-11 -1.4740146521974188e-11  1.9999999998079662e+02 5.5906010481740238e-11 9.0969820975135523e-11  1.9999999998059934e+02 -6.0853151260238819e-11 1.1667407840655896e-11  1.9999999998138898e+02 -9.3777815669037713e-11 -2.0516811778543484e-10  1.9999999998218419e+02 5.7577826819884843e-11 6.4218030214810015e-11  1.9999999998146853e+02 -7.5011531031448340e-12 -3.7347862547020865e-11  1.9999999998145620e+02 3.1462753339921969e-11 1.3107847879096084e-10  1.9999999998226363e+02 2.0007095418017946e-11 -8.6737856828942603e-11  1.9999999998224817e+02 6.2774993827384461e-11 -3.0882139608640375e-11  1.9999999998142829e+02 -1.2009969958392613e-11 6.7963431781195613e-11  1.9999999998229265e+02 1.5416904814179588e-10 -2.2094960869477897e-11  1.9999999998052024e+02 -7.9482385053239871e-11 -4.1631318815796107e-11  1.9999999998059815e+02 -8.5530707797209751e-12 4.1252595451148285e-11  1.9999999998059167e+02 2.0212340823578943e-11 -7.1480630724053844e-11  1.9999999998056876e+02 -1.0299070910200335e-10 -1.6727521768084367e-10  1.9999999998141016e+02 -7.6811434559008598e-11 -7.6494220541853894e-11  1.9999999998077448e+02 7.7858920974501557e-11 8.7386426230315362e-11  1.9999999998084809e+02 3.3039526706179160e-11 9.9972138964997108e-11  1.9999999998055284e+02 -3.9637239398261312e-11 1.8913051975672702e-11  1.9999999998245960e+02 9.7764531192636618e-11 8.1344729596686331e-11  1.9999999998137878e+02 -1.0185776037726471e-10 -1.4418533698541648e-10  1.9999999998142070e+02 2.7084835177868380e-11 2.8117826178069178e-11  1.9999999998140015e+02 -1.4101924805431488e-10 -1.3586723008467055e-10  1.9999999998244792e+02 1.0521557913475764e-10 8.8052519309444657e-11  1.9999999998144258e+02 -1.9736700635776585e-11 2.9920308531148415e-11  1.9999999998235407e+02 -6.4879116007174076e-12 -3.9360097801130418e-11  1.9999999998143230e+02 -8.4635234092498444e-11 -1.2571260281133154e-10  1.9999999998055017e+02 -1.0137856416520092e-10 -1.6385843721642104e-10  1.9999999998063535e+02 1.8010263809502106e-11 -4.1269825630064958e-11  1.9999999998079943e+02 1.1062855502776451e-10 9.9948136719449318e-11  1.9999999998062870e+02 -8.0533991240959391e-12 -1.3507048919957327e-11  1.9999999998134382e+02 -1.0073731647735816e-10 -1.3548977581015723e-10  1.9999999998140277e+02 -1.7051860308534064e-10 -1.3796471832817732e-10  1.9999999998220179e+02 -1.1246793064728956e-10 -9.8121381758629979e-11  1.9999999998236009e+02 1.1495486997414220e-11 2.8248569467899273e-11  1.9999999998243993e+02 7.9588863530843264e-11 9.0037459539504961e-11  1.9999999998146296e+02 5.3807522840758689e-11 3.7526352282884408e-11  1.9999999998233042e+02 5.2600632417876389e-11 -4.0279694858862115e-11  1.9999999998139575e+02 -4.483