<?xml version="1.0"?>
<VTKFile type="UnstructuredGrid"  version="0.1"  >
<UnstructuredGrid>
<Piece  NumberOfPoints="3819" NumberOfCells="18971">
<Points>
<DataArray  type="Float64"  NumberOfComponents="3"  format="ascii">25 27.5 32.5  25 28.75 33.75  25 28.75 32.5  23.75 28.75 33.75  25 30 32.5  25 30 33.75  25 30 35  25 27.5 33.75  25 27.5 35  25 28.75 35  26.25 28.75 33.75  26.25 30 33.75  26.25 30 35  27.5 30 35  26.25 31.25 33.75  26.25 31.25 35  27.5 31.25 35  27.5 32.5 35  25 31.25 35  25 32.5 35  26.25 32.5 35  26.25 32.5 33.75  26.25 33.75 35  26.25 33.75 33.75  27.5 33.75 35  27.5 35 35  26.25 35 35  26.25 35 33.75  27.5 36.25 35  26.25 36.25 35  26.25 36.25 33.75  27.5 37.5 35  26.25 31.25 36.25  27.5 31.25 36.25  27.5 32.5 36.25  27.5 32.5 37.5  26.25 32.5 36.25  26.25 33.75 36.25  27.5 33.75 36.25  27.5 35 36.25  27.5 35 37.5  27.5 33.75 37.5  26.25 33.75 37.5  26.25 35 36.25  27.5 36.25 36.25  26.25 36.25 36.25  27.5 37.5 36.25  27.5 37.5 37.5  27.5 36.25 37.5  27.5 33.75 38.75  26.25 33.75 38.75  27.5 35 38.75  27.5 35 40  26.25 35 38.75  27.5 36.25 38.75  26.25 36.25 38.75  32.5 25 25  32.5 25 26.25  32.5 23.75 26.25  31.25 23.75 26.25  32.5 25 27.5  32.5 23.75 27.5  31.25 23.75 27.5  30 25 25  31.25 25 26.25  31.25 25 25  30 25 27.5  31.25 25 27.5  30 25 26.25  35 22.5 27.5  35 23.75 27.5  33.75 23.75 27.5  33.75 23.75 26.25  35 25 27.5  33.75 25 27.5  33.75 25 26.25  27.5 25 25  27.5 26.25 26.25  27.5 26.25 25  26.25 26.25 26.25  26.25 26.25 25  27.5 27.5 25  27.5 27.5 26.25  27.5 27.5 27.5  27.5 25 26.25  27.5 25 27.5  27.5 26.25 27.5  25 25 27.5  26.25 26.25 27.5  26.25 25 27.5  25 27.5 27.5  26.25 27.5 27.5  28.75 26.25 26.25  28.75 26.25 25  28.75 25 25  30 26.25 26.25  30 26.25 25  30 27.5 25  30 27.5 26.25  30 27.5 27.5  28.75 25 26.25  30 26.25 27.5  28.75 26.25 27.5  28.75 25 27.5  28.75 27.5 26.25  28.75 27.5 25  28.75 27.5 27.5  31.25 26.25 26.25  32.5 26.25 26.25  32.5 26.25 27.5  32.5 27.5 27.5  31.25 26.25 27.5  31.25 27.5 27.5  31.25 27.5 26.25  33.75 26.25 26.25  33.75 25 25  35 25 25  35 26.25 26.25  35 25 26.25  35 26.25 27.5  35 27.5 27.5  33.75 26.25 27.5  33.75 27.5 27.5  36.25 26.25 26.25  36.25 25 26.25  36.25 25 25  37.5 25 25  37.5 26.25 26.25  37.5 25 26.25  37.5 25 27.5  37.5 26.25 27.5  37.5 27.5 27.5  36.25 26.25 27.5  36.25 25 27.5  36.25 27.5 27.5  38.75 26.25 26.25  38.75 25 26.25  38.75 25 25  40 25 25  40 26.25 26.25  40 25 26.25  40 25 27.5  40 26.25 27.5  40 27.5 27.5  38.75 26.25 27.5  38.75 25 27.5  38.75 27.5 27.5  41.25 26.25 26.25  41.25 25 26.25  41.25 25 25  42.5 25 25  42.5 26.25 26.25  42.5 25 26.25  42.5 25 27.5  42.5 26.25 27.5  42.5 27.5 27.5  41.25 26.25 27.5  41.25 25 27.5  41.25 27.5 27.5  43.75 26.25 26.25  43.75 26.25 27.5  43.75 27.5 27.5  45 27.5 27.5  28.75 28.75 26.25  30 28.75 26.25  30 28.75 27.5  30 30 27.5  28.75 28.75 27.5  27.5 28.75 26.25  27.5 28.75 27.5  27.5 30 27.5  28.75 30 27.5  31.25 28.75 26.25  31.25 28.75 27.5  32.5 28.75 27.5  32.5 30 27.5  31.25 30 27.5  27.5 25 28.75  27.5 23.75 28.75  26.25 23.75 28.75  27.5 25 30  26.25 25 28.75  25 25 30  26.25 25 30  26.25 23.75 30  30 25 28.75  30 23.75 28.75  28.75 23.75 28.75  30 25 30  30 23.75 30  28.75 23.75 30  28.75 25 28.75  28.75 25 30  32.5 25 28.75  32.5 23.75 28.75  31.25 23.75 28.75  32.5 25 30  32.5 22.5 30  32.5 23.75 30  31.25 23.75 30  31.25 25 28.75  31.25 25 30  35 23.75 28.75  33.75 23.75 28.75  35 25 28.75  35 25 30  35 22.5 28.75  35 22.5 30  35 23.75 30  33.75 23.75 30  33.75 22.5 30  33.75 25 28.75  33.75 25 30  36.25 23.75 28.75  36.25 23.75 27.5  36.25 22.5 27.5  37.5 22.5 27.5  37.5 23.75 28.75  37.5 23.75 27.5  37.5 25 28.75  37.5 25 30  36.25 22.5 28.75  37.5 22.5 28.75  37.5 22.5 30  37.5 23.75 30  36.25 23.75 30  36.25 22.5 30  36.25 25 28.75  36.25 25 30  38.75 23.75 28.75  38.75 22.5 28.75  38.75 23.75 30  38.75 22.5 30  40 22.5 30  40 23.75 30  40 25 30  38.75 23.75 27.5  38.75 25 28.75  40 25 28.75  38.75 25 30  26.25 26.25 28.75  27.5 26.25 28.75  27.5 27.5 28.75  27.5 27.5 30  27.5 26.25 30  26.25 26.25 30  26.25 27.5 28.75  25 27.5 30  26.25 27.5 30  28.75 26.25 28.75  30 26.25 28.75  30 27.5 28.75  30 27.5 30  30 26.25 30  28.75 26.25 30  28.75 27.5 28.75  28.75 27.5 30  31.25 26.25 28.75  32.5 26.25 28.75  32.5 27.5 28.75  32.5 27.5 30  32.5 26.25 30  31.25 26.25 30  31.25 27.5 28.75  31.25 27.5 30  33.75 26.25 28.75  35 26.25 28.75  35 27.5 28.75  35 27.5 30  35 26.25 30  33.75 26.25 30  33.75 27.5 28.75  33.75 27.5 30  36.25 26.25 28.75  37.5 26.25 28.75  37.5 27.5 28.75  37.5 27.5 30  37.5 26.25 30  36.25 26.25 30  36.25 27.5 28.75  36.25 27.5 30  38.75 26.25 28.75  40 26.25 28.75  40 27.5 28.75  40 27.5 30  40 26.25 30  38.75 26.25 30  38.75 27.5 28.75  38.75 27.5 30  41.25 26.25 28.75  42.5 26.25 28.75  42.5 27.5 28.75  42.5 27.5 30  41.25 25 28.75  42.5 25 28.75  42.5 25 30  42.5 26.25 30  41.25 26.25 30  41.25 25 30  41.25 27.5 28.75  41.25 27.5 30  43.75 26.25 28.75  43.75 25 28.75  43.75 26.25 30  43.75 25 30  45 25 30  45 26.25 30  45 27.5 30  43.75 27.5 28.75  45 27.5 28.75  43.75 27.5 30  26.25 28.75 28.75  26.25 28.75 27.5  27.5 28.75 28.75  27.5 30 28.75  27.5 30 30  27.5 28.75 30  26.25 28.75 30  25 30 30  26.25 30 30  28.75 28.75 28.75  30 28.75 28.75  30 30 28.75  30 30 30  30 28.75 30  28.75 28.75 30  28.75 30 28.75  28.75 30 30  31.25 28.75 28.75  32.5 28.75 28.75  32.5 30 28.75  32.5 30 30  32.5 28.75 30  31.25 28.75 30  31.25 30 28.75  31.25 30 30  33.75 28.75 28.75  33.75 28.75 27.5  35 28.75 28.75  35 28.75 27.5  35 30 27.5  35 30 28.75  35 30 30  35 28.75 30  33.75 28.75 30  33.75 30 28.75  33.75 30 27.5  33.75 30 30  36.25 28.75 28.75  36.25 28.75 27.5  37.5 28.75 28.75  37.5 28.75 27.5  37.5 30 27.5  37.5 30 28.75  37.5 30 30  37.5 28.75 30  36.25 28.75 30  36.25 30 28.75  36.25 30 27.5  36.25 30 30  38.75 28.75 28.75  38.75 28.75 27.5  40 28.75 28.75  40 28.75 27.5  40 30 27.5  40 30 28.75  40 30 30  40 28.75 30  38.75 28.75 30  38.75 30 28.75  38.75 30 27.5  38.75 30 30  41.25 28.75 28.75  41.25 28.75 27.5  42.5 28.75 28.75  42.5 28.75 27.5  42.5 30 27.5  42.5 30 28.75  42.5 30 30  42.5 28.75 30  41.25 28.75 30  41.25 30 28.75  41.25 30 27.5  41.25 30 30  43.75 28.75 28.75  43.75 28.75 27.5  45 28.75 28.75  45 28.75 27.5  45 30 27.5  45 30 28.75  45 30 30  45 28.75 30  43.75 28.75 30  43.75 30 28.75  43.75 30 27.5  43.75 30 30  46.25 28.75 28.75  46.25 27.5 28.75  46.25 27.5 27.5  47.5 27.5 27.5  47.5 28.75 28.75  47.5 27.5 28.75  47.5 27.5 30  47.5 28.75 30  47.5 30 30  46.25 28.75 30  46.25 27.5 30  46.25 30 30  46.25 30 28.75  48.75 28.75 28.75  48.75 27.5 28.75  48.75 27.5 27.5  50 27.5 27.5  50 28.75 28.75  50 27.5 28.75  50 27.5 30  50 28.75 30  50 30 30  48.75 28.75 30  48.75 27.5 30  48.75 30 30  28.75 31.25 28.75  30 31.25 28.75  30 31.25 30  30 32.5 30  28.75 31.25 30  27.5 31.25 28.75  27.5 31.25 30  27.5 32.5 30  28.75 32.5 30  31.25 31.25 28.75  31.25 31.25 27.5  32.5 31.25 28.75  32.5 31.25 27.5  32.5 32.5 27.5  32.5 32.5 28.75  32.5 32.5 30  32.5 31.25 30  31.25 31.25 30  31.25 32.5 30  33.75 31.25 28.75  33.75 31.25 27.5  35 31.25 28.75  35 31.25 27.5  35 32.5 27.5  35 32.5 28.75  35 32.5 30  35 31.25 30  33.75 31.25 30  33.75 32.5 28.75  33.75 32.5 27.5  33.75 32.5 30  36.25 31.25 28.75  36.25 31.25 27.5  37.5 31.25 28.75  37.5 31.25 27.5  37.5 32.5 27.5  37.5 32.5 28.75  37.5 32.5 30  37.5 31.25 30  36.25 31.25 30  36.25 32.5 28.75  36.25 32.5 27.5  36.25 32.5 30  38.75 31.25 28.75  40 31.25 28.75  40 31.25 30  40 32.5 30  38.75 31.25 30  38.75 32.5 30  38.75 32.5 28.75  41.25 31.25 28.75  42.5 31.25 28.75  42.5 31.25 30  42.5 32.5 30  41.25 31.25 30  41.25 32.5 30  43.75 31.25 28.75  45 31.25 28.75  45 31.25 30  45 32.5 30  43.75 31.25 30  43.75 32.5 30  46.25 31.25 28.75  46.25 31.25 30  47.5 31.25 30  47.5 32.5 30  46.25 32.5 30  33.75 33.75 28.75  35 33.75 28.75  35 33.75 30  35 35 30  33.75 33.75 30  36.25 33.75 28.75  37.5 33.75 28.75  37.5 33.75 30  37.5 35 30  36.25 33.75 30  36.25 35 30  38.75 33.75 28.75  38.75 33.75 30  40 33.75 30  40 35 30  38.75 35 30  27.5 25 31.25  27.5 23.75 31.25  26.25 23.75 31.25  27.5 25 32.5  26.25 25 31.25  30 25 31.25  30 23.75 31.25  28.75 23.75 31.25  30 25 32.5  28.75 25 31.25  28.75 25 32.5  32.5 23.75 31.25  31.25 23.75 31.25  32.5 25 31.25  32.5 25 32.5  32.5 22.5 31.25  32.5 22.5 32.5  32.5 23.75 32.5  31.25 25 31.25  31.25 25 32.5  33.75 23.75 31.25  35 23.75 31.25  35 25 31.25  35 25 32.5  33.75 25 31.25  33.75 25 32.5  36.25 23.75 31.25  37.5 23.75 31.25  37.5 25 31.25  37.5 25 32.5  36.25 25 31.25  36.25 25 32.5  38.75 23.75 31.25  40 23.75 31.25  40 25 31.25  40 25 32.5  38.75 25 31.25  38.75 25 32.5  41.25 23.75 31.25  41.25 23.75 30  41.25 25 31.25  42.5 25 31.25  42.5 25 32.5  41.25 25 32.5  26.25 26.25 31.25  27.5 26.25 31.25  27.5 27.5 31.25  27.5 27.5 32.5  27.5 26.25 32.5  26.25 26.25 32.5  26.25 27.5 31.25  26.25 27.5 32.5  28.75 26.25 31.25  30 26.25 31.25  30 27.5 31.25  30 27.5 32.5  30 26.25 32.5  28.75 26.25 32.5  28.75 27.5 31.25  28.75 27.5 32.5  31.25 26.25 31.25  32.5 26.25 31.25  32.5 27.5 31.25  32.5 27.5 32.5  32.5 26.25 32.5  31.25 26.25 32.5  31.25 27.5 31.25  31.25 27.5 32.5  33.75 26.25 31.25  35 26.25 31.25  35 27.5 31.25  35 27.5 32.5  35 26.25 32.5  33.75 26.25 32.5  33.75 27.5 31.25  33.75 27.5 32.5  36.25 26.25 31.25  37.5 26.25 31.25  37.5 27.5 31.25  37.5 27.5 32.5  37.5 26.25 32.5  36.25 26.25 32.5  36.25 27.5 31.25  36.25 27.5 32.5  38.75 26.25 31.25  40 26.25 31.25  40 27.5 31.25  40 27.5 32.5  40 26.25 32.5  38.75 26.25 32.5  38.75 27.5 31.25  38.75 27.5 32.5  41.25 26.25 31.25  42.5 26.25 31.25  42.5 27.5 31.25  42.5 27.5 32.5  42.5 26.25 32.5  41.25 26.25 32.5  41.25 27.5 31.25  41.25 27.5 32.5  43.75 26.25 31.25  45 26.25 31.25  45 27.5 31.25  45 27.5 32.5  43.75 25 31.25  45 25 31.25  45 25 32.5  45 26.25 32.5  43.75 26.25 32.5  43.75 25 32.5  43.75 27.5 31.25  43.75 27.5 32.5  46.25 26.25 31.25  46.25 25 31.25  46.25 26.25 32.5  46.25 25 32.5  47.5 25 32.5  47.5 26.25 32.5  47.5 27.5 32.5  46.25 27.5 32.
[...]
<PointData  Vectors="u"> 
<DataArray  type="Float64"  Name="u"  NumberOfComponents="3" format="ascii">1.9999999998245420e+02 -4.1141048451205515e-11 9.2009940864558376e-11  1.9999999998217061e+02 5.9459250234698980e-11 -1.4438980300719722e-10  1.9999999998227929e+02 1.1537788299523768e-10 1.5281750364449406e-11  1.9999999998312109e+02 8.2556190453078828e-12 -9.1649699974748912e-11  1.9999999998247105e+02 -4.1367204949576101e-11 1.0696439139359985e-10  1.9999999998223961e+02 -2.3266172707641803e-11 -7.4932947642553843e-11  1.9999999998247768e+02 -5.0701763994168361e-12 8.1286116307864518e-11  1.9999999998223606e+02 1.3433885939570518e-10 8.0238422448785193e-12  1.9999999998240730e+02 -6.1683131069288143e-11 5.9676093319431556e-11  1.9999999998234375e+02 2.5836290494119188e-12 -4.7331641704350738e-11  1.9999999998143144e+02 3.1841724439269356e-11 -5.7178995365244273e-11  1.9999999998133899e+02 -1.1577172768937995e-11 -6.5242066423002849e-11  1.9999999998146350e+02 1.2712792735161375e-11 -1.0122555232615008e-10  1.9999999998078113e+02 2.9256438640679789e-11 5.0764170848406485e-11  1.9999999998144449e+02 -7.6850080227117888e-11 -5.0636889315585456e-11  1.9999999998137693e+02 -8.2866445397603920e-11 -2.2534008186257731e-10  1.9999999998060983e+02 -8.6189672070880234e-12 3.9644728515659224e-11  1.9999999998079602e+02 9.5393563183954720e-11 3.6501375771133655e-11  1.9999999998237359e+02 -5.1991545606635370e-12 -2.2052012517044647e-11  1.9999999998243638e+02 8.5283546955637542e-11 8.5686471906084119e-11  1.9999999998149295e+02 -1.4050182254694661e-11 -3.0857704607511786e-11  1.9999999998143085e+02 -2.5812055433334244e-10 -6.2634287357171129e-11  1.9999999998142081e+02 -1.4226162048462952e-10 -2.4887202069863064e-10  1.9999999998147325e+02 -8.6162250787699227e-11 -7.8535752277415179e-11  1.9999999998059644e+02 -8.3193054993061543e-11 5.4420703753508841e-11  1.9999999998080932e+02 1.1916655814100977e-10 5.8507529387104386e-11  1.9999999998151787e+02 -1.1923433857409566e-11 -3.3944450045600132e-11  1.9999999998143113e+02 -2.5819657116223102e-10 -8.2724267032675044e-11  1.9999999998062393e+02 -2.8598821120978009e-11 1.0810127280470483e-10  1.9999999998140171e+02 -1.0542641410158962e-10 -1.6297431078813143e-10  1.9999999998141038e+02 -7.7940461073509866e-11 -9.2264134059080621e-11  1.9999999998077834e+02 9.1116325327246618e-11 5.8286444047859961e-11  1.9999999998144943e+02 -7.6372841871909805e-11 -1.1170250433832329e-10  1.9999999998055227e+02 -7.6540215742931081e-11 -1.0000414710855886e-10  1.9999999998062381e+02 3.7456973919674270e-12 1.8372262306949184e-11  1.9999999998083828e+02 9.9374807452900492e-11 1.0212982359198043e-10  1.9999999998144315e+02 -1.9989477170616123e-10 -1.2842929193889901e-10  1.9999999998143107e+02 -1.0422562543453743e-10 -9.1146500747174113e-11  1.9999999998060204e+02 -1.2336059951346142e-10 -1.0552897851303365e-10  1.9999999998066264e+02 3.1390122922087756e-11 -2.5845127589493848e-11  1.9999999998081643e+02 7.3929401957064493e-11 8.7381318905251752e-11  1.9999999998063137e+02 -6.0024533724025493e-11 2.3229542493074716e-11  1.9999999998148292e+02 -1.2456464491198433e-10 -1.2867528881656107e-10  1.9999999998143875e+02 -1.4419954750192821e-10 -1.2294125528774723e-10  1.9999999998057964e+02 -1.4252489864523411e-10 -1.3464951589912737e-10  1.9999999998144364e+02 -8.1687562684384106e-11 -9.6302538147829891e-11  1.9999999998062458e+02 2.1530097512808750e-11 -1.2830942235535213e-11  1.9999999998080645e+02 7.8708549788163112e-11 9.1962725400773402e-11  1.9999999998060363e+02 9.3388247849223799e-12 -9.4308749219172838e-12  1.9999999998058988e+02 -1.1764727987653563e-10 -1.0498243057640486e-10  1.9999999998146052e+02 -8.0595715724279512e-11 -9.5860641016241699e-11  1.9999999998062066e+02 -4.8981459092635062e-11 -2.8977083565751832e-12  1.9999999998081296e+02 6.7299856336718083e-11 7.2094899157531143e-11  1.9999999998144199e+02 -1.8383357026734579e-10 -9.3497875892221496e-11  1.9999999998053292e+02 -1.2219733309470138e-10 -1.1391635458783778e-10  1.9999999998145171e+02 -9.9511002864802697e-11 -9.9643381182465120e-11  1.9999999997752749e+02 5.4524164051468150e-11 -1.7032452970055233e-12  1.9999999997737979e+02 -3.5186694670721146e-11 -7.2968380848678652e-12  1.9999999997718976e+02 2.3556055252106192e-11 -8.5104901038342420e-11  1.9999999997817631e+02 -6.6070322044886338e-11 -1.0733050950753764e-10  1.9999999997753906e+02 4.6094317438516286e-11 1.2051722495781038e-10  1.9999999997747307e+02 -6.6045092299806981e-12 3.6332885095835682e-11  1.9999999997809817e+02 7.6178514178398544e-11 -9.3334583461801654e-11  1.9999999997916294e+02 1.0538963737684585e-10 2.9286843649259371e-11  1.9999999997811520e+02 -1.3376374395505894e-10 -1.0828918282111813e-10  1.9999999997818497e+02 -7.7262167657607906e-11 8.6186343987877072e-11  1.9999999997914639e+02 6.5513783844815478e-11 1.2053936539920560e-10  1.9999999997822454e+02 7.1412352940288039e-11 -5.9534520122704682e-11  1.9999999997906227e+02 4.7752646677431625e-12 -6.2037198540792820e-11  1.9999999997592013e+02 -5.7929263091704786e-11 6.5942353180481700e-11  1.9999999997562074e+02 1.6305878925749114e-11 -2.7152974578214518e-11  1.9999999997650184e+02 9.4992544084339098e-12 -9.0322771071153192e-11  1.9999999997657912e+02 -8.9956889337874923e-11 -1.7946684797605699e-11  1.9999999997592832e+02 6.0320918340642235e-11 4.6560706701997986e-11  1.9999999997656482e+02 3.3018616096669963e-11 -8.7577199020648278e-11  1.9999999997652043e+02 -2.7981802515163975e-10 -1.4791011787481401e-11  1.9999999998069069e+02 1.0212649705663774e-10 3.5808812358302210e-11  1.9999999998067096e+02 -2.2190286148178235e-10 -1.9854175301629796e-10  1.9999999998069353e+02 -7.3275253633034031e-11 2.5883830564255148e-12  1.9999999998149613e+02 -5.9746390316610395e-11 -8.7456602676461989e-11  1.9999999998143645e+02 -1.8583586523221205e-10 5.9043804405760417e-12  1.9999999998066974e+02 1.1589728476614774e-10 3.1018572208328619e-12  1.9999999998060727e+02 -5.8258571506074627e-11 -1.9389668200327246e-11  1.9999999998067858e+02 1.3066396432696917e-10 8.2191621267911665e-11  1.9999999998068623e+02 -1.2233655519300054e-10 -8.2124564716360480e-11  1.9999999998070112e+02 9.1445752299839771e-11 1.2619626532761959e-10  1.9999999998071627e+02 -6.0182590353957203e-11 -8.0421988447832562e-11  1.9999999998244223e+02 8.9515117857220656e-11 1.2746211123177728e-10  1.9999999998143625e+02 -8.3833676633461374e-11 -1.0505096759544055e-10  1.9999999998147666e+02 -9.7371001635452294e-11 -3.6909201361528059e-11  1.9999999998244576e+02 1.0806068719236428e-10 5.3361310576191652e-11  1.9999999998147334e+02 -1.0604622153140216e-10 3.2958746833422842e-11  1.9999999997978637e+02 -6.6388637707138027e-11 -9.2514101453782012e-11  1.9999999997969994e+02 -1.8395748080664283e-10 -5.0086843573475496e-11  1.9999999997980993e+02 -1.2602694886925391e-10 -3.9974385594213815e-12  1.9999999997890157e+02 -1.1979143198280577e-10 -8.5641215133545025e-11  1.9999999997895864e+02 -2.6238093397048893e-11 7.8309734915986181e-11  1.9999999997912056e+02 6.6084019117351111e-11 9.5989508534925178e-12  1.9999999997905354e+02 -2.3398902281422933e-11 3.4540830020834554e-12  1.9999999997915094e+02 7.6063358872658841e-11 7.3326527168685907e-11  1.9999999997975644e+02 -1.3578782784111558e-10 -1.0084213623138546e-10  1.9999999997905820e+02 1.9084586763532513e-11 -2.8040589877678792e-11  1.9999999997976303e+02 -1.3026148815962847e-10 -1.4305967844861763e-10  1.9999999997982718e+02 -2.1104370353003436e-11 -1.6540991766247376e-11  1.9999999997979407e+02 -2.2478603770266833e-10 -9.8846435443842528e-11  1.9999999997984281e+02 -8.7923015325833934e-11 5.9003800306652719e-11  1.9999999997982636e+02 -3.6056426661216556e-11 1.1792886841419274e-11  1.9999999997812535e+02 -8.6932809745824882e-11 -6.4238050201063530e-11  1.9999999997719883e+02 -8.3037202090794813e-11 1.6050029647833373e-11  1.9999999997740139e+02 -9.6616667978502446e-12 -3.5356604679150547e-11  1.9999999997750652e+02 9.3968591022922655e-11 3.8228692992430601e-11  1.9999999997811054e+02 -1.0066720049201695e-10 -1.4349638710954798e-10  1.9999999997816866e+02 1.4577079994341633e-11 -4.0766404273214438e-11  1.9999999997815141e+02 -2.3730803653807397e-10 -1.3222779279217824e-12  1.9999999997655152e+02 -3.8549763420252759e-11 -6.9469238283789674e-11  1.9999999997659773e+02 4.4488463937095569e-11 1.6851304723718259e-10  1.9999999997587662e+02 4.8634108030764202e-11 2.2160588546791195e-11  1.9999999997566678e+02 -9.8232469219902673e-11 3.2462234346840825e-11  1.9999999997578917e+02 4.3959177754690555e-11 7.7707727968504755e-12  1.9999999997571274e+02 -4.9525692052595081e-11 3.5484696643109765e-11  1.9999999997591556e+02 1.2578181575025760e-10 2.2049241484258590e-11  1.9999999997649368e+02 -1.2643631801365557e-10 -2.1111020120870071e-10  1.9999999997660410e+02 -8.9048479355006893e-11 2.0029152075857890e-11  1.9999999997495283e+02 -7.3745267853629472e-11 3.5395386811024748e-11  1.9999999997485168e+02 3.4193708719832633e-12 4.0788081021551085e-11  1.9999999997496155e+02 5.4899038870212312e-11 2.3739849230042263e-11  1.9999999997431757e+02 3.0903079792952459e-11 5.1916892348668179e-11  1.9999999997394227e+02 -9.5983514400930902e-11 -5.5116047869453340e-11  1.9999999997409142e+02 4.7471041795465750e-11 1.4293361881751141e-11  1.9999999997434608e+02 1.6171064778490527e-11 2.6907156282466573e-11  1.9999999997425036e+02 -2.2621246284290006e-11 -5.5930825730322182e-11  1.9999999997436572e+02 1.2287965296081896e-10 2.6562170878639640e-12  1.9999999997481180e+02 -2.0904702635193572e-10 -3.6339396449558473e-11  1.9999999997496514e+02 -1.1096333034904657e-10 6.7143821224058557e-11  1.9999999997496221e+02 -8.6097496833621281e-11 -1.0166304475923617e-12  1.9999999997335962e+02 -6.3026560839535801e-11 -3.1757638384287842e-11  1.9999999997323323e+02 -6.7833210110819175e-11 -2.0060971534094481e-10  1.9999999997342499e+02 3.1502106641014194e-12 2.2316085513053358e-11  1.9999999997276061e+02 5.6943613306072954e-11 5.3564541753617506e-11  1.9999999997247085e+02 -7.3432518001537281e-11 -5.3787789934340367e-11  1.9999999997262250e+02 5.1191119161154202e-11 -8.6466181920579836e-11  1.9999999997277754e+02 -1.6725502938808621e-11 9.1048432827311240e-11  1.9999999997262282e+02 1.9245484289472113e-11 -4.1837413224460998e-11  1.9999999997273784e+02 9.9744224466376906e-11 2.2101802037379128e-12  1.9999999997333128e+02 -7.1080043474015767e-11 -1.8474939465317752e-10  1.9999999997338347e+02 8.4085932570994603e-11 -1.0965928218060011e-10  1.9999999997341109e+02 -6.5981752435232600e-11 1.5159264954700428e-11  1.9999999997180080e+02 -5.2525336590310576e-11 -6.6449305346701748e-11  1.9999999997164454e+02 -5.6367314301245029e-11 -1.7787928525512006e-10  1.9999999997187015e+02 3.5769593441360964e-11 -3.3554575461553257e-11  1.9999999997115430e+02 6.7550124104984751e-11 1.0987541175739303e-11  1.9999999997084717e+02 -6.5456055158547133e-11 -1.0117751891880198e-10  1.9999999997105539e+02 4.3059694467445750e-11 -1.7454898778500008e-11  1.9999999997114108e+02 -2.6800307921100276e-11 3.3180386903075899e-11  1.9999999997107818e+02 -1.8524518504215120e-11 -6.5726344819452831e-11  1.9999999997115671e+02 1.1325309559228477e-10 3.5803481545314928e-12  1.9999999997171597e+02 -1.0484558309120599e-10 -2.1521401754061923e-10  1.9999999997183835e+02 2.9176045006575531e-11 -9.2570945123585610e-11  1.9999999997184304e+02 -5.6761301951376748e-11 2.8002076544364882e-11  1.9999999997022886e+02 -2.1986842813159886e-12 -6.6396033628801482e-11  1.9999999997020933e+02 1.7181188888074822e-11 -2.6041582210157540e-10  1.9999999997030292e+02 -7.8854291027926089e-11 9.2197210265216355e-12  1.9999999996964593e+02 6.7367885995319971e-11 7.7479953984034286e-12  1.9999999997981422e+02 -8.5566963076905275e-11 -3.7268183981811968e-11  1.9999999997882543e+02 -9.3782909493662996e-11 -7.2209122329056053e-12  1.9999999997905013e+02 -4.8182895950740503e-11 -4.0318076084779127e-11  1.9999999997912167e+02 8.6224269819765032e-11 3.1833890418831172e-11  1.9999999997986444e+02 -1.2546694158014009e-10 -1.8487977054819490e-10  1.9999999998082274e+02 -9.1756225535751868e-11 -1.7809576185594303e-11  1.9999999998080074e+02 -4.0665408200270267e-11 -1.3085315134915863e-10  1.9999999998063424e+02 1.1022323141570103e-10 6.1495731182051860e-11  1.9999999997983696e+02 -5.7051655993233416e-11 1.1220238722272427e-10  1.9999999997819560e+02 -7.7403872305187070e-11 9.7524353872759869e-12  1.9999999997813865e+02 -1.2071555032845313e-10 -2.3325243698648012e-10  1.9999999997732070e+02 1.9819256297688301e-11 2.2865010114613243e-11  1.9999999997749902e+02 8.9860043925537886e-11 -1.6423645866184972e-12  1.9999999997822658e+02 -1.3755489572607367e-10 7.5190438070382593e-12  1.9999999998069376e+02 -8.5467467758129198e-11 -1.7866004137129810e-11  1.9999999998067815e+02 -1.7357072949434464e-10 -2.0329159950927104e-10  1.9999999998144446e+02 -6.9094847627085006e-11 -5.3947249308754302e-11  1.9999999998068358e+02 1.0687015404186436e-10 1.1069451250722646e-10  1.9999999998144006e+02 -1.1671041976290177e-10 -8.1118213692203189e-11  1.9999999998244752e+02 7.2701832611048402e-11 6.0935875272161849e-11  1.9999999998152617e+02 -5.1109837827622845e-11 -5.9998765644690356e-11  1.9999999998140228e+02 -1.1502342442964637e-10 -4.8636948574238095e-11  1.9999999997897010e+02 4.7532482270456700e-11 -1.4696044237073330e-11  1.9999999997895608e+02 -3.5951091468535067e-11 -1.4049801077818583e-10  1.9999999997979108e+02 -9.9660352695712033e-11 -8.3028544216082694e-11  1.9999999997912229e+02 1.0100250940051667e-10 9.5858960548051242e-11  1.9999999997901307e+02 -3.8991811700296106e-11 9.9574520745834069e-12  1.9999999997978944e+02 -9.2964891356220414e-11 -1.5145951846532720e-10  1.9999999997976195e+02 -1.7486251335420156e-10 -7.1004237467547760e-11  1.9999999997983866e+02 -5.9027078377317333e-12 -3.4654720784052109e-11  1.9999999997732428e+02 2.0830234616004604e-11 -2.9225218517849105e-11  1.9999999997733093e+02 8.9522401554416140e-11 -9.5014373863801709e-11  1.9999999997813703e+02 2.6744630977240915e-11 -7.6496465143043583e-11  1.9999999997754128e+02 1.1319883502012792e-11 8.9578246790185617e-11  1.9999999997751092e+02 -4.1968827070842500e-11 1.0441746177023561e-10  1.9999999997739775e+02 9.2293330314619741e-12 2.8815228859939998e-11  1.9999999997816101e+02 -3.3303374528320386e-11 -2.2841493288379305e-10  1.9999999997804630e+02 4.3392172676503976e-11 -2.1154391132803547e-10  1.9999999997821701e+02 -2.5716140477208374e-11 1.7308221462079030e-11  1.9999999997554400e+02 2.3590289814196231e-11 -9.6925366149946799e-11  1.9999999997649013e+02 1.0587740226712475e-11 -9.7163189665460977e-11  1.9999999997583410e+02 -3.1779264502485398e-11 -5.2127512384304807e-11  1.9999999997593986e+02 2.3285035362466907e-11 1.2613388469294375e-10  1.9999999997573727e+02 5.9395083661598979e-11 -2.6821301771669302e-12  1.9999999997592815e+02 -9.3928826643377810e-11 1.0776326820989199e-10  1.9999999997581392e+02 -1.6359260401850831e-11 4.1587305478578459e-11  1.9999999997648135e+02 8.3369642875043847e-11 -1.4934702318181999e-10  1.9999999997656928e+02 7.8427774571026651e-11 -5.9537417091237657e-11  1.9999999997639671e+02 -7.9061409815843680e-13 -2.4055956986196190e-10  1.9999999997650423e+02 4.2308348212370483e-11 -2.3356288493759915e-11  1.9999999997494675e+02 -6.9457326047234294e-11 -6.6987071072133085e-11  1.9999999997485406e+02 -2.3109365363181619e-12 -7.8706855893322277e-11  1.9999999997499549e+02 8.9247744908946568e-11 1.0961662792237327e-11  1.9999999997425951e+02 -3.3190196551399088e-11 1.8580794534707421e-11  1.9999999997412377e+02 1.1907164924111798e-10 -9.8340476978371570e-11  1.9999999997417638e+02 1.3267577050432961e-11 2.2812657917006306e-11  1.9999999997416759e+02 2.5714889905335961e-11 -6.6714910641264389e-11  1.9999999997431863e+02 -1.2135727077987925e-12 1.0610379164234089e-10  1.9999999997487222e+02 3.8782698898671081e-11 -1.2035571636475144e-10  1.9999999997413582e+02 7.9882777593606269e-11 -6.2537517275267164e-12  1.9999999997430413e+02 -1.0114282277341166e-10 1.2805203804973161e-10  1.9999999997425218e+02 4.9493992828706941e-12 -3.7532594869284124e-12  1.9999999997486685e+02 1.0840635941090188e-10 -1.1636119828941114e-10  1.9999999997497201e+02 5.0795076913080284e-11 -2.0256217004044270e-11  1.9999999997485244e+02 -2.0698337158221594e-10 -1.1051463077596881e-10  1.9999999997495695e+02 1.2772846284685961e-12 -5.8182699866851924e-11  1.9999999997343994e+02 -5.5553811292654537e-12 -5.8342850935310314e-11  1.9999999997319998e+02 -2.2981608611687467e-11 3.3069588862957392e-11  1.9999999997330329e+02 -3.3080185386209026e-11 -1.8606580111421491e-10  1.9999999997339796e+02 4.7378676438627114e-12 -9.2643628564737417e-11  1.9999999997269208e+02 -3.1580170466348817e-12 9.2359253999448232e-11  1.9999999997250950e+02 -1.3364385988777146e-11 -2.1236557439678105e-11  1.9999999997277916e+02 -2.7984817509236451e-12 7.7513414399847287e-11  1.9999999997325281e+02 2.0393555996980239e-10 8.4095194491215717e-12  1.9999999997322431e+02 -1.6026194245897996e-11 -2.1313078621576075e-10  1.9999999997261190e+02 3.7522537045490049e-11 -9.4096143274715438e-11  1.9999999997337261e+02 2.5243807519859652e-12 -1.0758343805372760e-10  1.9999999998147541e+02 -7.7992534945113493e-11 -4.7050967195382579e-11  1.9999999998068111e+02 -2.2716117865958316e-10 -1.7863566196819998e-10  1.9999999998070950e+02 -1.1817155418075059e-10 -1.4513216156294817e-11  1.9999999998067975e+02 9.9809432195342628e-11 1.3901418490473237e-10  1.9999999998070047e+02 -3.5369157541100057e-11 -1.0644197632219531e-10  1.9999999998144946e+02 -1.1660059284995328e-10 -2.8051371151553033e-11  1.9999999998141175e+02 -1.0864418058727029e-10 -8.7467176773972046e-11  1.9999999998245295e+02 1.8284029305221015e-11 5.8394634281400167e-11  1.9999999998151713e+02 -5.2854521848485272e-11 -1.8398336940942214e-11  1.9999999997977181e+02 -8.1834973470080149e-11 -5.4701151770707856e-11  1.9999999997888085e+02 -1.0364869335146501e-10 -9.9786446636693159e-11  1.9999999997903240e+02 -2.2797892035271966e-11 3.0032188967851565e-12  1.9999999997909890e+02 7.4262612838125317e-11 9.7702353732018708e-11  1.9999999997900861e+02 -4.6938819276886585e-11 2.9310183801332533e-11  1.9999999997979111e+02 -1.0486568725832478e-10 -1.7613388575270893e-10  1.9999999997980890e+02 -2.1808238896489703e-10 -9.4943767396466731e-11  1.9999999997986424e+02 -2.7242596975823172e-11 1.9469409604436758e-11  1.9999999997813978e+02 -1.0924144410814074e-10 -8.6554062134466190e-11  1.9999999997724512e+02 -1.2503048253430198e-10 -1.0914997047234845e-10  1.9999999997739224e+02 -1.3858596464314887e-11 -3.3092348465740810e-11  1.9999999997750041e+02 8.7432909104908326e-11 7.4542259808896639e-11  1.9999999997739292e+02 -5.5441925923092758e-11 -2.8481774711970598e-11  1.9999999997810127e+02 -1.2243003920608658e-10 -1.8217664380274491e-10  1.9999999997810724e+02 -1.6563894557273899e-10 -1.2622467881605904e-10  1.9999999997816153e+02 -1.8792593196487615e-11 -2.6029735518556400e-11  1.9999999997653487e+02 -8.8398860576090572e-11 -7.5107561257104337e-11  1.9999999997560809e+02 -1.2105924058516661e-10 -1.2162346596929579e-10  1.9999999997581185e+02 -3.0726139410756742e-11 -5.2426715412138382e-11  1.9999999997588529e+02 9.4556647743268662e-11 7.7161379783046258e-11  1.9999999997577129e+02 -5.3695892976151188e-11 -2.2421640156712500e-11  1.9999999997650295e+02 -1.3352445886276719e-10 -1.7115423104872171e-10  1.9999999997648777e+02 -2.0288464178367904e-10 -1.2306478064084467e-10  1.9999999997663053e+02 -1.1305090008768435e-11 1.4258343400591466e-12  1.9999999997490710e+02 -7.2312996208497082e-11 -8.2735251931691570e-11  1.9999999997409313e+02 -1.0843575982815275e-10 -1.1847057118891932e-10  1.9999999997422219e+02 -4.7345661482158622e-12 6.8861560399066969e-13  1.9999999997432192e+02 8.6571638061787658e-11 6.7101912385169555e-11  1.9999999997421730e+02 -1.9271726027666752e-11 -2.0161472606767738e-11  1.9999999997489837e+02 -1.2672924395114096e-10 -1.9689729184222414e-10  1.9999999997489203e+02 -