<?xml version="1.0"?>
<VTKFile type="UnstructuredGrid"  version="0.1"  >
<UnstructuredGrid>
<Piece  NumberOfPoints="3786" NumberOfCells="18490">
<Points>
<DataArray  type="Float64"  NumberOfComponents="3"  format="ascii">25 30 15  25 30 16.25  25 28.75 16.25  23.75 28.75 16.25  25 30 17.5  25 28.75 17.5  37.5 27.5 2.5  37.5 27.5 3.75  37.5 26.25 3.75  36.25 26.25 3.75  37.5 27.5 5  35 27.5 2.5  36.25 27.5 3.75  36.25 27.5 2.5  35 27.5 3.75  35 27.5 5  36.25 27.5 5  38.75 27.5 3.75  38.75 27.5 2.5  38.75 26.25 3.75  40 27.5 2.5  40 27.5 3.75  40 27.5 5  38.75 27.5 5  38.75 26.25 5  36.25 27.5 6.25  36.25 26.25 6.25  37.5 27.5 6.25  37.5 27.5 7.5  35 27.5 6.25  35 27.5 7.5  36.25 27.5 7.5  38.75 27.5 6.25  38.75 26.25 6.25  40 27.5 6.25  40 27.5 7.5  38.75 27.5 7.5  32.5 27.5 7.5  33.75 27.5 8.75  33.75 27.5 7.5  33.75 26.25 8.75  35 27.5 8.75  35 27.5 10  32.5 27.5 10  33.75 27.5 10  33.75 26.25 10  32.5 27.5 8.75  38.75 27.5 8.75  38.75 26.25 8.75  40 27.5 8.75  40 27.5 10  37.5 27.5 8.75  37.5 27.5 10  38.75 27.5 10  30 27.5 10  31.25 27.5 11.25  31.25 27.5 10  31.25 26.25 11.25  32.5 27.5 11.25  32.5 27.5 12.5  30 27.5 12.5  31.25 27.5 12.5  31.25 26.25 12.5  30 27.5 11.25  35 27.5 11.25  35 26.25 11.25  33.75 26.25 11.25  35 27.5 12.5  33.75 27.5 11.25  33.75 27.5 12.5  36.25 27.5 11.25  36.25 27.5 10  36.25 26.25 11.25  37.5 27.5 11.25  37.5 27.5 12.5  36.25 27.5 12.5  40 27.5 12.5  40 26.25 12.5  38.75 26.25 12.5  38.75 26.25 11.25  38.75 27.5 11.25  40 27.5 11.25  38.75 27.5 12.5  32.5 27.5 13.75  32.5 26.25 13.75  31.25 26.25 13.75  32.5 27.5 15  31.25 27.5 13.75  30 27.5 13.75  30 27.5 15  31.25 27.5 15  35 27.5 13.75  35 26.25 13.75  33.75 26.25 13.75  35 27.5 15  35 26.25 15  33.75 26.25 15  33.75 27.5 13.75  33.75 27.5 15  37.5 27.5 13.75  37.5 26.25 13.75  36.25 26.25 13.75  37.5 27.5 15  37.5 25 15  37.5 26.25 15  36.25 26.25 15  36.25 27.5 13.75  36.25 27.5 15  40 27.5 13.75  40 26.25 13.75  38.75 26.25 13.75  40 27.5 15  40 25 15  40 26.25 15  38.75 26.25 15  38.75 25 15  38.75 27.5 13.75  38.75 27.5 15  32.5 27.5 16.25  32.5 26.25 16.25  31.25 26.25 16.25  32.5 27.5 17.5  32.5 25 17.5  32.5 26.25 17.5  31.25 26.25 17.5  31.25 27.5 16.25  30 27.5 17.5  31.25 27.5 17.5  30 27.5 16.25  35 27.5 16.25  35 26.25 16.25  33.75 26.25 16.25  35 27.5 17.5  35 25 17.5  35 26.25 17.5  33.75 26.25 17.5  33.75 25 17.5  33.75 27.5 16.25  33.75 27.5 17.5  37.5 26.25 16.25  36.25 26.25 16.25  37.5 27.5 16.25  37.5 27.5 17.5  37.5 25 16.25  37.5 25 17.5  37.5 26.25 17.5  36.25 26.25 17.5  36.25 27.5 16.25  36.25 27.5 17.5  38.75 26.25 16.25  40 26.25 16.25  40 27.5 16.25  40 27.5 17.5  40 25 16.25  40 25 17.5  40 26.25 17.5  38.75 26.25 17.5  38.75 25 17.5  38.75 27.5 16.25  38.75 27.5 17.5  32.5 26.25 18.75  31.25 26.25 18.75  33.75 26.25 18.75  35 26.25 18.75  35 27.5 18.75  35 27.5 20  35 25 18.75  35 25 20  35 26.25 20  33.75 26.25 20  33.75 27.5 18.75  37.5 26.25 18.75  36.25 26.25 18.75  37.5 27.5 18.75  37.5 27.5 20  37.5 25 18.75  37.5 25 20  37.5 26.25 20  36.25 26.25 20  36.25 25 20  36.25 27.5 18.75  36.25 27.5 20  38.75 26.25 18.75  38.75 27.5 18.75  40 27.5 18.75  40 27.5 20  35 26.25 21.25  33.75 26.25 21.25  36.25 26.25 21.25  42.5 27.5 0  42.5 27.5 1.25  42.5 26.25 1.25  41.25 26.25 1.25  42.5 26.25 0  41.25 26.25 0  42.5 27.5 2.5  42.5 26.25 2.5  41.25 26.25 2.5  40 27.5 0  41.25 27.5 1.25  41.25 27.5 0  41.25 27.5 2.5  40 27.5 1.25  45 25 0  45 26.25 1.25  45 26.25 0  43.75 26.25 1.25  43.75 26.25 0  45 27.5 0  45 27.5 1.25  45 27.5 2.5  45 25 1.25  45 25 2.5  45 26.25 2.5  43.75 26.25 2.5  43.75 27.5 1.25  43.75 27.5 0  43.75 27.5 2.5  47.5 25 0  47.5 26.25 1.25  47.5 26.25 0  46.25 26.25 1.25  46.25 26.25 0  47.5 27.5 0  47.5 27.5 1.25  47.5 27.5 2.5  47.5 25 2.5  47.5 26.25 2.5  46.25 26.25 2.5  46.25 27.5 1.25  46.25 27.5 0  46.25 27.5 2.5  50 27.5 0  50 27.5 1.25  50 26.25 1.25  48.75 26.25 1.25  50 27.5 2.5  50 25 2.5  50 26.25 2.5  48.75 26.25 2.5  48.75 26.25 0  48.75 27.5 1.25  48.75 27.5 0  48.75 27.5 2.5  46.25 28.75 1.25  46.25 28.75 0  47.5 28.75 1.25  47.5 28.75 0  47.5 30 0  47.5 30 1.25  47.5 30 2.5  47.5 28.75 2.5  46.25 28.75 2.5  48.75 28.75 1.25  48.75 28.75 0  50 28.75 1.25  50 28.75 0  50 30 0  50 30 1.25  50 30 2.5  50 28.75 2.5  48.75 28.75 2.5  48.75 30 1.25  48.75 30 0  48.75 30 2.5  40 26.25 3.75  40 26.25 5  42.5 27.5 3.75  42.5 26.25 3.75  41.25 26.25 3.75  42.5 27.5 5  42.5 25 5  42.5 26.25 5  41.25 26.25 5  41.25 27.5 3.75  41.25 27.5 5  45 26.25 3.75  43.75 26.25 3.75  45 27.5 3.75  45 27.5 5  45 25 5  45 26.25 5  43.75 26.25 5  43.75 25 5  43.75 27.5 3.75  43.75 27.5 5  47.5 26.25 3.75  46.25 26.25 3.75  47.5 27.5 3.75  47.5 27.5 5  47.5 25 5  47.5 26.25 5  46.25 26.25 5  46.25 27.5 3.75  46.25 27.5 5  50 26.25 3.75  48.75 26.25 3.75  50 27.5 3.75  50 27.5 5  50 25 3.75  50 25 5  50 26.25 5  48.75 26.25 5  48.75 27.5 3.75  48.75 27.5 5  48.75 28.75 3.75  50 28.75 3.75  50 30 3.75  50 30 5  50 28.75 5  48.75 28.75 5  48.75 30 3.75  40 26.25 6.25  42.5 26.25 6.25  41.25 26.25 6.25  42.5 27.5 6.25  42.5 27.5 7.5  42.5 25 6.25  42.5 25 7.5  42.5 26.25 7.5  41.25 26.25 7.5  41.25 27.5 6.25  41.25 27.5 7.5  43.75 26.25 6.25  45 26.25 6.25  45 27.5 6.25  45 27.5 7.5  45 25 6.25  45 25 7.5  45 26.25 7.5  43.75 26.25 7.5  43.75 25 7.5  43.75 27.5 6.25  43.75 27.5 7.5  47.5 26.25 6.25  46.25 26.25 6.25  47.5 27.5 6.25  47.5 27.5 7.5  47.5 25 7.5  47.5 26.25 7.5  46.25 26.25 7.5  46.25 25 7.5  46.25 27.5 6.25  46.25 27.5 7.5  50 26.25 6.25  48.75 26.25 6.25  50 27.5 6.25  50 27.5 7.5  50 25 7.5  50 26.25 7.5  48.75 26.25 7.5  48.75 25 7.5  48.75 27.5 6.25  48.75 27.5 7.5  46.25 25 8.75  46.25 23.75 8.75  47.5 25 8.75  47.5 25 10  45 25 10  46.25 25 10  46.25 23.75 10  45 25 8.75  42.5 26.25 8.75  41.25 26.25 8.75  42.5 27.5 8.75  42.5 27.5 10  42.5 26.25 10  41.25 26.25 10  41.25 27.5 8.75  41.25 27.5 10  43.75 26.25 8.75  45 26.25 8.75  45 27.5 8.75  45 27.5 10  45 26.25 10  43.75 26.25 10  43.75 27.5 8.75  43.75 27.5 10  46.25 26.25 8.75  47.5 26.25 8.75  47.5 27.5 8.75  47.5 27.5 10  47.5 26.25 10  46.25 26.25 10  46.25 27.5 8.75  46.25 27.5 10  48.75 26.25 8.75  50 26.25 8.75  50 27.5 8.75  50 27.5 10  50 25 10  50 26.25 10  48.75 26.25 10  48.75 25 10  48.75 27.5 8.75  48.75 27.5 10  46.25 25 11.25  46.25 23.75 11.25  47.5 25 11.25  47.5 25 12.5  45 25 11.25  45 25 12.5  46.25 25 12.5  48.75 25 11.25  48.75 23.75 11.25  50 25 11.25  50 25 12.5  48.75 25 12.5  48.75 23.75 12.5  40 26.25 11.25  42.5 27.5 11.25  42.5 26.25 11.25  41.25 26.25 11.25  42.5 27.5 12.5  42.5 25 12.5  42.5 26.25 12.5  41.25 26.25 12.5  41.25 27.5 11.25  41.25 27.5 12.5  45 26.25 11.25  43.75 26.25 11.25  45 27.5 11.25  45 27.5 12.5  45 26.25 12.5  43.75 26.25 12.5  43.75 27.5 11.25  43.75 27.5 12.5  46.25 26.25 11.25  47.5 26.25 11.25  47.5 27.5 11.25  47.5 27.5 12.5  47.5 26.25 12.5  46.25 26.25 12.5  46.25 27.5 11.25  46.25 27.5 12.5  48.75 26.25 11.25  50 26.25 11.25  50 27.5 11.25  50 27.5 12.5  50 26.25 12.5  48.75 26.25 12.5  48.75 27.5 11.25  48.75 27.5 12.5  47.5 25 13.75  47.5 23.75 13.75  46.25 23.75 13.75  47.5 25 15  46.25 25 13.75  45 25 15  46.25 25 15  46.25 23.75 15  45 25 13.75  48.75 25 13.75  48.75 23.75 13.75  50 25 13.75  50 25 15  48.75 25 15  48.75 23.75 15  42.5 26.25 13.75  41.25 26.25 13.75  42.5 27.5 13.75  42.5 27.5 15  42.5 25 15  42.5 26.25 15  41.25 26.25 15  41.25 25 15  41.25 27.5 13.75  41.25 27.5 15  45 26.25 13.75  43.75 26.25 13.75  45 27.5 13.75  45 27.5 15  45 26.25 15  43.75 26.25 15  43.75 25 15  43.75 27.5 13.75  43.75 27.5 15  46.25 26.25 13.75  47.5 26.25 13.75  47.5 27.5 13.75  47.5 27.5 15  47.5 26.25 15  46.25 26.25 15  46.25 27.5 13.75  46.25 27.5 15  48.75 26.25 13.75  50 26.25 13.75  50 27.5 13.75  50 27.5 15  50 26.25 15  48.75 26.25 15  48.75 27.5 13.75  48.75 27.5 15  42.5 25 16.25  42.5 23.75 16.25  41.25 23.75 16.25  42.5 25 17.5  42.5 22.5 17.5  42.5 23.75 17.5  41.25 23.75 17.5  41.25 25 16.25  41.25 25 17.5  45 25 16.25  45 23.75 16.25  43.75 23.75 16.25  45 25 17.5  45 22.5 17.5  45 23.75 17.5  43.75 23.75 17.5  43.75 25 16.25  43.75 25 17.5  47.5 25 16.25  47.5 23.75 16.25  46.25 23.75 16.25  47.5 25 17.5  46.25 25 16.25  46.25 23.75 17.5  46.25 25 17.5  48.75 25 16.25  48.75 23.75 16.25  50 25 16.25  50 25 17.5  48.75 25 17.5  48.75 23.75 17.5  41.25 26.25 16.25  42.5 26.25 16.25  42.5 27.5 16.25  42.5 27.5 17.5  42.5 26.25 17.5  41.25 26.25 17.5  41.25 27.5 16.25  41.25 27.5 17.5  43.75 26.25 16.25  45 26.25 16.25  45 27.5 16.25  45 27.5 17.5  45 26.25 17.5  43.75 26.25 17.5  43.75 27.5 16.25  43.75 27.5 17.5  46.25 26.25 16.25  47.5 26.25 16.25  47.5 27.5 16.25  47.5 27.5 17.5  47.5 26.25 17.5  46.25 26.25 17.5  46.25 27.5 16.25  46.25 27.5 17.5  48.75 26.25 16.25  50 26.25 16.25  50 27.5 16.25  50 27.5 17.5  50 26.25 17.5  48.75 26.25 17.5  48.75 27.5 16.25  48.75 27.5 17.5  42.5 23.75 18.75  41.25 23.75 18.75  42.5 25 18.75  42.5 25 20  42.5 22.5 18.75  42.5 22.5 20  42.5 23.75 20  41.25 25 18.75  45 23.75 18.75  43.75 23.75 18.75  45 25 18.75  45 25 20  45 22.5 20  45 23.75 20  43.75 23.75 20  43.75 25 18.75  43.75 25 20  47.5 25 18.75  47.5 23.75 18.75  46.25 23.75 18.75  47.5 25 20  47.5 22.5 20  47.5 23.75 20  46.25 23.75 20  46.25 25 18.75  46.25 25 20  50 25 18.75  50 23.75 18.75  48.75 23.75 18.75  50 25 20  48.75 25 18.75  48.75 25 20  41.25 26.25 18.75  42.5 26.25 18.75  42.5 27.5 18.75  42.5 27.5 20  42.5 26.25 20  41.25 27.5 18.75  43.75 26.25 18.75  45 26.25 18.75  45 27.5 18.75  45 27.5 20  45 26.25 20  43.75 26.25 20  43.75 27.5 18.75  43.75 27.5 20  46.25 26.25 18.75  47.5 26.25 18.75  47.5 27.5 18.75  47.5 27.5 20  47.5 26.25 20  46.25 26.25 20  46.25 27.5 18.75  46.25 27.5 20  48.75 26.25 18.75  50 26.25 18.75  50 27.5 18.75  50 27.5 20  50 26.25 20  48.75 26.25 20  48.75 27.5 18.75  48.75 27.5 20  45 23.75 21.25  43.75 23.75 21.25  46.25 23.75 21.25  43.75 26.25 21.25  43.75 27.5 21.25  46.25 26.25 21.25  47.5 26.25 21.25  47.5 27.5 21.25  46.25 27.5 21.25  48.75 26.25 21.25  50 26.25 21.25  50 27.5 21.25  50 27.
[...]
<PointData  Vectors="u"> 
<DataArray  type="Float64"  Name="u"  NumberOfComponents="3" format="ascii">1.9999999998250354e+02 4.6720535974660247e-11 7.8695453462253719e-11  1.9999999998227818e+02 -4.4527034835617981e-12 5.9742129479571235e-12  1.9999999998228120e+02 -1.2513311119502182e-10 -1.1492066566631676e-10  1.9999999998310386e+02 -9.7272732721749404e-11 -7.9427060233677424e-11  1.9999999998247083e+02 8.6616900131227979e-11 1.1109891810108800e-10  1.9999999998228790e+02 -4.2749469121485869e-11 1.7474334643413117e-11  1.9999999997432599e+02 1.3144756958845208e-10 1.6723064516402379e-10  1.9999999997425309e+02 -5.9205834677271556e-11 -1.8996792963364713e-11  1.9999999997410671e+02 -7.7979601166663123e-11 -1.0530569017720264e-10  1.9999999997491142e+02 -8.8128205078599479e-11 -7.7361830527275956e-11  1.9999999997432190e+02 1.3373843752101650e-10 1.0932962822140154e-10  1.9999999997591976e+02 1.0259954920125678e-10 1.3842619801968824e-10  1.9999999997496394e+02 -1.2397563441445284e-10 -6.5774459330061600e-11  1.9999999997503420e+02 -5.8673786192577848e-11 3.5696573373499281e-11  1.9999999997582364e+02 -1.0109236857427278e-10 -1.2793267197430004e-13  1.9999999997593733e+02 1.0166074982590051e-10 8.1028733674947277e-11  1.9999999997505270e+02 -6.3339182260560023e-11 1.1717888945341936e-11  1.9999999997333856e+02 -1.2763603100243980e-10 -8.7206659952021508e-11  1.9999999997343926e+02 -5.7686126751747579e-11 7.8023398687573349e-11  1.9999999997338557e+02 -1.7823225345070985e-11 -7.2033380880692434e-11  1.9999999997279085e+02 9.5356392571848419e-11 1.7482011207982806e-10  1.9999999997260608e+02 4.0953323260442938e-11 2.5836205573490046e-11  1.9999999997278317e+02 9.8585732007680499e-11 8.6877254506062720e-11  1.9999999997341050e+02 -8.6596359363578257e-11 3.7919516729215068e-11  1.9999999997337332e+02 -1.4465118391598132e-11 -1.9152512601970993e-10  1.9999999997494186e+02 -1.2956529010665068e-10 -9.9397856525905785e-11  1.9999999997494962e+02 -8.1494370130912690e-11 -5.4336876334900320e-11  1.9999999997427926e+02 -6.7454259795681323e-11 3.7589398024408114e-11  1.9999999997431999e+02 1.2973400308709286e-10 1.2398038818571612e-10  1.9999999997585317e+02 -3.7381744599734937e-11 4.7071041728671019e-11  1.9999999997594298e+02 1.2516332698203542e-10 1.1019864852339791e-10  1.9999999997505685e+02 -5.5512744846492797e-11 7.3268155529641546e-11  1.9999999997329638e+02 -1.5650463938871378e-10 -1.0767694809425422e-10  1.9999999997337730e+02 -3.3164429264673403e-11 -5.2891236926992258e-11  1.9999999997263251e+02 2.2232129647122451e-12 3.1432550612467583e-11  1.9999999997276984e+02 1.1585893910600881e-10 1.0814929083034423e-10  1.9999999997339808e+02 -5.5992073524207224e-11 4.7846806109903397e-11  1.9999999997752124e+02 1.0291982357026294e-10 1.3234688883914604e-10  1.9999999997650571e+02 -1.4761713249522768e-10 -1.0717710702770130e-10  1.9999999997661735e+02 -5.0487566105047261e-11 5.4915070946390251e-11  1.9999999997653021e+02 -6.1369610747972199e-11 -5.8237055784657568e-11  1.9999999997584456e+02 -4.3717149181868195e-11 2.5128824717380165e-11  1.9999999997591971e+02 1.2398567289295994e-10 1.0884697875180097e-10  1.9999999997753329e+02 1.1653752757499384e-10 1.1023068086605894e-10  1.9999999997662437e+02 -8.4417933232577113e-11 2.5663172535032286e-11  1.9999999997652310e+02 -4.1201019050683880e-11 -2.5317182036886838e-10  1.9999999997745894e+02 -6.5075480112077220e-11 -5.6137358880064576e-11  1.9999999997331381e+02 -1.1720376382971220e-10 -1.1619270346364669e-10  1.9999999997340197e+02 -3.7267351135091377e-11 -3.8549978455051984e-11  1.9999999997262964e+02 1.5034411166376371e-11 1.5003556244071205e-11  1.9999999997276535e+02 9.7089120836086550e-11 1.2349240500773700e-10  1.9999999997424013e+02 -4.5870314802302018e-11 -5.7772197410403580e-11  1.9999999997432499e+02 1.1970694679804713e-10 1.1603474679078332e-10  1.9999999997343437e+02 -9.5699946016457144e-11 5.3954888678873490e-11  1.9999999997914716e+02 7.9006602549349874e-11 9.0241521544416813e-11  1.9999999997813418e+02 -1.1516345849321055e-10 -6.7490376614815343e-11  1.9999999997823122e+02 -6.7702090825878489e-11 -1.7020577446860493e-11  1.9999999997814604e+02 -8.9189277503109518e-11 -8.2257464066882185e-11  1.9999999997745860e+02 -5.8406624622243499e-11 7.9248131940366529e-12  1.9999999997752778e+02 1.1896749386142038e-10 8.1423670709021016e-11  1.9999999997913585e+02 9.0444403757783870e-11 1.1221047842445248e-10  1.9999999997822636e+02 -5.6405402608041835e-11 7.5018686048922024e-12  1.9999999997812043e+02 -9.2158936878115410e-11 -1.4118927717538178e-10  1.9999999997904359e+02 -8.6358433413397928e-11 -7.9481929526339846e-13  1.9999999997584376e+02 -2.3405288858418207e-11 -2.0997650708587760e-11  1.9999999997570376e+02 -9.7166958068176808e-11 -9.2533689025344303e-11  1.9999999997650451e+02 -7.6997677855697408e-11 -4.5477260024276719e-11  1.9999999997591152e+02 9.1269157041713397e-11 9.3226337249816050e-11  1.9999999997652077e+02 -1.2635308538375654e-10 -9.9416188421553769e-11  1.9999999997662795e+02 -9.1444084303542962e-11 -1.4330542867754978e-11  1.9999999997492426e+02 -1.0508548981241704e-10 -6.2995736689731044e-11  1.9999999997502150e+02 -5.5213108087683788e-11 1.3374635454513905e-11  1.9999999997496522e+02 -7.3428687595548299e-11 -7.9340623512520486e-11  1.9999999997427290e+02 -8.6358242430076720e-11 -1.7577434096992764e-12  1.9999999997430754e+02 9.3745860216545778e-11 1.1196822304862737e-10  1.9999999997508260e+02 -7.7709104151214738e-11 2.9009422122756796e-11  1.9999999997276535e+02 1.0897762479799163e-10 6.1697279103933141e-11  1.9999999997258070e+02 -1.9459157596144994e-11 4.3864497621236385e-11  1.9999999997333828e+02 -5.8958299978211000e-11 -2.0405534059336058e-10  1.9999999997340768e+02 -5.5576471090507785e-11 -8.1100161956733969e-11  1.9999999997336948e+02 -1.4353575190697920e-10 -8.6453308115029241e-11  1.9999999997257279e+02 -2.3654321379492044e-11 1.5459316760455268e-11  1.9999999997343733e+02 -4.6438625957442952e-11 5.9952317088391340e-12  1.9999999997743294e+02 -7.9728168462940194e-11 -2.9205453807836794e-11  1.9999999997724572e+02 -1.3417120832177898e-10 -5.7096762191421019e-11  1.9999999997815041e+02 -6.8299276933349071e-11 -6.7993952449774931e-11  1.9999999997750788e+02 7.8215880410971804e-11 9.6636008178412943e-11  1.9999999997814098e+02 -1.6750284618568384e-10 -9.4086489469304737e-11  1.9999999997903836e+02 -6.5051046262839593e-11 -1.0929149893316420e-11  1.9999999997912929e+02 1.1459713894425448e-10 1.2428109349111780e-10  1.9999999997819654e+02 -8.4089722323072512e-11 1.6458702966030721e-11  1.9999999997585672e+02 -4.4673660488401625e-11 -1.4887958533199777e-11  1.9999999997570811e+02 -1.2640604233913979e-10 -1.0634513500387366e-10  1.9999999997653293e+02 -1.0702620933327096e-10 -1.0858134373984157e-10  1.9999999997594352e+02 1.0884308371484446e-10 1.1012838892565410e-10  1.9999999997587361e+02 -2.9743045307086143e-12 1.3294362323651966e-11  1.9999999997650229e+02 -8.7975763332629777e-11 -1.7038248073525952e-10  1.9999999997652694e+02 -1.2420238021241370e-10 -1.2104603171538276e-10  1.9999999997661266e+02 -5.8360987991561990e-11 2.8166509372365272e-11  1.9999999997423740e+02 -9.5971304923969012e-11 -2.1093662683029452e-11  1.9999999997401798e+02 -7.2907106459819615e-11 -8.8920869018292071e-11  1.9999999997497636e+02 -8.3117439003250194e-11 -1.2108801354357045e-10  1.9999999997433446e+02 8.4803553595533719e-11 9.7188884818643363e-11  1.9999999997434847e+02 1.1277501735186746e-10 9.7088770425846549e-11  1.9999999997423802e+02 -3.2888915806595030e-11 2.6586658856546902e-12  1.9999999997493887e+02 -9.8057993946584011e-11 -1.6202503885195832e-10  1.9999999997495854e+02 -1.7507093990332564e-10 -1.2035059092273258e-10  1.9999999997501905e+02 -8.7392315997814383e-11 6.2351833096726672e-12  1.9999999997260639e+02 -4.5619623095013334e-11 1.8423695043468865e-11  1.9999999997254542e+02 -8.1686091523226159e-11 -8.4537511367357363e-11  1.9999999997335416e+02 -5.6442086098076773e-11 -4.3896341654576394e-11  1.9999999997272158e+02 8.4568761056454664e-11 7.1965653488549584e-11  1.9999999997275981e+02 9.4645770205299861e-11 9.0418342944384760e-11  1.9999999997256523e+02 -7.1021157971470808e-12 1.1915887067413346e-11  1.9999999997335433e+02 -6.9488518028596352e-11 -1.9866802123281382e-10  1.9999999997341001e+02 8.0613544483634207e-12 2.4347004956231555e-11  1.9999999997335669e+02 -1.4617371880271373e-10 -6.8585179653189589e-11  1.9999999997345725e+02 -7.8503500141169711e-11 -7.0480289941985209e-13  1.9999999997743137e+02 -8.2948634876180823e-11 -1.8752791957208402e-11  1.9999999997725629e+02 -1.3221799994722465e-10 -1.0476991550672863e-10  1.9999999997814720e+02 -8.5102008520225097e-11 -9.5964295157393887e-11  1.9999999997751493e+02 9.7848155607039176e-11 1.1184054139879201e-10  1.9999999997751033e+02 9.9311795722685561e-11 8.6596831102302819e-11  1.9999999997741676e+02 -3.8990556454841516e-11 3.5746990965711691e-11  1.9999999997816658e+02 -1.1268388604033330e-10 -1.6475966589173830e-10  1.9999999997810295e+02 -1.2683365713316734e-10 -1.0105869677957745e-10  1.9999999997913781e+02 7.4667116045050339e-11 9.7519793537409040e-11  1.9999999997819063e+02 -4.2963078389107543e-11 -3.2277717081285078e-11  1.9999999997905238e+02 -5.0249868501645572e-11 -4.0998318859468095e-11  1.9999999997586619e+02 -3.7887999891966865e-11 -1.7972340244058658e-11  1.9999999997559405e+02 -1.2884328262048197e-10 -8.1031855260521072e-11  1.9999999997655959e+02 -8.3045075483825405e-11 -5.9066370504307728e-11  1.9999999997593534e+02 8.9793513976194847e-11 9.2510715566705514e-11  1.9999999997592195e+02 1.1877639313614135e-10 7.0592442673226390e-11  1.9999999997582793e+02 -7.0725392143281538e-11 6.3194319610295348e-12  1.9999999997654859e+02 -1.0734755560790615e-10 -1.6337370087071427e-10  1.9999999997664702e+02 1.7458588013422149e-11 -2.0344958075211226e-11  1.9999999997653748e+02 -1.5059038238576997e-10 -1.1743354987071991e-10  1.9999999997659162e+02 -8.1463369888220359e-11 2.6528009001034753e-11  1.9999999997403063e+02 -1.0580832393355826e-10 -1.3018838239400071e-10  1.9999999997498199e+02 -6.7439940433280196e-11 -9.4813210717752759e-11  1.9999999997421045e+02 -1.0650178260220619e-10 -6.5481735110829862e-11  1.9999999997431300e+02 1.0043078805909420e-10 1.0209886300635360e-10  1.9999999997423404e+02 3.6168797732546155e-11 -2.3286578522953138e-11  1.9999999997432568e+02 8.6969082291487925e-11 7.8717154443553734e-11  1.9999999997426451e+02 -6.2200446021248804e-12 -1.2093306026657554e-11  1.9999999997489715e+02 -1.1376102135237787e-10 -1.9362646502503393e-10  1.9999999997493035e+02 -1.0413804390220665e-10 -1.0928396981604642e-10  1.9999999997499435e+02 -3.0247191452055956e-11 5.9367430984972662e-12  1.9999999997334425e+02 -8.1806519641600872e-11 -1.0636001226513319e-10  1.9999999997256367e+02 -7.2303411331958162e-11 -1.2860250882348552e-10  1.9999999997260730e+02 -7.3882041352762045e-11 1.1807318195332172e-11  1.9999999997275813e+02 8.9612002084746483e-11 7.2922770873055728e-11  1.9999999997261725e+02 2.0191711147575932e-12 -2.5788885216021498e-11  1.9999999997277862e+02 7.2047502927666712e-11 7.5321657075263391e-11  1.9999999997263703e+02 2.1390073683714792e-11 1.2856789050610315e-11  1.9999999997331511e+02 -7.5684090222426773e-11 -1.6089545814626338e-10  1.9999999997341095e+02 4.1792107551518056e-12 -7.7071226723420061e-12  1.9999999997335183e+02 -8.2512571678908810e-11 -1.4249431739152182e-10  1.9999999997343613e+02 -8.2171368203645547e-11 1.2795485869033215e-11  1.9999999997727704e+02 -9.4751162396670425e-11 -1.2875441879146794e-10  1.9999999997817304e+02 -9.1004550219643386e-11 -1.0403683099429597e-10  1.9999999997653643e+02 -8.4007125076447222e-11 -8.8166321936913830e-11  1.9999999997569145e+02 -7.2072408482113002e-11 -1.2662198009644265e-10  1.9999999997585707e+02 -7.3325110877161891e-11 -3.8787900114274092e-13  1.9999999997591618e+02 1.3848134296549533e-10 9.4717934839460942e-11  1.9999999997582319e+02 1.6061640351340187e-11 -3.3709881366593227e-11  1.9999999997587844e+02 1.0075580128013608e-10 1.1154101876422102e-10  1.9999999997581460e+02 -3.2602371880803476e-11 -7.5004910377464250e-12  1.9999999997655138e+02 -1.3404049948097952e-10 -2.1904251316754820e-10  1.9999999997653578e+02 -9.4386473965994402e-11 -1.1511590808537108e-10  1.9999999997408497e+02 -7.9289484682149269e-11 -1.3276025096456235e-10  1.9999999997492810e+02 -5.4759668983727266e-11 -1.0418482164924664e-10  1.9999999997419255e+02 -6.3480912381146777e-11 -3.0255806583823415e-12  1.9999999997433846e+02 1.3736043945031935e-10 7.0404588239384308e-11  1.9999999997425971e+02 -9.4312065428248401e-12 -4.1098849273497731e-11  1.9999999997434651e+02 8.3066172850403661e-11 1.0857152775103150e-10  1.9999999997427207e+02 -3.2565506694994831e-11 2.7054618584304151e-11  1.9999999997491639e+02 -8.5490269135294618e-11 -1.5567402299436007e-10  1.9999999997504315e+02 -3.9332182477885386e-12 -5.8829965266197760e-13  1.9999999997491213e+02 -5.8568102893392505e-11 -8.7636470628801982e-11  1.9999999997499307e+02 -2.8895535543956019e-11 -3.0509628946192378e-11  1.9999999997335902e+02 -7.6216957171662237e-11 -7.3009468067547134e-11  1.9999999997335257e+02 -8.8173778147728875e-11 -8.4820265377530933e-11  1.9999999997256975e+02 -3.6053022376420326e-11 -5.6428018901921828e-11  1.9999999997271613e+02 1.0621043093783679e-10 8.7448759610986820e-11  1.9999999997564831e+02 -8.0253240909831469e-11 -1.0935187570042677e-10  1.9999999997655587e+02 -8.5791703302878698e-11 -8.6987575526285578e-11  1.9999999997494479e+02 -7.5038389517854317e-11 -7.6164704572967150e-11  1.9999999997123251e+02 9.6199546578862800e-11 6.2258435701676725e-10  1.9999999997112261e+02 -1.0258690863883084e-10 -4.0122604206499756e-11  1.9999999997098345e+02 -1.1323510314162534e-10 -2.2208953833263513e-10  1.9999999997181547e+02 -3.4373353302784213e-11 -1.4970765421288100e-10  1.9999999997107705e+02 -8.1778403745060658e-11 2.8513245265085679e-11  1.9999999997171147e+02 -2.2619266977335623e-10 -4.2834041974533198e-10  1.9999999997121105e+02 1.0000059309950893e-10 1.6253788383381270e-10  1.9999999997114520e+02 -3.0390587286492164e-11 3.8981124057904368e-11  1.9999999997178477e+02 -5.1997341267736293e-11 -2.3098248037443005e-10  1.9999999997283194e+02 1.1181802647540883e-10 6.5042836986393290e-10  1.9999999997176531e+02 -1.3956988094548197e-10 -1.7153327746785509e-10  1.9999999997183184e+02 -6.9326267991332852e-11 -8.5467032706414914e-12  1.9999999997185205e+02 -9.6770169942133391e-11 5.3977644178910456e-11  1.9999999997265908e+02 5.6284378236865371e-11 -7.0745604521221351e-11  1.9999999996970209e+02 9.5104992195719411e-11 6.1245657121662696e-10  1.9999999996947989e+02 -1.2723006942803114e-10 -1.6612633260761963e-10  1.9999999996954782e+02 -5.2284528318997579e-11 5.3821122451595775e-11  1.9999999997029147e+02 -1.0859324132840859e-10 -1.4978358911483045e-10  1.9999999997015598e+02 -2.2131104522265237e-10 -3.8445973431209617e-10  1.9999999996969339e+02 7.8170977625645490e-11 5.9469314758019190e-10  1.9999999996959900e+02 -1.0926414696413845e-10 -1.0335404022943780e-10  1.9999999996969115e+02 8.6436265662533449e-11 1.5794714430939058e-10  1.9999999996959795e+02 -2.3419544182938447e-11 -1.7632687968174451e-11  1.9999999996969908e+02 9.2353339201648375e-11 1.1905058514298728e-10  1.9999999996960551e+02 -1.0158554574649336e-10 1.0035101538838204e-11  1.9999999997025731e+02 -1.3404898790479754e-10 -1.8375655840093293e-10  1.9999999997022809e+02 -1.6267555707489427e-10 -1.9828142127355119e-10  1.9999999997033481e+02 -7.7214007880323584e-11 1.8619688169363231e-11  1.9999999997027396e+02 -8.0393697694746633e-11 6.4422548039869633e-11  1.9999999996818809e+02 5.8191301278720766e-11 6.2371357032331118e-10  1.9999999996798149e+02 -1.2950131198278164e-10 -1.7636300613252792e-10  1.9999999996803891e+02 -6.4094591213158553e-11 1.9617641944472843e-12  1.9999999996877699e+02 -1.3262862349887022e-10 -1.4898707374661219e-10  1.9999999996870503e+02 -1.9409302374917998e-10 -4.1043257408280476e-10  1.9999999996817650e+02 8.8539854310957075e-11 6.1052755039227045e-10  1.9999999996811729e+02 -2.8440993267388229e-11 -9.8436447205242776e-11  1.9999999996816857e+02 7.4039772933750551e-11 1.5447169421770219e-10  1.9999999996815345e+02 6.2821791143593645e-11 1.0760191542147207e-10  1.9999999996810226e+02 -8.4953053281241938e-11 4.3258013659875150e-11  1.9999999996877176e+02 -1.5525696261084169e-10 -1.6018651411400142e-10  1.9999999996878771e+02 -2.0168440350264425e-10 -1.7750846463841056e-10  1.9999999996884213e+02 -1.2428426216105600e-10 2.8349993127445016e-11  1.9999999996887743e+02 -3.4247373857503522e-11 6.1667231566643564e-11  1.9999999996663081e+02 4.3474348487864342e-11 2.9498162095506276e-10  1.9999999996643351e+02 -1.6078834405036703e-11 -3.2140273896696711e-11  1.9999999996638144e+02 -5.7365893414882096e-12 -1.6445435567225179e-11  1.9999999996733894e+02 -1.0680925735278339e-10 -1.2416982538576177e-10  1.9999999996661506e+02 2.9615527411646457e-11 5.7553100478106843e-11  1.9999999996661899e+02 3.4812778560109656e-11 4.7752605977620908e-11  1.9999999996639295e+02 -1.5835127473526849e-11 2.0833842031012309e-11  1.9999999996732214e+02 -1.0667404059494691e-10 -1.7756673586020900e-10  1.9999999996726379e+02 -2.0237926470149059e-10 -3.6636104288582098e-10  1.9999999996734724e+02 -1.9413258047700628e-10 -1.6115922134392210e-10  1.9999999996742238e+02 -9.2927277947785518e-11 4.0679225109281268e-11  1.9999999996733902e+02 -5.8996882644271556e-12 4.3935512096928093e-11  1.9999999996883074e+02 -8.9374089102372156e-11 -1.3923287032729043e-10  1.9999999996887328e+02 -2.1279434254394315e-10 -4.3899050086761083e-10  1.9999999996797513e+02 -1.2414117279514562e-10 -1.8514832675895928e-10  1.9999999996800844e+02 -6.2448174326060413e-11 2.2910008493684738e-12  1.9999999996820620e+02 1.0433256360766600e-10 6.4162377274690980e-10  1.9999999996819605e+02 -8.0760541532286740e-11 -9.9313701950572154e-11  1.9999999996817851e+02 8.2040197829312644e-11 1.3738608334648941e-10  1.9999999996808961e+02 -5.3710593292106750e-11 -2.4107006469600349e-11  1.9999999996882300e+02 -1.3800420285016933e-10 -1.3761451213475074e-10  1.9999999996731958e+02 -8.6662090287866135e-11 -1.3238072038455083e-10  1.9999999996729375e+02 -1.7552681229856627e-10 -4.2148600659381589e-10  1.9999999996646463e+02 1.0277381167945285e-11 -1.1071274380220161e-11  1.9999999996646665e+02 -4.0888772650563208e-11 -1.2088384959904344e-10  1.9999999996660623e+02 5.9058615049271009e-11 3.0365124243714051e-10  1.9999999996646284e+02 -1.3595765947980807e-10 -1.9404322603664930e-11  1.9999999996657627e+02 4.0328717779581080e-11 5.3199843280363363e-11  1.9999999996639593e+02 -2.9071711850266854e-11 1.5297076616837979e-11  1.9999999996734894e+02 -1.2393392880384696e-10 -1.0839737167111814e-10  1.9999999996734434e+02 -1.1915730860562375e-10 -1.7908538998539296e-10  1.9999999996737543e+02 -6.9614413832638687e-11 3.5846526610526050e-11  1.9999999996738603e+02 -5.7786125351458264e-11 1.4305458196307637e-11  1.9999999997261207e+02 1.6461256892002965e-12 -7.5445948813333967e-11  1.9999999997269077e+02 -7.1740832022963078e-12 1.2833736884125176e-11  1.9999999997110834e+02 -5.2585762906544455e-11 -4.3230345000011401e-11  1.9999999997098581e+02 -1.1398633557895104e-10 -6.9335355357591798e-11  1.9999999997179469e+02 -2.5141032401778285e-11 -5.5829846754361613e-11  1.9999999997119215e+02 1.0861710320750178e-10 1.1739877206435289e-10  1.9999999997123373e+02 1.0430919162369411e-10 1.2334789285745578e-10  1.9999999997113952e+02 -4.4277068534703004e-11 1.5602226352921897e-11  1.9999999997177585e+02 -9.3470472906087907e-11 -1.2678323176230477e-10  1.9999999997179413e+02 -7.3285097419045039e-11 -7.0906491498342806e-11  1.9999999997185282e+02 -9.8257244061178489e-11 9.3335047302592851e-12  1.9999999996944396e+02 -1.2936796974183959e-10 -9.1164209014317506e-11  1.9999999997027146e+02 -1.0311916415028300e-10 -7.2551876379545693e-11  1.9999999996959912e+02 -6.1277661955870187e-11 1.0927519411353555e-11  1.999999999