<?xml version="1.0"?>
<VTKFile type="UnstructuredGrid"  version="0.1"  >
<UnstructuredGrid>
<Piece  NumberOfPoints="3798" NumberOfCells="18497">
<Points>
<DataArray  type="Float64"  NumberOfComponents="3"  format="ascii">37.5 0 35  38.75 1.25 36.25  38.75 1.25 35  38.75 0 35  40 0 35  40 1.25 36.25  40 1.25 35  40 2.5 35  40 2.5 36.25  40 2.5 37.5  38.75 0 36.25  40 0 36.25  40 0 37.5  40 1.25 37.5  37.5 0 36.25  37.5 0 37.5  38.75 1.25 37.5  38.75 0 37.5  37.5 1.25 35  37.5 2.5 35  38.75 2.5 36.25  38.75 2.5 35  37.5 1.25 36.25  37.5 1.25 37.5  37.5 2.5 37.5  38.75 2.5 37.5  37.5 2.5 36.25  41.25 1.25 36.25  41.25 0 36.25  41.25 0 35  42.5 0 35  42.5 1.25 36.25  42.5 0 36.25  42.5 0 37.5  42.5 1.25 37.5  42.5 2.5 37.5  41.25 1.25 37.5  41.25 0 37.5  41.25 2.5 37.5  41.25 2.5 36.25  43.75 1.25 36.25  43.75 0 36.25  43.75 1.25 37.5  43.75 0 37.5  45 0 37.5  45 1.25 37.5  45 2.5 37.5  43.75 2.5 37.5  37.5 3.75 36.25  37.5 3.75 35  36.25 3.75 36.25  36.25 3.75 35  37.5 5 35  37.5 5 36.25  37.5 5 37.5  37.5 3.75 37.5  36.25 5 36.25  36.25 5 35  38.75 3.75 36.25  38.75 3.75 35  40 3.75 36.25  40 3.75 35  40 5 35  40 5 36.25  40 5 37.5  40 3.75 37.5  38.75 3.75 37.5  38.75 5 36.25  38.75 5 35  38.75 5 37.5  41.25 3.75 36.25  41.25 3.75 37.5  42.5 3.75 37.5  42.5 5 37.5  41.25 5 37.5  41.25 5 36.25  37.5 6.25 36.25  37.5 6.25 35  36.25 6.25 36.25  36.25 6.25 35  37.5 7.5 35  37.5 7.5 36.25  37.5 7.5 37.5  37.5 6.25 37.5  36.25 7.5 36.25  36.25 7.5 35  38.75 6.25 36.25  38.75 6.25 35  40 6.25 36.25  40 6.25 35  40 7.5 35  40 7.5 36.25  40 7.5 37.5  40 6.25 37.5  38.75 6.25 37.5  38.75 7.5 36.25  38.75 7.5 35  38.75 7.5 37.5  41.25 6.25 36.25  41.25 6.25 37.5  42.5 6.25 37.5  42.5 7.5 37.5  41.25 7.5 37.5  41.25 7.5 36.25  37.5 8.75 36.25  37.5 8.75 35  36.25 8.75 36.25  36.25 8.75 35  37.5 10 35  37.5 10 36.25  37.5 10 37.5  37.5 8.75 37.5  38.75 8.75 36.25  38.75 8.75 35  40 8.75 36.25  40 8.75 35  40 10 35  40 10 36.25  40 10 37.5  40 8.75 37.5  38.75 8.75 37.5  38.75 10 36.25  38.75 10 35  38.75 10 37.5  41.25 8.75 36.25  41.25 8.75 37.5  42.5 8.75 37.5  42.5 10 37.5  41.25 10 37.5  41.25 10 36.25  38.75 11.25 36.25  38.75 11.25 35  40 11.25 36.25  40 11.25 35  40 12.5 35  40 12.5 36.25  40 12.5 37.5  40 11.25 37.5  38.75 11.25 37.5  37.5 11.25 35  37.5 12.5 35  38.75 12.5 36.25  38.75 12.5 35  38.75 12.5 37.5  41.25 11.25 36.25  41.25 11.25 37.5  42.5 11.25 37.5  42.5 12.5 37.5  41.25 12.5 37.5  41.25 12.5 36.25  38.75 13.75 36.25  40 13.75 36.25  40 13.75 37.5  40 15 37.5  38.75 13.75 37.5  38.75 15 37.5  38.75 15 36.25  41.25 13.75 36.25  41.25 13.75 37.5  42.5 13.75 37.5  42.5 15 37.5  41.25 15 37.5  40 16.25 37.5  38.75 16.25 37.5  38.75 16.25 36.25  40 17.5 37.5  38.75 17.5 37.5  38.75 17.5 36.25  40 18.75 37.5  38.75 18.75 37.5  38.75 18.75 36.25  40 20 37.5  37.5 20 37.5  38.75 20 37.5  37.5 1.25 38.75  36.25 1.25 38.75  37.5 2.5 38.75  37.5 2.5 40  37.5 0 38.75  36.25 0 38.75  37.5 0 40  37.5 1.25 40  36.25 1.25 40  36.25 0 40  36.25 2.5 38.75  35 2.5 40  36.25 2.5 40  38.75 1.25 38.75  40 1.25 38.75  40 2.5 38.75  40 2.5 40  38.75 0 38.75  40 0 38.75  40 0 40  40 1.25 40  38.75 1.25 40  38.75 0 40  38.75 2.5 38.75  38.75 2.5 40  41.25 1.25 38.75  42.5 1.25 38.75  42.5 2.5 38.75  42.5 2.5 40  41.25 0 38.75  42.5 0 38.75  42.5 0 40  42.5 1.25 40  41.25 1.25 40  41.25 0 40  41.25 2.5 38.75  41.25 2.5 40  43.75 1.25 38.75  45 1.25 38.75  45 2.5 38.75  45 2.5 40  43.75 0 38.75  45 0 38.75  45 0 40  45 1.25 40  43.75 1.25 40  43.75 0 40  43.75 2.5 38.75  43.75 2.5 40  46.25 1.25 38.75  46.25 0 38.75  46.25 1.25 40  46.25 0 40  47.5 0 40  47.5 1.25 40  47.5 2.5 40  46.25 2.5 40  46.25 2.5 38.75  37.5 3.75 38.75  36.25 3.75 38.75  37.5 5 38.75  37.5 5 40  37.5 3.75 40  36.25 3.75 40  38.75 3.75 38.75  40 3.75 38.75  40 5 38.75  40 5 40  40 3.75 40  38.75 3.75 40  38.75 5 38.75  38.75 5 40  41.25 3.75 38.75  42.5 3.75 38.75  42.5 5 38.75  42.5 5 40  42.5 3.75 40  41.25 3.75 40  41.25 5 38.75  41.25 5 40  43.75 3.75 38.75  43.75 3.75 37.5  45 3.75 38.75  45 3.75 37.5  45 5 37.5  45 5 38.75  45 5 40  45 3.75 40  43.75 3.75 40  43.75 5 38.75  43.75 5 37.5  43.75 5 40  46.25 3.75 38.75  46.25 3.75 37.5  46.25 2.5 37.5  47.5 2.5 37.5  47.5 3.75 38.75  47.5 3.75 37.5  47.5 5 37.5  47.5 5 38.75  47.5 5 40  47.5 2.5 38.75  47.5 3.75 40  46.25 3.75 40  46.25 5 38.75  46.25 5 37.5  46.25 5 40  48.75 3.75 38.75  48.75 3.75 40  48.75 5 40  50 5 40  48.75 5 38.75  38.75 6.25 38.75  40 6.25 38.75  40 7.5 38.75  40 7.5 40  40 6.25 40  38.75 6.25 40  38.75 7.5 38.75  38.75 7.5 40  41.25 6.25 38.75  42.5 6.25 38.75  42.5 7.5 38.75  42.5 7.5 40  42.5 6.25 40  41.25 6.25 40  41.25 7.5 38.75  41.25 7.5 40  43.75 6.25 38.75  43.75 6.25 37.5  45 6.25 38.75  45 6.25 37.5  45 7.5 37.5  45 7.5 38.75  45 7.5 40  45 6.25 40  43.75 6.25 40  43.75 7.5 38.75  43.75 7.5 37.5  43.75 7.5 40  46.25 6.25 38.75  46.25 6.25 37.5  47.5 6.25 38.75  47.5 6.25 37.5  47.5 7.5 37.5  47.5 7.5 38.75  47.5 7.5 40  47.5 6.25 40  46.25 6.25 40  46.25 7.5 38.75  46.25 7.5 37.5  46.25 7.5 40  48.75 6.25 38.75  48.75 6.25 37.5  48.75 5 37.5  50 5 37.5  50 6.25 38.75  50 6.25 37.5  50 7.5 37.5  50 7.5 38.75  50 7.5 40  50 5 38.75  50 6.25 40  48.75 6.25 40  48.75 7.5 38.75  48.75 7.5 37.5  48.75 7.5 40  38.75 8.75 38.75  40 8.75 38.75  40 10 38.75  40 10 40  40 8.75 40  38.75 8.75 40  38.75 10 38.75  38.75 10 40  41.25 8.75 38.75  42.5 8.75 38.75  42.5 10 38.75  42.5 10 40  42.5 8.75 40  41.25 8.75 40  41.25 10 38.75  41.25 10 40  43.75 8.75 38.75  43.75 8.75 37.5  45 8.75 38.75  45 8.75 37.5  45 10 37.5  45 10 38.75  45 10 40  45 8.75 40  43.75 8.75 40  43.75 10 38.75  43.75 10 37.5  43.75 10 40  46.25 8.75 38.75  46.25 8.75 37.5  47.5 8.75 38.75  47.5 8.75 37.5  47.5 10 37.5  47.5 10 38.75  47.5 10 40  47.5 8.75 40  46.25 8.75 40  46.25 10 38.75  46.25 10 37.5  46.25 10 40  48.75 8.75 38.75  48.75 8.75 37.5  50 8.75 38.75  50 8.75 37.5  50 10 37.5  50 10 38.75  50 10 40  50 8.75 40  48.75 8.75 40  48.75 10 38.75  48.75 10 37.5  48.75 10 40  38.75 11.25 38.75  40 11.25 38.75  40 12.5 38.75  40 12.5 40  40 11.25 40  38.75 11.25 40  38.75 12.5 38.75  38.75 12.5 40  41.25 11.25 38.75  42.5 11.25 38.75  42.5 12.5 38.75  42.5 12.5 40  42.5 11.25 40  41.25 11.25 40  41.25 12.5 38.75  41.25 12.5 40  43.75 11.25 38.75  43.75 11.25 37.5  45 11.25 38.75  45 11.25 37.5  45 12.5 37.5  45 12.5 38.75  45 12.5 40  45 11.25 40  43.75 11.25 40  43.75 12.5 38.75  43.75 12.5 37.5  43.75 12.5 40  46.25 11.25 38.75  46.25 11.25 37.5  47.5 11.25 38.75  47.5 11.25 37.5  47.5 12.5 37.5  47.5 12.5 38.75  47.5 12.5 40  47.5 11.25 40  46.25 11.25 40  46.25 12.5 38.75  46.25 12.5 37.5  46.25 12.5 40  48.75 11.25 38.75  48.75 11.25 37.5  50 11.25 38.75  50 11.25 37.5  50 12.5 37.5  50 12.5 38.75  50 12.5 40  50 11.25 40  48.75 11.25 40  48.75 12.5 38.75  48.75 12.5 37.5  48.75 12.5 40  40 13.75 38.75  38.75 13.75 38.75  40 15 38.75  40 15 40  40 13.75 40  38.75 13.75 40  38.75 15 38.75  38.75 15 40  41.25 13.75 38.75  42.5 13.75 38.75  42.5 15 38.75  42.5 15 40  42.5 13.75 40  41.25 13.75 40  41.25 15 38.75  41.25 15 40  43.75 13.75 38.75  43.75 13.75 37.5  45 13.75 38.75  45 13.75 37.5  45 15 37.5  45 15 38.75  45 15 40  45 13.75 40  43.75 13.75 40  43.75 15 38.75  43.75 15 37.5  43.75 15 40  46.25 13.75 38.75  46.25 13.75 37.5  47.5 13.75 38.75  47.5 13.75 37.5  47.5 15 37.5  47.5 15 38.75  47.5 15 40  47.5 13.75 40  46.25 13.75 40  46.25 15 38.75  46.25 15 37.5  46.25 15 40  48.75 13.75 38.75  48.75 13.75 37.5  50 13.75 38.75  50 13.75 37.5  50 15 37.5  50 15 38.75  50 15 40  50 13.75 40  48.75 13.75 40  48.75 15 38.75  48.75 15 37.5  48.75 15 40  40 16.25 38.75  38.75 16.25 38.75  40 17.5 38.75  40 17.5 40  40 16.25 40  38.75 16.25 40  38.75 17.5 38.75  38.75 17.5 40  41.25 16.25 38.75  41.25 16.25 37.5  42.5 16.25 38.75  42.5 16.25 37.5  42.5 17.5 37.5  42.5 17.5 38.75  42.5 17.5 40  42.5 16.25 40  41.25 16.25 40  41.25 17.5 38.75  41.25 17.5 37.5  41.25 17.5 40  43.75 16.25 38.75  43.75 16.25 37.5  45 16.25 38.75  45 16.25 37.5  45 17.5 37.5  45 17.5 38.75  45 17.5 40  45 16.25 40  43.75 16.25 40  43.75 17.5 38.75  43.75 17.5 37.5  43.75 17.5 40  46.25 16.25 38.75  46.25 16.25 37.5  47.5 16.25 38.75  47.5 16.25 37.5  47.5 17.5 37.5  47.5 17.5 38.75  47.5 17.5 40  47.5 16.25 40  46.25 16.25 40  46.25 17.5 38.75  46.25 17.5 37.5  46.25 17.5 40  48.75 16.25 38.75  48.75 16.25 37.5  50 16.25 38.75  50 16.25 37.5  50 17.5 37.5  50 17.5 38.75  50 17.5 40  50 16.25 40  48.75 16.25 40  48.75 17.5 38.75  48.75 17.5 37.5  48.75 17.5 40  40 18.75 38.75  38.75 18.75 38.75  40 20 38.75  40 20 40  40 18.75 40  38.75 18.75 40  38.75 20 38.75  38.75 20 40  41.25 18.75 38.75  41.25 18.75 37.5  42.5 18.75 38.75  42.5 18.75 37.5  42.5 20 37.5  42.5 20 38.75  42.5 20 40  42.5 18.75 40  41.25 18.75 40  41.25 20 38.75  41.25 20 37.5  41.25 20 40  43.75 18.75 38.75  43.75 18.75 37.5  45 18.75 38.75  45 18.75 37.5  45 20 37.5  45 20 38.75  45 20 40  45 18.75 40  43.75 18.75 40  43.75 20 38.75  43.75 20 37.5  43.75 20 40  46.25 18.75 38.75  47.5 18.75 38.75  47.5 18.75 40  47.5 20 40  46.25 18.75 40  46.25 20 40  46.25 20 38.75  48.75 18.75 38.75  50 18.75 38.75  50 18.75 40  50 20 40  48.75 18.75 40  48.75 20 40  43.75 21.25 38.75  46.25 21.25 38.75  37.5 1.25 41.25  36.25 1.25 41.25  37.5 2.5 41.25  37.5 2.5 42.5  37.5 0 41.25  36.25 0 41.25  37.5 0 42.5  37.5 1.25 42.5  36.25 1.25 42.5  36.25 0 42.5  36.25 2.5 41.25  36.25 2.5 42.5  38.75 1.25 41.25  40 1.25 41.25  40 2.5 41.25  40 2.5 42.5  38.75 0 41.25  40 0 41.25  40 0 42.5  40 1.25 42.5  38.75 1.25 42.5  38.75 0 42.5  38.75 2.5 41.25  38.75 2.5 42.5  41.25 1.25 41.25  42.5 1.25 41.25  42.5 2.5 41.25  42.5 2.5 42.5  41.25 0 41.25  42.5 0 41.25  42.5 0 42.5  42.5 1.25 42.5  41.25 1.25 42.5  41.25 0 42.5  41.25 2.5 41.25  41.25 2.5 42.5  43.75 1.25 41.25  45 1.25 41.25  45 2.5 41.25  45 2.5 42.5  43.75 0 41.25  45 0 41.25  45 0 42.5  45 1.25 42.5  43.75 1.25 42.5  43.75 0 42.5  43.75 2.5 41.25  43.75 2.5 42.5  46.25 1.25 41.25  47.5 1.25 41.25  47.5 2.5 4
[...]
<PointData  Vectors="u"> 
<DataArray  type="Float64"  Name="u"  NumberOfComponents="3" format="ascii">1.9999999997432917e+02 6.3940603431348971e-10 -1.3794652981486200e-11  1.9999999997333279e+02 -1.2569244520884110e-10 -1.0719191872065685e-10  1.9999999997320708e+02 -2.5369418359355438e-10 -8.6130562726276590e-11  1.9999999997337702e+02 -5.1345456278548085e-11 -4.8683795645570576e-11  1.9999999997274344e+02 6.1726415963648309e-10 -4.2203647691761671e-11  1.9999999997246556e+02 -1.0951013009676041e-10 -6.7214919142116139e-11  1.9999999997260016e+02 -5.6656022379429433e-11 5.4638231477756942e-12  1.9999999997274372e+02 9.5970612735366883e-11 -8.9661081550065460e-12  1.9999999997264626e+02 1.6841622207390419e-11 -2.1510453573762902e-11  1.9999999997279525e+02 1.0075077853751620e-10 8.6565405051376441e-11  1.9999999997333322e+02 -3.1025921379270926e-10 2.6902770339433088e-11  1.9999999997264322e+02 1.1449742722795368e-10 2.0072545083830426e-11  1.9999999997273619e+02 5.5846980043283091e-10 7.7892625627617408e-11  1.9999999997271658e+02 -1.2057904934531226e-10 -3.5807850794907128e-12  1.9999999997415222e+02 3.0802105746686646e-11 -5.3248187745780183e-11  1.9999999997432622e+02 4.9813117592297803e-10 3.7924587779376470e-11  1.9999999997329050e+02 -8.7697016840354098e-11 -9.5465845607091381e-11  1.9999999997343639e+02 1.0169406256028237e-10 -7.2615705197904693e-11  1.9999999997418226e+02 -9.8488446828612858e-11 1.5877587643864339e-11  1.9999999997433414e+02 1.0605431155065663e-10 -2.6285323751284654e-11  1.9999999997330141e+02 -2.1337831311764666e-10 -1.4220777473841324e-10  1.9999999997336775e+02 -8.4939970086502169e-11 4.3109861778900275e-11  1.9999999997401295e+02 -1.1345383237204254e-10 -1.2969280491487474e-10  1.9999999997424095e+02 1.2347357981771513e-11 2.2695242628257824e-11  1.9999999997428696e+02 6.9486311381842436e-11 7.2968562446703540e-11  1.9999999997337619e+02 3.5594803462370172e-11 -1.0501910477878393e-10  1.9999999997419209e+02 1.8130696583419548e-12 -2.7351354014140369e-11  1.9999999997183042e+02 -1.5318250034854936e-10 -5.4688198326052006e-11  1.9999999997161387e+02 -3.9956258264063119e-10 -1.8806083185867990e-10  1.9999999997185779e+02 -2.0260196202109301e-11 7.7805071040499957e-12  1.9999999997120906e+02 5.9581740172485719e-10 -1.9512128696715456e-11  1.9999999997085513e+02 -1.7775632445340040e-10 -4.7741943522193006e-11  1.9999999997100272e+02 3.3239013469229879e-11 -4.2806662351334739e-11  1.9999999997120682e+02 6.0367348924859201e-10 7.6163198812088699e-11  1.9999999997108762e+02 -7.4366409934222991e-11 -5.0698590724200397e-11  1.9999999997121319e+02 1.2655895756672769e-10 1.4677420721241063e-11  1.9999999997174598e+02 -9.2900231313735785e-11 -9.9049565618951268e-11  1.9999999997181325e+02 -2.8553401774928388e-11 -5.6050872448337807e-11  1.9999999997184545e+02 4.0720146545359806e-11 -1.4588866041507282e-10  1.9999999997178401e+02 -2.5971275868125533e-10 -1.9283018897615214e-11  1.9999999997031887e+02 -9.3335758543314707e-11 -7.2050228179212675e-11  1.9999999997023750e+02 -4.0676035410469582e-10 -7.4630790945589833e-11  1.9999999997022118e+02 -1.9873155687989207e-10 -2.0173288570797103e-10  1.9999999997033316e+02 -1.9476436753205347e-11 -5.9118872139687276e-11  1.9999999996970200e+02 5.5518665841834075e-10 8.7486360100809195e-12  1.9999999996955844e+02 -9.8764437731230000e-11 -4.1482010760724359e-11  1.9999999996971673e+02 1.5067394830809349e-10 -4.8754679651335397e-11  1.9999999997036144e+02 -3.2902757610962359e-11 -1.6113752899396205e-11  1.9999999997401900e+02 -1.1507417990358087e-10 -1.3134563379868085e-10  1.9999999997415915e+02 4.5026372830133006e-11 5.9359864094370944e-11  1.9999999997494388e+02 -9.5780827958086698e-11 -9.7632291710672004e-11  1.9999999997482846e+02 -2.4027805481869456e-10 -9.4043576522619460e-11  1.9999999997434114e+02 1.1162602742280202e-10 -4.2081143058058591e-11  1.9999999997418197e+02 -1.0496940980138912e-12 -5.0483191445886459e-11  1.9999999997428728e+02 1.0160277924095859e-10 5.8576695682217422e-11  1.9999999997417524e+02 -3.5963046024431133e-11 -3.6440448645965993e-11  1.9999999997493546e+02 -1.5989193134698044e-10 -9.9398541952549946e-11  1.9999999997497645e+02 -8.3821195321410591e-12 5.0207057237954634e-11  1.9999999997332870e+02 -9.4766946495586711e-11 -1.4431368500402087e-10  1.9999999997321891e+02 -1.8372473875741632e-10 -8.4712032660293106e-11  1.9999999997254139e+02 -1.3358821525984389e-10 -9.9298160661483417e-11  1.9999999997258001e+02 -7.8602037859799273e-12 8.3396338146726509e-11  1.9999999997272948e+02 1.3574328465477409e-10 -3.2058947252177044e-11  1.9999999997265937e+02 3.3998291647374399e-11 -2.7150791957921658e-11  1.9999999997275575e+02 9.1072109222786439e-11 6.5760645209165470e-11  1.9999999997268918e+02 -3.9832990006838186e-11 -1.0861327616699755e-11  1.9999999997332523e+02 -1.1273912685315758e-10 -1.4514564135669351e-10  1.9999999997329957e+02 -9.6234622283560273e-11 -1.5126435715585226e-10  1.9999999997337818e+02 -7.0261364138940038e-11 -1.5026266880778134e-11  1.9999999997338753e+02 5.3773879831955327e-11 2.2935442375577570e-11  1.9999999997185600e+02 -8.4954255677475005e-11 -5.7107764390352075e-11  1.9999999997176880e+02 -1.0134114457026378e-10 -1.8952571068201575e-10  1.9999999997103615e+02 -3.6084453147042931e-12 -3.2018778294095390e-11  1.9999999997122191e+02 1.0598871905101076e-10 -8.3475168070696818e-12  1.9999999997192674e+02 -1.0252115480682892e-12 -1.0526756407791658e-11  1.9999999997180279e+02 -2.4820844621989910e-10 -3.2018284841061745e-11  1.9999999997402642e+02 -1.3570455513314494e-10 -1.1941154739230731e-10  1.9999999997415725e+02 -4.4500430379688714e-11 -1.2817509498542013e-12  1.9999999997492452e+02 -6.9512819484861241e-11 -9.6302784419562445e-11  1.9999999997480202e+02 -2.2736935256009650e-10 -9.6872921213352870e-11  1.9999999997435344e+02 1.2071628383707502e-10 -5.0907629609470569e-11  1.9999999997420591e+02 1.0302844465106909e-11 -2.7963204180953356e-11  1.9999999997430072e+02 9.6643797618241772e-11 8.9089961985743869e-11  1.9999999997419320e+02 9.6569539312988574e-13 7.0343039310989201e-12  1.9999999997487450e+02 -1.6780163549299372e-10 -7.3600226306476127e-11  1.9999999997492830e+02 -2.3427247554861314e-11 6.1897495079843617e-11  1.9999999997334592e+02 -7.1821696775440233e-11 -1.1193910392544677e-10  1.9999999997324431e+02 -2.0695795815599037e-10 -1.5223848320363084e-10  1.9999999997252365e+02 -1.1678162342696840e-10 -1.4671236387954079e-10  1.9999999997257541e+02 -3.9156436079768866e-11 2.9629854127961401e-11  1.9999999997270561e+02 1.2808177333536156e-10 -2.9003290721424724e-11  1.9999999997264933e+02 3.6387065315985458e-11 -2.7457307366949421e-11  1.9999999997274415e+02 1.1092509280275627e-10 3.7161247779043231e-11  1.9999999997266042e+02 -1.7598882934505300e-11 -9.7572178207838469e-12  1.9999999997331071e+02 -7.4649350003887899e-11 -1.7243173547873150e-10  1.9999999997331525e+02 -1.1453915315774887e-10 -1.2181227770811526e-10  1.9999999997344074e+02 -4.5819568715948084e-11 1.2677434810618439e-12  1.9999999997341610e+02 -3.1013291674218515e-12 -4.4864712864987704e-11  1.9999999997186717e+02 -5.1747370144240501e-11 -7.2206855505676875e-11  1.9999999997179447e+02 -1.0414335757274002e-10 -1.9681508146711589e-10  1.9999999997105527e+02 -2.7413340799434297e-11 -2.0090505358399484e-11  1.9999999997125383e+02 1.2064560459137971e-10 -8.7876390881068620e-12  1.9999999997184810e+02 3.4748094045025012e-11 -8.0127060039319948e-11  1.9999999997179873e+02 -2.2675811792240091e-10 -2.9284802073510741e-11  1.9999999997405149e+02 -9.8792232363692418e-11 -1.3933743185398895e-10  1.9999999997416157e+02 1.1274619710978984e-11 3.1089619023536183e-11  1.9999999997488661e+02 -9.1509056613846623e-11 -1.3055565754321179e-10  1.9999999997482089e+02 -1.4904356228020910e-10 -9.2812129676498092e-11  1.9999999997435930e+02 8.1141079132095897e-11 -4.1236628894888147e-11  1.9999999997422032e+02 1.1410186949816226e-11 -5.5767606110205492e-11  1.9999999997432218e+02 9.5409788853068901e-11 7.3040436996605743e-11  1.9999999997423456e+02 -6.0472246861888326e-11 -2.1257210602655646e-11  1.9999999997336965e+02 -8.1847534860297672e-11 -1.3205977654193434e-10  1.9999999997321478e+02 -1.6919476618182018e-10 -1.1168021114296013e-10  1.9999999997248781e+02 -7.7291903179065260e-11 -1.3849074369095413e-10  1.9999999997257140e+02 -3.1928099096252850e-11 7.3340022486988874e-11  1.9999999997271217e+02 1.0923318535971586e-10 -8.9099997331790638e-12  1.9999999997262384e+02 6.4215537483600870e-12 -1.7853880147496985e-11  1.9999999997275927e+02 1.2189841757713324e-10 3.6142377055548215e-11  1.9999999997266934e+02 -2.2797515024256504e-11 -6.3119103658363212e-11  1.9999999997331255e+02 -1.1207831083269525e-10 -1.9885071241197318e-10  1.9999999997334800e+02 -1.4783601833442901e-10 -1.4546715247683858e-10  1.9999999997339697e+02 -6.6186022928475584e-11 2.4357619501913433e-12  1.9999999997341646e+02 1.5449774359353289e-11 -3.2195375475995902e-11  1.9999999997182698e+02 -8.3741187425494747e-11 -5.6010865256336574e-11  1.9999999997179793e+02 -1.0049535235879209e-10 -2.0821842585408872e-10  1.9999999997101369e+02 -3.9983966986274427e-11 -1.0384980532283255e-11  1.9999999997122708e+02 8.4230239861446355e-11 -1.5389581499189759e-11  1.9999999997183551e+02 1.3126005410915653e-11 -2.5298290072740041e-11  1.9999999997176525e+02 -1.9151929184750295e-10 -5.1471510609822438e-11  1.9999999997336815e+02 -6.9603491641561247e-11 -1.1645811149899071e-10  1.9999999997323084e+02 -1.8672455390542328e-10 -1.0452234976562114e-10  1.9999999997249478e+02 -1.3487358761095232e-10 -1.1156324342592268e-10  1.9999999997255705e+02 -7.0044670163769256e-11 4.8569037953545557e-11  1.9999999997268520e+02 9.9859394996088558e-11 -2.5771011083572665e-11  1.9999999997260451e+02 -1.3771182639421262e-11 -6.3613599445158262e-11  1.9999999997273113e+02 7.7570459546325236e-11 4.7888995423766363e-11  1.9999999997263632e+02 -5.0434678091503869e-11 -4.6902875268876396e-11  1.9999999997338460e+02 -1.1547609403932624e-10 -2.3039186714994674e-10  1.9999999997418715e+02 -2.4998007776062302e-11 4.9470138972096679e-11  1.9999999997433986e+02 1.6155930721430513e-10 -4.3323487197402868e-11  1.9999999997328948e+02 -1.3964867076230303e-10 -1.4423012926535273e-10  1.9999999997336488e+02 -7.6810233758313177e-11 2.6476103088893053e-11  1.9999999997338168e+02 1.3237186485653760e-11 -6.1666887904718324e-11  1.9999999997180430e+02 -9.9927025631028682e-11 -6.7010026564992959e-11  1.9999999997175297e+02 -1.5711812498608475e-10 -1.9729320534446818e-10  1.9999999997102876e+02 -2.3826440798746534e-11 -2.9924791573214740e-11  1.9999999997125005e+02 6.9068895062479022e-11 5.2388993322806271e-12  1.9999999997182991e+02 -6.4447540427778791e-12 -5.9948065664237455e-11  1.9999999997178253e+02 -2.7398090607199869e-10 -5.7452783601326756e-11  1.9999999997331653e+02 -8.2933438349626626e-11 -9.8710406093361720e-11  1.9999999997239186e+02 -1.3177264906205646e-10 -6.3508036156977295e-11  1.9999999997263598e+02 -4.9585335334277601e-11 -4.4900905852756268e-11  1.9999999997272408e+02 1.1049733498314466e-10 2.8703080705966195e-11  1.9999999997330903e+02 -1.2003579233446087e-10 -2.1231667424999293e-10  1.9999999997336431e+02 7.6617678292440872e-12 -3.8559462796301140e-11  1.9999999997330056e+02 -3.0202280586511847e-10 -5.7622936456962648e-11  1.9999999997179836e+02 -4.2342241416425333e-11 -6.8436942539080588e-11  1.9999999997176567e+02 -1.0449301726920799e-10 -1.8795389962539095e-10  1.9999999997103490e+02 -2.8082582003701455e-11 1.5749214325372104e-11  1.9999999997120420e+02 1.1669841652486630e-10 -8.5455083780811152e-12  1.9999999997190852e+02 -8.7353013767303569e-11 6.4610704297904318e-12  1.9999999997254207e+02 2.0950956324973467e-11 4.2300766792979790e-12  1.9999999997331329e+02 -9.4863791186434729e-11 -1.8931462550239258e-10  1.9999999997335851e+02 -5.0476404381761820e-11 -8.1174049833028425e-11  1.9999999997276373e+02 1.5411499313934352e-10 8.3382075153831793e-12  1.9999999997343150e+02 5.1731618961411717e-11 -5.6845962535008486e-12  1.9999999997335541e+02 -1.9236724829825581e-10 -8.1086292316822084e-11  1.9999999997252502e+02 2.9403193172206859e-11 1.9397093315469542e-11  1.9999999997334189e+02 -6.5403018947378020e-11 -2.5667687778387146e-10  1.9999999997338654e+02 -1.5551321382617847e-11 -4.3924919335646762e-11  1.9999999997274469e+02 4.5825461243561821e-11 -1.3037762909967197e-11  1.9999999997433451e+02 -5.3177308141765108e-12 3.5612037709059493e-11  1.9999999997343912e+02 4.5896187250411302e-11 3.4489073464416157e-11  1.9999999997406888e+02 -5.3078506643005575e-12 -1.3812164275944945e-10  1.9999999997491864e+02 -5.3548269377677628e-11 -1.0039394782187889e-10  1.9999999997413576e+02 5.4776617483102406e-11 -7.3705973022571825e-11  1.9999999997433540e+02 4.9002382271070955e-11 9.0840155449987286e-11  1.9999999997414389e+02 3.4551572325025224e-11 1.1548080410455894e-11  1.9999999997495155e+02 -3.1605984599551634e-10 -3.2943563681295989e-11  1.9999999997431729e+02 4.4149148484227035e-10 7.5480420680270897e-11  1.9999999997421142e+02 -6.9570153205491222e-11 1.7786695253998637e-11  1.9999999997489579e+02 -2.6586127925900827e-11 -1.7275634205441385e-10  1.9999999997497309e+02 2.2439481214810019e-11 -1.0562820669848227e-10  1.9999999997484926e+02 -2.9745319827258202e-12 -2.2554007891801136e-10  1.9999999997591490e+02 2.5582842055342816e-11 9.6395393667301342e-11  1.9999999997499330e+02 1.6499810276426065e-11 -1.0126611418433283e-10  1.9999999997335127e+02 -7.7340869057287174e-11 -1.1515964551879490e-10  1.9999999997254096e+02 -3.6881852720152530e-11 -1.1450017988641052e-10  1.9999999997258939e+02 1.4000210574444186e-11 -6.2525659721363298e-11  1.9999999997278002e+02 3.7806028925088991e-11 1.0134314702420536e-10  1.9999999997337807e+02 -3.4401833707858317e-10 -5.9148740753733637e-11  1.9999999997262896e+02 8.0121076146791476e-11 -4.8178322626602015e-11  1.9999999997275344e+02 4.7304936234527012e-10 7.2005267584448488e-11  1.9999999997267807e+02 -4.1148014429721981e-11 -2.1402508821297480e-11  1.9999999997333438e+02 -3.4579215533306345e-11 -1.4954639848689636e-10  1.9999999997336351e+02 3.6972723455083655e-11 -8.3836422927049870e-11  1.9999999997325645e+02 -1.7018996924240989e-11 -1.9552097862299643e-10  1.9999999997337650e+02 3.2060329256494503e-11 -8.0767283547565246e-11  1.9999999997177679e+02 -9.9835007677478455e-11 -9.3323249770999929e-11  1.9999999997084063e+02 -1.0009171758765835e-10 -9.5097096500652620e-11  1.9999999997114944e+02 -1.7883789001610340e-11 -2.7376019633085760e-11  1.9999999997123209e+02 4.5048239678233431e-11 1.1512840624919185e-10  1.9999999997179953e+02 -4.2898499651678824e-10 -1.2997361455990239e-11  1.9999999997104320e+02 6.7617362592528896e-11 -2.1533610416409136e-11  1.9999999997121498e+02 4.7567972844527681e-10 9.4375219244534429e-11  1.9999999997113090e+02 -4.7581656840856007e-11 5.3755018100894861e-11  1.9999999997176997e+02 4.6958921886678721e-12 -1.6388626765661174e-10  1.9999999997185856e+02 3.2275682346386863e-11 -8.1116431198848055e-11  1.9999999997167851e+02 2.1374432676805025e-11 -2.0415206320287131e-10  1.9999999997186555e+02 8.7943467728623994e-12 -6.3050808526086824e-11  1.9999999997025722e+02 -1.5805621222291655e-10 -8.9358111173654230e-11  1.9999999996935873e+02 -9.7335328592248524e-11 -9.4455488466089181e-11  1.9999999996957575e+02 2.7405912872208820e-11 -3.6410869656485926e-11  1.9999999996969896e+02 1.0646251537713406e-10 9.2006113897224857e-11  1.9999999997028101e+02 -3.8563337714097372e-10 3.1849645317481075e-12  1.9999999996951107e+02 1.2284848028009118e-10 -1.0864946416103506e-11  1.9999999996967097e+02 4.8040928540111530e-10 1.0353407947222357e-10  1.9999999996964314e+02 -8.8953300652062708e-11 2.2432047926363464e-11  1.9999999997017841e+02 -1.8924398618465754e-11 -6.8729526936935966e-11  1.9999999997029929e+02 1.7677483595696317e-11 -5.6849677346846690e-11  1.9999999997022695e+02 -1.5400465387973706e-10 -8.2893064326539107e-11  1.9999999997029400e+02 4.7754200303406719e-11 -8.8532870958939090e-11  1.9999999996882414e+02 -1.7407121666837582e-10 -5.5880484100663137e-11  1.9999999996866475e+02 -4.1496428283090552e-10 -7.0209937136528129e-11  1.9999999996876318e+02 -9.2874523775641682e-11 -4.8238971095276208e-11  1.9999999996884574e+02 2.4317060199673496e-12 -8.3514797295982983e-11  1.9999999996814836e+02 5.4503784395761432e-10 3.4462349254113996e-11  1.9999999996798206e+02 -9.6238187522478361e-11 -2.8690747510066020e-12  1.9999999996816530e+02 7.3642177610864921e-11 3.6774263176022268e-11  1.9999999996881073e+02 7.6860728973047115e-11 -1.3011713176593331e-10  1.9999999996875232e+02 -2.4050082020148225e-10 -1.5065030676109481e-12  1.9999999997406528e+02 -1.0207380040272884e-10 -1.5521865081528869e-10  1.9999999997493612e+02 -7.7922574803155255e-11 -1.1378290692566729e-10  1.9999999997420360e+02 6.1884934682107610e-13 -5.1341735334950879e-11  1.9999999997431033e+02 9.1809287351627214e-11 4.9403256767043636e-11  1.9999999997422779e+02 -3.0393422063491581e-11 -2.8232205896331424e-11  1.9999999997490247e+02 -8.1877985412250247e-11 -2.3160425573767064e-10  1.9999999997334263e+02 -7.2889699435172089e-11 -8.7631640559422987e-11  1.9999999997251257e+02 -8.2477914635468122e-11 -1.7675334792730484e-10  1.9999999997266337e+02 -1.5373056129627258e-11 -6.6803135514595856e-11  1.9999999997274381e+02 9.2715589405642985e-11 6.4748659649504560e-11  1.9999999997264860e+02 -5.4038120337431776e-11 -2.4579336831835441e-11  1.9999999997331904e+02 -8.7169893471760210e-11 -1.7926795024656001e-10  1.9999999997334115e+02 -1.5024757099985385e-10 -1.2482074412647794e-10  1.9999999997340237e+02 -1.8419510733379043e-11 -2.7966246925884032e-11  1.9999999997180788e+02 -7.4542956267220395e-11 -1.0892064811930468e-10  1.9999999997095739e+02 -9.4018884142424104e-11 -1.0039610727203284e-10  1.9999999997110569e+02 -2.8487398120070946e-12 -5.1021794251024110e-11  1.9999999997121481e+02 7.3990638165300608e-11 5.3145961447792312e-11  1.9999999997111863e+02 -5.9559249923307033e-12 -3.9675769959139901e-11  1.9999999997180402e+02 -1.0400707463904461e-10 -1.8653300288344124e-10  1.9999999997178506e+02 -1.8379033042104947e-10 -1.5332500503298647e-10  1.9999999997187672e+02 5.5093278653760625e-12 -3.1207623503219661e-11  1.9999999997026441e+02 -8.7564622791484511e-11 -9.4958152838432861e-11  1.9999999997019935e+02 -2.1579785368889394e-10 -8.9709896202376598e-11  1.9999999996947574e+02 -1.1241959099883899e-10 -8.9630950109121677e-11  1.9999999996951539e+02 -5.1034024157088313e-11 1.8870629735163286e-11  1.9999999996970914e+02 1.1982421505348699e-10 -4.0820097898329518e-11  1.9999999996959286e+02 -8.2228999844874737e-12 -7.4238702422145196e-12  1.9999999996969709e+02 9.2569637341514234e-11 7.6104506802160988e-11  1.9999999996962737e+02 -1.1510446867293957e-11 -5.1951149704024576e-11  1.9999999997022545e+02 -8.6533517131528728e-11 -1.5511702051943992e-10  1.9999999997021894e+02 -1.5281563091482693e-10 -7.3144573049602857e-11  1.9999999997029900e+02 -3.0484477625701297e-11 1.4022252035606568e-11  1.9999999997037006e+02 -1.4522162551860647e-11 -4.3127783674905267e-11  1.9999999996877648e+02 -6.5943811503889908e-11 -8.6610054775745001e-11  1.9999999996866285e+02 -2.1486951292247245e-10 -7.6832001561392043e-11  1.9999999996879305e+02 8.4616709752722539e-12 1.1792954362206399e-10  1.9999999996817670e+02 3.4985477004541357e-11 -2.0425205424958106e-11  1.9999999996797686e+02 -1.0433345073794208e-10 -6.6192290293016846e-12  1.9999999996798809e+02 -2.8911810697654531e-11 2.0706122716527162e-11  1.9999999996816169e+02 9.7796004171732306e-11 -4.4857588821215927e-11  1.9999999996803675e+02 -3.1040160613550775e-11 -3.2188533792226857e-13  1.9999999996813838e+02 7.2532315646529193e-11 5.6479697351777711e-11  1.9999999996803626e+02 4.5704568877227167e-11 -2.5796839153708745e-11  1.9999999996793341e+02 -1.7477554526939264e-11 1.8101316260655983e-11  1.9999999996873450e+02 -1.0232758814251659e-10 -1.6612543389802082e-10  1.9999999996874217e+02 -1.9089358227167089e-10 -5.3686463