<?xml version="1.0"?>
<VTKFile type="UnstructuredGrid"  version="0.1"  >
<UnstructuredGrid>
<Piece  NumberOfPoints="3819" NumberOfCells="18971">
<Points>
<DataArray  type="Float64"  NumberOfComponents="3"  format="ascii">25 27.5 32.5  25 28.75 33.75  25 28.75 32.5  23.75 28.75 33.75  25 30 32.5  25 30 33.75  25 30 35  25 27.5 33.75  25 27.5 35  25 28.75 35  26.25 28.75 33.75  26.25 30 33.75  26.25 30 35  27.5 30 35  26.25 31.25 33.75  26.25 31.25 35  27.5 31.25 35  27.5 32.5 35  25 31.25 35  25 32.5 35  26.25 32.5 35  26.25 32.5 33.75  26.25 33.75 35  26.25 33.75 33.75  27.5 33.75 35  27.5 35 35  26.25 35 35  26.25 35 33.75  27.5 36.25 35  26.25 36.25 35  26.25 36.25 33.75  27.5 37.5 35  26.25 31.25 36.25  27.5 31.25 36.25  27.5 32.5 36.25  27.5 32.5 37.5  26.25 32.5 36.25  26.25 33.75 36.25  27.5 33.75 36.25  27.5 35 36.25  27.5 35 37.5  27.5 33.75 37.5  26.25 33.75 37.5  26.25 35 36.25  27.5 36.25 36.25  26.25 36.25 36.25  27.5 37.5 36.25  27.5 37.5 37.5  27.5 36.25 37.5  27.5 33.75 38.75  26.25 33.75 38.75  27.5 35 38.75  27.5 35 40  26.25 35 38.75  27.5 36.25 38.75  26.25 36.25 38.75  32.5 25 25  32.5 25 26.25  32.5 23.75 26.25  31.25 23.75 26.25  32.5 25 27.5  32.5 23.75 27.5  31.25 23.75 27.5  30 25 25  31.25 25 26.25  31.25 25 25  30 25 27.5  31.25 25 27.5  30 25 26.25  35 22.5 27.5  35 23.75 27.5  33.75 23.75 27.5  33.75 23.75 26.25  35 25 27.5  33.75 25 27.5  33.75 25 26.25  27.5 25 25  27.5 26.25 26.25  27.5 26.25 25  26.25 26.25 26.25  26.25 26.25 25  27.5 27.5 25  27.5 27.5 26.25  27.5 27.5 27.5  27.5 25 26.25  27.5 25 27.5  27.5 26.25 27.5  25 25 27.5  26.25 26.25 27.5  26.25 25 27.5  25 27.5 27.5  26.25 27.5 27.5  28.75 26.25 26.25  28.75 26.25 25  28.75 25 25  30 26.25 26.25  30 26.25 25  30 27.5 25  30 27.5 26.25  30 27.5 27.5  28.75 25 26.25  30 26.25 27.5  28.75 26.25 27.5  28.75 25 27.5  28.75 27.5 26.25  28.75 27.5 25  28.75 27.5 27.5  31.25 26.25 26.25  32.5 26.25 26.25  32.5 26.25 27.5  32.5 27.5 27.5  31.25 26.25 27.5  31.25 27.5 27.5  31.25 27.5 26.25  33.75 26.25 26.25  33.75 25 25  35 25 25  35 26.25 26.25  35 25 26.25  35 26.25 27.5  35 27.5 27.5  33.75 26.25 27.5  33.75 27.5 27.5  36.25 26.25 26.25  36.25 25 26.25  36.25 25 25  37.5 25 25  37.5 26.25 26.25  37.5 25 26.25  37.5 25 27.5  37.5 26.25 27.5  37.5 27.5 27.5  36.25 26.25 27.5  36.25 25 27.5  36.25 27.5 27.5  38.75 26.25 26.25  38.75 25 26.25  38.75 25 25  40 25 25  40 26.25 26.25  40 25 26.25  40 25 27.5  40 26.25 27.5  40 27.5 27.5  38.75 26.25 27.5  38.75 25 27.5  38.75 27.5 27.5  41.25 26.25 26.25  41.25 25 26.25  41.25 25 25  42.5 25 25  42.5 26.25 26.25  42.5 25 26.25  42.5 25 27.5  42.5 26.25 27.5  42.5 27.5 27.5  41.25 26.25 27.5  41.25 25 27.5  41.25 27.5 27.5  43.75 26.25 26.25  43.75 26.25 27.5  43.75 27.5 27.5  45 27.5 27.5  28.75 28.75 26.25  30 28.75 26.25  30 28.75 27.5  30 30 27.5  28.75 28.75 27.5  27.5 28.75 26.25  27.5 28.75 27.5  27.5 30 27.5  28.75 30 27.5  31.25 28.75 26.25  31.25 28.75 27.5  32.5 28.75 27.5  32.5 30 27.5  31.25 30 27.5  27.5 25 28.75  27.5 23.75 28.75  26.25 23.75 28.75  27.5 25 30  26.25 25 28.75  25 25 30  26.25 25 30  26.25 23.75 30  30 25 28.75  30 23.75 28.75  28.75 23.75 28.75  30 25 30  30 23.75 30  28.75 23.75 30  28.75 25 28.75  28.75 25 30  32.5 25 28.75  32.5 23.75 28.75  31.25 23.75 28.75  32.5 25 30  32.5 22.5 30  32.5 23.75 30  31.25 23.75 30  31.25 25 28.75  31.25 25 30  35 23.75 28.75  33.75 23.75 28.75  35 25 28.75  35 25 30  35 22.5 28.75  35 22.5 30  35 23.75 30  33.75 23.75 30  33.75 22.5 30  33.75 25 28.75  33.75 25 30  36.25 23.75 28.75  36.25 23.75 27.5  36.25 22.5 27.5  37.5 22.5 27.5  37.5 23.75 28.75  37.5 23.75 27.5  37.5 25 28.75  37.5 25 30  36.25 22.5 28.75  37.5 22.5 28.75  37.5 22.5 30  37.5 23.75 30  36.25 23.75 30  36.25 22.5 30  36.25 25 28.75  36.25 25 30  38.75 23.75 28.75  38.75 22.5 28.75  38.75 23.75 30  38.75 22.5 30  40 22.5 30  40 23.75 30  40 25 30  38.75 23.75 27.5  38.75 25 28.75  40 25 28.75  38.75 25 30  26.25 26.25 28.75  27.5 26.25 28.75  27.5 27.5 28.75  27.5 27.5 30  27.5 26.25 30  26.25 26.25 30  26.25 27.5 28.75  25 27.5 30  26.25 27.5 30  28.75 26.25 28.75  30 26.25 28.75  30 27.5 28.75  30 27.5 30  30 26.25 30  28.75 26.25 30  28.75 27.5 28.75  28.75 27.5 30  31.25 26.25 28.75  32.5 26.25 28.75  32.5 27.5 28.75  32.5 27.5 30  32.5 26.25 30  31.25 26.25 30  31.25 27.5 28.75  31.25 27.5 30  33.75 26.25 28.75  35 26.25 28.75  35 27.5 28.75  35 27.5 30  35 26.25 30  33.75 26.25 30  33.75 27.5 28.75  33.75 27.5 30  36.25 26.25 28.75  37.5 26.25 28.75  37.5 27.5 28.75  37.5 27.5 30  37.5 26.25 30  36.25 26.25 30  36.25 27.5 28.75  36.25 27.5 30  38.75 26.25 28.75  40 26.25 28.75  40 27.5 28.75  40 27.5 30  40 26.25 30  38.75 26.25 30  38.75 27.5 28.75  38.75 27.5 30  41.25 26.25 28.75  42.5 26.25 28.75  42.5 27.5 28.75  42.5 27.5 30  41.25 25 28.75  42.5 25 28.75  42.5 25 30  42.5 26.25 30  41.25 26.25 30  41.25 25 30  41.25 27.5 28.75  41.25 27.5 30  43.75 26.25 28.75  43.75 25 28.75  43.75 26.25 30  43.75 25 30  45 25 30  45 26.25 30  45 27.5 30  43.75 27.5 28.75  45 27.5 28.75  43.75 27.5 30  26.25 28.75 28.75  26.25 28.75 27.5  27.5 28.75 28.75  27.5 30 28.75  27.5 30 30  27.5 28.75 30  26.25 28.75 30  25 30 30  26.25 30 30  28.75 28.75 28.75  30 28.75 28.75  30 30 28.75  30 30 30  30 28.75 30  28.75 28.75 30  28.75 30 28.75  28.75 30 30  31.25 28.75 28.75  32.5 28.75 28.75  32.5 30 28.75  32.5 30 30  32.5 28.75 30  31.25 28.75 30  31.25 30 28.75  31.25 30 30  33.75 28.75 28.75  33.75 28.75 27.5  35 28.75 28.75  35 28.75 27.5  35 30 27.5  35 30 28.75  35 30 30  35 28.75 30  33.75 28.75 30  33.75 30 28.75  33.75 30 27.5  33.75 30 30  36.25 28.75 28.75  36.25 28.75 27.5  37.5 28.75 28.75  37.5 28.75 27.5  37.5 30 27.5  37.5 30 28.75  37.5 30 30  37.5 28.75 30  36.25 28.75 30  36.25 30 28.75  36.25 30 27.5  36.25 30 30  38.75 28.75 28.75  38.75 28.75 27.5  40 28.75 28.75  40 28.75 27.5  40 30 27.5  40 30 28.75  40 30 30  40 28.75 30  38.75 28.75 30  38.75 30 28.75  38.75 30 27.5  38.75 30 30  41.25 28.75 28.75  41.25 28.75 27.5  42.5 28.75 28.75  42.5 28.75 27.5  42.5 30 27.5  42.5 30 28.75  42.5 30 30  42.5 28.75 30  41.25 28.75 30  41.25 30 28.75  41.25 30 27.5  41.25 30 30  43.75 28.75 28.75  43.75 28.75 27.5  45 28.75 28.75  45 28.75 27.5  45 30 27.5  45 30 28.75  45 30 30  45 28.75 30  43.75 28.75 30  43.75 30 28.75  43.75 30 27.5  43.75 30 30  46.25 28.75 28.75  46.25 27.5 28.75  46.25 27.5 27.5  47.5 27.5 27.5  47.5 28.75 28.75  47.5 27.5 28.75  47.5 27.5 30  47.5 28.75 30  47.5 30 30  46.25 28.75 30  46.25 27.5 30  46.25 30 30  46.25 30 28.75  48.75 28.75 28.75  48.75 27.5 28.75  48.75 27.5 27.5  50 27.5 27.5  50 28.75 28.75  50 27.5 28.75  50 27.5 30  50 28.75 30  50 30 30  48.75 28.75 30  48.75 27.5 30  48.75 30 30  28.75 31.25 28.75  30 31.25 28.75  30 31.25 30  30 32.5 30  28.75 31.25 30  27.5 31.25 28.75  27.5 31.25 30  27.5 32.5 30  28.75 32.5 30  31.25 31.25 28.75  31.25 31.25 27.5  32.5 31.25 28.75  32.5 31.25 27.5  32.5 32.5 27.5  32.5 32.5 28.75  32.5 32.5 30  32.5 31.25 30  31.25 31.25 30  31.25 32.5 30  33.75 31.25 28.75  33.75 31.25 27.5  35 31.25 28.75  35 31.25 27.5  35 32.5 27.5  35 32.5 28.75  35 32.5 30  35 31.25 30  33.75 31.25 30  33.75 32.5 28.75  33.75 32.5 27.5  33.75 32.5 30  36.25 31.25 28.75  36.25 31.25 27.5  37.5 31.25 28.75  37.5 31.25 27.5  37.5 32.5 27.5  37.5 32.5 28.75  37.5 32.5 30  37.5 31.25 30  36.25 31.25 30  36.25 32.5 28.75  36.25 32.5 27.5  36.25 32.5 30  38.75 31.25 28.75  40 31.25 28.75  40 31.25 30  40 32.5 30  38.75 31.25 30  38.75 32.5 30  38.75 32.5 28.75  41.25 31.25 28.75  42.5 31.25 28.75  42.5 31.25 30  42.5 32.5 30  41.25 31.25 30  41.25 32.5 30  43.75 31.25 28.75  45 31.25 28.75  45 31.25 30  45 32.5 30  43.75 31.25 30  43.75 32.5 30  46.25 31.25 28.75  46.25 31.25 30  47.5 31.25 30  47.5 32.5 30  46.25 32.5 30  33.75 33.75 28.75  35 33.75 28.75  35 33.75 30  35 35 30  33.75 33.75 30  36.25 33.75 28.75  37.5 33.75 28.75  37.5 33.75 30  37.5 35 30  36.25 33.75 30  36.25 35 30  38.75 33.75 28.75  38.75 33.75 30  40 33.75 30  40 35 30  38.75 35 30  27.5 25 31.25  27.5 23.75 31.25  26.25 23.75 31.25  27.5 25 32.5  26.25 25 31.25  30 25 31.25  30 23.75 31.25  28.75 23.75 31.25  30 25 32.5  28.75 25 31.25  28.75 25 32.5  32.5 23.75 31.25  31.25 23.75 31.25  32.5 25 31.25  32.5 25 32.5  32.5 22.5 31.25  32.5 22.5 32.5  32.5 23.75 32.5  31.25 25 31.25  31.25 25 32.5  33.75 23.75 31.25  35 23.75 31.25  35 25 31.25  35 25 32.5  33.75 25 31.25  33.75 25 32.5  36.25 23.75 31.25  37.5 23.75 31.25  37.5 25 31.25  37.5 25 32.5  36.25 25 31.25  36.25 25 32.5  38.75 23.75 31.25  40 23.75 31.25  40 25 31.25  40 25 32.5  38.75 25 31.25  38.75 25 32.5  41.25 23.75 31.25  41.25 23.75 30  41.25 25 31.25  42.5 25 31.25  42.5 25 32.5  41.25 25 32.5  26.25 26.25 31.25  27.5 26.25 31.25  27.5 27.5 31.25  27.5 27.5 32.5  27.5 26.25 32.5  26.25 26.25 32.5  26.25 27.5 31.25  26.25 27.5 32.5  28.75 26.25 31.25  30 26.25 31.25  30 27.5 31.25  30 27.5 32.5  30 26.25 32.5  28.75 26.25 32.5  28.75 27.5 31.25  28.75 27.5 32.5  31.25 26.25 31.25  32.5 26.25 31.25  32.5 27.5 31.25  32.5 27.5 32.5  32.5 26.25 32.5  31.25 26.25 32.5  31.25 27.5 31.25  31.25 27.5 32.5  33.75 26.25 31.25  35 26.25 31.25  35 27.5 31.25  35 27.5 32.5  35 26.25 32.5  33.75 26.25 32.5  33.75 27.5 31.25  33.75 27.5 32.5  36.25 26.25 31.25  37.5 26.25 31.25  37.5 27.5 31.25  37.5 27.5 32.5  37.5 26.25 32.5  36.25 26.25 32.5  36.25 27.5 31.25  36.25 27.5 32.5  38.75 26.25 31.25  40 26.25 31.25  40 27.5 31.25  40 27.5 32.5  40 26.25 32.5  38.75 26.25 32.5  38.75 27.5 31.25  38.75 27.5 32.5  41.25 26.25 31.25  42.5 26.25 31.25  42.5 27.5 31.25  42.5 27.5 32.5  42.5 26.25 32.5  41.25 26.25 32.5  41.25 27.5 31.25  41.25 27.5 32.5  43.75 26.25 31.25  45 26.25 31.25  45 27.5 31.25  45 27.5 32.5  43.75 25 31.25  45 25 31.25  45 25 32.5  45 26.25 32.5  43.75 26.25 32.5  43.75 25 32.5  43.75 27.5 31.25  43.75 27.5 32.5  46.25 26.25 31.25  46.25 25 31.25  46.25 26.25 32.5  46.25 25 32.5  47.5 25 32.5  47.5 26.25 32.5  47.5 27.5 32.5  46.25 27.5 32.
[...]
<PointData  Vectors="u"> 
<DataArray  type="Float64"  Name="u"  NumberOfComponents="3" format="ascii">1.9999999998246341e+02 -4.2655994569835004e-11 9.4662107943958735e-11  1.9999999998217501e+02 6.5654266432067461e-11 -1.5977965634498025e-10  1.9999999998226761e+02 1.0173561206361903e-10 9.9054586133919492e-12  1.9999999998312470e+02 9.2012058034098834e-12 -9.5753403171833614e-11  1.9999999998247370e+02 -4.9082641780899837e-11 9.9920531056070701e-11  1.9999999998224476e+02 -2.3788144167770589e-11 -8.4565158864910319e-11  1.9999999998249598e+02 -4.3101180784174986e-12 9.3876526356664423e-11  1.9999999998224587e+02 1.2733806328949279e-10 -2.5529507920162381e-12  1.9999999998241293e+02 -6.8249325333074369e-11 4.2554160013940819e-11  1.9999999998233423e+02 -6.5688220351383980e-12 -3.8462250764255163e-11  1.9999999998143960e+02 2.8490255940080092e-11 -5.8108199589528218e-11  1.9999999998132944e+02 2.2933141107796097e-12 -5.7661236310723179e-11  1.9999999998146603e+02 -7.8415829939522450e-12 -9.2279246035569627e-11  1.9999999998078343e+02 3.2057534145119534e-11 5.1620196843067019e-11  1.9999999998145242e+02 -7.7886430093780008e-11 -4.9398213546516054e-11  1.9999999998140078e+02 -6.6446872999348141e-11 -2.2493456533629525e-10  1.9999999998060807e+02 -1.1390342634287621e-11 5.8826013596438889e-11  1.9999999998079815e+02 8.5962806102395083e-11 3.9722584055941138e-11  1.9999999998236413e+02 -6.3613674052644388e-12 -2.8226445757141907e-11  1.9999999998245096e+02 8.8133127709123598e-11 7.7978433508367076e-11  1.9999999998147518e+02 -4.5624618261822263e-12 -3.2044837976136933e-11  1.9999999998142889e+02 -2.6112850364347908e-10 -6.0593443191303480e-11  1.9999999998143693e+02 -1.4711201975289729e-10 -2.6102229737780711e-10  1.9999999998148007e+02 -8.5813209822758851e-11 -6.4876639816854831e-11  1.9999999998057663e+02 -4.9463157901433808e-11 4.8837068124480688e-11  1.9999999998080719e+02 1.0695580519844679e-10 6.5797627612888012e-11  1.9999999998152717e+02 -1.3212652336629375e-11 -4.7406520470797111e-11  1.9999999998143679e+02 -2.4977114077845333e-10 -7.4301363192367853e-11  1.9999999998063689e+02 -3.0942495367828643e-11 1.0600649227389273e-10  1.9999999998140612e+02 -9.6114869277643086e-11 -1.5594053207719376e-10  1.9999999998141411e+02 -8.0750783844043838e-11 -8.8960695337145418e-11  1.9999999998077172e+02 7.4871584661499482e-11 6.0173953958630945e-11  1.9999999998145367e+02 -7.3956266099757244e-11 -9.0054365284648689e-11  1.9999999998055458e+02 -8.5603643199537454e-11 -1.1863571186841128e-10  1.9999999998063305e+02 1.0570969838894310e-11 1.1091977301301132e-11  1.9999999998083084e+02 9.6850093266768580e-11 1.0261765531583282e-10  1.9999999998144608e+02 -2.1712094071993181e-10 -1.2362632078603118e-10  1.9999999998143630e+02 -9.8116160240999523e-11 -9.1530528963145286e-11  1.9999999998062395e+02 -1.0845689271246977e-10 -1.0457528896286206e-10  1.9999999998065149e+02 2.1398083686249044e-11 -2.8989513542681487e-11  1.9999999998081478e+02 6.8242882151278162e-11 9.0699379857744643e-11  1.9999999998064155e+02 -5.3585804804771282e-11 1.5324961488158596e-11  1.9999999998147430e+02 -1.1189113240356618e-10 -1.2623999216414403e-10  1.9999999998146114e+02 -1.5293522272494831e-10 -1.1089941118060233e-10  1.9999999998057689e+02 -1.5178056381762692e-10 -1.3908801603024263e-10  1.9999999998144239e+02 -6.6648408973333807e-11 -1.0488329893796744e-10  1.9999999998061199e+02 2.5730027446957719e-11 -1.6657370498761692e-11  1.9999999998080369e+02 6.7435946793420646e-11 9.1782977181941230e-11  1.9999999998061614e+02 2.5901038068703095e-12 -7.5373700638809318e-12  1.9999999998059633e+02 -1.2380150460039697e-10 -1.0979531825077244e-10  1.9999999998146188e+02 -7.5734988437254732e-11 -9.4644088962554320e-11  1.9999999998061034e+02 -5.1611272580844353e-11 -1.6735643561559998e-12  1.9999999998080867e+02 8.4427833694365478e-11 7.2593226830741553e-11  1.9999999998145253e+02 -1.8051237504355593e-10 -1.0615145971577681e-10  1.9999999998053221e+02 -1.2582489958394495e-10 -9.1998744542398940e-11  1.9999999998145947e+02 -9.6320383485590438e-11 -9.6827025531819566e-11  1.9999999997752747e+02 5.9348123471510568e-11 -4.6506719512425664e-13  1.9999999997738587e+02 -2.5003440312818886e-11 -1.3698164602364764e-11  1.9999999997721372e+02 1.8970571721150973e-11 -8.5067682209588041e-11  1.9999999997816835e+02 -6.4102851921072722e-11 -1.0479652133584795e-10  1.9999999997753650e+02 5.0108742789820664e-11 1.1855518163652391e-10  1.9999999997746090e+02 -1.8146365753767886e-11 3.2970180113742702e-11  1.9999999997811466e+02 8.0826003007638696e-11 -9.2777339595878370e-11  1.9999999997916817e+02 1.0790763039661605e-10 2.5925657590104931e-11  1.9999999997812327e+02 -1.2772245811273881e-10 -1.0514036417230265e-10  1.9999999997818264e+02 -7.9901674997916443e-11 8.3860147712672420e-11  1.9999999997915123e+02 7.1075873390368248e-11 1.2178518251389588e-10  1.9999999997822044e+02 7.0803485908069925e-11 -6.1770962432654852e-11  1.9999999997906059e+02 1.1975708721099287e-11 -5.9894041696257489e-11  1.9999999997591652e+02 -5.4925438422185192e-11 6.0547109160658630e-11  1.9999999997563393e+02 2.8439867839061002e-11 -3.9332407843251234e-11  1.9999999997650829e+02 3.8997782672141015e-12 -9.3600308237280793e-11  1.9999999997658429e+02 -9.3837027518015065e-11 -1.8376860660612767e-11  1.9999999997592977e+02 5.1001530887182300e-11 4.5324577864868981e-11  1.9999999997656678e+02 3.0515587767261342e-11 -7.6540615454589682e-11  1.9999999997651440e+02 -2.7694399676661495e-10 -1.8972008008796997e-11  1.9999999998069245e+02 1.0588888758406331e-10 3.1210522851624186e-11  1.9999999998066744e+02 -2.1986409985277655e-10 -1.9728304499239310e-10  1.9999999998069475e+02 -7.4022647319576554e-11 3.3850896887272447e-12  1.9999999998149741e+02 -5.4616347143963876e-11 -9.0491162461334190e-11  1.9999999998144543e+02 -1.8508711666333735e-10 1.3848640128445847e-11  1.9999999998065920e+02 1.1543790775841324e-10 5.2912492511985557e-12  1.9999999998061116e+02 -5.8466700512994010e-11 -2.1506562695309558e-11  1.9999999998067665e+02 1.3202686828979219e-10 8.3838704447064502e-11  1.9999999998068589e+02 -1.0678876805754970e-10 -7.3714677976508480e-11  1.9999999998069919e+02 1.0375174864548687e-10 1.2449480720210588e-10  1.9999999998072144e+02 -7.2081268042383875e-11 -8.3581453793575149e-11  1.9999999998245059e+02 9.0789518473116986e-11 1.2729171046472669e-10  1.9999999998143420e+02 -9.5150554417603514e-11 -9.2818614257038850e-11  1.9999999998147285e+02 -9.4144755206395892e-11 -3.9808718676534388e-11  1.9999999998244169e+02 9.7475931689979970e-11 4.6290498888107492e-11  1.9999999998147396e+02 -1.0698072871427508e-10 2.4394154086452888e-11  1.9999999997978716e+02 -6.7932834003788487e-11 -9.4327280027943382e-11  1.9999999997969371e+02 -1.8630379053399440e-10 -5.4602618455849959e-11  1.9999999997981078e+02 -1.2475099004433158e-10 -1.1862148670624668e-12  1.9999999997890990e+02 -1.1841260546634259e-10 -8.9649744299314041e-11  1.9999999997894616e+02 -2.1822893330514245e-11 8.7439414304227628e-11  1.9999999997912542e+02 6.7361759074541667e-11 1.0644044095908566e-11  1.9999999997905650e+02 -2.4498570021937144e-11 -4.6531468825740070e-12  1.9999999997914546e+02 7.6352378732456144e-11 7.4887319088995958e-11  1.9999999997975235e+02 -1.3824140058896432e-10 -9.3887078025813959e-11  1.9999999997905425e+02 1.6913881200230558e-11 -3.5765911953018385e-11  1.9999999997976187e+02 -1.2965472662028538e-10 -1.3357136316776133e-10  1.9999999997982013e+02 -2.2279799277962358e-11 -3.7580346463944041e-11  1.9999999997978733e+02 -2.1941024246455522e-10 -9.9956310104713180e-11  1.9999999997986842e+02 -1.0086102224788907e-10 6.1581564131218446e-11  1.9999999997982906e+02 -3.3044126436198923e-11 1.3712609085659235e-11  1.9999999997812316e+02 -9.7283131981999746e-11 -5.9954616308788060e-11  1.9999999997720388e+02 -8.5498473388795147e-11 1.1039782938434190e-11  1.9999999997740596e+02 -1.2478758076150931e-11 -3.2792744567949632e-11  1.9999999997750828e+02 9.4908713220287308e-11 3.7877804112002596e-11  1.9999999997810784e+02 -1.0878170345137431e-10 -1.4583274960783742e-10  1.9999999997819106e+02 2.3531647070121221e-11 -3.6848160541171482e-11  1.9999999997814069e+02 -2.2663260906996862e-10 -6.5583147753218323e-12  1.9999999997654913e+02 -3.6899670650860409e-11 -6.6622264499006928e-11  1.9999999997659160e+02 2.1932375262925836e-11 1.5985916497718156e-10  1.9999999997588066e+02 4.6128527070023950e-11 1.6593106140810549e-11  1.9999999997567497e+02 -9.8799854124408032e-11 3.0846470217686556e-11  1.9999999997579383e+02 4.6325272480458502e-11 1.9556479926009979e-11  1.9999999997572559e+02 -3.7778683432469566e-11 3.8241506979644803e-11  1.9999999997591800e+02 1.1313116192918517e-10 2.7033296557204127e-11  1.9999999997649218e+02 -1.2462007360762340e-10 -2.1156874663150164e-10  1.9999999997660990e+02 -9.0788336380624561e-11 1.8159597043708830e-11  1.9999999997494746e+02 -6.6619702762918574e-11 3.9153732250853007e-11  1.9999999997484434e+02 4.4121307161742273e-12 4.1715919985324810e-11  1.9999999997495834e+02 5.7272228942628285e-11 1.9497416090272348e-11  1.9999999997431669e+02 2.9814815968442206e-11 4.9820089804371749e-11  1.9999999997396128e+02 -9.3459004269208890e-11 -5.6652318246614988e-11  1.9999999997409623e+02 4.5283972155640278e-11 1.6247765172459204e-11  1.9999999997435211e+02 1.1917441920365598e-11 2.4184832329307709e-11  1.9999999997424595e+02 -2.6653289298299868e-11 -4.9198581089809413e-11  1.9999999997436180e+02 1.1830206270148063e-10 -2.2146074508342328e-12  1.9999999997479367e+02 -2.1216958385970269e-10 -3.6789203399577713e-11  1.9999999997495971e+02 -1.0846208416743411e-10 6.8546394623882841e-11  1.9999999997495576e+02 -8.9336317852421368e-11 -6.3830289683454567e-12  1.9999999997335388e+02 -6.9989393524860691e-11 -3.1406215268064231e-11  1.9999999997323636e+02 -5.0949834184870534e-11 -1.9857509966188599e-10  1.9999999997342061e+02 5.1457193475914355e-12 1.4158747692439117e-11  1.9999999997277286e+02 5.6387534763179997e-11 5.7047967341132221e-11  1.9999999997246974e+02 -8.5500240266676721e-11 -6.4926400801452754e-11  1.9999999997261469e+02 5.4265033399739005e-11 -8.4536463706531389e-11  1.9999999997279070e+02 -1.8174577984652652e-11 8.0483507443728223e-11  1.9999999997262029e+02 1.4245587077080150e-11 -3.7500687728420032e-11  1.9999999997274466e+02 1.1732622663730862e-10 3.7148167030051724e-12  1.9999999997332924e+02 -7.9449661001400144e-11 -1.8930343306507540e-10  1.9999999997335868e+02 8.4792877858024651e-11 -1.1396142015575337e-10  1.9999999997339859e+02 -6.9310102836729015e-11 2.2125455143225223e-11  1.9999999997179992e+02 -5.3357907115863638e-11 -6.2752455236159010e-11  1.9999999997166105e+02 -4.9912555430972047e-11 -1.9122319799115954e-10  1.9999999997184901e+02 4.5100442229044393e-11 -4.2376423807709463e-11  1.9999999997114779e+02 6.1341477250932255e-11 1.7010805275266141e-11  1.9999999997084842e+02 -7.3855223872062715e-11 -1.0822309987843836e-10  1.9999999997104999e+02 2.9567085417790340e-11 -1.1346657221731313e-11  1.9999999997113460e+02 -2.6278027839663902e-11 3.0327402943229380e-11  1.9999999997107466e+02 -1.4588629212841735e-11 -4.5405285773878206e-11  1.9999999997115572e+02 1.0945855129432106e-10 9.7161428891067417e-12  1.9999999997172861e+02 -1.1014553008707918e-10 -2.1472060496075885e-10  1.9999999997183855e+02 2.9694620990746067e-11 -6.4065836031798624e-11  1.9999999997185540e+02 -6.5286260616702865e-11 2.8886043930642066e-11  1.9999999997022786e+02 8.7516392143384659e-13 -6.5629433900786490e-11  1.9999999997021362e+02 1.3970220787788219e-11 -2.5480427600762268e-10  1.9999999997030261e+02 -8.6584213739258366e-11 9.2504898546757697e-12  1.9999999996964539e+02 6.7809055637752840e-11 6.2079100877968484e-12  1.9999999997981146e+02 -8.4172596198957427e-11 -3.5331601451816231e-11  1.9999999997882884e+02 -9.4116077387661785e-11 -1.0475654015898553e-11  1.9999999997905314e+02 -4.6120905848925023e-11 -3.8995559725281567e-11  1.9999999997911928e+02 8.2802804189836753e-11 3.1131445360130406e-11  1.9999999997986558e+02 -1.2598815827074527e-10 -1.8561102476306578e-10  1.9999999998082177e+02 -9.0210028214045580e-11 -1.7188160340975512e-11  1.9999999998080247e+02 -4.0261511590906382e-11 -1.3262751278424342e-10  1.9999999998063757e+02 1.0837658518023447e-10 6.1798566685477499e-11  1.9999999997983770e+02 -5.6473400500543362e-11 1.1307047790069045e-10  1.9999999997819043e+02 -8.0014930069856817e-11 6.3191427840450464e-12  1.9999999997813850e+02 -1.1899655471118411e-10 -2.2491454931544888e-10  1.9999999997731936e+02 1.0112200645546653e-11 3.1527694986750519e-11  1.9999999997750371e+02 8.9715560748136342e-11 -1.0481565804412792e-14  1.9999999997823124e+02 -1.4321187144381155e-10 1.3354599130082654e-11  1.9999999998068662e+02 -7.3374272562886389e-11 -1.6925449803225110e-11  1.9999999998066147e+02 -1.7674477017006777e-10 -1.8956694282394983e-10  1.9999999998144881e+02 -7.5181862990554426e-11 -5.6563450623729277e-11  1.9999999998068844e+02 1.0895217376225389e-10 1.0342535295642384e-10  1.9999999998142934e+02 -1.0472786838931460e-10 -9.4217016470007522e-11  1.9999999998244149e+02 7.1637208886342665e-11 6.6913570263586476e-11  1.9999999998150923e+02 -6.0718588452660616e-11 -4.9478322177865423e-11  1.9999999998140322e+02 -1.1840759476968388e-10 -5.2263276603567611e-11  1.9999999997896791e+02 5.8269586729996290e-11 -2.9956465013670349e-11  1.9999999997898081e+02 -3.1073009636058452e-11 -1.2058724761590368e-10  1.9999999997979288e+02 -9.8684790700278778e-11 -8.9262397504282962e-11  1.9999999997912846e+02 9.5450970657200213e-11 8.8176821278377482e-11  1.9999999997900701e+02 -2.3943242605091695e-11 1.3612435688271725e-11  1.9999999997979742e+02 -8.6971024529294554e-11 -1.4173231207490105e-10  1.9999999997976735e+02 -1.5221365655123694e-10 -7.8716551031237965e-11  1.9999999997985179e+02 -1.1294694658868961e-11 -1.2590900096290936e-11  1.9999999997732473e+02 2.6120227812766982e-11 -2.9081978928038162e-11  1.9999999997733121e+02 9.1340946048174593e-11 -9.6914983654150370e-11  1.9999999997814294e+02 2.5697098101454698e-11 -6.6800238391929961e-11  1.9999999997753770e+02 9.9264548121992632e-12 8.5510275089317367e-11  1.9999999997750069e+02 -4.4041211360460391e-11 1.0754781888172225e-10  1.9999999997741352e+02 -6.1631047069732224e-12 3.5579030249973610e-11  1.9999999997817301e+02 -2.9209787808812125e-11 -2.4498261849715474e-10  1.9999999997804528e+02 3.7422904809938085e-11 -2.0259171126815893e-10  1.9999999997821277e+02 -2.0281563173357450e-11 1.8082459737403232e-11  1.9999999997553107e+02 2.9538183906854901e-11 -1.0140720375535692e-10  1.9999999997649340e+02 2.1150488229061126e-11 -8.8995145769426447e-11  1.9999999997582125e+02 -2.7497620840760919e-11 -5.3756758482388540e-11  1.9999999997593295e+02 2.5089230950252808e-11 1.2235662467788244e-10  1.9999999997574295e+02 4.9767733259597061e-11 2.3119861751868289e-12  1.9999999997592283e+02 -8.6602832841691218e-11 1.1220702130484582e-10  1.9999999997580545e+02 -3.0605375921418402e-11 4.1874647208235404e-11  1.9999999997647171e+02 8.5098930433281520e-11 -1.5874133092062024e-10  1.9999999997657167e+02 8.2018221074357855e-11 -4.5195102893988009e-11  1.9999999997640481e+02 -2.2116725568847800e-11 -2.4033783611552677e-10  1.9999999997650880e+02 3.6712257505540103e-11 -2.2693790703209534e-11  1.9999999997494902e+02 -6.3580484856144752e-11 -7.0183046571701458e-11  1.9999999997483923e+02 -1.1155163980221966e-11 -6.8944274441238620e-11  1.9999999997501564e+02 1.0430374690533783e-10 2.2467964625004929e-11  1.9999999997425670e+02 -4.1595356005626293e-11 1.8831186455081166e-11  1.9999999997412158e+02 1.1940153166978712e-10 -9.7004984730342380e-11  1.9999999997418240e+02 1.6904406796063488e-11 1.6676382468845308e-11  1.9999999997416137e+02 3.6032377530067501e-11 -6.3666049691908560e-11  1.9999999997431087e+02 -8.0623320741018955e-12 1.0135037948758311e-10  1.9999999997487296e+02 5.1245861695489206e-11 -1.2342791317365565e-10  1.9999999997414304e+02 6.9445187318640386e-11 -4.4780161179597109e-13  1.9999999997429762e+02 -9.4880141149764950e-11 1.2673932187135610e-10  1.9999999997424962e+02 2.0365129561278043e-12 1.1780415111608164e-12  1.9999999997487421e+02 1.0854837965743951e-10 -1.1045704348582753e-10  1.9999999997498696e+02 5.1611665012427505e-11 -1.5240146111122543e-11  1.9999999997485799e+02 -2.2163004077945106e-10 -1.0153909647982493e-10  1.9999999997496099e+02 -3.1267169986036687e-13 -6.9579558104929461e-11  1.9999999997344139e+02 -7.1002973405185840e-12 -5.8169382739186880e-11  1.9999999997319981e+02 -3.7193528726304842e-11 3.2380647189810383e-11  1.9999999997330312e+02 -3.2891218600431441e-11 -1.8860686309448162e-10  1.9999999997340092e+02 4.9332835810663493e-12 -9.0959646779271427e-11  1.9999999997269873e+02 -1.4364841794504736e-12 9.7654654047131464e-11  1.9999999997250885e+02 -1.2442175772262348e-11 -3.4513744966477500e-11  1.9999999997277874e+02 -6.1516989668205436e-12 8.3722359937117344e-11  1.9999999997324485e+02 2.1240396948981593e-10 1.5888324616561728e-11  1.9999999997322249e+02 -1.7095495727250454e-12 -2.1114231092763067e-10  1.9999999997261526e+02 3.9008100725666738e-11 -8.0679018919496129e-11  1.9999999997337974e+02 1.3726367916716772e-13 -1.1366065291968916e-10  1.9999999998147726e+02 -7.3424410128957254e-11 -5.4293884665091774e-11  1.9999999998067463e+02 -2.1958652491702178e-10 -1.7962650181875846e-10  1.9999999998071132e+02 -1.2200928472005057e-10 -2.0123226536735125e-11  1.9999999998068708e+02 9.6386210643525216e-11 1.4090085317694610e-10  1.9999999998071684e+02 -3.0106762401638049e-11 -1.0313095547555956e-10  1.9999999998143619e+02 -1.0639422188311062e-10 -2.7735787976496601e-11  1.9999999998140547e+02 -1.1375389751524524e-10 -8.5380381141366602e-11  1.9999999998245241e+02 2.3676230711516407e-11 6.3965105331711366e-11  1.9999999998151560e+02 -5.0921527802888431e-11 -2.4941499805020879e-11  1.9999999997976667e+02 -7.9138454438461686e-11 -5.3971073872239054e-11  1.9999999997887545e+02 -1.0250178275486995e-10 -9.6078041522004674e-11  1.9999999997903711e+02 -2.3749214881211954e-11 5.0037456910554160e-12  1.9999999997909882e+02 7.4037061972568914e-11 9.6251109392356752e-11  1.9999999997902225e+02 -3.7607468372650067e-11 2.2210563999752685e-11  1.9999999997978799e+02 -9.2816244188808136e-11 -1.7578075528889088e-10  1.9999999997981197e+02 -2.1308365217941133e-10 -9.4801679664724348e-11  1.9999999997986521e+02 -3.2110645646672080e-11 2.1757888179188433e-11  1.9999999997814422e+02 -1.0499647570370334e-10 -8.4784177149873926e-11  1.9999999997724007e+02 -1.2907918956635542e-10 -1.1433792189267154e-10  1.9999999997737760e+02 -1.6873389224442247e-11 -2.8155370971140618e-11  1.9999999997750223e+02 7.7876325820622503e-11 7.2731232372677272e-11  1.9999999997739678e+02 -6.2224496921596291e-11 -2.1760632063648709e-11  1.9999999997809130e+02 -1.2625171936424122e-10 -1.8234207513621925e-10  1.9999999997810767e+02 -1.6902622865177203e-10 -1.2292350508294944e-10  1.9999999997815766e+02 -2.1975050548629593e-11 -3.0642445211733247e-11  1.9999999997653589e+02 -8.4863322610961594e-11 -7.3962610991783199e-11  1.9999999997560897e+02 -1.1608171036878445e-10 -1.1969031791265406e-10  1.9999999997578692e+02 -3.3398962040699875e-11 -5.9014722426977369e-11  1.9999999997588711e+02 8.7617034333112067e-11 8.2332164345018517e-11  1.9999999997577402e+02 -5.0932831254404132e-11 -1.6405344588152401e-11  1.9999999997650241e+02 -1.3225972918442755e-10 -1.7207932108956242e-10  1.9999999997651608e+02 -2.0125066625091341e-10 -1.1061808715377717e-10  1.9999999997662039e+02 -1.2769687408638076e-11 1.2276616565193405e-11  1.9999999997491707e+02 -7.0784395418875199e-11 -9.0416952195497903e-11  1.9999999997408312e+02 -1.0373051301174560e-10 -1.2418885759906663e-10  1.9999999997421435e+02 -2.0594450894802033e-11 2.0585467039848231e-12  1.9999999997432064e+02 8.8143770822670640e-11 6.1937307139436709e-11  1.9999999997422199e+02 -1.7895230137343541e-11 -1.7698849542836911e-11  1.9999999997488888e+02 -1.1626690420150275e-10 -1.7599797667475090e-10  1.9999999997489806e+0