<?xml version="1.0"?>
<VTKFile type="UnstructuredGrid"  version="0.1"  >
<UnstructuredGrid>
<Piece  NumberOfPoints="3924" NumberOfCells="19102">
<Points>
<DataArray  type="Float64"  NumberOfComponents="3"  format="ascii">0 0 25  1.25 1.25 26.25  1.25 1.25 25  1.25 0 25  2.5 0 25  2.5 1.25 26.25  2.5 1.25 25  2.5 2.5 25  2.5 2.5 26.25  2.5 2.5 27.5  1.25 0 26.25  2.5 0 26.25  2.5 0 27.5  0 0 26.25  0 0 27.5  0 1.25 25  0 2.5 25  1.25 2.5 26.25  1.25 2.5 25  0 1.25 26.25  0 2.5 26.25  0 2.5 27.5  3.75 1.25 26.25  3.75 1.25 25  3.75 0 25  5 0 25  5 1.25 26.25  5 1.25 25  5 2.5 25  5 2.5 26.25  5 2.5 27.5  3.75 0 26.25  5 0 26.25  5 0 27.5  3.75 0 27.5  3.75 2.5 26.25  3.75 2.5 25  3.75 2.5 27.5  6.25 1.25 26.25  6.25 0 26.25  6.25 1.25 25  6.25 2.5 26.25  6.25 2.5 25  7.5 2.5 25  1.25 3.75 26.25  1.25 3.75 25  2.5 3.75 26.25  2.5 3.75 25  2.5 5 25  2.5 5 26.25  2.5 5 27.5  0 3.75 25  0 5 25  1.25 5 26.25  1.25 5 25  0 3.75 26.25  0 5 26.25  0 5 27.5  1.25 5 27.5  3.75 3.75 26.25  3.75 3.75 25  5 3.75 26.25  5 3.75 25  5 5 25  5 5 26.25  5 5 27.5  5 3.75 27.5  3.75 5 26.25  3.75 5 25  3.75 5 27.5  6.25 3.75 26.25  6.25 3.75 25  7.5 3.75 25  7.5 5 25  6.25 5 26.25  6.25 5 25  1.25 6.25 26.25  1.25 6.25 25  2.5 6.25 26.25  2.5 6.25 25  2.5 7.5 25  2.5 7.5 26.25  2.5 7.5 27.5  0 6.25 25  0 7.5 25  1.25 7.5 26.25  1.25 7.5 25  0 6.25 26.25  0 6.25 27.5  0 7.5 27.5  0 7.5 26.25  3.75 6.25 26.25  3.75 6.25 25  5 6.25 26.25  5 6.25 25  5 7.5 25  5 7.5 26.25  5 7.5 27.5  5 6.25 27.5  3.75 7.5 26.25  3.75 7.5 25  6.25 6.25 26.25  6.25 6.25 25  7.5 6.25 26.25  7.5 6.25 25  7.5 7.5 25  6.25 7.5 26.25  6.25 7.5 25  1.25 8.75 26.25  1.25 8.75 25  2.5 8.75 26.25  2.5 8.75 25  2.5 10 25  0 8.75 25  0 10 25  1.25 10 25  0 8.75 26.25  3.75 8.75 26.25  3.75 8.75 25  5 8.75 26.25  5 8.75 25  5 10 25  3.75 10 25  6.25 8.75 26.25  6.25 8.75 25  7.5 8.75 26.25  7.5 8.75 25  7.5 10 25  6.25 10 25  3.75 11.25 26.25  3.75 11.25 25  5 11.25 25  5 12.5 25  2.5 11.25 25  2.5 12.5 25  3.75 12.5 25  6.25 11.25 26.25  6.25 11.25 25  7.5 11.25 26.25  7.5 11.25 25  7.5 12.5 25  6.25 12.5 25  17.5 0 22.5  18.75 1.25 23.75  18.75 1.25 22.5  18.75 0 22.5  20 0 22.5  20 1.25 23.75  20 1.25 22.5  20 2.5 22.5  20 2.5 23.75  20 2.5 25  18.75 0 23.75  20 0 23.75  20 0 25  17.5 0 23.75  17.5 0 25  18.75 0 25  17.5 1.25 22.5  17.5 2.5 22.5  18.75 2.5 23.75  18.75 2.5 22.5  17.5 1.25 23.75  17.5 1.25 25  17.5 2.5 25  17.5 2.5 23.75  18.75 2.5 25  21.25 1.25 23.75  21.25 1.25 22.5  21.25 0 22.5  22.5 0 22.5  22.5 1.25 23.75  22.5 1.25 22.5  22.5 2.5 22.5  22.5 2.5 23.75  22.5 2.5 25  21.25 0 23.75  22.5 0 23.75  22.5 0 25  22.5 1.25 25  21.25 2.5 23.75  21.25 2.5 22.5  23.75 1.25 23.75  23.75 0 23.75  23.75 1.25 25  23.75 0 25  18.75 3.75 23.75  20 3.75 23.75  17.5 3.75 23.75  21.25 3.75 23.75  21.25 3.75 22.5  22.5 3.75 22.5  22.5 5 22.5  6.25 0 25  7.5 0 25  7.5 1.25 26.25  7.5 1.25 25  7.5 0 26.25  8.75 1.25 26.25  8.75 1.25 25  8.75 0 25  10 0 25  10 1.25 26.25  10 1.25 25  10 2.5 25  10 2.5 26.25  10 2.5 27.5  8.75 0 26.25  10 0 26.25  10 0 27.5  10 1.25 27.5  8.75 2.5 26.25  8.75 2.5 25  11.25 1.25 26.25  11.25 1.25 25  11.25 0 25  12.5 0 25  12.5 1.25 26.25  12.5 1.25 25  12.5 2.5 25  11.25 0 26.25  12.5 0 26.25  12.5 0 27.5  11.25 0 27.5  11.25 2.5 26.25  11.25 2.5 25  13.75 1.25 26.25  13.75 1.25 25  13.75 0 25  15 0 25  15 1.25 26.25  15 1.25 25  15 2.5 25  13.75 0 26.25  15 0 26.25  15 0 27.5  13.75 0 27.5  13.75 2.5 25  16.25 1.25 26.25  16.25 1.25 25  16.25 0 25  16.25 0 26.25  16.25 2.5 25  23.75 1.25 26.25  23.75 0 26.25  8.75 3.75 26.25  8.75 3.75 25  10 3.75 26.25  10 3.75 25  10 5 25  8.75 5 26.25  8.75 5 25  11.25 3.75 26.25  11.25 3.75 25  12.5 3.75 25  12.5 5 25  11.25 5 25  8.75 6.25 26.25  8.75 6.25 25  10 6.25 25  10 7.5 25  8.75 7.5 25  8.75 8.75 26.25  8.75 8.75 25  10 8.75 26.25  10 8.75 25  10 10 25  8.75 10 26.25  8.75 10 25  11.25 8.75 26.25  11.25 8.75 25  11.25 7.5 25  12.5 7.5 25  11.25 10 25  12.5 10 25  8.75 11.25 26.25  8.75 11.25 25  10 11.25 25  10 12.5 25  8.75 12.5 25  0 0 0  1.25 1.25 1.25  1.25 1.25 0  1.25 0 0  2.5 0 0  2.5 1.25 1.25  2.5 1.25 0  2.5 2.5 0  2.5 2.5 1.25  2.5 2.5 2.5  1.25 0 1.25  2.5 0 1.25  2.5 0 2.5  2.5 1.25 2.5  0 0 1.25  0 0 2.5  1.25 1.25 2.5  1.25 0 2.5  0 1.25 0  0 2.5 0  1.25 2.5 1.25  1.25 2.5 0  0 1.25 1.25  0 1.25 2.5  0 2.5 2.5  1.25 2.5 2.5  0 2.5 1.25  3.75 1.25 1.25  3.75 1.25 0  3.75 0 0  5 0 0  5 1.25 1.25  5 1.25 0  5 2.5 0  5 2.5 1.25  5 2.5 2.5  3.75 0 1.25  5 0 1.25  5 0 2.5  5 1.25 2.5  3.75 1.25 2.5  3.75 0 2.5  3.75 2.5 1.25  3.75 2.5 0  3.75 2.5 2.5  6.25 1.25 1.25  6.25 1.25 0  6.25 0 0  7.5 0 0  7.5 1.25 1.25  7.5 1.25 0  7.5 2.5 0  7.5 2.5 1.25  7.5 2.5 2.5  6.25 0 1.25  7.5 0 1.25  7.5 0 2.5  7.5 1.25 2.5  6.25 1.25 2.5  6.25 0 2.5  6.25 2.5 1.25  6.25 2.5 0  6.25 2.5 2.5  8.75 1.25 1.25  8.75 1.25 0  8.75 0 0  10 0 0  10 1.25 1.25  10 1.25 0  10 2.5 0  10 2.5 1.25  10 2.5 2.5  8.75 0 1.25  10 0 1.25  10 0 2.5  10 1.25 2.5  8.75 1.25 2.5  8.75 0 2.5  8.75 2.5 1.25  8.75 2.5 0  8.75 2.5 2.5  1.25 3.75 1.25  1.25 3.75 0  2.5 3.75 1.25  2.5 3.75 0  2.5 5 0  2.5 5 1.25  2.5 5 2.5  2.5 3.75 2.5  1.25 3.75 2.5  0 3.75 0  0 5 0  1.25 5 1.25  1.25 5 0  0 3.75 1.25  0 3.75 2.5  0 5 2.5  1.25 5 2.5  0 5 1.25  3.75 3.75 1.25  3.75 3.75 0  5 3.75 1.25  5 3.75 0  5 5 0  5 5 1.25  5 5 2.5  5 3.75 2.5  3.75 3.75 2.5  3.75 5 1.25  3.75 5 0  3.75 5 2.5  6.25 3.75 1.25  6.25 3.75 0  7.5 3.75 1.25  7.5 3.75 0  7.5 5 0  7.5 5 1.25  7.5 5 2.5  7.5 3.75 2.5  6.25 3.75 2.5  6.25 5 1.25  6.25 5 0  6.25 5 2.5  8.75 3.75 1.25  8.75 3.75 0  10 3.75 1.25  10 3.75 0  10 5 0  10 5 1.25  10 5 2.5  10 3.75 2.5  8.75 3.75 2.5  8.75 5 1.25  8.75 5 0  8.75 5 2.5  1.25 6.25 1.25  1.25 6.25 0  2.5 6.25 1.25  2.5 6.25 0  2.5 7.5 0  2.5 7.5 1.25  2.5 7.5 2.5  2.5 6.25 2.5  1.25 6.25 2.5  0 6.25 0  0 7.5 0  1.25 7.5 1.25  1.25 7.5 0  0 6.25 1.25  0 6.25 2.5  0 7.5 2.5  1.25 7.5 2.5  0 7.5 1.25  3.75 6.25 1.25  3.75 6.25 0  5 6.25 1.25  5 6.25 0  5 7.5 0  5 7.5 1.25  5 7.5 2.5  5 6.25 2.5  3.75 6.25 2.5  3.75 7.5 1.25  3.75 7.5 0  3.75 7.5 2.5  6.25 6.25 1.25  6.25 6.25 0  7.5 6.25 1.25  7.5 6.25 0  7.5 7.5 0  7.5 7.5 1.25  7.5 7.5 2.5  7.5 6.25 2.5  6.25 6.25 2.5  6.25 7.5 1.25  6.25 7.5 0  6.25 7.5 2.5  8.75 6.25 1.25  8.75 6.25 0  10 6.25 1.25  10 6.25 0  10 7.5 0  10 7.5 1.25  10 7.5 2.5  10 6.25 2.5  8.75 6.25 2.5  8.75 7.5 1.25  8.75 7.5 0  8.75 7.5 2.5  1.25 8.75 1.25  1.25 8.75 0  2.5 8.75 1.25  2.5 8.75 0  2.5 10 0  2.5 10 1.25  2.5 10 2.5  2.5 8.75 2.5  1.25 8.75 2.5  0 8.75 0  0 10 0  1.25 10 1.25  1.25 10 0  0 8.75 1.25  0 8.75 2.5  0 10 2.5  1.25 10 2.5  0 10 1.25  3.75 8.75 1.25  3.75 8.75 0  5 8.75 1.25  5 8.75 0  5 10 0  5 10 1.25  5 10 2.5  5 8.75 2.5  3.75 8.75 2.5  3.75 10 1.25  3.75 10 0  3.75 10 2.5  6.25 8.75 1.25  6.25 8.75 0  7.5 8.75 1.25  7.5 8.75 0  7.5 10 0  7.5 10 1.25  7.5 10 2.5  7.5 8.75 2.5  6.25 8.75 2.5  6.25 10 1.25  6.25 10 0  6.25 10 2.5  8.75 8.75 1.25  8.75 8.75 0  10 8.75 1.25  10 8.75 0  10 10 0  10 10 1.25  10 10 2.5  10 8.75 2.5  8.75 8.75 2.5  8.75 10 1.25  8.75 10 0  8.75 10 2.5  1.25 11.25 1.25  1.25 11.25 0  2.5 11.25 1.25  2.5 11.25 0  2.5 12.5 0  2.5 12.5 1.25  2.5 12.5 2.5  2.5 11.25 2.5  1.25 11.25 2.5  0 11.25 1.25  0 11.25 2.5  3.75 11.25 1.25  3.75 11.25 0  5 11.25 1.25  5 11.25 0  5 11.25 2.5  3.75 11.25 2.5  6.25 11.25 1.25  6.25 11.25 0  7.5 11.25 1.25  7.5 11.25 0  7.5 11.25 2.5  6.25 11.25 2.5  8.75 11.25 1.25  8.75 11.25 0  8.75 11.25 2.5  1.25 1.25 3.75  2.5 1.25 3.75  2.5 2.5 3.75  2.5 2.5 5  1.25 0 3.75  2.5 0 3.75  2.5 0 5  2.5 1.25 5  0 0 3.75  0 0 5  1.25 1.25 5  1.25 0 5  1.25 2.5 3.75  0 1.25 3.75  0 1.25 5  0 2.5 5  1.25 2.5 5  0 2.5 3.75  3.75 1.25 3.75  5 1.25 3.75  5 2.5 3.75  5 2.5 5  3.75 0 3.75  5 0 3.75  5 0 5  5 1.25 5  3.75 1.25 5  3.75 0 5  3.75 2.5 3.75  3.75 2.5 5  6.25 1.25 3.75  7.5 1.25 3.75  7.5 2.5 3.75  7.5 2.5 5  6.25 0 3.75  7.5 0 3.75  7.5 0 5  7.5 1.25 5  6.25 1.25 5  6.25 0 5  6.25 2.5 3.75  6.25 2.5 5  8.75 1.25 3.75  10 1.25 3.75  10 2.5 3.75  10 2.5 5  8.75 0 3.75  10 0 3.75  10 0 5  10 1.25 5  8.75 1.25 5  8.75 0 5  8.75 2.5 3.75  8.75 2.5 5  1.25 3.75 3.75  2.5 3.75 3.75  2.5 5 3.75  2.5 5 5  2.5 3.75 5  1.25 3.75 5  1.25 5 3.75  0 3.75 3.75  0 3.75 5  0 5 5  1.25 5 5  0 5 3.75  3.75 3.75 3.75  5 3.75 3.75  5 5 3.75  5 5 5  5 3.75 5  3.75 3.75 5  3.75 5 3.75  3.75 5 5  6.25 3.75 3.75  7.5 3.75 3.75  7.5 5 3.75  7.5 5 5  7.5 3.75 5  6.25 3.75 5  6.25 5 3.75  6.25 5 5  8.75 3.75 3.75  10 3.75 3.75  10 5 3.75  10 5 5  10 3.75 5  8.75 3.75 5  8.75 5 3.75  8.75 5 5  1.25 6.25 3.75  2.5 6.25 3.75  2.5 7.5 3.75  2.5 7.5 5  2.5 6.25 5  1.25 6.25 5  1.25 7.5 3.75  0 6.25 3.75  0 6.25 5  0 7.5 5  1.25 7.5 5  0 7.5 3.75  3.75 6.25 3.75  5 6.25 3.75  5 7.5 3.75  5 7.5 5  5 6.25 5  3.75 6.25 5  3.75 7.5 3.75  3.75 7.5 5  6.25 6.25 3.75  7.5 6.25 3.75  7.5 7.5 3.75  7.5 7.5 5  7.5 6.25 5  6.25 6.25 5  6.25 7.5 3.75  6.25 7.5 5  8.75 6.25 3.75  10 6.25 3.75  10 7.5 3.75  10 7.5 5  10 6.25 5  8.75 6.25 5  8.75 7.5 3.75  8.75 7.5 5  1.25 8.75 3.75  2.5 8.75 3.75  2.5 10 3.75  2.5 10 5  2.5 8.75 5  1.25 8.75 5  1.25 10 3.75  0 8.75 3.75  0 8.75 5  0 10 5  1.25 10 5  0 10 3.75  3.75 8.75 3.75  5 8.75 3.75  5 10 3.75  5 10 5  5 8.75 5  3.75 8.75 5  3.75 10 3.75  3.75 10 5  6.25 8.75 3.75  7.5 8.75 3.75  7.5 10 3.75  7.5 10 5  7.5 8.75 5  6.25 8.75 5  6.25 10 3.75  6.25 10 5  8.75 8.75 3.75  10 8.75 3.75  10 10 3.75  10 10 5  10 8.75 5  8.75 8.75 5  8.75 10 3.75  8.75 10 5  1.25 11.25 3.75  2.5 11.25 3.75  2.5 12.5 3.75  2.5 12.5 5  2.5 11.25 5  1.25 11.25 5  0 11.25 3.75  0 11.25 5  0 12.5 5  1.25 12.5 5  3.75 11.25 3.75  5 11.25 3.75  5 11.25 5  3.75 11.25 5  6.25 11.25 3.75  7.5 11.25 3.75  7.5 11.25 5  6.25 11.25 5  8.75 11.25 3.75  8.75 11.25 5  1.25 1.25 6.25  2.5 1.25 6.25  2.5 2.5 6.25  2.5 2.5 7.5  1.25 0 6.25  2.5 0 6.25  2.5 0 7.5  2.5 1.25 7.5  0 0 6.25  0 0 7.5  1.25 1.25 7.5  1.25 0 7.5  1.25 2.5 6.25  0 1.25 6.25  0 1.25 7.5  0 2.5 7.5  1.25 2.5 7.5  0 2.5 6.25  3.75 1.25 6.25  5 1.25 6.25  5 2.5 6.25  5 2.5 7.5  3.75 
[...]
<PointData  Vectors="u"> 
<DataArray  type="Float64"  Name="u"  NumberOfComponents="3" format="ascii">2.0000000000055692e+02 6.6873681944883261e-10 -1.4160625492724875e-10  1.9999999999899367e+02 -5.6086118913979678e-11 -1.0460219932309029e-10  1.9999999999897884e+02 -2.8926506532370536e-10 -1.5443277522359579e-10  1.9999999999900035e+02 -1.8308948469374213e-10 -1.8193912267284899e-10  1.9999999999831778e+02 6.9060250831047624e-10 -1.0799928647144362e-10  1.9999999999794466e+02 -6.9529383392892946e-11 -1.4741967643851611e-10  1.9999999999810643e+02 -1.0726907202724670e-10 -5.6377480687741362e-12  1.9999999999825292e+02 1.6759304149789289e-10 -7.8362199005347265e-12  1.9999999999822748e+02 -4.5243187668049101e-11 -2.0433825474223604e-11  1.9999999999821560e+02 1.1671856294375062e-10 1.2201738594204024e-10  1.9999999999896008e+02 -3.0640361104362105e-10 3.0375316105515508e-11  1.9999999999816546e+02 1.5986405221303436e-11 -5.5404335435839273e-11  1.9999999999826255e+02 5.3914259790201764e-10 1.1936189728845558e-10  2.0000000000000534e+02 -2.5240085245718769e-11 -6.7927779963977437e-11  2.0000000000054780e+02 6.0691298841914867e-10 1.5624089395384948e-10  2.0000000000001060e+02 -1.3930634957832551e-10 6.5306745008339771e-11  2.0000000000054834e+02 2.2932635475269677e-10 -8.0312757789236261e-11  1.9999999999908519e+02 -6.7198230044329408e-11 -1.3263356086948392e-10  1.9999999999903244e+02 3.0935350936972628e-11 4.7712507203049171e-11  1.9999999999972616e+02 -1.1900343021161772e-10 1.0724452918387427e-12  2.0000000000004360e+02 9.9301845902241160e-12 -1.3667907104878697e-11  2.0000000000060189e+02 1.8286032493194346e-10 1.4736022898145858e-10  1.9999999999716587e+02 -1.3337381466190651e-10 -1.0613977500446471e-10  1.9999999999703672e+02 -3.2329222304152439e-10 -1.2773489427525958e-10  1.9999999999715291e+02 -7.7067451650759422e-11 -6.2690930164008667e-11  1.9999999999647696e+02 7.2028918184054962e-10 -1.0405845874098593e-10  1.9999999999609705e+02 -8.9217001149152721e-11 -1.2566681690220105e-10  1.9999999999627275e+02 -9.1341267454052356e-11 -8.2325287006746215e-11  1.9999999999650774e+02 1.5382690579409465e-10 -6.9374969314900196e-11  1.9999999999634824e+02 7.3867366648867321e-11 -1.3580691307405650e-12  1.9999999999647920e+02 1.3965858859102910e-10 1.2325070335299743e-10  1.9999999999716317e+02 -4.2619332658909014e-10 1.2939658847381761e-11  1.9999999999620474e+02 1.3817761883643861e-10 -2.7288800278028247e-11  1.9999999999646727e+02 5.9777539244394401e-10 1.1316072085838892e-10  1.9999999999720171e+02 3.9923541590250240e-11 -6.5239674617822859e-11  1.9999999999712108e+02 -1.6056051833969665e-10 -9.0527707623265571e-11  1.9999999999719481e+02 -6.9766099763515428e-11 6.0047709116331571e-11  1.9999999999724872e+02 6.9432175287783265e-11 -1.1967379908246716e-10  1.9999999999538218e+02 -1.4126062344678619e-10 -3.1004714640973271e-11  1.9999999999522441e+02 -5.5665390442879318e-10 -1.1255659790247820e-11  1.9999999999534373e+02 -1.1829061124847566e-10 1.1831321740373610e-10  1.9999999999531991e+02 -1.9717059746660031e-10 4.8998381586434640e-11  1.9999999999540233e+02 -4.8770135761060768e-11 9.5602350056429044e-11  1.9999999999470623e+02 1.2177427591484915e-10 -4.3967605330504277e-11  1.9999999999903022e+02 -6.0316012398657114e-11 -3.8363361174603809e-11  1.9999999999914061e+02 -1.9240826398102669e-10 -1.1071554341480883e-10  1.9999999999809404e+02 -2.2981930234873145e-10 -2.6608314879636525e-10  1.9999999999816330e+02 -3.9348636152591371e-11 4.1000748250285007e-11  1.9999999999819542e+02 1.9015787176442251e-10 -2.1498122966329506e-11  1.9999999999817243e+02 -6.2751657460349595e-11 2.5980735948093133e-12  1.9999999999817999e+02 1.8078676856693044e-10 1.2770007789102548e-10  2.0000000000005619e+02 -3.1007369206514226e-11 1.3872889976490951e-10  2.0000000000057724e+02 1.7420498366358250e-10 -6.7932628324303601e-11  1.9999999999905398e+02 -1.1004666304952846e-10 -9.8945674369168874e-11  1.9999999999900004e+02 -3.2860186597967586e-11 6.3794783869450339e-11  1.9999999999965485e+02 -2.8820104510668981e-11 -2.6439390611340325e-11  2.0000000000004195e+02 -4.5799571525670912e-11 -1.3090289217286203e-12  2.0000000000059575e+02 1.5642150319236900e-10 1.1700047412168795e-10  1.9999999999902937e+02 -5.8770908531491669e-11 -1.1461360751906128e-11  1.9999999999721072e+02 -6.2074635402276872e-11 -9.1951970212460296e-11  1.9999999999708734e+02 -2.3106306435452520e-10 -1.1183512784444970e-10  1.9999999999622776e+02 -8.6391623468085635e-11 -6.6287261641261831e-11  1.9999999999630663e+02 -3.8785612163685850e-11 6.9891315109907882e-11  1.9999999999649913e+02 1.8923077364708747e-10 -2.3460622526593003e-11  1.9999999999639883e+02 3.0463320254286979e-11 3.4512631558025320e-12  1.9999999999647923e+02 1.3140202515763677e-10 8.6836387776838009e-11  1.9999999999633903e+02 1.3341299197403370e-11 -4.3459217598651746e-11  1.9999999999717173e+02 -1.0071387755597906e-10 -1.0182413849081170e-10  1.9999999999728144e+02 -3.1140374228798091e-11 5.3639568372913962e-11  1.9999999999726521e+02 3.0850193116487843e-11 -1.8564497634436314e-11  1.9999999999536868e+02 -2.1966540756210699e-11 -1.2493608749041301e-10  1.9999999999524078e+02 -2.0147209633148743e-10 -3.2068172465343744e-11  1.9999999999442645e+02 1.3580222280952912e-12 1.1522881528111504e-10  1.9999999999466769e+02 1.8955774210221560e-10 -2.2046742399528607e-13  1.9999999999534444e+02 -1.9166922932656409e-10 -9.0163839071844373e-11  1.9999999999542655e+02 -3.4131522007864428e-11 9.2766204739586515e-11  1.9999999999900351e+02 -4.4407139787135327e-11 -4.1093407015311649e-11  1.9999999999911657e+02 -1.7960891015345683e-10 -1.3554449371654327e-10  1.9999999999813988e+02 -1.8013668843321908e-10 -1.7488611264156752e-10  1.9999999999819246e+02 -4.8152893946208083e-11 -3.6886552361294463e-11  1.9999999999820352e+02 2.1252338572581412e-10 -2.3681998816261879e-11  1.9999999999815219e+02 2.1593466386029159e-12 2.5851182880056838e-11  1.9999999999818669e+02 1.8782908379324910e-10 1.1885742336673594e-10  2.0000000000003649e+02 -2.3174571723596779e-11 1.1064624760269527e-10  2.0000000000058910e+02 1.5368479436396184e-10 -7.2912331014246743e-11  1.9999999999906143e+02 -1.1652851036904114e-10 -1.2834309661337120e-10  1.9999999999898125e+02 -3.8771231351862081e-11 7.5760009600420723e-11  1.9999999999959024e+02 -2.1551250227555277e-11 1.1176996944066925e-12  2.0000000000001302e+02 -2.3657187852734868e-11 -1.0719942567638065e-10  2.0000000000056556e+02 1.7521620651581867e-10 1.0936761122681450e-10  2.0000000000007961e+02 -7.2209633643233897e-11 -1.6130196590911739e-12  1.9999999999723909e+02 -3.4971159879444824e-11 -8.4776062138251560e-11  1.9999999999711105e+02 -1.6384975688785438e-10 -5.2034921647035575e-11  1.9999999999616182e+02 -9.3383355139167357e-11 -1.0285213544479993e-10  1.9999999999629208e+02 -8.5266777320802033e-12 7.9464767891830304e-11  1.9999999999644342e+02 9.7539146445806915e-11 -2.9492124725948173e-11  1.9999999999630518e+02 -6.4256307938027213e-12 2.2245873999672728e-11  1.9999999999645362e+02 1.1986338056380842e-10 1.0264405284676987e-10  1.9999999999633593e+02 2.8541163230366452e-11 -4.0032811420142504e-11  1.9999999999717531e+02 -1.5235882283259646e-10 -8.9266366428886661e-11  1.9999999999723531e+02 -5.9575356230982041e-11 4.9030965505054406e-11  1.9999999999536149e+02 -9.8815930618240610e-11 -8.8780588519417150e-11  1.9999999999523024e+02 -2.2430592997311949e-10 -6.8887950945923566e-11  1.9999999999443261e+02 -1.0270246848252862e-10 -1.2077504861168058e-10  1.9999999999445581e+02 -6.4873646694334814e-11 8.2299611983481732e-11  1.9999999999469500e+02 1.6097637303688819e-10 7.7938328769387964e-12  1.9999999999534043e+02 -1.1506211200418328e-10 -6.6996237192797274e-11  1.9999999999543988e+02 -5.7730839975550716e-11 8.6296761029283008e-11  1.9999999999903486e+02 -9.0943712654139969e-11 -7.0969653948260729e-12  1.9999999999913533e+02 -2.4431636673161718e-10 -5.8179379224631090e-11  1.9999999999809305e+02 -2.5982047418073456e-10 -2.3505163064521882e-10  1.9999999999820028e+02 -7.3411663187276811e-12 -1.2154741866401602e-11  1.9999999999820108e+02 2.0320455605146115e-10 -5.1683002152629664e-11  2.0000000000003993e+02 8.0660882393952439e-12 9.8235652320252175e-11  2.0000000000058722e+02 1.5504678831921435e-10 -6.9298750498375400e-11  1.9999999999904290e+02 -1.4812636548712704e-11 4.6457839659739986e-11  1.9999999999965792e+02 -3.5294370337393327e-11 4.5502535072316654e-11  1.9999999999719500e+02 -6.3848940233970324e-11 -1.0005084060861664e-10  1.9999999999704355e+02 -1.9880550864448302e-10 -2.5841913813333416e-11  1.9999999999616142e+02 -7.8942192518208439e-11 -7.4288592914232852e-11  1.9999999999625626e+02 5.7538643978091742e-11 5.3563362496621988e-11  1.9999999999647611e+02 1.6479604228882261e-10 -4.5505310015150954e-12  1.9999999999725628e+02 -5.2312262574101426e-11 6.1305251875246745e-11  1.9999999999538943e+02 -4.0111909329866207e-11 -8.1471599746862089e-11  1.9999999999527577e+02 -1.6950865488028631e-10 -2.5563376815201503e-11  1.9999999999443008e+02 -1.2313903259124147e-10 -1.0060261513115569e-10  1.9999999999444165e+02 -2.5663016008326592e-11 1.0817749352974142e-10  1.9999999999464461e+02 1.2899489018091156e-10 -3.8113973237475207e-12  1.9999999999539898e+02 -4.1683248271744877e-11 1.1742826064344899e-10  1.9999999999720964e+02 -4.1774678566415512e-11 -9.4923345293031141e-11  1.9999999999704482e+02 -2.2591279957711892e-10 -6.3468371175737272e-11  1.9999999999627093e+02 -4.5364814066944579e-11 7.1557518875467628e-11  1.9999999999646278e+02 1.2590646655659342e-10 -1.0211308885915058e-11  1.9999999999818624e+02 -6.9003532276019240e-11 -4.3590909339223767e-11  1.9999999999822299e+02 1.6586560685354480e-10 1.2172026324371537e-11  1.9999999999722198e+02 -5.9389718735566411e-11 4.2610523437295816e-11  1.9999999999535288e+02 -8.9432255384799960e-11 -7.8617285888809134e-11  1.9999999999519969e+02 -2.5842189384603552e-10 -1.5863423318786056e-11  1.9999999999438921e+02 -1.3219683219682181e-10 -1.2785568965389462e-10  1.9999999999448053e+02 -4.5668983258772700e-12 1.1800431633645811e-10  1.9999999999469668e+02 1.5300853356513659e-10 -3.5379025366718629e-12  1.9999999999536851e+02 -1.8304224644082610e-11 1.1458599951322168e-10  1.9999999998739474e+02 6.5964946653849689e-10 1.7266867260979147e-11  1.9999999998652990e+02 -5.9533156162407064e-11 -1.0173966962908254e-10  1.9999999998658140e+02 -2.4261877163384450e-10 -1.0546768263952016e-10  1.9999999998655821e+02 -1.3986642978801757e-10 -4.6526030511877945e-11  1.9999999998580438e+02 7.1166477950917191e-10 -6.8005937658754849e-12  1.9999999998550445e+02 -8.7490329250851118e-11 -1.2060055281478512e-10  1.9999999998562450e+02 -7.4586510822568511e-11 1.5057635372754282e-11  1.9999999998577979e+02 1.3976400521345491e-10 -2.5170782461421758e-11  1.9999999998575896e+02 -1.1175235299483259e-10 7.8981337510753753e-12  1.9999999998575342e+02 1.4110984921046843e-10 1.2057314767512581e-10  1.9999999998657964e+02 -2.6472089440916572e-10 3.1446413591112399e-11  1.9999999998564817e+02 4.5258174428500359e-11 -3.2736789680958541e-11  1.9999999998581220e+02 5.6100880285797244e-10 1.4745808748733430e-10  1.9999999998759279e+02 -3.5353958957434495e-12 -2.5988371110800661e-11  1.9999999998741998e+02 6.4351176910705420e-10 1.1229367566704403e-10  1.9999999998655983e+02 4.0153738798492319e-11 3.1933767869443095e-11  1.9999999998759753e+02 -4.5341484176117427e-11 7.4760895212280435e-11  1.9999999998747469e+02 8.9994495306846313e-11 5.7402703880971508e-11  1.9999999998665658e+02 -1.3215670919257720e-10 -1.2063573220575133e-10  1.9999999998656736e+02 -3.7162501371405065e-11 5.0438895672234140e-11  1.9999999998754907e+02 -1.9686051477421536e-10 -1.2786500494941379e-10  1.9999999998753088e+02 -8.0519060539097681e-11 -1.2592337838321116e-10  1.9999999998739725e+02 1.6246773454026933e-10 7.8410228446983374e-11  1.9999999998750627e+02 -6.2334240272651381e-11 -4.6050357466570240e-11  1.9999999998664342e+02 -1.4277077149912270e-11 -3.5572684223746408e-11  1.9999999998480797e+02 -1.5433192698500340e-10 -3.8384774399492742e-11  1.9999999998466322e+02 -2.7304708034347819e-10 -1.1911837865576015e-10  1.9999999998485163e+02 -5.7070700012575931e-11 -2.0285896010134276e-11  1.9999999998413622e+02 6.5209051380660005e-10 -4.3050211786263905e-11  1.9999999998380949e+02 -1.1867150883451629e-10 -7.4361048717844654e-11  1.9999999998399306e+02 -8.0478794501557712e-11 1.7354864917199121e-11  1.9999999998416203e+02 1.5672074092115344e-10 -1.6759584858521728e-11  1.9999999998401205e+02 3.3498552221378339e-11 -4.2792779397384832e-12  1.9999999998413949e+02 1.0911704532494276e-10 1.5235212579228533e-10  1.9999999998483244e+02 -3.3869805383468455e-10 9.8059086326407122e-11  1.9999999998387429e+02 1.7061947265890406e-10 8.4196568594407129e-11  1.9999999998409174e+02 5.6020948153153466e-10 1.0613221399827263e-10  1.9999999998404701e+02 -5.5168931899656432e-11 8.4544123479188154e-11  1.9999999998476812e+02 -1.5555499026283046e-10 -7.7992010035907216e-11  1.9999999998482852e+02 -7.4312837697744698e-11 7.0419291384689261e-11  1.9999999998317281e+02 -1.4282826350172089e-10 -3.7071579844102493e-11  1.9999999998297352e+02 -4.8312969058346149e-10 -5.2572988323128372e-13  1.9999999998308266e+02 -9.9624918075501812e-11 -1.7238167820823886e-11  1.9999999998311290e+02 -1.8905659691995361e-11 -4.4469207468699648e-11  1.9999999998659800e+02 -2.9481828964385319e-11 2.1116806740761430e-11  1.9999999998575089e+02 -1.6988193348750438e-10 1.7480358065037985e-13  1.9999999998758474e+02 -9.8662427025222039e-11 -2.0042029401189348e-11  1.9999999998481016e+02 -2.0227046022172536e-11 -8.6635935893476861e-11  1.9999999998486817e+02 -1.6381083899484232e-10 -2.8197053315972394e-11  1.9999999998395572e+02 1.0053769254197227e-11 4.0709306787762665e-11  1.9999999998409521e+02 1.3601138638727634e-10 1.8208164931879499e-12  1.9999999999537698e+02 -2.7356229690442981e-12 5.7993315944439034e-11  1.9999999999469833e+02 7.3885469698515397e-10 -6.9616863508035908e-11  1.9999999999457819e+02 -4.1082051979591326e-12 -1.8807081153577942e-11  1.9999999999450631e+02 -1.0269414106451981e-10 -3.8231166669919244e-12  1.9999999999455190e+02 5.5573146654650462e-11 -7.3187556403203189e-12  1.9999999999351340e+02 -1.0448156603401304e-10 -1.0256572433193800e-10  1.9999999999335216e+02 -2.8482020728828684e-10 -9.0292087232526922e-11  1.9999999999358516e+02 -6.9828366512427578e-11 -6.6201407320474991e-11  1.9999999999287090e+02 7.1180588090827150e-10 -5.0966152492129657e-12  1.9999999999254402e+02 -1.1250818336761740e-10 -1.2673080090907365e-10  1.9999999999271284e+02 -1.0794133516159244e-10 3.2335160726916286e-11  1.9999999999286641e+02 1.7185235638602826e-10 -4.3584570966021354e-11  1.9999999999273038e+02 -5.4879801047622176e-12 -4.9456784501828500e-11  1.9999999999287803e+02 9.1098077687821587e-11 1.1871836336952401e-10  1.9999999999355373e+02 -3.7956431189481301e-10 2.4741315145962543e-11  1.9999999999269386e+02 8.1699688932671150e-11 -6.9709419683922706e-11  1.9999999999285816e+02 5.8079540833557698e-10 8.5773514216150712e-11  1.9999999999280442e+02 -9.8737357322271067e-13 2.5812320547242477e-11  1.9999999999346903e+02 -1.2667487255305343e-10 -1.3469338944458018e-10  1.9999999999360494e+02 -8.8241065308338111e-11 8.6135696733362973e-11  1.9999999999174628e+02 -1.4307254111968465e-10 -9.3077576653657197e-11  1.9999999999160761e+02 -2.9388847189703085e-10 -8.1254923006321943e-11  1.9999999999177240e+02 -8.1401756517808437e-11 5.5272360979632325e-12  1.9999999999103832e+02 7.0506534248109335e-10 -2.5298285637127179e-11  1.9999999999075709e+02 -6.8020252856583838e-11 -6.2976672101888298e-11  1.9999999999086555e+02 -2.0975446717336885e-11 5.0680773704485487e-11  1.9999999999108721e+02 1.6560450328542286e-10 -3.7320968202737900e-11  1.9999999999176219e+02 -3.7687610301008336e-10 2.5267062911596576e-11  1.9999999999090733e+02 3.6280591074328170e-11 2.7546219681808961e-11  1.9999999999106825e+02 5.5157042213926442e-10 1.2415044616132743e-10  1.9999999999187258e+02 6.8350278655223290e-11 -8.8251176234043593e-11  1.9999999999175935e+02 -2.1781484893259124e-10 -8.5715335991694846e-11  1.9999999999178769e+02 -8.5859542318190877e-11 3.0057368689335251e-11  1.9999999999000102e+02 -1.3464984753087394e-10 -5.0702602505741076e-11  1.9999999998990211e+02 -2.4279979343731447e-10 -5.1276328315457576e-11  1.9999999999006798e+02 -6.2572689637344140e-11 4.0928588498433602e-11  1.9999999998927859e+02 7.1729083805440557e-10 2.2106875334927812e-11  1.9999999998899420e+02 -8.5868808220172247e-11 -1.2605898645948769e-10  1.9999999998928195e+02 -7.0403044282065742e-11 8.0522537121392330e-11  1.9999999998928121e+02 1.6170626047517818e-10 1.8323847488927505e-11  1.9999999999001281e+02 -3.5036572848679601e-10 7.7570989084558582e-11  1.9999999998913393e+02 7.0470873840366618e-11 -1.9377230055972425e-12  1.9999999998931534e+02 5.5803934561992952e-10 1.2563861225445365e-10  1.9999999999005192e+02 7.3744854391954473e-11 -7.2412772975686283e-11  1.9999999999004191e+02 -3.9612558667039515e-11 5.6314164119482288e-11  1.9999999998833391e+02 -1.0090241438875786e-10 -8.8014237792848945e-11  1.9999999998854290e+02 -2.9022162768551285e-10 3.9142519031059139e-11  1.9999999998834349e+02 -3.7863832110329984e-11 6.5445532475603698e-11  1.9999999998831859e+02 -4.4147784089405367e-10 7.1700177429526433e-11  1.9999999998833098e+02 -5.5461263358571493e-11 3.9853430039105635e-11  1.9999999998307678e+02 -5.6869621698886807e-11 -5.5949237200787376e-11  1.9999999998311236e+02 -3.4429267632529552e-10 6.2627148548819993e-11  1.9999999999351334e+02 -1.3420214927581779e-11 -7.0106570122251208e-11  1.9999999999347526e+02 -1.7696768450121956e-10 -4.1014249881042820e-11  1.9999999999251509e+02 -1.1656094664684803e-10 -1.2860359486294268e-10  1.9999999999264153e+02 -2.3236427309789260e-11 4.0021282890959932e-11  1.9999999999280331e+02 1.1711560712909351e-10 -2.3838571442486356e-11  1.9999999999356510e+02 -3.2544721719611775e-12 -1.1397659451939707e-10  1.9999999999361398e+02 -2.5211597597991861e-11 1.2026988594779119e-10  1.9999999999175986e+02 -5.4593711353120507e-11 -1.1027622105593891e-10  1.9999999999162316e+02 -2.0203791884355611e-10 -1.5132177501102169e-10  1.9999999999089377e+02 -3.0522954542196555e-11 6.2857733444012516e-11  1.9999999999106461e+02 1.4899218470986628e-10 -4.0282011251925184e-11  1.9999999999182509e+02 -9.8425014698539533e-11 2.6407567941393304e-11  1.9999999999357266e+02 -4.6268004047891286e-11 -1.3856979721742367e-11  1.9999999999356459e+02 -2.3072329798870142e-10 -8.4335780476273933e-12  1.9999999999279029e+02 -7.8444774595522109e-12 -3.8546756727389246e-11  1.9999999999277486e+02 1.2543519294555566e-10 -2.6323736642697071e-11  1.9999999999356913e+02 -5.8128430964760926e-11 9.0467284117340334e-11  1.9999999999357581e+02 -3.5185532513001185e-11 3.9211246110527720e-11  1.9999999999356015e+02 -1.9615952697124879e-10 8.9781670906968106e-12  1.9999999999266331e+02 -2.2327931668854266e-10 -1.9648659565264857e-10  1.9999999999279348e+02 -7.1524932444071837e-12 -1.0931441018889223e-11  1.9999999999274786e+02 1.5774622494607458e-10 2.9632041863589073e-12  1.9999999999359216e+02 -8.4958494015559816e-11 -8.5497007824083984e-11  1.9999999999363521e+02 -6.2299590939822672e-11 9.8769847963355965e-11  1.9999999999178311e+02 -5.3134854076368053e-11 -6.5856747049619045e-11  1.9999999999166852e+02 -1.8308849522864112e-10 -6.4652730353847410e-11  1.9999999999180352e+02 -1.2464018861211285e-10 7.0728635808558559e-11  1.9999999999111387e+02 1.2911268302320356e-10 -2.2579997976659658e-11  1.9999999999179809e+02 -7.4844845417012542e-11 7.8802527273608050e-11  1.9999999999111617e+02 1.2480916588399793e-10 7.5222870551609985e-12  1.9999999999361847e+02 -5.8123742430871709e-11 -7.2970666446028709e-12  1.9999999999359676e+02 -1.7215842753145026e-10 -1.1018612904391190e-11  1.9999999999275153e+02 -1.3330690616970380e-11 -5.3390753066806624e-12  1.9999999999277929e+02 1.7725297264224931e-10 7.6552806644645621e-12  1.999999999935