<?xml version="1.0"?>
<VTKFile type="UnstructuredGrid"  version="0.1"  >
<UnstructuredGrid>
<Piece  NumberOfPoints="3798" NumberOfCells="18497">
<Points>
<DataArray  type="Float64"  NumberOfComponents="3"  format="ascii">37.5 0 35  38.75 1.25 36.25  38.75 1.25 35  38.75 0 35  40 0 35  40 1.25 36.25  40 1.25 35  40 2.5 35  40 2.5 36.25  40 2.5 37.5  38.75 0 36.25  40 0 36.25  40 0 37.5  40 1.25 37.5  37.5 0 36.25  37.5 0 37.5  38.75 1.25 37.5  38.75 0 37.5  37.5 1.25 35  37.5 2.5 35  38.75 2.5 36.25  38.75 2.5 35  37.5 1.25 36.25  37.5 1.25 37.5  37.5 2.5 37.5  38.75 2.5 37.5  37.5 2.5 36.25  41.25 1.25 36.25  41.25 0 36.25  41.25 0 35  42.5 0 35  42.5 1.25 36.25  42.5 0 36.25  42.5 0 37.5  42.5 1.25 37.5  42.5 2.5 37.5  41.25 1.25 37.5  41.25 0 37.5  41.25 2.5 37.5  41.25 2.5 36.25  43.75 1.25 36.25  43.75 0 36.25  43.75 1.25 37.5  43.75 0 37.5  45 0 37.5  45 1.25 37.5  45 2.5 37.5  43.75 2.5 37.5  37.5 3.75 36.25  37.5 3.75 35  36.25 3.75 36.25  36.25 3.75 35  37.5 5 35  37.5 5 36.25  37.5 5 37.5  37.5 3.75 37.5  36.25 5 36.25  36.25 5 35  38.75 3.75 36.25  38.75 3.75 35  40 3.75 36.25  40 3.75 35  40 5 35  40 5 36.25  40 5 37.5  40 3.75 37.5  38.75 3.75 37.5  38.75 5 36.25  38.75 5 35  38.75 5 37.5  41.25 3.75 36.25  41.25 3.75 37.5  42.5 3.75 37.5  42.5 5 37.5  41.25 5 37.5  41.25 5 36.25  37.5 6.25 36.25  37.5 6.25 35  36.25 6.25 36.25  36.25 6.25 35  37.5 7.5 35  37.5 7.5 36.25  37.5 7.5 37.5  37.5 6.25 37.5  36.25 7.5 36.25  36.25 7.5 35  38.75 6.25 36.25  38.75 6.25 35  40 6.25 36.25  40 6.25 35  40 7.5 35  40 7.5 36.25  40 7.5 37.5  40 6.25 37.5  38.75 6.25 37.5  38.75 7.5 36.25  38.75 7.5 35  38.75 7.5 37.5  41.25 6.25 36.25  41.25 6.25 37.5  42.5 6.25 37.5  42.5 7.5 37.5  41.25 7.5 37.5  41.25 7.5 36.25  37.5 8.75 36.25  37.5 8.75 35  36.25 8.75 36.25  36.25 8.75 35  37.5 10 35  37.5 10 36.25  37.5 10 37.5  37.5 8.75 37.5  38.75 8.75 36.25  38.75 8.75 35  40 8.75 36.25  40 8.75 35  40 10 35  40 10 36.25  40 10 37.5  40 8.75 37.5  38.75 8.75 37.5  38.75 10 36.25  38.75 10 35  38.75 10 37.5  41.25 8.75 36.25  41.25 8.75 37.5  42.5 8.75 37.5  42.5 10 37.5  41.25 10 37.5  41.25 10 36.25  38.75 11.25 36.25  38.75 11.25 35  40 11.25 36.25  40 11.25 35  40 12.5 35  40 12.5 36.25  40 12.5 37.5  40 11.25 37.5  38.75 11.25 37.5  37.5 11.25 35  37.5 12.5 35  38.75 12.5 36.25  38.75 12.5 35  38.75 12.5 37.5  41.25 11.25 36.25  41.25 11.25 37.5  42.5 11.25 37.5  42.5 12.5 37.5  41.25 12.5 37.5  41.25 12.5 36.25  38.75 13.75 36.25  40 13.75 36.25  40 13.75 37.5  40 15 37.5  38.75 13.75 37.5  38.75 15 37.5  38.75 15 36.25  41.25 13.75 36.25  41.25 13.75 37.5  42.5 13.75 37.5  42.5 15 37.5  41.25 15 37.5  40 16.25 37.5  38.75 16.25 37.5  38.75 16.25 36.25  40 17.5 37.5  38.75 17.5 37.5  38.75 17.5 36.25  40 18.75 37.5  38.75 18.75 37.5  38.75 18.75 36.25  40 20 37.5  37.5 20 37.5  38.75 20 37.5  37.5 1.25 38.75  36.25 1.25 38.75  37.5 2.5 38.75  37.5 2.5 40  37.5 0 38.75  36.25 0 38.75  37.5 0 40  37.5 1.25 40  36.25 1.25 40  36.25 0 40  36.25 2.5 38.75  35 2.5 40  36.25 2.5 40  38.75 1.25 38.75  40 1.25 38.75  40 2.5 38.75  40 2.5 40  38.75 0 38.75  40 0 38.75  40 0 40  40 1.25 40  38.75 1.25 40  38.75 0 40  38.75 2.5 38.75  38.75 2.5 40  41.25 1.25 38.75  42.5 1.25 38.75  42.5 2.5 38.75  42.5 2.5 40  41.25 0 38.75  42.5 0 38.75  42.5 0 40  42.5 1.25 40  41.25 1.25 40  41.25 0 40  41.25 2.5 38.75  41.25 2.5 40  43.75 1.25 38.75  45 1.25 38.75  45 2.5 38.75  45 2.5 40  43.75 0 38.75  45 0 38.75  45 0 40  45 1.25 40  43.75 1.25 40  43.75 0 40  43.75 2.5 38.75  43.75 2.5 40  46.25 1.25 38.75  46.25 0 38.75  46.25 1.25 40  46.25 0 40  47.5 0 40  47.5 1.25 40  47.5 2.5 40  46.25 2.5 40  46.25 2.5 38.75  37.5 3.75 38.75  36.25 3.75 38.75  37.5 5 38.75  37.5 5 40  37.5 3.75 40  36.25 3.75 40  38.75 3.75 38.75  40 3.75 38.75  40 5 38.75  40 5 40  40 3.75 40  38.75 3.75 40  38.75 5 38.75  38.75 5 40  41.25 3.75 38.75  42.5 3.75 38.75  42.5 5 38.75  42.5 5 40  42.5 3.75 40  41.25 3.75 40  41.25 5 38.75  41.25 5 40  43.75 3.75 38.75  43.75 3.75 37.5  45 3.75 38.75  45 3.75 37.5  45 5 37.5  45 5 38.75  45 5 40  45 3.75 40  43.75 3.75 40  43.75 5 38.75  43.75 5 37.5  43.75 5 40  46.25 3.75 38.75  46.25 3.75 37.5  46.25 2.5 37.5  47.5 2.5 37.5  47.5 3.75 38.75  47.5 3.75 37.5  47.5 5 37.5  47.5 5 38.75  47.5 5 40  47.5 2.5 38.75  47.5 3.75 40  46.25 3.75 40  46.25 5 38.75  46.25 5 37.5  46.25 5 40  48.75 3.75 38.75  48.75 3.75 40  48.75 5 40  50 5 40  48.75 5 38.75  38.75 6.25 38.75  40 6.25 38.75  40 7.5 38.75  40 7.5 40  40 6.25 40  38.75 6.25 40  38.75 7.5 38.75  38.75 7.5 40  41.25 6.25 38.75  42.5 6.25 38.75  42.5 7.5 38.75  42.5 7.5 40  42.5 6.25 40  41.25 6.25 40  41.25 7.5 38.75  41.25 7.5 40  43.75 6.25 38.75  43.75 6.25 37.5  45 6.25 38.75  45 6.25 37.5  45 7.5 37.5  45 7.5 38.75  45 7.5 40  45 6.25 40  43.75 6.25 40  43.75 7.5 38.75  43.75 7.5 37.5  43.75 7.5 40  46.25 6.25 38.75  46.25 6.25 37.5  47.5 6.25 38.75  47.5 6.25 37.5  47.5 7.5 37.5  47.5 7.5 38.75  47.5 7.5 40  47.5 6.25 40  46.25 6.25 40  46.25 7.5 38.75  46.25 7.5 37.5  46.25 7.5 40  48.75 6.25 38.75  48.75 6.25 37.5  48.75 5 37.5  50 5 37.5  50 6.25 38.75  50 6.25 37.5  50 7.5 37.5  50 7.5 38.75  50 7.5 40  50 5 38.75  50 6.25 40  48.75 6.25 40  48.75 7.5 38.75  48.75 7.5 37.5  48.75 7.5 40  38.75 8.75 38.75  40 8.75 38.75  40 10 38.75  40 10 40  40 8.75 40  38.75 8.75 40  38.75 10 38.75  38.75 10 40  41.25 8.75 38.75  42.5 8.75 38.75  42.5 10 38.75  42.5 10 40  42.5 8.75 40  41.25 8.75 40  41.25 10 38.75  41.25 10 40  43.75 8.75 38.75  43.75 8.75 37.5  45 8.75 38.75  45 8.75 37.5  45 10 37.5  45 10 38.75  45 10 40  45 8.75 40  43.75 8.75 40  43.75 10 38.75  43.75 10 37.5  43.75 10 40  46.25 8.75 38.75  46.25 8.75 37.5  47.5 8.75 38.75  47.5 8.75 37.5  47.5 10 37.5  47.5 10 38.75  47.5 10 40  47.5 8.75 40  46.25 8.75 40  46.25 10 38.75  46.25 10 37.5  46.25 10 40  48.75 8.75 38.75  48.75 8.75 37.5  50 8.75 38.75  50 8.75 37.5  50 10 37.5  50 10 38.75  50 10 40  50 8.75 40  48.75 8.75 40  48.75 10 38.75  48.75 10 37.5  48.75 10 40  38.75 11.25 38.75  40 11.25 38.75  40 12.5 38.75  40 12.5 40  40 11.25 40  38.75 11.25 40  38.75 12.5 38.75  38.75 12.5 40  41.25 11.25 38.75  42.5 11.25 38.75  42.5 12.5 38.75  42.5 12.5 40  42.5 11.25 40  41.25 11.25 40  41.25 12.5 38.75  41.25 12.5 40  43.75 11.25 38.75  43.75 11.25 37.5  45 11.25 38.75  45 11.25 37.5  45 12.5 37.5  45 12.5 38.75  45 12.5 40  45 11.25 40  43.75 11.25 40  43.75 12.5 38.75  43.75 12.5 37.5  43.75 12.5 40  46.25 11.25 38.75  46.25 11.25 37.5  47.5 11.25 38.75  47.5 11.25 37.5  47.5 12.5 37.5  47.5 12.5 38.75  47.5 12.5 40  47.5 11.25 40  46.25 11.25 40  46.25 12.5 38.75  46.25 12.5 37.5  46.25 12.5 40  48.75 11.25 38.75  48.75 11.25 37.5  50 11.25 38.75  50 11.25 37.5  50 12.5 37.5  50 12.5 38.75  50 12.5 40  50 11.25 40  48.75 11.25 40  48.75 12.5 38.75  48.75 12.5 37.5  48.75 12.5 40  40 13.75 38.75  38.75 13.75 38.75  40 15 38.75  40 15 40  40 13.75 40  38.75 13.75 40  38.75 15 38.75  38.75 15 40  41.25 13.75 38.75  42.5 13.75 38.75  42.5 15 38.75  42.5 15 40  42.5 13.75 40  41.25 13.75 40  41.25 15 38.75  41.25 15 40  43.75 13.75 38.75  43.75 13.75 37.5  45 13.75 38.75  45 13.75 37.5  45 15 37.5  45 15 38.75  45 15 40  45 13.75 40  43.75 13.75 40  43.75 15 38.75  43.75 15 37.5  43.75 15 40  46.25 13.75 38.75  46.25 13.75 37.5  47.5 13.75 38.75  47.5 13.75 37.5  47.5 15 37.5  47.5 15 38.75  47.5 15 40  47.5 13.75 40  46.25 13.75 40  46.25 15 38.75  46.25 15 37.5  46.25 15 40  48.75 13.75 38.75  48.75 13.75 37.5  50 13.75 38.75  50 13.75 37.5  50 15 37.5  50 15 38.75  50 15 40  50 13.75 40  48.75 13.75 40  48.75 15 38.75  48.75 15 37.5  48.75 15 40  40 16.25 38.75  38.75 16.25 38.75  40 17.5 38.75  40 17.5 40  40 16.25 40  38.75 16.25 40  38.75 17.5 38.75  38.75 17.5 40  41.25 16.25 38.75  41.25 16.25 37.5  42.5 16.25 38.75  42.5 16.25 37.5  42.5 17.5 37.5  42.5 17.5 38.75  42.5 17.5 40  42.5 16.25 40  41.25 16.25 40  41.25 17.5 38.75  41.25 17.5 37.5  41.25 17.5 40  43.75 16.25 38.75  43.75 16.25 37.5  45 16.25 38.75  45 16.25 37.5  45 17.5 37.5  45 17.5 38.75  45 17.5 40  45 16.25 40  43.75 16.25 40  43.75 17.5 38.75  43.75 17.5 37.5  43.75 17.5 40  46.25 16.25 38.75  46.25 16.25 37.5  47.5 16.25 38.75  47.5 16.25 37.5  47.5 17.5 37.5  47.5 17.5 38.75  47.5 17.5 40  47.5 16.25 40  46.25 16.25 40  46.25 17.5 38.75  46.25 17.5 37.5  46.25 17.5 40  48.75 16.25 38.75  48.75 16.25 37.5  50 16.25 38.75  50 16.25 37.5  50 17.5 37.5  50 17.5 38.75  50 17.5 40  50 16.25 40  48.75 16.25 40  48.75 17.5 38.75  48.75 17.5 37.5  48.75 17.5 40  40 18.75 38.75  38.75 18.75 38.75  40 20 38.75  40 20 40  40 18.75 40  38.75 18.75 40  38.75 20 38.75  38.75 20 40  41.25 18.75 38.75  41.25 18.75 37.5  42.5 18.75 38.75  42.5 18.75 37.5  42.5 20 37.5  42.5 20 38.75  42.5 20 40  42.5 18.75 40  41.25 18.75 40  41.25 20 38.75  41.25 20 37.5  41.25 20 40  43.75 18.75 38.75  43.75 18.75 37.5  45 18.75 38.75  45 18.75 37.5  45 20 37.5  45 20 38.75  45 20 40  45 18.75 40  43.75 18.75 40  43.75 20 38.75  43.75 20 37.5  43.75 20 40  46.25 18.75 38.75  47.5 18.75 38.75  47.5 18.75 40  47.5 20 40  46.25 18.75 40  46.25 20 40  46.25 20 38.75  48.75 18.75 38.75  50 18.75 38.75  50 18.75 40  50 20 40  48.75 18.75 40  48.75 20 40  43.75 21.25 38.75  46.25 21.25 38.75  37.5 1.25 41.25  36.25 1.25 41.25  37.5 2.5 41.25  37.5 2.5 42.5  37.5 0 41.25  36.25 0 41.25  37.5 0 42.5  37.5 1.25 42.5  36.25 1.25 42.5  36.25 0 42.5  36.25 2.5 41.25  36.25 2.5 42.5  38.75 1.25 41.25  40 1.25 41.25  40 2.5 41.25  40 2.5 42.5  38.75 0 41.25  40 0 41.25  40 0 42.5  40 1.25 42.5  38.75 1.25 42.5  38.75 0 42.5  38.75 2.5 41.25  38.75 2.5 42.5  41.25 1.25 41.25  42.5 1.25 41.25  42.5 2.5 41.25  42.5 2.5 42.5  41.25 0 41.25  42.5 0 41.25  42.5 0 42.5  42.5 1.25 42.5  41.25 1.25 42.5  41.25 0 42.5  41.25 2.5 41.25  41.25 2.5 42.5  43.75 1.25 41.25  45 1.25 41.25  45 2.5 41.25  45 2.5 42.5  43.75 0 41.25  45 0 41.25  45 0 42.5  45 1.25 42.5  43.75 1.25 42.5  43.75 0 42.5  43.75 2.5 41.25  43.75 2.5 42.5  46.25 1.25 41.25  47.5 1.25 41.25  47.5 2.5 4
[...]
<PointData  Vectors="u"> 
<DataArray  type="Float64"  Name="u"  NumberOfComponents="3" format="ascii">1.9999999997432315e+02 6.4399950457858148e-10 -1.3235841185977711e-11  1.9999999997333515e+02 -1.3355103357664044e-10 -1.1151824301830785e-10  1.9999999997319500e+02 -2.5676533215949459e-10 -9.7937499777844068e-11  1.9999999997335138e+02 -3.2709878159100749e-11 -3.2997462220672295e-11  1.9999999997274409e+02 6.1147586840956107e-10 -3.0305058877066473e-11  1.9999999997246957e+02 -1.1923858012248221e-10 -7.2772812304941250e-11  1.9999999997260130e+02 -6.0556136312129186e-11 1.8129851142253359e-11  1.9999999997273613e+02 9.7990398006579898e-11 -9.0617837165208336e-12  1.9999999997264683e+02 9.7562928493996812e-12 -2.2567851456203003e-11  1.9999999997278897e+02 9.4859179764435661e-11 9.0186161312186262e-11  1.9999999997334135e+02 -3.3875970085911618e-10 2.9749976371867872e-11  1.9999999997263484e+02 1.3378934373665777e-10 7.7098555787234177e-12  1.9999999997274836e+02 5.3640037425736567e-10 8.1969366674857240e-11  1.9999999997269717e+02 -1.0368805518436408e-10 -5.4145059540065250e-12  1.9999999997414545e+02 2.7345319036385504e-11 -5.4487907222904946e-11  1.9999999997432710e+02 5.1328100634397725e-10 4.1315695510119261e-11  1.9999999997330573e+02 -8.2460270914492919e-11 -8.6075820469925344e-11  1.9999999997342360e+02 1.2353326656544154e-10 -7.2072124355046987e-11  1.9999999997418246e+02 -1.0943367080314675e-10 1.4214161022942751e-11  1.9999999997433690e+02 1.0623271306565958e-10 -3.0058641834777770e-11  1.9999999997330130e+02 -2.2960359142280231e-10 -1.4456248071982684e-10  1.9999999997337204e+02 -9.2327101753355382e-11 5.5184511225490679e-11  1.9999999997401665e+02 -1.2108920489251252e-10 -1.2177865967265847e-10  1.9999999997424712e+02 4.9033366307361414e-12 1.9347350333218725e-11  1.9999999997429333e+02 7.2905835266005520e-11 8.1054963765085155e-11  1.9999999997336960e+02 2.5960462774358903e-11 -1.0292500067944147e-10  1.9999999997419724e+02 1.3731367151302350e-11 -2.7243390510203231e-11  1.9999999997182439e+02 -1.5031876088086268e-10 -5.9911868802749519e-11  1.9999999997160765e+02 -4.1908853137920126e-10 -1.7325090106627905e-10  1.9999999997185898e+02 -2.7430719083899961e-11 2.0004812584066231e-11  1.9999999997120815e+02 5.9534850179733583e-10 -2.0030405625926699e-11  1.9999999997084979e+02 -1.8549269407587675e-10 -4.4460071344332965e-11  1.9999999997100892e+02 2.1103977109379325e-11 -3.8776371353848498e-11  1.9999999997120869e+02 6.0738807716532580e-10 7.9396555202783599e-11  1.9999999997109046e+02 -7.4666011440856315e-11 -5.1867810021658135e-11  1.9999999997121165e+02 1.2590790926569099e-10 1.8181946160373497e-11  1.9999999997174373e+02 -9.3516167263918057e-11 -9.7227316372598633e-11  1.9999999997180160e+02 -4.0238015683061406e-11 -5.5533416635192402e-11  1.9999999997184653e+02 5.1437886604571207e-11 -1.3560531644581612e-10  1.9999999997179435e+02 -2.8357226985380603e-10 -2.0813413004984225e-11  1.9999999997032495e+02 -9.5057239777717960e-11 -7.6526847103911620e-11  1.9999999997023551e+02 -4.2098201395082470e-10 -6.6474913526256587e-11  1.9999999997020674e+02 -2.0040546925712082e-10 -2.0022247204965411e-10  1.9999999997033956e+02 -2.3002197537006290e-11 -5.7628842254125933e-11  1.9999999996970740e+02 5.5539715397940296e-10 5.8345634156102917e-12  1.9999999996955967e+02 -1.0659463879691548e-10 -3.6416247256596577e-11  1.9999999996970973e+02 1.5288274052960091e-10 -4.2722688443436427e-11  1.9999999997035670e+02 -3.0456556346640769e-11 -1.2179261105004517e-11  1.9999999997400050e+02 -1.1822042863436602e-10 -1.2236831211532035e-10  1.9999999997415892e+02 6.0920900623072320e-11 6.1568524122110601e-11  1.9999999997494092e+02 -1.0290304644533890e-10 -1.1183029688762931e-10  1.9999999997483110e+02 -2.2986461079046905e-10 -8.5526561094833504e-11  1.9999999997434332e+02 1.1925833284338901e-10 -4.4118087921983840e-11  1.9999999997418479e+02 4.7945900659149341e-13 -4.5994839090296124e-11  1.9999999997429455e+02 1.0240600717178356e-10 6.2739456171654896e-11  1.9999999997417052e+02 -3.3346095791654673e-11 -3.9945656039757572e-11  1.9999999997492887e+02 -1.4984097784678615e-10 -1.1679323910676209e-10  1.9999999997498946e+02 -1.5390838080399193e-11 5.4852395110943534e-11  1.9999999997333981e+02 -8.6622751474536882e-11 -1.5242343875573455e-10  1.9999999997321780e+02 -1.7295912804759143e-10 -8.3148323148392583e-11  1.9999999997255057e+02 -1.0032396289709558e-10 -1.1365574425264686e-10  1.9999999997257649e+02 -6.6836912283984732e-13 9.1616476065005976e-11  1.9999999997273099e+02 1.1831049363245648e-10 -3.2134394352851849e-11  1.9999999997265041e+02 1.3156216607568769e-11 -1.3757983921451767e-11  1.9999999997275594e+02 8.4780695029408646e-11 5.6298144477102051e-11  1.9999999997270490e+02 -3.2743065192962057e-11 -2.0312238934706975e-11  1.9999999997330579e+02 -1.1973383568493425e-10 -1.3420941686233519e-10  1.9999999997330411e+02 -1.2591334621608249e-10 -1.5045698019620024e-10  1.9999999997336005e+02 -7.2881873372519315e-11 -8.4607510493269041e-12  1.9999999997338864e+02 4.5080461578427029e-11 1.2964449664071613e-11  1.9999999997184597e+02 -8.2570987501098325e-11 -5.1504099036641889e-11  1.9999999997176255e+02 -1.0419675377937701e-10 -1.7471689942322698e-10  1.9999999997104140e+02 -1.2546825453990351e-11 -2.7725418589533211e-11  1.9999999997122055e+02 1.1266803832855286e-10 -1.3858710867490099e-11  1.9999999997193257e+02 1.7934345756234269e-11 -3.1147942104198511e-12  1.9999999997181359e+02 -2.2787736114386864e-10 -5.1298749774048722e-11  1.9999999997404197e+02 -1.2693512289151830e-10 -1.2583756513286569e-10  1.9999999997416433e+02 -6.3307852945981572e-11 2.3196104924144468e-12  1.9999999997491770e+02 -7.0558616649893075e-11 -9.7172295581807797e-11  1.9999999997480032e+02 -2.2999193180320466e-10 -9.2137972060839480e-11  1.9999999997434492e+02 1.2069586675746114e-10 -5.4498393969625543e-11  1.9999999997421102e+02 9.7921638824994524e-12 -1.5109206749327779e-11  1.9999999997431141e+02 9.8516529728693069e-11 9.2498183792186254e-11  1.9999999997418840e+02 -1.4111249602168242e-11 -1.6577739930534258e-13  1.9999999997487998e+02 -1.7546945054138529e-10 -7.0504744814325722e-11  1.9999999997495243e+02 -5.8153617161450794e-12 5.2660708081458786e-11  1.9999999997333492e+02 -6.8060094490160682e-11 -1.1953036716477752e-10  1.9999999997324153e+02 -1.9923345040828361e-10 -1.5898379663731105e-10  1.9999999997254875e+02 -1.2336696668865531e-10 -1.4319675766335260e-10  1.9999999997258007e+02 -3.2019135443112157e-11 4.0182965819300990e-11  1.9999999997270692e+02 1.2590244117026353e-10 -3.9022660075643207e-11  1.9999999997264970e+02 3.8549584304211669e-11 -3.3126797680325873e-11  1.9999999997274858e+02 1.1075027528921077e-10 5.2939897790105459e-11  1.9999999997265908e+02 -4.0105456276287299e-12 -4.3372742118390812e-12  1.9999999997331199e+02 -6.4207878117028977e-11 -1.4064234689973499e-10  1.9999999997332202e+02 -1.1388007172953643e-10 -1.0786804922579887e-10  1.9999999997343977e+02 -3.8936083684961347e-11 -1.3976243375148503e-11  1.9999999997339589e+02 -4.7304472180828159e-12 -2.0197490114439812e-11  1.9999999997186265e+02 -6.2391418171567749e-11 -5.9591991442622915e-11  1.9999999997179123e+02 -9.5342490884476124e-11 -2.1362124583787440e-10  1.9999999997105829e+02 -9.8066965134014251e-12 -1.6402687359991335e-11  1.9999999997123834e+02 1.0868928767473953e-10 -9.8984103910967346e-12  1.9999999997186671e+02 3.6826407347977821e-11 -9.7181989736243489e-11  1.9999999997179808e+02 -1.9688806560445848e-10 -1.6014600290255797e-11  1.9999999997406746e+02 -8.8591694493950512e-11 -1.3500165339397446e-10  1.9999999997416006e+02 6.7182690617156244e-12 4.0389557244417271e-11  1.9999999997488959e+02 -7.9577638520990434e-11 -1.2591829346438877e-10  1.9999999997481581e+02 -1.7097945926151074e-10 -8.1652960841519142e-11  1.9999999997436376e+02 7.8717963102552929e-11 -3.8042051010434683e-11  1.9999999997422620e+02 7.3573474453427305e-12 -6.0777570363665822e-11  1.9999999997432064e+02 8.1083907404096605e-11 7.6361051732300451e-11  1.9999999997422523e+02 -4.9149434430757046e-11 -1.6521613328910042e-11  1.9999999997336323e+02 -7.8515148528144967e-11 -1.3223589266735123e-10  1.9999999997320970e+02 -1.5687056715337272e-10 -1.0476052637504140e-10  1.9999999997249833e+02 -6.8698146578192355e-11 -1.4215083700308707e-10  1.9999999997257888e+02 -4.4735321149425563e-11 6.8684020951286626e-11  1.9999999997271667e+02 1.0724088673378351e-10 -4.4968376137054908e-12  1.9999999997264493e+02 1.0103579159828474e-11 -1.3007928237176699e-11  1.9999999997276046e+02 1.1861807460787204e-10 4.0239560267447628e-11  1.9999999997264612e+02 -5.8516848187960932e-12 -4.4035520409729928e-11  1.9999999997332151e+02 -1.0507561481539576e-10 -1.9686172203058573e-10  1.9999999997334388e+02 -1.4657721320198203e-10 -1.4572559404423441e-10  1.9999999997338361e+02 -7.4087593617494682e-11 7.1971748338766239e-12  1.9999999997342090e+02 3.5773844082877806e-12 -1.0994057073756080e-11  1.9999999997182638e+02 -8.8668135728438956e-11 -5.6290240456799452e-11  1.9999999997181794e+02 -1.1145627483641221e-10 -2.1473864815863176e-10  1.9999999997100386e+02 -3.4758967583770222e-11 5.6074164602786268e-13  1.9999999997124357e+02 9.8318023972552079e-11 -1.0837871841137248e-11  1.9999999997181942e+02 1.3226948580786923e-11 -2.0187237006593044e-11  1.9999999997175127e+02 -2.0643591175473405e-10 -6.1389452575742174e-11  1.9999999997337486e+02 -6.1031093415248040e-11 -1.1610699523432017e-10  1.9999999997324738e+02 -1.7453783858366330e-10 -1.0782300501700074e-10  1.9999999997248975e+02 -1.4794861495922302e-10 -1.0921556599298098e-10  1.9999999997254565e+02 -5.9861092798341372e-11 5.9449722427525101e-11  1.9999999997267849e+02 9.6569553821146423e-11 -3.3127017328986095e-11  1.9999999997261338e+02 -2.2936987383651146e-11 -5.3213872852528492e-11  1.9999999997272792e+02 7.7449484491043286e-11 5.0857181809405038e-11  1.9999999997262367e+02 -3.6705093952619547e-11 -5.3370393639956152e-11  1.9999999997337704e+02 -1.1445337815267512e-10 -2.2183867574337357e-10  1.9999999997418499e+02 -1.4925389495615049e-11 5.3005019035214236e-11  1.9999999997433468e+02 1.5499798505997515e-10 -4.5782841680561842e-11  1.9999999997328905e+02 -1.4304356385805859e-10 -1.3631526396423383e-10  1.9999999997336633e+02 -8.2100901980775363e-11 1.5287208703184462e-11  1.9999999997337713e+02 1.5920508942975243e-12 -7.2942376202255040e-11  1.9999999997181175e+02 -1.0481617958141666e-10 -6.9216900596188593e-11  1.9999999997176030e+02 -1.5780748441794341e-10 -2.0995455230223443e-10  1.9999999997107747e+02 -3.2358981308669947e-11 -1.9486471122867389e-11  1.9999999997125104e+02 6.2720953956452417e-11 1.3031783191744205e-11  1.9999999997183667e+02 -2.0514992958719155e-12 -4.8778793684157898e-11  1.9999999997177864e+02 -2.7586773004126599e-10 -5.4096843748225667e-11  1.9999999997331906e+02 -8.4389508506268080e-11 -9.5871889722812377e-11  1.9999999997238604e+02 -1.2334806890797423e-10 -5.9518286086827699e-11  1.9999999997262367e+02 -5.5228197957917916e-11 -5.3218522374318160e-11  1.9999999997272289e+02 1.1553056954929611e-10 3.5317205458990039e-11  1.9999999997331338e+02 -1.2270816110710340e-10 -2.1122048817702168e-10  1.9999999997338250e+02 2.0615779881391798e-12 -2.7838097940105427e-11  1.9999999997330539e+02 -2.8550960146409263e-10 -4.2358291092541418e-11  1.9999999997179492e+02 -3.7967417846870711e-11 -7.2095024936002101e-11  1.9999999997175297e+02 -1.2479056244781771e-10 -1.8973168568550738e-10  1.9999999997104743e+02 -2.6817277823009747e-11 1.9460646209671442e-11  1.9999999997121191e+02 1.2260415599325632e-10 6.3434080872971457e-13  1.9999999997189684e+02 -8.1189245560926286e-11 1.8938489917117762e-12  1.9999999997256080e+02 3.4451555030259541e-11 5.3274300591122480e-12  1.9999999997331417e+02 -8.3661363835079958e-11 -1.9501542098329765e-10  1.9999999997335516e+02 -5.4615602495689167e-11 -8.1145249538697409e-11  1.9999999997275231e+02 1.4603504788833995e-10 1.5843188781036855e-11  1.9999999997343474e+02 5.7369644766816674e-11 2.8937410451485202e-12  1.9999999997335468e+02 -1.9052531269961700e-10 -8.6051442506025964e-11  1.9999999997252732e+02 4.1317050413567852e-11 1.7781400715215221e-11  1.9999999997332387e+02 -6.6138648996293888e-11 -2.5081923777284365e-10  1.9999999997339233e+02 -2.1202550225959468e-11 -4.3426114934302717e-11  1.9999999997274756e+02 4.1978994578506262e-11 -9.0357148192845156e-12  1.9999999997433778e+02 -5.6860973792488244e-13 4.0645325033699059e-11  1.9999999997341689e+02 4.4672264302298429e-11 4.5502143922509347e-11  1.9999999997406749e+02 -1.6309525938914099e-11 -1.3829519765134563e-10  1.9999999997490673e+02 -5.6186120295933414e-11 -9.8427600618027388e-11  1.9999999997414275e+02 4.8067367805523157e-11 -8.1631724813228603e-11  1.9999999997433531e+02 5.4396278728037702e-11 9.2699554334690965e-11  1.9999999997414901e+02 2.2441022639464672e-11 2.8823974492845308e-12  1.9999999997494783e+02 -2.9065529031818522e-10 -5.1677758283735307e-11  1.9999999997431436e+02 4.4264586058036934e-10 7.7852527159170151e-11  1.9999999997421526e+02 -6.2999397641663915e-11 1.2761286867301329e-11  1.9999999997487726e+02 -4.0884648210433100e-11 -1.5935200412243492e-10  1.9999999997497406e+02 2.9889894775465064e-11 -9.8022985434113548e-11  1.9999999997484539e+02 7.0950782916304294e-13 -2.1390504823582795e-10  1.9999999997591493e+02 3.5499270042398647e-11 8.7074700401784050e-11  1.9999999997499683e+02 1.9704828191379840e-11 -1.1304959128022677e-10  1.9999999997335453e+02 -7.3308224139437085e-11 -1.2335787972855284e-10  1.9999999997253616e+02 -2.8863986152443478e-11 -1.1821872916472350e-10  1.9999999997260218e+02 7.2921939289182420e-12 -6.5317423313221858e-11  1.9999999997278573e+02 3.5803931435124263e-11 1.0739657971246349e-10  1.9999999997337210e+02 -3.6036761696978349e-10 -6.1008931368931395e-11  1.9999999997262535e+02 8.6929058859752170e-11 -5.7740023113127540e-11  1.9999999997275890e+02 4.6868580156652030e-10 7.6831913489380931e-11  1.9999999997267645e+02 -3.8658131136267071e-11 -2.9831719749955876e-11  1.9999999997332876e+02 -3.2757849605578756e-11 -1.4942847617980365e-10  1.9999999997335652e+02 3.4447080593809977e-11 -7.7636475102343778e-11  1.9999999997324997e+02 -1.0264303343807845e-11 -1.9504598253372628e-10  1.9999999997337545e+02 3.4867196446013436e-11 -7.8589927392213672e-11  1.9999999997177207e+02 -9.3654080271363603e-11 -9.4587003567493439e-11  1.9999999997084143e+02 -1.0161857096509761e-10 -9.5350892497471975e-11  1.9999999997114926e+02 -1.7129084914747692e-11 -2.8048765134233688e-11  1.9999999997123297e+02 4.4933190610100380e-11 1.1495575334006172e-10  1.9999999997180257e+02 -4.0701205957014163e-10 -1.3253113459352355e-11  1.9999999997103913e+02 6.4603896559276124e-11 -2.2029987677989716e-11  1.9999999997121566e+02 4.7462431141574033e-10 9.4231462065362052e-11  1.9999999997113090e+02 -4.8062631717777537e-11 5.3267174322724010e-11  1.9999999997177085e+02 2.9432923147894721e-12 -1.6463637045375277e-10  1.9999999997185776e+02 2.9599339447267097e-11 -8.8169199185609624e-11  1.9999999997166228e+02 6.2773615164623008e-12 -2.1737011882014567e-10  1.9999999997186356e+02 1.3664036669829001e-11 -6.7682854478702809e-11  1.9999999997025833e+02 -1.5755659371331567e-10 -8.8876816341467167e-11  1.9999999996935941e+02 -9.6155102326665253e-11 -9.4670728931529952e-11  1.9999999996957706e+02 2.5813102701824379e-11 -3.7580258238261687e-11  1.9999999996969868e+02 1.0541684404877018e-10 9.2243939083514716e-11  1.9999999997028016e+02 -3.8441669997707343e-10 3.3050461269614303e-12  1.9999999996950953e+02 1.2264546458660759e-10 -9.8449818554018967e-12  1.9999999996967097e+02 4.7994424708561007e-10 1.0346382932175742e-10  1.9999999996964303e+02 -8.9247359617779035e-11 2.2688682627410985e-11  1.9999999997017804e+02 -1.8632467714562606e-11 -6.8786650909787787e-11  1.9999999997029894e+02 1.7643006293817110e-11 -5.6951865523412121e-11  1.9999999997022772e+02 -1.5446275310966875e-10 -8.4731847322404644e-11  1.9999999997029332e+02 4.6985929390539826e-11 -8.8642536641903355e-11  1.9999999996882397e+02 -1.7020021552285380e-10 -5.8954355437471205e-11  1.9999999996866347e+02 -4.1777891992882837e-10 -6.6905455787357435e-11  1.9999999996876323e+02 -9.3770961105017153e-11 -4.7268977225026239e-11  1.9999999996884651e+02 1.9940906277289137e-12 -8.2456110181773517e-11  1.9999999996814614e+02 5.4566228756579225e-10 3.0679904890688762e-11  1.9999999996798459e+02 -9.5047841061933363e-11 -7.3906110122691636e-13  1.9999999996816450e+02 7.4356252592480105e-11 3.4522211242634560e-11  1.9999999996881104e+02 7.5962062575638895e-11 -1.2912455998785147e-10  1.9999999996875135e+02 -2.3825073619133684e-10 -1.7834895872882057e-12  1.9999999997405760e+02 -9.7575643115874381e-11 -1.5050252907504524e-10  1.9999999997493325e+02 -8.0277219477950874e-11 -1.2706336272334007e-10  1.9999999997421406e+02 5.7505062084558055e-12 -5.7114784575996621e-11  1.9999999997431738e+02 9.2764757696260460e-11 6.1040054977175996e-11  1.9999999997421247e+02 -3.7034897951083593e-11 -4.0279897712853745e-11  1.9999999997490428e+02 -9.0273242984500089e-11 -2.2097874693464945e-10  1.9999999997333978e+02 -7.3138438077327980e-11 -9.4079345185263373e-11  1.9999999997251231e+02 -7.9076636791073969e-11 -1.9033308407971134e-10  1.9999999997268014e+02 -5.3053480109571634e-12 -5.7553758453547165e-11  1.9999999997274895e+02 9.1210319112618816e-11 7.0910380056643380e-11  1.9999999997265451e+02 -4.7961743921765219e-11 -1.7570107455239174e-11  1.9999999997331005e+02 -8.9279044413612619e-11 -1.8367958933533640e-10  1.9999999997331975e+02 -1.5346282785927211e-10 -1.2500603420058501e-10  1.9999999997340475e+02 -1.8935903560609871e-11 -2.7566445697749883e-11  1.9999999997180581e+02 -6.9143017317594067e-11 -1.1214975617969154e-10  1.9999999997094091e+02 -9.6713794613645205e-11 -1.0091114427579009e-10  1.9999999997110385e+02 8.7544766911886716e-12 -4.3924457049729785e-11  1.9999999997122291e+02 7.8450766371464622e-11 4.7066876355396100e-11  1.9999999997112010e+02 -7.9632539395664739e-12 -3.8050310529180633e-11  1.9999999997179302e+02 -1.0871148754139883e-10 -1.7465690720049488e-10  1.9999999997178682e+02 -1.9569716389270022e-10 -1.5203034444730405e-10  1.9999999997186887e+02 1.3419112831750084e-11 -2.0943407427567752e-11  1.9999999997026629e+02 -8.6850268277311540e-11 -9.3876506163505291e-11  1.9999999997019916e+02 -2.1201266890136281e-10 -1.0686258493629244e-10  1.9999999996947693e+02 -1.1099802943190725e-10 -9.0610108677168987e-11  1.9999999996951735e+02 -4.9591038603593116e-11 2.2223512820656054e-11  1.9999999996969407e+02 1.0619783330205710e-10 -4.3045360004021474e-11  1.9999999996959895e+02 -9.8647836837632774e-12 -7.9030792102802752e-12  1.9999999996969314e+02 9.4110323223777725e-11 7.3488697638490182e-11  1.9999999996962626e+02 -1.1051687183823457e-11 -4.4743244368694016e-11  1.9999999997022738e+02 -8.6845473144812952e-11 -1.5367390721321675e-10  1.9999999997021487e+02 -1.4921377483486862e-10 -6.5214684812004746e-11  1.9999999997031009e+02 -3.5403957646718165e-11 4.7348839086234867e-12  1.9999999997035493e+02 -9.8603031456618247e-12 -3.7788959768913538e-11  1.9999999996877605e+02 -6.5006318709126052e-11 -8.4973480531192006e-11  1.9999999996865657e+02 -1.8956431732765233e-10 -5.8824093693534800e-11  1.9999999996879691e+02 -1.8635452163286533e-11 1.2943223971179889e-10  1.9999999996817860e+02 4.4368729551250422e-11 -2.7372140054101343e-11  1.9999999996797820e+02 -1.0453489727547647e-10 -6.0734394171605982e-12  1.9999999996799434e+02 -3.5963981241596246e-11 2.0199709758657761e-11  1.9999999996816373e+02 9.9678275942056307e-11 -4.7626208406115963e-11  1.9999999996802953e+02 -2.8636016924386970e-11 4.4226460057908273e-13  1.9999999996813344e+02 7.6088228273688503e-11 4.9980023971771847e-11  1.9999999996803456e+02 4.7100828486548390e-11 -1.7061936240478006e-11  1.9999999996792613e+02 -2.8009816755674609e-11 2.1222360166320421e-11  1.9999999996873629e+02 -9.9942289137198092e-11 -1.6766450407976974e-10  1.9999999996874064e+02 -1.9413861389929560e-10 -5.477613360075