<?xml version="1.0"?>
<VTKFile type="UnstructuredGrid"  version="0.1"  >
<UnstructuredGrid>
<Piece  NumberOfPoints="3890" NumberOfCells="19071">
<Points>
<DataArray  type="Float64"  NumberOfComponents="3"  format="ascii">25 17.5 25  25 17.5 26.25  25 16.25 26.25  23.75 16.25 26.25  25 17.5 27.5  23.75 17.5 26.25  25 18.75 26.25  25 18.75 25  23.75 18.75 26.25  23.75 18.75 25  25 20 25  25 20 26.25  25 20 27.5  25 18.75 27.5  22.5 15 7.5  22.5 16.25 8.75  22.5 16.25 7.5  21.25 16.25 8.75  22.5 17.5 7.5  22.5 17.5 8.75  22.5 17.5 10  22.5 15 8.75  22.5 15 10  22.5 16.25 10  21.25 16.25 10  22.5 18.75 8.75  22.5 18.75 7.5  21.25 18.75 8.75  22.5 20 7.5  22.5 20 8.75  22.5 20 10  22.5 18.75 10  21.25 18.75 10  22.5 16.25 11.25  21.25 16.25 11.25  22.5 17.5 11.25  22.5 17.5 12.5  21.25 17.5 11.25  22.5 18.75 11.25  21.25 18.75 11.25  22.5 20 11.25  22.5 20 12.5  22.5 18.75 12.5  21.25 18.75 12.5  22.5 21.25 11.25  22.5 21.25 10  21.25 21.25 11.25  22.5 22.5 10  22.5 22.5 11.25  22.5 22.5 12.5  22.5 21.25 12.5  23.75 17.5 13.75  22.5 17.5 13.75  23.75 16.25 13.75  22.5 17.5 15  23.75 17.5 15  25 17.5 15  22.5 18.75 13.75  21.25 18.75 13.75  22.5 20 13.75  22.5 20 15  22.5 18.75 15  21.25 18.75 15  23.75 18.75 13.75  23.75 18.75 15  25 18.75 15  25 20 15  23.75 20 15  23.75 20 13.75  22.5 21.25 13.75  21.25 21.25 13.75  22.5 22.5 13.75  22.5 22.5 15  22.5 21.25 15  23.75 21.25 13.75  23.75 21.25 15  25 21.25 15  25 22.5 15  23.75 22.5 15  23.75 22.5 13.75  23.75 23.75 13.75  23.75 23.75 15  25 23.75 15  25 25 15  22.5 18.75 16.25  21.25 18.75 16.25  22.5 20 16.25  22.5 20 17.5  22.5 17.5 16.25  22.5 17.5 17.5  22.5 18.75 17.5  23.75 18.75 16.25  25 18.75 16.25  25 20 16.25  25 20 17.5  23.75 17.5 16.25  25 17.5 16.25  25 17.5 17.5  25 18.75 17.5  23.75 18.75 17.5  23.75 17.5 17.5  23.75 20 16.25  23.75 20 17.5  23.75 21.25 16.25  25 21.25 16.25  25 22.5 16.25  25 22.5 17.5  25 21.25 17.5  23.75 21.25 17.5  23.75 22.5 16.25  22.5 22.5 17.5  23.75 22.5 17.5  22.5 22.5 16.25  23.75 23.75 16.25  25 23.75 16.25  25 25 16.25  25 25 17.5  25 23.75 17.5  23.75 23.75 17.5  23.75 18.75 18.75  25 18.75 18.75  25 20 18.75  25 20 20  25 17.5 18.75  25 17.5 20  25 18.75 20  23.75 18.75 20  23.75 20 18.75  23.75 21.25 18.75  25 21.25 18.75  25 22.5 18.75  25 22.5 20  25 21.25 20  23.75 22.5 18.75  23.75 23.75 18.75  25 23.75 18.75  25 25 18.75  25 25 20  25 23.75 20  25 18.75 21.25  23.75 18.75 21.25  25 20 21.25  25 20 22.5  25 17.5 21.25  25 17.5 22.5  25 18.75 22.5  22.5 17.5 22.5  23.75 18.75 22.5  23.75 17.5 22.5  23.75 17.5 23.75  23.75 16.25 23.75  25 17.5 23.75  23.75 18.75 23.75  25 18.75 23.75  25 20 23.75  22.5 23.75 15  22.5 25 15  23.75 25 15  22.5 25 12.5  23.75 25 13.75  22.5 25 13.75  23.75 26.25 13.75  23.75 26.25 15  25 26.25 15  25 27.5 15  23.75 25 16.25  23.75 26.25 16.25  25 26.25 16.25  25 27.5 16.25  25 27.5 17.5  25 26.25 17.5  23.75 27.5 16.25  25 28.75 16.25  25 28.75 15  23.75 28.75 16.25  25 30 15  25 28.75 17.5  26.25 21.25 21.25  25 21.25 21.25  26.25 21.25 22.5  25 21.25 22.5  25 22.5 22.5  26.25 22.5 22.5  27.5 22.5 22.5  26.25 21.25 23.75  26.25 22.5 23.75  27.5 22.5 23.75  27.5 22.5 25  25 21.25 23.75  26.25 21.25 25  25 21.25 25  25 22.5 25  26.25 22.5 25  25 22.5 23.75  26.25 23.75 23.75  27.5 23.75 23.75  27.5 23.75 25  27.5 25 25  26.25 23.75 25  25 25 25  26.25 25 25  28.75 23.75 23.75  28.75 22.5 23.75  28.75 23.75 25  28.75 22.5 25  30 22.5 25  30 23.75 25  30 25 25  28.75 25 25  26.25 21.25 26.25  26.25 22.5 26.25  27.5 22.5 26.25  27.5 22.5 27.5  25 21.25 26.25  26.25 21.25 27.5  25 21.25 27.5  25 22.5 27.5  26.25 22.5 27.5  25 22.5 26.25  26.25 23.75 26.25  27.5 23.75 26.25  27.5 25 26.25  27.5 25 27.5  27.5 23.75 27.5  26.25 23.75 27.5  26.25 25 26.25  25 25 27.5  26.25 25 27.5  28.75 23.75 26.25  30 23.75 26.25  30 25 26.25  30 25 27.5  28.75 22.5 26.25  30 22.5 26.25  30 22.5 27.5  30 23.75 27.5  28.75 23.75 27.5  28.75 22.5 27.5  28.75 25 26.25  28.75 25 27.5  31.25 23.75 26.25  31.25 23.75 25  31.25 22.5 25  32.5 22.5 25  32.5 23.75 26.25  32.5 23.75 25  32.5 25 25  31.25 22.5 26.25  32.5 22.5 26.25  32.5 22.5 27.5  32.5 23.75 27.5  31.25 23.75 27.5  31.25 22.5 27.5  31.25 25 25  33.75 23.75 26.25  33.75 22.5 26.25  33.75 23.75 27.5  33.75 22.5 27.5  35 22.5 27.5  26.25 26.25 26.25  26.25 26.25 25  26.25 21.25 28.75  26.25 20 27.5  27.5 20 27.5  27.5 21.25 28.75  27.5 21.25 27.5  27.5 22.5 28.75  26.25 22.5 28.75  28.75 21.25 28.75  28.75 22.5 28.75  26.25 23.75 28.75  27.5 23.75 28.75  28.75 23.75 28.75  30 23.75 28.75  31.25 23.75 28.75  33.75 23.75 28.75  30 15 15  31.25 15 15  31.25 13.75 15  31.25 13.75 13.75  32.5 15 15  31.25 15 16.25  31.25 13.75 16.25  32.5 15 16.25  32.5 15 17.5  30 15 16.25  30 15 17.5  31.25 15 17.5  35 15 15  36.25 15 16.25  35 15 16.25  36.25 13.75 16.25  35 15 17.5  36.25 15 17.5  37.5 15 17.5  30 16.25 16.25  28.75 16.25 16.25  30 16.25 17.5  30 17.5 17.5  28.75 16.25 17.5  27.5 17.5 17.5  28.75 17.5 17.5  31.25 16.25 16.25  32.5 16.25 16.25  32.5 16.25 17.5  32.5 17.5 17.5  31.25 16.25 17.5  31.25 17.5 17.5  35 16.25 16.25  33.75 16.25 16.25  35 16.25 17.5  35 17.5 17.5  33.75 16.25 17.5  33.75 15 17.5  33.75 17.5 17.5  36.25 16.25 16.25  36.25 16.25 17.5  37.5 16.25 17.5  37.5 17.5 17.5  36.25 17.5 17.5  26.25 17.5 18.75  26.25 17.5 17.5  26.25 16.25 18.75  27.5 17.5 18.75  27.5 17.5 20  26.25 17.5 20  26.25 16.25 20  30 16.25 18.75  28.75 16.25 18.75  30 17.5 18.75  30 17.5 20  30 16.25 20  28.75 16.25 20  28.75 17.5 18.75  28.75 17.5 20  31.25 16.25 18.75  32.5 16.25 18.75  32.5 17.5 18.75  32.5 17.5 20  32.5 16.25 20  31.25 16.25 20  31.25 17.5 18.75  31.25 17.5 20  33.75 16.25 18.75  35 16.25 18.75  35 17.5 18.75  35 17.5 20  35 16.25 20  33.75 16.25 20  33.75 17.5 18.75  33.75 17.5 20  36.25 16.25 18.75  37.5 16.25 18.75  37.5 17.5 18.75  37.5 17.5 20  37.5 15 18.75  37.5 15 20  37.5 16.25 20  36.25 16.25 20  36.25 17.5 18.75  36.25 17.5 20  26.25 18.75 18.75  27.5 18.75 18.75  27.5 18.75 20  27.5 20 20  26.25 18.75 20  26.25 20 20  28.75 18.75 18.75  30 18.75 18.75  30 18.75 20  30 20 20  28.75 18.75 20  28.75 20 20  31.25 18.75 18.75  32.5 18.75 18.75  32.5 18.75 20  32.5 20 20  31.25 18.75 20  31.25 20 20  33.75 18.75 18.75  35 18.75 18.75  35 18.75 20  35 20 20  33.75 18.75 20  33.75 20 20  36.25 18.75 18.75  37.5 18.75 18.75  37.5 18.75 20  37.5 20 20  36.25 18.75 20  36.25 20 20  27.5 17.5 21.25  27.5 16.25 21.25  26.25 16.25 21.25  27.5 17.5 22.5  27.5 15 22.5  27.5 16.25 22.5  26.25 16.25 22.5  26.25 17.5 21.25  26.25 17.5 22.5  30 17.5 21.25  30 16.25 21.25  28.75 16.25 21.25  30 17.5 22.5  30 16.25 22.5  28.75 16.25 22.5  28.75 17.5 21.25  28.75 17.5 22.5  32.5 17.5 21.25  32.5 16.25 21.25  31.25 16.25 21.25  32.5 17.5 22.5  32.5 16.25 22.5  31.25 16.25 22.5  31.25 17.5 21.25  31.25 17.5 22.5  35 17.5 21.25  35 16.25 21.25  33.75 16.25 21.25  35 17.5 22.5  35 16.25 22.5  33.75 16.25 22.5  33.75 17.5 21.25  33.75 17.5 22.5  37.5 16.25 21.25  36.25 16.25 21.25  37.5 17.5 21.25  37.5 17.5 22.5  37.5 15 21.25  37.5 15 22.5  37.5 16.25 22.5  36.25 16.25 22.5  36.25 17.5 21.25  36.25 17.5 22.5  26.25 18.75 21.25  27.5 18.75 21.25  27.5 20 21.25  27.5 20 22.5  27.5 18.75 22.5  26.25 18.75 22.5  26.25 20 21.25  26.25 20 22.5  28.75 18.75 21.25  30 18.75 21.25  30 20 21.25  30 20 22.5  30 18.75 22.5  28.75 18.75 22.5  28.75 20 21.25  28.75 20 22.5  31.25 18.75 21.25  32.5 18.75 21.25  32.5 20 21.25  32.5 20 22.5  32.5 18.75 22.5  31.25 18.75 22.5  31.25 20 21.25  31.25 20 22.5  33.75 18.75 21.25  35 18.75 21.25  35 20 21.25  35 20 22.5  35 18.75 22.5  33.75 18.75 22.5  33.75 20 21.25  33.75 20 22.5  36.25 18.75 21.25  37.5 18.75 21.25  37.5 20 21.25  37.5 20 22.5  37.5 18.75 22.5  36.25 18.75 22.5  36.25 20 21.25  36.25 20 22.5  27.5 21.25 21.25  27.5 21.25 22.5  28.75 21.25 21.25  30 21.25 21.25  30 21.25 22.5  30 22.5 22.5  28.75 21.25 22.5  28.75 22.5 22.5  31.25 21.25 21.25  32.5 21.25 21.25  32.5 21.25 22.5  32.5 22.5 22.5  31.25 21.25 22.5  31.25 22.5 22.5  33.75 21.25 21.25  35 21.25 21.25  35 21.25 22.5  35 22.5 22.5  33.75 21.25 22.5  33.75 22.5 22.5  36.25 21.25 21.25  37.5 21.25 21.25  37.5 21.25 22.5  37.5 22.5 22.5  36.25 21.25 22.5  36.25 22.5 22.5  27.5 16.25 23.75  26.25 16.25 23.75  27.5 17.5 23.75  27.5 17.5 25  27.5 15 25  27.5 16.25 25  26.25 16.25 25  26.25 17.5 23.75  26.25 17.5 25  30 17.5 23.75  30 16.25 23.75  28.75 16.25 23.75  30 17.5 25  30 16.25 25  28.75 16.25 25  28.75 17.5 23.75  28.75 17.5 25  32.5 17.5 23.75  32.5 16.25 23.75  31.25 16.25 23.75  32.5 17.5 25  32.5 15 25  32.5 16.25 25  31.25 17.5 23.75  31.25 17.5 25  35 17.5 23.75  35 16.25 23.75  33.75 16.25 23.75  35 17.5 25  35 16.25 25  33.75 17.5 23.75  33.75 17.5 25  37.5 16.25 23.75  36.25 16.25 23.75  37.5 17.5 23.75  37.5 17.5 25  37.5 15 23.75  37.5 15 25  37.5 16.25 25  36.25 16.25 25  36.25 17.5 23.75  36.25 17.5 25  26.25 18.75 23.75  27.5 18.75 23.75  27.5 20 23.75  27.5 20 25  27.5 18.75 25  26.25 18.75 25  26.25 20 23.75  26.25 20 25  28.75 18.75 23.75  30 18.75 23.75  30 20 23.75  30 20 25  30 18.75 25  28.75 18.75 25  28.75 20 23.75  28.75 20 25  31.25 18.75 23.75  32.5 18.75 23.75  32.5 20 23.75  32.5 20 25  32.5 18.75 25  31.25 18.75 25  31.25 20 23.75  31.25 20 25  33.75 18.75 23.75  35 18.75 23.75  35 20 23.75  35 20 25  35 18.75 25  33.75 18.75 25  33.75 20 23.75  33.75 20 25  36.25 18.75 23.75  37.5 18.75 23.75  37.5 20 23.75  37.5 20 25  37.5 18.75 25  36.25 18.75 25  36.25 20 23.75  36.25 20 25  27.5 21.25 23.75  27.5 21.25 25  28.75 21.25 23.75  30 21.25 23.75  30 22.5 23.75  30 21.25 25  28.75 21.25 25  31.25 21.25 23.75  32.5 21.25 23.75  32.5 22.5 23.75  32.5 21.25 25  31.25 21.25 25  31.25 22.5 23.75  33.75 21.25 23.75  35 21.25 23.75  35 22.5 23.75  35 22.5 25  35 21.25 25  33.75 21.25 25  33.75 22.5 23.75  33.75 22.5 25  36.25 21.25 23.75  37.5 21.25 23.75  37.5 22.5 23.75  37.5 22.5 25  37.5 21.25 25  36.25 21.25 25  36.25 22.5 23.75  36.25 22.5 25  30 23.75 23.75  31.25 23.75 23.75  32.5 23.75 23.75  33.75 23.75 23.75  35 
[...]
<PointData  Vectors="u"> 
<DataArray  type="Float64"  Name="u"  NumberOfComponents="3" format="ascii">1.9999999998250934e+02 7.6173677090972694e-11 2.4587240933350287e-11  1.9999999998233869e+02 -2.9913553670707799e-11 4.0000211412132966e-11  1.9999999998220562e+02 -1.0549911717475483e-10 -7.9610132475861712e-11  1.9999999998314948e+02 -1.3061523668376750e-10 -4.9988025820534440e-11  1.9999999998251189e+02 1.0655721799738614e-10 1.0867401117628736e-10  1.9999999998311333e+02 -2.2005360818631154e-10 -9.4742426098095535e-11  1.9999999998230939e+02 -1.4308138685642307e-10 -6.3329767698028681e-11  1.9999999998233386e+02 -2.8570585029177623e-11 6.9212146919609707e-11  1.9999999998311802e+02 -3.0579968554069440e-11 -5.9133237697072981e-11  1.9999999998300561e+02 -1.9658605380028699e-10 -1.1019333197375969e-10  1.9999999998248651e+02 6.8813090639073763e-11 1.8761726484690964e-11  1.9999999998227000e+02 -3.8044651741330595e-11 -1.3164380320340529e-11  1.9999999998247802e+02 3.3288132717692870e-11 8.2936303625193529e-11  1.9999999998234210e+02 -5.7631949884287255e-11 -9.7948378313593902e-13  1.9999999998416200e+02 1.1577506569011717e-10 1.3758571186133361e-10  1.9999999998393935e+02 -8.0811223796978676e-11 -9.0208558136725006e-11  1.9999999998396143e+02 -1.6331951190633093e-11 1.8366429644068449e-11  1.9999999998482122e+02 -7.4907943060672998e-11 -1.2167249463631079e-10  1.9999999998420688e+02 8.8920343869213678e-11 1.2519140807614742e-10  1.9999999998401685e+02 2.4301069569323551e-11 2.4728576861739631e-11  1.9999999998417502e+02 8.1729435905354107e-11 1.0091799137580207e-10  1.9999999998396942e+02 1.9421218554792574e-11 -4.6949795143881451e-11  1.9999999998418670e+02 1.2561838361360287e-10 1.1796216755901726e-10  1.9999999998397840e+02 -8.6485864258539214e-12 3.2944753844998317e-11  1.9999999998484745e+02 -7.0148902709580330e-11 -1.7120949706224589e-10  1.9999999998396947e+02 -1.2335414831935705e-10 -1.2155667156005516e-10  1.9999999998404581e+02 -3.5720196144080324e-12 4.8070309041558258e-11  1.9999999998480345e+02 -1.0090497082276487e-10 -7.0495975096003899e-11  1.9999999998414194e+02 9.8555215519557562e-11 1.0993516429423945e-10  1.9999999998394534e+02 1.7974632118451888e-11 9.5385748907537362e-12  1.9999999998415680e+02 1.0696696953956763e-10 1.0967300434170447e-10  1.9999999998399471e+02 -9.8366416453169623e-12 1.4041659344444757e-11  1.9999999998481135e+02 -1.2955763575913389e-10 -1.6157948787013837e-10  1.9999999998397175e+02 -7.5377821265014585e-11 -1.2024014948687607e-10  1.9999999998483310e+02 -5.8660745669411593e-11 -9.0638800446979092e-11  1.9999999998401046e+02 -2.3741147894179534e-11 -2.6154212541536015e-11  1.9999999998415726e+02 7.4494529362883000e-11 7.9946359610240365e-11  1.9999999998479171e+02 -1.7556046457532053e-10 -1.0228452862436266e-10  1.9999999998394333e+02 -8.0632488898057905e-11 -9.3019242972855915e-11  1.9999999998482073e+02 -1.1136152208464591e-10 -8.8946845176803957e-11  1.9999999998402069e+02 3.2111143242574825e-11 -2.3627108059052306e-11  1.9999999998418664e+02 7.7228780838045702e-11 8.5719154732138612e-11  1.9999999998403197e+02 2.1126439041639618e-11 4.1158175680116570e-12  1.9999999998477054e+02 -1.3461461558431764e-10 -1.7081709130303471e-10  1.9999999998390140e+02 -1.0868538803992683e-10 -1.2093732321685787e-10  1.9999999998393287e+02 -1.2011332771815660e-11 2.0618717475767584e-11  1.9999999998481860e+02 -5.6403126072642519e-11 -8.9708392582053531e-11  1.9999999998412062e+02 1.1027803418440815e-10 1.0936947210145211e-10  1.9999999998391638e+02 4.0940380873510694e-12 -7.1369808619342390e-12  1.9999999998412744e+02 1.3531094528538242e-10 3.8976627391491694e-11  1.9999999998395248e+02 -1.9062002325661466e-12 -2.6954471948233662e-11  1.9999999998313774e+02 -2.8165054716393406e-10 -1.2130683828599048e-12  1.9999999998401245e+02 9.8055216400831071e-12 -3.1701922855213010e-11  1.9999999998313513e+02 -7.0817447318181175e-11 -3.3666625667749338e-11  1.9999999998413702e+02 1.1896830726722405e-10 1.1886499108499323e-10  1.9999999998319302e+02 4.2213943046120085e-11 -1.3920091900062165e-11  1.9999999998248674e+02 1.4223245503312955e-10 7.1258291325137205e-11  1.9999999998391982e+02 -8.2376258012863876e-11 -8.5183888875840254e-11  1.9999999998478580e+02 -9.4043125581018467e-11 -6.0916028411284362e-11  1.9999999998403010e+02 -1.7957526198632550e-11 -8.0585917026436487e-12  1.9999999998414813e+02 6.1283166341732208e-11 8.4715059983374675e-11  1.9999999998405536e+02 -8.2612804372397923e-12 1.7263299822727587e-11  1.9999999998476275e+02 -1.0795618518360928e-10 -1.4178832046618808e-10  1.9999999998313012e+02 -5.5857522701147464e-11 -2.4821765820578715e-11  1.9999999998309644e+02 -1.4728964570099541e-10 -1.9176985261571405e-10  1.9999999998228989e+02 -5.0078300021987292e-11 8.7731493315432072e-11  1.9999999998248140e+02 7.2293490633566545e-11 9.8480064509015041e-11  1.9999999998316426e+02 1.3745060689007571e-11 -2.0247361365323920e-11  1.9999999998308871e+02 -3.1404210852935706e-10 -2.4246649299119736e-11  1.9999999998386437e+02 -1.3131142255202187e-10 -1.2054326735107599e-10  1.9999999998479529e+02 -9.7086816042476275e-11 -8.9837986884303945e-11  1.9999999998396649e+02 -1.6571125712143200e-11 -1.8612373984153240e-11  1.9999999998410559e+02 1.4005585249093796e-10 9.1359325352042614e-11  1.9999999998405684e+02 -5.3520516426308564e-11 2.2958278905789220e-11  1.9999999998316193e+02 -9.3682362054452808e-11 -3.9241211539156051e-11  1.9999999998310039e+02 -1.3704839607960420e-10 -1.8277955779536731e-10  1.9999999998225411e+02 -5.3199544716086091e-11 7.0682141314974231e-11  1.9999999998244616e+02 6.3914089384445299e-11 7.1339241642072562e-11  1.9999999998316329e+02 -1.8342092777200929e-11 -4.0456718011831320e-11  1.9999999998313356e+02 -2.4007315837695247e-10 -5.6069502023142300e-11  1.9999999998316926e+02 -1.1753516716349586e-10 -2.8900641719862242e-11  1.9999999998311898e+02 -1.2272738820683459e-10 -2.6084161587537392e-10  1.9999999998225320e+02 -9.4592484925049080e-13 8.6151982643193428e-11  1.9999999998249197e+02 1.1661224464318339e-10 1.1472405234503115e-10  1.9999999998383478e+02 -1.0369002749757396e-10 -7.2478942689936034e-11  1.9999999998478060e+02 -9.5624243861591612e-11 -5.9147870611862186e-11  1.9999999998402438e+02 -6.1763044086222323e-11 3.6148901702243955e-11  1.9999999998413458e+02 5.7237127783529028e-11 1.4135247519918124e-10  1.9999999998403777e+02 3.4280695463853255e-11 -1.1710048952180329e-12  1.9999999998415439e+02 1.3372975197661242e-10 1.5794623166044249e-10  1.9999999998406696e+02 -2.7279088125571699e-11 2.4325214585918085e-11  1.9999999998310415e+02 -1.1181716585637040e-10 -6.5680097737756324e-11  1.9999999998227699e+02 -1.2611709714558645e-10 -7.6006313930865339e-11  1.9999999998233037e+02 2.5748283128389245e-11 2.0733727331916020e-11  1.9999999998246611e+02 8.9338613686380778e-11 1.1681897831826077e-10  1.9999999998308112e+02 -1.4985718234322906e-10 -7.8409128100125086e-11  1.9999999998234233e+02 4.7494443779350414e-11 -2.2632262223026192e-11  1.9999999998251263e+02 1.2263135982693063e-10 1.4214778177924454e-10  1.9999999998232053e+02 -6.4361448243431209e-11 -5.9348176380325094e-13  1.9999999998306515e+02 -1.1657643326792326e-10 -1.2174089663224791e-10  1.9999999998313322e+02 4.5942822626890969e-11 6.1698636248579062e-11  1.9999999998309957e+02 -1.6231034802622300e-10 -5.0970035318424043e-11  1.9999999998319927e+02 1.2549607998376050e-12 2.3175636157209164e-11  1.9999999998311563e+02 -1.1634081592909188e-10 -5.4494886071362455e-11  1.9999999998225758e+02 -1.7811799699900989e-10 -5.6063948770963230e-11  1.9999999998231937e+02 2.3013637314441187e-11 4.3946727406273291e-11  1.9999999998249226e+02 1.0439765436844378e-10 1.5289886990341254e-10  1.9999999998231021e+02 -8.6069880358284495e-11 1.6436416753901993e-11  1.9999999998308715e+02 -1.2974784276336606e-10 -1.4927929521318958e-10  1.9999999998308311e+02 -1.8812436687121688e-10 -2.8206877214212080e-11  1.9999999998411238e+02 8.8867706012947102e-11 1.0776372560127372e-10  1.9999999998320169e+02 -2.5031393686923900e-11 4.7794987760383982e-11  1.9999999998399477e+02 -9.9065791834925951e-11 1.5011283034103147e-11  1.9999999998315312e+02 -9.2082545700382907e-11 -4.9620407512323768e-11  1.9999999998221435e+02 -1.0071202417827067e-10 -4.5823533924557530e-11  1.9999999998242387e+02 -4.7512377813772443e-11 1.4949014321581459e-11  1.9999999998245931e+02 1.2608614890116021e-10 1.1365578463821271e-10  1.9999999998231024e+02 -4.9517627921134993e-11 6.5672307016498659e-11  1.9999999998316056e+02 -1.2335112293466082e-10 -1.8740768667835415e-10  1.9999999998309184e+02 -1.1069256634842797e-10 -3.8935515285270281e-11  1.9999999998226951e+02 -1.4139917606367630e-10 -6.8940651835766118e-11  1.9999999998234051e+02 -1.0686588652431214e-11 4.3707751117564283e-11  1.9999999998247071e+02 8.1023921696448042e-11 8.5158590284168161e-11  1.9999999998226735e+02 5.1828466865141396e-12 4.0483232681991348e-11  1.9999999998248038e+02 1.2271630056305616e-10 1.1131544162866635e-10  1.9999999998227781e+02 -1.1047743713355909e-10 2.2464448185861443e-11  1.9999999998312774e+02 -1.1471745927143016e-10 -2.2929206330233413e-10  1.9999999998309553e+02 -1.8206328320124322e-10 -6.3704607553175937e-11  1.9999999998312629e+02 -1.0986708044263895e-10 -4.5259823217067937e-11  1.9999999998220164e+02 -1.3180965860045636e-10 -6.3100034986857543e-11  1.9999999998230365e+02 1.7069083362027395e-11 -1.6255442645621408e-11  1.9999999998249962e+02 1.0315396274330682e-10 8.6106996884472510e-11  1.9999999998225945e+02 -3.1758625835590832e-11 8.2610817631621835e-12  1.9999999998312629e+02 -2.0790909140524313e-10 -9.3590438239553112e-11  1.9999999998316454e+02 -9.0302990025722249e-11 -4.2806816048336844e-11  1.9999999998225522e+02 -1.4605059723827701e-10 -1.0175244113947563e-10  1.9999999998233372e+02 -9.1124869767096466e-11 -3.7694552312199362e-12  1.9999999998246301e+02 9.8583780192630210e-11 1.2923740656824304e-10  1.9999999998227517e+02 -4.6437149261378022e-11 4.4358676800542153e-11  1.9999999998223240e+02 -1.3519840203349451e-10 -1.0051018963489852e-10  1.9999999998311506e+02 -9.5428450664482352e-11 -8.0782048983328722e-11  1.9999999998223785e+02 -1.5258445477818026e-11 3.4267496178000708e-12  1.9999999998246230e+02 6.5893701809354640e-11 8.3063959459997542e-11  1.9999999998231567e+02 3.2180888539659767e-11 -7.6617652245477823e-12  1.9999999998250172e+02 6.4850272933828805e-11 8.6767662418150781e-11  1.9999999998226460e+02 -1.9433431227072346e-11 4.0340190374162729e-11  1.9999999998412909e+02 8.4597883850624653e-11 1.0192308286099674e-10  1.9999999998312171e+02 -1.1578521622529996e-10 -1.3695361946394565e-10  1.9999999998320450e+02 -2.7293623723336263e-11 3.7322878990696843e-13  1.9999999998310568e+02 -1.1717676911671621e-10 2.7203478979548443e-11  1.9999999998315320e+02 -6.7398803433084532e-11 -1.9900341139602035e-11  1.9999999998220497e+02 -1.9581540629354142e-11 -1.2334945149122571e-11  1.9999999998315027e+02 -2.3317017460875110e-11 3.7494510111943957e-12  1.9999999998227915e+02 -1.1305684296048827e-10 3.5537884016090848e-11  1.9999999998219593e+02 -3.5345057951853413e-11 8.4538738976750999e-12  1.9999999998403524e+02 -4.5161452959648657e-11 2.8622760786936160e-11  1.9999999998410721e+02 5.3299050999029040e-11 9.2953857665167076e-11  1.9999999998314121e+02 4.1049776774135171e-11 2.8289339294695278e-11  1.9999999998413588e+02 8.1032665416013671e-11 -1.8168209920209467e-13  1.9999999998308320e+02 -2.3381547939646090e-10 -3.9746118578007762e-11  1.9999999998395680e+02 -1.1118160884785679e-11 2.2983813580109850e-11  1.9999999998313547e+02 -8.2669911225282799e-11 -2.4991965365898451e-11  1.9999999998311034e+02 -1.3137284001034086e-10 -1.8372652607358645e-10  1.9999999998229856e+02 7.2800766372668905e-11 1.2828879206457050e-10  1.9999999998249547e+02 9.6895037543587692e-11 8.8752931842299170e-11  1.9999999998323031e+02 -7.5355429618544934e-11 -6.9477059727832244e-11  1.9999999998316946e+02 -9.7959652317881822e-11 -4.2651148382784646e-11  1.9999999998231146e+02 -1.2758851196606679e-10 -8.9216262945757306e-11  1.9999999998234094e+02 -2.7408091891093303e-11 2.7450220977816920e-11  1.9999999998250678e+02 7.0050249931705134e-11 9.0756527070793940e-11  1.9999999998231044e+02 -2.8862599586954217e-11 1.1845333646313683e-11  1.9999999998310216e+02 -1.1734061162617973e-10 -8.9545020784486859e-11  1.9999999998227935e+02 -1.2982872706312626e-10 -1.0461517422262010e-10  1.9999999998230851e+02 -2.4541288704824432e-11 4.0898898375440303e-11  1.9999999998310216e+02 -1.1865212092737140e-10 -8.7156116485780239e-11  1.9999999998250533e+02 4.6657511172113824e-11 7.7347258718853301e-11  1.9999999998227443e+02 -3.1610105746788626e-11 1.4411323364243299e-11  1.9999999998143574e+02 5.4568853979890528e-12 -6.4599032058684242e-12  1.9999999998215284e+02 -1.6966602780150470e-10 -1.0337103611358584e-10  1.9999999998136502e+02 -5.6796714742822449e-11 -2.3924937253646613e-10  1.9999999998224504e+02 -3.5067295052868051e-11 4.7999736581975016e-11  1.9999999998244792e+02 8.6564747244584502e-11 7.2760867739287779e-11  1.9999999998144716e+02 -1.1463185082379015e-10 -2.1770677606733770e-11  1.9999999998074969e+02 9.1786998268104539e-11 4.7383004229096011e-11  1.9999999998140970e+02 -4.8991488498384368e-11 -2.8948247144991675e-11  1.9999999998138094e+02 -1.5223609376108257e-10 -4.9941445525893863e-11  1.9999999998055719e+02 -7.1175488959646534e-12 -2.5175075440278411e-11  1.9999999998073483e+02 3.9809120113040175e-11 1.0824689302323174e-10  1.9999999998224510e+02 -1.3544468644351538e-10 5.6133522375173425e-13  1.9999999998142783e+02 -4.4053480873740184e-11 -1.9111461702252133e-10  1.9999999998230166e+02 -2.4346524783178448e-11 1.2992971906671401e-10  1.9999999998247498e+02 6.8514587140901981e-11 7.3046689649831594e-11  1.9999999998150824e+02 -5.7301494050548531e-11 -7.9844950488417162e-11  1.9999999998218053e+02 -9.1829920325303455e-12 -5.1450257371797336e-11  1.9999999998139381e+02 2.4052708048457448e-12 -7.2504159147309143e-11  1.9999999998044632e+02 -4.6172214809387627e-11 -5.0032746162740208e-11  1.9999999998072536e+02 7.4848768893336794e-12 -1.0897845299299969e-10  1.9999999998069069e+02 1.0212649705663774e-10 3.5808812358302210e-11  1.9999999998151725e+02 -6.6173304962648974e-11 -2.7337423372133508e-11  1.9999999998248032e+02 1.1918082745916815e-10 -1.7351132070066349e-12  1.9999999998152884e+02 -1.2300537004658862e-10 1.9141336820706603e-11  1.9999999997975485e+02 -2.7083129972271380e-11 -2.6177749433631374e-11  1.9999999997968635e+02 1.1340768868657019e-11 -2.5325028138131295e-11  1.9999999997967203e+02 -9.3336399205238612e-11 -3.1468553782380487e-10  1.9999999997981317e+02 6.1292519511558233e-11 -4.9260452840191894e-11  1.9999999997916007e+02 -9.5223238013801722e-12 8.1680824096140172e-11  1.9999999997900906e+02 -2.2854521877938676e-13 -3.2725276105916774e-11  1.9999999997916294e+02 1.0538963737684585e-10 2.9286843649259371e-11  1.9999999997980993e+02 -1.2602694886925391e-10 -3.9974385594213815e-12  1.9999999998150554e+02 5.7064698352611959e-11 -8.8700582928132295e-11  1.9999999998145427e+02 -4.7263836052456917e-11 -9.3861386338956047e-11  1.9999999998070351e+02 -6.3253640689124112e-11 -4.8995583265870578e-11  1.9999999998072332e+02 3.1985175604366955e-12 1.0444898221110702e-10  1.9999999998221662e+02 -1.1445573836800254e-10 -1.4151066938556512e-10  1.9999999998142769e+02 2.1385966452006349e-11 -2.2752710583270056e-10  1.9999999998225005e+02 -4.2349077149102063e-11 4.9974000571656713e-11  1.9999999998247932e+02 1.2190542806011209e-10 1.1283453707031767e-10  1.9999999998148701e+02 -4.8803464478782399e-11 -1.0389562516396215e-10  1.9999999998228191e+02 2.3783598234259786e-11 -7.6351728603615690e-12  1.9999999998149175e+02 -6.7493390438200606e-11 -5.5678600933014935e-11  1.9999999998057962e+02 -1.6797930728902527e-10 -2.7063934306184224e-10  1.9999999998068623e+02 -1.2233655519300054e-10 -8.2124564716360480e-11  1.9999999998070112e+02 9.1445752299839771e-11 1.2619626532761959e-10  1.9999999998068566e+02 -1.1636938692914308e-11 -5.4212854600171878e-11  1.9999999998141973e+02 -9.9726224519146830e-11 -8.0008544046375574e-11  1.9999999998147038e+02 -1.1589603317378532e-10 -1.3092598077713209e-10  1.9999999998244223e+02 8.9515117857220656e-11 1.2746211123177728e-10  1.9999999998147666e+02 -9.7371001635452294e-11 -3.6909201361528059e-11  1.9999999997976573e+02 -5.9346432195352818e-11 -6.2912177875480208e-11  1.9999999997881591e+02 1.0583636648455070e-11 -1.1761768577660636e-10  1.9999999997906227e+02 4.7752646677431625e-12 -6.2037198540792820e-11  1.9999999997914639e+02 6.5513783844815478e-11 1.2053936539920560e-10  1.9999999997976897e+02 3.5603127630941920e-11 -1.2959895018990971e-10  1.9999999997899471e+02 6.2204290344262823e-11 2.1378711322984177e-11  1.9999999997914628e+02 -7.8239242408615146e-11 1.1982007344094097e-10  1.9999999997906372e+02 -3.4198056158731977e-11 1.0055359388432581e-10  1.9999999997974308e+02 -1.8159368828339123e-11 -1.4427540795206923e-10  1.9999999997987689e+02 1.4463051761364971e-10 -6.3369154360474234e-11  1.9999999997975644e+02 -1.3578782784111558e-10 -1.0084213623138546e-10  1.9999999997982718e+02 -2.1104370353003436e-11 -1.6540991766247376e-11  1.9999999997817631e+02 -6.6070322044886338e-11 -1.0733050950753764e-10  1.9999999997804431e+02 -1.7096942234013625e-10 -3.1560462523114649e-11  1.9999999997820001e+02 1.2120908968288095e-11 5.4883768362241925e-11  1.9999999997751678e+02 1.1702311881947519e-11 3.3975673920841186e-11  1.9999999997718976e+02 2.3556055252106192e-11 -8.5104901038342420e-11  1.9999999997736094e+02 2.8101809560188847e-11 1.9241481868512071e-12  1.9999999997752749e+02 5.4524164051468150e-11 -1.7032452970055233e-12  1.9999999997808106e+02 7.9833082268220493e-11 -6.6760384833572159e-11  1.9999999997733516e+02 1.0786596528902696e-10 -5.7536684397363300e-12  1.9999999997753835e+02 -6.9244748563636073e-11 1.0577959728465216e-10  1.9999999997747307e+02 -6.6045092299806981e-12 3.6332885095835682e-11  1.9999999997809817e+02 7.6178514178398544e-11 -9.3334583461801654e-11  1.9999999997817469e+02 6.3528002937160462e-11 -7.0846746658762751e-11  1.9999999997818497e+02 -7.7262167657607906e-11 8.6186343987877072e-11  1.9999999997657912e+02 -8.9956889337874923e-11 -1.7946684797605699e-11  1.9999999997640845e+02 -6.0925408623288284e-11 1.1650767206925379e-11  1.9999999997650184e+02 9.4992544084339098e-12 -9.0322771071153192e-11  1.9999999997656488e+02 1.6893991804742113e-11 -4.6735266887617717e-11  1.9999999997592013e+02 -5.7929263091704786e-11 6.5942353180481700e-11  1.9999999998149613e+02 -5.9746390316610395e-11 -8.7456602676461989e-11  1.9999999998143645e+02 -1.8583586523221205e-10 5.9043804405760417e-12  1.9999999998144307e+02 6.6168833356403828e-11 -4.6553544008812156e-11  1.9999999998147470e+02 9.4069177236214363e-11 -1.3308917122103832e-11  1.9999999998073392e+02 1.4650889014391394e-11 6.8282962943206135e-11  1.9999999998061267e+02 9.4446304970793610e-11 -1.2830130852674708e-10  1.9999999998059644e+02 3.4249183036845802e-11 -8.8305997124710259e-11  1.9999999998071576e+02 3.4284389623726911e-11 -6.1765351352048348e-11  1.9999999998141973e+02 -2.8810152566825885e-11 -8.1793783953768303e-11  1.9999999997987047e+02 1.6068478271600131e-12 -4.5403957932214200e-12  1.9999999997973120e+02 -2.1142125116214520e-11 -2.0790597506187129e-10  1.9999999998144446e+02 -6.9094847627085006e-11 -5.3947249308754302e-11  1.9999999998067815e+02 -1.7357072949434464e-10 -2.0329159950927104e-10  1.9999999997979108e+02 -9.9660352695712033e-11 -8.3028544216082694e-11  1.9999999997895608e+02 -3.5951091468535067e-11 -1.4049801077818583e-10  1.9999999997813703e+02 2.6744630977240915e-11 -7.6496465143043583e-11  1.9999999997649013e+02 1.0587740226712475e-11 -9.7163189665460977e-11  1.9999999997916456e+02 1.1681411946700628e-10 5.7560038407364391e-11  1.9999999997819887e+02 -9.0845164196895819e-11 4.7122832070160743e-11  1.9999999997811724e+02 -1.0817171009424709e-10 -1.4092197931443725e-10  1.9999999997818878e+02 -6.9418212