<?xml version="1.0"?>
<VTKFile type="UnstructuredGrid"  version="0.1"  >
<UnstructuredGrid>
<Piece  NumberOfPoints="3946" NumberOfCells="19511">
<Points>
<DataArray  type="Float64"  NumberOfComponents="3"  format="ascii">25 2.5 37.5  25 3.75 38.75  25 3.75 37.5  23.75 3.75 38.75  25 5 37.5  25 5 38.75  25 5 40  25 2.5 38.75  25 2.5 40  25 3.75 40  26.25 6.25 38.75  26.25 6.25 37.5  25 6.25 37.5  25 7.5 37.5  26.25 7.5 38.75  26.25 7.5 37.5  27.5 7.5 37.5  27.5 7.5 38.75  27.5 7.5 40  26.25 6.25 40  25 6.25 40  25 7.5 40  26.25 7.5 40  25 7.5 38.75  25 8.75 38.75  25 8.75 37.5  23.75 8.75 38.75  25 10 37.5  25 10 38.75  25 10 40  25 8.75 40  26.25 8.75 38.75  26.25 8.75 37.5  27.5 8.75 38.75  27.5 8.75 37.5  27.5 10 37.5  27.5 10 38.75  27.5 10 40  27.5 8.75 40  26.25 8.75 40  26.25 10 38.75  26.25 10 37.5  26.25 10 40  25 11.25 38.75  25 11.25 37.5  23.75 11.25 38.75  25 12.5 37.5  25 12.5 38.75  25 12.5 40  25 11.25 40  26.25 11.25 38.75  26.25 11.25 37.5  27.5 11.25 38.75  27.5 11.25 37.5  27.5 12.5 37.5  27.5 12.5 38.75  27.5 12.5 40  27.5 11.25 40  26.25 11.25 40  26.25 12.5 38.75  26.25 12.5 37.5  26.25 12.5 40  26.25 13.75 38.75  26.25 13.75 37.5  27.5 13.75 38.75  27.5 13.75 37.5  27.5 15 37.5  27.5 15 38.75  27.5 15 40  27.5 13.75 40  26.25 13.75 40  25 15 37.5  26.25 15 38.75  26.25 15 37.5  25 15 40  26.25 15 40  26.25 16.25 38.75  26.25 16.25 37.5  27.5 16.25 38.75  27.5 16.25 37.5  27.5 17.5 37.5  27.5 17.5 38.75  27.5 17.5 40  27.5 16.25 40  26.25 16.25 40  25 17.5 37.5  26.25 17.5 38.75  26.25 17.5 37.5  25 17.5 40  26.25 17.5 40  25 17.5 38.75  26.25 18.75 38.75  26.25 18.75 37.5  27.5 18.75 38.75  27.5 18.75 37.5  27.5 20 37.5  27.5 20 38.75  27.5 20 40  27.5 18.75 40  26.25 18.75 40  25 18.75 37.5  25 20 37.5  26.25 20 38.75  26.25 20 37.5  25 20 40  26.25 20 40  26.25 21.25 38.75  26.25 21.25 37.5  27.5 21.25 38.75  27.5 21.25 37.5  27.5 22.5 37.5  27.5 22.5 38.75  27.5 22.5 40  27.5 21.25 40  26.25 21.25 40  25 21.25 37.5  25 22.5 37.5  26.25 22.5 37.5  25 21.25 40  25 22.5 40  26.25 22.5 40  25 5 42.5  26.25 5 42.5  26.25 3.75 42.5  26.25 3.75 41.25  27.5 5 42.5  26.25 5 41.25  25 5 41.25  26.25 6.25 41.25  26.25 6.25 42.5  27.5 6.25 42.5  27.5 7.5 42.5  26.25 7.5 41.25  27.5 7.5 41.25  25 6.25 42.5  25 7.5 42.5  26.25 7.5 42.5  25 7.5 41.25  26.25 8.75 41.25  27.5 8.75 41.25  27.5 10 41.25  27.5 10 42.5  27.5 8.75 42.5  26.25 8.75 42.5  26.25 10 41.25  25 8.75 41.25  25 8.75 42.5  25 10 42.5  26.25 10 42.5  25 10 41.25  26.25 11.25 41.25  27.5 11.25 41.25  27.5 12.5 41.25  27.5 12.5 42.5  27.5 11.25 42.5  26.25 11.25 42.5  26.25 12.5 41.25  25 11.25 42.5  25 12.5 42.5  26.25 12.5 42.5  26.25 13.75 41.25  27.5 13.75 41.25  27.5 15 41.25  27.5 15 42.5  27.5 13.75 42.5  26.25 13.75 42.5  26.25 15 41.25  25 13.75 42.5  25 15 42.5  26.25 15 42.5  25 15 41.25  26.25 16.25 41.25  27.5 16.25 41.25  27.5 17.5 41.25  27.5 17.5 42.5  27.5 16.25 42.5  26.25 16.25 42.5  26.25 17.5 41.25  25 17.5 42.5  26.25 17.5 42.5  26.25 18.75 41.25  27.5 18.75 41.25  27.5 20 41.25  27.5 20 42.5  27.5 18.75 42.5  26.25 18.75 42.5  26.25 20 41.25  25 20 42.5  26.25 20 42.5  26.25 21.25 41.25  27.5 21.25 41.25  27.5 2.5 45  27.5 3.75 45  26.25 3.75 45  26.25 3.75 43.75  27.5 5 45  26.25 5 43.75  27.5 5 43.75  25 5 45  26.25 5 45  25 5 43.75  26.25 6.25 43.75  27.5 6.25 43.75  27.5 7.5 43.75  27.5 7.5 45  27.5 6.25 45  26.25 6.25 45  26.25 7.5 43.75  25 6.25 45  25 7.5 45  26.25 7.5 45  25 7.5 43.75  26.25 8.75 43.75  27.5 8.75 43.75  27.5 10 43.75  27.5 10 45  27.5 8.75 45  26.25 8.75 45  26.25 10 43.75  25 10 45  26.25 10 45  25 10 43.75  26.25 11.25 43.75  27.5 11.25 43.75  27.5 12.5 43.75  27.5 12.5 45  27.5 11.25 45  26.25 11.25 45  26.25 12.5 43.75  25 12.5 45  26.25 12.5 45  25 12.5 43.75  26.25 13.75 43.75  27.5 13.75 43.75  27.5 15 43.75  27.5 15 45  27.5 13.75 45  26.25 13.75 45  26.25 15 43.75  26.25 15 45  26.25 16.25 43.75  27.5 16.25 43.75  27.5 17.5 43.75  27.5 17.5 45  27.5 16.25 45  26.25 16.25 45  26.25 17.5 43.75  25 17.5 45  26.25 17.5 45  26.25 18.75 43.75  27.5 18.75 43.75  27.5 20 43.75  27.5 20 45  27.5 18.75 45  26.25 18.75 45  26.25 20 43.75  25 20 45  26.25 20 45  27.5 0 45  27.5 1.25 46.25  27.5 1.25 45  26.25 1.25 46.25  27.5 2.5 46.25  27.5 2.5 47.5  27.5 0 46.25  26.25 0 46.25  27.5 0 47.5  27.5 1.25 47.5  26.25 1.25 47.5  26.25 0 47.5  26.25 2.5 46.25  27.5 3.75 46.25  26.25 3.75 46.25  27.5 5 46.25  27.5 5 47.5  27.5 3.75 47.5  26.25 3.75 47.5  26.25 5 46.25  26.25 6.25 46.25  27.5 6.25 46.25  27.5 7.5 46.25  27.5 7.5 47.5  27.5 6.25 47.5  26.25 6.25 47.5  26.25 7.5 46.25  26.25 7.5 47.5  26.25 8.75 46.25  27.5 8.75 46.25  27.5 10 46.25  27.5 10 47.5  27.5 8.75 47.5  26.25 8.75 47.5  26.25 10 46.25  25 10 47.5  26.25 10 47.5  26.25 11.25 46.25  27.5 11.25 46.25  27.5 12.5 46.25  27.5 12.5 47.5  27.5 11.25 47.5  26.25 11.25 47.5  26.25 12.5 46.25  25 12.5 47.5  26.25 12.5 47.5  26.25 13.75 46.25  27.5 13.75 46.25  27.5 15 46.25  27.5 15 47.5  27.5 13.75 47.5  26.25 13.75 47.5  26.25 15 46.25  25 15 47.5  26.25 15 47.5  27.5 16.25 46.25  26.25 16.25 46.25  27.5 17.5 46.25  27.5 17.5 47.5  27.5 16.25 47.5  26.25 16.25 47.5  26.25 17.5 46.25  26.25 17.5 47.5  26.25 18.75 46.25  27.5 18.75 46.25  26.25 18.75 47.5  27.5 1.25 48.75  26.25 1.25 48.75  27.5 2.5 48.75  27.5 2.5 50  27.5 0 48.75  26.25 0 48.75  27.5 0 50  27.5 1.25 50  25 0 50  26.25 1.25 50  26.25 0 50  26.25 2.5 48.75  26.25 2.5 50  27.5 3.75 48.75  26.25 3.75 48.75  27.5 5 48.75  27.5 5 50  27.5 3.75 50  26.25 3.75 50  26.25 5 48.75  27.5 6.25 48.75  26.25 6.25 48.75  27.5 7.5 48.75  27.5 7.5 50  27.5 6.25 50  26.25 6.25 50  26.25 7.5 48.75  27.5 8.75 48.75  26.25 8.75 48.75  27.5 10 48.75  27.5 10 50  27.5 8.75 50  26.25 8.75 50  26.25 10 48.75  26.25 11.25 48.75  27.5 11.25 48.75  27.5 12.5 48.75  27.5 12.5 50  27.5 11.25 50  26.25 11.25 50  26.25 12.5 48.75  25 12.5 50  26.25 12.5 50  26.25 13.75 48.75  27.5 13.75 48.75  27.5 15 48.75  27.5 15 50  27.5 13.75 50  26.25 13.75 50  26.25 15 48.75  25 15 50  26.25 15 50  26.25 16.25 48.75  27.5 16.25 48.75  27.5 17.5 48.75  27.5 17.5 50  27.5 16.25 50  26.25 16.25 50  26.25 17.5 48.75  25 16.25 50  25 17.5 50  26.25 17.5 50  26.25 18.75 48.75  27.5 18.75 48.75  26.25 18.75 50  25 0 27.5  25 1.25 27.5  25 1.25 26.25  23.75 1.25 26.25  25 0 26.25  23.75 0 26.25  25 2.5 27.5  23.75 1.25 27.5  23.75 0 27.5  23.75 2.5 27.5  25 3.75 27.5  25 3.75 26.25  23.75 3.75 26.25  25 5 27.5  23.75 3.75 27.5  23.75 5 27.5  25 7.5 27.5  25 7.5 26.25  25 6.25 26.25  23.75 6.25 26.25  25 6.25 27.5  23.75 6.25 27.5  23.75 7.5 26.25  22.5 7.5 27.5  23.75 7.5 27.5  25 8.75 27.5  25 8.75 26.25  23.75 8.75 26.25  25 10 27.5  23.75 8.75 27.5  22.5 10 27.5  23.75 10 27.5  22.5 10 25  23.75 10 26.25  22.5 10 26.25  23.75 11.25 26.25  23.75 11.25 27.5  25 11.25 27.5  25 12.5 27.5  22.5 11.25 27.5  22.5 12.5 27.5  23.75 12.5 27.5  23.75 12.5 26.25  23.75 13.75 27.5  23.75 13.75 26.25  25 13.75 27.5  25 15 27.5  23.75 15 27.5  23.75 15 26.25  25 16.25 27.5  25 16.25 26.25  23.75 16.25 26.25  25 17.5 27.5  23.75 16.25 27.5  25 1.25 28.75  23.75 1.25 28.75  25 2.5 28.75  25 2.5 30  25 0 28.75  23.75 0 28.75  25 0 30  25 1.25 30  23.75 1.25 30  23.75 0 30  23.75 2.5 28.75  22.5 2.5 30  23.75 2.5 30  25 3.75 28.75  23.75 3.75 28.75  25 5 28.75  25 5 30  25 3.75 30  23.75 3.75 30  23.75 5 28.75  22.5 3.75 30  22.5 5 30  23.75 5 30  25 6.25 28.75  23.75 6.25 28.75  25 7.5 28.75  25 7.5 30  25 6.25 30  23.75 6.25 30  23.75 7.5 28.75  23.75 7.5 30  23.75 8.75 28.75  25 8.75 28.75  25 10 28.75  25 10 30  25 8.75 30  23.75 8.75 30  23.75 10 28.75  22.5 10 30  23.75 10 30  23.75 11.25 28.75  25 11.25 28.75  25 12.5 28.75  25 12.5 30  25 11.25 30  23.75 11.25 30  23.75 12.5 28.75  22.5 11.25 30  22.5 12.5 30  23.75 12.5 30  22.5 12.5 28.75  23.75 13.75 28.75  25 13.75 28.75  25 15 28.75  25 15 30  25 13.75 30  23.75 13.75 30  23.75 15 28.75  25 16.25 28.75  23.75 16.25 28.75  25 17.5 28.75  25 17.5 30  25 16.25 30  25 1.25 31.25  23.75 1.25 31.25  25 2.5 31.25  25 2.5 32.5  25 0 31.25  23.75 0 31.25  25 0 32.5  25 1.25 32.5  23.75 2.5 31.25  23.75 3.75 31.25  25 3.75 31.25  25 5 31.25  25 5 32.5  25 3.75 32.5  23.75 3.75 32.5  23.75 5 31.25  22.5 5 32.5  23.75 5 32.5  23.75 6.25 31.25  25 6.25 31.25  25 7.5 31.25  25 7.5 32.5  25 6.25 32.5  23.75 6.25 32.5  23.75 7.5 31.25  22.5 7.5 32.5  23.75 7.5 32.5  25 8.75 31.25  23.75 8.75 31.25  25 10 31.25  25 10 32.5  25 8.75 32.5  23.75 8.75 32.5  23.75 10 31.25  22.5 10 32.5  23.75 10 32.5  23.75 11.25 31.25  25 11.25 31.25  25 12.5 31.25  25 12.5 32.5  25 11.25 32.5  23.75 11.25 32.5  23.75 12.5 31.25  22.5 11.25 32.5  22.5 12.5 32.5  23.75 12.5 32.5  23.75 13.75 31.25  25 13.75 31.25  25 15 31.25  25 15 32.5  25 13.75 32.5  23.75 13.75 32.5  25 16.25 31.25  23.75 16.25 31.25  25 17.5 31.25  25 17.5 32.5  25 16.25 32.5  23.75 16.25 32.5  25 18.75 31.25  25 18.75 30  23.75 18.75 31.25  25 20 30  25 20 31.25  25 20 32.5  25 18.75 32.5  25 3.75 33.75  23.75 3.75 33.75  25 5 33.75  25 5 35  25 2.5 33.75  25 2.5 35  25 3.75 35  23.75 5 33.75  23.75 6.25 33.75  25 6.25 33.75  25 7.5 33.75  25 7.5 35  25 6.25 35  23.75 6.25 35  23.75 7.5 33.75  23.75 8.75 33.75  25 8.75 33.75  25 10 33.75  25 10 35  25 8.75 35  23.75 8.75 35  23.75 10 33.75  26.25 8.75 33.75  26.25 8.75 35  26.25 10 35  27.5 10 35  26.25 10 33.75  23.75 11.25 33.75  25 11.25 33.75  25 12.5 33.75  25 12.5 35  25 11.25 35  23.75 11.25 35  23.75 12.5 33.75  26.25 11.25 33.75  26.25 11.25 35  27.5 11.25 35  27.5 12.5 35  26.25 12.5 35  26.25 12.5 33.75  23.75 13.75 33.75  25 13.75 33.75  25 15 33.75  25 15 35  25 13.75 35  26.25 13.75 33.75  26.25 13.75 35  27.5 13.75 35  27.5 15 35  26.25 15 35  26.25 15 33.75  25 16.25 33.75  23.75 16.25 33.75  25 17.5 33.75  25 17.5 35  25 16.25 35  26.25 16.25 33.75  26.25 16.25 35  27.5 16.25 35  27.5 17.5 35  26.25 17.5 35  26.25 17.5 33.75  26.25 18.75 33.75  26.25 18.75 35  27.5 18.75 35  27.5 20 35  25 18.75 33.75  25 18.75 35  25 20 35  26.25 20 35  26.25 20 33.75  25 20 33.7
[...]
<PointData  Vectors="u"> 
<DataArray  type="Float64"  Name="u"  NumberOfComponents="3" format="ascii">1.9999999998249416e+02 1.5267789692330095e-10 -1.2386084751636634e-11  1.9999999998225712e+02 -9.6558284615264402e-11 -1.4281719217841744e-10  1.9999999998230689e+02 2.2135681260046039e-12 5.9438341848172837e-11  1.9999999998312126e+02 -4.7572051900200761e-11 -1.3738424861660818e-10  1.9999999998243860e+02 8.8606071687588383e-11 -3.7556154228491067e-11  1.9999999998224138e+02 -1.6431615380131067e-11 -1.5343093638311795e-11  1.9999999998244812e+02 1.4060607193598206e-10 4.5466694553507342e-11  1.9999999998226599e+02 4.3835091807600418e-11 -5.8656081703272899e-11  1.9999999998245215e+02 7.4305887100855945e-11 4.8231686849883956e-11  1.9999999998228517e+02 2.6899904177720903e-11 -9.2618993067712029e-11  1.9999999998142940e+02 -6.7964991233591445e-11 -8.8177372595243933e-11  1.9999999998126569e+02 -2.1773581655636018e-11 -2.2796880850892181e-11  1.9999999998222256e+02 -4.0623309139966470e-11 5.5991479823962789e-11  1.9999999998242541e+02 1.3533870647283728e-10 -7.1465869254800916e-11  1.9999999998137261e+02 -2.1547852456048555e-10 -8.6209584649296260e-11  1.9999999998149048e+02 -1.1356323426055326e-11 -3.0389389208817856e-11  1.9999999998081947e+02 1.7302594490664874e-10 -3.4605499921485772e-11  1.9999999998065471e+02 1.2738672570021573e-10 -9.7186575698577792e-11  1.9999999998079272e+02 1.2552866386915549e-10 1.0177712897843120e-10  1.9999999998137920e+02 -3.2386569396574058e-11 -2.1244086971742098e-10  1.9999999998230953e+02 -3.9106565556079092e-12 5.4188269648682486e-11  1.9999999998239824e+02 1.1897932121983310e-10 1.0593295297075792e-10  1.9999999998146106e+02 4.2077509995649557e-13 2.4280519832880877e-11  1.9999999998228213e+02 4.4422256677591012e-11 -1.3299771191741413e-11  1.9999999998210140e+02 -1.1132866482422204e-10 -9.0823648382213551e-11  1.9999999998226914e+02 3.4049210305719336e-12 4.1999151544644676e-12  1.9999999998309758e+02 -6.8027057873886471e-11 -8.4547230163250697e-11  1.9999999998244206e+02 1.6987208735209390e-10 -5.4123104468073363e-11  1.9999999998231002e+02 4.9491297345729915e-11 -1.0040867340900339e-12  1.9999999998243285e+02 1.0804937831694337e-10 7.4199393111864214e-11  1.9999999998229009e+02 -1.1200244267040537e-11 4.9991297544258208e-12  1.9999999998144648e+02 -2.2717134040708838e-11 -9.9806153262545858e-11  1.9999999998135783e+02 -1.9294923320677076e-10 -2.0323071565761612e-10  1.9999999998059624e+02 -6.3342722277093310e-11 -1.5704268892039984e-10  1.9999999998061227e+02 1.0323323513985402e-11 4.3383574942831782e-11  1.9999999998082242e+02 1.4157660262440039e-10 -1.9816770092569713e-11  1.9999999998059542e+02 6.8782564833129593e-11 -3.4362519969470772e-11  1.9999999998081867e+02 1.3143576209035091e-10 7.7029817087146976e-11  1.9999999998062017e+02 2.4495261211622593e-11 2.5576243020478720e-11  1.9999999998140180e+02 -9.7804954159408992e-11 -1.7743821366843243e-10  1.9999999998145432e+02 -5.4877228504201013e-11 -1.1287733992403687e-10  1.9999999998149320e+02 9.9815616460881844e-12 2.6032212373498113e-11  1.9999999998145091e+02 4.0916341077024035e-11 -1.6828921786266200e-11  1.9999999998221335e+02 -7.9159132852725091e-11 -1.1240030266452603e-10  1.9999999998228552e+02 2.2103088337968782e-11 2.7466016162246650e-11  1.9999999998309397e+02 -6.2122260825403868e-11 -1.7439096242987463e-10  1.9999999998246528e+02 1.2550050069919446e-10 -6.3996357132673756e-11  1.9999999998235961e+02 9.2976304104926763e-12 -6.2091308423933613e-11  1.9999999998248762e+02 1.0087886465142135e-10 7.7590935758124464e-11  1.9999999998235737e+02 9.0917651528669019e-12 -3.5404659266821469e-11  1.9999999998147533e+02 -4.0660046177338488e-11 -1.5296533085790895e-10  1.9999999998129229e+02 -1.6407753449085379e-10 4.0536918048196881e-11  1.9999999998047741e+02 -5.1045447787739771e-11 -1.1646405168144284e-10  1.9999999998058928e+02 1.1932594348908887e-11 5.8738106647124578e-11  1.9999999998078204e+02 1.3455970836450552e-10 -1.2941760900204016e-11  1.9999999998060252e+02 2.0836874446773691e-11 1.4975982538241170e-12  1.9999999998078047e+02 1.4532782180747506e-10 2.7559135399863617e-11  1.9999999998058615e+02 6.1172185631590236e-11 -1.2827624727673088e-11  1.9999999998142866e+02 -2.1781459538311468e-11 -2.2148777251685658e-10  1.9999999998145418e+02 -1.5260860559519517e-10 -1.1576341505993630e-10  1.9999999998147342e+02 -1.4031305133730754e-11 4.3084119461193892e-11  1.9999999998150616e+02 -1.1954014610915384e-11 -1.8420549735337324e-11  1.9999999998147428e+02 -6.1322224916592613e-11 -1.1562543602176370e-10  1.9999999998130716e+02 -2.0976442647507644e-10 -9.0616867358336710e-11  1.9999999998058735e+02 -8.3529108552116948e-11 -5.3374728592094598e-11  1.9999999998063359e+02 -3.2704210842210750e-11 7.8121436465923826e-11  1.9999999998082527e+02 9.4381360222429899e-11 -1.5147216345052838e-11  1.9999999998065357e+02 -9.2866297842428352e-12 6.0497444080137693e-11  1.9999999998082683e+02 4.5348455772565835e-12 5.2154196057820598e-11  1.9999999998063308e+02 7.1543980329620607e-11 -2.3237001361627847e-11  1.9999999998149903e+02 -6.7791547340297478e-11 -2.0223090501535894e-10  1.9999999998247279e+02 1.2067225818708339e-10 -4.9003198175213006e-11  1.9999999998139884e+02 -1.6918896302146062e-10 -9.1387672452211829e-11  1.9999999998143272e+02 -7.1632559325501930e-11 3.6118658953487772e-11  1.9999999998247384e+02 1.0274678901912188e-10 7.4304364685678706e-11  1.9999999998150466e+02 -2.1717515830710984e-11 -1.2374525473375998e-11  1.9999999998146092e+02 -1.0010929480378320e-10 -1.0291645568798466e-10  1.9999999998131113e+02 -1.7776587374596524e-10 -1.1878412272676930e-10  1.9999999998060792e+02 -9.1401574605432069e-11 -1.3939707424269408e-10  1.9999999998064874e+02 -2.6318796708194971e-11 8.3075229330231572e-11  1.9999999998079380e+02 1.2205569366573166e-10 3.8750691782584033e-12  1.9999999998064325e+02 -1.7739630981489138e-11 -6.7215198088830560e-11  1.9999999998084093e+02 1.1231797384710984e-10 7.4506335189605197e-11  1.9999999998061776e+02 -5.3738067334168471e-11 -1.9915391659360545e-11  1.9999999998138264e+02 -9.2355838075219068e-11 -2.1582599791323040e-10  1.9999999998250854e+02 1.3296307726698152e-10 -6.0335804934458277e-11  1.9999999998142712e+02 -1.1036644865766747e-10 -1.3917697541015590e-10  1.9999999998151216e+02 -5.1484549041422952e-11 6.4157227734676471e-11  1.9999999998246119e+02 1.0956023252173184e-10 1.1106919209786721e-10  1.9999999998146168e+02 -4.1966829208523201e-11 -7.7069514977657832e-12  1.9999999998237251e+02 6.0890415536695858e-12 -7.4050981217709698e-12  1.9999999998146163e+02 -1.0896052015417076e-10 -1.3710557307867961e-10  1.9999999998132185e+02 -2.4065374929048076e-10 -7.2340270916711663e-11  1.9999999998064067e+02 -9.9640912076380295e-11 -1.2176761694398147e-10  1.9999999998066477e+02 -4.9627700861086705e-11 1.0965930402261895e-10  1.9999999998080901e+02 7.1863819576470595e-11 1.8329780594810568e-11  1.9999999998063529e+02 -3.1667466853391753e-11 -5.9345493058669102e-12  1.9999999998083186e+02 3.5651440722043939e-11 8.3965512500963755e-11  1.9999999998070601e+02 3.5485244193447643e-11 -4.6578041078577553e-11  1.9999999998143321e+02 -9.2459658659731681e-11 -1.9931777308032251e-10  1.9999999998232332e+02 -7.5609292682308784e-11 3.6056509225068113e-11  1.9999999998250124e+02 1.6089794962966465e-10 -4.7284167455547387e-11  1.9999999998142241e+02 -1.3799550466691334e-10 -1.0016941218506813e-10  1.9999999998147098e+02 -2.7716928930994157e-11 4.1631506162512685e-11  1.9999999998245448e+02 1.0692018604860477e-10 1.1226264886647019e-10  1.9999999998152256e+02 -1.4697327593854979e-11 -2.4504748561742548e-11  1.9999999998144870e+02 -5.8900236057566154e-11 -1.5422022443944093e-10  1.9999999998130167e+02 -1.9969905099365332e-10 -4.5730030815684105e-11  1.9999999998056776e+02 -8.0005082481064290e-11 -1.8313646206705425e-10  1.9999999998060682e+02 1.1725180815419670e-11 1.4192112278445136e-10  1.9999999998076595e+02 7.5650858251857351e-11 1.6504733405722070e-11  1.9999999998062563e+02 -2.2260450597534104e-11 -4.0348023597787245e-11  1.9999999998080236e+02 8.5962711661992865e-11 8.2615559807716869e-11  1.9999999998064058e+02 -9.3552860812320074e-13 4.6960192327186308e-11  1.9999999998139492e+02 -1.1185141078618479e-10 -2.2161474213301031e-10  1.9999999998229518e+02 -3.4400123921974883e-11 1.8973930303365046e-11  1.9999999998247552e+02 1.2734393404693460e-10 -6.6816784051347986e-11  1.9999999998147254e+02 -5.8038532465574995e-11 3.4036066719069415e-11  1.9999999998232428e+02 -1.0588448589884320e-11 -5.7118468432125819e-12  1.9999999998246517e+02 9.7710836456021346e-11 1.0214986604549900e-10  1.9999999998148547e+02 7.5499672392271098e-11 -8.6158836968721510e-12  1.9999999998243302e+02 1.1836983021488502e-10 6.1146461869232132e-11  1.9999999998151551e+02 2.0957548304466001e-11 -4.0895523868333762e-11  1.9999999998148800e+02 6.5075660242755126e-12 -2.4635740600411639e-10  1.9999999998148184e+02 -5.9563252138733563e-13 -5.8418636124771683e-11  1.9999999998078280e+02 8.5537885754417447e-11 8.8381013733068519e-11  1.9999999998143025e+02 -1.8398683181939063e-10 -6.2027572797969697e-11  1.9999999998233773e+02 1.0186897554687141e-10 -5.4757648526285341e-11  1.9999999998144492e+02 -7.2312654282627906e-11 -1.1698969552737586e-10  1.9999999998144651e+02 -3.2687219512024369e-11 -1.8705716151860136e-10  1.9999999998058649e+02 8.6569605846123426e-11 7.2244294483306340e-11  1.9999999998078547e+02 1.4440861159561016e-10 1.0749744180512097e-10  1.9999999998140743e+02 -1.5399123642368014e-10 -8.5369601019268158e-11  1.9999999998059027e+02 8.4114471276754002e-11 1.3883173633441035e-10  1.9999999998234532e+02 3.9762812256984661e-11 -3.0531606154828972e-11  1.9999999998244945e+02 1.2766783403025032e-10 7.4483221186587430e-11  1.9999999998153032e+02 1.8696720377834604e-12 -1.3399940378556174e-11  1.9999999998231584e+02 1.6460336401581321e-11 -2.3155231266699406e-11  1.9999999998141686e+02 -7.4009020724102070e-11 -9.2627179637327554e-11  1.9999999998061190e+02 -7.4489494896735036e-11 -1.0297032557749370e-10  1.9999999998061176e+02 3.4215191800072407e-11 8.8915830037734401e-12  1.9999999998081191e+02 9.2183955651158815e-11 9.0927820391861045e-11  1.9999999998064160e+02 -5.0587727026535957e-11 6.9707689168250619e-11  1.9999999998145120e+02 -9.4397445244796448e-11 -2.0432432145156966e-10  1.9999999998144446e+02 -1.7253187496568519e-10 -1.1303328814695492e-10  1.9999999998213707e+02 -1.0456388715319994e-10 -1.4232250243751076e-10  1.9999999998233523e+02 8.7147968746624576e-12 1.2211730003268012e-11  1.9999999998242743e+02 1.1148864826684833e-10 8.2388146692394351e-11  1.9999999998152478e+02 4.5430831875206719e-11 3.2829757516799182e-11  1.9999999998231326e+02 2.8988915483390626e-11 -1.2286078830228249e-11  1.9999999998144398e+02 -5.9819493920006283e-11 -9.8336068560447912e-11  1.9999999998057336e+02 -9.9700521399847488e-11 -1.5795270457949843e-10  1.9999999998060599e+02 4.7121217402604294e-11 -4.3341982185716720e-11  1.9999999998080162e+02 1.3079968721836372e-10 6.4954695949899030e-11  1.9999999998060306e+02 -4.5872915251510393e-11 8.7075825037600308e-13  1.9999999998140885e+02 -9.5150125299360893e-11 -2.1404298217297078e-10  1.9999999998141595e+02 -1.1464674960850314e-10 -1.6242530260802815e-10  1.9999999998233980e+02 2.8833943378339569e-11 -8.0990140814254972e-12  1.9999999998244439e+02 1.0845237710156182e-10 8.1013061047749482e-11  1.9999999998144173e+02 3.0412435689622569e-11 -2.4793465610267822e-11  1.9999999998147388e+02 -6.7490090054863043e-11 -1.2142252813447368e-10  1.9999999998056251e+02 -4.0303432062174943e-11 -1.8714471368263420e-10  1.9999999998063728e+02 -1.9297066105235013e-11 -7.2512273718087229e-11  1.9999999998080784e+02 7.1505008153797414e-11 8.5457519541893726e-11  1.9999999998061170e+02 4.3929787060300423e-11 -4.2992508837075475e-11  1.9999999998142368e+02 -6.1630112748716416e-11 -1.6137226058594587e-10  1.9999999998141777e+02 -1.4156705800077771e-10 -1.7419916684159915e-10  1.9999999998236444e+02 7.5027282319113077e-12 5.2261246520801587e-12  1.9999999998244900e+02 9.6299503291225889e-11 1.0113207636263973e-10  1.9999999998150977e+02 -1.0365053099849076e-11 9.8099623417709266e-12  1.9999999998237627e+02 9.7689568702898981e-12 -4.2634187446019062e-11  1.9999999998143380e+02 -7.0336389215876125e-11 -9.2535402329697887e-11  1.9999999998057964e+02 -5.7882096285050801e-11 -9.2887116435850025e-11  1.9999999998068029e+02 1.5828109732697883e-12 6.8495878213925600e-11  1.9999999998082905e+02 9.0748974686297846e-11 7.1714355888810509e-11  1.9999999998063399e+02 1.1764213196315470e-10 1.6805795694955411e-11  1.9999999998142988e+02 -6.5305882424033209e-11 -2.2343990559052563e-10  1.9999999998140268e+02 -1.9679750352564404e-10 -1.1923506571795475e-10  1.9999999998246187e+02 1.2164432009228993e-10 1.0433177169709816e-10  1.9999999998150062e+02 -1.6923832241840204e-11 -3.9816369437404483e-12  1.9999999998142971e+02 -1.0116688551825705e-10 -6.6855156677759674e-11  1.9999999998068449e+02 -1.0509718186984312e-10 -7.3141035554508254e-11  1.9999999998067995e+02 -3.3577741201843757e-11 -6.1568577062057571e-11  1.9999999998085079e+02 3.9310953608968938e-11 9.2201037141191549e-11  1.9999999998072616e+02 -5.8071866319126149e-11 -2.0430709729135305e-11  1.9999999998141814e+02 -1.0656318213550544e-10 -2.1500417502728894e-10  1.9999999998138102e+02 -1.3592764329980552e-10 -1.1983599196028676e-10  1.9999999998246244e+02 1.0473985735226145e-10 8.3229123443844667e-11  1.9999999998141746e+02 2.7668480673966973e-11 1.7883694892757938e-11  1.9999999998141149e+02 -7.2853354926688821e-11 -6.6884740863726436e-11  1.9999999998057646e+02 -1.1052918290074211e-10 -1.6922766611374894e-10  1.9999999998082501e+02 4.0480321278726821e-11 5.3728160899959028e-11  1.9999999998059798e+02 5.6062752648788974e-12 3.4659343320598916e-11  1.9999999998137577e+02 -7.5618155602731894e-11 -2.0498595373875151e-10  1.9999999998146393e+02 -5.3097532054751149e-11 -1.0488588081853505e-10  1.9999999998077479e+02 1.2331381569482615e-10 4.0802926068473914e-11  1.9999999998142192e+02 -1.6218414220553164e-10 -1.2352361633939016e-10  1.9999999998064476e+02 9.4904894261460403e-11 -7.7207279519706887e-12  1.9999999998245366e+02 1.2537996849777420e-10 1.0780187062783991e-10  1.9999999998151753e+02 2.0318948487055209e-11 -1.2654620735028292e-11  1.9999999998237053e+02 8.4661522962833026e-12 -5.4872748313325861e-11  1.9999999998145367e+02 -3.8508135366848153e-11 -1.1291432218592844e-10  1.9999999998056708e+02 -6.1312962918770997e-11 -1.4182006160762926e-10  1.9999999998065292e+02 5.5155372935607419e-11 -1.2250456910567280e-10  1.9999999998081452e+02 1.3266786377112590e-10 5.7971335035641238e-11  1.9999999998061949e+02 9.6031865537332459e-12 -3.0831483337101427e-11  1.9999999998139847e+02 -8.6780410694954435e-11 -1.7332621510318119e-10  1.9999999998142798e+02 -1.4880367665930839e-10 -1.2161491653903809e-10  1.9999999998232818e+02 6.0986629396086492e-11 1.4343933784884543e-11  1.9999999998241287e+02 1.3666191327490074e-10 7.2301574033588304e-11  1.9999999998149369e+02 4.1242376380515340e-11 -5.2133066467947147e-11  1.9999999998235634e+02 6.3036730856648039e-11 -1.4898884250654211e-12  1.9999999998143852e+02 -7.8093376993822631e-11 -9.7917402485757106e-11  1.9999999998059619e+02 -9.0387704341776802e-11 -1.9419939579082724e-10  1.9999999998061242e+02 1.4952431721636953e-11 -3.1752792581583059e-11  1.9999999998079554e+02 1.1751825657809947e-10 6.5127234346657221e-11  1.9999999998059940e+02 4.9648835588560749e-11 2.2443197883200824e-11  1.9999999998140692e+02 -6.4845349966968421e-11 -1.8067940853753803e-10  1.9999999998143315e+02 -1.4206444941787236e-10 -1.3640842345626597e-10  1.9999999998243618e+02 9.0219449068011796e-11 4.9998153224066938e-11  1.9999999998154013e+02 -1.3710542281567009e-11 -1.6615648730239518e-11  1.9999999998236228e+02 -6.3894423794301423e-12 -1.4864790835172522e-11  1.9999999998145685e+02 -1.0867079970447493e-10 -1.0795919606203137e-10  1.9999999998053582e+02 -1.3701156811158411e-10 -7.9350381971878551e-11  1.9999999998062808e+02 9.9750677281093357e-12 -8.9798357772610471e-12  1.9999999998081012e+02 8.2079882307891396e-11 9.1221304938406070e-11  1.9999999998062768e+02 -5.4954944834631984e-11 -3.9611364992248496e-12  1.9999999998147754e+02 -6.1695862338126703e-11 -1.8031133526198924e-10  1.9999999998141490e+02 -1.2595717481777131e-10 -1.2759483832716747e-10  1.9999999998245312e+02 1.1310014216494774e-10 1.0489864742088963e-10  1.9999999998151713e+02 -8.4555274229806515e-12 1.3637179271639265e-12  1.9999999998233400e+02 4.8053718146362364e-11 -7.2648864274962919e-11  1.9999999998141743e+02 -3.5487517496922995e-11 -1.5008304961518912e-10  1.9999999998055580e+02 -6.8853672751459078e-11 -1.3169035487262679e-10  1.9999999998060861e+02 5.5891053871025070e-11 -7.8456218801192569e-11  1.9999999998082271e+02 1.6207882834497926e-10 1.2552510499886507e-10  1.9999999998061719e+02 -2.6132561279499291e-12 1.7540605382054041e-11  1.9999999998143073e+02 -1.0246935837235243e-10 -1.6256278276024725e-10  1.9999999998137289e+02 -1.9743953092214934e-10 -1.3809115881706238e-10  1.9999999998151713e+02 7.5864961495749647e-12 -3.8811088960904221e-11  1.9999999998144222e+02 -5.8386803799414112e-11 -9.7871734752528699e-11  1.9999999998062182e+02 -4.8055501756091955e-11 -1.0957413407455689e-10  1.9999999998063547e+02 4.2961670152843305e-12 -7.6304462203840546e-12  1.9999999998085579e+02 1.1243434243474432e-10 9.0911985832533222e-11  1.9999999998070709e+02 -2.1450044341315929e-12 -3.3313297847335775e-11  1.9999999998141612e+02 -7.9091035656943151e-11 -2.1935511948516256e-10  1.9999999998146782e+02 -1.7064160705492585e-10 -1.0730286927627683e-10  1.9999999998245377e+02 9.8033097928595044e-11 8.8991996579672027e-11  1.9999999998149471e+02 5.0622002193505651e-11 -1.0630738252271683e-11  1.9999999998144415e+02 -9.8850989365029139e-11 -7.2642667032513771e-11  1.9999999998064666e+02 -1.2650892105723762e-10 -7.6636113380438657e-11  1.9999999998063197e+02 -5.4605848825893830e-11 -5.0313052376921884e-11  1.9999999998081549e+02 1.2758703484026243e-11 1.1796796981063366e-10  1.9999999998067767e+02 -5.5164015047721269e-11 -3.6325817961355907e-11  1.9999999998144833e+02 -8.9614712570892045e-11 -1.5738607507580485e-10  1.9999999998139620e+02 -1.2644879788503966e-10 -1.0773898556116668e-10  1.9999999998245539e+02 1.2819092861056801e-10 1.2438437806349265e-10  1.9999999998145131e+02 -2.3239224439872090e-11 -6.6834797458292523e-12  1.9999999998082549e+02 6.3323345274178440e-10 3.6326473846049066e-11  1.9999999998045564e+02 -1.5773617816133994e-10 -9.6333999896651331e-11  1.9999999998058203e+02 -8.8043538387493392e-11 4.5993046150962111e-11  1.9999999998141655e+02 -8.6100187561500233e-11 -8.9115235341584112e-11  1.9999999998068705e+02 -6.7455449875639795e-11 -3.1617669528159379e-11  1.9999999998081643e+02 2.8598882654272682e-11 9.3964168916023940e-11  1.9999999998065138e+02 5.4210345526907890e-11 2.8204292140839958e-11  1.9999999998144102e+02 -3.4625473218005611e-10 1.0620494256813558e-11  1.9999999998080682e+02 4.9571306058475798e-10 5.8881371569621312e-11  1.9999999998063180e+02 -8.8695965755335083e-11 4.6287477159932896e-11  1.9999999998141263e+02 -2.2123157276352703e-11 -1.1115554582198211e-10  1.9999999998149414e+02 1.0505016197700338e-12 -5.2825775473491486e-11  1.9999999998129817e+02 3.4390913095787095e-12 -1.7627441565445537e-10  1.9999999998052925e+02 -5.2482861499728947e-11 -1.0987098152720598e-10  1.9999999998144210e+02 -5.7158940360403331e-11 -5.9523465107735307e-11  1.9999999998060204e+02 2.9384175370619630e-11 -3.9081665768452089e-11  1.9999999998078576e+02 9.1420647518786973e-11 5.2363015057273607e-11  1.9999999998058192e+02 2.2625062963086642e-11 1.2902668754089829e-11  1.9999999998142502e+02 -7.4764054919435068e-11 -1.6568109206040393e-10  1.9999999998139754e+02 -1.6412746108655616e-10 -1.2401697197230425e-10  1.9999999998141587e+02 -7.7862577843136330e-11 -1.1346422725871757e-10  1.9999999998058274e+02 -7.88509912310468