<?xml version="1.0"?>
<VTKFile type="UnstructuredGrid"  version="0.1"  >
<UnstructuredGrid>
<Piece  NumberOfPoints="3966" NumberOfCells="18901">
<Points>
<DataArray  type="Float64"  NumberOfComponents="3"  format="ascii">2.5 0 27.5  2.5 1.25 27.5  2.5 1.25 26.25  1.25 1.25 26.25  2.5 2.5 27.5  0 0 27.5  1.25 1.25 27.5  1.25 0 27.5  1.25 0 26.25  0 1.25 27.5  0 1.25 26.25  0 2.5 27.5  1.25 2.5 27.5  1.25 2.5 26.25  5 0 27.5  5 1.25 27.5  5 1.25 26.25  3.75 1.25 26.25  5 2.5 27.5  3.75 1.25 27.5  3.75 0 27.5  3.75 2.5 27.5  6.25 1.25 27.5  6.25 0 27.5  6.25 1.25 26.25  6.25 0 26.25  7.5 0 27.5  7.5 1.25 27.5  7.5 2.5 27.5  7.5 2.5 25  7.5 2.5 26.25  6.25 2.5 26.25  6.25 2.5 27.5  2.5 3.75 27.5  2.5 3.75 26.25  1.25 3.75 26.25  2.5 5 27.5  1.25 3.75 27.5  0 3.75 27.5  0 3.75 26.25  0 5 27.5  1.25 5 27.5  3.75 3.75 27.5  3.75 3.75 26.25  5 3.75 27.5  5 5 27.5  3.75 5 27.5  7.5 3.75 26.25  7.5 3.75 25  6.25 3.75 26.25  7.5 5 25  7.5 5 26.25  7.5 5 27.5  7.5 3.75 27.5  6.25 3.75 27.5  6.25 5 26.25  6.25 5 27.5  1.25 6.25 27.5  1.25 6.25 26.25  0 6.25 27.5  0 7.5 27.5  7.5 6.25 26.25  6.25 6.25 26.25  7.5 6.25 27.5  7.5 7.5 27.5  6.25 6.25 27.5  1.25 1.25 28.75  2.5 1.25 28.75  2.5 2.5 28.75  2.5 2.5 30  1.25 0 28.75  2.5 0 28.75  2.5 0 30  2.5 1.25 30  0 0 28.75  0 0 30  1.25 1.25 30  1.25 0 30  1.25 2.5 28.75  0 1.25 28.75  0 1.25 30  0 2.5 30  1.25 2.5 30  0 2.5 28.75  3.75 1.25 28.75  5 1.25 28.75  5 2.5 28.75  5 2.5 30  3.75 0 28.75  5 0 28.75  5 0 30  5 1.25 30  3.75 1.25 30  3.75 0 30  3.75 2.5 28.75  3.75 2.5 30  6.25 1.25 28.75  7.5 1.25 28.75  7.5 2.5 28.75  7.5 2.5 30  6.25 0 28.75  7.5 0 28.75  7.5 0 30  7.5 1.25 30  6.25 1.25 30  6.25 0 30  6.25 2.5 28.75  6.25 2.5 30  1.25 3.75 28.75  2.5 3.75 28.75  2.5 5 28.75  2.5 5 30  2.5 3.75 30  1.25 3.75 30  1.25 5 28.75  0 3.75 28.75  0 3.75 30  0 5 30  1.25 5 30  0 5 28.75  3.75 3.75 28.75  5 3.75 28.75  5 5 28.75  5 5 30  5 3.75 30  3.75 3.75 30  3.75 5 28.75  3.75 5 30  6.25 3.75 28.75  7.5 3.75 28.75  7.5 5 28.75  7.5 5 30  7.5 3.75 30  6.25 3.75 30  6.25 5 28.75  6.25 5 30  1.25 6.25 28.75  1.25 6.25 30  0 6.25 28.75  0 6.25 30  0 7.5 30  0 7.5 28.75  6.25 6.25 28.75  7.5 6.25 28.75  1.25 1.25 31.25  2.5 1.25 31.25  2.5 2.5 31.25  2.5 2.5 32.5  1.25 0 31.25  2.5 0 31.25  2.5 0 32.5  2.5 1.25 32.5  0 0 31.25  0 0 32.5  1.25 1.25 32.5  1.25 0 32.5  1.25 2.5 31.25  0 1.25 31.25  0 1.25 32.5  0 2.5 32.5  1.25 2.5 32.5  0 2.5 31.25  3.75 1.25 31.25  5 1.25 31.25  5 2.5 31.25  5 2.5 32.5  3.75 0 31.25  5 0 31.25  5 0 32.5  5 1.25 32.5  3.75 1.25 32.5  3.75 0 32.5  3.75 2.5 31.25  3.75 2.5 32.5  6.25 1.25 31.25  7.5 1.25 31.25  7.5 2.5 31.25  7.5 2.5 32.5  6.25 0 31.25  7.5 0 31.25  7.5 0 32.5  7.5 1.25 32.5  6.25 1.25 32.5  6.25 0 32.5  6.25 2.5 31.25  6.25 2.5 32.5  1.25 3.75 31.25  2.5 3.75 31.25  2.5 5 31.25  2.5 5 32.5  2.5 3.75 32.5  1.25 3.75 32.5  1.25 5 31.25  0 3.75 31.25  0 3.75 32.5  0 5 32.5  1.25 5 32.5  0 5 31.25  3.75 3.75 31.25  5 3.75 31.25  5 5 31.25  5 5 32.5  5 3.75 32.5  3.75 3.75 32.5  3.75 5 31.25  3.75 5 32.5  6.25 3.75 31.25  7.5 3.75 31.25  7.5 5 31.25  7.5 5 32.5  7.5 3.75 32.5  6.25 3.75 32.5  6.25 5 31.25  6.25 5 32.5  1.25 6.25 31.25  2.5 6.25 31.25  2.5 6.25 32.5  2.5 7.5 32.5  1.25 6.25 32.5  0 6.25 31.25  0 6.25 32.5  0 7.5 32.5  0 7.5 31.25  3.75 6.25 31.25  3.75 6.25 32.5  6.25 6.25 31.25  7.5 6.25 31.25  7.5 6.25 32.5  7.5 7.5 32.5  6.25 6.25 32.5  1.25 1.25 33.75  2.5 1.25 33.75  2.5 2.5 33.75  2.5 2.5 35  1.25 0 33.75  2.5 0 33.75  2.5 0 35  2.5 1.25 35  0 0 33.75  0 0 35  1.25 1.25 35  1.25 0 35  1.25 2.5 33.75  0 1.25 33.75  0 1.25 35  0 2.5 35  1.25 2.5 35  0 2.5 33.75  3.75 1.25 33.75  5 1.25 33.75  5 2.5 33.75  5 2.5 35  3.75 0 33.75  5 0 33.75  5 0 35  5 1.25 35  3.75 1.25 35  3.75 0 35  3.75 2.5 33.75  3.75 2.5 35  6.25 1.25 33.75  7.5 1.25 33.75  7.5 2.5 33.75  7.5 2.5 35  6.25 0 33.75  7.5 0 33.75  7.5 0 35  7.5 1.25 35  6.25 1.25 35  6.25 0 35  6.25 2.5 33.75  6.25 2.5 35  1.25 3.75 33.75  2.5 3.75 33.75  2.5 5 33.75  2.5 5 35  2.5 3.75 35  1.25 3.75 35  1.25 5 33.75  0 3.75 33.75  0 3.75 35  0 5 35  1.25 5 35  0 5 33.75  3.75 3.75 33.75  5 3.75 33.75  5 5 33.75  5 5 35  5 3.75 35  3.75 3.75 35  3.75 5 33.75  3.75 5 35  6.25 3.75 33.75  7.5 3.75 33.75  7.5 5 33.75  7.5 5 35  7.5 3.75 35  6.25 3.75 35  6.25 5 33.75  6.25 5 35  1.25 6.25 33.75  2.5 6.25 33.75  2.5 7.5 33.75  2.5 7.5 35  2.5 6.25 35  1.25 6.25 35  0 6.25 33.75  0 6.25 35  0 7.5 35  1.25 7.5 35  0 7.5 33.75  3.75 6.25 33.75  5 6.25 33.75  5 6.25 35  5 7.5 35  3.75 6.25 35  3.75 7.5 35  6.25 6.25 33.75  7.5 6.25 33.75  7.5 6.25 35  7.5 7.5 35  6.25 6.25 35  6.25 7.5 35  1.25 1.25 36.25  2.5 1.25 36.25  2.5 2.5 36.25  2.5 2.5 37.5  1.25 0 36.25  2.5 0 36.25  2.5 0 37.5  2.5 1.25 37.5  0 0 36.25  0 0 37.5  1.25 1.25 37.5  1.25 0 37.5  1.25 2.5 36.25  0 1.25 36.25  0 1.25 37.5  0 2.5 37.5  1.25 2.5 37.5  0 2.5 36.25  3.75 1.25 36.25  5 1.25 36.25  5 2.5 36.25  5 2.5 37.5  3.75 0 36.25  5 0 36.25  5 0 37.5  5 1.25 37.5  3.75 1.25 37.5  3.75 0 37.5  3.75 2.5 36.25  3.75 2.5 37.5  6.25 1.25 36.25  7.5 1.25 36.25  7.5 2.5 36.25  7.5 2.5 37.5  6.25 0 36.25  7.5 0 36.25  7.5 0 37.5  7.5 1.25 37.5  6.25 1.25 37.5  6.25 0 37.5  6.25 2.5 36.25  6.25 2.5 37.5  1.25 3.75 36.25  2.5 3.75 36.25  2.5 5 36.25  2.5 5 37.5  2.5 3.75 37.5  1.25 3.75 37.5  1.25 5 36.25  0 3.75 36.25  0 3.75 37.5  0 5 37.5  1.25 5 37.5  0 5 36.25  3.75 3.75 36.25  5 3.75 36.25  5 5 36.25  5 5 37.5  5 3.75 37.5  3.75 3.75 37.5  3.75 5 36.25  3.75 5 37.5  6.25 3.75 36.25  7.5 3.75 36.25  7.5 5 36.25  7.5 5 37.5  7.5 3.75 37.5  6.25 3.75 37.5  6.25 5 36.25  6.25 5 37.5  1.25 6.25 36.25  2.5 6.25 36.25  2.5 7.5 36.25  2.5 7.5 37.5  2.5 6.25 37.5  1.25 6.25 37.5  1.25 7.5 36.25  0 6.25 36.25  0 6.25 37.5  0 7.5 37.5  1.25 7.5 37.5  0 7.5 36.25  3.75 6.25 36.25  5 6.25 36.25  5 7.5 36.25  5 7.5 37.5  5 6.25 37.5  3.75 6.25 37.5  3.75 7.5 36.25  3.75 7.5 37.5  6.25 6.25 36.25  7.5 6.25 36.25  7.5 7.5 36.25  7.5 7.5 37.5  7.5 6.25 37.5  6.25 6.25 37.5  6.25 7.5 36.25  6.25 7.5 37.5  1.25 8.75 36.25  1.25 8.75 37.5  0 8.75 36.25  0 8.75 37.5  0 10 37.5  0 8.75 35  0 10 35  0 10 36.25  3.75 8.75 36.25  5 8.75 36.25  5 8.75 37.5  3.75 8.75 37.5  6.25 8.75 36.25  7.5 8.75 36.25  7.5 8.75 37.5  7.5 10 37.5  6.25 8.75 37.5  1.25 1.25 38.75  2.5 1.25 38.75  2.5 2.5 38.75  2.5 2.5 40  1.25 0 38.75  2.5 0 38.75  2.5 0 40  2.5 1.25 40  0 0 38.75  0 0 40  1.25 1.25 40  1.25 0 40  1.25 2.5 38.75  0 1.25 38.75  0 1.25 40  0 2.5 40  1.25 2.5 40  0 2.5 38.75  3.75 1.25 38.75  5 1.25 38.75  5 2.5 38.75  5 2.5 40  3.75 0 38.75  5 0 38.75  5 0 40  5 1.25 40  3.75 1.25 40  3.75 0 40  3.75 2.5 38.75  3.75 2.5 40  6.25 1.25 38.75  7.5 1.25 38.75  7.5 2.5 38.75  7.5 2.5 40  6.25 0 38.75  7.5 0 38.75  7.5 0 40  7.5 1.25 40  6.25 1.25 40  6.25 0 40  6.25 2.5 38.75  6.25 2.5 40  1.25 3.75 38.75  2.5 3.75 38.75  2.5 5 38.75  2.5 5 40  2.5 3.75 40  1.25 3.75 40  1.25 5 38.75  0 3.75 38.75  0 3.75 40  0 5 40  1.25 5 40  0 5 38.75  3.75 3.75 38.75  5 3.75 38.75  5 5 38.75  5 5 40  5 3.75 40  3.75 3.75 40  3.75 5 38.75  3.75 5 40  6.25 3.75 38.75  7.5 3.75 38.75  7.5 5 38.75  7.5 5 40  7.5 3.75 40  6.25 3.75 40  6.25 5 38.75  6.25 5 40  1.25 6.25 38.75  2.5 6.25 38.75  2.5 7.5 38.75  2.5 7.5 40  2.5 6.25 40  1.25 6.25 40  1.25 7.5 38.75  0 6.25 38.75  0 6.25 40  0 7.5 40  1.25 7.5 40  0 7.5 38.75  3.75 6.25 38.75  5 6.25 38.75  5 7.5 38.75  5 7.5 40  5 6.25 40  3.75 6.25 40  3.75 7.5 38.75  3.75 7.5 40  6.25 6.25 38.75  7.5 6.25 38.75  7.5 7.5 38.75  7.5 7.5 40  7.5 6.25 40  6.25 6.25 40  6.25 7.5 38.75  6.25 7.5 40  1.25 8.75 38.75  2.5 8.75 38.75  2.5 8.75 40  2.5 10 40  1.25 8.75 40  0 8.75 38.75  0 8.75 40  0 10 40  1.25 10 40  0 10 38.75  3.75 8.75 38.75  5 8.75 38.75  5 8.75 40  5 10 40  3.75 8.75 40  3.75 10 40  6.25 8.75 38.75  7.5 8.75 38.75  7.5 8.75 40  7.5 10 40  6.25 8.75 40  6.25 10 40  1.25 1.25 41.25  2.5 1.25 41.25  2.5 2.5 41.25  2.5 2.5 42.5  1.25 0 41.25  2.5 0 41.25  2.5 0 42.5  2.5 1.25 42.5  0 0 41.25  0 0 42.5  1.25 1.25 42.5  1.25 0 42.5  1.25 2.5 41.25  0 1.25 41.25  0 1.25 42.5  0 2.5 42.5  1.25 2.5 42.5  0 2.5 41.25  3.75 1.25 41.25  5 1.25 41.25  5 2.5 41.25  5 2.5 42.5  3.75 0 41.25  5 0 41.25  5 0 42.5  5 1.25 42.5  3.75 1.25 42.5  3.75 0 42.5  3.75 2.5 41.25  3.75 2.5 42.5  6.25 1.25 41.25  7.5 1.25 41.25  7.5 2.5 41.25  7.5 2.5 42.5  6.25 0 41.25  7.5 0 41.25  7.5 0 42.5  7.5 1.25 42.5  6.25 1.25 42.5  6.25 0 42.5  6.25 2.5 41.25  6.25 2.5 42.5  1.25 3.75 41.25  2.5 3.75 41.25  2.5 5 41.25  2.5 5 42.5  2.5 3.75 42.5  1.25 3.75 42.5  1.25 5 41.25  0 3.75 41.25  0 3.75 42.5  0 5 42.5  1.25 5 42.5  0 5 41.25  3.75 3.75 41.25  5 3.75 41.25  5 5 41.25  5 5 42.5  5 3.75 42.5  3.75 3.75 42.5  3.75 5 41.25  3.75 5 42.5  6.25 3.75 41.25  7.5 3.75 41.25  7.5 5 41.25  7.5 5 42.5  7.5 3.75 42.5  6.25 3.75 42.5  6.25 5 41.25  6.25 5 42.5  1.25 6.25 41.25  2.5 6.25 41.25  2.5 7.5 41.25  2.5 7.5 42.5  2.5 6.25 42.5  1.25 6.25 42.5  1.25 7.5 41.25  0 6.25 41.25  0 6.25 42.5  0 7.5 42.5  1.25 7.5 42.5  0 7.5 41.25  3.75 6.25 41.25  5 6.25 41.25  5 7.5 41.25  5 7.5 42.5  5 6.25 42.5  3.75 6.25 42.5  3.75 7.5 41.25  3.75 7.5 42.5  6.25 6.25 41.25  7.5 6.25 41.25  7.5 7.5 41.25  7.5 7.5 42.5  7.5 6.25 42.5  6.25 6.25 42.5  6.25 7.5 41.25  6.25 7.5 42.5  1.25 8.75 41.25  2.5 8.75 41.25  2.5 10 41.25  2.5 10 42.5  2.5 8.75 42.5  1.25 8.75 42.5  1.25 10 41.25  0 8.75 41.25  0 8.75 42.5  0 10 42.5  1.25 10 42.5  0 10 41.25  3.75 8.75 41.25  5 8.75 41.25  5 10 41.25  5 10 42.5  5 8.75 42.5  3.75 8.75 42.5  3.75 10 41.25  3.75 10 42.5  6.25 8.75 41.25  7.5 8.75 41.25  7.5 10 41.25  7.5 10 42.5  7.5 8.75 42.5  6.25 8.75 42.5  6.25 10 41.25  6.25 10 42.5  8.75 8.75 41.25  8.75 8.75 42.5  8.75 10 42.5  10 10 42.5  8.75 10 41.25  1.25 11.25 41.25  2.5 11.25 41.25  2.5 11.25 42.5  2.5 12.5 42.5  1.25 11.25 42.5  0 11.25 41.25  0 11.25 42.5  0 12.5 42.5  0 11.25 40  0 12.5 40  0 12.5 41.25  3.75 11.25 41.25  5 11.25 41.25  5 11.25 42.5  5 12.5 42.5  3.75 11.25 42.5  6.25 11.25 41.25  7.5 11.25 41.25  6.25 11.25 42.5  8.75 11.25
[...]
<PointData  Vectors="u"> 
<DataArray  type="Float64"  Name="u"  NumberOfComponents="3" format="ascii">1.9999999999826014e+02 5.2900947572718239e-10 1.2498733593107087e-10  1.9999999999825263e+02 -3.0688066479513667e-12 -3.7627863417501589e-12  1.9999999999795352e+02 -6.2031274066259471e-11 -1.5779799900086107e-10  1.9999999999898404e+02 -5.6789518291571490e-11 -1.0608728836142768e-10  1.9999999999820909e+02 1.2648255309096250e-10 1.1703895364936002e-10  2.0000000000057273e+02 6.2053085328955821e-10 1.4401458466152302e-10  1.9999999999908133e+02 -6.5791951907566524e-11 -9.8683685422892330e-11  1.9999999999906873e+02 3.1006587136577612e-11 2.3351273478502352e-11  1.9999999999896596e+02 -3.1088544400442689e-10 3.4117967036482824e-11  1.9999999999997621e+02 -2.5750868487920020e-12 -1.7711552401312979e-11  1.9999999999974457e+02 -1.2064992328365957e-10 -1.2971872405750770e-11  2.0000000000060555e+02 1.8348830224502932e-10 1.5316314065305663e-10  1.9999999999900879e+02 3.7129526798306590e-11 -2.0439849020580408e-11  1.9999999999908769e+02 -7.1737538983366933e-11 -1.3015801458993831e-10  1.9999999999646823e+02 5.8521705197300460e-10 1.1020349839974866e-10  1.9999999999639954e+02 -3.6642152426127508e-12 2.7284436742474019e-11  1.9999999999610404e+02 -8.9038859639066278e-11 -1.1675985945764349e-10  1.9999999999716522e+02 -1.3641398552475267e-10 -1.1613231513270009e-10  1.9999999999648705e+02 1.4305497703685406e-10 1.1423220424342494e-10  1.9999999999712585e+02 1.6082552051944652e-11 -1.5629569346459779e-10  1.9999999999719336e+02 1.0693223503380214e-11 -7.8298482902585925e-11  1.9999999999726228e+02 7.1002617539449422e-11 -1.1321718337718693e-10  1.9999999999531852e+02 -7.4908792983666618e-11 -6.2467411819477315e-11  1.9999999999539918e+02 -2.5740644499087029e-11 -7.4280412346133527e-11  1.9999999999537926e+02 -1.3526816468639193e-10 -3.7002976832788174e-11  1.9999999999523220e+02 -5.6044812513781582e-10 -9.8713197010410333e-13  1.9999999999468284e+02 6.4279144456437136e-10 7.2051546061915115e-11  1.9999999999444384e+02 -3.3092776949599322e-11 9.3947596659948310e-11  1.9999999999469773e+02 1.2856019924306626e-10 9.0360505723303051e-11  1.9999999999471353e+02 1.1895621601020289e-10 -4.4252499767422258e-11  1.9999999999447994e+02 1.7752878408937749e-10 -6.6066768250546663e-12  1.9999999999532008e+02 -1.9945573501918977e-10 4.8480728432334959e-11  1.9999999999541171e+02 1.1536446697144387e-10 -1.4043063849071098e-10  1.9999999999821586e+02 3.9336686507247375e-11 -6.0970278223570598e-11  1.9999999999811516e+02 -2.3622843731799802e-10 -2.5989718772058998e-10  1.9999999999902505e+02 -5.9212754483898844e-11 -3.2985317026690719e-11  1.9999999999817805e+02 1.7620377650348587e-10 1.2643106767677299e-10  1.9999999999906976e+02 -1.3592866349213147e-10 -8.5732379794951401e-11  2.0000000000002771e+02 -3.8895734830987268e-11 -1.0523317354844549e-10  1.9999999999964791e+02 -5.3247177661423184e-11 -4.7075398395717990e-11  2.0000000000058319e+02 1.6665274233739780e-10 1.1410577340949527e-10  1.9999999999905916e+02 -5.6848229256299756e-11 -8.9801300799101628e-12  1.9999999999721678e+02 -6.4445778522408940e-11 -2.1455605034062596e-10  1.9999999999720853e+02 -7.0110836237782588e-11 -8.4675282844826225e-11  1.9999999999633454e+02 1.0608395756669057e-11 -5.5643788474479682e-11  1.9999999999648884e+02 1.3546468402831561e-10 9.2427916330712247e-11  1.9999999999726614e+02 2.0467838307669009e-11 -1.1936003244281664e-11  1.9999999999444654e+02 -9.5060133235266514e-11 -7.8610426589218438e-13  1.9999999999443236e+02 -8.7837106094105211e-12 1.0991626180743948e-10  1.9999999999537522e+02 -3.2614396884548363e-11 -1.1370843244959507e-10  1.9999999999467300e+02 1.7953513076144286e-10 6.2402458410695493e-13  1.9999999999444583e+02 1.2793442098869709e-11 1.5963650289440476e-12  1.9999999999465271e+02 1.4909671534587020e-10 8.6203662780028827e-11  1.9999999999447809e+02 1.3647475282710920e-11 3.7515754216676060e-11  1.9999999999532713e+02 -6.8190224453965702e-11 -1.9801215796664548e-10  1.9999999999534046e+02 -1.8051473177522581e-10 -7.9154249338677117e-11  1.9999999999542885e+02 4.3395528326310606e-11 -2.3485392425223917e-11  1.9999999999907351e+02 -1.2264709892584481e-10 -8.4423734940641437e-11  1.9999999999899481e+02 -4.7895247093040959e-11 -3.7590263979825543e-11  1.9999999999999935e+02 -5.8010349902157184e-11 -1.2735784917569531e-10  2.0000000000055772e+02 1.9488465868856775e-10 1.1116030795130997e-10  1.9999999999444120e+02 -1.1928019271084589e-10 -1.2250841243489123e-10  1.9999999999535731e+02 -1.1530787978896302e-10 -9.1899812777443362e-11  1.9999999999445330e+02 2.0620771049195353e-11 5.8972560796575934e-11  1.9999999999467195e+02 1.1270616193158653e-10 1.0681484651596623e-10  1.9999999999536632e+02 -1.1166335686205521e-10 -2.2918228149467634e-10  1.9999999999905467e+02 -7.7730559161784707e-11 -9.1388448891001529e-11  1.9999999999819013e+02 9.9526318578075842e-11 -2.1999329205410040e-10  1.9999999999818925e+02 8.3757749541226165e-11 -3.3388271126304170e-11  1.9999999999817632e+02 1.0378456905417900e-10 1.5717648512015944e-10  1.9999999999901235e+02 -3.9593444015158258e-10 -6.5987949041761721e-11  1.9999999999822089e+02 3.7568815461324851e-11 -2.9200975608169935e-11  1.9999999999821890e+02 5.6857464894397218e-10 1.5526088899904027e-10  1.9999999999821932e+02 -4.4132968566730170e-11 -5.0858532653637278e-11  2.0000000000005284e+02 6.4010816432962036e-11 -6.8683402457471955e-11  2.0000000000052097e+02 5.4983593149836003e-10 1.6272865688630168e-10  1.9999999999909903e+02 -5.7009170499607155e-11 -1.6777135962056454e-10  1.9999999999905648e+02 7.1997784208575230e-11 -4.5682378063795736e-11  1.9999999999900751e+02 -4.7464990292311180e-11 -1.3371860620505113e-10  1.9999999999957254e+02 -7.7677771074110209e-11 -6.6729411679356123e-11  1.9999999999990339e+02 -2.7734205165460348e-11 -1.3295354508124168e-11  2.0000000000056778e+02 1.8209454819896752e-10 1.2168985431630660e-10  1.9999999999905862e+02 3.5668019471304977e-11 -5.4767579184294316e-11  2.0000000000001347e+02 -4.5535202800438052e-11 -7.7441888407585877e-11  1.9999999999717730e+02 -4.5656138786793630e-11 -6.9926765409077284e-11  1.9999999999621039e+02 5.0646616350558967e-12 -5.5945586497383841e-11  1.9999999999624981e+02 8.3686970334018394e-11 -3.0918797847643838e-11  1.9999999999649737e+02 7.7294734446354043e-11 1.1187592150434864e-10  1.9999999999721769e+02 -4.0122935844404164e-10 -5.7035217674377079e-11  1.9999999999624902e+02 8.6590949181516391e-11 -2.1213997322901427e-11  1.9999999999646732e+02 5.8390097223067036e-10 1.1914518342083790e-10  1.9999999999637259e+02 -9.3738142070544746e-11 -4.0622351241799606e-12  1.9999999999719128e+02 -5.5505719557381666e-12 -1.1620008037999105e-10  1.9999999999725981e+02 5.1298457661702085e-11 -9.8546701418527347e-11  1.9999999999713640e+02 -6.9856175011456323e-12 -1.9280589926527625e-10  1.9999999999724162e+02 4.1695392874189976e-11 -1.4413423190038030e-10  1.9999999999534887e+02 -3.0968755006115329e-11 -7.8897918254923578e-11  1.9999999999433712e+02 -1.0621340316355151e-10 -1.2609138075222582e-10  1.9999999999452228e+02 -1.0983601863529817e-11 -5.3299185260380896e-11  1.9999999999467417e+02 1.1322288189403998e-10 1.1538875715863948e-10  1.9999999999536163e+02 -4.5476606094937028e-10 1.6848984949142074e-11  1.9999999999451549e+02 1.0003574392438766e-10 7.3839142205891690e-12  1.9999999999466434e+02 5.7012415105723109e-10 1.1564956804166355e-10  1.9999999999446445e+02 -3.8955081495935262e-11 5.1453173185405455e-11  1.9999999999528637e+02 -1.4572039120593355e-11 -1.5674922842797394e-10  1.9999999999537280e+02 2.2492836728906913e-11 -4.6478547417640886e-11  1.9999999999521236e+02 2.3549966226386049e-11 -2.1351729334104908e-10  1.9999999999539659e+02 4.6338107383439261e-11 -4.7958151966936183e-11  1.9999999999894391e+02 -5.3141873565773560e-11 -8.3999596700433905e-11  1.9999999999808529e+02 -1.6237588126582631e-10 -2.2172541014474835e-10  1.9999999999819130e+02 -4.1728918412169562e-11 -6.3865102894738907e-11  1.9999999999818527e+02 1.8864723903567522e-10 1.3677464137833708e-10  1.9999999999815813e+02 -2.6870366878669469e-11 -1.0395570500091653e-10  1.9999999999899637e+02 -8.5529323524163239e-11 -1.8130259950575662e-10  1.9999999999901729e+02 -1.8238203292379539e-10 -9.9685070488070907e-11  1.9999999999964072e+02 -4.2476711209169814e-11 2.5647981064335110e-12  2.0000000000008384e+02 -4.4667969234888659e-11 -1.0685140756420018e-10  2.0000000000055232e+02 1.5283706644761125e-10 8.9611370515480389e-11  1.9999999999897369e+02 2.7217086780518878e-11 -5.1630722933543892e-12  2.0000000000000949e+02 -6.2662275604071152e-11 -1.9048606627369492e-11  1.9999999999721265e+02 -5.0657209204063629e-11 -7.1218073559094523e-11  1.9999999999621838e+02 -7.8068607004750148e-11 -1.1658100217498569e-10  1.9999999999635830e+02 2.4068845288280873e-11 -7.5819176757340983e-11  1.9999999999645900e+02 1.3464296654216701e-10 9.3778002350339794e-11  1.9999999999633474e+02 2.6274964190082305e-11 -5.4550390995433835e-11  1.9999999999719586e+02 -6.5961761453423020e-11 -2.2026545240421472e-10  1.9999999999717798e+02 -1.5491596637496821e-10 -1.1417311980423583e-10  1.9999999999723565e+02 6.1835173596959060e-11 -4.0360325369308139e-11  1.9999999999533975e+02 -4.7004187243497305e-11 -1.0427594332447966e-10  1.9999999999443176e+02 -5.2594094259714538e-11 -1.2148167547885899e-10  1.9999999999445021e+02 7.7380684402082171e-11 -3.9606291581053419e-11  1.9999999999468622e+02 1.4129078394140423e-10 8.4442278175206112e-11  1.9999999999449892e+02 7.8741234464972277e-12 9.4713847828344791e-12  1.9999999999533858e+02 -5.7200465263626148e-11 -1.9651133898218158e-10  1.9999999999536573e+02 -1.6133714301471181e-10 -1.4513103804666269e-10  1.9999999999543832e+02 4.0078700353199463e-11 -2.1229223421197067e-11  1.9999999999896374e+02 -4.7327526382944137e-11 -6.8790459409097774e-11  1.9999999999902593e+02 -1.0397123656025856e-10 -1.7370523940673495e-10  1.9999999999955600e+02 -3.4858444191658455e-11 -1.1100993899280782e-11  1.9999999999999750e+02 -3.2827316668206606e-11 -7.2213513888966527e-11  2.0000000000057540e+02 1.2770460876748467e-10 1.1250612875761580e-10  2.0000000000008183e+02 -5.1719054494632377e-11 -2.1254328494889073e-11  1.9999999999540336e+02 -5.7016896744863306e-11 -9.5243870138400083e-11  1.9999999999444123e+02 -9.6225413601110764e-11 -1.5332111928818792e-10  1.9999999999905117e+02 -1.1348180341722982e-10 -1.2176303622278931e-10  1.9999999999819002e+02 7.3762903533366603e-11 -2.2310791183446992e-10  1.9999999999816933e+02 9.8128041045433478e-11 -7.7898104885153722e-11  1.9999999999821068e+02 9.2164791344236965e-11 1.6016863504924234e-10  1.9999999999899120e+02 -4.0646289993010309e-10 -3.9535546513887682e-11  1.9999999999825121e+02 3.6229382085292783e-11 -3.6415925851120830e-11  1.9999999999823146e+02 5.4617748356967789e-10 1.2557316998223647e-10  1.9999999999823268e+02 -6.1389651558690639e-11 -4.3326596392941274e-11  2.0000000000008274e+02 7.5424153114717410e-11 -5.6897589764146913e-11  2.0000000000050747e+02 4.9879731150623705e-10 1.4205648999316793e-10  1.9999999999911105e+02 -1.0987594474835620e-10 -2.0202144073460858e-10  1.9999999999904088e+02 3.9155955621264870e-11 -6.6487014347801055e-11  1.9999999999903537e+02 -6.0511322509893161e-11 -2.1529193734810096e-10  1.9999999999962134e+02 -1.2629899984128721e-10 -9.5160009023846993e-11  1.9999999999991536e+02 -5.9825982616792053e-11 -4.5382173394466559e-11  2.0000000000053899e+02 1.6653125205670464e-10 1.3454803571829371e-10  1.9999999999902121e+02 2.2948445645433124e-11 -3.8032811920463099e-11  2.0000000000000571e+02 -4.6307804876889584e-11 -8.7374679066495470e-11  1.9999999999718253e+02 -7.4201801006898375e-11 -7.6099978118897960e-11  1.9999999999616733e+02 6.2559572341089431e-12 -1.5599292297190260e-10  1.9999999999630697e+02 4.1905134510673925e-11 4.1190100258847656e-12  1.9999999999650538e+02 9.3186518922384548e-11 1.3513437049364185e-10  1.9999999999717889e+02 -4.5229731991235529e-10 -3.5647966336591937e-11  1.9999999999633084e+02 5.2665100862161442e-12 -4.5414474415435804e-11  1.9999999999648352e+02 5.2001002453737603e-10 1.2511087611196286e-10  1.9999999999636182e+02 -4.3427835263391370e-11 -8.9425193425871343e-13  1.9999999999713606e+02 -2.8659951580265848e-11 -1.8364653969862972e-10  1.9999999999721283e+02 9.7560590157130249e-11 -1.0385041656992458e-10  1.9999999999709678e+02 -3.1785524773943432e-11 -1.8776125810958599e-10  1.9999999999727424e+02 3.6688985867379581e-11 -1.0547407766103531e-10  1.9999999999536684e+02 -5.6135528526654092e-11 -8.4619973224539009e-11  1.9999999999435150e+02 -2.2138474192032918e-11 -1.3026746747529123e-10  1.9999999999448906e+02 5.3730278565421767e-11 -8.7403259467747108e-12  1.9999999999467576e+02 8.9304045975295334e-11 1.3538482371296525e-10  1.9999999999534208e+02 -4.2500022033332254e-10 -5.9709626595998117e-11  1.9999999999448079e+02 7.3096699139244262e-11 -1.1341048699482685e-11  1.9999999999466911e+02 5.4718781178365153e-10 1.2042184204449570e-10  1.9999999999443673e+02 -5.8942954712251497e-11 5.9572356867272981e-11  1.9999999999534646e+02 -2.5690730200623460e-11 -1.6551429367434082e-10  1.9999999999538272e+02 3.2189709768874177e-11 -4.7488687777943831e-11  1.9999999999520512e+02 -2.4575664647353116e-11 -2.1432104739597243e-10  1.9999999999537945e+02 4.9082234256656816e-11 -4.8871199789687542e-11  1.9999999999896374e+02 -6.0904024663581323e-11 -9.3161379947060673e-11  1.9999999999809415e+02 -1.7712462998060978e-10 -2.2226495278687239e-10  1.9999999999816112e+02 2.2223218534448323e-11 1.1549431884259739e-12  1.9999999999820503e+02 1.6999493946917174e-10 1.2598674313422270e-10  1.9999999999816427e+02 1.3877825805297488e-11 -8.6548212368025918e-11  1.9999999999901019e+02 -6.0874108174788897e-11 -2.0794624734818684e-10  1.9999999999903170e+02 -1.4578158479614616e-10 -1.4447312033715397e-10  1.9999999999962444e+02 -2.3894806785249438e-11 -8.7101195271338932e-11  2.0000000000006048e+02 -2.7279960633467726e-11 -5.5103139260384319e-11  2.0000000000057904e+02 1.7657116516791462e-10 1.2705539484057496e-10  1.9999999999895002e+02 7.1234512244316934e-11 3.5567852802781351e-11  1.9999999999999935e+02 2.8183243444886912e-12 -5.7539068396255645e-11  1.9999999999718531e+02 -4.4723490226170806e-11 -4.9154983058002784e-11  1.9999999999621303e+02 -8.8900652279149714e-11 -1.2177668387871551e-10  1.9999999999636501e+02 8.7177658685009379e-11 -1.3119072341853743e-11  1.9999999999644956e+02 1.0704682125736177e-10 9.5094362702972350e-11  1.9999999999637987e+02 9.0044319957642268e-12 2.3862358000737729e-11  1.9999999999715905e+02 -3.9708895073938780e-11 -1.5201373931103919e-10  1.9999999999716795e+02 -1.3376878726628769e-10 -9.5831416247229302e-11  1.9999999999723335e+02 2.1313710237886841e-11 -1.0427701649863665e-11  1.9999999999536490e+02 -7.8117237740315558e-11 -8.5759771763001853e-11  1.9999999999447940e+02 -5.4965690608916398e-11 -1.1568775508461349e-10  1.9999999999452470e+02 5.6490187884586199e-11 1.8728030767676254e-11  1.9999999999467931e+02 1.1631501802264178e-10 7.0274363027592611e-11  1.9999999999451666e+02 7.5004886547134509e-11 1.5333010627867669e-11  1.9999999999531681e+02 -6.0250691440262645e-11 -1.3287890668946718e-10  1.9999999999535308e+02 -1.0023556019668657e-10 -9.3168658346320348e-11  1.9999999999544966e+02 3.8455743665404959e-11 -2.1676984245461424e-11  1.9999999999896738e+02 -3.0289546639037551e-11 -9.1615938600040484e-11  1.9999999999813835e+02 -1.8630753481240444e-10 -2.2411657962141511e-10  1.9999999999816856e+02 -1.7548156772888670e-13 -7.5053749128210230e-11  1.9999999999817811e+02 1.4150362976124072e-10 1.1815576190125635e-10  1.9999999999901897e+02 -1.0767052523749112e-10 -2.0794767988493566e-10  1.9999999999963035e+02 -4.0288643492269622e-11 -6.7642916978646871e-11  2.0000000000006335e+02 -7.4868292891434586e-11 -9.2128210645576660e-11  2.0000000000057915e+02 1.3757874956362621e-10 1.4594008580925324e-10  1.9999999999999548e+02 -8.2300669431690357e-11 -7.9915610300472963e-11  1.9999999999714947e+02 -3.2713461302130521e-11 -1.0260787353852206e-10  1.9999999999713711e+02 -1.0141123408833608e-10 -1.9378290578797920e-10  1.9999999999537297e+02 -4.8624531123787909e-11 -1.0725718372430183e-10  1.9999999999440374e+02 -7.6033979395137094e-11 -1.2770739656315158e-10  1.9999999999447601e+02 -9.8767161074805805e-12 -2.5199956350410608e-11  1.9999999999465703e+02 9.3951087441963425e-11 7.8988534206061557e-11  1.9999999999535939e+02 -6.9270416521961944e-11 -2.2914632679059787e-10  1.9999999999906660e+02 -1.0974857344158070e-10 -1.4606144889299598e-10  1.9999999999816404e+02 7.9385152692325606e-11 -2.6738914889919319e-10  1.9999999999812124e+02 9.0161352699995500e-11 -6.4193714104732037e-11  1.9999999999823729e+02 1.0378354868084065e-10 1.5083216405886555e-10  1.9999999999898984e+02 -4.2294791728487266e-10 -1.1544201439372581e-10  1.9999999999821051e+02 2.3491395371750456e-11 -8.0359593119308278e-11  1.9999999999823922e+02 5.6544402818356165e-10 1.5402552956669930e-10  1.9999999999822487e+02 -1.4360823167003962e-11 -4.9305400592214909e-11  2.0000000000003320e+02 2.0422905609180286e-11 -1.4949545867269848e-10  2.0000000000055383e+02 5.6473894506701498e-10 1.2909340246375943e-10  1.9999999999909213e+02 -1.2450231784603686e-10 -1.9740999070455838e-10  1.9999999999904904e+02 9.4180737204356325e-11 -3.8005755317744390e-11  1.9999999999905671e+02 -6.7730765601148357e-11 -1.7615827382123230e-10  1.9999999999958564e+02 -1.2909085447363073e-10 -1.4409891110809748e-10  1.9999999999998127e+02 -6.6084173642413439e-11 -3.6159626669590898e-11  2.0000000000058256e+02 2.0059571135961183e-10 1.1463974781668512e-10  1.9999999999903412e+02 5.8512467123861672e-11 -1.1076474262833276e-10  2.0000000000002089e+02 -7.5994409578293527e-11 -1.3886311695526089e-10  1.9999999999718946e+02 -1.0334064037494315e-10 -1.0600128398063745e-10  1.9999999999622602e+02 -3.4729218139720396e-11 -1.2673840667863080e-10  1.9999999999635526e+02 7.3799426925380766e-11 -8.3487196861574832e-11  1.9999999999651826e+02 9.0234196427338811e-11 1.3099592617622569e-10  1.9999999999722542e+02 -3.9637135517975512e-10 -7.6036227322693009e-11  1.9999999999630484e+02 5.8782202000701107e-11 -2.3732945997582648e-11  1.9999999999647397e+02 5.4950928779905451e-10 9.1061496456714157e-11  1.9999999999640059e+02 -1.3820561157047810e-10 3.1804599696410390e-11  1.9999999999716886e+02 -2.0343568199144785e-11 -1.4291549534582529e-10  1.9999999999726896e+02 5.8081732183866688e-11 -5.9465553900952755e-11  1.9999999999709019e+02 2.6318074586387188e-11 -2.0854134933967092e-10  1.9999999999721516e+02 9.3892227155768938e-11 -7.2001077394886310e-11  1.9999999999540282e+02 -6.2991872353338498e-11 -6.8620678336287249e-11  1.9999999999434002e+02 -8.1041855250519701e-12 -1.1496013520495240e-10  1.9999999999445572e+02 2.9404138108939868e-11 5.3453704758864130e-12  1.9999999999467977e+02 6.9222024041395401e-11 1.1353588968042169e-10  1.9999999999538409e+02 -4.4076792111905223e-10 -5.6041444766978195e-11  1.9999999999442238e+02 9.6050298765463192e-11 -2.6628323054094655e-12  1.9999999999465410e+02 5.6073450095291038e-10 7.0396833349798756e-11  1.9999999999441079e+02 -4.8160339545967943e-11 9.0311080493158247e-12  1.9999999999533685e+02 -1.1579068894409785e-11 -2.0511964878547943e-10  1.9999999999537195e+02 9.7353376589641743e-11 -1.2764356663774688e-10  1.9999999999523567e+02 -5.5542160873858710e-13 -1.8160251478237603e-10  1.9999999999542152e+02 3.8546065429013117e-11 -1.3525268067643376e-10  1.9999999999895891e+02 -3.8856662623679694e-11 -7.2989399319481574e-11  1.9999999999811942e+02 -1.5885634789543157e-10 -2.3430260535165969e-10  1.9999999999812806e+02 2.7538877201190149e-11 -1.2688207507005134e-11  1.9999999999816811e+02 1.8174078862725300e-10 1.0689964274337073e-10  1.9999999999818942e+02 4.0298924195380330e-11 -1.0605751166799771e-10  1.9999999999899276e+02 -6.7133682289750238e-11 -2.2235747704656673e-10  1.9999999999904492e+02 -1.0907226746486784e-10 -1.2706840942147281e-10  1.999999999996017