<?xml version="1.0"?>
<VTKFile type="UnstructuredGrid"  version="0.1"  >
<UnstructuredGrid>
<Piece  NumberOfPoints="3756" NumberOfCells="18312">
<Points>
<DataArray  type="Float64"  NumberOfComponents="3"  format="ascii">12.5 42.5 30  13.75 42.5 31.25  13.75 42.5 30  13.75 41.25 31.25  13.75 41.25 30  15 42.5 30  15 42.5 31.25  15 42.5 32.5  13.75 42.5 32.5  13.75 41.25 32.5  13.75 43.75 31.25  13.75 43.75 30  15 43.75 31.25  15 43.75 30  15 45 30  15 45 31.25  15 45 32.5  15 43.75 32.5  13.75 43.75 32.5  13.75 45 31.25  13.75 45 30  13.75 45 32.5  15 46.25 31.25  15 46.25 30  13.75 46.25 31.25  13.75 46.25 30  15 47.5 30  15 47.5 31.25  15 47.5 32.5  15 46.25 32.5  13.75 46.25 32.5  13.75 47.5 31.25  13.75 47.5 30  13.75 47.5 32.5  15 48.75 31.25  13.75 48.75 31.25  15 48.75 32.5  15 50 32.5  13.75 48.75 32.5  12.5 50 32.5  13.75 50 32.5  15 42.5 33.75  13.75 42.5 33.75  13.75 41.25 33.75  15 42.5 35  15 43.75 33.75  13.75 43.75 33.75  15 45 33.75  15 45 35  15 43.75 35  13.75 43.75 35  13.75 45 33.75  13.75 45 35  15 46.25 33.75  13.75 46.25 33.75  15 47.5 33.75  15 47.5 35  15 46.25 35  13.75 46.25 35  13.75 47.5 33.75  13.75 47.5 35  15 48.75 33.75  13.75 48.75 33.75  15 50 33.75  15 50 35  15 48.75 35  13.75 48.75 35  13.75 50 33.75  12.5 50 35  13.75 50 35  12.5 50 33.75  15 42.5 36.25  13.75 42.5 36.25  13.75 41.25 36.25  15 42.5 37.5  13.75 42.5 37.5  13.75 41.25 37.5  15 43.75 36.25  13.75 43.75 36.25  15 45 36.25  15 45 37.5  15 43.75 37.5  13.75 43.75 37.5  13.75 45 36.25  15 46.25 36.25  13.75 46.25 36.25  15 47.5 36.25  15 47.5 37.5  15 46.25 37.5  13.75 47.5 36.25  15 48.75 36.25  13.75 48.75 36.25  15 50 36.25  15 50 37.5  15 48.75 37.5  13.75 50 36.25  15 42.5 38.75  13.75 42.5 38.75  13.75 41.25 38.75  15 42.5 40  15 43.75 38.75  13.75 43.75 38.75  15 45 38.75  15 45 40  15 43.75 40  17.5 50 40  16.25 50 40  16.25 48.75 40  16.25 48.75 38.75  16.25 50 38.75  17.5 50 41.25  16.25 50 41.25  16.25 48.75 41.25  17.5 50 42.5  16.25 50 42.5  16.25 48.75 42.5  15 40 42.5  15 41.25 43.75  15 41.25 42.5  13.75 41.25 43.75  15 42.5 42.5  15 42.5 43.75  15 42.5 45  15 40 43.75  15 40 45  15 41.25 45  17.5 50 43.75  16.25 50 43.75  16.25 48.75 43.75  17.5 50 45  17.5 30 27.5  17.5 30 28.75  17.5 28.75 28.75  16.25 28.75 28.75  17.5 30 30  17.5 27.5 27.5  17.5 27.5 28.75  16.25 27.5 28.75  17.5 27.5 30  17.5 28.75 30  15 27.5 30  16.25 28.75 30  16.25 27.5 30  16.25 30 28.75  15 28.75 30  15 30 30  16.25 30 30  20 27.5 27.5  20 28.75 28.75  20 28.75 27.5  18.75 28.75 28.75  20 30 27.5  20 30 28.75  20 30 30  20 27.5 28.75  20 27.5 30  20 28.75 30  18.75 28.75 30  18.75 27.5 30  18.75 30 28.75  18.75 30 30  22.5 27.5 27.5  22.5 28.75 28.75  22.5 28.75 27.5  21.25 28.75 28.75  22.5 30 27.5  22.5 30 28.75  22.5 30 30  22.5 27.5 28.75  22.5 27.5 30  22.5 28.75 30  21.25 28.75 30  21.25 27.5 30  21.25 30 28.75  21.25 30 27.5  21.25 30 30  23.75 28.75 28.75  23.75 28.75 30  23.75 30 30  25 30 30  23.75 30 28.75  17.5 32.5 27.5  17.5 32.5 28.75  17.5 31.25 28.75  16.25 31.25 28.75  17.5 32.5 30  17.5 31.25 30  16.25 31.25 30  16.25 32.5 28.75  15 31.25 30  15 32.5 30  16.25 32.5 30  20 31.25 28.75  20 31.25 27.5  18.75 31.25 28.75  20 32.5 27.5  20 32.5 28.75  20 32.5 30  20 31.25 30  18.75 31.25 30  18.75 32.5 28.75  18.75 32.5 30  21.25 31.25 28.75  22.5 31.25 28.75  22.5 31.25 30  22.5 32.5 30  21.25 31.25 30  21.25 32.5 30  21.25 32.5 28.75  23.75 31.25 28.75  23.75 31.25 30  25 31.25 30  25 32.5 30  23.75 32.5 30  17.5 33.75 28.75  17.5 33.75 27.5  16.25 33.75 28.75  17.5 35 27.5  17.5 35 28.75  17.5 35 30  17.5 33.75 30  16.25 33.75 30  16.25 35 28.75  15 33.75 30  15 35 30  16.25 35 30  20 33.75 28.75  18.75 33.75 28.75  20 33.75 30  20 35 30  18.75 33.75 30  18.75 35 30  18.75 35 28.75  21.25 33.75 28.75  21.25 33.75 30  22.5 33.75 30  22.5 35 30  21.25 35 30  15 36.25 30  15 36.25 28.75  13.75 36.25 28.75  15 37.5 30  13.75 36.25 30  13.75 35 30  12.5 37.5 30  13.75 37.5 30  13.75 37.5 28.75  17.5 36.25 28.75  16.25 36.25 28.75  17.5 36.25 30  17.5 37.5 30  16.25 36.25 30  16.25 37.5 30  18.75 36.25 28.75  18.75 36.25 30  20 36.25 30  20 37.5 30  18.75 37.5 30  13.75 38.75 30  13.75 38.75 28.75  15 38.75 30  15 40 30  13.75 40 30  15 28.75 31.25  13.75 28.75 31.25  15 30 31.25  15 30 32.5  12.5 27.5 30  13.75 27.5 31.25  13.75 27.5 30  15 27.5 31.25  15 27.5 32.5  15 28.75 32.5  12.5 27.5 31.25  12.5 27.5 32.5  13.75 28.75 32.5  13.75 27.5 32.5  13.75 30 31.25  12.5 28.75 32.5  12.5 30 32.5  13.75 30 32.5  16.25 28.75 31.25  17.5 28.75 31.25  17.5 30 31.25  17.5 30 32.5  16.25 27.5 31.25  17.5 27.5 31.25  17.5 27.5 32.5  17.5 28.75 32.5  16.25 28.75 32.5  16.25 27.5 32.5  16.25 30 31.25  16.25 30 32.5  18.75 28.75 31.25  20 28.75 31.25  20 30 31.25  20 30 32.5  18.75 27.5 31.25  20 27.5 31.25  20 27.5 32.5  20 28.75 32.5  18.75 28.75 32.5  18.75 27.5 32.5  18.75 30 31.25  18.75 30 32.5  21.25 28.75 31.25  22.5 28.75 31.25  22.5 30 31.25  22.5 30 32.5  21.25 30 31.25  21.25 28.75 32.5  21.25 30 32.5  25 27.5 30  25 28.75 31.25  25 28.75 30  23.75 28.75 31.25  25 30 31.25  25 30 32.5  25 27.5 31.25  25 27.5 32.5  25 28.75 32.5  23.75 28.75 32.5  23.75 30 31.25  23.75 30 32.5  15 31.25 31.25  13.75 31.25 31.25  15 32.5 31.25  15 32.5 32.5  15 31.25 32.5  13.75 31.25 32.5  13.75 32.5 31.25  12.5 32.5 32.5  13.75 32.5 32.5  16.25 31.25 31.25  17.5 31.25 31.25  17.5 32.5 31.25  17.5 32.5 32.5  17.5 31.25 32.5  16.25 31.25 32.5  16.25 32.5 31.25  16.25 32.5 32.5  18.75 31.25 31.25  20 31.25 31.25  20 32.5 31.25  20 32.5 32.5  20 31.25 32.5  18.75 31.25 32.5  18.75 32.5 31.25  18.75 32.5 32.5  21.25 31.25 31.25  22.5 31.25 31.25  22.5 32.5 31.25  22.5 32.5 32.5  22.5 31.25 32.5  21.25 31.25 32.5  21.25 32.5 31.25  21.25 32.5 32.5  23.75 31.25 31.25  25 31.25 31.25  25 32.5 31.25  25 32.5 32.5  25 31.25 32.5  23.75 31.25 32.5  23.75 32.5 31.25  23.75 32.5 32.5  15 33.75 31.25  13.75 33.75 31.25  15 35 31.25  15 35 32.5  15 33.75 32.5  13.75 33.75 32.5  13.75 35 31.25  13.75 35 32.5  16.25 33.75 31.25  17.5 33.75 31.25  17.5 35 31.25  17.5 35 32.5  17.5 33.75 32.5  16.25 33.75 32.5  16.25 35 31.25  16.25 35 32.5  18.75 33.75 31.25  20 33.75 31.25  20 35 31.25  20 35 32.5  20 33.75 32.5  18.75 33.75 32.5  18.75 35 31.25  18.75 35 32.5  21.25 33.75 31.25  22.5 33.75 31.25  22.5 35 31.25  22.5 35 32.5  22.5 33.75 32.5  21.25 33.75 32.5  21.25 35 31.25  21.25 35 32.5  23.75 33.75 31.25  23.75 33.75 30  25 33.75 31.25  25 33.75 30  25 35 30  25 35 31.25  25 35 32.5  25 33.75 32.5  23.75 33.75 32.5  23.75 35 31.25  23.75 35 30  23.75 35 32.5  15 36.25 31.25  13.75 36.25 31.25  15 37.5 31.25  15 37.5 32.5  15 36.25 32.5  13.75 36.25 32.5  13.75 37.5 31.25  16.25 36.25 31.25  17.5 36.25 31.25  17.5 37.5 31.25  17.5 37.5 32.5  17.5 36.25 32.5  16.25 36.25 32.5  16.25 37.5 31.25  16.25 37.5 32.5  18.75 36.25 31.25  20 36.25 31.25  20 37.5 31.25  20 37.5 32.5  20 36.25 32.5  18.75 36.25 32.5  18.75 37.5 31.25  18.75 37.5 32.5  21.25 36.25 31.25  21.25 36.25 30  22.5 36.25 31.25  22.5 36.25 30  22.5 37.5 30  22.5 37.5 31.25  22.5 37.5 32.5  22.5 36.25 32.5  21.25 36.25 32.5  21.25 37.5 31.25  21.25 37.5 30  21.25 37.5 32.5  23.75 36.25 31.25  23.75 36.25 30  25 36.25 31.25  25 36.25 30  25 37.5 30  25 37.5 31.25  25 37.5 32.5  25 36.25 32.5  23.75 36.25 32.5  23.75 37.5 31.25  23.75 37.5 30  23.75 37.5 32.5  13.75 38.75 31.25  15 38.75 31.25  15 40 31.25  15 40 32.5  15 38.75 32.5  13.75 40 31.25  16.25 38.75 31.25  16.25 38.75 30  17.5 38.75 31.25  17.5 38.75 30  17.5 40 30  17.5 40 31.25  17.5 40 32.5  17.5 38.75 32.5  16.25 38.75 32.5  16.25 40 31.25  16.25 40 30  16.25 40 32.5  18.75 38.75 31.25  18.75 38.75 30  20 38.75 31.25  20 38.75 30  20 40 30  20 40 31.25  20 40 32.5  20 38.75 32.5  18.75 38.75 32.5  18.75 40 31.25  18.75 40 30  18.75 40 32.5  21.25 38.75 31.25  21.25 38.75 30  22.5 38.75 31.25  22.5 38.75 30  22.5 40 30  22.5 40 31.25  22.5 40 32.5  22.5 38.75 32.5  21.25 38.75 32.5  21.25 40 31.25  21.25 40 30  21.25 40 32.5  23.75 38.75 31.25  23.75 38.75 30  25 38.75 31.25  25 38.75 30  25 40 30  25 40 31.25  25 40 32.5  25 38.75 32.5  23.75 38.75 32.5  23.75 40 31.25  23.75 40 30  23.75 40 32.5  15 41.25 31.25  15 41.25 30  15 41.25 32.5  16.25 41.25 31.25  16.25 41.25 30  17.5 41.25 31.25  17.5 41.25 30  17.5 42.5 30  17.5 42.5 31.25  17.5 42.5 32.5  17.5 41.25 32.5  16.25 41.25 32.5  16.25 42.5 31.25  16.25 42.5 30  16.25 42.5 32.5  18.75 41.25 31.25  18.75 41.25 30  20 41.25 31.25  20 41.25 30  20 42.5 30  20 42.5 31.25  20 42.5 32.5  20 41.25 32.5  18.75 41.25 32.5  18.75 42.5 31.25  18.75 42.5 30  18.75 42.5 32.5  21.25 41.25 31.25  21.25 41.25 30  22.5 41.25 31.25  22.5 41.25 30  22.5 42.5 30  22.5 42.5 31.25  22.5 42.5 32.5  22.5 41.25 32.5  21.25 41.25 32.5  21.25 42.5 31.25  21.25 42.5 30  21.25 42.5 32.5  23.75 41.25 31.25  23.75 41.25 30  25 41.25 31.25  25 41.25 30  25 42.5 30  25 42.5 31.25  25 42.5 32.5  25 41.25 32.5  23.75 41.25 32.5  23.75 42.5 31.25  23.75 42.5 30  23.75 42.5 32.5  16.25 43.75 31.25  16.25 43.75 30  17.5 43.75 31.25  17.5 43.75 30  17.5 45 30  17.5 45 31.25  17.5 45 32.5  17.5 43.75 32.5  16.25 43.75 32.5  16.25 45 31.25  16.25 45 30  16.25 45 32.5  18.75 43.75 31.25  18.75 43.75 30  20 43.75 31.25  20 43.75 30  20 45 30  20 45 31.25  20 45 32.5  20 43.75 32.5  18.75 43.75 32.5  18.75 45 31.25  18.75 45 30  18.75 45 32.5  21.25 43.75 31.25  21.25 43.75 30  22.5 43.75 31.25  22.5 43.75 30  22.5 45 30  22.5 45 31.25  22.5 45 32.5  22.5 43.75 32.5  21.25 43.75 32.5  21.25 45 31.25  21.25 45 30  21.25 45 32.5  23.75 43.75 31.25  23.75 43.75 30  25 43.75 31.25  25 43.75 30  25 45 30  25 45 31.25  25 45 32.5  25 43.75 32.5  23.75 43.75 32.5  23.75 45 31.25  23.75 45 30  23.75 45 32.5  16.25 46.25 31.25  16.25 46.25 30  17.5 46.25 31.25  17.5 46.25 30  17.5 47.5 30  17.5 47.5 31.25  17.5 47.5 32.5  17.5 46.25 32.5  16.25 46.25 32.5  16.25 47.5 31.25  16.25 47.5 30  16.25 47.5 32.5  18.75 46.25 31.25  18.75 46.25 30  20 46.25 31.25  20 46.25 30  20 47.5 30  20 47.5 31.25  20 47.5 32
[...]
<PointData  Vectors="u"> 
<DataArray  type="Float64"  Name="u"  NumberOfComponents="3" format="ascii">1.9999999999109988e+02 1.3433884173747737e-10 -2.1267207173960963e-11  1.9999999998995028e+02 -1.2934995697112418e-10 -1.5484813282776884e-10  1.9999999999005971e+02 -4.1117527847357438e-11 4.7581285011848804e-11  1.9999999999002026e+02 -9.2948286420028814e-11 -9.6829892067933583e-11  1.9999999998988801e+02 -4.0406289985627352e-11 -1.1856272452639977e-10  1.9999999998937491e+02 1.2424500989871999e-10 -3.9924476593710373e-11  1.9999999998914780e+02 9.4654148853478191e-11 -6.9487937206919555e-11  1.9999999998935860e+02 6.8000835817746341e-11 7.9651060787231197e-11  1.9999999999004982e+02 -1.0626844705719837e-12 -2.1430138239890924e-13  1.9999999998997683e+02 -7.5165561584061633e-11 -2.8413603757350093e-10  1.9999999998996617e+02 -8.2514446243690603e-11 -1.2566993326694827e-10  1.9999999998989563e+02 -2.4245644800097398e-10 -5.1998811079130036e-11  1.9999999998909780e+02 -1.4916616868799974e-10 -1.4439805145450124e-10  1.9999999998914981e+02 -3.5186244130211748e-11 3.2525310999651341e-11  1.9999999998937585e+02 1.2523647352445244e-10 -4.5236644876837691e-11  1.9999999998916519e+02 3.2664480913283699e-11 -6.2594699539438850e-11  1.9999999998932284e+02 7.6294762349047650e-11 7.5061277049755215e-11  1.9999999998914629e+02 -1.0495066023705679e-11 -1.4052966727582702e-11  1.9999999998997521e+02 -8.9541353406444559e-11 -2.4837409923518581e-10  1.9999999998993144e+02 -1.7660790934071386e-10 -8.2442359442593275e-11  1.9999999999008082e+02 -4.8214704589118965e-11 5.9712407590522191e-11  1.9999999999006826e+02 -4.0412261808138187e-12 -2.6300194527524569e-11  1.9999999998903397e+02 -1.5600925577400079e-10 -1.5628140936151955e-10  1.9999999998914032e+02 -9.5761968145601326e-11 2.9873299838263806e-11  1.9999999999001147e+02 -1.1133548785329560e-10 -1.0910959457845596e-10  1.9999999998989483e+02 -2.1488033910416466e-10 -1.0840187133949728e-10  1.9999999998937253e+02 4.6276866073406846e-11 -3.1581658462929462e-11  1.9999999998917332e+02 -7.8069742942575263e-12 -4.4361575174160571e-11  1.9999999998934388e+02 5.5046271429949657e-11 7.0452978689457587e-11  1.9999999998911142e+02 -2.4789298210774319e-11 -3.5134165837412461e-11  1.9999999998997939e+02 -1.5265967811607820e-10 -2.5353483142757302e-10  1.9999999998996148e+02 -2.3081331269943167e-10 -1.1078131537444221e-10  1.9999999999002935e+02 -1.2835628666134142e-10 5.2125007319468887e-11  1.9999999999003697e+02 -1.2680463723154958e-11 -2.7048118048801471e-11  1.9999999998902175e+02 -7.5685499475907420e-12 -7.7596339199199472e-11  1.9999999998998561e+02 4.0816376531913571e-12 -5.0879032004520309e-11  1.9999999998915641e+02 4.9585144346103931e-11 -1.3546722904104592e-11  1.9999999998928510e+02 -5.0629702870856727e-10 3.7671935088341645e-11  1.9999999998995330e+02 1.2365284899225187e-11 -1.8723829667426606e-10  1.9999999999100010e+02 -5.3387368058098208e-10 6.7561185366902607e-11  1.9999999999008188e+02 -1.1827540343158445e-10 6.2471760630941189e-11  1.9999999998915519e+02 9.5603183641331915e-11 -6.3262312669800014e-11  1.9999999998995241e+02 -2.1311085126852132e-10 -1.5744379752252352e-10  1.9999999999000715e+02 -8.5460209778872482e-11 -1.1578601943372462e-10  1.9999999998936346e+02 7.1823494141702609e-11 1.0848557143605091e-10  1.9999999998908655e+02 -1.0686078526091520e-10 -1.4560084904749990e-10  1.9999999998999064e+02 -7.7703422541968762e-11 -1.4954110553966578e-10  1.9999999998915047e+02 1.5433965450723772e-11 -2.8644992047120412e-11  1.9999999998935658e+02 9.6362235201015081e-11 9.2320019943066499e-11  1.9999999998918051e+02 -1.2513480814053416e-11 -1.2324683931676496e-11  1.9999999998997015e+02 -1.4988954791900104e-10 -1.7963702942089307e-10  1.9999999998996591e+02 -1.7383912200472063e-10 -1.8917115802430416e-10  1.9999999999006101e+02 3.8222525939962742e-11 -6.8352081682918840e-12  1.9999999998907842e+02 -1.3300790287238074e-10 -1.3051576745941231e-10  1.9999999998999817e+02 -1.2195088703304106e-10 -1.1902971266941785e-10  1.9999999998915970e+02 -1.9869864690276234e-11 -3.5752041336502600e-11  1.9999999998932216e+02 5.0059329289180455e-11 8.8134395706246039e-11  1.9999999998914396e+02 -5.8329799056824362e-11 1.7268938126089076e-11  1.9999999998997234e+02 -1.4108599821380001e-10 -2.0305064939147066e-10  1.9999999998996387e+02 -1.1632458928153699e-10 -1.1835197877802104e-10  1.9999999999003174e+02 -2.8706778903958883e-12 -2.5718519040371255e-11  1.9999999998903996e+02 -3.1533496799290036e-12 -1.3523182325386962e-10  1.9999999998996205e+02 1.2332426787975406e-12 -1.1236018878325072e-10  1.9999999998914555e+02 -1.7907597664489158e-11 -2.0275983014323063e-11  1.9999999998930491e+02 -4.4547953541465798e-10 1.1926970732351289e-11  1.9999999998909144e+02 -1.1550120723254684e-11 -3.4978987265536979e-11  1.9999999998996097e+02 1.7602597058085808e-11 -2.4408277509046120e-10  1.9999999999005939e+02 2.0030858100646587e-10 -1.6807960675344800e-11  1.9999999999099816e+02 -5.0991256461872981e-10 5.8703023552778880e-12  1.9999999999004169e+02 -2.6379600131234991e-11 2.7635954069221567e-11  1.9999999999099953e+02 -5.3879537740415812e-11 1.5609496007847018e-11  1.9999999998912799e+02 5.8757822892996953e-11 -6.8921404886195596e-11  1.9999999998998277e+02 -2.2636737632959986e-10 -1.4213706052449511e-10  1.9999999998999405e+02 -9.4012724646632290e-11 -9.7860006207275282e-11  1.9999999998936863e+02 3.6443571409774818e-11 1.0717482802499462e-10  1.9999999999002324e+02 -4.7229886392819123e-11 -2.0121295759246497e-11  1.9999999998995924e+02 -6.7011737119150505e-11 -2.8216874280266926e-10  1.9999999998910116e+02 -1.1922189139874677e-10 -1.6284877429864629e-10  1.9999999998997265e+02 -1.1190150968945403e-10 -1.1123892157698822e-10  1.9999999998915840e+02 5.3227721409411748e-11 -6.7385861530611439e-11  1.9999999998935644e+02 1.1315476789163204e-10 1.1009776771564296e-10  1.9999999998916414e+02 4.8010352336391543e-11 4.9517445832329288e-11  1.9999999998999445e+02 -1.0795685244900780e-10 -2.2767793200008965e-10  1.9999999998998419e+02 -1.6109946839839000e-10 -1.5220524530958069e-10  1.9999999998910690e+02 -1.0165472778744892e-10 -1.0603097608356737e-10  1.9999999999001477e+02 -9.3537318668430640e-11 -9.8392955269339974e-11  1.9999999998916209e+02 -7.1535849449154323e-11 -3.6892714827849043e-11  1.9999999998935337e+02 3.7038005621667952e-11 8.0156650447286894e-11  1.9999999998914106e+02 -7.5144982598162495e-11 -2.0279176888611206e-11  1.9999999999000002e+02 -1.7800006251726582e-10 -8.6019041922282213e-11  1.9999999998906986e+02 -4.5861234131629191e-11 -8.3818634547713378e-11  1.9999999998995341e+02 -5.7584550091614555e-12 -8.9015955965898793e-11  1.9999999998914456e+02 4.8157695315379623e-11 2.6579656777388348e-11  1.9999999998929161e+02 -5.2615460378352589e-10 7.3300758491570606e-11  1.9999999998912048e+02 -6.9962177511045054e-13 1.4177917654884145e-12  1.9999999999004643e+02 1.6884324536300112e-10 -9.4751574223099989e-13  1.9999999998916186e+02 8.1951846560250933e-11 -5.7729853537496194e-11  1.9999999998992843e+02 -1.9989578988534335e-10 -1.1100427561832900e-10  1.9999999998996910e+02 -4.8089128444004658e-11 -1.2254562239515366e-10  1.9999999998933197e+02 8.6674694809465511e-11 1.1289220413059683e-10  1.9999999998908817e+02 -9.0805873216907472e-11 -1.3436203084893397e-10  1.9999999998999385e+02 -1.0261556735662872e-10 -8.6244794854948050e-11  1.9999999998915573e+02 2.9458994618550852e-11 -4.1242652169194984e-11  1.9999999998932302e+02 1.1270122243503932e-10 1.0972912222743327e-10  1.9999999998916584e+02 -9.9272795583733601e-12 3.3857400036266168e-11  1.9999999998755652e+02 -5.9281043208461415e-10 8.6394598471079478e-11  1.9999999998834366e+02 -5.0883049953241864e-11 8.5373023741261587e-11  1.9999999998826408e+02 8.6185967402355016e-11 -2.8150033036210165e-10  1.9999999998826209e+02 5.1328957282799110e-11 -3.8583794055963134e-11  1.9999999998833005e+02 1.6987273554687742e-10 -1.0425221429366210e-11  1.9999999998741734e+02 5.5509187003368066e-11 3.4920421786190961e-11  1.9999999998831203e+02 1.6323165843450953e-10 -2.3114457305900033e-11  1.9999999998827528e+02 5.3335905205954061e-11 -1.3003284391452766e-10  1.9999999998757033e+02 -5.5253546362651188e-10 4.1755800061553339e-11  1.9999999998838189e+02 1.4486539909983279e-11 8.3525800307779818e-11  1.9999999998825817e+02 5.5636593180318096e-11 -2.2170812570057392e-10  1.9999999998932915e+02 4.5866173666120301e-11 1.0883823889676208e-10  1.9999999998908345e+02 -1.1618285864209191e-10 -1.1041136575357497e-10  1.9999999998909902e+02 2.0912383637314642e-11 3.4840816054634580e-11  1.9999999998996196e+02 -1.1129056341482626e-10 -1.2254202600693815e-10  1.9999999998932881e+02 1.2160778554857268e-10 1.2541423482914639e-10  1.9999999998914302e+02 8.6561582547281439e-11 -4.0463170513747593e-11  1.9999999998935047e+02 1.2025995112303935e-10 8.3006762056284960e-11  1.9999999998911292e+02 6.9474013660044211e-11 -3.3402066239977619e-11  1.9999999998932773e+02 6.3375615718087135e-11 9.0699608704926395e-11  1.9999999998913316e+02 -1.1254469174718279e-12 8.5082435487651507e-12  1.9999999998738278e+02 9.3686036793552193e-11 -5.6248211582466344e-11  1.9999999998829719e+02 1.6360169970658085e-10 -5.2562115844252810e-11  1.9999999998825737e+02 4.8809479562658218e-11 -1.3242853602604578e-10  1.9999999998757039e+02 -5.8073862566138258e-10 4.9158152103705457e-11  1.9999999998758250e+02 3.4663780386997798e-11 8.8723327819295817e-11  1.9999999998740591e+02 -1.8804749878862772e-12 -6.6159077784316693e-11  1.9999999998730047e+02 6.4430588078552943e-11 -1.1591493989119252e-10  1.9999999998822469e+02 -3.7644406483861493e-11 -8.2926578090379324e-11  1.9999999998759282e+02 -7.1837321276995538e-12 1.4903547547662756e-10  1.9999999998754859e+02 -1.0107842956268142e-10 1.1821541193428520e-10  1.9999999998735598e+02 4.9044519046918793e-11 -1.7223231518922759e-11  1.9999999998816980e+02 -3.7631543402259655e-12 -1.1525670711808420e-10  1.9999999998755251e+02 -1.0777010559492811e-10 1.3606583062572823e-10  1.9999999998746088e+02 -3.1455240368402695e-11 1.2312838953911242e-11  1.9999999998930829e+02 -1.1204471357661437e-10 1.0735001872557862e-10  1.9999999998822119e+02 3.3059987192952026e-11 -2.1510568084784445e-10  1.9999999998832789e+02 8.3560399006674428e-11 -9.6784886513122213e-11  1.9999999998812194e+02 -2.8955182885959767e-11 -2.2641631984666494e-10  1.9999999998921336e+02 -8.2636068662353764e-11 -1.5667716165897908e-11  1.9999999998935292e+02 -1.9922950812345336e-11 1.0767498404770704e-10  1.9999999998830063e+02 -3.8334244650725989e-12 -7.9205336243202784e-11  1.9999999998587776e+02 -5.9906790493202471e-11 1.0595127688275347e-10  1.9999999998550715e+02 -1.9295292243265905e-11 -9.5628234588928464e-11  1.9999999998574285e+02 -4.8222865831099189e-11 -6.3351221310346023e-11  1.9999999998648710e+02 -1.2038606765619955e-11 -6.4215452243624475e-11  1.9999999998587515e+02 7.0843932300277179e-11 3.8250718157123996e-11  1.9999999998581879e+02 -6.6139713179366942e-11 -2.5645723889492047e-11  1.9999999998589917e+02 3.1517380699411650e-11 1.4268859543833717e-10  1.9999999998569123e+02 9.5467468046306081e-11 -2.8605643614104965e-11  1.9999999998585710e+02 -9.5334908559503310e-11 1.3622979109747568e-10  1.9999999998576070e+02 -2.2254367503738567e-11 4.6116985274727118e-11  1.9999999998645674e+02 5.7275492648105953e-11 -1.6636698046699182e-10  1.9999999998656986e+02 4.8776897805529694e-11 -4.1861370627562874e-11  1.9999999998637108e+02 2.8385231239580290e-11 -2.0734145987922291e-10  1.9999999998658626e+02 -4.9368226336228852e-12 -6.9810966033434257e-11  1.9999999998416413e+02 -6.8376269856741439e-12 1.0470951400997714e-10  1.9999999998386201e+02 -4.3161790780439540e-11 -5.0539138860061909e-11  1.9999999998400119e+02 -8.4758151530503418e-11 -1.8734786132149027e-11  1.9999999998483210e+02 -9.5267159177824360e-11 -9.3010815692397318e-11  1.9999999998415973e+02 8.3170853980271132e-11 3.4313632975398575e-11  1.9999999998407714e+02 -9.0295936059437642e-12 1.8181866106758292e-11  1.9999999998418619e+02 2.8308362816972171e-11 1.1046610248315509e-10  1.9999999998402095e+02 1.3446904639166708e-10 -3.9370819941782354e-12  1.9999999998415521e+02 -5.7520674807500306e-11 9.1273424377487774e-11  1.9999999998410934e+02 2.4930180293980796e-12 1.8441704130870508e-11  1.9999999998478663e+02 1.0597262999627699e-10 -7.8945074298148950e-11  1.9999999998483747e+02 3.3897489469434173e-11 -2.2441863128083892e-11  1.9999999998478094e+02 -1.7349249607741742e-10 -7.5398851821666906e-11  1.9999999998486012e+02 -1.1632308671974164e-10 4.2616986129859138e-11  1.9999999998489807e+02 4.0227310279169965e-11 -7.7928561709568595e-11  1.9999999998313888e+02 -3.6577782677137924e-11 6.0302387414723354e-12  1.9999999998306947e+02 5.5066051349443360e-11 -2.9629977760564476e-10  1.9999999998317233e+02 4.2657623852119445e-11 -1.2790837711504507e-10  1.9999999998248262e+02 9.0232923871253502e-11 7.9863935618196881e-11  1.9999999998310105e+02 -3.8866507296532780e-10 1.6213926945385843e-11  1.9999999998756653e+02 9.5668734296406961e-11 5.3894313034023563e-11  1.9999999998748464e+02 -2.5987586643267512e-11 -3.5611395883879654e-11  1.9999999998734327e+02 -8.5254449176552686e-11 -1.2213113836623687e-10  1.9999999998825203e+02 -8.1549749283182487e-11 -1.0800066462403614e-10  1.9999999998760174e+02 9.7412331436671409e-11 8.9995645249788821e-11  1.9999999998748157e+02 -3.5491661869485971e-11 -3.3508936256866996e-11  1.9999999998826689e+02 -1.3284288632846986e-10 -1.6933618059176149e-10  1.9999999998824458e+02 -1.9808381146076557e-10 -1.0915881827552583e-10  1.9999999998919102e+02 -7.2708330824303206e-11 -6.2106328849648485e-11  1.9999999998934092e+02 9.4583876333847213e-11 5.8035880208503805e-11  1.9999999998832709e+02 6.9949595739992634e-12 -4.4498774571798626e-11  1.9999999998562222e+02 -1.0074755573590033e-10 -9.8636967104948704e-11  1.9999999998565895e+02 3.1852694690174173e-12 2.6862217043161675e-11  1.9999999998649818e+02 -7.2159294566884935e-11 -9.0388498327332128e-11  1.9999999998587700e+02 1.2285616282487166e-10 3.1644249841570076e-11  1.9999999998576229e+02 2.4130825943167994e-11 -4.1587663064868690e-11  1.9999999998586827e+02 1.1434069880342873e-10 9.0876318528611329e-11  1.9999999998576624e+02 -3.7523338484989640e-11 5.0275097860261250e-12  1.9999999998649275e+02 -5.4608926371255060e-11 -1.4167951384275381e-10  1.9999999998650495e+02 -1.8910409528595043e-10 -1.0907566828527886e-10  1.9999999998659351e+02 -3.0335041830190796e-11 -1.2839669384010947e-11  1.9999999998485492e+02 -8.1271664095039225e-11 -6.1735432081545841e-11  1.9999999998380773e+02 -1.0577323353792534e-10 -3.4347804730603833e-11  1.9999999998407597e+02 -3.5791129240650207e-11 -3.8984141257100514e-11  1.9999999998420444e+02 8.3535802716135774e-11 4.2912488862859289e-11  1.9999999998477861e+02 -1.2432805062840381e-10 -1.8897817366021744e-10  1.9999999998485254e+02 3.7571009695540516e-12 -3.2884790114034053e-11  1.9999999998481019e+02 -2.1180283920744097e-10 -4.7498529831440012e-11  1.9999999998314783e+02 -1.8150100501002446e-11 2.0269558237339681e-11  1.9999999998317043e+02 -8.9758667560812243e-11 -1.7695275554279725e-10  1.9999999998226960e+02 4.0635505663703465e-11 4.8616488709014060e-11  1.9999999998250715e+02 7.2606685775286985e-11 3.7395602908291290e-11  1.9999999998322508e+02 -1.3097415314822237e-10 1.6628155928609593e-11  1.9999999998729518e+02 -1.3113072633184740e-10 -9.0840297490828726e-11  1.9999999998739028e+02 -8.6729612030495477e-12 5.0094335527846257e-11  1.9999999998826257e+02 -7.9089904776974631e-11 -1.0343615592239655e-10  1.9999999998757588e+02 1.1302837567454185e-10 -1.9208805618199201e-11  1.9999999998747842e+02 1.2924770900685529e-11 2.4486278218194516e-12  1.9999999998759913e+02 1.3484214942218662e-10 8.8596639237363705e-11  1.9999999998748149e+02 -5.8226488800686099e-11 -3.6000832675020747e-12  1.9999999998824427e+02 -1.4259209262637765e-10 -1.7216159010408579e-10  1.9999999998820903e+02 -1.9516037338477938e-10 -9.9565671628471034e-11  1.9999999998922769e+02 -4.3921353899568753e-11 -3.3067888765070280e-11  1.9999999998931474e+02 1.0756220239404708e-10 6.8330805390383707e-11  1.9999999998836344e+02 -2.8223149502637163e-12 -2.0309356052564687e-11  1.9999999998553582e+02 -1.0066545093050021e-10 -5.8193473426387905e-11  1.9999999998655420e+02 -8.7156928373788931e-11 -6.6984576177913809e-11  1.9999999998576826e+02 -3.4214672136323630e-11 -2.6209528028132456e-11  1.9999999998587143e+02 1.3162694265261324e-10 3.7977538306422028e-11  1.9999999998653257e+02 -1.1814601615571952e-10 -1.9160403036628289e-10  1.9999999998659192e+02 2.8008244424874730e-11 -2.1209947876509799e-11  1.9999999998653837e+02 -2.2009565261498864e-10 -3.4527802589801904e-11  1.9999999998482613e+02 -6.8653654761828167e-11 -4.4545915586242621e-11  1.9999999998477767e+02 -8.6715700109496261e-11 -2.3539532158072563e-10  1.9999999998396626e+02 1.9089024350107985e-11 8.7529917933225688e-12  1.9999999998417110e+02 1.4726075516441943e-10 5.3132652925496361e-12  1.9999999998491774e+02 -9.5690396535222217e-11 2.8373963136067583e-11  1.9999999998921410e+02 1.4215517714628892e-11 -1.8979436476030076e-11  1.9999999998894327e+02 -1.4729439926540664e-10 -7.0315311036666884e-11  1.9999999999001437e+02 -1.0006626126947482e-10 -5.9913241510761597e-11  1.9999999998936664e+02 8.7608485258881171e-11 7.8751603339669738e-11  1.9999999999001352e+02 -1.4156778153496646e-10 -1.8763881036090829e-10  1.9999999999008742e+02 2.4888978893451921e-11 -4.6416467097090837e-11  1.9999999999103377e+02 8.8960312045825361e-11 1.0774966084866543e-10  1.9999999999006295e+02 -1.2556107826792526e-11 2.9203581331341727e-11  1.9999999999000903e+02 -2.8197269722774031e-10 -7.7650755265113132e-11  1.9999999998722538e+02 -8.1087255587052174e-11 -5.3534987219548363e-11  1.9999999998828983e+02 -3.9672957078595992e-11 -9.2021111862241501e-11  1.9999999998751522e+02 -8.9667805853031718e-11 -2.8632866471177821e-11  1.9999999998758355e+02 1.3221304751842341e-10 2.3593895088435226e-12  1.9999999998823611e+02 -1.1275449880083933e-10 -1.7315721911307490e-10  1.9999999998829364e+02 -8.4744885918002593e-11 -2.0800856167198759e-11  1.9999999998655892e+02 -6.4125373495857839e-11 -1.7945225552970478e-11  1.9999999998653817e+02 -1.4809394969756852e-10 -2.1714680203298907e-10  1.9999999998564400e+02 -1.0896313584447207e-11 -9.9187393000738168e-12  1.9999999998589215e+02 1.2916054292681621e-10 -3.2144384220364268e-12  1.9999999998666294e+02 -1.2301633273268762e-10 4.4317902201652461e-11  1.9999999999000519e+02 -9.0656394884698060e-11 -1.7354772146909010e-10  1.9999999999006164e+02 -7.2976728220093879e-11 -3.9272069018308230e-11  1.9999999998913657e+02 7.8124241013532549e-12 -1.5274647588215161e-11  1.9999999998936934e+02 8.6356287841334082e-11 -1.5539372447144169e-11  1.9999999999008267e+02 3.1206616771585687e-11 1.2358749646569021e-10  1.9999999998898124e+02 3.6467043694191622e-11 -1.2717413717133409e-10  1.9999999999003253e+02 -4.8893215544638417e-11 -9.6730624246964307e-11  1.9999999998914024e+02 -5.2421470532446138e-11 -6.3681134864921182e-11  1.9999999998932785e+02 -3.4566714699272711e-11 1.3827844515686476e-10  1.9999999999102224e+02 -1.0842175865222879e-10 9.1675940108585107e-11  1.9999999998998456e+02 2.3725108803131892e-11 -1.5750208669181884e-10  1.9999999999011544e+02 7.5168016728111455e-11 -6.8365857808360779e-11  1.9999999998912577e+02 5.6227499942408054e-11 -2.9876859077782456e-11  1.9999999998935294e+02 -1.5176250035023858e-10 8.2423981104508172e-11  1.9999999998921427e+02 6.8519224840626633e-13 -2.0666722978919170e-11  1.9999999999106907e+02 1.8925604791983804e-11 -6.9563033663600079e-11  1.9999999999097665e+02 -1.7797196072880152e-10 1.4506208787867660e-10  1.9999999999000804e+02 1.0257275599337715e-10 -1.8281299549349509e-10  1.9999999999008406e+02 1.3725651363551142e-11 -9.9352407099747692e-11  1.9999999998990128e+02 -6.6782912578610113e-11 -1.9826728896434222e-10  1.9999999999100027e+02 5.7349271760537684e-12 -6.3447239124960250e-11  1.99999999990