<?xml version="1.0"?>
<VTKFile type="UnstructuredGrid"  version="0.1"  >
<UnstructuredGrid>
<Piece  NumberOfPoints="4029" NumberOfCells="19865">
<Points>
<DataArray  type="Float64"  NumberOfComponents="3"  format="ascii">0 37.5 30  1.25 38.75 30  1.25 37.5 30  1.25 38.75 28.75  2.5 37.5 30  2.5 38.75 30  2.5 40 30  0 37.5 27.5  0 38.75 28.75  0 37.5 28.75  0 38.75 30  0 40 30  1.25 40 30  7.5 37.5 30  7.5 38.75 30  7.5 38.75 28.75  6.25 38.75 28.75  7.5 40 30  5 37.5 30  6.25 38.75 30  6.25 37.5 30  5 38.75 30  5 40 30  6.25 40 30  10 37.5 30  10 38.75 30  10 38.75 28.75  8.75 38.75 28.75  10 40 30  8.75 38.75 30  8.75 37.5 30  8.75 40 30  11.25 38.75 30  11.25 38.75 28.75  11.25 40 30  12.5 40 30  7.5 30 32.5  7.5 28.75 32.5  7.5 28.75 31.25  6.25 28.75 31.25  7.5 27.5 32.5  6.25 28.75 32.5  5 30 32.5  6.25 30 32.5  10 27.5 32.5  10 28.75 32.5  8.75 28.75 32.5  8.75 28.75 31.25  10 30 32.5  8.75 30 32.5  0 30 32.5  1.25 31.25 32.5  1.25 30 32.5  1.25 31.25 31.25  2.5 30 32.5  2.5 31.25 32.5  2.5 32.5 32.5  0 31.25 32.5  0 31.25 31.25  0 32.5 32.5  1.25 32.5 32.5  0 32.5 30  1.25 32.5 31.25  0 32.5 31.25  0 31.25 30  2.5 35 32.5  2.5 35 31.25  2.5 33.75 31.25  1.25 33.75 31.25  2.5 33.75 32.5  1.25 33.75 32.5  1.25 35 31.25  0 33.75 31.25  0 33.75 32.5  0 35 32.5  1.25 35 32.5  0 33.75 30  0 35 30  0 35 31.25  5 35 32.5  5 35 31.25  5 33.75 31.25  3.75 33.75 31.25  5 32.5 32.5  5 33.75 32.5  3.75 33.75 32.5  3.75 32.5 32.5  3.75 35 31.25  3.75 35 32.5  7.5 35 30  7.5 35 31.25  7.5 33.75 31.25  6.25 33.75 31.25  7.5 35 32.5  7.5 32.5 32.5  7.5 33.75 32.5  6.25 33.75 32.5  6.25 32.5 32.5  6.25 35 31.25  6.25 35 32.5  10 35 30  10 35 31.25  10 33.75 31.25  8.75 33.75 31.25  10 35 32.5  10 32.5 32.5  10 33.75 32.5  8.75 33.75 32.5  8.75 32.5 32.5  8.75 35 31.25  8.75 35 32.5  2.5 37.5 31.25  2.5 36.25 31.25  1.25 36.25 31.25  2.5 37.5 32.5  2.5 36.25 32.5  1.25 36.25 32.5  1.25 37.5 31.25  0 36.25 31.25  0 36.25 32.5  0 37.5 32.5  1.25 37.5 32.5  0 36.25 30  0 37.5 31.25  5 37.5 31.25  5 36.25 31.25  3.75 36.25 31.25  5 37.5 32.5  5 36.25 32.5  3.75 36.25 32.5  3.75 37.5 31.25  3.75 37.5 30  3.75 37.5 32.5  7.5 37.5 31.25  7.5 36.25 31.25  6.25 36.25 31.25  7.5 37.5 32.5  7.5 36.25 32.5  6.25 36.25 32.5  6.25 37.5 31.25  6.25 37.5 32.5  10 36.25 31.25  10 36.25 30  8.75 36.25 31.25  10 37.5 31.25  10 37.5 32.5  10 36.25 32.5  8.75 36.25 32.5  8.75 37.5 31.25  8.75 37.5 32.5  1.25 38.75 31.25  2.5 38.75 31.25  2.5 40 31.25  2.5 40 32.5  2.5 38.75 32.5  1.25 38.75 32.5  1.25 40 31.25  0 38.75 31.25  0 38.75 32.5  0 40 32.5  1.25 40 32.5  0 40 31.25  3.75 38.75 31.25  3.75 38.75 30  5 38.75 31.25  5 40 31.25  5 40 32.5  5 38.75 32.5  3.75 38.75 32.5  3.75 40 31.25  3.75 40 30  3.75 40 32.5  6.25 38.75 31.25  7.5 38.75 31.25  7.5 40 31.25  7.5 40 32.5  7.5 38.75 32.5  6.25 38.75 32.5  6.25 40 31.25  6.25 40 32.5  8.75 38.75 31.25  10 38.75 31.25  10 40 31.25  10 40 32.5  10 38.75 32.5  8.75 38.75 32.5  8.75 40 31.25  8.75 40 32.5  11.25 38.75 31.25  11.25 40 31.25  12.5 40 31.25  12.5 40 32.5  11.25 38.75 32.5  11.25 40 32.5  1.25 41.25 31.25  1.25 41.25 30  2.5 41.25 31.25  2.5 41.25 30  2.5 42.5 30  2.5 42.5 31.25  2.5 42.5 32.5  2.5 41.25 32.5  1.25 41.25 32.5  0 41.25 30  0 42.5 30  1.25 42.5 31.25  1.25 42.5 30  0 41.25 31.25  0 41.25 32.5  0 42.5 32.5  1.25 42.5 32.5  0 42.5 31.25  3.75 41.25 31.25  3.75 41.25 30  5 41.25 31.25  5 41.25 30  5 42.5 30  5 42.5 31.25  5 42.5 32.5  5 41.25 32.5  3.75 41.25 32.5  3.75 42.5 31.25  3.75 42.5 30  3.75 42.5 32.5  6.25 41.25 31.25  6.25 41.25 30  7.5 41.25 31.25  7.5 41.25 30  7.5 42.5 30  7.5 42.5 31.25  7.5 42.5 32.5  7.5 41.25 32.5  6.25 41.25 32.5  6.25 42.5 31.25  6.25 42.5 30  6.25 42.5 32.5  8.75 41.25 31.25  8.75 41.25 30  10 41.25 31.25  10 41.25 30  10 42.5 30  10 42.5 31.25  10 42.5 32.5  10 41.25 32.5  8.75 41.25 32.5  8.75 42.5 31.25  8.75 42.5 30  8.75 42.5 32.5  11.25 41.25 31.25  11.25 41.25 30  12.5 41.25 31.25  12.5 41.25 30  12.5 42.5 30  12.5 42.5 31.25  12.5 42.5 32.5  12.5 41.25 32.5  11.25 41.25 32.5  11.25 42.5 31.25  11.25 42.5 30  11.25 42.5 32.5  13.75 41.25 31.25  13.75 41.25 30  13.75 41.25 32.5  13.75 42.5 32.5  13.75 42.5 31.25  1.25 43.75 31.25  1.25 43.75 30  2.5 43.75 31.25  2.5 43.75 30  2.5 45 30  2.5 45 31.25  2.5 45 32.5  2.5 43.75 32.5  1.25 43.75 32.5  0 43.75 30  0 45 30  1.25 45 31.25  1.25 45 30  0 43.75 31.25  0 43.75 32.5  0 45 32.5  1.25 45 32.5  0 45 31.25  3.75 43.75 31.25  3.75 43.75 30  5 43.75 31.25  5 43.75 30  5 45 30  5 45 31.25  5 45 32.5  5 43.75 32.5  3.75 43.75 32.5  3.75 45 31.25  3.75 45 30  3.75 45 32.5  6.25 43.75 31.25  6.25 43.75 30  7.5 43.75 31.25  7.5 43.75 30  7.5 45 30  7.5 45 31.25  7.5 45 32.5  7.5 43.75 32.5  6.25 43.75 32.5  6.25 45 31.25  6.25 45 30  6.25 45 32.5  8.75 43.75 31.25  8.75 43.75 30  10 43.75 31.25  10 43.75 30  10 45 30  10 45 31.25  10 45 32.5  10 43.75 32.5  8.75 43.75 32.5  8.75 45 31.25  8.75 45 30  8.75 45 32.5  11.25 43.75 31.25  11.25 43.75 30  12.5 43.75 31.25  12.5 43.75 30  12.5 45 30  12.5 45 31.25  12.5 45 32.5  12.5 43.75 32.5  11.25 43.75 32.5  11.25 45 31.25  11.25 45 30  11.25 45 32.5  13.75 43.75 31.25  13.75 43.75 32.5  13.75 43.75 30  13.75 45 31.25  13.75 45 30  13.75 45 32.5  1.25 46.25 31.25  1.25 46.25 30  2.5 46.25 31.25  2.5 46.25 30  2.5 47.5 30  2.5 47.5 31.25  2.5 47.5 32.5  2.5 46.25 32.5  1.25 46.25 32.5  0 46.25 30  0 47.5 30  1.25 47.5 31.25  1.25 47.5 30  0 46.25 31.25  0 46.25 32.5  0 47.5 32.5  1.25 47.5 32.5  0 47.5 31.25  3.75 46.25 31.25  3.75 46.25 30  5 46.25 31.25  5 46.25 30  5 47.5 30  5 47.5 31.25  5 47.5 32.5  5 46.25 32.5  3.75 46.25 32.5  3.75 47.5 31.25  3.75 47.5 30  3.75 47.5 32.5  6.25 46.25 31.25  6.25 46.25 30  7.5 46.25 31.25  7.5 46.25 30  7.5 47.5 30  7.5 47.5 31.25  7.5 47.5 32.5  7.5 46.25 32.5  6.25 46.25 32.5  6.25 47.5 31.25  6.25 47.5 30  6.25 47.5 32.5  8.75 46.25 31.25  8.75 46.25 30  10 46.25 31.25  10 46.25 30  10 47.5 30  10 47.5 31.25  10 47.5 32.5  10 46.25 32.5  8.75 46.25 32.5  8.75 47.5 31.25  8.75 47.5 30  8.75 47.5 32.5  11.25 46.25 31.25  11.25 46.25 30  12.5 46.25 31.25  12.5 46.25 30  12.5 47.5 30  12.5 47.5 31.25  12.5 47.5 32.5  12.5 46.25 32.5  11.25 46.25 32.5  11.25 47.5 31.25  11.25 47.5 30  11.25 47.5 32.5  13.75 46.25 31.25  13.75 46.25 30  13.75 46.25 32.5  13.75 47.5 31.25  13.75 47.5 30  13.75 47.5 32.5  1.25 48.75 31.25  1.25 48.75 30  2.5 48.75 31.25  2.5 48.75 30  2.5 50 30  2.5 50 31.25  2.5 50 32.5  2.5 48.75 32.5  1.25 48.75 32.5  0 48.75 30  0 50 30  1.25 50 31.25  1.25 50 30  0 48.75 31.25  0 48.75 32.5  0 50 32.5  1.25 50 32.5  0 50 31.25  3.75 48.75 31.25  3.75 48.75 30  5 48.75 31.25  5 48.75 30  5 50 30  5 50 31.25  5 50 32.5  5 48.75 32.5  3.75 48.75 32.5  3.75 50 31.25  3.75 50 30  3.75 50 32.5  6.25 48.75 31.25  6.25 48.75 30  7.5 48.75 31.25  7.5 48.75 30  7.5 50 30  7.5 50 31.25  7.5 50 32.5  7.5 48.75 32.5  6.25 48.75 32.5  6.25 50 31.25  6.25 50 30  6.25 50 32.5  8.75 48.75 31.25  8.75 48.75 30  10 48.75 31.25  10 48.75 30  10 50 30  10 50 31.25  10 50 32.5  10 48.75 32.5  8.75 48.75 32.5  8.75 50 31.25  8.75 50 30  8.75 50 32.5  11.25 48.75 31.25  12.5 48.75 31.25  12.5 48.75 32.5  12.5 50 32.5  11.25 48.75 32.5  11.25 50 32.5  11.25 50 31.25  13.75 48.75 31.25  13.75 48.75 32.5  7.5 28.75 33.75  6.25 28.75 33.75  7.5 30 33.75  7.5 30 35  7.5 27.5 35  7.5 28.75 35  6.25 28.75 35  6.25 30 33.75  5 30 35  6.25 30 35  5 30 33.75  10 28.75 33.75  8.75 28.75 33.75  10 30 33.75  10 30 35  10 27.5 33.75  10 27.5 35  10 28.75 35  8.75 28.75 35  8.75 27.5 35  8.75 30 33.75  8.75 30 35  1.25 31.25 33.75  2.5 31.25 33.75  2.5 32.5 33.75  2.5 32.5 35  2.5 30 33.75  2.5 30 35  2.5 31.25 35  0 30 35  1.25 31.25 35  1.25 30 35  1.25 32.5 33.75  0 31.25 35  0 31.25 33.75  0 32.5 35  1.25 32.5 35  0 32.5 33.75  3.75 31.25 33.75  3.75 31.25 32.5  3.75 30 32.5  5 31.25 33.75  5 31.25 32.5  5 32.5 33.75  5 32.5 35  3.75 30 33.75  5 31.25 35  3.75 31.25 35  3.75 30 35  3.75 32.5 33.75  3.75 32.5 35  6.25 31.25 33.75  6.25 31.25 32.5  7.5 31.25 33.75  7.5 31.25 32.5  7.5 32.5 33.75  7.5 32.5 35  7.5 31.25 35  6.25 31.25 35  6.25 32.5 33.75  6.25 32.5 35  8.75 31.25 33.75  8.75 31.25 32.5  10 31.25 33.75  10 31.25 32.5  10 32.5 33.75  10 32.5 35  10 31.25 35  8.75 31.25 35  8.75 32.5 33.75  8.75 32.5 35  1.25 33.75 33.75  2.5 33.75 33.75  2.5 35 33.75  2.5 35 35  2.5 33.75 35  1.25 33.75 35  1.25 35 33.75  0 33.75 33.75  0 33.75 35  0 35 35  1.25 35 35  0 35 33.75  3.75 33.75 33.75  5 33.75 33.75  5 35 33.75  5 35 35  5 33.75 35  3.75 33.75 35  3.75 35 33.75  3.75 35 35  6.25 33.75 33.75  7.5 33.75 33.75  7.5 35 33.75  7.5 35 35  7.5 33.75 35  6.25 33.75 35  6.25 35 33.75  6.25 35 35  8.75 33.75 33.75  10 33.75 33.75  10 35 33.75  10 35 35  10 33.75 35  8.75 33.75 35  8.75 35 33.75  8.75 35 35  1.25 36.25 33.75  2.5 36.25 33.75  2.5 37.5 33.75  2.5 37.5 35  2.5 36.25 35  1.25 36.25 35  1.25 37.5 33.75  0 36.25 33.75  0 36.25 35  0 37.5 35  1.25 37.5 35  0 37.5 33.75  3.75 36.25 33.75  5 36.25 33.75  5 37.5 33.75  5 37.5 35  5 36.25 35  3.75 36.25 35  3.75 37.5 33.75  3.75 37.5 35  6.25 36.25 33.75  7.5 36.25 33.75  7.5 37.5 33.75  7.5 37.5 35  7.5 36.25 35  6.25 36.25 35  6.25 37.5 33.75  6.25 37.5 35  8.75 36.25 33.75  10 36.25 33.75  10 37.5 33.75  10 37.5 35  10 36.25 35  8.75 36.25 35  8.75 37.5 33.75  8.75 37.5 35  1.25 38.75 33.75  2.5 38.75 33.75  2.5 40 33.75  2.5 40 35  2.5 38.75 35  1.25 38.75 35  1.25 40 33.75  0 38.75 33.75  0 38.75 35  0 40 35  1.25 40 35  0 40 33.75  3.75 38.75 33.75  5 38.75 33.75  5 40 33.75  5 40 35  5 38.75 35  3.75 38.75 35  3.75 40 33.75  3.75 40 35  6.25 38.75 33.75  7.5 38.75 33.75  7.5 40 33.75  7.5 40 35  7.5 38.75 35  6.25 38.75 35  6.25 40 33.75  6.25 40 35  8.75 38.75 33.75  10 38.75 33.75  10 40 33.75  10 40 35  10 38.75 35  8.75 38.75 35  8.75 40 33.75  8.75 40 35  11.25 38.75 33.75  11.25 40 33.75  12.5 40 33.75  12.5 40 35  11.25 38.75 35  11.25 40 35  1.25 41.25 33.75  2.5 41.25 33.75  2.5 42.5 33.75  2.5 42.5 35  2.5 41.25 35  1.25 41.25 35  1.25 42.5 
[...]
<PointData  Vectors="u"> 
<DataArray  type="Float64"  Name="u"  NumberOfComponents="3" format="ascii">2.0000000000053731e+02 9.1856577027509547e-11 4.9897421234998995e-11  1.9999999999905023e+02 -1.0572686444634183e-10 -2.5667553822029023e-10  1.9999999999899453e+02 -2.5053503409129437e-11 -4.3401651034522535e-11  1.9999999999898742e+02 -1.1113515750625036e-10 -4.6043023061368068e-11  1.9999999999820849e+02 1.2186870332028728e-10 1.0903612689087283e-10  1.9999999999816310e+02 -6.0739482962954232e-11 -1.0796690181079802e-10  1.9999999999820392e+02 1.5733729462781677e-10 4.2473120804117487e-11  2.0000000000056315e+02 1.3048654820317857e-10 5.7623344517094520e-11  1.9999999999970854e+02 -5.0908750688979383e-11 -5.5600894928764931e-11  2.0000000000002618e+02 -1.1910302991153095e-10 -3.4995565605601636e-11  2.0000000000000588e+02 -6.6209506299575436e-11 -1.4810436349678480e-10  2.0000000000058606e+02 1.2219658831911770e-10 -1.5453999369198670e-11  1.9999999999898782e+02 -1.2484144535482975e-10 1.0181249525099634e-11  1.9999999999463253e+02 7.1596369484409460e-11 9.2734631917162978e-11  1.9999999999455216e+02 -3.7232643741030253e-11 6.5469892773083458e-12  1.9999999999425060e+02 -1.2845189026003402e-10 -6.1246515529674798e-11  1.9999999999530172e+02 -1.2254864965445700e-10 -5.3989691936823669e-11  1.9999999999465717e+02 1.6569717120894534e-10 3.9312583579916148e-11  1.9999999999641881e+02 7.4646746868705251e-11 7.6878838794981623e-11  1.9999999999531198e+02 -1.0722885658128225e-10 -2.3159489468835956e-10  1.9999999999543729e+02 -3.7430258710801749e-11 -6.8133711851381298e-11  1.9999999999633098e+02 -4.0038388865284356e-11 -4.5613262291002683e-11  1.9999999999647764e+02 1.5455802767834713e-10 2.8227363606744242e-11  1.9999999999536635e+02 -8.3625976179948583e-11 3.1521089450450812e-11  1.9999999999283779e+02 7.6093976720385405e-11 9.0370582694718191e-11  1.9999999999269096e+02 -8.1438578290139557e-11 -2.0585787704315551e-11  1.9999999999242331e+02 -1.1294865092903055e-10 -4.7735236380747389e-11  1.9999999999354472e+02 -1.0139728929588237e-10 -4.3260918162951835e-11  1.9999999999282849e+02 1.3327165037711855e-10 1.1135225645820492e-11  1.9999999999351857e+02 -1.1927032129775585e-10 -2.0694518724859371e-10  1.9999999999358627e+02 -2.7535202593035035e-11 1.7463298548711811e-11  1.9999999999356592e+02 -9.8566169068889818e-11 -1.1789933815107335e-12  1.9999999999172383e+02 -5.8778725745865989e-11 -2.4781687764753126e-10  1.9999999999173448e+02 -4.0689123249695727e-11 -3.4214804071186380e-11  1.9999999999177115e+02 -1.1242200808013971e-10 7.5712105596791602e-11  1.9999999999108866e+02 9.7670628859117731e-11 3.0658099287416326e-11  1.9999999999467738e+02 -3.7883784744899919e-11 1.1449168058779428e-10  1.9999999999454016e+02 -6.2932177909442489e-11 7.0848865294932521e-12  1.9999999999436207e+02 6.8643884905910191e-11 -1.7549247429040101e-10  1.9999999999534018e+02 -6.4159005449756028e-11 -1.2367281818170631e-10  1.9999999999465135e+02 -1.2049495987726724e-10 1.1606338695827845e-10  1.9999999999528663e+02 2.9625830555419885e-11 -2.1394562181881132e-10  1.9999999999647147e+02 -5.5735873828504859e-11 1.3147559136631248e-10  1.9999999999537619e+02 -4.2816944311382494e-11 -1.0220979623527489e-10  1.9999999999285149e+02 -1.3220817560971854e-10 1.3078563466392695e-10  1.9999999999261513e+02 -3.2109922697943342e-11 9.8054020611466495e-11  1.9999999999348844e+02 1.7298642168336033e-11 -1.7157963003446277e-10  1.9999999999348088e+02 -2.8466292785669973e-11 -9.9232629172848619e-11  1.9999999999290384e+02 2.4196132120936634e-11 1.2994082257668216e-10  1.9999999999360276e+02 -1.6120760730753436e-11 -1.2216836884412617e-10  2.0000000000057878e+02 3.1920056186611789e-11 9.1209759010248042e-11  1.9999999999900203e+02 -1.3811897543580062e-10 -2.2999979603776611e-10  1.9999999999900470e+02 -2.0729875036193392e-11 -1.1561895381019776e-10  1.9999999999893626e+02 -1.3928556957012585e-10 -1.3375080140113746e-10  1.9999999999818957e+02 -2.7332683945151278e-11 1.3515235880449761e-10  1.9999999999812349e+02 -5.6261266882128691e-11 -1.0239673230932532e-10  1.9999999999820031e+02 1.5676286998530855e-10 9.3679414721326585e-11  2.0000000000004752e+02 -8.7877426774300376e-11 -1.3546249589784535e-10  1.9999999999957572e+02 -1.2603588430500836e-10 -1.2795229816376220e-10  2.0000000000062767e+02 1.0774193519795672e-10 6.6712151403001272e-11  1.9999999999896283e+02 -1.5812421828475409e-11 -2.7776756605538066e-11  2.0000000000056076e+02 6.2438405666781616e-11 6.9426068968782577e-11  1.9999999999904071e+02 -1.7689898748606174e-10 -1.7286846861646877e-10  2.0000000000007029e+02 -1.1010744214775249e-10 -1.1091760195658103e-10  2.0000000000002146e+02 -5.4353970556740505e-11 -9.9061617650403961e-11  1.9999999999821105e+02 8.7183120195933465e-11 9.5190035072021528e-11  1.9999999999815361e+02 -1.0590349362305889e-10 -2.6195526631589653e-11  1.9999999999812286e+02 -2.3902381163511168e-10 -2.5283803368971821e-10  1.9999999999897673e+02 -1.2795233572780279e-10 -1.2741604521632044e-10  1.9999999999818007e+02 -2.4589281797088474e-11 -1.1367622756316140e-10  1.9999999999903932e+02 -1.8872465987786952e-10 -2.5242870453347990e-10  1.9999999999903758e+02 -2.2661056755731628e-10 -1.8644289687810663e-10  1.9999999999952422e+02 -4.4054161979025127e-11 -1.0490399383117510e-10  2.0000000000004434e+02 -8.7870109115218745e-11 -1.0676565007301939e-10  2.0000000000056517e+02 5.0284847206222912e-11 4.3923584443668793e-11  1.9999999999901462e+02 -1.3465239786778133e-11 -2.0552868605110804e-11  2.0000000000002800e+02 -8.9870868754905467e-11 -7.4673492735608422e-11  2.0000000000059714e+02 5.8261767063978769e-11 1.1945933898405928e-10  2.0000000000003766e+02 -1.2628930835859396e-10 -7.9695751352745062e-11  1.9999999999644487e+02 8.2888287061913251e-11 5.8359754756967370e-11  1.9999999999635659e+02 -3.8921681767791023e-11 -6.5137303948263641e-11  1.9999999999615724e+02 -1.4763474094489318e-10 -1.8082059911626881e-10  1.9999999999715385e+02 -1.0532304890750337e-10 -1.2315186509052119e-10  1.9999999999644319e+02 1.0237104918958763e-10 4.0652285809893808e-11  1.9999999999633221e+02 -4.9481922767260422e-11 -3.2643516707814596e-11  1.9999999999711471e+02 -1.6099832800897393e-10 -2.2418392057789343e-10  1.9999999999717528e+02 1.1930802165182212e-11 -5.2497370423340149e-11  1.9999999999714640e+02 -2.3615012382800620e-10 -1.7191668039089641e-10  1.9999999999717068e+02 -3.4096860300746528e-11 -2.0226707713463819e-11  1.9999999999464353e+02 7.3509336276076885e-11 1.1591892831911116e-10  1.9999999999453331e+02 -3.5288299478516367e-11 -1.6560755069105975e-10  1.9999999999433871e+02 -7.1417787462570688e-11 -1.7179965467177487e-10  1.9999999999535396e+02 -9.2473972068305767e-11 -1.5190220845985268e-10  1.9999999999465268e+02 7.0825815342775255e-11 7.4847453718421861e-11  1.9999999999468869e+02 8.0492978031635030e-11 9.5750946328991103e-11  1.9999999999456483e+02 -2.1605864403563388e-11 -2.6466351919097233e-11  1.9999999999535393e+02 -1.2528392233714058e-10 -2.5491459351300507e-10  1.9999999999540591e+02 7.2633039550030374e-12 -6.6792142547639111e-12  1.9999999999534975e+02 -2.2544031797140761e-10 -1.6848802797776306e-10  1.9999999999543164e+02 -2.4325046300199559e-11 -6.2444974785175769e-11  1.9999999999284478e+02 9.8724385935129764e-11 6.6421061682095007e-11  1.9999999999272234e+02 -1.0697529397852138e-11 -2.9954098580199298e-11  1.9999999999264671e+02 -1.4711392788546551e-10 -1.0907118221282515e-10  1.9999999999353659e+02 -1.1445213483869265e-10 -1.1139239816232117e-10  1.9999999999290770e+02 8.2936452624388012e-11 7.4613337617188466e-11  1.9999999999288707e+02 8.2878566310762827e-11 8.0132446925379426e-11  1.9999999999267541e+02 -5.9794007838867435e-11 8.5826633558299827e-14  1.9999999999351385e+02 -1.4787810370628572e-10 -2.0970254265967537e-10  1.9999999999362160e+02 3.3492861405219985e-12 1.8039913228948724e-12  1.9999999999346397e+02 -1.7996340846384558e-10 -1.8726286133278815e-10  1.9999999999358889e+02 -5.2790100995755387e-11 -2.4504575251063908e-11  1.9999999999818138e+02 -5.1478802607816850e-11 -3.1811176321697608e-11  1.9999999999816765e+02 -2.4021746026638440e-10 -2.5941049132607464e-10  1.9999999999898534e+02 -1.2530453015493898e-10 -1.3141930581409932e-10  1.9999999999819275e+02 1.3448127380691421e-10 7.4764140782987617e-11  1.9999999999815222e+02 -5.1494755267231579e-11 -7.0846625024425083e-11  1.9999999999908178e+02 -1.3237676057579727e-10 -1.6700300975652022e-10  1.9999999999907428e+02 -1.5000206502909514e-10 -1.4420868868930445e-10  1.9999999999955205e+02 -8.3819857032963072e-11 -7.5941248635534130e-11  2.0000000000001270e+02 -6.2689737078030495e-11 -1.6347040758716507e-10  2.0000000000052509e+02 1.2379328676778947e-10 8.5249009586158373e-11  1.9999999999904375e+02 3.4641791421194715e-12 -2.3661898292551849e-11  2.0000000000009172e+02 -5.5503875477752131e-11 -7.3291228736084502e-11  2.0000000000000460e+02 -1.0696129923182975e-10 -6.5141929090291510e-11  1.9999999999634562e+02 -1.0969950170380445e-11 -1.0163077058813487e-10  1.9999999999616955e+02 -9.4662283897598516e-11 -1.4303474106241854e-10  1.9999999999714532e+02 -8.4683509366002879e-11 -1.2857690120019301e-10  1.9999999999644382e+02 1.1055136713130011e-10 6.9449871176450342e-11  1.9999999999628815e+02 -1.2466714228226979e-11 -5.8404385104745860e-11  1.9999999999717755e+02 -1.4877546868425773e-10 -2.0162685632707120e-10  1.9999999999716667e+02 -1.6444266291058756e-10 -1.5529466461650781e-10  1.9999999999728553e+02 -2.0148968563923095e-11 -5.7312506966074163e-11  1.9999999999723610e+02 2.2287894780152852e-11 -4.2312328168335255e-11  1.9999999999454275e+02 -1.6106230866152776e-11 -8.8369582251046917e-11  1.9999999999432086e+02 -1.5574044659082844e-10 -1.6141581562287881e-10  1.9999999999535481e+02 -1.0927171961150245e-10 -1.4241738521984635e-10  1.9999999999465146e+02 8.5113716950416594e-11 4.6347429614852360e-11  1.9999999999454582e+02 -8.2672091126839509e-11 -5.5958953258007846e-11  1.9999999999533830e+02 -1.3286686356564338e-10 -2.5601573928648053e-10  1.9999999999527802e+02 -2.0557770167373420e-10 -1.4122166700731010e-10  1.9999999999534455e+02 -1.3282382248501411e-11 -5.8002464922750386e-11  1.9999999999260359e+02 -1.2356024274172738e-10 -1.0111192260165621e-10  1.9999999999264699e+02 -7.7967655155032763e-11 -3.0408980744838460e-11  1.9999999999354844e+02 -1.2306859916170463e-10 -1.3631681192311245e-10  1.9999999999266268e+02 -7.2163524009898461e-11 -8.7917937273944250e-11  1.9999999999283006e+02 3.5398963967657475e-11 6.1280681832379630e-11  1.9999999999267544e+02 -4.6631798497897177e-11 -4.0817280199356377e-11  1.9999999999354819e+02 -1.2137989891304812e-10 -2.0514527470064698e-10  1.9999999999353057e+02 -1.6798545763191306e-10 -1.8677054540767704e-10  1.9999999999363868e+02 -2.9754270187127075e-12 -2.7879336770782462e-11  1.9999999999899077e+02 -1.3594756271704705e-10 -9.9369130397202802e-11  1.9999999999820329e+02 -2.8796107657043345e-10 -2.1504163560607212e-10  1.9999999999819858e+02 -6.8019342210953593e-11 -4.3095356056120320e-11  1.9999999999820022e+02 1.2860713626045887e-10 8.7443411694465889e-11  1.9999999999820554e+02 -8.3847175412947009e-11 -1.5008744496486994e-10  1.9999999999903756e+02 -1.7100600803609525e-10 -2.0263013383198738e-10  1.9999999999903926e+02 -1.7161600956505441e-10 -1.4772287238246232e-10  1.9999999999964012e+02 -8.3081727669179688e-11 -7.4581993705054280e-11  2.0000000000006324e+02 -1.0270860928611344e-10 -1.0795909615202346e-10  2.0000000000056431e+02 1.2932306384647741e-10 9.1669353508965213e-11  1.9999999999897588e+02 2.4423915806890847e-11 2.3816109517521949e-11  2.0000000000002504e+02 -1.0454250744497588e-10 -6.5010751683228533e-11  1.9999999999714225e+02 -1.3672199206245191e-10 -9.9679838297277657e-11  1.9999999999719839e+02 -1.4351580957450575e-10 -2.1311477782708589e-10  1.9999999999615085e+02 -1.5100379647365131e-10 -1.3207853682496202e-10  1.9999999999631851e+02 3.1074553639172899e-12 -6.9087459138691788e-11  1.9999999999644550e+02 1.2794141964205025e-10 6.6760060478352144e-11  1.9999999999634335e+02 -5.9300949064233279e-11 -6.5324749795332319e-11  1.9999999999714601e+02 -1.6586134795465780e-10 -2.0993633276042060e-10  1.9999999999717477e+02 -1.5937575108724680e-10 -1.2511987417457933e-10  1.9999999999724687e+02 -1.0650488507121340e-10 3.0402064619350083e-11  1.9999999999728320e+02 1.3384443305410806e-11 -4.1454241336531190e-11  1.9999999999532810e+02 -1.1024142968801720e-10 -1.0702915682716554e-10  1.9999999999437151e+02 -1.1825692576077126e-10 -1.4764884243100199e-10  1.9999999999453883e+02 -1.1600598631456799e-11 -5.6266534804489535e-11  1.9999999999463981e+02 1.1199242061815141e-10 9.1248290751165277e-11  1.9999999999456784e+02 2.5347916146889606e-11 -5.1844124026447919e-11  1.9999999999527921e+02 -1.0483585599848549e-10 -2.9013103384153853e-10  1.9999999999530272e+02 -1.6974436449595913e-10 -1.2928784463099929e-10  1.9999999999540603e+02 1.5725530341260478e-11 -3.9870950444911002e-11  1.9999999999350624e+02 -1.0937395703798785e-10 -1.2295210949307509e-10  1.9999999999255544e+02 -1.4069091477196305e-10 -1.6246603245086112e-10  1.9999999999270432e+02 -2.9920482105979038e-11 -3.4174736103042642e-11  1.9999999999281673e+02 7.5632070007444348e-11 9.1425800659696100e-11  1.9999999999268007e+02 -5.0122359175876898e-13 -1.1328600351403048e-12  1.9999999999349433e+02 -1.0327788705765046e-10 -2.2211894990455572e-10  1.9999999999348447e+02 -2.1746216500415244e-10 -1.0489379415550271e-10  1.9999999999358380e+02 -2.8143425214765379e-12 -3.6898655050462362e-11  1.9999999999176777e+02 -7.0002040275135102e-11 -1.1037026032823253e-10  1.9999999999175174e+02 -2.3888914638096377e-10 -1.1841451094154672e-10  1.9999999999085705e+02 3.1376663163301013e-11 2.8399929735742040e-11  1.9999999999107328e+02 4.6363496077762484e-11 5.8017858560092589e-11  1.9999999999176552e+02 -2.9647733245123031e-11 -2.9388224530850155e-10  1.9999999999183754e+02 -3.1849402648623876e-11 1.0402726249725733e-11  1.9999999999900948e+02 -1.1028167176535580e-10 -9.3884391051930216e-11  1.9999999999913049e+02 -2.6518000143320648e-10 -7.8842997221056846e-11  1.9999999999814023e+02 -2.7099604069119443e-10 -2.1099407883169857e-10  1.9999999999819210e+02 -1.5487034218569523e-11 8.0704258026195012e-12  1.9999999999823157e+02 1.7536530905394297e-10 -2.7561841374766513e-11  1.9999999999816879e+02 -4.8935461047980603e-11 -4.2359903823794941e-11  1.9999999999817595e+02 1.2900437471870678e-10 1.1301422791229110e-10  1.9999999999816089e+02 -4.1797851963375248e-11 -1.1323033388108426e-10  1.9999999999904043e+02 -1.5061521416522295e-10 -1.5451274575140424e-10  1.9999999999999150e+02 -1.2599043986282382e-10 9.4559719779839070e-11  2.0000000000055005e+02 1.2901766839711254e-10 -1.8237611095037473e-11  1.9999999999906336e+02 -1.6674978714653955e-10 -9.9417329607237327e-11  1.9999999999904048e+02 -5.2615733846392471e-11 6.3095313885174862e-11  1.9999999999969702e+02 -1.0001346587115389e-10 2.1194851331923810e-11  2.0000000000003865e+02 -7.2019428881811194e-11 -7.0474332891373650e-11  2.0000000000057591e+02 1.0829228833086419e-10 1.1136821949662441e-10  1.9999999999901897e+02 -9.0213073785703594e-11 2.1716218381482064e-11  2.0000000000001180e+02 -7.3524376561558456e-11 -3.7820488661690583e-11  1.9999999999720157e+02 -1.0814560021710764e-10 -9.9259730696910549e-11  1.9999999999707001e+02 -2.3389526864846180e-10 -5.5446604349360763e-11  1.9999999999620482e+02 -1.5299611030262269e-10 -1.1727664878747787e-10  1.9999999999628145e+02 -1.2587638979945286e-10 9.1322459754580565e-11  1.9999999999645181e+02 1.4194224719274804e-10 -1.1095115937786406e-11  1.9999999999634207e+02 -2.2716224866545160e-11 -9.5732172946080877e-12  1.9999999999646587e+02 7.6348075152035041e-11 7.2971724923545081e-11  1.9999999999633118e+02 -2.3106804200037829e-11 -3.8898942605963694e-11  1.9999999999718293e+02 -1.5856661167630120e-10 -2.1357836646209995e-10  1.9999999999716692e+02 -1.6358453099686827e-10 -1.4094812970195910e-10  1.9999999999721223e+02 -6.5974287816593857e-11 3.9462245643141142e-11  1.9999999999724747e+02 -9.1038963481480960e-12 -2.2020638376514448e-11  1.9999999999534660e+02 -9.7239766771536534e-11 -1.1552100471134089e-10  1.9999999999524371e+02 -2.3654971958326617e-10 -8.5586872863751976e-11  1.9999999999432612e+02 -1.4899294403997481e-10 -1.6133698579808404e-10  1.9999999999445103e+02 -2.1275581115031053e-11 6.1678339144088276e-11  1.9999999999465931e+02 1.2146565969041718e-10 -2.6153492315007232e-11  1.9999999999450938e+02 6.1401181873957987e-12 -7.0434518315261932e-11  1.9999999999464339e+02 8.4924908407420436e-11 7.6995758077106816e-11  1.9999999999451458e+02 -3.8384297171981971e-11 -8.5935345518709673e-12  1.9999999999531582e+02 -1.2560903449558171e-10 -1.9645734935822701e-10  1.9999999999531400e+02 -2.0073789342652851e-10 -1.0486679747919766e-10  1.9999999999546824e+02 -1.1669291132853822e-10 7.8444949353383897e-11  1.9999999999537062e+02 -3.3806796107513779e-11 -4.6075733502385453e-11  1.9999999999352667e+02 -9.8453915914040249e-11 -1.2765071327016818e-10  1.9999999999339784e+02 -2.1019587416194872e-10 -9.7977081778805729e-11  1.9999999999251921e+02 -1.1262295382009652e-10 -1.0431573481387313e-10  1.9999999999263164e+02 -2.0979571778347093e-11 3.6086527637119440e-11  1.9999999999283250e+02 1.1958052937295480e-10 -4.9905543042925625e-11  1.9999999999267908e+02 1.0743014194721705e-11 -1.5662950581629218e-11  1.9999999999281908e+02 1.1420826249895654e-10 8.4183694936382994e-11  1.9999999999272788e+02 -7.2565753046076713e-12 -3.2181622440812650e-11  1.9999999999349308e+02 -1.2811750958596611e-10 -1.8754578282638768e-10  1.9999999999352258e+02 -1.4154282968954076e-10 -1.2226693332959129e-10  1.9999999999355339e+02 -7.8773856912577323e-11 7.5751351844969799e-11  1.9999999999358366e+02 2.0389488220899909e-11 -2.3927489770451248e-11  1.9999999999177226e+02 -1.0006913936709241e-10 -1.0618312437443876e-10  1.9999999999159996e+02 -2.0572744211070539e-10 -9.2625257873906381e-11  1.9999999999077471e+02 -1.5421415664489397e-10 -8.1532926829196514e-11  1.9999999999085355e+02 -6.4193512796050849e-12 4.8693579510913230e-11  1.9999999999108240e+02 1.1905728587566565e-10 -2.6010123434926748e-11  1.9999999999094089e+02 6.3671972573305657e-12 -3.2547561334896179e-12  1.9999999999103480e+02 9.4854707545033374e-11 5.0319943238721216e-11  1.9999999999091884e+02 -5.6742187668564366e-11 4.4692906965828210e-12  1.9999999999173832e+02 -1.3674096208787063e-10 -1.9235784283554059e-10  1.9999999999170592e+02 -1.6367824115106594e-10 -1.0175128921754575e-10  1.9999999999175731e+02 -8.8030615409949592e-11 3.3337056759107853e-11  1.9999999999180849e+02 -5.7155798502974071e-12 -1.3724924342333620e-11  1.9999999999000903e+02 -9.5802233228029937e-11 -1.0415961125497569e-10  1.9999999998988716e+02 -4.2529673326001068e-11 -1.1808562996262465e-10  1.9999999998998067e+02 -6.6276767492533597e-11 -2.7840740042222077e-10  1.9999999999005223e+02 -3.7291203922282019e-12 7.6728300913919011e-12  1.9999999998996222e+02 -1.5192449707123781e-10 -1.4243813033540258e-10  1.9999999999901863e+02 -7.5576368809233698e-11 -4.2143652631804944e-11  1.9999999999916415e+02 -2.5395459815588665e-10 -1.1532790988720294e-10  1.9999999999812269e+02 -2.6620296573745783e-10 -2.6667251270183351e-10  1.9999999999818846e+02 -7.3013890434294778e-11 -2.4704783934687171e-11  1.9999999999817146e+02 1.6327486710302400e-10 -3.9423990088071097e-11  1.9999999999810834e+02 -8.2305537988045748e-11 -2.4088582067614787e-11  1.9999999999814040e+02 1.6179108250713245e-10 1.1151921919128390e-10  1.9999999999822225e+02 -4.5930483564411405e-11 -8.7798495498457538e-11  1.9999999999906450e+02 -1.4311522234774749e-10 -1.2024583277905253e-10  2.0000000000003595e+02 -4.4027428038393120e-11 2.0762812320880344e-10  2.0000000000059703e+02 1.7001029281207431e-10 -7.9926863155894369e-11  1.9999999999907328e+02 -1.7034037966556624e-10 -9.6685876258651146e-11  1.9999999999897835e+02 -1.9989244247042560e-11 1.9644542450387438e-12  1.9999999999962708e+02 -9.51941366