<?xml version="1.0"?>
<VTKFile type="UnstructuredGrid"  version="0.1"  >
<UnstructuredGrid>
<Piece  NumberOfPoints="4029" NumberOfCells="19865">
<Points>
<DataArray  type="Float64"  NumberOfComponents="3"  format="ascii">0 37.5 30  1.25 38.75 30  1.25 37.5 30  1.25 38.75 28.75  2.5 37.5 30  2.5 38.75 30  2.5 40 30  0 37.5 27.5  0 38.75 28.75  0 37.5 28.75  0 38.75 30  0 40 30  1.25 40 30  7.5 37.5 30  7.5 38.75 30  7.5 38.75 28.75  6.25 38.75 28.75  7.5 40 30  5 37.5 30  6.25 38.75 30  6.25 37.5 30  5 38.75 30  5 40 30  6.25 40 30  10 37.5 30  10 38.75 30  10 38.75 28.75  8.75 38.75 28.75  10 40 30  8.75 38.75 30  8.75 37.5 30  8.75 40 30  11.25 38.75 30  11.25 38.75 28.75  11.25 40 30  12.5 40 30  7.5 30 32.5  7.5 28.75 32.5  7.5 28.75 31.25  6.25 28.75 31.25  7.5 27.5 32.5  6.25 28.75 32.5  5 30 32.5  6.25 30 32.5  10 27.5 32.5  10 28.75 32.5  8.75 28.75 32.5  8.75 28.75 31.25  10 30 32.5  8.75 30 32.5  0 30 32.5  1.25 31.25 32.5  1.25 30 32.5  1.25 31.25 31.25  2.5 30 32.5  2.5 31.25 32.5  2.5 32.5 32.5  0 31.25 32.5  0 31.25 31.25  0 32.5 32.5  1.25 32.5 32.5  0 32.5 30  1.25 32.5 31.25  0 32.5 31.25  0 31.25 30  2.5 35 32.5  2.5 35 31.25  2.5 33.75 31.25  1.25 33.75 31.25  2.5 33.75 32.5  1.25 33.75 32.5  1.25 35 31.25  0 33.75 31.25  0 33.75 32.5  0 35 32.5  1.25 35 32.5  0 33.75 30  0 35 30  0 35 31.25  5 35 32.5  5 35 31.25  5 33.75 31.25  3.75 33.75 31.25  5 32.5 32.5  5 33.75 32.5  3.75 33.75 32.5  3.75 32.5 32.5  3.75 35 31.25  3.75 35 32.5  7.5 35 30  7.5 35 31.25  7.5 33.75 31.25  6.25 33.75 31.25  7.5 35 32.5  7.5 32.5 32.5  7.5 33.75 32.5  6.25 33.75 32.5  6.25 32.5 32.5  6.25 35 31.25  6.25 35 32.5  10 35 30  10 35 31.25  10 33.75 31.25  8.75 33.75 31.25  10 35 32.5  10 32.5 32.5  10 33.75 32.5  8.75 33.75 32.5  8.75 32.5 32.5  8.75 35 31.25  8.75 35 32.5  2.5 37.5 31.25  2.5 36.25 31.25  1.25 36.25 31.25  2.5 37.5 32.5  2.5 36.25 32.5  1.25 36.25 32.5  1.25 37.5 31.25  0 36.25 31.25  0 36.25 32.5  0 37.5 32.5  1.25 37.5 32.5  0 36.25 30  0 37.5 31.25  5 37.5 31.25  5 36.25 31.25  3.75 36.25 31.25  5 37.5 32.5  5 36.25 32.5  3.75 36.25 32.5  3.75 37.5 31.25  3.75 37.5 30  3.75 37.5 32.5  7.5 37.5 31.25  7.5 36.25 31.25  6.25 36.25 31.25  7.5 37.5 32.5  7.5 36.25 32.5  6.25 36.25 32.5  6.25 37.5 31.25  6.25 37.5 32.5  10 36.25 31.25  10 36.25 30  8.75 36.25 31.25  10 37.5 31.25  10 37.5 32.5  10 36.25 32.5  8.75 36.25 32.5  8.75 37.5 31.25  8.75 37.5 32.5  1.25 38.75 31.25  2.5 38.75 31.25  2.5 40 31.25  2.5 40 32.5  2.5 38.75 32.5  1.25 38.75 32.5  1.25 40 31.25  0 38.75 31.25  0 38.75 32.5  0 40 32.5  1.25 40 32.5  0 40 31.25  3.75 38.75 31.25  3.75 38.75 30  5 38.75 31.25  5 40 31.25  5 40 32.5  5 38.75 32.5  3.75 38.75 32.5  3.75 40 31.25  3.75 40 30  3.75 40 32.5  6.25 38.75 31.25  7.5 38.75 31.25  7.5 40 31.25  7.5 40 32.5  7.5 38.75 32.5  6.25 38.75 32.5  6.25 40 31.25  6.25 40 32.5  8.75 38.75 31.25  10 38.75 31.25  10 40 31.25  10 40 32.5  10 38.75 32.5  8.75 38.75 32.5  8.75 40 31.25  8.75 40 32.5  11.25 38.75 31.25  11.25 40 31.25  12.5 40 31.25  12.5 40 32.5  11.25 38.75 32.5  11.25 40 32.5  1.25 41.25 31.25  1.25 41.25 30  2.5 41.25 31.25  2.5 41.25 30  2.5 42.5 30  2.5 42.5 31.25  2.5 42.5 32.5  2.5 41.25 32.5  1.25 41.25 32.5  0 41.25 30  0 42.5 30  1.25 42.5 31.25  1.25 42.5 30  0 41.25 31.25  0 41.25 32.5  0 42.5 32.5  1.25 42.5 32.5  0 42.5 31.25  3.75 41.25 31.25  3.75 41.25 30  5 41.25 31.25  5 41.25 30  5 42.5 30  5 42.5 31.25  5 42.5 32.5  5 41.25 32.5  3.75 41.25 32.5  3.75 42.5 31.25  3.75 42.5 30  3.75 42.5 32.5  6.25 41.25 31.25  6.25 41.25 30  7.5 41.25 31.25  7.5 41.25 30  7.5 42.5 30  7.5 42.5 31.25  7.5 42.5 32.5  7.5 41.25 32.5  6.25 41.25 32.5  6.25 42.5 31.25  6.25 42.5 30  6.25 42.5 32.5  8.75 41.25 31.25  8.75 41.25 30  10 41.25 31.25  10 41.25 30  10 42.5 30  10 42.5 31.25  10 42.5 32.5  10 41.25 32.5  8.75 41.25 32.5  8.75 42.5 31.25  8.75 42.5 30  8.75 42.5 32.5  11.25 41.25 31.25  11.25 41.25 30  12.5 41.25 31.25  12.5 41.25 30  12.5 42.5 30  12.5 42.5 31.25  12.5 42.5 32.5  12.5 41.25 32.5  11.25 41.25 32.5  11.25 42.5 31.25  11.25 42.5 30  11.25 42.5 32.5  13.75 41.25 31.25  13.75 41.25 30  13.75 41.25 32.5  13.75 42.5 32.5  13.75 42.5 31.25  1.25 43.75 31.25  1.25 43.75 30  2.5 43.75 31.25  2.5 43.75 30  2.5 45 30  2.5 45 31.25  2.5 45 32.5  2.5 43.75 32.5  1.25 43.75 32.5  0 43.75 30  0 45 30  1.25 45 31.25  1.25 45 30  0 43.75 31.25  0 43.75 32.5  0 45 32.5  1.25 45 32.5  0 45 31.25  3.75 43.75 31.25  3.75 43.75 30  5 43.75 31.25  5 43.75 30  5 45 30  5 45 31.25  5 45 32.5  5 43.75 32.5  3.75 43.75 32.5  3.75 45 31.25  3.75 45 30  3.75 45 32.5  6.25 43.75 31.25  6.25 43.75 30  7.5 43.75 31.25  7.5 43.75 30  7.5 45 30  7.5 45 31.25  7.5 45 32.5  7.5 43.75 32.5  6.25 43.75 32.5  6.25 45 31.25  6.25 45 30  6.25 45 32.5  8.75 43.75 31.25  8.75 43.75 30  10 43.75 31.25  10 43.75 30  10 45 30  10 45 31.25  10 45 32.5  10 43.75 32.5  8.75 43.75 32.5  8.75 45 31.25  8.75 45 30  8.75 45 32.5  11.25 43.75 31.25  11.25 43.75 30  12.5 43.75 31.25  12.5 43.75 30  12.5 45 30  12.5 45 31.25  12.5 45 32.5  12.5 43.75 32.5  11.25 43.75 32.5  11.25 45 31.25  11.25 45 30  11.25 45 32.5  13.75 43.75 31.25  13.75 43.75 32.5  13.75 43.75 30  13.75 45 31.25  13.75 45 30  13.75 45 32.5  1.25 46.25 31.25  1.25 46.25 30  2.5 46.25 31.25  2.5 46.25 30  2.5 47.5 30  2.5 47.5 31.25  2.5 47.5 32.5  2.5 46.25 32.5  1.25 46.25 32.5  0 46.25 30  0 47.5 30  1.25 47.5 31.25  1.25 47.5 30  0 46.25 31.25  0 46.25 32.5  0 47.5 32.5  1.25 47.5 32.5  0 47.5 31.25  3.75 46.25 31.25  3.75 46.25 30  5 46.25 31.25  5 46.25 30  5 47.5 30  5 47.5 31.25  5 47.5 32.5  5 46.25 32.5  3.75 46.25 32.5  3.75 47.5 31.25  3.75 47.5 30  3.75 47.5 32.5  6.25 46.25 31.25  6.25 46.25 30  7.5 46.25 31.25  7.5 46.25 30  7.5 47.5 30  7.5 47.5 31.25  7.5 47.5 32.5  7.5 46.25 32.5  6.25 46.25 32.5  6.25 47.5 31.25  6.25 47.5 30  6.25 47.5 32.5  8.75 46.25 31.25  8.75 46.25 30  10 46.25 31.25  10 46.25 30  10 47.5 30  10 47.5 31.25  10 47.5 32.5  10 46.25 32.5  8.75 46.25 32.5  8.75 47.5 31.25  8.75 47.5 30  8.75 47.5 32.5  11.25 46.25 31.25  11.25 46.25 30  12.5 46.25 31.25  12.5 46.25 30  12.5 47.5 30  12.5 47.5 31.25  12.5 47.5 32.5  12.5 46.25 32.5  11.25 46.25 32.5  11.25 47.5 31.25  11.25 47.5 30  11.25 47.5 32.5  13.75 46.25 31.25  13.75 46.25 30  13.75 46.25 32.5  13.75 47.5 31.25  13.75 47.5 30  13.75 47.5 32.5  1.25 48.75 31.25  1.25 48.75 30  2.5 48.75 31.25  2.5 48.75 30  2.5 50 30  2.5 50 31.25  2.5 50 32.5  2.5 48.75 32.5  1.25 48.75 32.5  0 48.75 30  0 50 30  1.25 50 31.25  1.25 50 30  0 48.75 31.25  0 48.75 32.5  0 50 32.5  1.25 50 32.5  0 50 31.25  3.75 48.75 31.25  3.75 48.75 30  5 48.75 31.25  5 48.75 30  5 50 30  5 50 31.25  5 50 32.5  5 48.75 32.5  3.75 48.75 32.5  3.75 50 31.25  3.75 50 30  3.75 50 32.5  6.25 48.75 31.25  6.25 48.75 30  7.5 48.75 31.25  7.5 48.75 30  7.5 50 30  7.5 50 31.25  7.5 50 32.5  7.5 48.75 32.5  6.25 48.75 32.5  6.25 50 31.25  6.25 50 30  6.25 50 32.5  8.75 48.75 31.25  8.75 48.75 30  10 48.75 31.25  10 48.75 30  10 50 30  10 50 31.25  10 50 32.5  10 48.75 32.5  8.75 48.75 32.5  8.75 50 31.25  8.75 50 30  8.75 50 32.5  11.25 48.75 31.25  12.5 48.75 31.25  12.5 48.75 32.5  12.5 50 32.5  11.25 48.75 32.5  11.25 50 32.5  11.25 50 31.25  13.75 48.75 31.25  13.75 48.75 32.5  7.5 28.75 33.75  6.25 28.75 33.75  7.5 30 33.75  7.5 30 35  7.5 27.5 35  7.5 28.75 35  6.25 28.75 35  6.25 30 33.75  5 30 35  6.25 30 35  5 30 33.75  10 28.75 33.75  8.75 28.75 33.75  10 30 33.75  10 30 35  10 27.5 33.75  10 27.5 35  10 28.75 35  8.75 28.75 35  8.75 27.5 35  8.75 30 33.75  8.75 30 35  1.25 31.25 33.75  2.5 31.25 33.75  2.5 32.5 33.75  2.5 32.5 35  2.5 30 33.75  2.5 30 35  2.5 31.25 35  0 30 35  1.25 31.25 35  1.25 30 35  1.25 32.5 33.75  0 31.25 35  0 31.25 33.75  0 32.5 35  1.25 32.5 35  0 32.5 33.75  3.75 31.25 33.75  3.75 31.25 32.5  3.75 30 32.5  5 31.25 33.75  5 31.25 32.5  5 32.5 33.75  5 32.5 35  3.75 30 33.75  5 31.25 35  3.75 31.25 35  3.75 30 35  3.75 32.5 33.75  3.75 32.5 35  6.25 31.25 33.75  6.25 31.25 32.5  7.5 31.25 33.75  7.5 31.25 32.5  7.5 32.5 33.75  7.5 32.5 35  7.5 31.25 35  6.25 31.25 35  6.25 32.5 33.75  6.25 32.5 35  8.75 31.25 33.75  8.75 31.25 32.5  10 31.25 33.75  10 31.25 32.5  10 32.5 33.75  10 32.5 35  10 31.25 35  8.75 31.25 35  8.75 32.5 33.75  8.75 32.5 35  1.25 33.75 33.75  2.5 33.75 33.75  2.5 35 33.75  2.5 35 35  2.5 33.75 35  1.25 33.75 35  1.25 35 33.75  0 33.75 33.75  0 33.75 35  0 35 35  1.25 35 35  0 35 33.75  3.75 33.75 33.75  5 33.75 33.75  5 35 33.75  5 35 35  5 33.75 35  3.75 33.75 35  3.75 35 33.75  3.75 35 35  6.25 33.75 33.75  7.5 33.75 33.75  7.5 35 33.75  7.5 35 35  7.5 33.75 35  6.25 33.75 35  6.25 35 33.75  6.25 35 35  8.75 33.75 33.75  10 33.75 33.75  10 35 33.75  10 35 35  10 33.75 35  8.75 33.75 35  8.75 35 33.75  8.75 35 35  1.25 36.25 33.75  2.5 36.25 33.75  2.5 37.5 33.75  2.5 37.5 35  2.5 36.25 35  1.25 36.25 35  1.25 37.5 33.75  0 36.25 33.75  0 36.25 35  0 37.5 35  1.25 37.5 35  0 37.5 33.75  3.75 36.25 33.75  5 36.25 33.75  5 37.5 33.75  5 37.5 35  5 36.25 35  3.75 36.25 35  3.75 37.5 33.75  3.75 37.5 35  6.25 36.25 33.75  7.5 36.25 33.75  7.5 37.5 33.75  7.5 37.5 35  7.5 36.25 35  6.25 36.25 35  6.25 37.5 33.75  6.25 37.5 35  8.75 36.25 33.75  10 36.25 33.75  10 37.5 33.75  10 37.5 35  10 36.25 35  8.75 36.25 35  8.75 37.5 33.75  8.75 37.5 35  1.25 38.75 33.75  2.5 38.75 33.75  2.5 40 33.75  2.5 40 35  2.5 38.75 35  1.25 38.75 35  1.25 40 33.75  0 38.75 33.75  0 38.75 35  0 40 35  1.25 40 35  0 40 33.75  3.75 38.75 33.75  5 38.75 33.75  5 40 33.75  5 40 35  5 38.75 35  3.75 38.75 35  3.75 40 33.75  3.75 40 35  6.25 38.75 33.75  7.5 38.75 33.75  7.5 40 33.75  7.5 40 35  7.5 38.75 35  6.25 38.75 35  6.25 40 33.75  6.25 40 35  8.75 38.75 33.75  10 38.75 33.75  10 40 33.75  10 40 35  10 38.75 35  8.75 38.75 35  8.75 40 33.75  8.75 40 35  11.25 38.75 33.75  11.25 40 33.75  12.5 40 33.75  12.5 40 35  11.25 38.75 35  11.25 40 35  1.25 41.25 33.75  2.5 41.25 33.75  2.5 42.5 33.75  2.5 42.5 35  2.5 41.25 35  1.25 41.25 35  1.25 42.5 
[...]
<PointData  Vectors="u"> 
<DataArray  type="Float64"  Name="u"  NumberOfComponents="3" format="ascii">2.0000000000053367e+02 1.1623192943035115e-10 5.4684847019683841e-11  1.9999999999902829e+02 -1.2229699017198805e-10 -2.6044009368189746e-10  1.9999999999899939e+02 -1.6421677604476545e-11 -3.1140482045992769e-11  1.9999999999898617e+02 -1.0685080254450124e-10 -3.8064770455101767e-11  1.9999999999820986e+02 1.3033317470897491e-10 1.1872731101710361e-10  1.9999999999816816e+02 -4.6221779501747787e-11 -1.1909022558044000e-10  1.9999999999820218e+02 1.5888604782729539e-10 4.7430853747765515e-11  2.0000000000056966e+02 1.3515584395448333e-10 5.8926532041752160e-11  1.9999999999973221e+02 -4.9374253322423984e-11 -4.0667121031739384e-11  2.0000000000003593e+02 -1.0464901283493192e-10 -2.0966141387524070e-11  2.0000000000000969e+02 -7.1890503029394183e-11 -1.3832599833809881e-10  2.0000000000056897e+02 1.0871770079957513e-10 -1.1815649606892775e-11  1.9999999999901226e+02 -1.2772980793996664e-10 9.7169665419896750e-12  1.9999999999463375e+02 6.9440182973762494e-11 9.5641804124099710e-11  1.9999999999454778e+02 -1.8588923160576843e-11 -9.0960017815409834e-12  1.9999999999426592e+02 -1.2783707033719371e-10 -5.1304678662936786e-11  1.9999999999530240e+02 -1.1853001227015841e-10 -6.2354273429787383e-11  1.9999999999465908e+02 1.6244508392000300e-10 3.6458051961047195e-11  1.9999999999641824e+02 7.9068966766876602e-11 7.0437010581529164e-11  1.9999999999531747e+02 -1.1316348241644963e-10 -2.0860847027694539e-10  1.9999999999541606e+02 -3.4080051670044973e-11 -7.3929313190418884e-11  1.9999999999632874e+02 -4.6731716457404336e-11 -5.9669531679946166e-11  1.9999999999646565e+02 1.5128511698931104e-10 2.7900429715962632e-11  1.9999999999538588e+02 -8.7753383141593781e-11 3.6856830651617242e-11  1.9999999999283423e+02 7.7943679588227290e-11 8.7408554287017123e-11  1.9999999999270523e+02 -8.6949975683158464e-11 -2.4099203719408244e-11  1.9999999999241862e+02 -1.2307454443386805e-10 -3.8805722895062561e-11  1.9999999999353494e+02 -1.0485223017503208e-10 -4.8141587307390138e-11  1.9999999999283600e+02 1.3110015041637084e-10 1.5040572025517189e-11  1.9999999999351536e+02 -1.2740176604775287e-10 -1.9975542008741785e-10  1.9999999999361285e+02 -3.0525095630798354e-11 1.8635828233244342e-11  1.9999999999356109e+02 -8.0748741751219954e-11 4.8879048114701809e-12  1.9999999999172221e+02 -6.6539535513584933e-11 -2.3977965135805491e-10  1.9999999999173679e+02 -3.2079507613376132e-11 -2.5413343567573341e-11  1.9999999999176734e+02 -1.1639448592722098e-10 7.8870532328552293e-11  1.9999999999108115e+02 9.5068279497406420e-11 2.6397860251768552e-11  1.9999999999467698e+02 -4.1170409682624056e-11 1.2817226043368391e-10  1.9999999999451961e+02 -6.9810583926076035e-11 5.1102846915240614e-12  1.9999999999435752e+02 5.9472932594369933e-11 -1.7814167179451378e-10  1.9999999999533333e+02 -7.2574714179070781e-11 -1.2381833111784666e-10  1.9999999999465257e+02 -1.2049287315828340e-10 1.1366333463046332e-10  1.9999999999529228e+02 1.4174527043680879e-11 -2.1915570124161223e-10  1.9999999999646704e+02 -5.0824290516256138e-11 1.3200720405098279e-10  1.9999999999538326e+02 -3.5850793768502336e-11 -1.1163913145366047e-10  1.9999999999285552e+02 -1.3220475906898612e-10 1.2914162078124770e-10  1.9999999999262729e+02 -3.1072160497491102e-11 9.9992445325127235e-11  1.9999999999349038e+02 2.7181877014277203e-11 -1.5170092140234529e-10  1.9999999999348239e+02 -3.6488201833345406e-11 -1.0783288469088027e-10  1.9999999999291251e+02 2.4091478580169716e-11 1.2730921600653068e-10  1.9999999999359181e+02 -8.0731269440158053e-12 -1.1162880504576856e-10  2.0000000000057500e+02 3.3370400876898143e-11 9.4092612344288730e-11  1.9999999999900342e+02 -1.4641300718082318e-10 -2.1158631822818490e-10  1.9999999999902451e+02 -3.3461249963607062e-11 -1.1794999374798875e-10  1.9999999999893433e+02 -1.5386908484528728e-10 -1.4627480184073513e-10  1.9999999999818266e+02 -3.0655180442526018e-11 1.3961882322529844e-10  1.9999999999813431e+02 -3.4187867314628140e-11 -1.0567053125493855e-10  1.9999999999820312e+02 1.4858959266710237e-10 9.3519727082041254e-11  2.0000000000004235e+02 -6.0806004293641881e-11 -1.3112461044414436e-10  1.9999999999957831e+02 -1.2732151866683606e-10 -1.1909033849592027e-10  2.0000000000061459e+02 1.0059668083166121e-10 6.8766751677136593e-11  1.9999999999895647e+02 -6.7061384939071490e-12 -2.9527341688378611e-11  2.0000000000056406e+02 7.4639786405816172e-11 7.5360734823899506e-11  1.9999999999903807e+02 -1.5558691640931337e-10 -1.8320747542574798e-10  2.0000000000008029e+02 -1.0425942362013493e-10 -1.0100678668798584e-10  2.0000000000002848e+02 -5.8186553190477221e-11 -1.1899565811273760e-10  1.9999999999820812e+02 8.8583717667468024e-11 9.8178353935021871e-11  1.9999999999816620e+02 -1.0714219877376345e-10 -3.4159284314786350e-11  1.9999999999812727e+02 -2.4726785045440128e-10 -2.4777272192103896e-10  1.9999999999896824e+02 -1.3368511105242904e-10 -1.2098613690132743e-10  1.9999999999818485e+02 -1.4972552965478384e-11 -9.9479597474968176e-11  1.9999999999903605e+02 -1.6872368268239444e-10 -2.5320430893895313e-10  1.9999999999903525e+02 -2.3309216138262358e-10 -1.7284963894147783e-10  1.9999999999954684e+02 -5.9380944639036607e-11 -1.0928779849545794e-10  2.0000000000004363e+02 -8.9192984718509625e-11 -1.3403044481914352e-10  2.0000000000056556e+02 4.3865886590588407e-11 5.0540855307144204e-11  1.9999999999903008e+02 -2.8621147249132861e-11 -3.6802376174853057e-11  2.0000000000000915e+02 -9.9011592067037784e-11 -8.0816189436647632e-11  2.0000000000060089e+02 6.2645216961680389e-11 1.2144859156502154e-10  2.0000000000004172e+02 -1.2493982536287150e-10 -9.6874492649605103e-11  1.9999999999645109e+02 8.0396052965617273e-11 4.8402160423101696e-11  1.9999999999636037e+02 -2.7743312139945545e-11 -4.5650769937226288e-11  1.9999999999615633e+02 -1.5131284593104573e-10 -1.8293669906161400e-10  1.9999999999715851e+02 -1.1244001846961380e-10 -1.2260060629375946e-10  1.9999999999644231e+02 1.0244258751594814e-10 3.4862648052479569e-11  1.9999999999635045e+02 -4.1191050161340720e-11 -3.7952403914194294e-11  1.9999999999710226e+02 -1.6942574208935222e-10 -2.3862822987015953e-10  1.9999999999717809e+02 1.1338015941876768e-11 -4.4872369660024239e-11  1.9999999999714660e+02 -2.0579044051069887e-10 -1.6740857784974010e-10  1.9999999999717650e+02 -3.1010483670130349e-11 -1.5988161590541231e-11  1.9999999999463125e+02 7.4555166733149719e-11 1.0960291682269493e-10  1.9999999999452774e+02 -3.1953324021238931e-11 -1.5075719392090574e-10  1.9999999999430906e+02 -8.2000009609249101e-11 -1.5581258173391477e-10  1.9999999999535729e+02 -8.1385123907248127e-11 -1.4953326312226616e-10  1.9999999999465911e+02 6.8341788654731825e-11 6.9662858958672490e-11  1.9999999999470197e+02 7.7961796647683555e-11 9.5860351673192678e-11  1.9999999999456114e+02 2.1963404266101876e-12 -5.6667808440715864e-11  1.9999999999533301e+02 -1.1931169179427304e-10 -2.6977154385411155e-10  1.9999999999539443e+02 8.7546836072794534e-13 -1.3813499989073320e-11  1.9999999999534234e+02 -2.2530540170633076e-10 -1.6323420614714905e-10  1.9999999999542945e+02 -2.1260280925809231e-11 -7.1997681033236953e-11  1.9999999999284651e+02 1.0266066632060897e-10 6.7981594756249264e-11  1.9999999999273058e+02 -2.7205433014997349e-11 -2.4948651929097812e-11  1.9999999999262445e+02 -1.3391168584492544e-10 -1.0667912039547805e-10  1.9999999999353534e+02 -1.1813646314878451e-10 -1.0999324787946593e-10  1.9999999999290708e+02 8.0899609351970831e-11 6.8906707294868217e-11  1.9999999999287627e+02 8.2895381426261959e-11 8.2357068907156843e-11  1.9999999999268474e+02 -6.2182616028509591e-11 4.6629820589491927e-12  1.9999999999351627e+02 -1.4616618117383390e-10 -2.2302940192302263e-10  1.9999999999362450e+02 -1.5564577488575303e-11 1.3650072334668523e-14  1.9999999999346576e+02 -1.8075585850065668e-10 -1.8472957253609969e-10  1.9999999999357797e+02 -4.2580158992293408e-11 -4.0156660663300571e-13  1.9999999999820011e+02 -6.9201074052508628e-11 -4.6882786217548956e-11  1.9999999999815645e+02 -2.1093751617164979e-10 -2.4387462287347832e-10  1.9999999999898560e+02 -1.1737388317116831e-10 -1.2702191660681599e-10  1.9999999999820599e+02 1.2860631598333596e-10 7.0044445701807986e-11  1.9999999999815572e+02 -4.6772001410683040e-11 -1.0005126938265938e-10  1.9999999999906862e+02 -1.2630962055696329e-10 -1.7857605921831791e-10  1.9999999999908590e+02 -1.7754969696494338e-10 -1.6998064284567419e-10  1.9999999999950703e+02 -8.7773293197861466e-11 -5.2261091828110763e-11  2.0000000000005579e+02 -5.3556890734264463e-11 -1.8296466559086127e-10  2.0000000000053959e+02 1.1493636857688111e-10 7.7225474757328815e-11  1.9999999999903363e+02 1.7561907484979909e-12 -1.1688459863733371e-11  2.0000000000009297e+02 -6.3983293006140862e-11 -1.1578633286204724e-10  2.0000000000004533e+02 -1.0189723757640715e-10 -7.2649687650446789e-11  1.9999999999633846e+02 -1.2608332700535149e-12 -8.6929027748593341e-11  1.9999999999617111e+02 -1.1372167793094410e-10 -1.4353954312843163e-10  1.9999999999714669e+02 -7.7461126734957936e-11 -1.1862795615949884e-10  1.9999999999644365e+02 1.1504461878349653e-10 6.2255592441265070e-11  1.9999999999631183e+02 -7.6597396456822085e-12 -5.2518848159395007e-11  1.9999999999717136e+02 -1.5040787217939328e-10 -2.1501849952484518e-10  1.9999999999715035e+02 -1.8970175959294508e-10 -1.5789498224029062e-10  1.9999999999728269e+02 -2.1953129783629320e-11 -5.0572386516476072e-11  1.9999999999722144e+02 1.0851670635754641e-11 -4.8707959726507585e-11  1.9999999999453786e+02 -2.6001783883099960e-11 -8.6094019243079764e-11  1.9999999999433695e+02 -1.4959193022544152e-10 -1.3990586093251769e-10  1.9999999999535046e+02 -1.2204599797130961e-10 -1.3301155831064967e-10  1.9999999999466317e+02 9.3821170419209896e-11 5.4054603454003331e-11  1.9999999999456884e+02 -8.3605789621659901e-11 -7.1743211046861812e-11  1.9999999999531599e+02 -1.4304004782456676e-10 -2.6889625735946418e-10  1.9999999999529433e+02 -1.8636466648210225e-10 -1.4146794421347126e-10  1.9999999999536283e+02 -5.5453294655775031e-12 -4.5582095522350514e-11  1.9999999999260385e+02 -1.3082568782835524e-10 -1.1252139525262269e-10  1.9999999999265310e+02 -8.7978915378396437e-11 -2.8933383539278535e-11  1.9999999999353568e+02 -1.1520797400867700e-10 -1.3459997717826457e-10  1.9999999999266845e+02 -6.7441094927907210e-11 -9.1641007089964615e-11  1.9999999999282522e+02 4.4387101345258908e-11 6.8571410141253434e-11  1.9999999999267658e+02 -5.6114989351054643e-11 -3.4821608127309539e-11  1.9999999999352849e+02 -1.2168387014519800e-10 -2.0419161236658346e-10  1.9999999999351718e+02 -1.8232386876885283e-10 -1.8512387043620108e-10  1.9999999999363169e+02 -4.7213396342158506e-12 -2.6339970050237262e-11  1.9999999999897719e+02 -1.2524217687424022e-10 -1.0828049615423298e-10  1.9999999999818576e+02 -2.9382986248801562e-10 -2.1760092924527062e-10  1.9999999999818010e+02 -6.8230715070135738e-11 -5.5246111098012974e-11  1.9999999999820773e+02 1.3615001748236654e-10 8.6204133272451876e-11  1.9999999999820952e+02 -8.4953671503571964e-11 -1.4244251320448036e-10  1.9999999999900149e+02 -1.7400993125290985e-10 -1.8360639378833753e-10  1.9999999999903872e+02 -1.8829886899660440e-10 -1.3347356145249107e-10  1.9999999999966775e+02 -8.4719373562948518e-11 -9.5058271251218212e-11  2.0000000000008671e+02 -9.2803394567350167e-11 -1.1497108033697686e-10  2.0000000000057273e+02 1.2720312173673728e-10 9.5002885041923206e-11  1.9999999999897810e+02 2.5197411073243915e-11 -6.2995852342789597e-14  2.0000000000003067e+02 -9.4510277300185851e-11 -4.2185146890517956e-11  1.9999999999714501e+02 -1.1473712658177366e-10 -1.0564964365963159e-10  1.9999999999719881e+02 -1.4687261215415492e-10 -2.1310511816598143e-10  1.9999999999616026e+02 -1.4902892405038373e-10 -1.2596457035118993e-10  1.9999999999633428e+02 3.6403920706054913e-11 -5.2047163959185973e-11  1.9999999999646047e+02 1.3345387254438951e-10 6.6961960114479472e-11  1.9999999999633684e+02 -6.9394878856617247e-11 -5.1877671692071354e-11  1.9999999999715425e+02 -1.5357758920624221e-10 -2.2202386346647593e-10  1.9999999999719270e+02 -2.1553501660265862e-10 -1.1823692164800011e-10  1.9999999999725904e+02 -1.2445808285182578e-10 2.9350115714083984e-11  1.9999999999725657e+02 1.0471114091793747e-13 -5.8035237576751182e-11  1.9999999999533313e+02 -1.1306946019799596e-10 -1.0761105628862151e-10  1.9999999999435866e+02 -1.2387722258436764e-10 -1.4166573540454673e-10  1.9999999999454906e+02 -2.7131479746362186e-11 -5.0009021443921889e-11  1.9999999999463640e+02 1.1517275190618822e-10 9.0263210911230020e-11  1.9999999999456827e+02 1.3790860873914171e-11 -5.8469701165886659e-11  1.9999999999528970e+02 -9.1638353325573486e-11 -2.7392854563246507e-10  1.9999999999528754e+02 -1.7071964327334239e-10 -1.1691535526613376e-10  1.9999999999539361e+02 1.6232018857792826e-11 -2.9354870305214124e-11  1.9999999999351175e+02 -1.0461798353474342e-10 -1.1444239894490221e-10  1.9999999999252739e+02 -1.4257834655026823e-10 -1.6167841332754503e-10  1.9999999999270042e+02 -2.3769963058047629e-11 -2.4257891641950390e-11  1.9999999999281667e+02 7.2688172184307991e-11 9.1075742456341180e-11  1.9999999999266808e+02 -3.2706118804050134e-13 1.6025501038550771e-11  1.9999999999350447e+02 -1.0570560034030362e-10 -2.3612415139333501e-10  1.9999999999348142e+02 -2.1627166529995892e-10 -1.0222322925075597e-10  1.9999999999357271e+02 2.7897769714371079e-12 -4.3137813063406984e-11  1.9999999999177854e+02 -7.2513405753615212e-11 -1.1719055795964980e-10  1.9999999999174369e+02 -2.2207430363081303e-10 -1.4406077167864708e-10  1.9999999999085827e+02 3.2311114522600186e-11 3.3201645504996121e-11  1.9999999999107578e+02 3.9913250539879114e-11 6.4258582667574138e-11  1.9999999999176640e+02 -2.6505142260619574e-11 -2.9791117319840716e-10  1.9999999999182612e+02 -3.3752052941230875e-11 6.4364923078293690e-12  1.9999999999899964e+02 -1.3074273744844367e-10 -9.5551070037795995e-11  1.9999999999914462e+02 -2.6790633002124779e-10 -6.6884572726903609e-11  1.9999999999816160e+02 -2.7831955308963688e-10 -2.2200433664228572e-10  1.9999999999818519e+02 -2.5420010449976880e-11 1.6797999580406099e-11  1.9999999999823268e+02 1.7728153477579783e-10 -2.6359017943580694e-11  1.9999999999818459e+02 -4.4234583330012993e-11 -4.7808324120930551e-11  1.9999999999819204e+02 1.3406711937117624e-10 1.0780956290702489e-10  1.9999999999814236e+02 -5.8421575706815030e-11 -8.3982336251738766e-11  1.9999999999904074e+02 -1.4741879175989045e-10 -1.4446886881645266e-10  1.9999999999999437e+02 -9.7581014986477547e-11 1.0269216670964960e-10  2.0000000000055260e+02 1.3643379178198834e-10 -2.8029574891485105e-11  1.9999999999907138e+02 -1.6643805592477026e-10 -1.0641321534636495e-10  1.9999999999903716e+02 -4.5496832984403314e-11 4.0941755487462325e-11  1.9999999999970865e+02 -1.1863552717582179e-10 9.9264349972611713e-12  2.0000000000003121e+02 -9.4771613492432697e-11 -8.5480918526798386e-11  2.0000000000057469e+02 1.2004448369796041e-10 1.1577872112732404e-10  1.9999999999900780e+02 -9.8931388619314662e-11 2.0228735853659767e-11  1.9999999999999602e+02 -6.6328169549680841e-11 -4.0154527456012517e-11  1.9999999999719350e+02 -1.0823115812442335e-10 -9.4088154087699901e-11  1.9999999999706617e+02 -2.2312746256415463e-10 -5.4297413264879319e-11  1.9999999999618774e+02 -1.5582285128905036e-10 -1.0186630824839964e-10  1.9999999999629347e+02 -1.1545223044581934e-10 1.0669105009383074e-10  1.9999999999645348e+02 1.4429811919443174e-10 -1.1431660732198863e-11  1.9999999999632976e+02 -2.7780078092242354e-11 -3.2522790072819878e-11  1.9999999999646593e+02 7.6274372524142196e-11 7.7744900026111112e-11  1.9999999999632419e+02 -1.7475389721890581e-11 -4.2274956792581933e-11  1.9999999999720762e+02 -1.3730302267200335e-10 -2.2112689103603709e-10  1.9999999999717150e+02 -1.8438930486393887e-10 -1.3032163527899449e-10  1.9999999999720208e+02 -5.7277861937216903e-11 2.5419938000701864e-11  1.9999999999722601e+02 -1.3532935852772153e-11 -1.6123176641688900e-12  1.9999999999533358e+02 -1.0380817364942314e-10 -1.2743043180239850e-10  1.9999999999523578e+02 -2.3462894705384934e-10 -6.9858127996324795e-11  1.9999999999433126e+02 -1.4666160054117028e-10 -1.3598034930974328e-10  1.9999999999445782e+02 -2.8496121220499657e-11 6.5532370502328617e-11  1.9999999999466621e+02 1.2407251556837782e-10 -2.5955440194264693e-11  1.9999999999450702e+02 1.8495836813381805e-12 -6.5334764121864325e-11  1.9999999999463753e+02 7.8569424780007960e-11 8.0988803096458342e-11  1.9999999999451191e+02 -3.8278480790103428e-11 -1.3953305937460640e-11  1.9999999999531133e+02 -1.3131087145028086e-10 -1.7069818534932274e-10  1.9999999999532753e+02 -2.0561795735803113e-10 -9.6503158922141881e-11  1.9999999999544499e+02 -1.1442379973032541e-10 7.1832581307926988e-11  1.9999999999536541e+02 -3.1976979328360973e-11 -2.2026021908886351e-11  1.9999999999352590e+02 -1.0386480983586422e-10 -1.3812277068381754e-10  1.9999999999340071e+02 -1.9334548555302145e-10 -1.0971605449832478e-10  1.9999999999249962e+02 -1.0853773915352720e-10 -1.1577877874666234e-10  1.9999999999261755e+02 -2.4374182419950804e-11 3.8750409062642626e-11  1.9999999999283872e+02 1.1137177009364244e-10 -4.2709538196797117e-11  1.9999999999269826e+02 9.3576404858716602e-12 -3.7873029454891308e-12  1.9999999999282343e+02 1.1081475794183891e-10 8.3246830279623665e-11  1.9999999999272401e+02 -1.3208358270626343e-11 -2.1876112738054733e-11  1.9999999999348893e+02 -1.4361176921917752e-10 -1.7861871637370713e-10  1.9999999999352414e+02 -1.3454207718421094e-10 -1.3314718470976747e-10  1.9999999999356052e+02 -9.1390150611151180e-11 8.4853479528741559e-11  1.9999999999358411e+02 1.9642299819276115e-11 -1.5374504741889696e-11  1.9999999999178226e+02 -9.6398732045318527e-11 -1.0606745395797525e-10  1.9999999999158968e+02 -2.1651202506745625e-10 -8.4780603383880327e-11  1.9999999999072614e+02 -1.4284499420538868e-10 -7.9428868126377646e-11  1.9999999999085207e+02 -1.2893093586439357e-11 5.8535750229092790e-11  1.9999999999109988e+02 1.3433884173747737e-10 -2.1267207173960963e-11  1.9999999999094069e+02 -4.6111997078738711e-12 -5.7512428376150097e-12  1.9999999999102542e+02 9.1419623687733304e-11 4.9006943597132579e-11  1.9999999999091477e+02 -5.1630744504552706e-11 -1.1884366336066864e-11  1.9999999999174258e+02 -1.1980553568194151e-10 -1.8079910414020227e-10  1.9999999999170149e+02 -1.6316236549774001e-10 -9.8096624150518442e-11  1.9999999999173343e+02 -7.3271399927534432e-11 4.8796278698210132e-11  1.9999999999181330e+02 -5.4604755538218188e-12 -2.2103202217542701e-11  1.9999999999002026e+02 -9.2948286420028814e-11 -9.6829892067933583e-11  1.9999999998988801e+02 -4.0406289985627352e-11 -1.1856272452639977e-10  1.9999999998997683e+02 -7.5165561584061633e-11 -2.8413603757350093e-10  1.9999999999004982e+02 -1.0626844705719837e-12 -2.1430138239890924e-13  1.9999999998995028e+02 -1.2934995697112418e-10 -1.5484813282776884e-10  1.9999999999901550e+02 -7.7215850337557520e-11 -3.9853762000737429e-11  1.9999999999914979e+02 -2.3908171222752530e-10 -8.9618474688521239e-11  1.9999999999812184e+02 -2.6597163095101274e-10 -2.5040751714163188e-10  1.9999999999819579e+02 -6.2625686401831390e-11 -3.8298809018155461e-11  1.9999999999818428e+02 1.7722286706325323e-10 -3.4196814597171274e-11  1.9999999999811919e+02 -6.7137996552343954e-11 -5.0471491144791784e-11  1.9999999999814349e+02 1.7058752611198897e-10 1.1432143142163994e-10  1.9999999999823058e+02 -3.9329776703997879e-11 -9.7641808761415044e-11  1.9999999999903631e+02 -1.3327398392651342e-10 -1.4201471813446362e-10  2.0000000000002757e+02 -6.1065576333885116e-11 1.7406489808580253e-10  2.0000000000059509e+02 1.7296812826910132e-10 -6.7725063197454702e-11  1.9999999999906549e+02 -1.6497055343456691e-10 -8.8793246885520909e-11  1.9999999999897292e+02 -2.3729496220545372e-11 1.0910634769408319e-11  1.9999999999962012e+02 -1.036593