<?xml version="1.0"?>
<VTKFile type="UnstructuredGrid"  version="0.1"  >
<UnstructuredGrid>
<Piece  NumberOfPoints="3901" NumberOfCells="19057">
<Points>
<DataArray  type="Float64"  NumberOfComponents="3"  format="ascii">0 27.5 25  1.25 28.75 26.25  1.25 28.75 25  1.25 27.5 25  2.5 27.5 25  2.5 28.75 26.25  2.5 28.75 25  2.5 30 25  2.5 30 26.25  2.5 30 27.5  1.25 27.5 26.25  2.5 27.5 26.25  2.5 27.5 27.5  2.5 28.75 27.5  0 27.5 26.25  0 27.5 27.5  1.25 28.75 27.5  1.25 27.5 27.5  0 28.75 25  0 30 25  1.25 30 26.25  1.25 30 25  0 28.75 26.25  0 28.75 27.5  0 30 27.5  1.25 30 27.5  0 30 26.25  3.75 28.75 26.25  3.75 28.75 25  3.75 27.5 25  5 27.5 25  5 28.75 26.25  5 28.75 25  5 30 25  5 30 26.25  5 30 27.5  3.75 27.5 26.25  5 27.5 26.25  5 27.5 27.5  5 28.75 27.5  3.75 28.75 27.5  3.75 27.5 27.5  3.75 30 26.25  3.75 30 25  3.75 30 27.5  6.25 28.75 26.25  6.25 28.75 25  6.25 27.5 25  7.5 27.5 25  7.5 28.75 26.25  7.5 28.75 25  7.5 30 25  7.5 30 26.25  7.5 30 27.5  6.25 27.5 26.25  7.5 27.5 26.25  7.5 27.5 27.5  7.5 28.75 27.5  6.25 28.75 27.5  6.25 27.5 27.5  6.25 30 26.25  6.25 30 25  6.25 30 27.5  8.75 28.75 26.25  8.75 27.5 26.25  8.75 28.75 27.5  8.75 27.5 27.5  10 27.5 27.5  10 28.75 27.5  10 30 27.5  8.75 28.75 25  8.75 30 26.25  8.75 30 25  10 30 25  10 30 26.25  8.75 30 27.5  1.25 31.25 26.25  1.25 31.25 25  2.5 31.25 26.25  2.5 31.25 25  2.5 32.5 25  2.5 32.5 26.25  2.5 32.5 27.5  2.5 31.25 27.5  1.25 31.25 27.5  0 31.25 25  0 32.5 25  1.25 32.5 26.25  1.25 32.5 25  0 31.25 26.25  0 31.25 27.5  0 32.5 27.5  1.25 32.5 27.5  0 32.5 26.25  3.75 31.25 26.25  3.75 31.25 25  5 31.25 26.25  5 31.25 25  5 32.5 25  5 32.5 26.25  5 32.5 27.5  5 31.25 27.5  3.75 31.25 27.5  3.75 32.5 26.25  3.75 32.5 25  3.75 32.5 27.5  6.25 31.25 26.25  6.25 31.25 25  7.5 31.25 26.25  7.5 31.25 25  7.5 32.5 25  7.5 32.5 26.25  7.5 32.5 27.5  7.5 31.25 27.5  6.25 31.25 27.5  6.25 32.5 26.25  6.25 32.5 25  6.25 32.5 27.5  8.75 31.25 26.25  8.75 31.25 25  10 31.25 26.25  10 31.25 25  10 32.5 25  10 32.5 26.25  10 32.5 27.5  10 31.25 27.5  8.75 31.25 27.5  8.75 32.5 26.25  8.75 32.5 25  8.75 32.5 27.5  1.25 33.75 26.25  1.25 33.75 25  2.5 33.75 26.25  2.5 33.75 25  2.5 35 25  2.5 35 26.25  2.5 35 27.5  2.5 33.75 27.5  1.25 33.75 27.5  0 33.75 25  0 35 25  1.25 35 26.25  1.25 35 25  0 33.75 26.25  0 33.75 27.5  0 35 27.5  1.25 35 27.5  0 35 26.25  3.75 33.75 26.25  3.75 33.75 25  5 33.75 26.25  5 33.75 25  5 35 25  5 35 26.25  5 35 27.5  5 33.75 27.5  3.75 33.75 27.5  3.75 35 26.25  3.75 35 25  3.75 35 27.5  6.25 33.75 26.25  6.25 33.75 25  7.5 33.75 26.25  7.5 33.75 25  7.5 35 25  7.5 35 26.25  7.5 35 27.5  7.5 33.75 27.5  6.25 33.75 27.5  6.25 35 26.25  6.25 35 25  6.25 35 27.5  8.75 33.75 26.25  8.75 33.75 25  10 33.75 26.25  10 33.75 25  10 35 25  10 35 26.25  10 35 27.5  10 33.75 27.5  8.75 33.75 27.5  8.75 35 26.25  8.75 35 25  8.75 35 27.5  1.25 36.25 26.25  2.5 36.25 26.25  2.5 36.25 27.5  2.5 37.5 27.5  1.25 36.25 27.5  0 36.25 26.25  0 36.25 27.5  0 37.5 27.5  1.25 37.5 27.5  3.75 36.25 26.25  5 36.25 26.25  5 36.25 27.5  5 37.5 27.5  3.75 36.25 27.5  3.75 37.5 27.5  6.25 36.25 26.25  7.5 36.25 26.25  7.5 36.25 27.5  7.5 37.5 27.5  6.25 36.25 27.5  6.25 37.5 27.5  8.75 36.25 26.25  10 36.25 26.25  10 36.25 27.5  10 37.5 27.5  8.75 36.25 27.5  8.75 37.5 27.5  1.25 28.75 28.75  2.5 28.75 28.75  2.5 30 28.75  2.5 30 30  1.25 27.5 28.75  2.5 27.5 28.75  2.5 27.5 30  2.5 28.75 30  0 27.5 28.75  0 27.5 30  1.25 28.75 30  1.25 27.5 30  1.25 30 28.75  0 28.75 28.75  0 28.75 30  0 30 30  1.25 30 30  0 30 28.75  3.75 28.75 28.75  5 28.75 28.75  5 30 28.75  5 30 30  3.75 27.5 28.75  5 27.5 28.75  5 27.5 30  5 28.75 30  3.75 28.75 30  3.75 27.5 30  3.75 30 28.75  3.75 30 30  6.25 28.75 28.75  7.5 28.75 28.75  7.5 30 28.75  7.5 30 30  6.25 27.5 28.75  7.5 27.5 28.75  7.5 27.5 30  7.5 28.75 30  6.25 28.75 30  6.25 27.5 30  6.25 30 28.75  6.25 30 30  8.75 28.75 28.75  10 28.75 28.75  10 30 28.75  10 30 30  8.75 27.5 28.75  10 27.5 28.75  10 27.5 30  10 28.75 30  8.75 28.75 30  8.75 27.5 30  8.75 30 28.75  8.75 30 30  1.25 31.25 28.75  2.5 31.25 28.75  2.5 32.5 28.75  2.5 32.5 30  2.5 31.25 30  1.25 31.25 30  1.25 32.5 28.75  0 31.25 28.75  0 31.25 30  0 32.5 30  1.25 32.5 30  0 32.5 28.75  3.75 31.25 28.75  5 31.25 28.75  5 32.5 28.75  5 32.5 30  5 31.25 30  3.75 31.25 30  3.75 32.5 28.75  3.75 32.5 30  6.25 31.25 28.75  7.5 31.25 28.75  7.5 32.5 28.75  7.5 32.5 30  7.5 31.25 30  6.25 31.25 30  6.25 32.5 28.75  6.25 32.5 30  8.75 31.25 28.75  10 31.25 28.75  10 32.5 28.75  10 32.5 30  10 31.25 30  8.75 31.25 30  8.75 32.5 28.75  8.75 32.5 30  1.25 33.75 28.75  2.5 33.75 28.75  2.5 35 28.75  2.5 35 30  2.5 33.75 30  1.25 33.75 30  1.25 35 28.75  0 33.75 28.75  0 33.75 30  0 35 30  1.25 35 30  0 35 28.75  3.75 33.75 28.75  5 33.75 28.75  5 35 28.75  5 35 30  5 33.75 30  3.75 33.75 30  3.75 35 28.75  3.75 35 30  6.25 33.75 28.75  7.5 33.75 28.75  7.5 35 28.75  7.5 35 30  7.5 33.75 30  6.25 33.75 30  6.25 35 28.75  6.25 35 30  8.75 33.75 28.75  10 33.75 28.75  10 35 28.75  10 35 30  10 33.75 30  8.75 33.75 30  8.75 35 28.75  8.75 35 30  1.25 36.25 28.75  2.5 36.25 28.75  2.5 37.5 28.75  2.5 37.5 30  2.5 36.25 30  1.25 36.25 30  1.25 37.5 28.75  0 36.25 28.75  0 36.25 30  0 37.5 30  1.25 37.5 30  0 37.5 28.75  3.75 36.25 28.75  5 36.25 28.75  5 37.5 28.75  5 37.5 30  5 36.25 30  3.75 36.25 30  3.75 37.5 28.75  3.75 37.5 30  6.25 36.25 28.75  7.5 36.25 28.75  7.5 37.5 28.75  7.5 37.5 30  7.5 36.25 30  6.25 36.25 30  6.25 37.5 28.75  6.25 37.5 30  8.75 36.25 28.75  10 36.25 28.75  10 37.5 28.75  10 37.5 30  10 36.25 30  8.75 36.25 30  8.75 37.5 28.75  8.75 37.5 30  1.25 38.75 28.75  2.5 38.75 28.75  2.5 38.75 30  2.5 40 30  3.75 38.75 28.75  5 38.75 28.75  5 38.75 30  5 40 30  3.75 38.75 30  3.75 40 30  6.25 38.75 28.75  7.5 38.75 28.75  8.75 38.75 28.75  10 38.75 28.75  11.25 38.75 28.75  1.25 28.75 31.25  2.5 28.75 31.25  2.5 30 31.25  2.5 30 32.5  1.25 30 31.25  0 28.75 31.25  0 30 31.25  0 30 32.5  1.25 30 32.5  3.75 28.75 31.25  5 28.75 31.25  5 30 31.25  5 30 32.5  3.75 30 31.25  3.75 30 32.5  6.25 28.75 31.25  7.5 28.75 31.25  7.5 30 31.25  7.5 30 32.5  7.5 27.5 31.25  7.5 27.5 32.5  7.5 28.75 32.5  6.25 30 31.25  6.25 30 32.5  8.75 28.75 31.25  10 28.75 31.25  10 30 31.25  10 30 32.5  10 27.5 31.25  10 27.5 32.5  10 28.75 32.5  8.75 30 31.25  8.75 30 32.5  1.25 31.25 31.25  2.5 31.25 31.25  2.5 32.5 31.25  2.5 32.5 32.5  2.5 31.25 32.5  1.25 32.5 31.25  0 31.25 31.25  3.75 31.25 31.25  5 31.25 31.25  5 32.5 31.25  5 32.5 32.5  5 31.25 32.5  3.75 31.25 32.5  3.75 32.5 31.25  3.75 32.5 32.5  6.25 31.25 31.25  7.5 31.25 31.25  7.5 32.5 31.25  7.5 32.5 32.5  7.5 31.25 32.5  6.25 31.25 32.5  6.25 32.5 31.25  6.25 32.5 32.5  8.75 31.25 31.25  10 31.25 31.25  10 32.5 31.25  10 32.5 32.5  10 31.25 32.5  8.75 31.25 32.5  8.75 32.5 31.25  8.75 32.5 32.5  1.25 33.75 31.25  2.5 33.75 31.25  2.5 35 31.25  1.25 35 31.25  3.75 33.75 31.25  5 33.75 31.25  5 35 31.25  3.75 35 31.25  6.25 33.75 31.25  7.5 33.75 31.25  6.25 35 31.25  8.75 33.75 31.25  10 33.75 31.25  8.75 35 31.25  1.25 36.25 31.25  2.5 36.25 31.25  3.75 36.25 31.25  5 36.25 31.25  6.25 36.25 31.25  7.5 36.25 31.25  8.75 36.25 31.25  8.75 27.5 25  10 27.5 25  10 28.75 26.25  10 28.75 25  10 27.5 26.25  11.25 28.75 26.25  11.25 28.75 25  11.25 27.5 25  12.5 27.5 25  12.5 28.75 26.25  12.5 28.75 25  12.5 30 25  12.5 30 26.25  12.5 30 27.5  11.25 27.5 26.25  12.5 27.5 26.25  12.5 27.5 27.5  12.5 28.75 27.5  11.25 28.75 27.5  11.25 27.5 27.5  11.25 30 26.25  11.25 30 25  11.25 30 27.5  13.75 28.75 26.25  13.75 28.75 25  13.75 27.5 25  15 27.5 25  15 28.75 26.25  15 28.75 25  15 30 25  15 30 26.25  15 30 27.5  13.75 27.5 26.25  15 27.5 26.25  15 27.5 27.5  15 28.75 27.5  13.75 28.75 27.5  13.75 27.5 27.5  13.75 30 26.25  13.75 30 25  13.75 30 27.5  16.25 28.75 26.25  16.25 28.75 25  16.25 27.5 25  17.5 27.5 25  17.5 28.75 26.25  17.5 28.75 25  17.5 30 25  17.5 30 26.25  17.5 30 27.5  16.25 27.5 26.25  17.5 27.5 26.25  17.5 27.5 27.5  17.5 28.75 27.5  16.25 28.75 27.5  16.25 27.5 27.5  16.25 30 26.25  16.25 30 25  16.25 30 27.5  18.75 28.75 26.25  18.75 27.5 26.25  18.75 27.5 25  20 27.5 25  20 28.75 26.25  20 27.5 26.25  20 27.5 27.5  20 28.75 27.5  20 30 27.5  18.75 28.75 27.5  18.75 27.5 27.5  18.75 30 27.5  18.75 30 26.25  21.25 28.75 26.25  21.25 27.5 26.25  21.25 28.75 27.5  21.25 27.5 27.5  22.5 27.5 27.5  22.5 28.75 27.5  22.5 30 27.5  21.25 30 27.5  11.25 31.25 26.25  11.25 31.25 25  12.5 31.25 26.25  12.5 31.25 25  12.5 32.5 25  12.5 32.5 26.25  12.5 32.5 27.5  12.5 31.25 27.5  11.25 31.25 27.5  11.25 32.5 26.25  11.25 32.5 25  11.25 32.5 27.5  13.75 31.25 26.25  15 31.25 26.25  15 31.25 27.5  15 32.5 27.5  13.75 31.25 27.5  13.75 32.5 27.5  13.75 32.5 26.25  16.25 31.25 26.25  17.5 31.25 26.25  17.5 31.25 27.5  17.5 32.5 27.5  16.25 31.25 27.5  16.25 32.5 27.5  18.75 31.25 26.25  18.75 31.25 27.5  20 31.25 27.5  20 32.5 27.5  18.75 32.5 27.5  11.25 33.75 26.25  12.5 33.75 26.25  12.5 33.75 27.5  12.5 35 27.5  11.25 33.75 27.5  11.25 35 27.5  11.25 35 26.25  13.75 33.75 26.25  13.75 33.75 27.5  15 33.75 27.5  15 35 27.5  13.75 35 27.5  11.25 36.25 26.25  11.25 36.25 27.5  12.5 36.25 27.5  12.5 37.5 27.5  11.25 37.5 27.5  11.25 28.75 28.75  12.5 28.75 28.75  12.5 30 28.75  12.5 30 30  11.25 27.5 28.75  12.5 27.5 28.75  12.5 27.5 30  12.5 28.75 30  11.25 28.75 30  11.25 27.5 30  11.25 30 28.75  11.25 30 30  13.75 28.75 28.75  15 28.75 28.75  15 30 28.75  15 30 30  13.75 27.5 28.75  15 27.5 28.75  15 27.5 30  15 28.75 30  13.75 28.75 30  13.75 27.5 30  13.75 30 28.75  13.75 30 30  16.25 28.75 28.75  17.5 28.75 28.75  16.25 27.5 28.75  16.25 30 28.75  18.75 28.75 28.75  18.75 30 28.75  21.25 28.75 28.75  11.25 31.25 28.75  12.5 31.25 28.75  12.5 32.5 28.75  12.5 32.5 30  12.5 31.25 30  11.25 31.25 30  11.25 32.5 28.75  11.25 32.5 30  13.75 31.25 28.75  15 31.25 28.75  15 32.5 28.75  15 32.5 30  15 31.25 30  13.75 31.25 30  13.75 32.5 28.75  13.75 32.5 30  16.25 31.25 28.75  17.5 31.25 28.7
[...]
<PointData  Vectors="u"> 
<DataArray  type="Float64"  Name="u"  NumberOfComponents="3" format="ascii">2.0000000000057670e+02 -6.3687110486635448e-11 -6.3204237819690552e-11  1.9999999999896278e+02 -5.9978236331504287e-11 -1.1269270076946745e-10  1.9999999999895539e+02 -2.1659174110513242e-10 -2.6426432216729648e-10  1.9999999999898066e+02 -6.3432449040142629e-11 -1.1737631440464524e-10  1.9999999999831681e+02 -2.8526479156629981e-11 -5.1999433227654718e-12  1.9999999999796154e+02 -4.0694357254362722e-11 -1.8318522818218229e-10  1.9999999999812150e+02 -3.3479360122558307e-11 -5.1814873337959395e-11  1.9999999999823547e+02 2.6827466000458255e-11 -5.1692788866507802e-11  1.9999999999823848e+02 -1.2070729327953509e-10 -4.0831307031808643e-11  1.9999999999824192e+02 5.5227915413298316e-11 1.2689059477545699e-10  1.9999999999895101e+02 1.0255025086495880e-10 -6.1965267231949594e-11  1.9999999999813869e+02 3.5425143873548462e-11 -5.4339601046367847e-11  1.9999999999824522e+02 -1.5530077120322228e-10 1.7345007258497460e-10  1.9999999999824092e+02 -1.3904485677330682e-11 3.4775360414672419e-11  2.0000000000001242e+02 2.0725324584420717e-11 -2.1251445131858262e-11  2.0000000000053933e+02 -1.5745023203915634e-10 1.2835048179048366e-10  1.9999999999910580e+02 -6.6399092103973893e-11 -1.3136559550302208e-10  1.9999999999901232e+02 2.7468352045660782e-11 -2.5641624725957762e-12  2.0000000000006492e+02 -2.7239038968602304e-11 -8.4415417537839783e-12  2.0000000000061632e+02 4.7133444388231993e-11 -9.1922740174239569e-11  1.9999999999906561e+02 -6.4681064426020204e-11 -1.5599953217040155e-10  1.9999999999901823e+02 -8.2041228882286590e-11 3.3003041144431047e-11  1.9999999999974023e+02 -2.6754112571721810e-11 -1.4747382572857631e-11  1.9999999999993847e+02 -6.2164780430535982e-11 -5.4235302740666097e-11  2.0000000000055653e+02 9.9854462457922121e-11 1.4684157338916796e-10  1.9999999999900919e+02 -6.1531896455754186e-11 -3.1438737605184734e-11  2.0000000000000267e+02 -1.1857799119317612e-10 -3.9350457114444952e-11  1.9999999999718472e+02 -1.1458602586175106e-10 -1.2475291458285816e-10  1.9999999999703002e+02 -2.4770504313610092e-10 -1.8437340537195164e-10  1.9999999999725139e+02 -3.1327488167251080e-11 -1.9186785676145865e-11  1.9999999999645723e+02 -2.5589629991644014e-11 -2.2738216806536241e-11  1.9999999999614010e+02 -2.8635439230419122e-11 -1.0195336690653781e-10  1.9999999999627570e+02 -2.9524295499673897e-11 -7.7713729288758228e-11  1.9999999999647792e+02 2.2732669166896909e-11 -4.9359049496426950e-11  1.9999999999636117e+02 -6.5025119160337007e-11 -3.0194525788144741e-11  1.9999999999647562e+02 -2.2892992456165063e-11 1.0091398858283940e-10  1.9999999999710903e+02 1.0031401184489757e-11 -1.0103013765129827e-10  1.9999999999628832e+02 8.9835338326719624e-11 -1.9239210356604392e-11  1.9999999999642975e+02 -1.1564482957648021e-10 9.6550224820730367e-11  1.9999999999633445e+02 7.5160105492242964e-12 -2.5486558100478499e-12  1.9999999999717713e+02 7.8325684260710791e-11 -1.5791470776063929e-10  1.9999999999727382e+02 6.0838307359152909e-11 -8.1066564050706383e-11  1.9999999999714368e+02 -2.0447456501703285e-10 -1.1440297806009258e-10  1.9999999999725370e+02 -1.8345279785872703e-10 2.1161906380703295e-11  1.9999999999721541e+02 -7.5106050159745936e-13 -1.1317478284011882e-10  1.9999999999532335e+02 -9.7331292054892737e-11 -1.2248590708166654e-10  1.9999999999518670e+02 -2.5013785157600981e-10 -6.6427840944359384e-11  1.9999999999538610e+02 1.6070286373322297e-11 -3.3544337170613195e-12  1.9999999999468255e+02 -2.1773197102363821e-11 -2.6494693830239645e-11  1.9999999999432660e+02 -1.5817033703235104e-11 -1.2894608363138903e-10  1.9999999999445595e+02 -3.8527403527610376e-11 -3.9369297798900797e-11  1.9999999999466027e+02 6.8510482879749399e-11 -5.7858320956449194e-11  1.9999999999451032e+02 -4.4051718223274732e-11 -3.3051554180339232e-11  1.9999999999465675e+02 3.7954672371032055e-12 1.0145280532139053e-10  1.9999999999528228e+02 3.8411512059676803e-11 -9.0226239814949366e-11  1.9999999999442059e+02 8.7402824912438201e-11 7.5106459045760675e-13  1.9999999999464060e+02 -1.1259105332107230e-10 1.0383776515448182e-10  1.9999999999458004e+02 -3.7661333714142559e-11 2.0462643465034701e-11  1.9999999999529339e+02 6.8975624891322651e-11 -2.0675983444761345e-10  1.9999999999542482e+02 5.9119867169640623e-11 -8.7987112923553046e-11  1.9999999999529348e+02 -2.3447392666183540e-10 -1.3019045403554357e-10  1.9999999999539330e+02 -1.5047585180587699e-10 5.2752990998631333e-11  1.9999999999535572e+02 1.6802786243901052e-11 -1.1408918770248783e-10  1.9999999999355185e+02 -1.5290940068472833e-10 -5.5571523049090050e-11  1.9999999999336768e+02 -2.0087801702107710e-10 -2.3736484794894467e-11  1.9999999999346252e+02 -3.9118299150825913e-11 -1.4668375396449347e-10  1.9999999999354938e+02 -1.9744911694100395e-11 -1.5748017092243172e-10  1.9999999999281351e+02 -1.2620395835854047e-10 7.8730006501908574e-11  1.9999999999262528e+02 4.8266113181262805e-11 3.7113094300546574e-11  1.9999999999287425e+02 5.2886354128217596e-11 7.6655523019444590e-11  1.9999999999350592e+02 -7.1616178807027531e-11 1.3574838924325662e-10  1.9999999999352067e+02 -2.5602679401212553e-10 -8.7105895400580056e-12  1.9999999999357394e+02 -9.9912066453415328e-11 1.1167330597078009e-10  1.9999999999288482e+02 7.2518801227143342e-11 -6.3027641976660023e-11  1.9999999999264986e+02 9.7428094737513450e-11 1.3699222205971472e-11  1.9999999999363180e+02 6.5402437065641221e-11 -1.1743428497372961e-10  1.9999999999903946e+02 -1.1368121019722820e-10 -3.7397927762305212e-11  1.9999999999915340e+02 -2.7153799215869750e-10 -1.0428815512674268e-10  1.9999999999814264e+02 -2.2713210342442862e-10 -1.9700055003353081e-10  1.9999999999819030e+02 -3.0085741915118927e-11 -5.4921266680087288e-11  1.9999999999821458e+02 9.3492316044618960e-11 -3.4236392554860186e-11  1.9999999999818110e+02 -1.1737489012527536e-10 -6.2656806094373461e-11  1.9999999999817211e+02 1.1990817947588592e-10 1.0690223556124579e-10  1.9999999999822799e+02 -1.1543241914874706e-10 -8.8933808000497133e-11  1.9999999999908047e+02 -1.4175511584703736e-10 -1.1391952811815350e-10  2.0000000000007020e+02 -6.3036106315110174e-11 1.0712423084295703e-10  2.0000000000060174e+02 1.1677729878960186e-10 -9.4577452720188472e-11  1.9999999999909704e+02 -1.6627595045851670e-10 -1.3743656985650791e-10  1.9999999999907084e+02 -8.6327717359862077e-11 5.2069297557932421e-11  1.9999999999963612e+02 -1.1162925653147241e-10 -4.5112099244992589e-12  2.0000000000004431e+02 -9.8764021376786719e-11 -1.0286180992659980e-10  2.0000000000058273e+02 1.1105594528994837e-10 1.1521085350094365e-10  1.9999999999901559e+02 -9.6041742487068291e-11 6.3017642196755237e-11  2.0000000000000750e+02 -6.4206432263705954e-11 3.0180560493116432e-11  1.9999999999718477e+02 -9.7655575597579521e-11 -9.8921729329340425e-11  1.9999999999705557e+02 -2.5388781917679269e-10 -9.5173189132642927e-11  1.9999999999615309e+02 -1.7028017207142056e-10 -1.2658684222090840e-10  1.9999999999627678e+02 -1.2858247837955472e-10 7.9429460091396855e-11  1.9999999999646835e+02 9.7040718836355761e-11 9.0074190320912209e-12  1.9999999999632692e+02 -4.8632697074210234e-11 -1.3808599324104511e-11  1.9999999999643632e+02 7.6592051110451287e-11 9.5854163037330354e-11  1.9999999999633084e+02 -8.7488784063253801e-13 -3.7055768710518289e-11  1.9999999999717352e+02 -1.3764618932437066e-10 -2.1574857554534714e-10  1.9999999999715655e+02 -1.9548901189542001e-10 -1.0391684796020586e-10  1.9999999999716934e+02 -1.5691835043035832e-10 6.6240170240130509e-11  1.9999999999727734e+02 -2.7358642888708026e-11 -4.5073842226197321e-11  1.9999999999533671e+02 -1.3465062958825090e-10 -1.2597395661004052e-10  1.9999999999523422e+02 -2.8868701827986119e-10 -2.6055954537656036e-11  1.9999999999440436e+02 -1.6119885538217568e-10 -1.4336395636068383e-10  1.9999999999449054e+02 -7.9059473837531662e-11 2.8010657461825780e-11  1.9999999999467477e+02 7.8015220341821414e-11 -1.5728167184025325e-11  1.9999999999453829e+02 -4.2984130465355375e-11 -2.7003497498402669e-11  1.9999999999464544e+02 7.3954934980980493e-11 8.9176216744729610e-11  1.9999999999451595e+02 -1.3007421117029768e-11 -4.5618338510656523e-11  1.9999999999532585e+02 -1.4401009475664645e-10 -2.1580953423804845e-10  1.9999999999531406e+02 -1.7055867397058331e-10 -1.0901132237595194e-10  1.9999999999545676e+02 -1.1026507060613401e-10 9.2073777508766613e-11  1.9999999999540236e+02 -1.9845016099064830e-11 9.5374907885620575e-12  1.9999999999357644e+02 -1.0569496890594320e-10 -1.3315071089808427e-10  1.9999999999341370e+02 -2.7621244423090474e-10 -7.7363112663106990e-11  1.9999999999263886e+02 -1.7374826120710027e-10 -1.1411199583784528e-11  1.9999999999267771e+02 -5.3451775472713019e-11 4.7838410291086880e-11  1.9999999999286979e+02 7.5236752303203573e-11 -3.9541790972588339e-11  1.9999999999266907e+02 -4.0006913389111461e-11 -5.6086105052709284e-11  1.9999999999286365e+02 4.8989162089761522e-11 6.5376000896860281e-11  1.9999999999263386e+02 -3.4379240612462681e-11 7.0425098767527730e-11  1.9999999999355541e+02 -1.4685895646461638e-10 -2.2614333875632265e-10  1.9999999999353432e+02 -2.3589824058136771e-10 -1.1723593791035528e-10  1.9999999999361845e+02 -1.1727789780896196e-10 5.6058407753875010e-11  1.9999999999361418e+02 -2.4199043860753878e-11 5.3732168148431872e-12  1.9999999999901317e+02 -9.1935618386778253e-11 -2.2073987329534841e-11  1.9999999999910852e+02 -2.1683487050716134e-10 -1.1714084380373482e-10  1.9999999999815768e+02 -2.6904627285301758e-10 -2.1129390974542692e-10  1.9999999999815640e+02 -8.9491379961560453e-11 -3.8611511970719070e-11  1.9999999999818581e+02 1.4925320145291177e-10 -1.6036478193377072e-11  1.9999999999816075e+02 -8.6324470567943050e-11 -3.8361465636132280e-11  1.9999999999817078e+02 1.0807409690927358e-10 1.1493509749397159e-10  1.9999999999824684e+02 -3.3183775833498705e-11 -3.0262588763441417e-11  1.9999999999907439e+02 -1.8762302257768538e-10 -1.2447147857139783e-10  2.0000000000006159e+02 -1.9019248026404427e-11 9.8915474081792256e-11  2.0000000000062334e+02 9.0854072489714795e-11 -6.5074211666374836e-11  1.9999999999906873e+02 -1.7784245889075659e-10 -1.5014651052827025e-10  1.9999999999897113e+02 -6.1552967479832349e-11 1.0211913644812518e-11  1.9999999999958953e+02 -8.3301047638719378e-11 -1.6213336065144397e-11  2.0000000000002015e+02 -1.2580546809560577e-10 -1.3324602023041386e-10  2.0000000000056065e+02 9.2641974348685184e-11 7.2427438813894783e-11  1.9999999999904767e+02 -1.0484322177949916e-10 2.0081050847079734e-12  1.9999999999999665e+02 -1.4947376413462215e-10 -3.0981391559677770e-11  1.9999999999718929e+02 -9.3385154945345929e-11 -7.4942007028723411e-11  1.9999999999705662e+02 -2.3302735255067243e-10 -6.4325389689782843e-11  1.9999999999617427e+02 -1.1486272815446024e-10 -9.7211528826993614e-11  1.9999999999628082e+02 -7.6189326289503956e-11 9.5065049643987552e-11  1.9999999999646619e+02 1.0563831346072819e-10 1.6425769793259915e-11  1.9999999999636040e+02 -6.3515276456967804e-11 -8.9544848680187835e-12  1.9999999999647738e+02 8.0762934745053017e-11 9.8707475105577867e-11  1.9999999999636034e+02 -2.7243761568444663e-11 -1.1790294587744370e-11  1.9999999999716621e+02 -1.7673567800295666e-10 -2.3248850600302747e-10  1.9999999999717744e+02 -1.8693337546247312e-10 -1.2903899605751740e-10  1.9999999999719876e+02 -9.1120873613868075e-11 1.0851720503249372e-10  1.9999999999725435e+02 1.3566085365624826e-11 -2.4211711619247720e-11  1.9999999999531229e+02 -1.1691483700873302e-10 -1.0131893713615117e-10  1.9999999999523092e+02 -2.1470674291558556e-10 -9.3840648041740796e-11  1.9999999999436727e+02 -1.5047914996071910e-10 -1.1655768322230042e-10  1.9999999999448920e+02 -1.1295923185932460e-10 4.5354315804922598e-11  1.9999999999462179e+02 6.4058239256770066e-11 -7.6506594400628306e-12  1.9999999999458626e+02 -1.4417900615634504e-11 3.1956527830862946e-11  1.9999999999462744e+02 1.1224477303983729e-10 9.5241320905328021e-11  1.9999999999454212e+02 -3.9148843318221965e-11 2.3662433595653520e-11  1.9999999999529979e+02 -8.8355082531329615e-11 -1.5837126421923370e-10  1.9999999999526091e+02 -1.5961422128087360e-10 -9.1517301522881632e-11  1.9999999999539665e+02 -8.2264901037946873e-11 9.3905987956640458e-11  1.9999999999541586e+02 -1.7295696083538173e-11 3.1939542967933190e-11  1.9999999999357263e+02 -9.5888168872105289e-11 -1.0887425698630944e-10  1.9999999999345528e+02 -2.7360951786184387e-10 -6.0892894848291062e-11  1.9999999999261280e+02 -1.4906262897497325e-10 -1.1061876603126162e-10  1.9999999999268240e+02 -7.3423125730965967e-11 5.0016448680831867e-11  1.9999999999284768e+02 6.6000281417062880e-11 -2.4930943861046333e-11  1.9999999999268073e+02 -2.6842279917132367e-11 2.4117743091475622e-11  1.9999999999285171e+02 1.1145306904029601e-10 4.0817413787171599e-11  1.9999999999266902e+02 -4.0173710074924971e-11 -3.2076430076148581e-11  1.9999999999353165e+02 -1.4030629577022392e-10 -2.0478601932621215e-10  1.9999999999354651e+02 -2.2596953462866574e-10 -7.5174134412215279e-11  1.9999999999370510e+02 -1.0825137956536297e-10 9.0017552869047259e-11  1.9999999999358786e+02 -5.3423882608347693e-13 -3.8205379464517868e-12  1.9999999999904657e+02 -1.4464154843658783e-10 2.2902826748137847e-11  1.9999999999816751e+02 -2.5377017607887337e-10 -8.2502712183834042e-11  1.9999999999827779e+02 -6.6192834801253761e-11 -7.4568792341480534e-11  1.9999999999822185e+02 1.5026521585633937e-10 4.6751259379445883e-11  1.9999999999905864e+02 -1.6786335945211804e-10 -1.2804516731761915e-10  1.9999999999968566e+02 -6.8721105486951463e-11 -4.1938952530661904e-11  2.0000000000004124e+02 -9.2389444352139633e-11 -8.6777366617903001e-11  2.0000000000056966e+02 1.3515584395448333e-10 5.8926532041752160e-11  1.9999999999902244e+02 -9.1633019837330754e-11 5.2746424735045393e-11  1.9999999999716556e+02 -8.1761488615378202e-11 -2.3463474447262727e-11  1.9999999999604992e+02 -1.1404879707087703e-10 -2.0606993299231090e-11  1.9999999999636395e+02 -1.7010336064674339e-11 -1.9353706776431486e-11  1.9999999999643700e+02 8.3109018525523495e-11 7.1354737100423596e-11  1.9999999999718040e+02 -1.2289866764961804e-10 -2.5432699133444418e-10  1.9999999999723690e+02 -1.2395915435293777e-10 5.8174216981583815e-11  1.9999999999534145e+02 -8.9504794167824028e-11 -2.9554209234624408e-11  1.9999999999428988e+02 -1.0087049878502638e-10 1.9469067292643680e-12  1.9999999999451342e+02 -6.8187786112457002e-11 -5.5654244698069697e-11  1.9999999999461261e+02 9.5257024420808262e-11 3.6893521696533411e-11  1.9999999999531951e+02 -1.2492099754135478e-10 -2.0701017158994332e-10  1.9999999999541450e+02 -1.5457915236764714e-10 5.8938055651972450e-11  1.9999999999352431e+02 -8.8413960208132051e-11 -3.9465200508549673e-11  1.9999999999260109e+02 -1.4043460314966657e-10 -2.3060908434460655e-11  1.9999999999267592e+02 -6.0463692940330509e-11 -2.0190090252295173e-11  1.9999999999284080e+02 7.7458071140535351e-11 5.7558949528687424e-12  1.9999999999351624e+02 -1.6110638712889127e-10 -1.7409208083282504e-10  1.9999999999360921e+02 -9.8629533280107545e-11 2.2708654662203029e-11  1.9999999999906217e+02 -7.9464173011401910e-11 -1.1480239825795027e-10  1.9999999999816592e+02 1.0535065698477543e-10 -2.9101378416448210e-10  1.9999999999819156e+02 2.6554191012835924e-12 -4.5990496790729066e-11  1.9999999999819573e+02 9.2665608345428630e-12 1.6325433430121282e-10  1.9999999999909983e+02 -5.2135277873635615e-12 -1.5787138691277334e-10  1.9999999999821679e+02 4.7143364868003289e-11 -4.7701598614693965e-11  1.9999999999821807e+02 -1.7333117216290559e-10 1.1142470374372605e-10  1.9999999999821483e+02 -3.8014737488440078e-11 -5.2070274484879236e-11  2.0000000000006830e+02 3.6027213285175289e-11 -9.8549058426556386e-11  2.0000000000058324e+02 -1.7962062428060853e-10 1.4709486945131692e-10  1.9999999999910716e+02 -3.8034573499047479e-11 -2.1651023137379451e-10  1.9999999999903250e+02 6.9636889548584413e-13 -4.6558413806456501e-11  1.9999999999898719e+02 -1.1171195393530161e-10 -1.5366292730655420e-10  1.9999999999965004e+02 -9.5993160721787047e-12 -5.7694644955984074e-11  1.9999999999997470e+02 -1.2017414618552956e-11 -7.7296827920005235e-11  2.0000000000058805e+02 9.4685695947255069e-11 1.1990851895166293e-10  1.9999999999898580e+02 6.0010559287039814e-12 -6.4018115131403178e-11  2.0000000000004874e+02 -1.4327060204312505e-10 -7.6745927223115479e-11  1.9999999999715979e+02 -6.6584109262714273e-11 -1.1994251927519621e-10  1.9999999999615775e+02 7.3069767171160110e-11 -1.7662325913117304e-10  1.9999999999627971e+02 1.4773468743762443e-11 -9.3399608202739773e-11  1.9999999999650089e+02 -1.7957584817721476e-11 1.2158434780136704e-10  1.9999999999710732e+02 7.5153006983372588e-11 -1.6963754553662804e-10  1.9999999999627465e+02 4.7141258701006463e-11 -8.0619927012701143e-11  1.9999999999643899e+02 -1.8780014024608059e-10 1.3995960652527336e-10  1.9999999999637365e+02 4.6929649384071950e-11 5.0025612967942009e-12  1.9999999999713862e+02 6.6853181942180976e-11 -1.4793511316252437e-10  1.9999999999721268e+02 3.9665646293627970e-11 -9.2996725761992207e-11  1.9999999999707262e+02 2.3194764044435420e-12 -2.9589863786451695e-10  1.9999999999721121e+02 -6.4217248347136104e-12 -1.1292554725622897e-10  1.9999999999535419e+02 -5.6076858211751006e-12 -9.3012274585869143e-11  1.9999999999433874e+02 6.6327143655595440e-11 -1.5447125871122325e-10  1.9999999999447834e+02 -3.5984158611732353e-11 -7.3869933336028158e-11  1.9999999999469782e+02 -3.0398929549045780e-11 1.2927130246307564e-10  1.9999999999529285e+02 4.2049056411507896e-11 -1.6931876150630768e-10  1.9999999999446266e+02 7.6561297940837165e-11 -7.7787846077666270e-11  1.9999999999463623e+02 -1.4028363009247943e-10 1.0298670996068109e-10  1.9999999999451956e+02 2.1593997823589663e-11 -1.6011399285340077e-11  1.9999999999528154e+02 7.1241063697097069e-11 -1.9485349237746539e-10  1.9999999999543371e+02 6.8756255926394407e-11 -5.0235486539510917e-11  1.9999999999519264e+02 -9.4321274659545833e-11 -2.5016453019227256e-10  1.9999999999534305e+02 -1.5079732432020719e-11 -8.0002446112268053e-11  1.9999999999350482e+02 -1.6324829751753942e-11 -1.0868271801102051e-10  1.9999999999254055e+02 8.3314300932025159e-12 -1.5524568824752307e-10  1.9999999999268474e+02 -5.9969875157555715e-11 -1.0375306502548993e-10  1.9999999999288087e+02 2.8573242337344014e-11 8.8911484905647570e-11  1.9999999999341932e+02 -1.4756836916779510e-11 -1.2943951025180457e-10  1.9999999999264011e+02 9.1494582975174838e-11 -5.4958575412680202e-11  1.9999999999283364e+02 -1.2186073085699988e-10 8.2645961640585813e-11  1.9999999999263974e+02 2.9620907018272052e-12 7.5735603574104151e-12  1.9999999999346198e+02 1.0706674310890448e-10 -2.1236655799926588e-10  1.9999999999351579e+02 1.2935015211273440e-11 -1.1085869620136581e-10  1.9999999999340261e+02 9.0111941128864764e-12 -2.6342062389132967e-10  1.9999999999352377e+02 -1.8016897826138082e-11 -8.4800367779686790e-11  1.9999999999894095e+02 -9.4443009412178888e-11 -9.5979239197242142e-11  1.9999999999816566e+02 -2.0861443657890671e-10 -2.6888151235150823e-10  1.9999999999815870e+02 -6.8733416821590086e-11 -1.5672221358125528e-11  1.9999999999818482e+02 1.3196414166976905e-10 1.2066281874100154e-10  1.9999999999816248e+02 -2.3874156332935985e-11 -9.0632535118623682e-11  1.9999999999900834e+02 -1.5562383273844754e-10 -1.8774868403628098e-10  1.9999999999900649e+02 -1.9352193104339943e-10 -1.6282866001546334e-10  1.9999999999956813e+02 -7.5449165903088636e-11 -3.1152078608747921e-11  2.0000000000002848e+02 -5.8186553190477221e-11 -1.1899565811273760e-10  2.0000000000056406e+02 7.4639786405816172e-11 7.5360734823899506e-11  1.9999999999899339e+02 -2.8845394916710073e-11 -1.8899811713076832e-11  2.0000000000005051e+02 -1.0805381724309615e-10 -3.2051606361092957e-11  1.9999999999717792e+02 -1.1640339669504220e-10 -9.1530621238003640e-11  1.9999999999617788e+02 -1.0490499326247227e-10 -1