<?xml version="1.0"?>
<VTKFile type="UnstructuredGrid"  version="0.1"  >
<UnstructuredGrid>
<Piece  NumberOfPoints="3901" NumberOfCells="19057">
<Points>
<DataArray  type="Float64"  NumberOfComponents="3"  format="ascii">0 27.5 25  1.25 28.75 26.25  1.25 28.75 25  1.25 27.5 25  2.5 27.5 25  2.5 28.75 26.25  2.5 28.75 25  2.5 30 25  2.5 30 26.25  2.5 30 27.5  1.25 27.5 26.25  2.5 27.5 26.25  2.5 27.5 27.5  2.5 28.75 27.5  0 27.5 26.25  0 27.5 27.5  1.25 28.75 27.5  1.25 27.5 27.5  0 28.75 25  0 30 25  1.25 30 26.25  1.25 30 25  0 28.75 26.25  0 28.75 27.5  0 30 27.5  1.25 30 27.5  0 30 26.25  3.75 28.75 26.25  3.75 28.75 25  3.75 27.5 25  5 27.5 25  5 28.75 26.25  5 28.75 25  5 30 25  5 30 26.25  5 30 27.5  3.75 27.5 26.25  5 27.5 26.25  5 27.5 27.5  5 28.75 27.5  3.75 28.75 27.5  3.75 27.5 27.5  3.75 30 26.25  3.75 30 25  3.75 30 27.5  6.25 28.75 26.25  6.25 28.75 25  6.25 27.5 25  7.5 27.5 25  7.5 28.75 26.25  7.5 28.75 25  7.5 30 25  7.5 30 26.25  7.5 30 27.5  6.25 27.5 26.25  7.5 27.5 26.25  7.5 27.5 27.5  7.5 28.75 27.5  6.25 28.75 27.5  6.25 27.5 27.5  6.25 30 26.25  6.25 30 25  6.25 30 27.5  8.75 28.75 26.25  8.75 27.5 26.25  8.75 28.75 27.5  8.75 27.5 27.5  10 27.5 27.5  10 28.75 27.5  10 30 27.5  8.75 28.75 25  8.75 30 26.25  8.75 30 25  10 30 25  10 30 26.25  8.75 30 27.5  1.25 31.25 26.25  1.25 31.25 25  2.5 31.25 26.25  2.5 31.25 25  2.5 32.5 25  2.5 32.5 26.25  2.5 32.5 27.5  2.5 31.25 27.5  1.25 31.25 27.5  0 31.25 25  0 32.5 25  1.25 32.5 26.25  1.25 32.5 25  0 31.25 26.25  0 31.25 27.5  0 32.5 27.5  1.25 32.5 27.5  0 32.5 26.25  3.75 31.25 26.25  3.75 31.25 25  5 31.25 26.25  5 31.25 25  5 32.5 25  5 32.5 26.25  5 32.5 27.5  5 31.25 27.5  3.75 31.25 27.5  3.75 32.5 26.25  3.75 32.5 25  3.75 32.5 27.5  6.25 31.25 26.25  6.25 31.25 25  7.5 31.25 26.25  7.5 31.25 25  7.5 32.5 25  7.5 32.5 26.25  7.5 32.5 27.5  7.5 31.25 27.5  6.25 31.25 27.5  6.25 32.5 26.25  6.25 32.5 25  6.25 32.5 27.5  8.75 31.25 26.25  8.75 31.25 25  10 31.25 26.25  10 31.25 25  10 32.5 25  10 32.5 26.25  10 32.5 27.5  10 31.25 27.5  8.75 31.25 27.5  8.75 32.5 26.25  8.75 32.5 25  8.75 32.5 27.5  1.25 33.75 26.25  1.25 33.75 25  2.5 33.75 26.25  2.5 33.75 25  2.5 35 25  2.5 35 26.25  2.5 35 27.5  2.5 33.75 27.5  1.25 33.75 27.5  0 33.75 25  0 35 25  1.25 35 26.25  1.25 35 25  0 33.75 26.25  0 33.75 27.5  0 35 27.5  1.25 35 27.5  0 35 26.25  3.75 33.75 26.25  3.75 33.75 25  5 33.75 26.25  5 33.75 25  5 35 25  5 35 26.25  5 35 27.5  5 33.75 27.5  3.75 33.75 27.5  3.75 35 26.25  3.75 35 25  3.75 35 27.5  6.25 33.75 26.25  6.25 33.75 25  7.5 33.75 26.25  7.5 33.75 25  7.5 35 25  7.5 35 26.25  7.5 35 27.5  7.5 33.75 27.5  6.25 33.75 27.5  6.25 35 26.25  6.25 35 25  6.25 35 27.5  8.75 33.75 26.25  8.75 33.75 25  10 33.75 26.25  10 33.75 25  10 35 25  10 35 26.25  10 35 27.5  10 33.75 27.5  8.75 33.75 27.5  8.75 35 26.25  8.75 35 25  8.75 35 27.5  1.25 36.25 26.25  2.5 36.25 26.25  2.5 36.25 27.5  2.5 37.5 27.5  1.25 36.25 27.5  0 36.25 26.25  0 36.25 27.5  0 37.5 27.5  1.25 37.5 27.5  3.75 36.25 26.25  5 36.25 26.25  5 36.25 27.5  5 37.5 27.5  3.75 36.25 27.5  3.75 37.5 27.5  6.25 36.25 26.25  7.5 36.25 26.25  7.5 36.25 27.5  7.5 37.5 27.5  6.25 36.25 27.5  6.25 37.5 27.5  8.75 36.25 26.25  10 36.25 26.25  10 36.25 27.5  10 37.5 27.5  8.75 36.25 27.5  8.75 37.5 27.5  1.25 28.75 28.75  2.5 28.75 28.75  2.5 30 28.75  2.5 30 30  1.25 27.5 28.75  2.5 27.5 28.75  2.5 27.5 30  2.5 28.75 30  0 27.5 28.75  0 27.5 30  1.25 28.75 30  1.25 27.5 30  1.25 30 28.75  0 28.75 28.75  0 28.75 30  0 30 30  1.25 30 30  0 30 28.75  3.75 28.75 28.75  5 28.75 28.75  5 30 28.75  5 30 30  3.75 27.5 28.75  5 27.5 28.75  5 27.5 30  5 28.75 30  3.75 28.75 30  3.75 27.5 30  3.75 30 28.75  3.75 30 30  6.25 28.75 28.75  7.5 28.75 28.75  7.5 30 28.75  7.5 30 30  6.25 27.5 28.75  7.5 27.5 28.75  7.5 27.5 30  7.5 28.75 30  6.25 28.75 30  6.25 27.5 30  6.25 30 28.75  6.25 30 30  8.75 28.75 28.75  10 28.75 28.75  10 30 28.75  10 30 30  8.75 27.5 28.75  10 27.5 28.75  10 27.5 30  10 28.75 30  8.75 28.75 30  8.75 27.5 30  8.75 30 28.75  8.75 30 30  1.25 31.25 28.75  2.5 31.25 28.75  2.5 32.5 28.75  2.5 32.5 30  2.5 31.25 30  1.25 31.25 30  1.25 32.5 28.75  0 31.25 28.75  0 31.25 30  0 32.5 30  1.25 32.5 30  0 32.5 28.75  3.75 31.25 28.75  5 31.25 28.75  5 32.5 28.75  5 32.5 30  5 31.25 30  3.75 31.25 30  3.75 32.5 28.75  3.75 32.5 30  6.25 31.25 28.75  7.5 31.25 28.75  7.5 32.5 28.75  7.5 32.5 30  7.5 31.25 30  6.25 31.25 30  6.25 32.5 28.75  6.25 32.5 30  8.75 31.25 28.75  10 31.25 28.75  10 32.5 28.75  10 32.5 30  10 31.25 30  8.75 31.25 30  8.75 32.5 28.75  8.75 32.5 30  1.25 33.75 28.75  2.5 33.75 28.75  2.5 35 28.75  2.5 35 30  2.5 33.75 30  1.25 33.75 30  1.25 35 28.75  0 33.75 28.75  0 33.75 30  0 35 30  1.25 35 30  0 35 28.75  3.75 33.75 28.75  5 33.75 28.75  5 35 28.75  5 35 30  5 33.75 30  3.75 33.75 30  3.75 35 28.75  3.75 35 30  6.25 33.75 28.75  7.5 33.75 28.75  7.5 35 28.75  7.5 35 30  7.5 33.75 30  6.25 33.75 30  6.25 35 28.75  6.25 35 30  8.75 33.75 28.75  10 33.75 28.75  10 35 28.75  10 35 30  10 33.75 30  8.75 33.75 30  8.75 35 28.75  8.75 35 30  1.25 36.25 28.75  2.5 36.25 28.75  2.5 37.5 28.75  2.5 37.5 30  2.5 36.25 30  1.25 36.25 30  1.25 37.5 28.75  0 36.25 28.75  0 36.25 30  0 37.5 30  1.25 37.5 30  0 37.5 28.75  3.75 36.25 28.75  5 36.25 28.75  5 37.5 28.75  5 37.5 30  5 36.25 30  3.75 36.25 30  3.75 37.5 28.75  3.75 37.5 30  6.25 36.25 28.75  7.5 36.25 28.75  7.5 37.5 28.75  7.5 37.5 30  7.5 36.25 30  6.25 36.25 30  6.25 37.5 28.75  6.25 37.5 30  8.75 36.25 28.75  10 36.25 28.75  10 37.5 28.75  10 37.5 30  10 36.25 30  8.75 36.25 30  8.75 37.5 28.75  8.75 37.5 30  1.25 38.75 28.75  2.5 38.75 28.75  2.5 38.75 30  2.5 40 30  3.75 38.75 28.75  5 38.75 28.75  5 38.75 30  5 40 30  3.75 38.75 30  3.75 40 30  6.25 38.75 28.75  7.5 38.75 28.75  8.75 38.75 28.75  10 38.75 28.75  11.25 38.75 28.75  1.25 28.75 31.25  2.5 28.75 31.25  2.5 30 31.25  2.5 30 32.5  1.25 30 31.25  0 28.75 31.25  0 30 31.25  0 30 32.5  1.25 30 32.5  3.75 28.75 31.25  5 28.75 31.25  5 30 31.25  5 30 32.5  3.75 30 31.25  3.75 30 32.5  6.25 28.75 31.25  7.5 28.75 31.25  7.5 30 31.25  7.5 30 32.5  7.5 27.5 31.25  7.5 27.5 32.5  7.5 28.75 32.5  6.25 30 31.25  6.25 30 32.5  8.75 28.75 31.25  10 28.75 31.25  10 30 31.25  10 30 32.5  10 27.5 31.25  10 27.5 32.5  10 28.75 32.5  8.75 30 31.25  8.75 30 32.5  1.25 31.25 31.25  2.5 31.25 31.25  2.5 32.5 31.25  2.5 32.5 32.5  2.5 31.25 32.5  1.25 32.5 31.25  0 31.25 31.25  3.75 31.25 31.25  5 31.25 31.25  5 32.5 31.25  5 32.5 32.5  5 31.25 32.5  3.75 31.25 32.5  3.75 32.5 31.25  3.75 32.5 32.5  6.25 31.25 31.25  7.5 31.25 31.25  7.5 32.5 31.25  7.5 32.5 32.5  7.5 31.25 32.5  6.25 31.25 32.5  6.25 32.5 31.25  6.25 32.5 32.5  8.75 31.25 31.25  10 31.25 31.25  10 32.5 31.25  10 32.5 32.5  10 31.25 32.5  8.75 31.25 32.5  8.75 32.5 31.25  8.75 32.5 32.5  1.25 33.75 31.25  2.5 33.75 31.25  2.5 35 31.25  1.25 35 31.25  3.75 33.75 31.25  5 33.75 31.25  5 35 31.25  3.75 35 31.25  6.25 33.75 31.25  7.5 33.75 31.25  6.25 35 31.25  8.75 33.75 31.25  10 33.75 31.25  8.75 35 31.25  1.25 36.25 31.25  2.5 36.25 31.25  3.75 36.25 31.25  5 36.25 31.25  6.25 36.25 31.25  7.5 36.25 31.25  8.75 36.25 31.25  8.75 27.5 25  10 27.5 25  10 28.75 26.25  10 28.75 25  10 27.5 26.25  11.25 28.75 26.25  11.25 28.75 25  11.25 27.5 25  12.5 27.5 25  12.5 28.75 26.25  12.5 28.75 25  12.5 30 25  12.5 30 26.25  12.5 30 27.5  11.25 27.5 26.25  12.5 27.5 26.25  12.5 27.5 27.5  12.5 28.75 27.5  11.25 28.75 27.5  11.25 27.5 27.5  11.25 30 26.25  11.25 30 25  11.25 30 27.5  13.75 28.75 26.25  13.75 28.75 25  13.75 27.5 25  15 27.5 25  15 28.75 26.25  15 28.75 25  15 30 25  15 30 26.25  15 30 27.5  13.75 27.5 26.25  15 27.5 26.25  15 27.5 27.5  15 28.75 27.5  13.75 28.75 27.5  13.75 27.5 27.5  13.75 30 26.25  13.75 30 25  13.75 30 27.5  16.25 28.75 26.25  16.25 28.75 25  16.25 27.5 25  17.5 27.5 25  17.5 28.75 26.25  17.5 28.75 25  17.5 30 25  17.5 30 26.25  17.5 30 27.5  16.25 27.5 26.25  17.5 27.5 26.25  17.5 27.5 27.5  17.5 28.75 27.5  16.25 28.75 27.5  16.25 27.5 27.5  16.25 30 26.25  16.25 30 25  16.25 30 27.5  18.75 28.75 26.25  18.75 27.5 26.25  18.75 27.5 25  20 27.5 25  20 28.75 26.25  20 27.5 26.25  20 27.5 27.5  20 28.75 27.5  20 30 27.5  18.75 28.75 27.5  18.75 27.5 27.5  18.75 30 27.5  18.75 30 26.25  21.25 28.75 26.25  21.25 27.5 26.25  21.25 28.75 27.5  21.25 27.5 27.5  22.5 27.5 27.5  22.5 28.75 27.5  22.5 30 27.5  21.25 30 27.5  11.25 31.25 26.25  11.25 31.25 25  12.5 31.25 26.25  12.5 31.25 25  12.5 32.5 25  12.5 32.5 26.25  12.5 32.5 27.5  12.5 31.25 27.5  11.25 31.25 27.5  11.25 32.5 26.25  11.25 32.5 25  11.25 32.5 27.5  13.75 31.25 26.25  15 31.25 26.25  15 31.25 27.5  15 32.5 27.5  13.75 31.25 27.5  13.75 32.5 27.5  13.75 32.5 26.25  16.25 31.25 26.25  17.5 31.25 26.25  17.5 31.25 27.5  17.5 32.5 27.5  16.25 31.25 27.5  16.25 32.5 27.5  18.75 31.25 26.25  18.75 31.25 27.5  20 31.25 27.5  20 32.5 27.5  18.75 32.5 27.5  11.25 33.75 26.25  12.5 33.75 26.25  12.5 33.75 27.5  12.5 35 27.5  11.25 33.75 27.5  11.25 35 27.5  11.25 35 26.25  13.75 33.75 26.25  13.75 33.75 27.5  15 33.75 27.5  15 35 27.5  13.75 35 27.5  11.25 36.25 26.25  11.25 36.25 27.5  12.5 36.25 27.5  12.5 37.5 27.5  11.25 37.5 27.5  11.25 28.75 28.75  12.5 28.75 28.75  12.5 30 28.75  12.5 30 30  11.25 27.5 28.75  12.5 27.5 28.75  12.5 27.5 30  12.5 28.75 30  11.25 28.75 30  11.25 27.5 30  11.25 30 28.75  11.25 30 30  13.75 28.75 28.75  15 28.75 28.75  15 30 28.75  15 30 30  13.75 27.5 28.75  15 27.5 28.75  15 27.5 30  15 28.75 30  13.75 28.75 30  13.75 27.5 30  13.75 30 28.75  13.75 30 30  16.25 28.75 28.75  17.5 28.75 28.75  16.25 27.5 28.75  16.25 30 28.75  18.75 28.75 28.75  18.75 30 28.75  21.25 28.75 28.75  11.25 31.25 28.75  12.5 31.25 28.75  12.5 32.5 28.75  12.5 32.5 30  12.5 31.25 30  11.25 31.25 30  11.25 32.5 28.75  11.25 32.5 30  13.75 31.25 28.75  15 31.25 28.75  15 32.5 28.75  15 32.5 30  15 31.25 30  13.75 31.25 30  13.75 32.5 28.75  13.75 32.5 30  16.25 31.25 28.75  17.5 31.25 28.7
[...]
<PointData  Vectors="u"> 
<DataArray  type="Float64"  Name="u"  NumberOfComponents="3" format="ascii">2.0000000000059353e+02 -5.8052004372021549e-11 -6.4795096870669231e-11  1.9999999999897889e+02 -5.1093829563791747e-11 -1.0421719592184191e-10  1.9999999999895988e+02 -2.1838085783268330e-10 -2.6927626605285671e-10  1.9999999999898165e+02 -6.9311056561796289e-11 -1.2149470774997188e-10  1.9999999999831547e+02 -1.9610997967855104e-11 -2.3186599686802221e-11  1.9999999999797046e+02 -3.2134748278367328e-11 -1.8066647742813983e-10  1.9999999999812417e+02 -4.3117207940017404e-11 -5.9300099990649768e-11  1.9999999999823797e+02 2.7231402435912212e-11 -5.8679271435386138e-11  1.9999999999823225e+02 -1.1166489672315548e-10 -3.2494020696850749e-11  1.9999999999823078e+02 4.4466619868540473e-11 1.2331916153284289e-10  1.9999999999894570e+02 9.0801720349400971e-11 -7.8609764563903997e-11  1.9999999999811692e+02 2.4272861269459963e-11 -4.7962868327363445e-11  1.9999999999826167e+02 -1.6013114862221954e-10 1.6289966491959555e-10  1.9999999999825974e+02 2.5910004622832565e-12 2.6967793706340008e-11  2.0000000000001617e+02 2.5019093781037710e-11 -1.3276934233658915e-11  2.0000000000052364e+02 -1.5477315498831196e-10 1.3353218537939491e-10  1.9999999999909258e+02 -5.6906465371283128e-11 -1.4195147180308142e-10  1.9999999999898859e+02 3.1640489036329325e-11 4.1511656271013932e-12  2.0000000000006079e+02 -4.7037742316857300e-11 -1.2349214170589794e-11  2.0000000000060615e+02 5.0870105977807950e-11 -9.5391953890346401e-11  1.9999999999905899e+02 -7.2478083149786902e-11 -1.3629958502997462e-10  1.9999999999902965e+02 -9.0563020390980094e-11 2.1495011024650582e-11  1.9999999999972991e+02 -4.5367815187022796e-11 8.7901963230558644e-12  1.9999999999993136e+02 -3.7105601840037657e-11 -7.2356287198133982e-11  2.0000000000054445e+02 9.9216636330157656e-11 1.3560796173875781e-10  1.9999999999902323e+02 -4.9318113886523681e-11 -3.6889751734657695e-11  2.0000000000002609e+02 -1.0083942868502680e-10 -3.1594831836470375e-11  1.9999999999719162e+02 -1.0880006009735569e-10 -1.2032148812470599e-10  1.9999999999702669e+02 -2.6491949333293186e-10 -1.7554346364800591e-10  1.9999999999723488e+02 -2.6886468768424333e-11 -8.6792738085322293e-12  1.9999999999646613e+02 -1.6812322298877969e-11 -5.2193566884776756e-12  1.9999999999614744e+02 -3.1461501362619806e-11 -9.8913119931931478e-11  1.9999999999627596e+02 -5.0703375379750664e-11 -7.9122765601726456e-11  1.9999999999648062e+02 3.4882290759461601e-11 -4.9843655168758231e-11  1.9999999999634716e+02 -7.6182860897391676e-11 -2.2395877259821430e-11  1.9999999999647417e+02 -1.9165873573301498e-11 9.4750043219994385e-11  1.9999999999713688e+02 8.7227419589879761e-12 -9.6700284250286366e-11  1.9999999999626624e+02 9.4158966638373845e-11 -3.7544772492694876e-11  1.9999999999642964e+02 -1.2789021711577527e-10 9.7037466785149853e-11  1.9999999999633869e+02 -2.1900100274094970e-12 -1.2555492710253418e-11  1.9999999999716746e+02 7.3284296783582536e-11 -1.5836801639823291e-10  1.9999999999727277e+02 5.4900665251304380e-11 -1.0035051533781940e-10  1.9999999999715789e+02 -1.9767983384268116e-10 -1.1502347128114264e-10  1.9999999999725097e+02 -1.6790589997544499e-10 2.1908517320441603e-11  1.9999999999721959e+02 6.5476594700749962e-12 -1.1716904560286139e-10  1.9999999999532844e+02 -9.6056065521607776e-11 -1.2430020316044716e-10  1.9999999999520119e+02 -2.5566653095370699e-10 -6.0310649382165136e-11  1.9999999999537380e+02 2.1347740936550853e-11 -1.7607733349893322e-12  1.9999999999467812e+02 -1.6610754273455639e-11 -3.1336345105298685e-11  1.9999999999432680e+02 -2.6678974090513645e-11 -1.2154238451715627e-10  1.9999999999444512e+02 -3.5738412833898655e-11 -4.2134200582876452e-11  1.9999999999466178e+02 6.6262825450106086e-11 -6.2344012971203553e-11  1.9999999999449722e+02 -3.0214037172695959e-11 -3.7424831810785610e-11  1.9999999999465382e+02 1.9320914573545389e-12 9.2014763190702849e-11  1.9999999999528154e+02 5.1522659460502346e-11 -8.7840372251364496e-11  1.9999999999443625e+02 9.6835250720051298e-11 1.3214462867388512e-11  1.9999999999464342e+02 -9.9881832940352019e-11 8.4615808382473708e-11  1.9999999999456853e+02 -4.7857234407829481e-11 1.3186887128002715e-11  1.9999999999529666e+02 5.3954602275338285e-11 -2.0168437903747291e-10  1.9999999999542132e+02 7.9252254228203395e-11 -1.0546024726880888e-10  1.9999999999529840e+02 -2.4601986372129862e-10 -1.3052419527158475e-10  1.9999999999537746e+02 -1.4602721221008049e-10 6.5559047285173117e-11  1.9999999999536888e+02 3.3193784113017672e-11 -1.3378594007565088e-10  1.9999999999355137e+02 -1.5487035148378770e-10 -5.5458973803333180e-11  1.9999999999336444e+02 -1.9452223001022524e-10 -1.5896289651381728e-11  1.9999999999346593e+02 -3.8113031826346410e-11 -1.3618151227225361e-10  1.9999999999356271e+02 -2.6392338288749369e-11 -1.5619265688610939e-10  1.9999999999281158e+02 -1.2732604462324200e-10 7.9600103587098874e-11  1.9999999999262454e+02 5.2701929764796381e-11 3.6499674918564892e-11  1.9999999999287735e+02 4.8093786498321021e-11 7.3436247465339364e-11  1.9999999999351579e+02 -8.0873220507669937e-11 1.3603645325387764e-10  1.9999999999352190e+02 -2.6286690512385723e-10 -6.9378849527538219e-13  1.9999999999357294e+02 -9.4941605079416809e-11 1.0602531286019731e-10  1.9999999999288940e+02 7.3869022133449594e-11 -7.2773699265605453e-11  1.9999999999264446e+02 1.0167800905701075e-10 1.6517058905187007e-11  1.9999999999363942e+02 5.3271842478996173e-11 -1.1739471302584244e-10  1.9999999999902914e+02 -1.1662608452812898e-10 -3.0637837493124694e-11  1.9999999999917750e+02 -2.7308901989036513e-10 -1.2007368766913951e-10  1.9999999999817240e+02 -2.4439556717075488e-10 -2.1275994523240475e-10  1.9999999999819144e+02 -2.9277513287680796e-11 -5.3457090689315999e-11  1.9999999999821205e+02 8.9398168917658144e-11 -3.4853865710172790e-11  1.9999999999819804e+02 -9.9003458674681491e-11 -6.8398776091850027e-11  1.9999999999817868e+02 1.2045442381873319e-10 1.2066119115883188e-10  1.9999999999823353e+02 -1.0144063485062231e-10 -8.8988043509885008e-11  1.9999999999908982e+02 -1.4594151209379567e-10 -1.1152456541939242e-10  2.0000000000006122e+02 -7.3550879771469175e-11 9.5088772390960629e-11  2.0000000000062104e+02 1.0706919153480873e-10 -7.7450219528435111e-11  1.9999999999908491e+02 -1.9733611874227273e-10 -1.3909339438231535e-10  1.9999999999907007e+02 -7.8854191941903158e-11 4.2160139761764897e-11  1.9999999999964794e+02 -1.2785971937497696e-10 6.9293502559143918e-12  2.0000000000003701e+02 -1.2636301397985085e-10 -1.2030503336468591e-10  2.0000000000058077e+02 1.2141718560734956e-10 1.1995583842296909e-10  1.9999999999902226e+02 -9.9503115008956324e-11 6.5691018145802333e-11  1.9999999999998840e+02 -5.1034521593232128e-11 6.3951970922839938e-12  1.9999999999717264e+02 -1.0002277228849032e-10 -1.1233875080210101e-10  1.9999999999704826e+02 -2.4744009887294362e-10 -7.7470327040064267e-11  1.9999999999615119e+02 -1.4970608088693025e-10 -1.3442353738490250e-10  1.9999999999627897e+02 -1.4279279016569193e-10 8.4232120286837478e-11  1.9999999999646460e+02 1.0045323297131190e-10 1.2247043717127465e-11  1.9999999999632468e+02 -3.5018193450063837e-11 -1.5464181701230930e-11  1.9999999999643515e+02 8.3869975844728327e-11 1.0328958151364601e-10  1.9999999999633286e+02 -1.5827807001052205e-11 -2.2665810526459947e-11  1.9999999999717605e+02 -1.2833123137591311e-10 -1.9749479722433219e-10  1.9999999999717161e+02 -2.0440595181533383e-10 -9.3450506393403512e-11  1.9999999999717969e+02 -1.5487520770593816e-10 6.1242819783509915e-11  1.9999999999728155e+02 -2.5630947515186232e-11 -4.3539995141000124e-11  1.9999999999535063e+02 -1.3719093913710803e-10 -1.2934684919691433e-10  1.9999999999521938e+02 -2.9147388088945226e-10 -3.3875959643120839e-11  1.9999999999438319e+02 -1.6215013580324039e-10 -1.4055307497989932e-10  1.9999999999450239e+02 -7.0260481503352726e-11 2.7177194260786711e-11  1.9999999999467258e+02 7.8898499290929877e-11 -1.3649365712206249e-11  1.9999999999453635e+02 -3.2635018912167252e-11 -2.5143364612930846e-11  1.9999999999464217e+02 7.0569919098149161e-11 7.9760280520063248e-11  1.9999999999452359e+02 -1.7487763992369218e-11 -4.1009556733362425e-11  1.9999999999531343e+02 -1.4631049300972646e-10 -2.1542965802482870e-10  1.9999999999532290e+02 -1.7644685386305340e-10 -1.0062048966579868e-10  1.9999999999545761e+02 -1.0565396092018128e-10 8.0144665983998501e-11  1.9999999999539858e+02 -1.1139986857200456e-11 1.5602790925251486e-11  1.9999999999357632e+02 -1.0693753518135302e-10 -1.3188723183711878e-10  1.9999999999340736e+02 -2.6549841058022296e-10 -8.6124572415585645e-11  1.9999999999264170e+02 -1.7201215742172644e-10 -2.1133866551551788e-11  1.9999999999267160e+02 -5.6214125852438581e-11 4.6964736216591782e-11  1.9999999999287374e+02 7.1778084898013473e-11 -4.5351229321031157e-11  1.9999999999266626e+02 -4.2420491951172556e-11 -5.2607270145804413e-11  1.9999999999286274e+02 4.5389407053154896e-11 6.5567363594380745e-11  1.9999999999264722e+02 -3.0648794922780436e-11 7.3479732724502116e-11  1.9999999999355089e+02 -1.3909252914801385e-10 -2.2209335012738317e-10  1.9999999999353176e+02 -2.2828071275591289e-10 -1.1448910184881061e-10  1.9999999999363121e+02 -1.2315921289834482e-10 5.2703546938163882e-11  1.9999999999361916e+02 -2.9384565010780572e-11 -1.8088913304179760e-12  1.9999999999900106e+02 -7.9423123814651368e-11 -3.6174934976695196e-11  1.9999999999910145e+02 -2.1851283006642661e-10 -1.1963194522352360e-10  1.9999999999815245e+02 -2.6359255500256258e-10 -2.1089808576806598e-10  1.9999999999816387e+02 -8.7879487010309093e-11 -4.7780109475235289e-11  1.9999999999818516e+02 1.5315704987680298e-10 -1.4527469742963803e-11  1.9999999999815739e+02 -8.0384267592435362e-11 -3.8665282945507162e-11  1.9999999999817078e+02 1.0871438150652579e-10 1.1388216919260960e-10  1.9999999999825596e+02 -1.7295190162315338e-11 -2.8191895371053910e-11  1.9999999999907743e+02 -1.8030336684504064e-10 -1.0632456910628416e-10  2.0000000000006537e+02 -1.0874227371722627e-11 1.2318269298183597e-10  2.0000000000061777e+02 8.2900012416282495e-11 -6.1624355041936186e-11  1.9999999999907081e+02 -1.8768399553294772e-10 -1.4555935131249462e-10  1.9999999999896690e+02 -6.1801371000856977e-11 1.2375472116864358e-11  1.9999999999958567e+02 -7.0258421875460791e-11 -1.1518723106827725e-11  2.0000000000002834e+02 -1.2190599751300204e-10 -1.3765203795852122e-10  2.0000000000055357e+02 9.1619741065987043e-11 7.7541128362454547e-11  1.9999999999905205e+02 -1.0409873061991895e-10 -3.5790316696482696e-12  2.0000000000003385e+02 -1.7626298067809719e-10 -3.7197319288743414e-11  1.9999999999718793e+02 -9.4564353760824139e-11 -7.3663981137449163e-11  1.9999999999706256e+02 -2.3381595362796751e-10 -7.2271752829604552e-11  1.9999999999616540e+02 -1.2388128502655938e-10 -9.8500971161680135e-11  1.9999999999627246e+02 -7.8072679316424305e-11 9.2997639067756835e-11  1.9999999999646144e+02 1.0763903508318305e-10 1.5360367142162308e-11  1.9999999999636799e+02 -5.4827679066914101e-11 -1.8534146918546620e-11  1.9999999999648094e+02 7.9229771507793535e-11 1.0523511766742713e-10  1.9999999999635912e+02 -3.0601740862112210e-11 -8.9671620635379440e-12  1.9999999999716388e+02 -1.7601830494096880e-10 -2.1856460051003787e-10  1.9999999999717141e+02 -1.8644133735543687e-10 -1.3171890062692129e-10  1.9999999999720899e+02 -9.2744430543840343e-11 1.0425139747224704e-10  1.9999999999724344e+02 9.5313941578456839e-12 -3.4920813686739489e-11  1.9999999999531937e+02 -1.1747534342502825e-10 -9.8554703527989003e-11  1.9999999999523851e+02 -2.2312266251719804e-10 -9.3706629769186933e-11  1.9999999999436972e+02 -1.5970173877006584e-10 -1.0752941942915820e-10  1.9999999999448556e+02 -1.0756381081547907e-10 3.6135257016254118e-11  1.9999999999461556e+02 6.6764749409990835e-11 -5.9541088470529410e-12  1.9999999999458279e+02 -1.9028820727062550e-11 6.9200474140844361e-12  1.9999999999462707e+02 1.1192942454491006e-10 1.0703384169978077e-10  1.9999999999451174e+02 -4.5872881192758972e-11 -6.1953816500599633e-12  1.9999999999530326e+02 -8.4523974353616470e-11 -1.5921268112691825e-10  1.9999999999525446e+02 -1.5170145010363237e-10 -9.3736703266420200e-11  1.9999999999540020e+02 -7.9849268227779308e-11 9.2573088702345819e-11  1.9999999999542086e+02 -2.1671000085409103e-11 3.8416707270178792e-11  1.9999999999356839e+02 -1.0627849901388932e-10 -1.2014860323141266e-10  1.9999999999345619e+02 -2.7306506914051284e-10 -3.8770681780936187e-11  1.9999999999262815e+02 -1.3672364265413662e-10 -1.2087896085693724e-10  1.9999999999269099e+02 -8.2598525710573064e-11 4.9459476763863049e-11  1.9999999999283887e+02 6.9295870465959217e-11 -2.5431459084268700e-11  1.9999999999267877e+02 -1.0959236099430619e-11 1.1286500619204859e-11  1.9999999999285629e+02 1.1363521905908394e-10 4.4461902740728077e-11  1.9999999999266205e+02 -6.3301567043094879e-11 -2.6482225675916301e-11  1.9999999999354236e+02 -1.3150984962062703e-10 -2.0000297148179781e-10  1.9999999999354750e+02 -2.2795526887918172e-10 -7.4238715037196989e-11  1.9999999999371090e+02 -9.5895042650847814e-11 8.2146571963004031e-11  1.9999999999359906e+02 -4.0472435175526385e-12 -4.2214850588556264e-12  1.9999999999905489e+02 -1.3941154311532051e-10 2.3093801934864440e-11  1.9999999999815657e+02 -2.5698152503674729e-10 -8.8149881242862079e-11  1.9999999999826949e+02 -7.4984524128346672e-11 -7.1267530428354704e-11  1.9999999999822452e+02 1.4820855152432430e-10 4.3215364540861704e-11  1.9999999999906132e+02 -1.7548332710257607e-10 -1.1192416793185370e-10  1.9999999999967289e+02 -4.8719738024028962e-11 -5.5531796522752696e-11  2.0000000000003558e+02 -8.5551082859273743e-11 -6.1340880410443746e-11  2.0000000000056315e+02 1.3048654820317857e-10 5.7623344517094520e-11  1.9999999999899984e+02 -8.7479275351895848e-11 4.4846412086615441e-11  1.9999999999717207e+02 -7.8933588957855500e-11 -1.6078275850863689e-11  1.9999999999603864e+02 -1.2146067072721072e-10 -2.2523964964540122e-11  1.9999999999635511e+02 -1.2952006499982386e-11 -2.4213935023692527e-11  1.9999999999644669e+02 8.0844775959682680e-11 5.4826070165806279e-11  1.9999999999718176e+02 -1.1956962238910874e-10 -2.6199654014279988e-10  1.9999999999722931e+02 -1.3653925764762230e-10 6.5169846054175581e-11  1.9999999999534404e+02 -8.9512052866898211e-11 -2.8874856176005447e-11  1.9999999999427288e+02 -1.0579869298381337e-10 -2.0232452168370521e-11  1.9999999999452533e+02 -4.9886497216515678e-11 -4.2466320927258886e-11  1.9999999999462088e+02 9.4059367245286516e-11 3.6499039070492924e-11  1.9999999999531420e+02 -1.2374886813018179e-10 -2.1376959936913784e-10  1.9999999999539207e+02 -1.5670610934640901e-10 4.5623900942866095e-11  1.9999999999353784e+02 -7.5906807280905183e-11 -4.2975286211292084e-11  1.9999999999257747e+02 -1.4322829895421887e-10 -1.5793654153750051e-11  1.9999999999268786e+02 -3.3761176175328209e-11 -3.4673117843913608e-11  1.9999999999284591e+02 7.5466416560483467e-11 3.7052155615777692e-12  1.9999999999351201e+02 -1.7335659094010110e-10 -1.7436861175569700e-10  1.9999999999358994e+02 -8.2031769539727020e-11 1.8483688204608860e-11  1.9999999999907638e+02 -7.7870345393839428e-11 -1.0251013615845860e-10  1.9999999999815077e+02 1.1581223815255599e-10 -2.8091288749678656e-10  1.9999999999818385e+02 1.3154837170803832e-11 -4.5111569344912654e-11  1.9999999999818553e+02 7.0398593811189728e-12 1.5398979642971047e-10  1.9999999999909176e+02 1.4164925863830240e-11 -1.5362530483146900e-10  1.9999999999820668e+02 4.9125319216599823e-11 -4.4314559822514863e-11  1.9999999999822265e+02 -1.8690374090747499e-10 1.0503937476861375e-10  1.9999999999820258e+02 -2.6310085327532737e-11 -7.1107350766150926e-11  2.0000000000006943e+02 5.1015659681492080e-11 -9.8008955094439085e-11  2.0000000000056423e+02 -1.8227161673224030e-10 1.3913758391885751e-10  1.9999999999911984e+02 -2.8792594694603219e-11 -2.1534775589640729e-10  1.9999999999903116e+02 3.1096619484554206e-12 -5.7280467787285588e-11  1.9999999999901223e+02 -1.3456031682075417e-10 -1.5046758699822351e-10  1.9999999999962395e+02 -2.4260197810731088e-11 -5.5795995516599352e-11  1.9999999999995609e+02 -2.6861632798966283e-11 -1.0403858148284278e-10  2.0000000000057159e+02 1.0015435616700300e-10 1.1590287931574130e-10  1.9999999999902698e+02 1.4053845890138393e-11 -8.2366791392731679e-11  2.0000000000001245e+02 -1.1542013180322050e-10 -9.0308559578753070e-11  1.9999999999715607e+02 -6.6902285893617915e-11 -1.2747217501040781e-10  1.9999999999617202e+02 6.8857260490434510e-11 -1.7126422979663856e-10  1.9999999999626803e+02 9.7472933447380538e-12 -6.3111770283704264e-11  1.9999999999649307e+02 -1.1636724558560932e-11 1.2952618673433990e-10  1.9999999999711872e+02 6.4071186065376392e-11 -1.6102133117230415e-10  1.9999999999626809e+02 4.3905793455450817e-11 -7.3007697869971580e-11  1.9999999999643444e+02 -1.9315501848024210e-10 1.2478857720609672e-10  1.9999999999637063e+02 5.2469081556243555e-11 -4.6884339511399465e-12  1.9999999999714422e+02 6.7737040606982549e-11 -1.4018145728220459e-10  1.9999999999720964e+02 2.5934437483205513e-11 -9.5574688818315037e-11  1.9999999999708299e+02 -1.0165032996415957e-11 -2.8554281895543268e-10  1.9999999999723229e+02 -2.4849860797224053e-12 -9.6241612526560142e-11  1.9999999999535478e+02 -1.3000448369484238e-11 -9.1061844040290984e-11  1.9999999999435795e+02 6.9846942310684310e-11 -1.6181034260810267e-10  1.9999999999446439e+02 -3.3442124853156599e-11 -5.9713829502499000e-11  1.9999999999468719e+02 -2.8000172325587077e-11 1.2586561822919928e-10  1.9999999999529257e+02 4.0024853532316920e-11 -1.6155280667423761e-10  1.9999999999446482e+02 6.8391797495814301e-11 -6.4279399587448761e-11  1.9999999999463725e+02 -1.4479454035679728e-10 1.0544613504466070e-10  1.9999999999451475e+02 3.6424549867507675e-11 -2.1690603989550022e-12  1.9999999999529192e+02 7.5873490703241069e-11 -1.7494760643635403e-10  1.9999999999541052e+02 8.8841969396322827e-11 -7.1595959987871191e-11  1.9999999999521327e+02 -8.4173654196320146e-11 -2.4382092218972917e-10  1.9999999999535044e+02 -3.5357107852488913e-11 -8.4082352940612675e-11  1.9999999999351743e+02 -8.5084522555197098e-12 -1.1722393673847325e-10  1.9999999999253373e+02 6.4166536872312526e-12 -1.5121944782144868e-10  1.9999999999266024e+02 -6.2550631665028735e-11 -1.1190621297050462e-10  1.9999999999289045e+02 2.8077444519175084e-11 9.2978959596807553e-11  1.9999999999342407e+02 -2.3103083954056411e-11 -1.3626304672901792e-10  1.9999999999264423e+02 8.9330290955286361e-11 -7.5107445485352042e-11  1.9999999999283912e+02 -1.1707230649268913e-10 8.1140391801765155e-11  1.9999999999264793e+02 -2.5080129012335848e-12 -4.8078593833974335e-12  1.9999999999346338e+02 8.8773356682900222e-11 -2.1616437479463249e-10  1.9999999999352215e+02 2.3127246815703105e-11 -1.0240112925580651e-10  1.9999999999340847e+02 2.0545662928407806e-11 -2.6278146395685577e-10  1.9999999999350402e+02 -2.9209605957468861e-12 -8.8234028598598789e-11  1.9999999999894712e+02 -8.2944217064622088e-11 -9.4504639061433430e-11  1.9999999999815941e+02 -2.1279261455738505e-10 -2.5470794438905545e-10  1.9999999999815947e+02 -7.7187226463520151e-11 -3.4832790934365312e-11  1.9999999999818922e+02 1.1990815115513333e-10 1.2134646287733331e-10  1.9999999999815603e+02 -1.8791544296577611e-11 -1.0170417061538534e-10  1.9999999999902803e+02 -1.6704172621350180e-10 -1.9710374252300298e-10  1.9999999999900911e+02 -1.9707409834833033e-10 -1.6592878141164375e-10  1.9999999999959473e+02 -9.7261413425828524e-11 -1.8040846075595639e-11  2.0000000000002146e+02 -5.4353970556740505e-11 -9.9061617650403961e-11  2.0000000000056076e+02 6.2438405666781616e-11 6.9426068968782577e-11  1.9999999999900550e+02 -1.2367777465351558e-11 -1.3566024061278094e-11  2.0000000000005753e+02 -7.9653159657293197e-11 -3.5044901901794360e-11  1.9999999999716874e+02 -1.1101779779403054e-10 -9.2506884858804784e-11  1.9999999999619774e+02 -8.9834209039360880e-11