<?xml version="1.0"?>
<VTKFile type="UnstructuredGrid"  version="0.1"  >
<UnstructuredGrid>
<Piece  NumberOfPoints="3871" NumberOfCells="18975">
<Points>
<DataArray  type="Float64"  NumberOfComponents="3"  format="ascii">10 40 0  10 41.25 1.25  10 41.25 0  8.75 41.25 1.25  8.75 41.25 0  10 42.5 0  10 42.5 1.25  10 42.5 2.5  10 40 1.25  10 40 2.5  10 41.25 2.5  8.75 41.25 2.5  7.5 42.5 0  8.75 42.5 1.25  8.75 42.5 0  7.5 42.5 2.5  8.75 42.5 2.5  7.5 42.5 1.25  11.25 41.25 1.25  11.25 41.25 0  11.25 42.5 1.25  11.25 42.5 0  12.5 42.5 0  12.5 42.5 1.25  12.5 42.5 2.5  11.25 41.25 2.5  11.25 42.5 2.5  7.5 43.75 1.25  7.5 43.75 0  6.25 43.75 1.25  6.25 43.75 0  7.5 45 0  7.5 45 1.25  7.5 45 2.5  7.5 43.75 2.5  6.25 45 1.25  6.25 45 0  8.75 43.75 1.25  8.75 43.75 0  10 43.75 1.25  10 43.75 0  10 45 0  10 45 1.25  10 45 2.5  10 43.75 2.5  8.75 43.75 2.5  8.75 45 1.25  8.75 45 0  8.75 45 2.5  11.25 43.75 1.25  11.25 43.75 0  12.5 43.75 1.25  12.5 43.75 0  12.5 45 0  12.5 45 1.25  12.5 45 2.5  12.5 43.75 2.5  11.25 43.75 2.5  11.25 45 1.25  11.25 45 0  11.25 45 2.5  13.75 43.75 1.25  13.75 43.75 0  13.75 45 1.25  13.75 45 0  15 45 0  15 45 1.25  15 45 2.5  13.75 43.75 2.5  13.75 45 2.5  7.5 46.25 1.25  7.5 46.25 0  6.25 46.25 1.25  6.25 46.25 0  7.5 47.5 0  7.5 47.5 1.25  7.5 47.5 2.5  7.5 46.25 2.5  6.25 46.25 2.5  5 47.5 0  6.25 47.5 1.25  6.25 47.5 0  6.25 47.5 2.5  8.75 46.25 1.25  8.75 46.25 0  10 46.25 1.25  10 46.25 0  10 47.5 0  10 47.5 1.25  10 47.5 2.5  10 46.25 2.5  8.75 46.25 2.5  8.75 47.5 1.25  8.75 47.5 0  8.75 47.5 2.5  11.25 46.25 1.25  11.25 46.25 0  12.5 46.25 1.25  12.5 46.25 0  12.5 47.5 0  12.5 47.5 1.25  12.5 47.5 2.5  12.5 46.25 2.5  11.25 46.25 2.5  11.25 47.5 1.25  11.25 47.5 0  11.25 47.5 2.5  13.75 46.25 1.25  13.75 46.25 0  15 46.25 1.25  15 46.25 0  15 47.5 0  15 47.5 1.25  15 47.5 2.5  15 46.25 2.5  13.75 46.25 2.5  13.75 47.5 1.25  13.75 47.5 0  13.75 47.5 2.5  6.25 48.75 1.25  6.25 48.75 0  7.5 48.75 1.25  7.5 48.75 0  7.5 50 0  7.5 50 1.25  7.5 50 2.5  7.5 48.75 2.5  6.25 48.75 2.5  5 50 0  6.25 50 1.25  6.25 50 0  5 50 2.5  6.25 50 2.5  5 50 1.25  8.75 48.75 1.25  8.75 48.75 0  10 48.75 1.25  10 48.75 0  10 50 0  10 50 1.25  10 50 2.5  10 48.75 2.5  8.75 48.75 2.5  8.75 50 1.25  8.75 50 0  8.75 50 2.5  11.25 48.75 1.25  11.25 48.75 0  12.5 48.75 1.25  12.5 48.75 0  12.5 50 0  12.5 50 1.25  12.5 50 2.5  12.5 48.75 2.5  11.25 48.75 2.5  11.25 50 1.25  11.25 50 0  11.25 50 2.5  13.75 48.75 1.25  13.75 48.75 0  15 48.75 1.25  15 48.75 0  15 50 0  15 50 1.25  15 50 2.5  15 48.75 2.5  13.75 48.75 2.5  13.75 50 1.25  13.75 50 0  13.75 50 2.5  10 40 5  11.25 40 5  11.25 38.75 5  11.25 38.75 3.75  12.5 40 5  11.25 40 3.75  10 40 3.75  10 41.25 3.75  8.75 41.25 3.75  10 42.5 3.75  10 42.5 5  10 41.25 5  8.75 42.5 3.75  11.25 41.25 3.75  11.25 41.25 5  12.5 41.25 5  12.5 42.5 5  11.25 42.5 3.75  12.5 42.5 3.75  11.25 42.5 5  8.75 43.75 3.75  10 43.75 3.75  10 45 3.75  10 45 5  10 43.75 5  8.75 43.75 5  8.75 45 3.75  7.5 45 5  8.75 45 5  7.5 45 3.75  11.25 43.75 3.75  12.5 43.75 3.75  12.5 45 3.75  12.5 45 5  12.5 43.75 5  11.25 43.75 5  11.25 45 3.75  11.25 45 5  13.75 43.75 3.75  13.75 45 3.75  15 45 3.75  15 45 5  13.75 43.75 5  13.75 45 5  7.5 46.25 3.75  6.25 46.25 3.75  7.5 47.5 3.75  7.5 47.5 5  7.5 46.25 5  6.25 46.25 5  6.25 47.5 3.75  6.25 47.5 5  8.75 46.25 3.75  10 46.25 3.75  10 47.5 3.75  10 47.5 5  10 46.25 5  8.75 46.25 5  8.75 47.5 3.75  8.75 47.5 5  11.25 46.25 3.75  12.5 46.25 3.75  12.5 47.5 3.75  12.5 47.5 5  12.5 46.25 5  11.25 46.25 5  11.25 47.5 3.75  11.25 47.5 5  13.75 46.25 3.75  15 46.25 3.75  15 47.5 3.75  15 47.5 5  15 46.25 5  13.75 46.25 5  13.75 47.5 3.75  13.75 47.5 5  7.5 48.75 3.75  6.25 48.75 3.75  7.5 50 3.75  7.5 50 5  7.5 48.75 5  6.25 48.75 5  6.25 50 3.75  5 50 5  6.25 50 5  5 50 3.75  8.75 48.75 3.75  10 48.75 3.75  10 50 3.75  10 50 5  10 48.75 5  8.75 48.75 5  8.75 50 3.75  8.75 50 5  11.25 48.75 3.75  12.5 48.75 3.75  12.5 50 3.75  12.5 50 5  12.5 48.75 5  11.25 48.75 5  11.25 50 3.75  11.25 50 5  13.75 48.75 3.75  15 48.75 3.75  15 50 3.75  15 50 5  15 48.75 5  13.75 48.75 5  13.75 50 3.75  13.75 50 5  11.25 40 6.25  11.25 38.75 6.25  12.5 40 6.25  12.5 40 7.5  11.25 41.25 6.25  12.5 41.25 6.25  12.5 42.5 6.25  12.5 42.5 7.5  12.5 41.25 7.5  11.25 41.25 7.5  11.25 42.5 6.25  10 42.5 7.5  11.25 42.5 7.5  10 42.5 6.25  10 43.75 6.25  8.75 43.75 6.25  10 45 6.25  10 45 7.5  10 43.75 7.5  8.75 43.75 7.5  8.75 45 6.25  7.5 45 7.5  8.75 45 7.5  7.5 45 6.25  11.25 43.75 6.25  12.5 43.75 6.25  12.5 45 6.25  12.5 45 7.5  12.5 43.75 7.5  11.25 43.75 7.5  11.25 45 6.25  11.25 45 7.5  13.75 43.75 6.25  13.75 45 6.25  15 45 6.25  15 45 7.5  13.75 43.75 7.5  13.75 45 7.5  7.5 46.25 6.25  6.25 46.25 6.25  7.5 47.5 6.25  7.5 47.5 7.5  7.5 46.25 7.5  6.25 46.25 7.5  6.25 47.5 6.25  6.25 47.5 7.5  8.75 46.25 6.25  10 46.25 6.25  10 47.5 6.25  10 47.5 7.5  10 46.25 7.5  8.75 46.25 7.5  8.75 47.5 6.25  8.75 47.5 7.5  11.25 46.25 6.25  12.5 46.25 6.25  12.5 47.5 6.25  12.5 47.5 7.5  12.5 46.25 7.5  11.25 46.25 7.5  11.25 47.5 6.25  11.25 47.5 7.5  13.75 46.25 6.25  15 46.25 6.25  15 47.5 6.25  15 47.5 7.5  15 46.25 7.5  13.75 46.25 7.5  13.75 47.5 6.25  13.75 47.5 7.5  7.5 48.75 6.25  6.25 48.75 6.25  7.5 50 6.25  7.5 50 7.5  7.5 48.75 7.5  6.25 48.75 7.5  6.25 50 6.25  5 50 7.5  6.25 50 7.5  5 50 6.25  8.75 48.75 6.25  10 48.75 6.25  10 50 6.25  10 50 7.5  10 48.75 7.5  8.75 48.75 7.5  8.75 50 6.25  8.75 50 7.5  11.25 48.75 6.25  12.5 48.75 6.25  12.5 50 6.25  12.5 50 7.5  12.5 48.75 7.5  11.25 48.75 7.5  11.25 50 6.25  11.25 50 7.5  13.75 48.75 6.25  15 48.75 6.25  15 50 6.25  15 50 7.5  15 48.75 7.5  13.75 48.75 7.5  13.75 50 6.25  13.75 50 7.5  12.5 41.25 8.75  11.25 41.25 8.75  12.5 42.5 8.75  12.5 42.5 10  12.5 40 8.75  12.5 40 10  12.5 41.25 10  11.25 41.25 10  11.25 42.5 8.75  10 42.5 10  11.25 42.5 10  10 42.5 8.75  13.75 41.25 8.75  13.75 41.25 10  13.75 42.5 10  15 42.5 10  13.75 42.5 8.75  10 43.75 8.75  8.75 43.75 8.75  10 45 8.75  10 45 10  10 43.75 10  8.75 43.75 10  8.75 45 8.75  7.5 45 10  8.75 45 10  7.5 45 8.75  11.25 43.75 8.75  12.5 43.75 8.75  12.5 45 8.75  12.5 45 10  12.5 43.75 10  11.25 43.75 10  11.25 45 8.75  11.25 45 10  13.75 43.75 8.75  13.75 43.75 10  15 43.75 10  15 45 10  13.75 45 8.75  15 45 8.75  13.75 45 10  7.5 46.25 8.75  6.25 46.25 8.75  7.5 47.5 8.75  7.5 47.5 10  7.5 46.25 10  6.25 46.25 10  6.25 47.5 8.75  5 47.5 10  6.25 47.5 10  8.75 46.25 8.75  10 46.25 8.75  10 47.5 8.75  10 47.5 10  10 46.25 10  8.75 46.25 10  8.75 47.5 8.75  8.75 47.5 10  11.25 46.25 8.75  12.5 46.25 8.75  12.5 47.5 8.75  12.5 47.5 10  12.5 46.25 10  11.25 46.25 10  11.25 47.5 8.75  11.25 47.5 10  13.75 46.25 8.75  15 46.25 8.75  15 47.5 8.75  15 47.5 10  15 46.25 10  13.75 46.25 10  13.75 47.5 8.75  13.75 47.5 10  7.5 48.75 8.75  6.25 48.75 8.75  7.5 50 8.75  7.5 50 10  7.5 48.75 10  6.25 48.75 10  6.25 50 8.75  5 50 10  6.25 50 10  5 50 8.75  8.75 48.75 8.75  10 48.75 8.75  10 50 8.75  10 50 10  10 48.75 10  8.75 48.75 10  8.75 50 8.75  8.75 50 10  11.25 48.75 8.75  12.5 48.75 8.75  12.5 50 8.75  12.5 50 10  12.5 48.75 10  11.25 48.75 10  11.25 50 8.75  11.25 50 10  13.75 48.75 8.75  15 48.75 8.75  15 50 8.75  15 50 10  15 48.75 10  13.75 48.75 10  13.75 50 8.75  13.75 50 10  12.5 40 11.25  12.5 38.75 11.25  11.25 38.75 11.25  12.5 40 12.5  12.5 37.5 12.5  12.5 38.75 12.5  11.25 38.75 12.5  11.25 40 11.25  10 40 12.5  11.25 40 12.5  10 42.5 11.25  10 41.25 11.25  8.75 41.25 11.25  10 42.5 12.5  10 41.25 12.5  8.75 41.25 12.5  8.75 42.5 11.25  7.5 42.5 12.5  8.75 42.5 12.5  12.5 41.25 11.25  11.25 41.25 11.25  12.5 42.5 11.25  12.5 42.5 12.5  12.5 41.25 12.5  11.25 41.25 12.5  11.25 42.5 11.25  11.25 42.5 12.5  13.75 41.25 11.25  13.75 42.5 11.25  15 42.5 11.25  15 42.5 12.5  13.75 41.25 12.5  13.75 42.5 12.5  7.5 45 11.25  7.5 43.75 11.25  6.25 43.75 11.25  7.5 45 12.5  7.5 43.75 12.5  6.25 45 11.25  10 43.75 11.25  8.75 43.75 11.25  10 45 11.25  10 45 12.5  10 43.75 12.5  8.75 43.75 12.5  8.75 45 11.25  8.75 45 12.5  11.25 43.75 11.25  12.5 43.75 11.25  12.5 45 11.25  12.5 45 12.5  12.5 43.75 12.5  11.25 43.75 12.5  11.25 45 11.25  11.25 45 12.5  13.75 43.75 11.25  15 43.75 11.25  15 45 11.25  15 45 12.5  15 43.75 12.5  13.75 43.75 12.5  13.75 45 11.25  13.75 45 12.5  7.5 46.25 11.25  6.25 46.25 11.25  7.5 47.5 11.25  7.5 47.5 12.5  7.5 46.25 12.5  6.25 46.25 12.5  6.25 47.5 11.25  6.25 47.5 12.5  8.75 46.25 11.25  10 46.25 11.25  10 47.5 11.25  10 47.5 12.5  10 46.25 12.5  8.75 46.25 12.5  8.75 47.5 11.25  8.75 47.5 12.5  11.25 46.25 11.25  12.5 46.25 11.25  12.5 47.5 11.25  12.5 47.5 12.5  12.5 46.25 12.5  11.25 46.25 12.5  11.25 47.5 11.25  11.25 47.5 12.5  13.75 46.25 11.25  15 46.25 11.25  15 47.5 11.25  15 47.5 12.5  15 46.25 12.5  13.75 46.25 12.5  13.75 47.5 11.25  13.75 47.5 12.5  6.25 48.75 11.25  7.5 48.75 11.25  7.5 50 11.25  7.5 50 12.5  7.5 48.75 12.5  6.25 48.75 12.5  6.25 50 11.25  5 50 12.5  6.25 50 12.5  5 50 11.25  8.75 48.75 11.25  10 48.75 11.25  10 50 11.25  10 50 12.5  10 48.75 12.5  8.75 48.75 12.5  8.75 50 11.25  8.75 50 12.5  11.25 48.75 11.25  12.5 48.75 11.25  12.5 50 11.25  12.5 50 12.5  12.5 48.75 12.5  11.25 48.75 12.5  11.25 50 11.25  11.25 50 12.5  13.75 48.75 11.25  15 48.75 11.25  15 50 11.25  15 50 12.5  15 48.75 12.5  13.75 48.75 12.5  13.75 50 11.25  13.75 50 12.5  11.25 40 13.75  11.25 38.75 13.75  12.5 40 13.75  12.5 40 15  10 40 13.75  10 40 15  11.25 40 15  10 41.25 13.75  8.75 41.25 13.75  10 42.5 13.75  10 42.5 15  10 41.25 15  8.75 41.25 15  8.75 42.5 13.75  7.5 42.5 15  8.75 42.5 15  7.5 42.5 13.75  11.25 41.25 13.75  12.5 41.25 13.75  12.5 42.5 13.75  12.5 42.5 15  12.5 41.25 15  11.25 41.25 15  11.25 42.5 13.75  11.25 42.5 15  13.75 41.25 13.75  13.75 42.5 13.75  15 42.5 13.75  15 42.5 15  13.75 41.25 15  13.75 42.5 15  8.75 43.75 13.75  10 43.75 13.75  10 45 13.75  10 45 15  10 43.75 15  8.75 43.75 15  8.75 45 13.75  7.5 43.75 13.75  7.5 43.75 15  7.5 45 15  8.75 45 15  7.5 45 13.75  11.25 43.75 13.75  12
[...]
<PointData  Vectors="u"> 
<DataArray  type="Float64"  Name="u"  NumberOfComponents="3" format="ascii">1.9999999999286388e+02 6.8713859396466245e-11 6.8510824754930371e-10  1.9999999999264674e+02 -1.7466383505804936e-10 -9.3446777852191561e-11  1.9999999999259933e+02 -7.3760808793809652e-11 3.6583441239362689e-11  1.9999999999355524e+02 -1.1325853948207377e-10 -1.5187702411310758e-10  1.9999999999341040e+02 -2.9455476183204457e-10 -5.1254750917424196e-10  1.9999999999287220e+02 1.1478224828504743e-10 7.2745554907560231e-10  1.9999999999271367e+02 -4.5739603340568423e-11 -1.4662684953488956e-12  1.9999999999283875e+02 9.2204242478181527e-11 1.7182839189056790e-10  1.9999999999269448e+02 6.7432020389748502e-11 -1.5364646025512993e-11  1.9999999999288465e+02 9.8357700964238107e-11 1.1052929985372752e-10  1.9999999999259327e+02 -3.3731878693037845e-11 5.9770002575819662e-11  1.9999999999351135e+02 -9.8406353783404374e-11 -2.0935480696327338e-10  1.9999999999466291e+02 1.4526573779370122e-10 7.2179316209782574e-10  1.9999999999347762e+02 -1.8732669463260264e-10 -1.8284117923531422e-10  1.9999999999352207e+02 -4.6481168745477876e-11 -2.9251239618973521e-11  1.9999999999465749e+02 1.1954947950685948e-10 1.8902253966948089e-10  1.9999999999357280e+02 -7.1975881220010062e-12 5.1246784086114919e-11  1.9999999999450307e+02 -8.1249231772293126e-12 -8.7981805999763955e-11  1.9999999999178686e+02 -8.1475299394821662e-11 -7.5261174789511673e-11  1.9999999999165118e+02 -5.0268539732574746e-11 -4.9113227705408255e-10  1.9999999999174918e+02 -2.5342203489970343e-10 -2.0231004597707912e-10  1.9999999999182944e+02 -8.1401416119198886e-11 6.3033427100839456e-12  1.9999999999113359e+02 7.3848705908484328e-11 7.4019137356249485e-10  1.9999999999086165e+02 4.6073511543993216e-11 -9.0506148305656709e-11  1.9999999999110415e+02 7.8108739288970498e-11 1.5640206341528329e-10  1.9999999999166130e+02 -8.9432144034471387e-11 8.9740362044116535e-11  1.9999999999180889e+02 -4.4126174974549538e-13 1.8658653951710316e-11  1.9999999999432424e+02 -1.0800856700713353e-10 -2.1748821949500988e-10  1.9999999999443671e+02 -7.9952717985365092e-11 6.0707321245981388e-11  1.9999999999534612e+02 -8.3339887529423780e-11 -1.7479243152232579e-10  1.9999999999521256e+02 -1.9192465241200012e-10 -4.6890216182336406e-10  1.9999999999466826e+02 1.0427395968676545e-10 7.4393791545508813e-10  1.9999999999453334e+02 -5.2013805848822613e-11 -7.6281914376672267e-11  1.9999999999465703e+02 9.7907189376625466e-11 1.4903873948320535e-10  1.9999999999451927e+02 -7.0849365278276478e-11 9.2877740204188811e-12  1.9999999999528183e+02 -2.3347502642202942e-10 -2.1128492247345316e-10  1.9999999999536408e+02 -1.5486845498529872e-10 3.9561549123358620e-11  1.9999999999350575e+02 -8.7942837451214912e-11 -1.6937374025313448e-10  1.9999999999339840e+02 -2.0712047045485977e-10 -5.4017253146862548e-10  1.9999999999259299e+02 -8.1234876760662868e-11 -2.0231664232354680e-10  1.9999999999264375e+02 -3.9642736974407841e-12 5.2014600547004628e-11  1.9999999999286263e+02 1.3742988845678500e-10 7.4865702111588509e-10  1.9999999999271819e+02 -5.2982497678866230e-12 -5.2549028635751338e-11  1.9999999999283690e+02 1.1762463361203761e-10 1.6805439906509474e-10  1.9999999999272308e+02 -3.7838930786379953e-11 3.9485550068053972e-11  1.9999999999350237e+02 -1.1668146813455843e-10 -1.4332115382086304e-10  1.9999999999352639e+02 -1.5273928790577964e-10 -1.9305795303900907e-10  1.9999999999358786e+02 -8.5747451817566483e-11 -1.9195314550185880e-11  1.9999999999361597e+02 -2.2809546189913285e-11 4.9273390004057761e-11  1.9999999999177030e+02 -6.2820504519667434e-11 -1.8632546267848205e-10  1.9999999999166866e+02 -1.9772797261255683e-10 -5.0270167707458102e-10  1.9999999999082860e+02 -1.4564480067745630e-10 -2.0716549102607711e-10  1.9999999999083943e+02 -3.1822160312653378e-11 3.1497855019257563e-11  1.9999999999108800e+02 1.1770995867590354e-10 7.1311136031754067e-10  1.9999999999096406e+02 -7.2119703122490862e-12 -7.5602277266572128e-11  1.9999999999104850e+02 9.9158501933121450e-11 1.7500357513124013e-10  1.9999999999091779e+02 -5.4331353326687700e-11 3.2957303683796643e-11  1.9999999999175861e+02 -1.0573295901912751e-10 -1.2996241546822144e-10  1.9999999999172201e+02 -1.7029047184690924e-10 -1.9810552266090205e-10  1.9999999999181935e+02 -9.7342714417444696e-11 4.0003890245393056e-11  1.9999999999182208e+02 -5.3305038295881069e-12 4.4045315488201199e-11  1.9999999999002338e+02 -5.1285647535915332e-11 -1.5975499604721341e-10  1.9999999998992493e+02 -5.3680057955414542e-11 -5.4841818191963010e-10  1.9999999998997936e+02 -2.0446729380802469e-10 -2.3749549839529016e-10  1.9999999999008588e+02 -1.0181373055921747e-10 3.0619709446681266e-11  1.9999999998934013e+02 1.2479434094967478e-10 7.1240158749574119e-10  1.9999999998912386e+02 7.9805307620769031e-11 -1.0953376539120149e-10  1.9999999998937136e+02 8.9005383507292901e-11 1.7018103562072782e-10  1.9999999998999718e+02 -5.4432602227804800e-11 -3.1214709127788110e-10  1.9999999999003390e+02 -3.9707145772149925e-11 1.7841071637628842e-11  1.9999999999435778e+02 -1.2197707304251924e-10 -1.8586697960731882e-10  1.9999999999446769e+02 -6.5220349797850336e-11 9.8081868335181773e-12  1.9999999999533239e+02 -7.7830433057084176e-11 -2.0612633242464893e-10  1.9999999999518363e+02 -1.6546224124575317e-10 -4.7019517489120001e-10  1.9999999999468540e+02 8.5146891340790664e-11 7.2915045777544063e-10  1.9999999999454090e+02 -5.2224664674562079e-11 -6.9267953864576296e-11  1.9999999999465828e+02 3.8400995516095430e-11 1.6522795735022285e-10  1.9999999999455673e+02 -4.9480583839201034e-11 3.6326369733065557e-11  1.9999999999530212e+02 -9.7889222472147263e-11 -1.6110404538785999e-10  1.9999999999646485e+02 8.5495698662083944e-11 7.4076250096219304e-10  1.9999999999526884e+02 -1.6821269495966829e-10 -2.1628267442261377e-10  1.9999999999534890e+02 -1.5790619137445249e-10 -3.2666748197859960e-11  1.9999999999539159e+02 -1.8188021251483539e-11 2.2308107769669091e-11  1.9999999999353992e+02 -8.7418063507845540e-11 -1.7417201508500205e-10  1.9999999999345729e+02 -1.8957564646006955e-10 -5.5652009899812607e-10  1.9999999999255277e+02 -1.5958729228478681e-10 -2.0323668113209847e-10  1.9999999999264708e+02 -6.4422084255737410e-11 -1.6623381285891336e-11  1.9999999999285905e+02 8.1327015884594141e-11 7.5117642973980321e-10  1.9999999999272771e+02 8.4495241665255230e-12 -1.4370172643982484e-10  1.9999999999284756e+02 6.2969896115917919e-11 1.8948117305028876e-10  1.9999999999275323e+02 -8.5724198024816849e-11 1.7268539391411625e-11  1.9999999999351266e+02 -1.5040921358803210e-10 -1.7854290423750755e-10  1.9999999999352124e+02 -2.0803078461794995e-10 -2.5223989788155986e-10  1.9999999999360563e+02 -1.2737008528300732e-10 -3.7780390285677917e-12  1.9999999999359667e+02 -2.4384273403332683e-12 5.0857097849570896e-11  1.9999999999177047e+02 -8.0982320426587701e-11 -1.7659854597110068e-10  1.9999999999164984e+02 -1.5975339299698123e-10 -5.1996095670543916e-10  1.9999999999077892e+02 -1.0189433748719608e-10 -2.1855868146560371e-10  1.9999999999088303e+02 -2.2202637987148727e-11 1.2448230310900430e-11  1.9999999999108749e+02 8.5084798281155184e-11 7.0480656690788171e-10  1.9999999999096468e+02 -3.5205406341867205e-11 -1.4074653286606089e-10  1.9999999999109119e+02 7.1149032324618015e-11 1.9617929909514638e-10  1.9999999999095482e+02 -1.9340712338166277e-11 4.5393133393155304e-11  1.9999999999172476e+02 -1.2455158061924432e-10 -1.6519987029848404e-10  1.9999999999173917e+02 -1.7245470025506834e-10 -2.1809123679314098e-10  1.9999999999184257e+02 -1.2632270074740089e-10 1.2656706606371738e-11  1.9999999999184155e+02 -3.2822916304625093e-11 6.3961500148128226e-11  1.9999999999001736e+02 -6.8441682771036000e-11 -1.9047220925237000e-10  1.9999999998991535e+02 -1.6116898934948257e-10 -5.4929390349713494e-10  1.9999999998910565e+02 -1.0646191831725705e-10 -2.4731498774942932e-10  1.9999999998916681e+02 -4.4862158675384930e-11 7.6260149812487176e-12  1.9999999998938074e+02 8.6655056953117792e-11 7.2042520336535401e-10  1.9999999998918685e+02 2.8277773375578335e-11 -9.8206028543659725e-11  1.9999999998940058e+02 1.0292816829552254e-10 1.7430994224157871e-10  1.9999999998918219e+02 -1.3195139951602683e-11 5.7423445022815863e-11  1.9999999998996100e+02 -7.6295864545981560e-11 -1.9773478214868495e-10  1.9999999998997725e+02 -1.1842868927663260e-10 -2.0501830522519300e-10  1.9999999999005797e+02 -1.0172182585314812e-10 -2.9105971807911496e-11  1.9999999999001994e+02 4.3516381791018506e-11 3.5225119889268916e-11  1.9999999999527861e+02 4.1302846461278972e-11 -2.1868315534419674e-10  1.9999999999522740e+02 -6.5350948319457647e-11 -5.0783751147477985e-10  1.9999999999437722e+02 2.5693809328549259e-11 -2.2663840120636601e-10  1.9999999999444944e+02 3.6918642603052450e-11 4.6336614231981499e-11  1.9999999999468116e+02 -5.2177798420856502e-10 7.4782308444525949e-10  1.9999999999462835e+02 -3.7856325781083153e-11 -1.0073259939618960e-10  1.9999999999460479e+02 -5.6263910624227233e-10 1.3362141129223026e-10  1.9999999999455918e+02 6.5978968862477728e-11 6.0706242424726670e-11  1.9999999999532196e+02 2.0624379356295709e-11 -1.7970462347638836e-10  1.9999999999643293e+02 -5.2980247997867648e-10 7.7552689132740145e-10  1.9999999999538986e+02 3.0642494624925559e-10 -1.3060619316786529e-10  1.9999999999537133e+02 -1.6483809343991548e-11 8.8608802455157681e-11  1.9999999999640551e+02 -5.2697031311854176e-10 1.7500128000412443e-10  1.9999999999540333e+02 -2.3072727099805537e-11 1.2773418322735318e-10  1.9999999999643518e+02 -6.3348423860754433e-11 -1.2082745450535131e-10  1.9999999999352815e+02 3.5849194523362283e-11 -2.2434220821965973e-10  1.9999999999344857e+02 -6.5143914386189359e-11 -4.8754220249719037e-10  1.9999999999257599e+02 -2.3443796859764574e-11 -2.4783592739760998e-10  1.9999999999262533e+02 1.8269249947001664e-11 6.9349831509706145e-11  1.9999999999280004e+02 -5.4144153624441502e-10 7.3531691057580475e-10  1.9999999999276190e+02 -1.7209048281168669e-11 -9.5522449390049168e-11  1.9999999999279237e+02 -5.2007554240544795e-10 1.7425500439200835e-10  1.9999999999274118e+02 5.1196223820490168e-11 9.4489382200142443e-11  1.9999999999353506e+02 2.7413708315495221e-12 -1.1360574933408106e-10  1.9999999999361694e+02 2.9047905035064829e-10 -1.6124080012520728e-10  1.9999999999357226e+02 -6.1434706682153849e-12 1.0386145167431905e-10  1.9999999999367017e+02 5.3654212765944624e-12 1.2188098513346995e-10  1.9999999999177837e+02 -9.6394796404945075e-12 -1.9518424360767709e-10  1.9999999999167514e+02 -9.1177466929889794e-11 -5.0101385265340443e-10  1.9999999999080777e+02 5.0617501560561819e-11 -1.9856472322928441e-10  1.9999999999093629e+02 -1.4765562605441419e-11 3.8250401414943660e-11  1.9999999999113894e+02 -5.1879760085294932e-10 7.7700588832337457e-10  1.9999999999112126e+02 -5.9415054484002623e-11 -4.5070616822878575e-11  1.9999999999107595e+02 -5.0791629716946477e-10 1.3795256859581006e-10  1.9999999999103548e+02 7.8746667070980273e-11 5.8447961876182684e-11  1.9999999999175054e+02 2.2622063575475004e-11 -1.4728015674077456e-10  1.9999999999185300e+02 3.3458568863828019e-10 -1.0586634199616577e-10  1.9999999999183979e+02 -7.4111551451094878e-14 3.4244132783270205e-11  1.9999999999190041e+02 -1.7990662526975867e-11 1.3012368897188795e-10  1.9999999999002921e+02 6.1188956627631370e-11 -1.6778292415697719e-10  1.9999999998991032e+02 -1.9925958710882662e-11 -5.7755321621483921e-10  1.9999999998912165e+02 3.4747994386887599e-11 -2.1079758413991697e-10  1.9999999998920330e+02 8.3385537664979992e-11 4.1001353830184661e-11  1.9999999998934379e+02 -5.1567306013198176e-10 7.3668969804499447e-10  1.9999999998916684e+02 2.8547992223151889e-12 -8.6290733129941153e-11  1.9999999998935616e+02 -4.7802438507003910e-10 1.1824852821797394e-10  1.9999999998916880e+02 3.7020867525368529e-11 1.0794862916067954e-11  1.9999999998999618e+02 6.3713048114346306e-12 -2.1084353674431494e-10  1.9999999999011180e+02 2.6952045849369712e-10 -1.7044206152705317e-10  1.9999999999013366e+02 4.6312143204715400e-12 9.3773053995471905e-11  1.9999999999010276e+02 -1.1834786991995325e-11 1.2675475151782976e-10  1.9999999999285620e+02 8.4274864032332526e-11 1.4520677936009397e-10  1.9999999999183066e+02 -2.9593034196218322e-11 9.6418949398175216e-12  1.9999999999176472e+02 -5.2600623229127856e-11 -1.8334398246168230e-10  1.9999999999175753e+02 -6.5073467483151717e-11 -3.3110038320379949e-11  1.9999999999111418e+02 6.8339256754226685e-11 1.2341550613030985e-10  1.9999999999176947e+02 -2.2939401678386774e-10 -2.7712715372184770e-11  1.9999999999273697e+02 -5.6268408948730251e-12 -3.4805502040465303e-11  1.9999999999252458e+02 -1.1156185091379784e-10 -8.8563470787747416e-11  1.9999999999351724e+02 -9.9661921270324523e-11 -9.0730153026979760e-11  1.9999999999272765e+02 6.5497940824510863e-12 -3.3702924407179746e-11  1.9999999999286894e+02 1.1885839005105879e-10 1.1587614260748334e-10  1.9999999999271679e+02 -5.8259779905809386e-11 4.3225807620840265e-11  1.9999999999350001e+02 -1.8386334860758033e-10 -1.3996139520258706e-10  1.9999999999182381e+02 -1.2633352738450629e-10 -8.8777425624498055e-11  1.9999999999177638e+02 -1.0017011667836801e-10 -1.7060767810550545e-10  1.9999999999089482e+02 -1.8985395630669074e-11 1.2096490357553131e-10  1.9999999999112268e+02 4.3397629125449625e-11 1.1466848759794605e-10  1.9999999999171453e+02 -1.7830113629101871e-10 -5.9830143213733351e-11  1.9999999999090929e+02 -8.6392988270925960e-12 3.0769845749544718e-11  1.9999999999182012e+02 -1.9994021075545386e-11 3.8952109050768916e-11  1.9999999999352738e+02 -9.0380589535948917e-11 -1.1289154390975473e-10  1.9999999999255627e+02 -1.0623630668534145e-10 -7.2036520541249089e-11  1.9999999999273371e+02 -2.7145314087220965e-11 -7.7807143635480704e-11  1.9999999999285194e+02 8.9758021089117024e-11 1.5653626073454377e-10  1.9999999999274991e+02 -2.0295424411567095e-11 1.6397129998778689e-12  1.9999999999351354e+02 -6.0740863091306925e-11 -1.4807002593660132e-10  1.9999999999353162e+02 -2.1812841179906223e-10 -1.0773404998583378e-10  1.9999999999464890e+02 1.0018104868406770e-10 1.4152110617644372e-10  1.9999999999355148e+02 5.3692510641880924e-12 9.6324104869835671e-12  1.9999999999455196e+02 -2.2132303022344682e-11 -2.8332139116323066e-12  1.9999999999173747e+02 -8.7291571444531926e-11 -1.1049145767125796e-10  1.9999999999075493e+02 -9.7145657595743170e-11 -1.1487481003375509e-10  1.9999999999095792e+02 1.7097510734220629e-11 -1.9200456129680033e-11  1.9999999999109926e+02 1.2099041546363613e-10 1.5128599949411913e-10  1.9999999999101206e+02 -1.8454296892299854e-11 4.9266089306364918e-11  1.9999999999168307e+02 -1.3578253728985790e-10 -1.7078151589239931e-10  1.9999999999174236e+02 -2.0017499066459823e-10 -1.1642044180400140e-10  1.9999999999182401e+02 2.5233912180875432e-11 5.5093605420352308e-11  1.9999999999003012e+02 -7.2586348203012783e-11 -5.9775770221624822e-11  1.9999999998996523e+02 -1.7816895599312663e-10 -6.7856405688823137e-11  1.9999999998915564e+02 8.0300544714566849e-11 1.9905170492506389e-11  1.9999999998935562e+02 1.0316108706021606e-10 1.6305985759724647e-10  1.9999999998997737e+02 -4.3644143286551382e-11 -1.7938056137384062e-10  1.9999999999005558e+02 -8.5019361424902480e-12 8.1141121046872627e-11  1.9999999999435676e+02 -1.1163360080717497e-10 -9.5420360897341820e-11  1.9999999999533043e+02 -1.1606384780397560e-10 -7.4206266814026578e-11  1.9999999999456878e+02 -1.5099579519044342e-11 1.7169378115693568e-11  1.9999999999464933e+02 4.9431253481043864e-11 1.4625271361195227e-10  1.9999999999455613e+02 -3.8519976419409424e-11 2.3870357533804794e-11  1.9999999999535746e+02 -1.2772392118734600e-10 -1.8055110554808868e-10  1.9999999999531948e+02 -1.9275680970410759e-10 -9.0805140195423636e-11  1.9999999999546267e+02 -4.2215210215830400e-11 2.6901827140392254e-11  1.9999999999350953e+02 -8.6029138086602688e-11 -8.0877984685488279e-11  1.9999999999255834e+02 -1.1239078945081277e-10 -1.2339375997662124e-10  1.9999999999274399e+02 2.4314356262080980e-11 4.9977976338849608e-12  1.9999999999285822e+02 9.3190445275958253e-11 1.5806306411417572e-10  1.9999999999278691e+02 -3.3442357814495520e-11 4.0575956077293671e-11  1.9999999999349356e+02 -1.1443600975827734e-10 -2.2107291237930583e-10  1.9999999999353312e+02 -1.8918352280093620e-10 -7.4015294117497740e-11  1.9999999999364428e+02 -1.3321458264727357e-11 4.0097798860166867e-11  1.9999999999175481e+02 -7.3758136360688677e-11 -8.2769171651277109e-11  1.9999999999082436e+02 -1.2871114179703577e-10 -8.7866345538117869e-11  1.9999999999095741e+02 3.4593232278265980e-11 1.6745967495610517e-11  1.9999999999106382e+02 1.0142707077671975e-10 1.5214913507395099e-10  1.9999999999098810e+02 -1.4770246021954857e-11 5.3364472324599463e-11  1.9999999999173033e+02 -7.3386973372905294e-11 -1.7365428722606568e-10  1.9999999999176126e+02 -1.4445745136365193e-10 -5.5297458759552082e-11  1.9999999999183436e+02 -1.4915191363400155e-11 2.5895669324183743e-11  1.9999999999000164e+02 -7.7296880130488856e-11 -4.8660099267489378e-11  1.9999999998910076e+02 -7.8156907128925749e-11 -6.0441588810745270e-11  1.9999999998918045e+02 1.5926147022648127e-11 -2.3779296650727942e-12  1.9999999998938478e+02 7.0375162129800502e-11 1.4869319763818888e-10  1.9999999998918631e+02 -3.5091207393044081e-11 5.4327433652038811e-11  1.9999999998999195e+02 -1.1907980879628439e-10 -1.4959963970855615e-10  1.9999999998998035e+02 -1.4079540959347603e-10 -9.4726143031183774e-11  1.9999999999002395e+02 -5.4560609791826394e-12 4.5398844277741411e-11  1.9999999999432737e+02 -1.4009730858641440e-11 -8.2319805042109093e-11  1.9999999999530968e+02 5.4408953527115978e-11 -8.7482496223009920e-11  1.9999999999461076e+02 -2.2684323454255091e-12 3.9120149903451161e-11  1.9999999999459965e+02 -5.0919819583259811e-10 1.0086661635992662e-10  1.9999999999456355e+02 3.9310140088314967e-11 2.2460291133633431e-11  1.9999999999534717e+02 3.6447617225269691e-11 -2.5108370029966899e-10  1.9999999999533225e+02 3.1038632330975756e-10 -1.7431732897094933e-12  1.9999999999640906e+02 -5.0117930110137310e-10 4.8023152271076725e-11  1.9999999999543036e+02 1.5826754568137296e-11 5.9571901275658107e-11  1.9999999999646772e+02 3.8179543179834402e-11 1.3615719097429056e-11  1.9999999999355023e+02 6.3643764804266239e-12 -1.1663042419725590e-10  1.9999999999252177e+02 -1.1633567808334665e-11 -1.0313384724890245e-10  1.9999999999281130e+02 -1.1435535267242018e-11 2.2421317110783452e-11  1.9999999999283216e+02 -4.6779726041870381e-10 1.3095525216807424e-10  1.9999999999277455e+02 -1.3799305442880237e-11 6.1729904009115659e-11  1.9999999999353608e+02 -1.2581500815758862e-11 -1.4257600503094232e-10  1.9999999999366935e+02 2.3072144615332387e-10 9.3958302802519576e-12  1.9999999999364556e+02 7.6636860075306064e-12 1.1850181104195449e-10  1.9999999999177118e+02 -1.4481819240583839e-11 -6.0944785783706301e-11  1.9999999999078739e+02 -1.5208310973631191e-11 -4.5497351027694628e-11  1.9999999999106811e+02 3.8997628631360455e-11 3.3850457387786598e-11  1.9999999999105415e+02 -4.9762769257098076e-10 1.5501794866203083e-10  1.9999999999093748e+02 2.7884161868844866e-11 3.4799883553580068e-11  1.9999999999180477e+02 2.1081359843904866e-11 -1.6364941346444787e-10  1.9999999999186775e+02 2.5394494846566147e-10 4.4061866163772008e-11  1.9999999999188981e+02 -4.8480319218761432e-11 1.3815270785006097e-10  1.9999999998999658e+02 2.8851311812787389e-11 -1.0126356617621112e-10  1.9999999998909516e+02 3.5447373051181859e-11 -5.6561158177532314e-11  1.9999999998913705e+02 -1.0335101951354920e-11 3.1893319309326047e-11  1.9999999998932688e+02 -4.9916089360606079e-10 1.0412113015538250e-10  1.9999999998916059e+02 5.6682238566070025e-11 5.0031482587062892e-11  1.9999999998998055e+02 4.6701699783154838e-11 -1.5104033234021943e-10  1.9999999999012670e+02 2.3679551569038136e-10 3.8271953872629079e-11  1.9999999999009626e+02 2.3071151765945