<?xml version="1.0"?>
<VTKFile type="UnstructuredGrid"  version="0.1"  >
<UnstructuredGrid>
<Piece  NumberOfPoints="4058" NumberOfCells="19986">
<Points>
<DataArray  type="Float64"  NumberOfComponents="3"  format="ascii">17.5 22.5 5  17.5 21.25 5  17.5 21.25 3.75  16.25 21.25 3.75  16.25 21.25 5  20 22.5 2.5  20 22.5 3.75  20 21.25 3.75  18.75 21.25 3.75  20 22.5 5  20 20 5  20 21.25 5  18.75 21.25 5  18.75 22.5 5  22.5 22.5 2.5  22.5 22.5 3.75  22.5 21.25 3.75  21.25 21.25 3.75  22.5 22.5 5  21.25 22.5 3.75  21.25 22.5 2.5  21.25 21.25 5  21.25 22.5 5  17.5 22.5 6.25  17.5 21.25 6.25  16.25 21.25 6.25  17.5 22.5 7.5  20 21.25 6.25  18.75 21.25 6.25  20 22.5 6.25  20 22.5 7.5  18.75 22.5 6.25  18.75 22.5 7.5  22.5 22.5 6.25  22.5 21.25 6.25  21.25 21.25 6.25  22.5 22.5 7.5  22.5 20 7.5  22.5 21.25 7.5  21.25 21.25 7.5  21.25 22.5 6.25  21.25 22.5 7.5  22.5 21.25 8.75  21.25 21.25 8.75  22.5 22.5 8.75  22.5 22.5 10  21.25 22.5 8.75  20 22.5 8.75  20 22.5 10  21.25 22.5 10  0 30 0  1.25 31.25 1.25  1.25 31.25 0  0 31.25 0  0 32.5 0  1.25 32.5 1.25  1.25 32.5 0  2.5 32.5 0  2.5 32.5 1.25  2.5 32.5 2.5  0 31.25 1.25  0 32.5 1.25  0 32.5 2.5  1.25 32.5 2.5  1.25 33.75 1.25  1.25 33.75 0  2.5 33.75 1.25  2.5 33.75 0  2.5 35 0  2.5 35 1.25  2.5 35 2.5  2.5 33.75 2.5  1.25 33.75 2.5  0 33.75 0  0 35 0  1.25 35 1.25  1.25 35 0  0 33.75 1.25  0 33.75 2.5  0 35 2.5  1.25 35 2.5  0 35 1.25  3.75 33.75 1.25  3.75 33.75 0  3.75 35 1.25  3.75 35 0  5 35 0  5 35 1.25  5 35 2.5  3.75 33.75 2.5  3.75 35 2.5  1.25 36.25 1.25  1.25 36.25 0  2.5 36.25 1.25  2.5 36.25 0  2.5 37.5 0  2.5 37.5 1.25  2.5 37.5 2.5  2.5 36.25 2.5  1.25 36.25 2.5  0 36.25 0  0 37.5 0  1.25 37.5 1.25  1.25 37.5 0  0 36.25 1.25  0 36.25 2.5  0 37.5 2.5  1.25 37.5 2.5  0 37.5 1.25  3.75 36.25 1.25  3.75 36.25 0  5 36.25 1.25  5 36.25 0  5 37.5 0  5 37.5 1.25  5 37.5 2.5  5 36.25 2.5  3.75 36.25 2.5  3.75 37.5 1.25  3.75 37.5 0  3.75 37.5 2.5  6.25 36.25 1.25  6.25 35 1.25  6.25 36.25 2.5  6.25 35 2.5  7.5 35 2.5  7.5 36.25 2.5  7.5 37.5 2.5  6.25 36.25 0  6.25 37.5 1.25  6.25 37.5 0  7.5 37.5 0  7.5 37.5 1.25  6.25 37.5 2.5  1.25 38.75 1.25  1.25 38.75 0  2.5 38.75 1.25  2.5 38.75 0  2.5 40 0  2.5 40 1.25  2.5 40 2.5  2.5 38.75 2.5  1.25 38.75 2.5  0 38.75 0  0 40 0  1.25 40 1.25  1.25 40 0  0 38.75 1.25  0 38.75 2.5  0 40 2.5  1.25 40 2.5  0 40 1.25  3.75 38.75 1.25  3.75 38.75 0  5 38.75 1.25  5 38.75 0  5 40 0  5 40 1.25  5 40 2.5  5 38.75 2.5  3.75 38.75 2.5  3.75 40 1.25  3.75 40 0  3.75 40 2.5  6.25 38.75 1.25  6.25 38.75 0  7.5 38.75 1.25  7.5 38.75 0  7.5 40 0  7.5 40 1.25  7.5 40 2.5  7.5 38.75 2.5  6.25 38.75 2.5  6.25 40 1.25  6.25 40 0  6.25 40 2.5  8.75 38.75 1.25  8.75 37.5 1.25  8.75 38.75 2.5  8.75 37.5 2.5  10 37.5 2.5  10 38.75 2.5  10 40 2.5  8.75 38.75 0  8.75 40 1.25  8.75 40 0  10 40 0  10 40 1.25  8.75 40 2.5  1.25 41.25 1.25  1.25 41.25 0  2.5 41.25 1.25  2.5 41.25 0  2.5 42.5 0  2.5 42.5 1.25  2.5 42.5 2.5  2.5 41.25 2.5  1.25 41.25 2.5  0 41.25 0  0 42.5 0  1.25 42.5 1.25  1.25 42.5 0  0 41.25 1.25  0 41.25 2.5  0 42.5 2.5  1.25 42.5 2.5  0 42.5 1.25  3.75 41.25 1.25  3.75 41.25 0  5 41.25 1.25  5 41.25 0  5 42.5 0  5 42.5 1.25  5 42.5 2.5  5 41.25 2.5  3.75 41.25 2.5  3.75 42.5 1.25  3.75 42.5 0  3.75 42.5 2.5  6.25 41.25 1.25  6.25 41.25 0  7.5 41.25 1.25  7.5 41.25 0  7.5 42.5 0  7.5 42.5 1.25  7.5 42.5 2.5  7.5 41.25 2.5  6.25 41.25 2.5  6.25 42.5 1.25  6.25 42.5 0  6.25 42.5 2.5  8.75 41.25 1.25  8.75 41.25 0  8.75 41.25 2.5  1.25 43.75 1.25  1.25 43.75 0  2.5 43.75 1.25  2.5 43.75 0  2.5 45 0  2.5 45 1.25  2.5 45 2.5  2.5 43.75 2.5  1.25 43.75 2.5  0 43.75 0  0 45 0  1.25 45 1.25  1.25 45 0  0 43.75 1.25  0 43.75 2.5  0 45 2.5  1.25 45 2.5  0 45 1.25  3.75 43.75 1.25  3.75 43.75 0  5 43.75 1.25  5 43.75 0  5 45 0  5 45 1.25  5 45 2.5  5 43.75 2.5  3.75 43.75 2.5  3.75 45 1.25  3.75 45 0  3.75 45 2.5  6.25 43.75 1.25  6.25 43.75 0  6.25 43.75 2.5  7.5 43.75 2.5  7.5 45 2.5  6.25 45 1.25  6.25 45 0  6.25 45 2.5  1.25 46.25 1.25  1.25 46.25 0  2.5 46.25 1.25  2.5 46.25 0  2.5 47.5 0  2.5 47.5 1.25  2.5 47.5 2.5  2.5 46.25 2.5  1.25 46.25 2.5  0 46.25 0  0 47.5 0  1.25 47.5 1.25  1.25 47.5 0  0 46.25 1.25  0 46.25 2.5  0 47.5 2.5  1.25 47.5 2.5  0 47.5 1.25  3.75 46.25 1.25  3.75 46.25 0  5 46.25 1.25  5 46.25 0  5 47.5 0  5 47.5 1.25  5 47.5 2.5  5 46.25 2.5  3.75 46.25 2.5  3.75 47.5 1.25  3.75 47.5 0  3.75 47.5 2.5  6.25 46.25 1.25  6.25 46.25 0  6.25 46.25 2.5  6.25 47.5 2.5  6.25 47.5 1.25  1.25 48.75 1.25  1.25 48.75 0  2.5 48.75 1.25  2.5 48.75 0  2.5 50 0  2.5 50 1.25  2.5 50 2.5  2.5 48.75 2.5  1.25 48.75 2.5  0 48.75 0  0 50 0  1.25 50 1.25  1.25 50 0  0 48.75 1.25  0 48.75 2.5  0 50 2.5  1.25 50 2.5  0 50 1.25  3.75 48.75 1.25  3.75 48.75 0  5 48.75 1.25  5 48.75 0  5 50 0  5 50 1.25  5 50 2.5  5 48.75 2.5  3.75 48.75 2.5  3.75 50 1.25  3.75 50 0  3.75 50 2.5  6.25 48.75 1.25  6.25 48.75 2.5  6.25 48.75 0  1.25 33.75 3.75  2.5 33.75 3.75  2.5 35 3.75  2.5 35 5  1.25 35 3.75  0 33.75 3.75  0 32.5 3.75  0 32.5 5  1.25 33.75 5  0 33.75 5  0 35 5  1.25 35 5  0 35 3.75  3.75 33.75 3.75  3.75 35 3.75  5 35 3.75  5 35 5  3.75 35 5  1.25 36.25 3.75  2.5 36.25 3.75  2.5 37.5 3.75  2.5 37.5 5  2.5 36.25 5  1.25 36.25 5  1.25 37.5 3.75  0 36.25 3.75  0 36.25 5  0 37.5 5  1.25 37.5 5  0 37.5 3.75  3.75 36.25 3.75  5 36.25 3.75  5 37.5 3.75  5 37.5 5  5 36.25 5  3.75 36.25 5  3.75 37.5 3.75  3.75 37.5 5  6.25 36.25 3.75  7.5 36.25 3.75  7.5 37.5 3.75  7.5 37.5 5  6.25 35 3.75  7.5 35 3.75  7.5 35 5  7.5 36.25 5  6.25 36.25 5  6.25 35 5  6.25 37.5 3.75  6.25 37.5 5  8.75 36.25 3.75  8.75 35 3.75  8.75 36.25 5  8.75 35 5  10 35 5  10 36.25 5  10 37.5 5  8.75 36.25 2.5  8.75 37.5 3.75  10 37.5 3.75  8.75 37.5 5  1.25 38.75 3.75  2.5 38.75 3.75  2.5 40 3.75  2.5 40 5  2.5 38.75 5  1.25 38.75 5  1.25 40 3.75  0 38.75 3.75  0 38.75 5  0 40 5  1.25 40 5  0 40 3.75  3.75 38.75 3.75  5 38.75 3.75  5 40 3.75  5 40 5  5 38.75 5  3.75 38.75 5  3.75 40 3.75  3.75 40 5  6.25 38.75 3.75  7.5 38.75 3.75  7.5 40 3.75  7.5 40 5  7.5 38.75 5  6.25 38.75 5  6.25 40 3.75  6.25 40 5  8.75 38.75 3.75  10 38.75 3.75  10 40 3.75  10 40 5  10 38.75 5  8.75 38.75 5  8.75 40 3.75  8.75 40 5  11.25 38.75 3.75  11.25 38.75 5  1.25 41.25 3.75  2.5 41.25 3.75  2.5 42.5 3.75  2.5 42.5 5  2.5 41.25 5  1.25 41.25 5  1.25 42.5 3.75  0 41.25 3.75  0 41.25 5  0 42.5 5  1.25 42.5 5  0 42.5 3.75  3.75 41.25 3.75  5 41.25 3.75  5 42.5 3.75  5 42.5 5  5 41.25 5  3.75 41.25 5  3.75 42.5 3.75  3.75 42.5 5  6.25 41.25 3.75  7.5 41.25 3.75  7.5 42.5 3.75  7.5 42.5 5  7.5 41.25 5  6.25 41.25 5  6.25 42.5 3.75  6.25 42.5 5  8.75 41.25 3.75  8.75 41.25 5  10 41.25 5  10 42.5 5  8.75 42.5 5  8.75 42.5 3.75  1.25 43.75 3.75  2.5 43.75 3.75  2.5 45 3.75  2.5 45 5  2.5 43.75 5  1.25 43.75 5  1.25 45 3.75  0 43.75 3.75  0 43.75 5  0 45 5  1.25 45 5  0 45 3.75  3.75 43.75 3.75  5 43.75 3.75  5 45 3.75  5 45 5  5 43.75 5  3.75 43.75 5  3.75 45 3.75  3.75 45 5  6.25 43.75 3.75  7.5 43.75 3.75  7.5 45 3.75  7.5 45 5  7.5 43.75 5  6.25 43.75 5  6.25 45 3.75  6.25 45 5  8.75 43.75 3.75  8.75 43.75 5  1.25 46.25 3.75  2.5 46.25 3.75  2.5 47.5 3.75  2.5 47.5 5  2.5 46.25 5  1.25 46.25 5  1.25 47.5 3.75  0 46.25 3.75  0 46.25 5  0 47.5 5  1.25 47.5 5  0 47.5 3.75  3.75 46.25 3.75  5 46.25 3.75  5 47.5 3.75  5 47.5 5  5 46.25 5  3.75 46.25 5  3.75 47.5 3.75  3.75 47.5 5  6.25 46.25 3.75  6.25 46.25 5  6.25 47.5 3.75  6.25 47.5 5  1.25 48.75 3.75  2.5 48.75 3.75  2.5 50 3.75  2.5 50 5  2.5 48.75 5  1.25 48.75 5  1.25 50 3.75  0 48.75 3.75  0 48.75 5  0 50 5  1.25 50 5  0 50 3.75  3.75 48.75 3.75  5 48.75 3.75  5 50 3.75  5 50 5  5 48.75 5  3.75 48.75 5  3.75 50 3.75  3.75 50 5  6.25 48.75 3.75  6.25 48.75 5  1.25 33.75 6.25  1.25 32.5 6.25  0 32.5 6.25  0 32.5 7.5  1.25 33.75 7.5  1.25 32.5 7.5  2.5 32.5 7.5  2.5 33.75 7.5  2.5 35 7.5  1.25 35 6.25  2.5 35 6.25  0 33.75 6.25  0 33.75 7.5  0 35 7.5  1.25 35 7.5  0 35 6.25  1.25 36.25 6.25  2.5 36.25 6.25  2.5 37.5 6.25  2.5 37.5 7.5  2.5 36.25 7.5  1.25 36.25 7.5  1.25 37.5 6.25  0 36.25 6.25  0 36.25 7.5  0 37.5 7.5  1.25 37.5 7.5  0 37.5 6.25  3.75 36.25 6.25  5 36.25 6.25  5 37.5 6.25  5 37.5 7.5  3.75 35 6.25  5 35 6.25  5 35 7.5  5 36.25 7.5  3.75 36.25 7.5  3.75 35 7.5  3.75 37.5 6.25  3.75 37.5 7.5  6.25 36.25 6.25  7.5 36.25 6.25  7.5 37.5 6.25  7.5 37.5 7.5  6.25 35 6.25  7.5 35 6.25  7.5 35 7.5  7.5 36.25 7.5  6.25 36.25 7.5  6.25 35 7.5  6.25 37.5 6.25  6.25 37.5 7.5  8.75 36.25 6.25  10 36.25 6.25  10 37.5 6.25  10 37.5 7.5  8.75 35 6.25  10 35 6.25  10 35 7.5  10 36.25 7.5  8.75 36.25 7.5  8.75 35 7.5  8.75 37.5 6.25  8.75 37.5 7.5  11.25 36.25 6.25  11.25 36.25 7.5  11.25 37.5 7.5  12.5 37.5 7.5  11.25 37.5 6.25  1.25 38.75 6.25  2.5 38.75 6.25  2.5 40 6.25  2.5 40 7.5  2.5 38.75 7.5  1.25 38.75 7.5  1.25 40 6.25  0 38.75 6.25  0 38.75 7.5  0 40 7.5  1.25 40 7.5  0 40 6.25  3.75 38.75 6.25  5 38.75 6.25  5 40 6.25  5 40 7.5  5 38.75 7.5  3.75 38.75 7.5  3.75 40 6.25  3.75 40 7.5  6.25 38.75 6.25  7.5 38.75 6.25  7.5 40 6.25  7.5 40 7.5  7.5 38.75 7.5  6.25 38.75 7.5  6.25 40 6.25  6.25 40 7.5  8.75 38.75 6.25  10 38.75 6.25  10 40 6.25  10 40 7.5  10 38.75 7.5  8.75 38.75 7.5  8.75 40 6.25  8.75 40 7.5  11.25 38.75 6.25  11.25 38.75 7.5  12.5 38.75 7.5  12.5 40 7.5  11.25 40 7.5  11.25 40 6.25  1.25 41.25 6.25  2.5 41.25 6.25  2.5 42.5 6.25  2.5 42.5 7.5  2.5 41.25 7.5  1.25 41.25 7.5  1.25 42.5 6.25  0 41.25 6.25  0 41.25 7.5  0 42.5 7.5  1.25 42.5 7.5  0 42.5 6.25  3.75 41.25 6.25  5 41.25 6.25  5 42.5 6.25  5 42.5 7.5  5 41.25 7.5  3.75 41.25 7.5  3.75 42.5 6.25  3.75 42.5 7.5  6.25 41.25 6.25  7.5 41.25 6.25  7.5 42.5 6.25  7.5 42.5 7.5  7.5 41.25 7.5  6.25 41.25 7.5  6.25 42.5 6.25  6.25 42.5 7.5  8.75 41.25 6.25  10 41.25 6.25  10 42.5 6.25  10 42.5 7.5  10 41.25 7.5  8.75 41.25 7.5  8.75 42.5 6.25  8.75 42.5 7.5  11.25 41.25 6.25  11.25 41.25 7.5  1.25 43.75 6.25  2.5 43.75 6.25  2.5 45 6.25  2.5 45 7.5  2.5 43.75 7.5  1.25 43.75 7.5  1.25 45 6.25  0 43.75 6.25  0 43.75 7.5  0 45 7.5  1.25 45 7.5  0 45 6.25  3.75 43.75 6.25 
[...]
<PointData  Vectors="u"> 
<DataArray  type="Float64"  Name="u"  NumberOfComponents="3" format="ascii">1.9999999998760822e+02 1.1847946013471023e-10 1.4514433531424202e-10  1.9999999998752932e+02 -2.4983083583191681e-11 2.4505927143379357e-11  1.9999999998730019e+02 -1.0872937470508036e-10 -1.9907505424260503e-11  1.9999999998831541e+02 -1.0961751256539631e-10 -4.2889861861601786e-11  1.9999999998832286e+02 -1.1157249970356541e-10 -1.5540437860714678e-10  1.9999999998585133e+02 9.7870436013552488e-11 1.7350493984774653e-10  1.9999999998584204e+02 -9.1507693508383546e-11 1.6950162166049545e-11  1.9999999998556896e+02 -1.1665511181063947e-10 -1.1568020150939837e-10  1.9999999998659067e+02 -6.8424547174978765e-11 -6.7010596718613549e-11  1.9999999998585588e+02 1.4428063109600271e-10 9.8052304881429417e-11  1.9999999998585994e+02 1.3859562258598608e-10 1.1860138047102019e-10  1.9999999998574478e+02 -1.2219620833673769e-10 2.1990130623685061e-11  1.9999999998657350e+02 -9.6117996198680815e-11 -1.5707981037625980e-10  1.9999999998659848e+02 -1.0740618159356928e-10 9.3604052461147328e-11  1.9999999998420182e+02 1.0131095574075497e-10 1.6127696037480759e-10  1.9999999998404871e+02 -1.1935596194801139e-10 4.3642166450529530e-11  1.9999999998393591e+02 -3.0854105466282855e-11 -1.0332457773537357e-10  1.9999999998483091e+02 -6.5327463540104477e-11 -1.0998787121868638e-10  1.9999999998415268e+02 1.0703981536715558e-10 8.6722774603362636e-11  1.9999999998482784e+02 -1.7188007029892499e-10 -7.1488927136382048e-11  1.9999999998490077e+02 -1.0703363690348197e-10 9.0557507016977931e-11  1.9999999998480627e+02 -8.9471270743031644e-11 -1.3137875043751439e-10  1.9999999998491867e+02 -4.7241970990071542e-11 1.3885252313830472e-11  1.9999999998757031e+02 -5.7757003254243653e-11 3.7859251544024811e-11  1.9999999998731195e+02 -7.7195335411090764e-11 -3.8471915395646689e-11  1.9999999998824339e+02 -7.1414080990776483e-11 -1.8320529159753472e-11  1.9999999998758153e+02 1.2863185843415722e-10 1.0701649753817143e-10  1.9999999998556530e+02 -1.1299712715390004e-10 -6.1874177972236791e-11  1.9999999998655184e+02 -8.0409666889683592e-11 -4.1797822651792806e-11  1.9999999998578929e+02 -5.3981172072670436e-11 9.5736319050166150e-11  1.9999999998584741e+02 1.1649152623718501e-10 1.0544514968652444e-10  1.9999999998651134e+02 -1.4140987092144045e-10 -7.0184390083320454e-11  1.9999999998664293e+02 -7.4063647879805190e-11 3.8084049094517422e-11  1.9999999998394674e+02 -4.3381277937933560e-11 -7.1281928414576215e-11  1.9999999998389927e+02 -1.0603792216434647e-10 -1.0360463921771737e-10  1.9999999998481499e+02 -8.9466691419366662e-11 -6.2562832394343256e-11  1.9999999998413179e+02 1.1768958106015740e-10 1.3349285979470860e-10  1.9999999998414219e+02 1.0643588906994942e-10 1.1710615678029095e-10  1.9999999998394765e+02 -1.0331907371681120e-10 7.9263827795000536e-12  1.9999999998476758e+02 -1.1369754477015323e-10 -1.3438512176309573e-10  1.9999999998479825e+02 -1.4574154636028992e-10 -5.6568607767037986e-11  1.9999999998485274e+02 -6.9662310650691480e-11 3.4179805747757918e-11  1.9999999998385749e+02 -1.2559403174538156e-10 -5.0290253239442750e-11  1.9999999998479575e+02 -7.4459794021793655e-11 -7.5512289965968830e-11  1.9999999998391095e+02 -4.2189075461819816e-11 2.1219379188929909e-11  1.9999999998411116e+02 1.0987165719042012e-10 1.0053251421650204e-10  1.9999999998480325e+02 -1.3372551696525423e-10 -7.6364283690801683e-11  1.9999999998575214e+02 -4.3206380430930503e-11 2.5896887267256823e-11  1.9999999998585048e+02 1.6138651097385490e-10 1.1586340621278816e-10  1.9999999998486464e+02 -3.7126122174960509e-11 2.4519986787346455e-11  2.0000000000064972e+02 2.6129337710754695e-12 7.4966861695726545e-10  1.9999999999897142e+02 -7.0361112617021625e-11 -1.3155216103004728e-10  1.9999999999880069e+02 -7.3118007552253819e-11 -5.9105113633732123e-10  1.9999999999985522e+02 -4.4820456092026459e-11 1.6425519544869608e-11  2.0000000000063721e+02 6.0313728023457178e-11 7.8602677844235868e-10  1.9999999999895567e+02 -3.0723220112745551e-10 -1.9277350505638787e-10  1.9999999999900069e+02 -1.6887956465136006e-10 1.3163390183683582e-11  1.9999999999830681e+02 3.6828285008279492e-11 7.5221895035887064e-10  1.9999999999804106e+02 1.2545186220239403e-11 -8.6341569988116798e-11  1.9999999999826593e+02 -2.6019762926762588e-11 1.8820399382219735e-10  1.9999999999973377e+02 -6.5512838859989063e-11 -1.1055343584045790e-11  1.9999999999998229e+02 -1.0683587527191659e-10 -8.0704242609742097e-11  2.0000000000057625e+02 -4.1584032047902489e-12 1.8740762870182664e-10  1.9999999999896261e+02 -4.5109912507289572e-12 8.3437075589282450e-12  1.9999999999892916e+02 -1.0675822896077455e-10 -1.4307771572392114e-10  1.9999999999898577e+02 -2.6159171845246593e-10 -5.2038151914114454e-10  1.9999999999797961e+02 -1.4041144741871802e-10 -2.1808655345049987e-10  1.9999999999803040e+02 -7.7163613231259776e-11 1.4427865781373488e-11  1.9999999999824678e+02 1.4472420367440474e-10 7.4600235105624205e-10  1.9999999999819852e+02 -1.2930994900790193e-10 -8.3334551729483223e-11  1.9999999999820602e+02 1.0611549959708817e-10 2.1750363927710293e-10  1.9999999999817058e+02 -5.4502481907836490e-11 -8.3578808215530885e-11  1.9999999999903537e+02 -1.2225478629123784e-10 -9.1520756559388691e-11  2.0000000000002277e+02 -1.4894818953744630e-10 5.4779334524990268e-11  2.0000000000061016e+02 1.6846834137089505e-10 7.8495499925514320e-10  1.9999999999909357e+02 -7.2749791366033402e-11 -1.9320980368672591e-10  1.9999999999904563e+02 2.8755492206008176e-11 4.4079448701210501e-11  1.9999999999965073e+02 -1.1430080342685412e-10 -6.0909650391495709e-11  2.0000000000000404e+02 -8.3228727118174501e-11 -3.4485368114345600e-11  2.0000000000058097e+02 1.0408351106369977e-10 2.0717475551367477e-10  1.9999999999897904e+02 -9.1363953487775905e-11 1.2067957726518767e-10  1.9999999999996768e+02 -5.4884934782914546e-11 -4.1875027367005310e-11  1.9999999999719614e+02 -7.1321179012607882e-11 -1.6487084686677561e-10  1.9999999999704531e+02 -4.4899271560664112e-11 -5.8286617905662017e-10  1.9999999999711920e+02 -2.6016742558256428e-10 -2.3404042789538483e-10  1.9999999999720541e+02 -1.7377809315688478e-10 4.6594949629324999e-11  1.9999999999651283e+02 6.0681459288654691e-11 7.7526273272652444e-10  1.9999999999624814e+02 -1.1188086605156652e-11 -1.3126904159307504e-10  1.9999999999651814e+02 -1.9579674243652557e-12 2.2563036918520432e-10  1.9999999999718941e+02 -8.2347213539373968e-11 -2.5670847324367813e-10  1.9999999999721243e+02 -3.2884529577778644e-11 7.9780613826728784e-11  1.9999999999898790e+02 -1.0385080435425260e-10 -1.3091716928591367e-10  1.9999999999910085e+02 -2.3356451915959157e-10 -6.0363121915884631e-10  1.9999999999809006e+02 -2.4366708179800803e-10 -3.4067304073845311e-10  1.9999999999814776e+02 -1.1865210925526439e-10 -1.5123050477286921e-11  1.9999999999822583e+02 1.9175460701658204e-10 7.6295559304714976e-10  1.9999999999817618e+02 -8.1366583428144883e-11 -1.3292225715996114e-10  1.9999999999818485e+02 1.6314251961879151e-10 2.2727823066760655e-10  1.9999999999827133e+02 -8.0173425257773402e-11 2.8633079190469014e-11  1.9999999999904981e+02 -1.7875067406384094e-10 -6.0288834726907276e-11  2.0000000000002939e+02 -4.1605113891769358e-11 1.2588922682613774e-10  2.0000000000060203e+02 1.2413236428346403e-10 7.5257179163840143e-10  1.9999999999905722e+02 -1.4981593309307571e-10 -2.3174904369650313e-10  1.9999999999900535e+02 -9.3351565733518627e-11 -2.3954227370122394e-11  1.9999999999966889e+02 -4.7328729408184445e-11 -1.2916638004403582e-10  2.0000000000003843e+02 -1.0358651624553269e-10 -7.5014884350601262e-11  2.0000000000053353e+02 1.4102779728521807e-10 1.4098619886666808e-10  1.9999999999902818e+02 -6.6012007941303143e-11 3.9261568437601759e-11  1.9999999999997911e+02 -9.8212775997845559e-11 -4.7196281717494610e-11  1.9999999999719248e+02 -7.3748886933269945e-11 -1.6476814312874113e-10  1.9999999999707413e+02 -1.8833250292277792e-10 -4.5537455648578308e-10  1.9999999999614755e+02 -9.4546043688327098e-11 -2.5061803851321374e-10  1.9999999999629375e+02 -8.2270825442809836e-11 -1.4666712177609418e-11  1.9999999999645192e+02 1.4646714509703458e-10 7.2836223145883048e-10  1.9999999999630353e+02 1.5904052340791405e-11 -8.5336225971001289e-11  1.9999999999647218e+02 1.1631224466337330e-10 2.0478470633971988e-10  1.9999999999636381e+02 -3.1332958190808800e-11 1.0482547524621834e-10  1.9999999999714194e+02 -1.3932070776419773e-10 -1.4013523913871604e-10  1.9999999999714399e+02 -1.4833835960764475e-10 -2.5924163151994841e-10  1.9999999999720674e+02 -7.5753373092767477e-11 -2.2053983185538898e-12  1.9999999999725796e+02 -2.6481494407397336e-11 5.9940063347975787e-11  1.9999999999542021e+02 -1.1963094584195512e-10 -1.1282006105675415e-10  1.9999999999527702e+02 -9.8688314117766040e-12 -1.3080414759362141e-10  1.9999999999535430e+02 -1.0520748067673615e-10 -2.2726529696869302e-10  1.9999999999540833e+02 6.9929733462956657e-11 -3.6738911949842442e-12  1.9999999999463995e+02 -8.7135185601236117e-12 1.5514342584509295e-10  1.9999999999436676e+02 2.0953650912385634e-11 5.6770854196874288e-11  1.9999999999469009e+02 9.7956750443950977e-11 1.6244491429278688e-10  1.9999999999547933e+02 -4.7595053184962685e-12 -2.7078116547180509e-10  1.9999999999536695e+02 -2.5345941559790983e-10 -6.5428291180984174e-11  1.9999999999546694e+02 -1.2910292862877473e-10 1.4336203043370596e-11  1.9999999999468110e+02 5.1724310123795033e-11 6.4424026178686435e-10  1.9999999999449864e+02 8.8706457845536965e-11 -5.4684142394206827e-11  1.9999999999544465e+02 -3.2331996556323722e-11 4.7528921042476125e-11  1.9999999999897543e+02 -7.8458306754283794e-11 -9.0995184109725219e-11  1.9999999999913234e+02 -2.4944571708240449e-10 -5.2656953981961475e-10  1.9999999999814469e+02 -2.4618266728654130e-10 -3.1391743662547942e-10  1.9999999999816183e+02 -1.0386573917156398e-10 1.8452961586410416e-11  1.9999999999818360e+02 1.8657139462707283e-10 7.4653422541998277e-10  1.9999999999812664e+02 -6.2679050120710691e-11 -5.3217816232349474e-11  1.9999999999817263e+02 1.3821587625088069e-10 2.2672522071182886e-10  1.9999999999823945e+02 -1.6906189804540143e-11 1.4150589887745050e-11  1.9999999999906456e+02 -1.0220140930451921e-10 -1.1545506216485834e-10  2.0000000000002606e+02 -7.5106439542949895e-11 4.7272310061493121e-11  2.0000000000058560e+02 1.8700111415742212e-10 8.0068180317386495e-10  1.9999999999904176e+02 -1.2980134422401959e-10 -1.9858454870828290e-10  1.9999999999902394e+02 -7.0444797626478318e-11 -3.0011250223176719e-12  1.9999999999960463e+02 -4.0558892700368022e-11 -7.6975549633807820e-11  2.0000000000001694e+02 -6.5357738611725751e-11 -9.6337713958212592e-11  2.0000000000053936e+02 1.5147330514397379e-10 1.5899447540375840e-10  1.9999999999900828e+02 -8.9773087833883990e-11 4.3758352439286909e-11  2.0000000000003411e+02 -5.9303582863300751e-11 -8.2243175298442302e-11  1.9999999999719648e+02 -9.9791978752067731e-11 -1.8617264012845542e-10  1.9999999999709433e+02 -2.4433882436484460e-10 -5.1938958463639303e-10  1.9999999999617054e+02 -1.2942848429043512e-10 -2.2258819455068170e-10  1.9999999999626945e+02 -3.7839111733275424e-11 9.6355498441119878e-12  1.9999999999651027e+02 1.4772027219965003e-10 7.1931777400110617e-10  1.9999999999635835e+02 1.7935155045584353e-11 -1.0690539110001203e-10  1.9999999999644641e+02 1.0019864648474071e-10 1.8108965545915636e-10  1.9999999999635085e+02 -3.2713945229460082e-11 6.0978338768086574e-11  1.9999999999715772e+02 -9.7460739334435350e-11 -9.8889335565421975e-11  1.9999999999714746e+02 -1.4625436356991899e-10 -2.0748529651611433e-10  1.9999999999723809e+02 -1.0897715622028924e-10 -7.5860418049810144e-12  1.9999999999721638e+02 1.7532845963236913e-12 9.1582355199071695e-11  1.9999999999539048e+02 -5.8642750325973476e-11 -1.6535493453930583e-10  1.9999999999523919e+02 -2.3442441021285891e-10 -4.4059022443022325e-10  1.9999999999445558e+02 -1.6508756029538530e-10 -5.2297779542698531e-11  1.9999999999443398e+02 -7.9790827387469670e-11 -5.7014627080683741e-11  1.9999999999464936e+02 1.4578542549629886e-10 7.2202436404298136e-10  1.9999999999450230e+02 -1.1483539249011596e-11 -7.4161436072868105e-11  1.9999999999463452e+02 8.4298320137814851e-11 1.8242716682184244e-10  1.9999999999443395e+02 -4.3276120636916613e-11 1.0705178908629095e-10  1.9999999999535453e+02 -1.1792192688814298e-10 -2.1139698639966583e-10  1.9999999999532707e+02 -2.3461456708293239e-10 -2.2349637976115616e-10  1.9999999999534674e+02 -9.6878854966287722e-11 2.1601090472468503e-11  1.9999999999543016e+02 -2.7127056343703485e-11 4.0018902946283610e-11  1.9999999999354628e+02 -1.5486416764547473e-10 -4.7099052560445477e-11  1.9999999999346647e+02 1.8610542144054919e-11 1.0783908047397064e-10  1.9999999999339053e+02 -2.5148645507909796e-10 4.1123141044403856e-11  1.9999999999359508e+02 -1.2252068143640918e-10 1.8935633066656542e-10  1.9999999999285754e+02 4.5327613107554791e-11 1.0768760003011404e-10  1.9999999999268886e+02 -8.1007530124436549e-11 4.9881730642830737e-11  1.9999999999288451e+02 9.2430988091523153e-11 1.1645591786788833e-10  1.9999999999365954e+02 -4.1306559223659404e-12 -2.7312666268296634e-10  1.9999999999352184e+02 -2.3986167768124909e-10 -9.5354751251765960e-11  1.9999999999360287e+02 -7.9965464353238409e-11 5.2738416034977649e-11  1.9999999999286476e+02 5.7660458727888033e-11 6.7167507329344376e-10  1.9999999999267942e+02 7.2667259504632758e-11 -1.8504420718326542e-11  1.9999999999359514e+02 3.1296973211001976e-11 4.2040315510807227e-12  1.9999999999897938e+02 -7.8170277299849739e-11 -9.3733496935080415e-11  1.9999999999908155e+02 -2.3285648484364282e-10 -5.6071299874274466e-10  1.9999999999807582e+02 -2.0779160033184209e-10 -2.9378546287456788e-10  1.9999999999815054e+02 -5.3864550153866171e-11 1.2466065775203715e-11  1.9999999999818112e+02 1.9163393835171735e-10 7.3689653640438691e-10  1.9999999999811504e+02 -7.9032797574900623e-11 -6.6625667609174790e-11  1.9999999999814329e+02 1.5639009634709235e-10 1.9902525963642557e-10  1.9999999999824453e+02 -2.9653028478187515e-11 -1.3877862797602678e-11  1.9999999999906430e+02 -1.2310970116871220e-10 -1.2745233281999873e-10  2.0000000000002680e+02 -8.9072159453432399e-11 7.1508923739702320e-11  2.0000000000058756e+02 1.1594614417565712e-10 7.7033301681335656e-10  1.9999999999908849e+02 -1.6612923816471077e-10 -1.7522459521334452e-10  1.9999999999904807e+02 -6.4763695771726888e-11 -1.2978016759531205e-11  1.9999999999963018e+02 -7.9100386385760997e-11 -9.8708831960931754e-11  1.9999999999995543e+02 -7.1130660234935589e-11 -1.0050090457747082e-10  2.0000000000053518e+02 1.0236132343531991e-10 1.7979292084221365e-10  1.9999999999904361e+02 -6.7892344568151001e-11 2.0043443378049367e-11  1.9999999999999227e+02 -1.0008436244716512e-10 -5.3748869050697132e-11  1.9999999999721265e+02 -5.7018057399597703e-11 -1.5494034473288939e-10  1.9999999999707103e+02 -2.3300589288487577e-10 -4.8826735563016378e-10  1.9999999999615272e+02 -1.2600849851290423e-10 -2.1437089309386677e-10  1.9999999999627815e+02 -7.2035910532695754e-11 5.9344756141190266e-12  1.9999999999650336e+02 1.4684762253956816e-10 7.3754501096857535e-10  1.9999999999631720e+02 -1.1424239716540763e-11 -9.1951679131742791e-11  1.9999999999642711e+02 1.0009296603292053e-10 1.6328792243398017e-10  1.9999999999631666e+02 3.1135700225981092e-11 2.3747129488674414e-11  1.9999999999715763e+02 -1.2655429326530100e-10 -1.5769859970996199e-10  1.9999999999717079e+02 -1.9652313806311615e-10 -2.0867860802260126e-10  1.9999999999720717e+02 -9.1229290985878750e-11 3.2387168393099463e-11  1.9999999999724611e+02 9.9396215753649503e-12 5.2839333067749451e-11  1.9999999999534921e+02 -8.5862374135753640e-11 -2.0205140845087390e-10  1.9999999999522231e+02 -1.9920074067963618e-10 -5.0310243086493708e-10  1.9999999999435110e+02 -1.4555590905613165e-10 -2.3463189927863366e-10  1.9999999999442363e+02 -5.2010482551308780e-11 1.7989410417096954e-11  1.9999999999467073e+02 1.3094243446363314e-10 7.2720336209606317e-10  1.9999999999449088e+02 -1.3903390771538957e-11 -7.9885734759751616e-11  1.9999999999465371e+02 1.1637641483335650e-10 1.9422804525638979e-10  1.9999999999453777e+02 -4.8399421549867276e-11 5.5714376048580893e-11  1.9999999999532912e+02 -1.3762792733239428e-10 -1.6193828491468286e-10  1.9999999999531965e+02 -1.5293422202775969e-10 -2.2133010703152061e-10  1.9999999999537030e+02 -1.2298177673446167e-10 2.5116712919925765e-11  1.9999999999541188e+02 5.0412286938376859e-11 1.6413178986762862e-11  1.9999999999355197e+02 -1.1638176461989086e-10 -1.5844206747617974e-10  1.9999999999341179e+02 -2.7720435227846463e-10 -5.1844233926555771e-10  1.9999999999351385e+02 -1.2859349839925530e-10 -2.4204253785481841e-10  1.9999999999900911e+02 -1.1412205872728964e-10 -7.2850094712801181e-11  1.9999999999913180e+02 -2.5176156535651728e-10 -5.5743720816250768e-10  1.9999999999809069e+02 -2.4672146655833152e-10 -2.9769450652988532e-10  1.9999999999816916e+02 -8.6263265389786025e-11 1.8199461456996093e-11  1.9999999999819633e+02 1.7894176925065525e-10 7.4489927575734719e-10  1.9999999999815992e+02 -8.5653466099692926e-11 -1.1070622934755906e-10  1.9999999999816279e+02 1.4700666426461190e-10 1.8305092842716377e-10  1.9999999999825147e+02 -1.0212949989792610e-10 -4.0301986294489554e-11  1.9999999999908690e+02 -1.7949049629247115e-10 -1.5018765835522789e-10  2.0000000000003547e+02 -7.7037785700293543e-11 5.7073868630345838e-11  2.0000000000057926e+02 1.2307727160985083e-10 7.1796560838052723e-10  1.9999999999908042e+02 -1.8568369292455206e-10 -2.1696550416402675e-10  1.9999999999907578e+02 -9.5996351684719262e-11 -4.2665876954288147e-12  1.9999999999964086e+02 -7.7416663421543411e-11 -8.5117274120447568e-11  1.9999999999998940e+02 -5.0183773006261643e-11 -1.0026903060931647e-10  2.0000000000053265e+02 1.1064024192794568e-10 1.8241141576735934e-10  1.9999999999900041e+02 -9.4395784498893696e-11 6.1349031598296910e-11  1.9999999999999446e+02 -1.1512049774245966e-10 -3.2474266616226479e-11  1.9999999999718852e+02 -7.3987636538854402e-11 -1.4032096082611505e-10  1.9999999999706392e+02 -2.4466887199925886e-10 -5.3127600800141662e-10  1.9999999999616938e+02 -1.3534270256728338e-10 -2.0882851121819961e-10  1.9999999999629782e+02 -7.4684271578880675e-11 2.5422798535434422e-11  1.9999999999648062e+02 1.3489627158888530e-10 7.4242121289514437e-10  1.9999999999634011e+02 -3.8833466820650074e-11 -9.1614647344881410e-11  1.9999999999644930e+02 8.3993771316683614e-11 1.4799029655096972e-10  1.9999999999636248e+02 -1.8923980312869665e-11 2.8644171655944324e-11  1.9999999999712773e+02 -1.4983313939925092e-10 -1.7025351506431252e-10  1.9999999999714552e+02 -1.6074929411848443e-10 -2.2094338497639627e-10  1.9999999999719785e+02 -6.7039037780949076e-11 -2.2719463201122283e-12  1.9999999999721143e+02 -4.0623523144566565e-11 -2.5954750590895808e-11  1.9999999999533509e+02 -8.4334164978970472e-11 -1.7030954177278435e-10  1.9999999999522066e+02 -2.0620450368604100e-10 -4.7657831227107570e-10  1.9999999999530880e+02 -1.3754943394874099e-10 -2.2179766175896813e-10  1.9999999999451714e+02 -4.7351244762017764e-11 3.0709176376249505e-11  1.9999999999465066e+02 1.0116787678002822e-10 1.4313851540899791e-10  1.9999999999528814e+02 -2.3458979368357703e-10 -1.9818410725439589e-10  1.9999999999535237e+02 -1.3771497187578568e-10 1.7056736097662995e-11  1.9999999999543414e+02 -7.8451561861115465e-11 2.6824335935338241e-11  1.9999999999902346e+02 -8.8956287814847470e-11 -9.2978330116047653e-11  1.9999999999911387e+02 -2.3368579596669856e-10 -5.7702960250840918e-10  1.9999999999817081e+02 -2.2636450364424091e-10 -3.1817800859975973e-10  1.9999999999818226e+02 -7.9516702436829878e-11 3.9306111018535646e-11  1.9999999999821543e+02 1.2844474292397432e-10 7.8367147653138780e-10  1.9999999999816399e+02 -7.6719659670517902e-11 -1.2772488614991960e-10  1.9999999999818925e+02 7.1819521119086148e-11 1.9752779192113154e-10  1.999999