<?xml version="1.0"?>
<VTKFile type="UnstructuredGrid"  version="0.1"  >
<UnstructuredGrid>
<Piece  NumberOfPoints="4058" NumberOfCells="19986">
<Points>
<DataArray  type="Float64"  NumberOfComponents="3"  format="ascii">17.5 22.5 5  17.5 21.25 5  17.5 21.25 3.75  16.25 21.25 3.75  16.25 21.25 5  20 22.5 2.5  20 22.5 3.75  20 21.25 3.75  18.75 21.25 3.75  20 22.5 5  20 20 5  20 21.25 5  18.75 21.25 5  18.75 22.5 5  22.5 22.5 2.5  22.5 22.5 3.75  22.5 21.25 3.75  21.25 21.25 3.75  22.5 22.5 5  21.25 22.5 3.75  21.25 22.5 2.5  21.25 21.25 5  21.25 22.5 5  17.5 22.5 6.25  17.5 21.25 6.25  16.25 21.25 6.25  17.5 22.5 7.5  20 21.25 6.25  18.75 21.25 6.25  20 22.5 6.25  20 22.5 7.5  18.75 22.5 6.25  18.75 22.5 7.5  22.5 22.5 6.25  22.5 21.25 6.25  21.25 21.25 6.25  22.5 22.5 7.5  22.5 20 7.5  22.5 21.25 7.5  21.25 21.25 7.5  21.25 22.5 6.25  21.25 22.5 7.5  22.5 21.25 8.75  21.25 21.25 8.75  22.5 22.5 8.75  22.5 22.5 10  21.25 22.5 8.75  20 22.5 8.75  20 22.5 10  21.25 22.5 10  0 30 0  1.25 31.25 1.25  1.25 31.25 0  0 31.25 0  0 32.5 0  1.25 32.5 1.25  1.25 32.5 0  2.5 32.5 0  2.5 32.5 1.25  2.5 32.5 2.5  0 31.25 1.25  0 32.5 1.25  0 32.5 2.5  1.25 32.5 2.5  1.25 33.75 1.25  1.25 33.75 0  2.5 33.75 1.25  2.5 33.75 0  2.5 35 0  2.5 35 1.25  2.5 35 2.5  2.5 33.75 2.5  1.25 33.75 2.5  0 33.75 0  0 35 0  1.25 35 1.25  1.25 35 0  0 33.75 1.25  0 33.75 2.5  0 35 2.5  1.25 35 2.5  0 35 1.25  3.75 33.75 1.25  3.75 33.75 0  3.75 35 1.25  3.75 35 0  5 35 0  5 35 1.25  5 35 2.5  3.75 33.75 2.5  3.75 35 2.5  1.25 36.25 1.25  1.25 36.25 0  2.5 36.25 1.25  2.5 36.25 0  2.5 37.5 0  2.5 37.5 1.25  2.5 37.5 2.5  2.5 36.25 2.5  1.25 36.25 2.5  0 36.25 0  0 37.5 0  1.25 37.5 1.25  1.25 37.5 0  0 36.25 1.25  0 36.25 2.5  0 37.5 2.5  1.25 37.5 2.5  0 37.5 1.25  3.75 36.25 1.25  3.75 36.25 0  5 36.25 1.25  5 36.25 0  5 37.5 0  5 37.5 1.25  5 37.5 2.5  5 36.25 2.5  3.75 36.25 2.5  3.75 37.5 1.25  3.75 37.5 0  3.75 37.5 2.5  6.25 36.25 1.25  6.25 35 1.25  6.25 36.25 2.5  6.25 35 2.5  7.5 35 2.5  7.5 36.25 2.5  7.5 37.5 2.5  6.25 36.25 0  6.25 37.5 1.25  6.25 37.5 0  7.5 37.5 0  7.5 37.5 1.25  6.25 37.5 2.5  1.25 38.75 1.25  1.25 38.75 0  2.5 38.75 1.25  2.5 38.75 0  2.5 40 0  2.5 40 1.25  2.5 40 2.5  2.5 38.75 2.5  1.25 38.75 2.5  0 38.75 0  0 40 0  1.25 40 1.25  1.25 40 0  0 38.75 1.25  0 38.75 2.5  0 40 2.5  1.25 40 2.5  0 40 1.25  3.75 38.75 1.25  3.75 38.75 0  5 38.75 1.25  5 38.75 0  5 40 0  5 40 1.25  5 40 2.5  5 38.75 2.5  3.75 38.75 2.5  3.75 40 1.25  3.75 40 0  3.75 40 2.5  6.25 38.75 1.25  6.25 38.75 0  7.5 38.75 1.25  7.5 38.75 0  7.5 40 0  7.5 40 1.25  7.5 40 2.5  7.5 38.75 2.5  6.25 38.75 2.5  6.25 40 1.25  6.25 40 0  6.25 40 2.5  8.75 38.75 1.25  8.75 37.5 1.25  8.75 38.75 2.5  8.75 37.5 2.5  10 37.5 2.5  10 38.75 2.5  10 40 2.5  8.75 38.75 0  8.75 40 1.25  8.75 40 0  10 40 0  10 40 1.25  8.75 40 2.5  1.25 41.25 1.25  1.25 41.25 0  2.5 41.25 1.25  2.5 41.25 0  2.5 42.5 0  2.5 42.5 1.25  2.5 42.5 2.5  2.5 41.25 2.5  1.25 41.25 2.5  0 41.25 0  0 42.5 0  1.25 42.5 1.25  1.25 42.5 0  0 41.25 1.25  0 41.25 2.5  0 42.5 2.5  1.25 42.5 2.5  0 42.5 1.25  3.75 41.25 1.25  3.75 41.25 0  5 41.25 1.25  5 41.25 0  5 42.5 0  5 42.5 1.25  5 42.5 2.5  5 41.25 2.5  3.75 41.25 2.5  3.75 42.5 1.25  3.75 42.5 0  3.75 42.5 2.5  6.25 41.25 1.25  6.25 41.25 0  7.5 41.25 1.25  7.5 41.25 0  7.5 42.5 0  7.5 42.5 1.25  7.5 42.5 2.5  7.5 41.25 2.5  6.25 41.25 2.5  6.25 42.5 1.25  6.25 42.5 0  6.25 42.5 2.5  8.75 41.25 1.25  8.75 41.25 0  8.75 41.25 2.5  1.25 43.75 1.25  1.25 43.75 0  2.5 43.75 1.25  2.5 43.75 0  2.5 45 0  2.5 45 1.25  2.5 45 2.5  2.5 43.75 2.5  1.25 43.75 2.5  0 43.75 0  0 45 0  1.25 45 1.25  1.25 45 0  0 43.75 1.25  0 43.75 2.5  0 45 2.5  1.25 45 2.5  0 45 1.25  3.75 43.75 1.25  3.75 43.75 0  5 43.75 1.25  5 43.75 0  5 45 0  5 45 1.25  5 45 2.5  5 43.75 2.5  3.75 43.75 2.5  3.75 45 1.25  3.75 45 0  3.75 45 2.5  6.25 43.75 1.25  6.25 43.75 0  6.25 43.75 2.5  7.5 43.75 2.5  7.5 45 2.5  6.25 45 1.25  6.25 45 0  6.25 45 2.5  1.25 46.25 1.25  1.25 46.25 0  2.5 46.25 1.25  2.5 46.25 0  2.5 47.5 0  2.5 47.5 1.25  2.5 47.5 2.5  2.5 46.25 2.5  1.25 46.25 2.5  0 46.25 0  0 47.5 0  1.25 47.5 1.25  1.25 47.5 0  0 46.25 1.25  0 46.25 2.5  0 47.5 2.5  1.25 47.5 2.5  0 47.5 1.25  3.75 46.25 1.25  3.75 46.25 0  5 46.25 1.25  5 46.25 0  5 47.5 0  5 47.5 1.25  5 47.5 2.5  5 46.25 2.5  3.75 46.25 2.5  3.75 47.5 1.25  3.75 47.5 0  3.75 47.5 2.5  6.25 46.25 1.25  6.25 46.25 0  6.25 46.25 2.5  6.25 47.5 2.5  6.25 47.5 1.25  1.25 48.75 1.25  1.25 48.75 0  2.5 48.75 1.25  2.5 48.75 0  2.5 50 0  2.5 50 1.25  2.5 50 2.5  2.5 48.75 2.5  1.25 48.75 2.5  0 48.75 0  0 50 0  1.25 50 1.25  1.25 50 0  0 48.75 1.25  0 48.75 2.5  0 50 2.5  1.25 50 2.5  0 50 1.25  3.75 48.75 1.25  3.75 48.75 0  5 48.75 1.25  5 48.75 0  5 50 0  5 50 1.25  5 50 2.5  5 48.75 2.5  3.75 48.75 2.5  3.75 50 1.25  3.75 50 0  3.75 50 2.5  6.25 48.75 1.25  6.25 48.75 2.5  6.25 48.75 0  1.25 33.75 3.75  2.5 33.75 3.75  2.5 35 3.75  2.5 35 5  1.25 35 3.75  0 33.75 3.75  0 32.5 3.75  0 32.5 5  1.25 33.75 5  0 33.75 5  0 35 5  1.25 35 5  0 35 3.75  3.75 33.75 3.75  3.75 35 3.75  5 35 3.75  5 35 5  3.75 35 5  1.25 36.25 3.75  2.5 36.25 3.75  2.5 37.5 3.75  2.5 37.5 5  2.5 36.25 5  1.25 36.25 5  1.25 37.5 3.75  0 36.25 3.75  0 36.25 5  0 37.5 5  1.25 37.5 5  0 37.5 3.75  3.75 36.25 3.75  5 36.25 3.75  5 37.5 3.75  5 37.5 5  5 36.25 5  3.75 36.25 5  3.75 37.5 3.75  3.75 37.5 5  6.25 36.25 3.75  7.5 36.25 3.75  7.5 37.5 3.75  7.5 37.5 5  6.25 35 3.75  7.5 35 3.75  7.5 35 5  7.5 36.25 5  6.25 36.25 5  6.25 35 5  6.25 37.5 3.75  6.25 37.5 5  8.75 36.25 3.75  8.75 35 3.75  8.75 36.25 5  8.75 35 5  10 35 5  10 36.25 5  10 37.5 5  8.75 36.25 2.5  8.75 37.5 3.75  10 37.5 3.75  8.75 37.5 5  1.25 38.75 3.75  2.5 38.75 3.75  2.5 40 3.75  2.5 40 5  2.5 38.75 5  1.25 38.75 5  1.25 40 3.75  0 38.75 3.75  0 38.75 5  0 40 5  1.25 40 5  0 40 3.75  3.75 38.75 3.75  5 38.75 3.75  5 40 3.75  5 40 5  5 38.75 5  3.75 38.75 5  3.75 40 3.75  3.75 40 5  6.25 38.75 3.75  7.5 38.75 3.75  7.5 40 3.75  7.5 40 5  7.5 38.75 5  6.25 38.75 5  6.25 40 3.75  6.25 40 5  8.75 38.75 3.75  10 38.75 3.75  10 40 3.75  10 40 5  10 38.75 5  8.75 38.75 5  8.75 40 3.75  8.75 40 5  11.25 38.75 3.75  11.25 38.75 5  1.25 41.25 3.75  2.5 41.25 3.75  2.5 42.5 3.75  2.5 42.5 5  2.5 41.25 5  1.25 41.25 5  1.25 42.5 3.75  0 41.25 3.75  0 41.25 5  0 42.5 5  1.25 42.5 5  0 42.5 3.75  3.75 41.25 3.75  5 41.25 3.75  5 42.5 3.75  5 42.5 5  5 41.25 5  3.75 41.25 5  3.75 42.5 3.75  3.75 42.5 5  6.25 41.25 3.75  7.5 41.25 3.75  7.5 42.5 3.75  7.5 42.5 5  7.5 41.25 5  6.25 41.25 5  6.25 42.5 3.75  6.25 42.5 5  8.75 41.25 3.75  8.75 41.25 5  10 41.25 5  10 42.5 5  8.75 42.5 5  8.75 42.5 3.75  1.25 43.75 3.75  2.5 43.75 3.75  2.5 45 3.75  2.5 45 5  2.5 43.75 5  1.25 43.75 5  1.25 45 3.75  0 43.75 3.75  0 43.75 5  0 45 5  1.25 45 5  0 45 3.75  3.75 43.75 3.75  5 43.75 3.75  5 45 3.75  5 45 5  5 43.75 5  3.75 43.75 5  3.75 45 3.75  3.75 45 5  6.25 43.75 3.75  7.5 43.75 3.75  7.5 45 3.75  7.5 45 5  7.5 43.75 5  6.25 43.75 5  6.25 45 3.75  6.25 45 5  8.75 43.75 3.75  8.75 43.75 5  1.25 46.25 3.75  2.5 46.25 3.75  2.5 47.5 3.75  2.5 47.5 5  2.5 46.25 5  1.25 46.25 5  1.25 47.5 3.75  0 46.25 3.75  0 46.25 5  0 47.5 5  1.25 47.5 5  0 47.5 3.75  3.75 46.25 3.75  5 46.25 3.75  5 47.5 3.75  5 47.5 5  5 46.25 5  3.75 46.25 5  3.75 47.5 3.75  3.75 47.5 5  6.25 46.25 3.75  6.25 46.25 5  6.25 47.5 3.75  6.25 47.5 5  1.25 48.75 3.75  2.5 48.75 3.75  2.5 50 3.75  2.5 50 5  2.5 48.75 5  1.25 48.75 5  1.25 50 3.75  0 48.75 3.75  0 48.75 5  0 50 5  1.25 50 5  0 50 3.75  3.75 48.75 3.75  5 48.75 3.75  5 50 3.75  5 50 5  5 48.75 5  3.75 48.75 5  3.75 50 3.75  3.75 50 5  6.25 48.75 3.75  6.25 48.75 5  1.25 33.75 6.25  1.25 32.5 6.25  0 32.5 6.25  0 32.5 7.5  1.25 33.75 7.5  1.25 32.5 7.5  2.5 32.5 7.5  2.5 33.75 7.5  2.5 35 7.5  1.25 35 6.25  2.5 35 6.25  0 33.75 6.25  0 33.75 7.5  0 35 7.5  1.25 35 7.5  0 35 6.25  1.25 36.25 6.25  2.5 36.25 6.25  2.5 37.5 6.25  2.5 37.5 7.5  2.5 36.25 7.5  1.25 36.25 7.5  1.25 37.5 6.25  0 36.25 6.25  0 36.25 7.5  0 37.5 7.5  1.25 37.5 7.5  0 37.5 6.25  3.75 36.25 6.25  5 36.25 6.25  5 37.5 6.25  5 37.5 7.5  3.75 35 6.25  5 35 6.25  5 35 7.5  5 36.25 7.5  3.75 36.25 7.5  3.75 35 7.5  3.75 37.5 6.25  3.75 37.5 7.5  6.25 36.25 6.25  7.5 36.25 6.25  7.5 37.5 6.25  7.5 37.5 7.5  6.25 35 6.25  7.5 35 6.25  7.5 35 7.5  7.5 36.25 7.5  6.25 36.25 7.5  6.25 35 7.5  6.25 37.5 6.25  6.25 37.5 7.5  8.75 36.25 6.25  10 36.25 6.25  10 37.5 6.25  10 37.5 7.5  8.75 35 6.25  10 35 6.25  10 35 7.5  10 36.25 7.5  8.75 36.25 7.5  8.75 35 7.5  8.75 37.5 6.25  8.75 37.5 7.5  11.25 36.25 6.25  11.25 36.25 7.5  11.25 37.5 7.5  12.5 37.5 7.5  11.25 37.5 6.25  1.25 38.75 6.25  2.5 38.75 6.25  2.5 40 6.25  2.5 40 7.5  2.5 38.75 7.5  1.25 38.75 7.5  1.25 40 6.25  0 38.75 6.25  0 38.75 7.5  0 40 7.5  1.25 40 7.5  0 40 6.25  3.75 38.75 6.25  5 38.75 6.25  5 40 6.25  5 40 7.5  5 38.75 7.5  3.75 38.75 7.5  3.75 40 6.25  3.75 40 7.5  6.25 38.75 6.25  7.5 38.75 6.25  7.5 40 6.25  7.5 40 7.5  7.5 38.75 7.5  6.25 38.75 7.5  6.25 40 6.25  6.25 40 7.5  8.75 38.75 6.25  10 38.75 6.25  10 40 6.25  10 40 7.5  10 38.75 7.5  8.75 38.75 7.5  8.75 40 6.25  8.75 40 7.5  11.25 38.75 6.25  11.25 38.75 7.5  12.5 38.75 7.5  12.5 40 7.5  11.25 40 7.5  11.25 40 6.25  1.25 41.25 6.25  2.5 41.25 6.25  2.5 42.5 6.25  2.5 42.5 7.5  2.5 41.25 7.5  1.25 41.25 7.5  1.25 42.5 6.25  0 41.25 6.25  0 41.25 7.5  0 42.5 7.5  1.25 42.5 7.5  0 42.5 6.25  3.75 41.25 6.25  5 41.25 6.25  5 42.5 6.25  5 42.5 7.5  5 41.25 7.5  3.75 41.25 7.5  3.75 42.5 6.25  3.75 42.5 7.5  6.25 41.25 6.25  7.5 41.25 6.25  7.5 42.5 6.25  7.5 42.5 7.5  7.5 41.25 7.5  6.25 41.25 7.5  6.25 42.5 6.25  6.25 42.5 7.5  8.75 41.25 6.25  10 41.25 6.25  10 42.5 6.25  10 42.5 7.5  10 41.25 7.5  8.75 41.25 7.5  8.75 42.5 6.25  8.75 42.5 7.5  11.25 41.25 6.25  11.25 41.25 7.5  1.25 43.75 6.25  2.5 43.75 6.25  2.5 45 6.25  2.5 45 7.5  2.5 43.75 7.5  1.25 43.75 7.5  1.25 45 6.25  0 43.75 6.25  0 43.75 7.5  0 45 7.5  1.25 45 7.5  0 45 6.25  3.75 43.75 6.25 
[...]
<PointData  Vectors="u"> 
<DataArray  type="Float64"  Name="u"  NumberOfComponents="3" format="ascii">1.9999999998760100e+02 1.2483456598070098e-10 1.4739134658189825e-10  1.9999999998751881e+02 -3.0759540514666741e-11 2.7992649865111127e-11  1.9999999998729578e+02 -1.0695164820577298e-10 -3.3071464447811551e-11  1.9999999998833025e+02 -9.7722577409019171e-11 -1.7514740810578383e-11  1.9999999998832743e+02 -9.1270023145978410e-11 -1.5222847471713034e-10  1.9999999998584954e+02 9.1392060958756543e-11 1.7563691066221106e-10  1.9999999998584019e+02 -1.0561834456934878e-10 2.2760111590623763e-11  1.9999999998556783e+02 -1.1124752516983308e-10 -1.1645849231814608e-10  1.9999999998658510e+02 -6.4014700254847063e-11 -6.9080532006622284e-11  1.9999999998586682e+02 1.3607443854511424e-10 1.1512243734935384e-10  1.9999999998586148e+02 1.3325600639490408e-10 1.1792602669330786e-10  1.9999999998573426e+02 -9.3207176769162880e-11 1.2236532674871618e-11  1.9999999998658544e+02 -1.0597109250677410e-10 -1.5891920367095824e-10  1.9999999998660346e+02 -1.0774854382196255e-10 8.5844197740417118e-11  1.9999999998420336e+02 8.4741434570908669e-11 1.6289884525730562e-10  1.9999999998404363e+02 -1.2957175607134935e-10 3.3270090104517623e-11  1.9999999998396143e+02 -3.3491150787094830e-11 -1.2578683015597057e-10  1.9999999998482508e+02 -6.4162510117195546e-11 -1.0209943965105678e-10  1.9999999998416601e+02 1.0973323650977741e-10 9.7565021407654465e-11  1.9999999998482602e+02 -1.6522780240788050e-10 -7.6889786670326358e-11  1.9999999998491430e+02 -1.1063843273584731e-10 7.6424749930692380e-11  1.9999999998481132e+02 -9.9999471630468237e-11 -1.4439314023824030e-10  1.9999999998492709e+02 -6.1093524688692003e-11 1.3656183417050984e-11  1.9999999998756661e+02 -6.1159880989947870e-11 5.9395430055339128e-11  1.9999999998731079e+02 -8.1581131315823624e-11 -3.4477951220086601e-11  1.9999999998824634e+02 -7.7590769148158463e-11 -3.6548620510658404e-11  1.9999999998758469e+02 1.2426411951259966e-10 1.1112760277222397e-10  1.9999999998557848e+02 -1.0077477719285702e-10 -6.2903868077895554e-11  1.9999999998655397e+02 -8.4628591264925067e-11 -4.8319790171853088e-11  1.9999999998579398e+02 -6.0676037651136051e-11 7.4706490969493375e-11  1.9999999998584036e+02 1.1291315924043975e-10 1.0382043683978842e-10  1.9999999998650759e+02 -1.3266483270183828e-10 -6.1734482390664187e-11  1.9999999998664416e+02 -7.9140065553105409e-11 5.7821113924269480e-11  1.9999999998393906e+02 -4.1551181723585926e-11 -7.7608977648298438e-11  1.9999999998391047e+02 -1.1682352315191869e-10 -1.0252296654525525e-10  1.9999999998481823e+02 -8.3872081923772609e-11 -5.7193104173085391e-11  1.9999999998412630e+02 1.1699644042204722e-10 1.2839228331724585e-10  1.9999999998414194e+02 9.8555215519557562e-11 1.0993516429423945e-10  1.9999999998395432e+02 -1.0557758227386221e-10 4.2916275642265571e-12  1.9999999998477210e+02 -1.2236673042741435e-10 -1.6520905316269951e-10  1.9999999998479686e+02 -1.4387129829104952e-10 -7.6247968198486588e-11  1.9999999998487345e+02 -7.0241241829935790e-11 4.8461384993801204e-11  1.9999999998385931e+02 -1.0966344241107839e-10 -4.2263575331714431e-11  1.9999999998479993e+02 -7.4350558070853777e-11 -5.7947503521652843e-11  1.9999999998391519e+02 -5.8532542573379549e-11 2.0345216097922346e-11  1.9999999998412062e+02 1.1027803418440815e-10 1.0936947210145211e-10  1.9999999998481911e+02 -1.2599607276481335e-10 -6.6495364198307184e-11  1.9999999998577803e+02 -4.1713640674895549e-11 2.4909735878137197e-11  1.9999999998584633e+02 1.5757881169018322e-10 1.1468188045024798e-10  1.9999999998487249e+02 -4.4363678623452050e-11 2.7265787005819562e-11  2.0000000000065074e+02 1.1389573306277831e-11 7.7055251830888347e-10  1.9999999999898341e+02 -6.9101566027548758e-11 -1.2061474641251577e-10  1.9999999999879904e+02 -6.6782227029389172e-11 -6.3177416207683545e-10  1.9999999999985388e+02 -6.5319255171455571e-11 -1.2196847704388518e-11  2.0000000000063400e+02 7.9380868662943487e-11 8.0019848421949932e-10  1.9999999999895383e+02 -3.2881321957255803e-10 -2.0412669286733491e-10  1.9999999999899308e+02 -1.7940706406506687e-10 2.8857376430538738e-11  1.9999999999830305e+02 2.9542164032217674e-11 7.6286412506303857e-10  1.9999999999805570e+02 5.2488282068613591e-12 -8.4433864503159149e-11  1.9999999999826863e+02 -2.5381260601451092e-11 1.8424991741960810e-10  1.9999999999971789e+02 -8.8747302756292782e-11 -1.6798565263629545e-11  1.9999999999996061e+02 -1.0053581957534328e-10 -8.6627910017030483e-11  2.0000000000056821e+02 -4.9442132664374062e-12 1.9354326764821377e-10  1.9999999999896693e+02 -1.9438578482543972e-11 3.6244510896155158e-12  1.9999999999893637e+02 -1.0706585609592265e-10 -1.4845192283027512e-10  1.9999999999896113e+02 -2.7286248134736913e-10 -5.0702694847481225e-10  1.9999999999796384e+02 -1.4133463407072086e-10 -2.2030008893642235e-10  1.9999999999802898e+02 -6.2993896901250611e-11 1.9826727917763134e-11  1.9999999999824345e+02 1.4276863995816400e-10 7.6023494559551428e-10  1.9999999999819087e+02 -1.1630646710025272e-10 -1.0032069573532659e-10  1.9999999999820503e+02 1.0611959278514523e-10 2.1122024084372979e-10  1.9999999999818201e+02 -6.3895700851678658e-11 -6.5145536282757512e-11  1.9999999999903386e+02 -1.2007419743586609e-10 -9.1905805854019791e-11  2.0000000000003365e+02 -1.3599240969760587e-10 6.5850794219088857e-11  2.0000000000059319e+02 1.6416630902368236e-10 7.6547654205711414e-10  1.9999999999908408e+02 -6.1776593206496770e-11 -1.9091111887870303e-10  1.9999999999907706e+02 3.8679321656990772e-11 3.6867251474657058e-11  1.9999999999964604e+02 -1.1959981328289375e-10 -7.0600410201078273e-11  2.0000000000000904e+02 -9.3813906508989321e-11 -3.0113881869631196e-11  2.0000000000056099e+02 1.1118339917636142e-10 2.0924859338644703e-10  1.9999999999898503e+02 -7.3179562411581982e-11 1.1486770761431346e-10  1.9999999999999710e+02 -5.1990678911868905e-11 -3.7306886999711060e-11  1.9999999999719714e+02 -7.6262519365280778e-11 -1.6427421827026763e-10  1.9999999999705273e+02 -5.2179124911939140e-11 -5.9404953556390260e-10  1.9999999999710380e+02 -2.5713197582360066e-10 -2.4501463733616385e-10  1.9999999999720220e+02 -1.6985392839783611e-10 6.6583017523538411e-11  1.9999999999651291e+02 5.7301263445650758e-11 7.7550148379552624e-10  1.9999999999624936e+02 -3.4395415150729212e-12 -1.2641205604806654e-10  1.9999999999651754e+02 -3.8510972287312745e-12 2.2859284000775375e-10  1.9999999999719657e+02 -9.1995779707400858e-11 -2.6495770877934830e-10  1.9999999999721081e+02 -2.6090678020205606e-11 9.4244166246716961e-11  1.9999999999900038e+02 -1.0591729423272771e-10 -1.2324315755216277e-10  1.9999999999910708e+02 -2.3786470310266798e-10 -5.7621730435965880e-10  1.9999999999807440e+02 -2.5305373702114563e-10 -3.4292347027259876e-10  1.9999999999814304e+02 -9.6893562492240476e-11 -1.1141588830003830e-12  1.9999999999822765e+02 1.7384250074361424e-10 7.6969449366532849e-10  1.9999999999817433e+02 -6.5281405990565996e-11 -1.1837377296221615e-10  1.9999999999818226e+02 1.5875479135128275e-10 2.3004179146615429e-10  1.9999999999826602e+02 -7.4739392031269614e-11 2.6866283307352886e-11  1.9999999999906714e+02 -1.8002785957583166e-10 -8.9917352015912998e-11  2.0000000000000838e+02 -5.3268057998867303e-11 6.8094362702891703e-11  2.0000000000057895e+02 1.4647670780428646e-10 7.9452364983333736e-10  1.9999999999904779e+02 -1.4576485646207163e-10 -1.9994737555961869e-10  1.9999999999902414e+02 -6.2240654707154650e-11 -5.4924953001806549e-11  1.9999999999965851e+02 -5.2240156662479303e-11 -1.3951162260889022e-10  2.0000000000004678e+02 -8.8548241272750677e-11 -8.3564711656303121e-11  2.0000000000053137e+02 1.4671190560942334e-10 1.5726608378630074e-10  1.9999999999904216e+02 -6.7491920684838456e-11 4.5810796781615558e-11  1.9999999999999412e+02 -9.2302862404670461e-11 -7.4846564304333964e-11  1.9999999999720032e+02 -7.4127949907137253e-11 -1.6033616684509676e-10  1.9999999999705284e+02 -1.9193862867952714e-10 -4.6034623895110776e-10  1.9999999999614843e+02 -9.3273427670639485e-11 -2.5007299852081962e-10  1.9999999999630893e+02 -7.9902365581924707e-11 -7.1658963982217716e-12  1.9999999999644021e+02 1.3909090960031432e-10 7.1552400559427652e-10  1.9999999999629091e+02 7.5272681143561414e-12 -7.7020726365759791e-11  1.9999999999646124e+02 1.1271088481447460e-10 2.0580112097271759e-10  1.9999999999635367e+02 -2.7326640113203299e-11 9.6121393499764221e-11  1.9999999999714018e+02 -1.3573399981852582e-10 -1.2574304567663464e-10  1.9999999999714137e+02 -1.5410073753900719e-10 -2.4834949097433845e-10  1.9999999999719068e+02 -3.6985127973673851e-11 2.8632417393016143e-12  1.9999999999724773e+02 -3.8448557918602379e-11 4.9676742407034761e-11  1.9999999999542447e+02 -1.2757554195744493e-10 -1.1678936135033801e-10  1.9999999999529197e+02 5.5320022681059793e-13 -1.2248620174869010e-10  1.9999999999536462e+02 -1.0917003250583965e-10 -2.1434032994699616e-10  1.9999999999544471e+02 7.9285242863618253e-11 -2.0665515993443479e-12  1.9999999999462443e+02 -9.8203362276037569e-12 1.5959670804418169e-10  1.9999999999437563e+02 1.4711662940976583e-11 6.9267102942845308e-11  1.9999999999468625e+02 9.9483641228183798e-11 1.5304920312373703e-10  1.9999999999548376e+02 -1.5103516862240064e-11 -2.7928236290900925e-10  1.9999999999537295e+02 -2.4270073174906172e-10 -6.6644035728020280e-11  1.9999999999546748e+02 -1.1458350703411133e-10 1.7389534505181809e-11  1.9999999999469580e+02 5.8801728663947823e-11 6.4222684317762596e-10  1.9999999999451791e+02 9.2794791680175344e-11 -4.3138671239904570e-11  1.9999999999546034e+02 -2.6108053497922615e-11 5.2455748773957944e-11  1.9999999999897409e+02 -7.5389074968804214e-11 -9.4176521124656021e-11  1.9999999999909335e+02 -2.4428411544371068e-10 -5.8162412520033671e-10  1.9999999999814119e+02 -2.6327120069464237e-10 -3.2355122385854857e-10  1.9999999999816515e+02 -1.0958377834803299e-10 2.6960090864246854e-11  1.9999999999819320e+02 1.9158672421831411e-10 7.5642570549197750e-10  1.9999999999811956e+02 -4.3186118467016231e-11 -5.8036680012272785e-11  1.9999999999816976e+02 1.4807523054556694e-10 2.2739488878680193e-10  1.9999999999823808e+02 -3.4556890266735959e-11 2.8389135437508511e-11  1.9999999999906012e+02 -1.1967341328048832e-10 -1.3922438096095454e-10  2.0000000000005534e+02 -7.1559270126602644e-11 4.3734043408219010e-11  2.0000000000059305e+02 1.7353648124217334e-10 8.1131064801964148e-10  1.9999999999903835e+02 -1.2003004464189443e-10 -2.0617377906755968e-10  1.9999999999901888e+02 -6.2271938870278328e-11 2.0279879611065148e-11  1.9999999999960755e+02 -6.8500426759885356e-11 -1.1068172409235453e-10  2.0000000000000827e+02 -6.0464684118786580e-11 -8.1111441613497465e-11  2.0000000000055036e+02 1.3913775645716483e-10 1.6177349054123644e-10  1.9999999999900942e+02 -7.5611345732188024e-11 4.0062185177808492e-11  2.0000000000003803e+02 -5.7655582926221132e-11 -5.8820716934602743e-11  1.9999999999719088e+02 -1.0158591612152281e-10 -1.8708266261989384e-10  1.9999999999708922e+02 -2.5284908914560917e-10 -5.2850871343487319e-10  1.9999999999617697e+02 -1.2455115753208524e-10 -2.1142046309228647e-10  1.9999999999627474e+02 -3.9150673103460865e-11 2.4279275343417280e-11  1.9999999999650166e+02 1.5262676820292502e-10 7.1430101472640916e-10  1.9999999999635662e+02 1.7537438810051572e-11 -1.0640253106245788e-10  1.9999999999644336e+02 9.4283036469526021e-11 1.8643470364910093e-10  1.9999999999634133e+02 -2.5307108618033522e-11 6.1975894820518251e-11  1.9999999999715487e+02 -1.0475711158892905e-10 -1.1302306586122458e-10  1.9999999999714760e+02 -1.5608010026744879e-10 -2.3120100488470453e-10  1.9999999999721237e+02 -9.5777205346769183e-11 2.9824320686247835e-12  1.9999999999722462e+02 -8.2620929393179098e-13 1.0039647856844801e-10  1.9999999999539631e+02 -5.8481299893810523e-11 -1.6678328546834612e-10  1.9999999999523865e+02 -2.4274793527281556e-10 -4.3512087624840984e-10  1.9999999999447266e+02 -1.7151959714039479e-10 -7.1784542896099500e-11  1.9999999999445012e+02 -5.0081675860561461e-11 -5.7397744513304764e-11  1.9999999999466027e+02 1.3151154822351566e-10 7.0900201194932431e-10  1.9999999999450745e+02 1.2220041355049642e-12 -5.8434382381578657e-11  1.9999999999463105e+02 8.1777128469969655e-11 1.7902376271182431e-10  1.9999999999443867e+02 -3.1763246599407140e-11 1.2030935168428083e-10  1.9999999999536735e+02 -1.0500819586283380e-10 -1.9761998124621516e-10  1.9999999999533296e+02 -2.2789098475112528e-10 -2.1720109112043166e-10  1.9999999999534461e+02 -1.0079812099200192e-10 1.2457471592284553e-11  1.9999999999543033e+02 -3.5157055973824094e-11 3.3883696506111923e-11  1.9999999999354171e+02 -1.6381218327386991e-10 -4.8850679698816886e-11  1.9999999999343430e+02 -2.8911758530860067e-12 1.0896995516513637e-10  1.9999999999340014e+02 -2.4748482095624997e-10 2.4598319184080037e-11  1.9999999999359463e+02 -1.3594636446966284e-10 1.8996454128405112e-10  1.9999999999285606e+02 5.1302039372497726e-11 1.1747521780720528e-10  1.9999999999268371e+02 -1.0131377510159122e-10 4.4913003448325421e-11  1.9999999999288465e+02 9.8357700964238107e-11 1.1052929985372752e-10  1.9999999999363382e+02 2.1452063646317053e-12 -2.4658957526854170e-10  1.9999999999353341e+02 -2.1805688306032386e-10 -1.1906421767003661e-10  1.9999999999359122e+02 -9.3270114999503433e-11 2.2524002001186762e-11  1.9999999999286388e+02 6.8713859396466245e-11 6.8510824754930371e-10  1.9999999999269448e+02 6.7432020389748502e-11 -1.5364646025512993e-11  1.9999999999359551e+02 3.4227701702890449e-11 9.2620633084176348e-12  1.9999999999898679e+02 -9.4298259228379213e-11 -1.0601707578357894e-10  1.9999999999908349e+02 -2.2779599459078323e-10 -5.2677241919343630e-10  1.9999999999808776e+02 -2.1945488300708024e-10 -2.9068680479124251e-10  1.9999999999814898e+02 -5.9729285945976988e-11 1.2802052074582888e-11  1.9999999999817652e+02 1.8506098141361729e-10 7.4448363262713807e-10  1.9999999999811803e+02 -9.0870538687141396e-11 -7.1729493236854915e-11  1.9999999999814827e+02 1.5735610090337854e-10 2.0294171004170982e-10  1.9999999999822649e+02 -3.7710424206053441e-11 -3.3672461558827826e-11  1.9999999999907379e+02 -1.2833210624370858e-10 -1.1987097496943725e-10  2.0000000000002655e+02 -5.5752604018701215e-11 7.2291980556173505e-11  2.0000000000058583e+02 1.1271403192615919e-10 7.6193116244949332e-10  1.9999999999908144e+02 -1.6763140228428819e-10 -1.8034827875017584e-10  1.9999999999905202e+02 -6.3344022390216385e-11 -4.1017714658068050e-12  1.9999999999960880e+02 -7.5475137721775880e-11 -9.6385899203082980e-11  1.9999999999993989e+02 -7.5007456020687309e-11 -9.6948789399962019e-11  2.0000000000054118e+02 1.1236220522838568e-10 1.7160805103225985e-10  1.9999999999904725e+02 -6.2552364495064069e-11 2.9261800281777508e-11  1.9999999999999318e+02 -9.6783802279817402e-11 -4.1639619946993812e-11  1.9999999999721027e+02 -6.0040735475188157e-11 -1.5850213274812865e-10  1.9999999999708635e+02 -2.5017082054374863e-10 -4.8282304974623095e-10  1.9999999999613698e+02 -1.1684507357677834e-10 -2.1614842985258192e-10  1.9999999999626874e+02 -6.6465688930720823e-11 -7.3109895677440915e-12  1.9999999999648011e+02 1.4020636708053296e-10 7.2820234331930758e-10  1.9999999999633474e+02 4.3687911208118846e-12 -1.0316452254013578e-10  1.9999999999642830e+02 9.8080718287189405e-11 1.5530613096871838e-10  1.9999999999631092e+02 4.2014402437418136e-11 1.9483744757339595e-11  1.9999999999715814e+02 -1.2916720974063391e-10 -1.5582708138547819e-10  1.9999999999716019e+02 -1.9060854536778519e-10 -2.1013989700545807e-10  1.9999999999721925e+02 -7.7653388742429512e-11 1.7184715152126483e-11  1.9999999999721541e+02 1.1707437538249912e-11 5.8242524815456355e-11  1.9999999999536934e+02 -8.2344072606649229e-11 -1.9478650744049605e-10  1.9999999999522603e+02 -1.9399678561153442e-10 -5.2437020368699388e-10  1.9999999999431662e+02 -1.4966801411517421e-10 -2.2230518366349752e-10  1.9999999999446385e+02 -4.9250969081997007e-11 3.4328762575982173e-11  1.9999999999466291e+02 1.4526573779370122e-10 7.2179316209782574e-10  1.9999999999450307e+02 -8.1249231772293126e-12 -8.7981805999763955e-11  1.9999999999465749e+02 1.1954947950685948e-10 1.8902253966948089e-10  1.9999999999455150e+02 -3.6496234136132772e-11 3.0253790773056249e-11  1.9999999999532164e+02 -1.4368240855049747e-10 -1.6812357023990013e-10  1.9999999999530144e+02 -1.7046489343650582e-10 -2.0062654641193736e-10  1.9999999999539989e+02 -1.0073385568406386e-10 1.4062367427490974e-11  1.9999999999541643e+02 6.4330593143883142e-11 7.1308588592768268e-12  1.9999999999355524e+02 -1.1325853948207377e-10 -1.5187702411310758e-10  1.9999999999341040e+02 -2.9455476183204457e-10 -5.1254750917424196e-10  1.9999999999351135e+02 -9.8406353783404374e-11 -2.0935480696327338e-10  1.9999999999900223e+02 -1.1805646543365771e-10 -7.4537498622558630e-11  1.9999999999913138e+02 -2.5239566075849648e-10 -5.5681495963828047e-10  1.9999999999809671e+02 -2.5343015215465455e-10 -3.2079885138431856e-10  1.9999999999817538e+02 -8.3654196533483708e-11 2.1622061881134569e-11  1.9999999999820815e+02 1.8080474438953950e-10 7.4995761605795148e-10  1.9999999999817521e+02 -7.3712011586063901e-11 -1.1654580198050635e-10  1.9999999999818300e+02 1.4929486349224976e-10 1.8975913447173167e-10  1.9999999999826017e+02 -9.3992361245726269e-11 -2.1228176977676478e-11  1.9999999999907649e+02 -1.8899634972386420e-10 -1.4437537413254959e-10  2.0000000000003652e+02 -7.3404089145666301e-11 8.1360451369538569e-11  2.0000000000057986e+02 1.2347820546109212e-10 7.0912592033680503e-10  1.9999999999908286e+02 -1.8215768664565377e-10 -2.0803377895980848e-10  1.9999999999908565e+02 -8.0216969790186495e-11 1.0655617900680599e-12  1.9999999999966460e+02 -7.8162497651177599e-11 -6.7962982822425170e-11  1.9999999999998715e+02 -5.4638707705919872e-11 -1.0554992947729993e-10  2.0000000000053069e+02 1.1148250000563025e-10 1.8205413097227362e-10  1.9999999999900641e+02 -7.6807602622340180e-11 5.8434444284812701e-11  1.9999999999999645e+02 -1.0578283038794436e-10 -1.9823153213130959e-11  1.9999999999719054e+02 -6.4520097363130168e-11 -1.3333486660392371e-10  1.9999999999706191e+02 -2.4331679849172115e-10 -5.5035515833522364e-10  1.9999999999619371e+02 -1.2924245854010254e-10 -2.0844726775138411e-10  1.9999999999629952e+02 -7.9920001485949224e-11 1.4199320768185355e-11  1.9999999999647838e+02 1.3380641027512395e-10 7.4856161123465018e-10  1.9999999999632487e+02 -5.4361413474131566e-11 -1.0097217946874995e-10  1.9999999999644243e+02 9.0025857584243655e-11 1.5519783406114394e-10  1.9999999999636458e+02 -2.9387357650636728e-11 2.6107018063707546e-11  1.9999999999712318e+02 -1.4466838639136481e-10 -1.7891127608752245e-10  1.9999999999714515e+02 -1.6636944947998841e-10 -2.2004411743913816e-10  1.9999999999718864e+02 -5.8322850073743451e-11 3.7827278639551977e-12  1.9999999999719907e+02 -2.4105479553725852e-11 -1.0602966453816090e-11  1.9999999999534612e+02 -8.3339887529423780e-11 -1.7479243152232579e-10  1.9999999999521256e+02 -1.9192465241200012e-10 -4.6890216182336406e-10  1.9999999999529314e+02 -1.2930821129059765e-10 -2.2110572996773608e-10  1.9999999999451927e+02 -7.0849365278276478e-11 9.2877740204188811e-12  1.9999999999465703e+02 9.7907189376625466e-11 1.4903873948320535e-10  1.9999999999528183e+02 -2.3347502642202942e-10 -2.1128492247345316e-10  1.9999999999536408e+02 -1.5486845498529872e-10 3.9561549123358620e-11  1.9999999999541416e+02 -7.6223085192709676e-11 4.3299469821988321e-11  1.9999999999901658e+02 -8.1293314974334594e-11 -9.7097660429723546e-11  1.9999999999912615e+02 -2.2895282905984667e-10 -6.0199802973005323e-10  1.9999999999817535e+02 -2.2834323928496625e-10 -2.8966035413782276e-10  1.9999999999817689e+02 -7.9842990489714122e-11 2.1433136595282607e-11  1.9999999999822637e+02 1.2902851448833156e-10 7.9399347133687288e-10  1.9999999999816893e+02 -7.8186663080504807e-11 -1.5874969870851275e-10  1.9999999999819391e+02 7.1328043052784271e-11 1.9963263824327606e-10  1.99999999998