<?xml version="1.0"?>
<VTKFile type="UnstructuredGrid"  version="0.1"  >
<UnstructuredGrid>
<Piece  NumberOfPoints="13552" NumberOfCells="64103">
<Points>
<DataArray  type="Float64"  NumberOfComponents="3"  format="ascii">16.3494701385498 2.283320903778076 0.1048400029540062  16.90979897311828 1.992414489354746 0.4328302049854344  16.20539010745207 1.92424090178349 0.4719599540671108  16.48057460784912 1.873760461807251 0.1048400029540062  16.61167907714844 1.464200019836426 0.1048400029540062  16.76571894202055 1.633334487360159 0.7999501560985389  17.0409034424176 1.582854047383921 0.4328302049854344  16.33649457675138 1.514680459812664 0.4719599540671108  16.06131007635434 1.565160899788903 0.8390799051802154  17.47012780768676 1.701508074931415 0.7608204070168626  18.05801010131836 1.980746030807495 0.1048400029540062  18.05891914189664 1.835299170685697 0.8756945358875526  18.00048386386535 1.489613547887461 0.4328302049854344  17.76406895450256 1.841127052869455 0.4328302049854344  18.53083992004395 1.277719020843506 0.1048400029540062  18.57634925842285 0.7192099988460541 0.3905915133655071  18.3444995880127 1.01654851436615 0.1048400029540062  18.38323497772217 0.8676145076751709 0.6106905154883862  18.15815925598145 0.7553780078887939 0.1048400029540062  18.19689464569092 0.6064440011978149 0.6106905154883862  17.87751706834644 2.175083429991467 0.6937546183149131  17.69702403537451 2.369420829175438 1.28266923367582  17.58357592153064 2.035464452053427 1.021744820346341  16.98605918884277 2.993726968765259 1.170645952224731  17.15538176608794 2.3867385867085 1.369680807433874  16.79989934282207 2.69889165650341 1.31366916670833  17.22809349826477 2.347617521848337 0.9657331796207971  17.34154161210864 2.681573898970349 1.226657592950276  17.04193365224406 2.052782209586489 1.108756394104396  16.61373949680137 2.404056344241562 1.456692381191929  17.26752090454102 0.09558500349521637 1.609792947769165  17.08271497153812 0.9843151426414546 1.317464813626728  17.59781973280175 0.694264984370172 1.68006944558344  17.06368535422855 0.6553856363991793 1.783984288609943  17.28655052185059 0.4245145097374916 1.14327347278595  17.30558013916016 0.7534440159797668 0.6767539978027344  17.61684935011132 1.023194490612447 1.213549970600225  16.85984980391609 1.215186269303142 1.958175629450721  17.39398418248928 1.254065617274135 1.854260786424218  17.92811856106248 1.292944965245128 1.750345943397716  17.22347068786621 2.402237892150879 0.1048400029540062  16.91860509233379 2.403147118196221 0.7807661920729674  17.34679924777648 2.051872983541147 0.4328302049854344  16.78647041320801 2.342779397964478 0.1048400029540062  16.48160481767559 2.343688624009819 0.7807661920729674  17.7039909362793 2.721751928329468 3.685894966125488  18.03256511688232 3.080412030220032 3.139673948287964  17.93241407683473 2.67875980555764 2.958341726199417  17.63975524902344 2.92484450340271 3.21053147315979  17.57551956176758 3.127937078475952 2.735167980194092  17.47178077697754 3.165196895599365 1.776800990104675  17.49151205270558 2.414804391863881 1.799131129090389  17.92893062638234 2.502594255980625 1.756728859974583  17.58440240617603 2.767308862387402 1.529735111890248  17.81630899718385 2.900482289192589 2.00379473818901  17.37889042350709 2.812692425075844 2.046197007304817  17.28600007003664 2.460187954552323 2.315593024504958  17.7234186437134 2.547977818669068 2.273190755389152  17.43075981590211 2.794062516514138 2.525380502349525  17.52365016937256 3.146566987037659 2.255984485149384  17.16394996643066 3.098747491836548 2.361990511417389  16.75238037109375 3.069557905197144 1.988813042640686  17.0191902205652 2.764872929874733 2.152203033572822  17.11208057403564 3.117377400398254 1.882807016372681  18.23563003540039 0.4575099945068359 1.116541028022766  17.85287892154357 1.079509034719126 0.9386807175198144  17.8141435318341 1.228443041410105 0.4328302049854344  17.9471540670691 2.912650815842064 1.672002741233139  17.60262584686279 3.17736542224884 1.445008993148804  17.73347091674805 3.189533948898315 1.113216996192932  17.71524747606128 2.779477389036877 1.197943114934376  16.73679465035873 1.809621306772352 1.707434005321325  17.16498880580142 1.458347172117279 1.359498018233792  17.2784369196453 1.79230354923929 1.62042243156327  18.08187429823144 0.8752274798759818 1.433443485710241  18.44167025575345 1.213300130473407 1.053554846390504  17.69912318437462 1.497226520088272 1.255583175207289  18.2879145185845 1.631017615842553 1.370457304077979  17.60705931554956 1.876566459898725 2.032969483951337  17.73506972028311 1.980525717706356 2.619498857967706  18.04447788922632 1.96435632401547 1.990567214835531  17.86817838957887 2.881852380630883 2.482978233233719  17.59886932373047 1.397984027862549 0.1048400029540062  17.38785397342346 1.227476045455591 0.7187872024097985  17.53449856570861 1.549746051396982 0.4328302049854344  17.7318696975708 0.7544110119342804 0.3907970003783703  17.87851428985596 1.076681017875671 0.1048400029540062  17.45222473144531 1.075714021921158 0.3907970003783703  17.41117000579834 1.900110960006714 0.1048400029540062  17.64074039459229 2.191491961479187 0.1048400029540062  17.82843971252441 1.689365029335022 0.1048400029540062  17.9621057510376 3.397747993469238 1.54910147190094  18.33687502126332 2.26687523141225 3.233792303906145  17.94406515340443 2.111307704594928 3.304649828777971  18.18413937052957 1.500863480860389 2.923404691430454  17.7515754699707 0.2765474990010262 1.363166987895966  17.77060508728027 0.6054770052433014 0.8966475129127502  17.47847080230713 2.795885920524597 0.6090284995734692  17.35976505279541 3.091630458831787 1.141931474208832  17.46024736162036 2.385829360663159 0.6937546183149131  17.10476493835449 2.697982430458069 0.6377429775893688  17.79886531829834 0.09558500349521637 1.868052959442139  18.33020973205566 0.09558500349521637 2.126312971115112  18.12916414655907 0.694264984370172 1.938329457256414  18.28291988372803 0.2765474990010262 1.621426999568939  17.22891998291016 3.079461932182312 1.473723471164703  16.33752478657785 1.984608622015233 1.147886143186072  16.949869783419 2.432122149396942 1.886142702848443  17.04276013688946 2.784626619920464 1.616746685648302  16.68305993394756 2.736807124719353 1.722752711916307  17.8125712982185 1.831182897210283 1.516507588536768  17.07292493697636 1.837687111927733 2.13688432697784  17.52199458722283 1.358024875081766 2.440790160440587  18.40427384674834 2.302428974612896 1.610678575515794  16.91757488250732 1.933218955993652 0.1048400029540062  17.10527420043945 1.431092023849487 0.1048400029540062  18.06485462188721 1.337851524353027 0.1048400029540062  18.29442501068115 1.6292325258255 0.1048400029540062  17.55331993103027 0.09558500349521637 2.723233938217163  17.74071924604638 0.694264984370172 2.236789940807439  17.20658486747318 0.6553856363991793 2.340704783833942  17.98329671617358 2.615166456877453 0.6937546183149131  17.74652004241943 2.631574988365173 0.1048400029540062  16.46057994013521 1.390173584546023 1.398627767315468  16.68344510775724 1.159302457884335 0.7579169514914749  16.9586296081543 1.108822017908096 0.3907970003783703  17.49499550315797 2.590969941440895 3.000743995315223  17.41042041778564 0.09558500349521637 2.166513442993164  16.86921977996826 3.031642436981201 1.579729497432709  17.88313007354736 3.366949558258057 2.36007696390152  18.43116956929799 1.912541711476642 3.64713692556447  7.00785934293418 17.09169240803801 3.697110561988304  6.779112204959318 17.76618617917399 3.538226284841292  6.637646535503122 17.15380686067784 3.511972011470633  6.639221416655912 17.37461304825852 4.021928813272519  6.270583490377645 17.65753368847903 4.346747064556735  6.41047427868105 18.0491068193945 3.863044536125507  6.269008609224855 17.43672750089835 3.836790262754848  6.267433728072064 17.21592131331766 3.326833460952961  6.408899397528261 17.82830063181381 3.35308773432362  6.550365066984456 18.44067995030997 3.379342007694279  7.709475040435791 16.92023086547852 1.208433985710144  7.258711418663527 16.99106135497099 1.751357267475341  7.164899912046312 16.68871396320943 1.300339405103344  6.992366242141728 17.25314615842706 1.394468957700049  6.275257443847663 17.58606145137562 1.580503929689954  6.541602620369463 17.32397664791954 1.937392239465246  6.447791113752249 17.02162925615799 1.486374377093248  6.620324783656835 16.45719706094035 1.392244824496543  6.714136290274048 16.75954445270191 1.843262686868541  6.807947796891263 17.06189184446346 2.294280549240538  7.259634413437579 19.59296984030004 5.232847114189584  6.994366385778839 19.03632783517484 5.796424523304793  6.693487984215851 19.4503584222425 5.33767042439175  7.108639383354731 18.95470895409078 5.23875302079475  6.957644353271883 18.31644806788152 5.244658927399915  6.428219956557111 18.8937164171173 5.90124783350696  6.843371355695991 18.39806694896559 5.80233042990996  6.542492954133004 18.81209753603324 5.343576330996916  6.127341554994125 19.30774700418496 5.442493734593917  6.729098358120098 18.47968583004964 6.360001932420003  5.318766117095947 19.04422950744629 5.183506011962891  6.002409048965639 18.9697946759141 5.027789018411999  5.824387714141306 18.59178577495687 5.098489754340749  5.59812133001655 18.83803592754476 4.898295157096486  5.545032501220703 18.7979793548584 5.383700609207153  5.723053836045036 19.17598825581562 5.312999873278404  5.771298885345459 18.55172920227051 5.583895206451416  5.949320220169792 18.92973810322773 5.513194470522667  5.877476542937153 18.63184234764323 4.613084302230081  5.050517082214355 17.83262062072754 3.288515090942383  5.381854894616105 18.31342576180881 2.680231077654581  4.973385334014893 18.00802993774414 2.497593998908997  5.08155345916748 17.68633556365967 2.774363040924072  5.490023019768693 17.99173138772434 2.957000119669657  4.942348957061768 18.15431499481201 3.011746048927307  4.83418083190918 18.47600936889648 2.734977006912231  5.112589836120605 17.54
[...]
<PointData  Vectors="u"> 
<DataArray  type="Float64"  Name="u"  NumberOfComponents="3" format="ascii">4.1849977126668978e+02 -4.3924608676740753e+01 3.7354380795494502e-01  3.9038497756292105e+02 1.4489633228743084e+01 -2.2250087567119659e+00  3.6038531381120896e+02 -1.9181212458302468e+01 4.1125378483918489e+00  3.7429461770823468e+02 3.4591381519992122e+00 -8.0545174293156774e-01  3.9737830417180311e+02 9.5071497673569603e+00 5.3791103781977814e+00  3.7007031254913272e+02 8.6007538081306283e+00 -5.8317199534808073e-01  3.6536059837613686e+02 1.2673483618050323e+01 -5.8223323138824634e+00  3.6268448899413738e+02 1.7392949882121016e+01 1.9093118146446034e+01  3.4362676024468078e+02 -7.0282464363611536e+00 7.1713839262697290e+00  3.4235251469104838e+02 4.8046674764451488e+01 -5.6500243650471793e+00  2.9597970738389671e+02 1.2341788220502656e+02 5.3283063011340137e-01  2.9740083439098072e+02 1.1005363993422364e+02 1.0186073933867229e+01  2.5629324264200460e+02 6.0994240078523859e+01 -2.9068229670146639e+00  3.1946195411008540e+02 7.9831704343040357e+01 -2.5913061964762735e-01  1.3983724763696156e+02 9.4406715102835449e+01 3.0491571098097541e+01  1.3300606451778265e+02 3.0558171825908595e+01 7.2509755242405618e+01  1.2456156090889182e+02 5.2556891155311874e+01 1.4867988128337773e+01  1.7078723862029366e+02 3.0197685952802452e+01 2.1660746294340985e+01  1.0096970962492694e+02 -1.3012897478014917e+01 -1.6301164061692774e+01  1.6583465017503829e+02 -1.1178094319620762e+01 -1.2731904946359156e+01  3.4211079428321750e+02 1.2350424624794827e+02 2.8464762532505472e+00  3.8991631474626973e+02 1.1783152364901078e+02 5.6061108284365702e+00  3.6364703739163264e+02 8.1391815316059549e+01 2.9957571895107531e+00  5.8842281687637683e+02 2.7989256856443692e+01 1.4157343393185666e+01  4.2957674276187186e+02 5.2990447683882408e+01 2.3432740219572232e+00  4.7650077831181449e+02 -2.6594736720764583e+01 1.7017290953814950e+01  4.2144394737467132e+02 6.5662015738968250e+01 2.3587049515820531e+00  4.6547155558955370e+02 1.0006538341826814e+02 -2.3900991797383200e+00  3.9401176020330081e+02 3.2938507718746777e+01 1.7891469726508913e+00  4.1747351365642606e+02 -1.4202260504482194e+01 5.1289145297753400e+00  2.8774778251951670e+02 1.2256020329224879e+00 -4.3560902270794628e+00  3.3075543900609847e+02 1.2914344781329067e+01 -8.1411704549126647e+00  2.9889284043054863e+02 3.3887795593069463e+01 7.7565875112590348e+00  3.2639308872284556e+02 8.4807856397828498e+00 -4.8905430586979710e+00  2.9652211815580904e+02 7.2247545537521081e+00 -1.7436992863071531e+01  3.3119615039840744e+02 -4.1469549384134154e+00 -5.9538647878359740e+01  2.9629830830018625e+02 3.2566728639022834e+01 -8.5856763934071658e+00  3.5079806457294518e+02 1.5288444288642173e+01 -2.7202581619929878e-01  3.3599806340406525e+02 3.6603844830410445e+01 4.9730959570358717e+00  3.0017346739353610e+02 6.4258242088113292e+01 1.9900955872050169e+01  4.4511445251455979e+02 7.4357899806038873e+01 -1.2786991513591182e+01  4.3142644539227342e+02 2.3024198560886355e+00 2.9314753255148980e+00  3.8262807191429300e+02 5.8492625592218673e+01 -1.5076635344859921e+00  4.0431842364193074e+02 2.2922058547788446e+01 -1.8340977926286190e+01  4.0201734361808917e+02 -3.2736235710288831e+01 1.1477277838313673e+00  5.0137011677155886e+02 7.7416255559303750e+01 -1.4194390115110728e+01  4.7017693601069988e+02 2.1760707506470098e+02 3.5392101768817303e+00  4.4504883596328500e+02 1.3353660966387389e+02 8.7735468910459922e+00  5.6537271093344964e+02 6.7484364955598593e+01 -3.5807259183362127e+01  5.4290270251315690e+02 1.7439616384602002e+02 -3.7500464237577923e+01  5.3466255773462922e+02 1.9587948961590828e+02 -2.5690416704595829e+00  4.1846110570419057e+02 9.0893367289643379e+01 5.7309343817598490e+00  3.8522196408847412e+02 1.4096352887322695e+02 1.0615977341983061e+01  4.4933484957558051e+02 1.3575619532289832e+02 6.8660446332305669e-01  4.3435020709021285e+02 1.8854082520464021e+02 5.7342418564462898e+00  4.8256059143245119e+02 9.1879337119626598e+01 -5.1979901639936141e+00  4.3297036504334307e+02 6.6445748044970841e+01 3.9887411015393576e-01  4.2434610919021213e+02 1.1742959682958440e+02 6.4987135423596110e+00  4.8501084967527066e+02 8.2400742854698933e+01 -1.4042045745696887e+01  5.7690585587825581e+02 1.8772268670327810e+02 -1.3468634781864381e+01  5.1135436340642491e+02 5.7658882675823897e+01 -1.3106637843618024e+01  5.4053839433708708e+02 -3.5951090932536282e+01 2.8748007452670549e+01  4.7820269431130436e+02 5.0006464337600548e+01 3.6468610011348090e+00  5.4397399043720395e+02 9.2763057059178962e+01 -1.5239761975201958e+01  2.3360334639646680e+02 8.0641123804499149e+00 -1.1218807286514178e+01  2.7173235341730862e+02 2.7195034065564315e+01 -1.8502175540213070e+01  2.4707252139996447e+02 -5.7252675670900706e+00 -4.1472200022910613e+01  4.1267763939353756e+02 1.9477699937871449e+02 3.3492451099474798e+00  5.2759597310734966e+02 2.1821891377425158e+02 1.2236274290731572e+01  4.7260133733124366e+02 2.5035028598727311e+02 -2.0199517564585822e+01  4.3481626590745554e+02 1.5907002625495642e+02 8.3825596697365778e-01  3.7727435665536825e+02 1.2798545787958355e+01 -3.6631695083676064e-01  3.5110618028758449e+02 3.1716546505163222e+01 -1.8120548768045965e+00  3.6657363147706718e+02 4.8039480159213078e+01 5.3502701593983568e+00  2.6198495963124458e+02 4.1880023118171295e+01 1.1106395725626012e+01  2.1341891986114254e+02 7.7877406322287570e+01 2.3474367881625145e+01  3.1845636639977369e+02 5.9563253799034577e+01 2.6310145157273599e+00  2.7465923249786260e+02 1.1123290291466532e+02 2.5076581561207117e+01  3.6450376789744615e+02 7.3317121185632445e+01 1.3845874426055181e+01  3.8294879421268473e+02 8.2552893775525831e+01 1.8347843948574653e+01  3.4235703580636300e+02 1.1104698923669937e+02 2.3704517142958732e+01  4.4433404207531458e+02 1.7124023053997888e+02 2.8216022439799264e+00  3.1293514475331114e+02 -2.2154300688790791e+01 -2.1397235726530351e+01  3.3361940335660080e+02 9.3566566758784191e+00 -2.3183544923594443e+01  3.3171151535854989e+02 2.8096436458383440e+01 -8.5995612847693135e+00  2.0125247338444103e+02 -4.5054617097883813e+01 -1.1871689221967344e+02  1.2620779405311241e+02 -5.5822490999423188e+01 -4.3645217466795700e+01  3.6261647204988526e+02 -6.9780487746527854e+01 -8.4065494331802057e+01  3.6123698233714254e+02 5.5456627657994567e+01 1.6762704885695441e+00  3.6236477378645196e+02 1.1402883150202727e+02 -1.3164269249844496e+00  2.9292224216777254e+02 6.2302507545558782e+01 5.7826992818424394e-01  3.9906403136930857e+02 2.8271160603345135e+02 -3.1663564873817123e+01  4.0352256991002031e+02 1.2772120849192142e+02 4.3588135822715003e+01  4.1453769556647836e+02 9.1458192476240313e+01 2.2186238585270406e+01  3.4702526670296027e+02 8.1166025347575072e+01 4.7647156767429188e+01  2.7006224140271246e+02 4.3853111168720865e+01 -1.2568058335687379e+01  2.7682219765494159e+02 5.4227721877211446e+00 -5.4801989955055113e+01  4.5508599171909697e+02 1.5019205317588626e+02 -2.1147055393546118e+01  5.1999890672381764e+02 1.4717174671561921e+02 -1.5433052049134515e+01  4.0838892978400816e+02 1.1189434204111758e+02 -9.4558932971176919e+00  5.5407033761737853e+02 2.7040667514457809e+01 2.7444115309035595e+01  2.8391593743510504e+02 2.5316314558033362e+01 3.8089727727022364e+01  2.5113086343907227e+02 -2.9780281209096420e+00 3.3909259587286726e+01  2.7184654516567491e+02 3.8782483418790875e+01 2.9355642993890363e+01  2.7631636910824352e+02 9.4473472742729925e+00 1.3731215786751150e+01  5.4869360137360172e+02 1.1761282616817888e+02 -8.4236608394844481e+00  3.7393222033870649e+02 -1.9467988911317121e+01 1.9799192257565583e+00  4.3363791142083642e+02 3.0070678804321837e+01 5.2938584535213584e+00  4.9946860988162837e+02 5.2973987569324848e+01 5.7115774041321199e+00  4.6546308187811968e+02 -3.6359620583672836e+01 1.4916905612238402e+01  3.3635151226664880e+02 8.9227292999309171e+01 1.2871057698379978e+01  3.8063567872438279e+02 3.5087523790795565e+01 1.6773820742711862e+00  3.4823316302878777e+02 4.6735705022838843e+01 1.5224808666928132e+01  3.2535991289667498e+02 1.6708794278761681e+02 2.5188010176434179e+01  3.8734345944177829e+02 2.0879456849006456e+01 4.4582809620234594e+00  3.6289351436273932e+02 -1.8509335123930821e+00 -4.9967474397121761e+00  2.1412859453530399e+02 4.2074659870096532e+01 5.8401152322497172e+00  2.2207231160826586e+02 1.0964042029679838e+02 -6.5859790897174015e+00  3.2696753131120744e+02 -1.8472040581264332e-01 2.2998470169943698e+01  3.0705593680856657e+02 2.7968368143109835e+01 2.3740691406289095e+01  3.3427307098377759e+02 1.5883599258664528e+01 7.0471501678658983e+00  3.7553920936815092e+02 1.7631747598101970e+02 2.6220720153164834e+00  3.7868222310913484e+02 1.6404307360314519e+02 -3.2288524472744644e+00  3.5106801856057996e+02 2.5059412913940715e+00 -1.6187824208854658e+00  3.6458961548763324e+02 -7.1568581865613297e+00 -5.5634902311618148e+00  3.6622028291407423e+02 -1.9540336089125660e+01 -1.8627791272059994e+01  4.6097415072088342e+02 6.4963368358129728e+01 -1.3883651851955266e+01  3.1441142881319837e+02 -2.9085243895568520e+00 1.4341856752377293e+01  5.9144805636532419e+02 -6.4099392438299887e+01 4.0200147042094741e+01  3.9626397530242360e+02 2.4289511272433134e+02 -1.1170433106332966e+01  4.0745234307453796e+02 1.0020887567431835e+02 5.8661140052745615e+01  3.2884654411841218e+01 8.0585964997853665e+00 2.7837407023372201e+01  2.9617036125866942e+01 1.6796716009981174e+00 2.6792055773602250e+01  2.7464576017706882e+01 8.2541370743362901e+00 2.6192334373667723e+01  2.9257732137578074e+01 5.7034283543060313e+00 2.6348710846389920e+01  2.6127846832117463e+01 -7.5975322814183857e-02 2.4973866629397005e+01  2.9453831740687374e+01 -3.7048653683465833e+00 2.5170291144249195e+01  2.3418950081060729e+01 3.6078353012388602e+00 2.5168352734423326e+01  2.1279128525114949e+01 8.0351299363254576e+00 2.4943333290865315e+01  2.5254569782380251e+01 -3.9298094477771800e-01 2.4592688253454270e+01  3.1485076823137099e+01 -5.0124321445707922e+00 2.4623404908075130e+01  1.2771235235518503e+01 5.5473074819948920e+00 2.0714270164155618e+01  2.1089459216445793e+01 6.8307760232406034e+00 2.3625571493443609e+01  2.1674447823712889e+01 1.1449668728852531e+01 2.1154331303098907e+01  1.7615246311526978e+01 8.6294347842744248e+00 1.8111868876538257e+01  1.5630561199722287e+01 6.9799474166852686e+00 1.4929155238219289e+01  1.9483523956189611e+01 8.9059536377842257e+00 1.9787278613712338e+01  1.8526924201150383e+01 1.4951273435016908e+01 1.6842479421585107e+01  2.5687131059149014e+01 2.0688818013408536e+01 1.9134438386136356e+01  2.4626550709021984e+01 1.4325050360008948e+01 2.1555873052579035e+01  2.3974682441625802e+01 9.8383752408925620e+00 2.4225356351829049e+01  6.6917608625797470e+01 6.9177862050157546e-01 2.4437770848501835e+01  5.8899159656678108e+01 -4.4767959879159624e+00 1.3216727835774037e+01  6.0075350098123231e+01 -9.6889568477795294e+00 1.8303427577028369e+01  5.5524311274314726e+01 -1.8870258190728497e+00 2.2968443305107375e+01  4.5012392692929943e+01 -1.0889793076644798e+00 2.2199339440970093e+01  4.2211280927008119e+01 -1.5698595871502985e+01 1.0457328886845804e+01  4.5758280846538625e+01 -3.8200330509083931e+00 1.4004644427195641e+01  4.4718608668839686e+01 -1.0316257247092315e+01 1.9398874188442246e+01  4.7797437088930039e+01 -2.2780031638692744e+01 1.7411559564087987e+01  4.4392092523341631e+01 -7.5541698295331319e+00 -1.4786038703318374e+00  3.0992085161111898e+01 -3.8222839943835027e+01 2.7806721148772940e+01  4.0897052905836986e+01 -2.1233300825926296e+01 2.2631984962444829e+01  3.0985387763340096e+01 -2.0230527440758252e+01 2.4488549995445528e+01  3.2987683682636629e+01 -2.8445664714388350e+01 2.4988287341638369e+01  2.9745743821183904e+01 -2.8992331218364971e+01 2.5859384867612349e+01  3.9670831933305386e+01 -3.1069369368660286e+01 2.2906197731754361e+01  2.3276303557739876e+01 -2.4219811295285698e+01 2.6843455666529081e+01  3.5469936377650846e+01 -2.5090880815349184e+01 2.0243311963000323e+01  3.3258684513668619e+01 -1.8900514620453901e+01 2.3884124944004842e+01  6.2569615917936172e+00 -1.4745076659687784e+01 2.0540557046059273e+01  1.8043641374318344e+01 -1.7462606591646093e+01 1.5782024407960815e+01  5.3999823648258305e+00 -1.6951424314970389e+01 1.6127123708034784e+01  4.3420650048936595e+00 -9.7529087719368270e+00 1.9224970364213934e+01  1.5266531863327193e+01 -1.1248578079349025e+01 1.9181488522030818e+01  7.1261584494100569e+00 -2.5295771664042029e+01 1.8305891202348214e+01  1.9057829304291673e+01 -3.4686138526213313e+01 1.2801495034294312e+01  2.2469694967623792e+00 -9.7310386762073864e-01 1.8077805514128798e+01  1.1973886689717402e+01 -5.1847317018224528e+00 1.8044277766621367e+01  2.0625403518921850e+01 -6.5653022865822699e+00 1.8667494022285162e+01  4.0608759743254701e+01 -2.1801528028800526e+01 1.9652195768965569e+01  2.7953329221302688e+01 -9.4085667108521633e+00 2.2342546533402135e+01  3.4301811305676907e+01 -1.1192326154479566e+01 2.3631500799170020e+01  3.4825395369828684e+01 -1.2246941081115503e+01 2.2169267823468758e+01  3.0345210211149631e+01 -2.0386012224321060e+01 2.0963484847475883e+01  2.7776023920046839e+01 -1.7464588191335014e+01 2.3049534225629685e+01  3.7299666244558274e+01 -2.0831007589941063e+01 2.2524777187025673e+01  2.1001825612393102e+01 -1.5483628998659023e+01 2.1627086414958907e+01  3.4964823934141613e+01 -4.3134422579435849e+01 -6.9808876234944520e+01  8.7637266931584421e+01 -8.0120747698336583e+00 -4.1133550883356413e+01  4.8937701773139423e+01 -3.0999362483359342e+01 -3.0596607319212875e+01  7.0924081931569475e+01 -1.4505062690499230e+01 -4.8217993146695271e+01  8.4007593775320302e+01 -1.8396647956253869e+01 -7.3038109226955271e+01  1.1736674699443397e+02 3.2939876922665086e+00 -7.6360383516791003e+01  8.5261849678167266e+01 -7.5081945833114423e+00 -2.1883093723379229e+01  6.5491181335232255e+01 -1.6753208479482922e+01 -1.0766390574300392e+01  1.2961000394024925e+01 8.3784661980879860e-01 3.6296579875141610e+01  1.4106667988701378e+01 1.5005493617545653e+00 2.5658685724705109e+01  1.2679973492396044e+01 9.8185008102436189e-01 2.3462710500454996e+01  1.5501580773697103e+01 1.1520352470817528e+00 2.9410148290037185e+01  7.3711110055839013e+00 9.0930282813033447e-01 2.2652232618979898e+01  1.0834667501884192e+01 -6.1498603699870902e-01 3.2215350582263660e+01  6.4108567700977037e+00 6.5475149820809730e-01 2.8725354016841990e+01  7.1013659288456692e+00 8.8867859193505916e-01 2.0099718573269381e+01  1.1365537287744990e+01 1.8403388265174740e+00 2.7763538587378896e+01  1.8824985431607882e+01 7.5470056358905446e-01 2.3979753243618383e+01  8.4576548130560468e+01 8.2128314967763014e+00 1.6021163414793431e+01  6.9070735343413546e+01 1.3321023964903914e-01 4.8160214436142068e+00  6.3134822161974348e+01 2.2877672558118261e+00 1.8305394490047107e+01  7.4170767246279624e+01 4.8292140995324297e+00 2.0652986552775541e+01  2.2487171976769385e+01 8.1050953325196900e+01 2.0254025875008860e+01  2.1514333623982708e+01 6.1388598288246286e+01 1.6298630323596356e+01  2.9376611709965612e+01 6.3101637687094517e+01 1.3515149006743135e+01  1.1927683702254845e+01 6.5190295832492680e+01 2.0892578521521738e+01  9.8326064494708589e+00 5.3108250701646782e+01 9.3780798067473636e+00  3.0575350759033014e+01 5.1162891826925019e+01 1.2742296954432510e+01  1.7365796972194286e+01 4.8695693431458572e+01 1.3159517074108514e+01  3.3562591206908742e+01 5.3503894608787526e+01 1.8731059688399124e+01  3.8544485280607148e+01 4.9342690756644416e+01 4.7760977992191576e+00  2.4467888020300709e+01 4.4923631547343263e+01 1.4813759380467848e+01  2.3524055855840686e+01 -2.4948459436576933e+01 2.5534241929771184e+01  2.4913928710211870e+01 -1.9593247209749265e+01 2.8494440112905071e+01  1.7934319390658942e+01 -1.6563823883383527e+01 2.6123496915757659e+01  2.5479387031271948e+01 -1.8252965710534099e+01 2.4544493909896239e+01  3.9963028567264736e+01 5.7841426221734523e+01 1.4231942304703878e+01  4.2508328777274215e+01 7.8840106432033210e+01 1.5338256420073570e+01  4.3905330506348989e+01 6.1328015940516416e+01 6.8400078927510997e+00  6.2334729271660450e+01 7.1592498076538661e+01 1.3978039990382072e+01  6.4144598522987391e+00 5.7193665512709693e+00 2.0258283009963915e+01  1.8861544256654888e+01 2.2931151890753521e-01 1.7653596067618420e+01  1.2561857575222525e+01 1.5750324911733387e+00 2.2125059107629475e+01  2.1138969039447204e+01 2.5491786867848201e+00 2.1341436303606876e+01  9.2029913487569175e+00 1.4336965091225435e+00 1.7018935919990891e+01  9.0423931819591559e+00 1.1576725846299090e+00 1.3074238423315386e+01  1.3263079471858491e+01 1.0516096336650971e+00 1.8434418140526695e+01  3.3011910195747873e+01 -3.9333362028033014e+00 1.9040511422038527e+01  2.4919287082932438e+01 -1.1124726534457992e+00 2.1825846091537983e+01  1.2422218393526332e+01 -2.2146391047913554e+01 -5.8131620838096492e+00  2.8336687137131719e+01 -1.7730625953781185e+01 -6.6425469746632915e-01  2.5389902326195774e+01 -2.5417826815504675e+01 -6.1004541025918924e+00  3.3396185885941641e+01 -2.6295729083744092e+01 -7.0574715441355718e+00  3.5768847048748434e+01 -2.6064925227071125e+01 -3.1372150883103807e+00  1.3273142979030323e+01 1.3224820197258001e+01 1.2326025260619456e+01  1.6222753978948731e+01 1.5139047647548344e+01 1.7982535007980641e+01  1.8576246784444312e+01 2.3155618861591996e+01 1.4568456173832699e+01  2.4217131892785460e+01 2.4055429917407178e+01 1.9335477531025006e+01  1.8956272782586932e+01 2.7342541778059097e+01 2.0997118661589205e+01  1.5565418022655637e+01 2.4403051421930197e+01 1.6084312004089021e+01  1.1329312408202242e+01 2.2895394252436926e+01 1.0763323504197976e+01  1.3197522600842703e+01 -3.4487462097038546e+00 2.0727368169060092e+01  6.0353895367539208e+00 -7.9622783848380774e+00 2.1684846083866461e+01  2.6861272927924826e+00 -1.6213593019112321e-01 2.3234519472077636e+01  2.0624152070152793e+00 -2.7263196511424064e+00 2.2385113894933443e+01  2.3483059892238838e+01 -1.2205105720746245e+01 -9.6404083821540351e-02  2.4958267076577219e+01 -1.2710645564514238e+01 2.8004679577403868e+00  2.6346887000179606e+01 -8.9946402937523828e+00 2.3071789445176423e+00  2.0769000801066419e+01 -1.5261426236921789e+01 8.2071389048785609e-02  1.7590511036711074e+01 -1.7480868200821043e+01 -1.7816875364620099e-01  2.5750537573195039e+01 -2.2241349924251512e+01 -1.6252621922217090e+00  2.8742801379253631e+01 -5.5418216268675460e+00 6.4578949137216179e+00  3.3389198979322174e+01 -1.4709978750653852e+01 2.3820491211561530e+00  1.7349732047001705e+01 -3.0574528607189883e+01 1.0104572309313722e+01  2.9218585448803953e+01 -1.6904353707548822e+01 2.0717716948953631e+00  3.6460664113662240e+01 -1.0419063372395302e+01 1.5504069165734641e+01  3.6352641039436548e+01 -2.5430834027964224e+01 1.5317195971237826e+01  2.1013310016481235e+01 -5.6638945922610775e+00 1.3631705019582846e+01  1.6054068253488897e+01 -2.8307173309466843e-01 1.1687279063866841e+01  1.5825592445841737e+01 -4.1714097864474997e+00 1.2213758261070737e+01  1.7033782589698678e+01 5.1434391896040033e-01 1.7627567889077753e+01  2.1065537541668657e+01 -1.2889293984079526e+01 1.3455505830530280e+01  2.2632485881418923e+01 -1.9346879862059158e+01 7.2053761151956550e+00  2.1328460340663433e+01 -1.0629294557921694e+01 8.2306495424304380e+00  1.8518442270850560e+01 -4.4039564755453116e+00 9.0210444254109472e+00  1.0567448141676763e+01 -2.5309651152565735e+01 -6.5673734077868247e+00  1.5001835689354930e+01 -2.2182532995424644e+01 -3.7679285319105404e+00  1.2122714742651491e+01 -2.0016641611842950e+01 -4.8122647550187043e+00  8.2622227436556344e+00 -2.0564693929560065e+01 -3.5185633874706292e+00  6.3424448916894365e+00 -1.3368331401372428e+01 -1.5378025944955493e+00  1.3700570059907585e+01 -1.5941652526948896e+01 -1.5218026354687806e+00  1.1345097227636906e+01 -1.6131165484800928e+01 -1.1914400784220334e+00  8.2207156793371858e+00 -1.4913005748463807e+01 -4.3540813290508860e+00  9.8328230410888455e+00 -1.549420