<?xml version="1.0"?>
<VTKFile type="UnstructuredGrid"  version="0.1"  >
<UnstructuredGrid>
<Piece  NumberOfPoints="7882" NumberOfCells="31396">
<Points>
<DataArray  type="Float64"  NumberOfComponents="3"  format="ascii">35.04079055786133 32.21327972412109 33.65439987182617  35.16804885864258 31.46805000305176 33.32376098632812  35.01626968383789 32.25841903686523 32.8866081237793  35.90842135418689 32.37647410827113 33.04548006498518  38.88113021850586 35.38135147094727 22.06880950927734  39.09764862060547 34.62228012084961 21.91295051574707  39.36452865600586 35.34934997558594 22.81365013122559  38.67735483063471 34.84482884312251 22.71195725727152  38.69738327303237 13.23822965441951 8.32691582318477  37.49216068403028 12.21648981040125 8.095694586986866  37.85860307693361 13.34811827491466 7.325810020631831  37.95977437383005 12.28354938211154 6.998117904514942  24.22996891874948 36.64350979726669 18.24660652791524  22.89839900742558 37.48639348696763 17.88178627657244  22.60429124671926 36.57286876850406 18.63107125019338  22.84549597719834 37.49523845956726 19.12194224078793  27.96095802817873 31.70989357540611 11.28178833485667  27.46712651199603 31.13279939001692 10.75514400225412  27.77153198309124 32.54561440216078 10.26644575665489  28.34726726960385 31.38016834599324 10.41073637515108  29.10530090332031 26.69252967834473 10.41199970245361  29.14584922790527 26.64089965820312 11.44569969177246  29.53557014465332 26.04458045959473 10.66683006286621  30.14404286704422 26.40705006988062 10.61976678078266  35.96477040860787 17.19682345424039 27.95311113440767  36.8660351966153 16.20502980967019 28.60736809656953  37.49320536468388 17.43557901196133 27.60758431573566  36.71993107668517 17.92622206811004 29.25819738750189  33.79529719572293 37.82231186645824 3.864786625055443  34.3938394599971 37.89076861304078 5.208061247066808  33.43042305305257 37.38396579764058 4.957627561281092  34.49010617097758 36.44004186963532 4.309859156442432  36.79878997802734 9.262807846069336 1.688738942146301  37.71601104736328 8.986710548400879 1.475877046585083  36.92537548696308 9.680748230313407 1.11326724399744  37.71846697675683 9.975918589153887 1.642675675665137  37.18395478091922 22.69483622640617 24.4290562768585  37.9462747373471 23.3323803165413 24.21386576639209  37.82029915890926 23.15204603381346 25.41102818788972  37.86021547535019 22.34505366298998 24.84592004236406  39.89416122436523 29.09733009338379 35.6031494140625  39.89416122436523 29.22612953186035 34.76615142822266  39.89416122436523 28.50835990905762 34.59505844116211  39.25443594052563 29.24980892485341 35.32853853673818  34.47758744981274 20.15803175558824 11.96646133278214  33.14431223793618 19.87099931381992 11.08130251047864  33.20602282911165 21.12083503102667 11.22386861672173  34.37398879105031 20.07940661233148 10.70552039406703  39.01948928833008 10.41880989074707 4.076076984405518  39.89416122436523 10.55445957183838 3.09207010269165  38.60103491872403 10.40396716201348 3.170662717759796  39.22837391125374 11.01302194511639 2.956748844384833  29.25046920776367 27.57793998718262 11.8153600692749  29.54140090942383 28.39926910400391 11.78724002838135  30.05015506795884 27.18874930182324 11.59442604878012  29.85032277021046 28.41360759720264 11.2002346948937  39.89416122436523 37.58407974243164 33.76984024047852  38.87078857421875 37.69176864624023 33.95344924926758  39.29412078857422 37.3998908996582 33.26850891113281  39.04960773677269 36.78696764506707 33.81022425543522  34.55665605447114 21.69606344716639 3.303952122716239  33.30633163452148 21.30986022949219 2.482315063476562  33.97246932983398 20.60836982727051 2.805136919021606  33.56709023005264 21.1158705144635 3.419158898785183  35.86180025132963 37.88812912451007 2.273364802673123  36.42772639077702 37.08406681891518 0.8516958971841004  37.35396142039775 37.35692138694101 2.003295804251904  36.52120949076065 36.33433422070804 1.813102516681819  20.74201965332031 35.43532943725586 15.54279041290283  21.02756931679937 34.6482618659571 16.26895275051182  20.78421020507812 35.56872940063477 16.46343040466309  20.41811943054199 34.93489074707031 16.13936996459961  38.71823120117188 32.41458129882812 26.10317039489746  38.21146011352539 32.85988998413086 25.64524078369141  38.82424926757812 33.43202972412109 26.1857795715332  39.17133172838988 32.78832399775062 25.43783904190442  35.62075158271717 28.40809927005136 6.862359012907198  36.54984335346739 29.35114850414535 6.261022895437693  36.66511154174805 28.38151931762695 6.234254837036133  36.14698028564453 28.93998908996582 5.843766212463379  37.56963216891526 25.26050076762672 17.24539449246948  38.33961868286133 24.82773017883301 16.90376091003418  37.83297289332918 25.79666962164141 15.81306464795704  38.75830111425823 25.98844051603398 16.73495065013664  38.14068984985352 17.92959976196289 5.671009063720703  38.53730010986328 17.822509765625 6.394937992095947  38.01125214743581 18.65569125556476 6.30765730975271  37.77624126086449 17.47761647868599 6.649381574429477  22.40298080444336 38.81832885742188 11.05424976348877  23.27046012878418 39.10773086547852 11.34902954101562  22.6558895111084 38.3571891784668 11.68920993804932  23.25041597675759 38.23942192220205 10.76847684890661  35.52630637991624 35.89965167555094 2.703604196956297  35.7277090350715 36.31279524351066 1.111273694537301  34.99109376442938 37.03800329070917 2.240002234695941  35.14735463582582 19.25467770425868 8.836748956366401  36.18706447945925 18.22284776024765 10.03073471096375  34.74067797813256 18.97623647280767 10.2585980605128  34.84428511463472 17.76768588240506 9.287543329036389  24.05602943935808 38.08805137646113 20.48543172022932  23.25704234100377 38.75884585505028 19.59357432602252  23.09486961364746 38.55545043945312 20.7221794128418  23.68886269564554 39.13055021075643 20.32158779163047  33.93841171264648 32.00180816650391 21.44054985046387  35.47894685449135 32.10670778478683 21.756655851277  34.75746917724609 31.61702919006348 22.11128997802734  35.18177144517734 31.79288665963643 20.6040800628816  37.88552856445312 30.6813793182373 38.32651138305664  38.90488205432413 31.0598608745546 38.54457601350482  37.71429061889648 31.30958938598633 37.71371841430664  38.05347061157227 31.53162956237793 38.55516052246094  29.24949729823076 37.5268329002845 12.59662244190681  28.50652351175283 37.65572960275285 11.98121921110994  29.15883763876019 36.82351456360787 11.4817373084156  29.4960525091582 36.43457063230868 12.3133364907325  36.7329461664926 17.94403928536989 1.500892701696348  37.3792253498674 16.4286698381808 1.499936804283382  37.35671103640277 17.72320200760723 0.9011125007477829  37.81230799124743 17.61735888698732 2.590572037657776  35.12316408715323 17.08114685410702 3.143560375530884  34.74761962890625 17.74810028076172 2.723489999771118  34.10531669061659 16.77841197789907 3.167351811680009  34.04207229608372 17.60073405107889 3.514044876671245  33.76773834228516 19.80286026000977 3.029623031616211  32.86294174194336 19.51552963256836 3.073261976242065  33.56578826904297 18.94057083129883 3.028676986694336  33.11169596217979 19.98944222727051 3.940632093918834  31.90766906738281 37.10441970825195 31.95133018493652  31.57391929626465 37.62862014770508 31.39550971984863  32.71758157934859 38.03483388994415 31.94619969202157  32.11640969607655 37.56066558043561 30.79296351654203  35.67516086543636 12.3114326509223 12.07023701696516  35.84092518447877 11.16655659155479 12.30099509291965  36.17136861878267 12.19424790042177 11.06423916821011  37.42203263784408 12.01340904004444 11.29749816428754  37.04449972744182 19.30790250403132 8.907878929114716  36.35868729869061 19.73597852706065 6.661378070023307  36.74509316120012 18.25556357431419 6.843193508910413  35.93160701513679 19.95286922238614 8.02532554465607  38.09925842285156 22.49547004699707 1.941405057907104  37.3685302734375 22.8817195892334 2.189084053039551  36.96909396594347 22.01133084875413 1.29430516362121  37.46002340767094 21.43680558450563 2.185633296018325  34.64684158355733 32.83765111232317 21.02283286270424  36.0003199300168 32.92634994865154 20.39557836513376  39.89416122436523 28.33259963989258 30.17427062988281  39.01097580934619 27.29656563311142 30.10696747942713  38.60823402061308 28.30544306968679 30.48399802016575  39.14744584952829 28.14616952092445 29.54433729275172  29.13170051574707 30.01021003723145 3.273844003677368  29.35268974304199 30.17313003540039 2.697108030319214  30.23012521553307 29.65225153619151 3.683384647441272  29.89034002419086 29.04050950433894 2.709607936177886  30.69807052612305 23.24926948547363 0.6441900134086609  31.66411018371582 23.35832023620605 0.7113509774208069  31.20569038391113 23.95004081726074 0.1048400029540062  31.22906115201452 24.40707403224135 1.222138036314864  29.03285026550293 32.83634948730469 19.52033996582031  29.55270004272461 32.48451995849609 19.15031051635742  29.87287617709913 33.1472599022133 19.36939172423442  29.76208782306665 32.7447324351544 19.89186529741637  38.16693878173828 33.83240127563477 39.27764129638672  39.45021057128906 33.77460861206055 39.29713821411133  38.56381988525391 33.03371810913086 39.09909057617188  38.91565877792118 33.83914685132241 38.37986159814217  36.99175071716309 9.649038791656494 0.3946195058524609  36.74039077758789 10.16604995727539 0.1048400029540062  36.28715037048399 9.990343584102757 0.8970269887632627  37.4044138188775 10.06997001839966 0.7171075193926539  35.97832107543945 24.5957202911377 24.07962989807129  36.05580902099609 25.20611000061035 24.23151969909668  36.81107628132774 25.36023878558577 24.17559718654712  36.51434481105358 24.8098685513206 23.30608834150206  32.57519804994809 22.41262138236794 12.92795035234282  33.9778879536516 22.19010722855084 13.78993211627575  33.2496521028332 23.6003932529205 13.06044505852347  32.45934917860564 23.02160595025841 14.25888746901208  34.12258148193359 33.87284088134766 10.7506799697876  33.32765960693359 34.0021095275
[...]
<PointData  Scalars="c_HbCO2"> 
<DataArray  type="Float64"  Name="c_HbCO2"  format="ascii">4.0716012903447325e-27  4.0690591431800952e-27  4.0684180374051855e-27  4.0684754006685586e-27  4.0655177482234078e-27  4.0846804887297574e-27  4.0552030274358536e-27  4.0762417694966756e-27  4.0638122141779954e-27  4.0657539101841786e-27  4.0643387912121041e-27  4.0668668996060684e-27  4.0696743635988515e-27  4.0692986386954376e-27  4.0689726827240635e-27  4.0691422159456791e-27  4.0672762089292016e-27  4.0728367506396134e-27  4.0680560801223882e-27  4.0727327371791330e-27  4.0738205983498629e-27  4.0675353161685882e-27  4.0676580850990200e-27  4.0645200363018280e-27  4.0732408498473455e-27  4.0677780448487827e-27  4.0665837720059636e-27  4.0683854228287937e-27  4.0697233821212420e-27  4.0686552152961082e-27  4.0697939568353960e-27  4.0688835194992226e-27  4.0685436890564113e-27  4.0668248892376164e-27  4.0705922442483496e-27  4.0639074418508771e-27  4.0698892992854790e-27  4.0690088944696207e-27  4.0696556797871010e-27  4.0685334605974212e-27  4.0651196600015634e-27  4.0466898027931436e-27  4.0662049265724937e-27  4.0724732356483304e-27  4.0691580413583520e-27  4.0695306779093144e-27  4.0689712806023406e-27  4.0699039729349779e-27  4.1043135929852712e-27  3.8229851973124040e-27  4.0841452007719977e-27  4.1208781260842718e-27  4.0571226263991359e-27  4.0815811813173808e-27  4.0718605503528315e-27  4.0594472908459261e-27  4.0592592360805832e-27  4.0707159247018658e-27  4.0690726135424071e-27  4.0714649546681741e-27  4.0706404657212029e-27  4.0716990247212917e-27  4.0662695728144311e-27  4.0689104405746073e-27  4.0685559661665965e-27  4.0708693971310861e-27  4.0693823435186932e-27  4.0708523495604594e-27  4.0726900912306488e-27  4.0703758769882824e-27  4.0681543820588849e-27  4.0688908936428983e-27  4.0663048200383197e-27  4.0684007452365342e-27  4.0657580274413296e-27  4.0701826745588979e-27  4.0685148558506196e-27  4.0693057712140188e-27  4.0692903300539877e-27  4.0686188782466903e-27  4.0677188353365693e-27  4.0730153978223900e-27  4.0692826728254501e-27  4.0662138417628606e-27  4.0646114042704079e-27  4.0672978030342804e-27  4.0679509807584572e-27  4.0704028431516484e-27  4.0682969322075959e-27  4.0712224920866282e-27  4.0684671322683075e-27  4.0694255189805944e-27  4.0693027912912497e-27  4.0689108098705693e-27  4.0695042551894319e-27  4.0688444926066852e-27  4.0698390144323320e-27  4.0692127228177917e-27  4.0681668114448462e-27  4.0703988857307806e-27  4.0697359866548090e-27  4.0684963159104711e-27  4.0701263438653078e-27  4.0694217178619912e-27  4.0696811408875829e-27  4.0685811086331665e-27  4.0696279526585388e-27  4.0984778856577360e-27  4.0645658701153177e-27  4.0742597599076328e-27  4.0739495754965616e-27  4.0695381349050082e-27  4.0693210179454935e-27  4.0699912067923097e-27  4.0701340113424522e-27  4.0679242923188559e-27  4.0692699343751599e-27  4.0716504620880255e-27  4.0657766992651018e-27  4.0687055696227994e-27  4.0708553629171820e-27  4.0695586822910927e-27  4.0695802247939038e-27  4.0707091236140883e-27  4.0649740602091573e-27  4.0702666316960402e-27  4.0709937306637613e-27  4.0695221193124971e-27  4.0693786465110848e-27  4.0695697482672184e-27  4.0694594505649041e-27  4.0680261037194976e-27  4.0704024312619499e-27  4.0692773961973162e-27  4.0660013643700843e-27  4.0692398253503256e-27  4.0684449903605911e-27  4.0686216395489967e-27  4.0699524493332195e-27  4.0694351274860780e-27  4.0702286780900611e-27  4.0677918860184026e-27  4.0690096590854866e-27  4.0686332728628891e-27  4.0696945568782494e-27  4.0644733788765998e-27  4.0685066104530172e-27  4.0693414498886355e-27  4.0741136655084854e-27  4.0703488587928893e-27  4.0689610201137676e-27  4.0698681487568562e-27  4.0700671190775009e-27  4.0658279539303966e-27  4.0697036017758033e-27  4.0718772954714350e-27  4.0699000149332700e-27  4.0729507487074602e-27  4.0680142764219717e-27  4.0668590070324612e-27  4.0705369707372922e-27  4.0677414839380218e-27  4.0643242724649137e-27  4.0676011965681724e-27  4.0703248433034897e-27  4.0724075331115646e-27  4.0691363741424967e-27  4.0609343114078740e-27  4.0714252866797500e-27  4.0704975525305294e-27  4.0687852125156701e-27  4.0693691928592670e-27  4.0688916139653040e-27  4.0687792061453714e-27  4.0694738879067474e-27  4.0701914596509575e-27  4.0689899799112528e-27  4.0682612124879293e-27  4.0756104640338587e-27  4.0683512495705999e-27  4.0703977700055378e-27  4.0687845987201856e-27  4.0695635895130031e-27  4.0708246926664449e-27  4.0692267686898081e-27  4.0694613635928437e-27  4.0683885353593481e-27  4.0705608107636764e-27  4.0211859297608734e-27  4.0262333231344620e-27  4.0802201199785143e-27  4.0761255966980241e-27  4.0706473166828037e-27  4.0731586412570836e-27  4.0658858951371680e-27  4.0676350841991706e-27  4.0683105215837631e-27  4.0694477849301380e-27  4.0719252388698556e-27  4.0701438934751048e-27  4.0682571237422776e-27  4.0796871619514371e-27  4.0675058774607799e-27  4.0692326757146417e-27  4.0239795168849065e-27  4.0824867907829867e-27  4.0743565899475710e-27  4.0734240813737020e-27  4.0431795382012577e-27  4.0601434310929481e-27  4.0729184145567898e-27  4.0697296091374352e-27  4.0678406486734310e-27  4.0683823833439684e-27  4.0702883432935278e-27  4.0698772987041983e-27  4.0685528253846454e-27  4.0705605773903686e-27  4.0706881520468386e-27  4.0683206048251485e-27  4.0695909018980680e-27  4.0676234339670425e-27  4.0670093262684901e-27  4.0690538464493844e-27  4.0680019748671726e-27  4.0701550618179278e-27  4.0671022400902955e-27  4.0698763092202364e-27  4.0695814968046462e-27  4.0694858322379889e-27  4.0671536837818226e-27  4.0694831697672986e-27  4.0761036238587215e-27  4.0227650695669911e-27  4.0906741709290148e-27  4.0615398775521010e-27  4.0663096230984244e-27  4.0739820133036469e-27  4.0666981828770131e-27  4.0686618434802947e-27  4.0692470032151188e-27  4.0674134862856965e-27  4.0700321448695988e-27  4.0697786667548752e-27  4.0682219843602962e-27  4.0684901877213704e-27  4.0705172506362460e-27  4.0686078158466833e-27  4.0674564154681440e-27  4.0697042737731663e-27  4.0689097264701921e-27  4.0692117720044515e-27  4.0697761061900458e-27  4.0691908062102078e-27  4.0694211424858212e-27  4.0703960495531833e-27  4.0683765803862150e-27  4.0688621031123550e-27  4.0690107590889308e-27  4.0687929659467687e-27  4.0660648804891728e-27  4.0745103727161856e-27  4.0651077734782391e-27  4.0697802847660646e-27  4.0700309826152454e-27  4.0698232577850190e-27  4.0697641462190414e-27  4.0689725229640677e-27  4.0686017744819730e-27  4.0692013285984817e-27  4.0692699285794935e-27  4.0686924450983499e-27  4.0690875525864834e-27  4.0687013155464243e-27  4.0692247755832945e-27  4.0696868518206733e-27  4.0804382259899708e-27  4.0510251019575896e-27  4.0734105530104520e-27  4.0801943057057067e-27  4.0700185675566325e-27  4.0686189620855561e-27  4.0680046447913803e-27  4.0701884829279790e-27  4.0689477339407496e-27  4.0679833290938425e-27  4.0717071580603084e-27  4.0700751396080591e-27  4.0688720709140149e-27  4.0705213295282065e-27  4.0692585157963899e-27  4.0702872893255841e-27  4.0705652336868776e-27  4.0681579515246826e-27  4.0692683221693342e-27  4.0678402497449410e-27  4.0683083892443403e-27  4.0704730896733651e-27  4.0698352138970069e-27  4.0694549383059775e-27  4.0686420529839665e-27  4.0685372316589689e-27  4.0678639867404643e-27  4.0702464514736933e-27  4.0677118873311485e-27  4.0689828595875530e-27  4.0692353353934591e-27  4.0694086382274418e-27  3.8732675538837499e-27  4.0605517098659688e-27  4.1369464597746575e-27  4.0933597919843611e-27  4.0689249937026743e-27  4.0691004941313923e-27  4.0695317048266019e-27  4.0696253947425953e-27  4.0694443845215847e-27  4.0686596573852900e-27  4.0767727686052369e-27  4.0902041074014163e-27  4.0701182690314601e-27  4.0509981410919450e-27  4.0613767690402746e-27  4.0601185030770852e-27  4.0669963037724798e-27  4.0725000024529601e-27  4.0707172727952862e-27  4.0711763930786275e-27  4.0671117911967796e-27  4.0691204135491293e-27  4.0698776245656246e-27  4.0715491889758532e-27  4.0686225584440859e-27  4.0681372534184062e-27  4.0676505285758009e-27  4.0712322306520547e-27  4.0682113368779633e-27  4.0692976199795155e-27  4.0696296608470815e-27  4.0686012088955759e-27  4.0691986398402329e-27  4.0695378095948853e-27  4.0276833330822516e-27  4.0876958563052186e-27  4.0657393665542466e-27  4.0718639120768602e-27  4.0694082648348497e-27  4.0699281097031776e-27  4.0692576598899524e-27  4.0703523405091020e-27  4.0682500690593985e-27  4.0695830961598535e-27  4.0720728393828519e-27  4.0718464382957458e-27  4.0626272255444814e-27  4.0698280501319821e-27  4.0686105340448732e-27  4.0682113453748553e-27  4.0684649035137217e-27  4.0692187340407548e-27  4.0697127862584390e-27  4.0696901238542678e-27  4.0687553418968456e-27  4.0686875408958701e-27  4.0696685794719285e-27  4.0679991758004148e-27  4.0694115603351470e-27  4.0692846340391388e-27  4.0699432394729027e-27  4.0709092378556944e-27  4.0696956085537883e-27  4.0690759401683850e-27  4.0690749116572379e-27  4.0696832744122080e-27  4.0712192396144378e-27  4.0670764657974039e-27  4.0649629889532891e-27  4.0500353622994534e-27  4.0680826789879202e-27  4.1152626457943280e-27  4.0755027846837592e-27  4.0692035782541714e-27  4.0700392499120170e-27  4.0704957067637300e-27  4.0687343598512168e-27  4.0687908584491182e-27  4.0694030564720873e-27  4.0664722111831468e-27  4.0666060906311476e-27  4.0867518908230271e-27  4.0327868458084324e-27  4.0248925270337009e-27  4.0576778387835270e-27  4.0502532160580107e-27  4.0728162874528992e-27  4.0603668404749036e-27  4.0631654729741993e-27  4.0697752993024044e-27  4.0699840072421388e-27  4.0611682843869907e-27  4.0714579823630149e-27  4.0649327184650926e-27  4.0666526840085845e-27  4.0735590310658760e-27  4.0659295871131517e-27  4.0666861069704045e-27  4.0705273412898817e-27  4.0695093360555429e-27  4.0694706015659388e-27  4.0684258768830768e-27  4.0685257381433975e-27  4.0681308807325280e-27  4.0735468205684380e-27  4.0677499356829350e-27  4.0736333076272873e-27  4.0682740371651467e-27  4.0687169438350894e-27  4.0888117503821541e-27  4.0655276764512763e-27  4.0665107207500221e-27  4.0703398024189728e-27  4.0728542684685158e-27  4.0667791399970781e-27  4.0673769508971773e-27  4.0699916914166832e-27  4.0660787685421258e-27  4.0657081293610035e-27  4.0681720450620542e-27  4.0721233016927709e-27  4.0687837138487702e-27  4.0672374789605248e-27  4.0735939467728056e-27  4.0705761020946193e-27  4.0714597102826449e-27  4.0781015524421631e-27  4.0597443100643922e-27  4.0822607159165545e-27  4.0749164870733107e-27  4.0722382551048142e-27  4.0676149234793913e-27  4.0688794520762457e-27  4.0689534232264020e-27  4.0699204111296036e-27  4.0694500842261492e-27  4.0705396548341233e-27  4.0688271394945543e-27  4.0685749177644707e-27  4.0693833776474132e-27  4.0676505701855488e-27  4.0685359344917219e-27  4.0687179957074611e-27  4.0687210955347105e-27  4.0694816049888945e-27  4.0697751418284165e-27  4.0685896628045088e-27  4.0695718694481836e-27  4.0710655702891985e-27  4.0695018712866546e-27  4.0666627068471468e-27  4.0721351450559841e-27  4.0698998380126566e-27  4.0690165241263643e-27  4.0682024043321735e-27  4.0695496275309045e-27  4.0698005046410696e-27  4.0696217241501881e-27  4.0681015193571999e-27  4.0688225121756621e-27  4.0695845232829185e-27  4.0687296934468289e-27  4.0664279105293975e-27  4.0726623398383399e-27  4.0715428400006510e-27  4.0701876975671604e-27  4.0698320356195705e-27  4.0518496230148886e-27  4.0073825860113053e-27  4.0755279137817485e-27  4.0761482562255230e-27  4.0700877007841519e-27  4.0644182528931599e-27  4.0716312446048969e-27  4.0706165603644272e-27  4.0757070661491178e-27  4.0717940893879887e-27  4.0651070626260761e-27  4.0678785564441267e-27  4.0708172898413700e-27  4.0693951002435884e-27  4.0686234803817697e-27  4.0689485049210307e-27  4.0684331777561326e-27  4.0693923910071087e-27  4.0735170604240520e-27  4.0708919580554907e-27  4.0723488298731115e-27  4.0656790232797996e-27  4.0614516205053802e-27  4.0768320336079282e-27  4.0714349420645158e-27  4.0679970704338951e-27  4.0698724288798679e-27  4.0632667010389069e-27  4.0709556099185618e-27  4.0696495160326259e-27  4.0705541302295148e-27  4.0692786586663807e-27  4.0691577280032923e-27  4.0787216647422510e-27  4.0702877118803210e-27  4.0626655091454326e-27  4.0710594790408550e-27  4.0698712887203679e-27  4.0689771993593447e-27  4.0694326358750800e-27  4.0692827428793896e-27  4.0577426364002330e-27  4.0887240673792998e-27  4.0464598039842621e-27  4.0672066946535388e-27  4.0686735749529855e-27  4.0693862307851972e-27  4.0693222521577681e-27  4.0695882815672487e-27  4.0702426292162262e-27  4.0561148860723744e-27  4.0786475150758093e-27  4.0707269388172657e-27  4.0682852237155083e-27  4.0687754495431740e-27  4.0702323590209842e-27  4.0687443251602971e-27  4.0714122450286150e-27  4.0668113131797062e-27  4.0730895851359833e-27  4.0652143934823396e-27  4.0566104988679213e-27  4.0689353262359982e-27  4.0683851457298906e-27  4.0543524309855595e-27  4.0927676887496202e-27  4.0622471416107517e-27  4.0776426833402476e-27  4.0701067912103712e-27  4.0684921399217897e-27  4.0696954833543294e-27  4.0695324174282684e-27  4.0711957468369554e-27  4.0696260066863742e-27  4.0675989189900214e-27  4.0695774170462264e-27  4.0696245438701464e-27  4.0699242065509314e-27  4.0689112063200340e-27  4.0702418080112436e-27  4.0685684657793281e-27  4.0695748128273207e-27  4.0720643390059875e-27  4.0701182905989532e-27  4.0700916644721215e-27  4.0699940698185725e-27  4.0697586923440851e-27  4.0710889093933214e-27  4.0664615811108058e-27  4.0667902125968985e-27  4.0696347977953563e-27  4.0674730208399369e-27  4.0699977837283834e-27  4.0695837683602196e-27  4.0693343985629234e-27  4.0693715114883777e-27  4.0694284757892860e-27  4.0693399397942466e-27  4.0694722116873391e-27  4.0691586873430238e-27  4.0692981116831144e-27  4.0682084253053522e-27  4.0743860738219317e-27  4.0718980520766340e-27  4.0688264930087785e-27  4.0706689092355993e-27  4.0694601769796264e-27  4.0727798624560496e-27  4.0634389814233115e-27  4.0667034122252273e-27  4.0637921391173548e-27  4.0698920484863064e-27  4.0687795621655446e-27  4.0689923781962466e-27  4.0686324548039761e-27  4.0684100560027110e-27  4.0705446170409952e-27  4.0686795693671951e-27  4.0784567807281750e-27  4.0654973899596605e-27  4.0660806463798957e-27  4.0714503189556036e-27  4.0695669914881574e-27  4.0694402521137716e-27  4.0695842521378097e-27  4.0694591078151351e-27  4.0684252476461252e-27  4.0691031208422645e-27  4.0706495591649372e-27  4.0680033113431150e-27  4.0698520871463608e-27  4.0689079011741333e-27  4.0675646915079190e-27  4.0696314144668507e-27  4.0696754569243549e-27  4.0681793294394209e-27  4.0670273858495152e-27  4.0662551837126367e-27  4.0717296559029194e-27  4.0696217913249988e-27  4.0140074020696346e-27  4.0710171862750116e-27  4.0626190195776338e-27  4.0805553654259188e-27  4.0698682286153240e-27  4.0693673136150522e-27  4.0694179519234601e-27  4.0706511225987060e-27  4.0688411910451160e-27  4.0691166422230099e-27  4.0704529612545671e-27  4.0697523724463600e-27  4.0690729052884368e-27  4.0692922841209742e-27  4.0683899251322453e-27  4.0697408982081707e-27  4.0702611123169518e-27  4.0678358715704306e-27  4.0695087012519202e-27  4.0700199679485699e-27  4.0698961505948694e-27  4.0695626212805908e-27  4.0703046454990081e-27  4.0688432919148410e-27  4.0685187114719296e-27  4.0700270972779053e-27  4.0686580245305736e-27  4.0687537526422945e-27  4.0682308077479235e-27  4.0698762602963387e-27  4.0693325171524140e-27  4.0698586911342789e-27  4.0692129321261278e-27  4.0689355437106179e-27  4.0694413598124385e-27  4.0692129351713900e-27  4.0688495702627997e-27  4.0692863126077227e-27  4.0705558977384607e-27  4.0709018997570629e-27  4.0696607323678225e-27  4.0689176868414319e-27  4.0685264300528256e-27  4.0684682670573215e-27  4.0674838571153525e-27  4.0767866636546111e-27  4.0703839274224827e-27  4.0633271878062507e-27  4.0692913619988711e-27  4.0692811192696629e-27  4.0694438430545201e-27  4.0688232056809644e-27  4.0683582099251033e-27  4.0710893194462727e-27  4.0690698879901268e-27  4.0649022207318142e-27  4.0690050577358460e-27  4.0703550326161616e-27  4.0687754717594053e-27  4.0697589445893434e-27  4.0695522575908824e-27  4.0696942035066801e-27  4.0679878719570128e-27  4.0688854114991202e-27  4.0703982724781436e-27  4.0697878767517120e-27  4.0687021908855649e-27  4.0649462105447193e-27  4.0663935508510168e-27  4.0707169678133207e-27  4.0691972912596833e-27  4.0657345015785851e-27  4.0706031625327162e-27  4.0709307240252784e-27  4.0661226328539419e-27  4.0673015970417332e-27  4.0656710482514065e-27  4.0764561775863122e-27  4.0692713618860513e-27  4.0700167626347211e-27  4.0689707266419529e-27  4.0705475794228272e-27  4.0681607629651786e-27  4.0686615203816574e-27  4.0688969512591781e-27  4.0715053065059167e-27  4.0680796500930614e-27  4.0692199264739391e-27  4.0770569833398915e-27  4.0674841496388587e-27  4.0692538607839241e-27  4.0681796728507046e-27  4.0695242929286392e-27  4.0687529143272591e-27  4.0694479841513063e-27  4.0772909871581750e-27  4.0707633949055936e-27  4.0691146863245438e-27  4.0717010283969990e-27  4.0703494010301696e-27  4.0687644598421698e-27  4.0652362901415741e-27  4.0696209200923592e-27  4.0694785050617202e-27  4.0723360930963898e-27  4.0692570799825983e-27  4.0725139336000963e-27  4.0795047889163120e-27  4.0670672376460499e-27  4.0683625197875848e-27  4.0727254981297440e-27  4.0738102998852509e-27  4.0716634983787211e-27  4.0690631103923173e-27  4.0691718359855711e-27  4.0670077061434104e-27  4.0687492017551384e-27  4.0690068877266595e-27  4.0693733836102347e-27  4.0692818514850969e-27  4.0691282513802372e-27  4.0702537260575662e-27  4.0565971872890510e-27  4.0676073181084012e-27  4.0682780059053184e-27  4.0730791819517640e-27  4.0704421996440746e-27  4.0723752250640714e-27  4.0703575793678834e-27  4.0668589839430150e-27  4.0718850913896082e-27  4.0693858777933906e-27  4.0612331877081809e-27  4.0637684924178641e-27  4.0702907037481473e-27  4.0699582512717847e-27  4.0708760903548347e-27  4.0680995324071500e-27  4.0636799511997096e-27  4.0683117171369500e-27  4.0692584949664306e-27  4.0701549317387273e-27  4.0689494767623972e-27  4.0693044804419389e-27  4.0691690717968004e-27  4.0675245770133152e-27  4.0714962512875174e-27  4.0688171307416802e-27  4.0689193378409934e-27  4.0770341864923235e-27  4.0676140403749196e-27  4.0587870822273071e-27  4.0970882206725995e-27  4.0689977385312894e-27  4.0686336704599172e-27  4.0686535211698293e-27  4.0813332768722419e-27  4.0854290224428968e-27  4.0651234119453313e-27  4.0689697222051978e-27  4.0699515767388446e-27  4.0696016676816695e-27  4.0693408854332980e-27  4.0693181173187300e-27  4.0693087352730410e-27  4.0690911505959715e-27  4.0698683886359361e-27  4.0693587765516319e-27  4.0695677000716651e-27  4.0684525051939453e-27  4.0700579573257576e-27  4.0692482786472694e-27  4.0689163604829537e-27  4.0693198846656194e-27  4.0692088274981534e-27  4.0690975323808368e-27  4.0700045662402536e-27  4.0696517660218011e-27  4.0692051298173937e-27  4.0759049243087507e-27  4.0681756078808640e-27  4.0693300165618632e-27  4.0586796412146838e-27  4.0783161715016149e-27  4.0645550334048308e-27  4.0658431146310235e-27  4.0689507159785626e-27  4.0689884101379391e-27  4.0739373301392316e-27  4.0710075792207800e-27  4.0690180741652731e-27  4.0689619648597166e-27  4.0623582885787676e-27  4.0642629604913930e-27  4.0691618698152453e-27  4.0734825443969545e-27  4.0648020542644484e-27  4.0670309343860506e-27  4.0707280457222315e-27  4.0810235147016795e-27  4.0703816800325971e-27  4.0690156861457299e-27  4.0685814605343886e-27  4.0683275160172833e-27  4.0688168058429417e-27  4.0704558734726670e-27  4.0696855110481347e-27  4.0691057318413490e-27  4.0659987779688871e-27  4.0710167127635574e-27  4.0699939452554582e-27  4.0713314273025646e-27  4.0694134671709764e-27  4.0711121900305106e-27  4.06706465238