<?xml version="1.0"?>
<VTKFile type="UnstructuredGrid"  version="0.1"  >
<UnstructuredGrid>
<Piece  NumberOfPoints="7937" NumberOfCells="31680">
<Points>
<DataArray  type="Float64"  NumberOfComponents="3"  format="ascii">11.04776000976562 12.59253025054932 7.84740686416626  10.98902034759521 13.27591037750244 8.406218528747559  11.06840038299561 13.71747970581055 7.407683849334717  10.71920967102051 13.02810955047607 7.304673194885254  0.09939099848270416 9.730006217956543 6.812564849853516  0.09939099848270416 10.25753974914551 6.09824800491333  0.09939099848270416 10.62012958526611 7.12263822555542  1.004651314250311 10.38245773835112 6.805679594290402  8.319725036621094 0.09558500349521637 25.27935981750488  7.744144916534424 0.09558500349521637 24.65199089050293  7.374207019805908 0.6876109838485718 25.27131080627441  8.188456535339355 1.165763020515442 25.32064056396484  5.894306319203034 16.52181023966828 21.35463552270587  7.299532559372599 16.49401268575357 22.14818882512456  7.34225686901161 15.89672330182677 21.15639177377791  7.115045205792756 17.18756830871195 20.97220483005579  18.15447998046875 0.6816989779472351 30.55500984191895  18.23812631453073 1.819471798432995 29.84012695829485  18.55550956726074 0.6429020166397095 29.72613906860352  17.65732601528248 0.690538555805599 29.68726602252496  15.24293575328377 9.496932332770193 24.01394413874447  15.452047096528 10.96078076570944 24.03395476588156  15.30231206876763 10.19800290109123 23.4426378381416  14.38837727145405 10.24810768425243 24.08367385229049  10.62491035461426 8.517734527587891 26.5118408203125  11.83830226047937 7.765695745501291 26.2495332633479  11.17844009399414 7.976909160614014 25.8271598815918  11.76351842964487 8.593973595856344 26.69043386386788  1.924406051635742 17.76457023620605 24.35383033752441  2.652589233739742 17.35756745117177 23.95753872534853  1.901358008384705 16.69158935546875 24.36017990112305  1.726403951644897 17.1634407043457 23.84209060668945  13.64352035522461 0.09558500349521637 28.74506950378418  14.48805999755859 0.09558500349521637 29.18498992919922  14.34523010253906 0.09558500349521637 28.10177040100098  14.26860186363399 0.8962998893940018 28.76304024589591  2.319084882736206 25.79446029663086 16.29328918457031  1.160062618164561 25.32611551945532 16.97554802771234  1.84749192184199 26.1107655923582 17.00228445364244  1.404997944831848 25.36783027648926 15.98567962646484  17.02544975280762 9.71726131439209 22.62701988220215  17.24413670523961 8.686283092001378 23.11706573022736  17.44457054138184 9.441779136657715 22.20199012756348  17.70636940002441 9.166142463684082 22.92539978027344  4.911716938018799 22.46944999694824 26.49673080444336  4.348631411712614 22.52274042586354 27.74787178285976  3.665626390300553 22.18963262643954 26.34688373312634  4.769721095018223 21.53722159354084 27.12003837417191  7.773248684704234 2.792522100254617 19.59741631533982  9.516697495174787 3.361655800729649 18.7117940637308  8.09777957171627 4.159760009283453 18.81990084457015  9.152567852576004 4.408923062264841 19.97710349125446  8.316856331062748 9.766925164264414 4.914294185757972  9.039445263592407 10.31653951185316 5.271380375096214  8.432402372836394 11.29029129444437 5.502798304786157  7.938842280608309 10.18961989161545 5.851418122856628  12.23448344386505 10.15476546945671 26.01045628217506  11.34232075310654 10.21074257491787 24.4265620156904  12.36047176741179 9.489286034207009 24.81774945309512  10.88167072924191 9.70563326606608 25.2735668689523  5.473738193511963 21.76763916015625 18.18597030639648  5.674769878387451 20.93980979919434 17.87022018432617  5.880791187286377 21.32410049438477 18.53717041015625  5.255184385460064 21.44025116355542 18.920210144108  7.503255844116211 17.66186904907227 14.01463031768799  6.495824813842773 17.85296058654785 14.45977020263672  6.954018115997314 18.16926002502441 13.84323024749756  6.521876834474805 17.13608432407465 13.79561705971948  4.02503776550293 10.40275001525879 22.00705909729004  4.840386867523193 9.825771331787109 22.01609039306641  5.032009787077012 9.879154907805528 22.8418319107321  4.042827591458906 9.966188156901065 22.77030418233764  5.71541686834439 13.81931715299889 11.00879489658979  6.335039950184822 14.30044234384561 11.87778160875428  5.140546665398348 14.8755900869257 10.79994522638816  4.990396671473241 14.50082413360242 12.05199107934865  15.54895973205566 10.27204990386963 28.50665092468262  15.10013961791992 9.86546802520752 29.11652946472168  14.4602852615372 10.70894889723005 28.92264518513157  14.51703939445483 9.879484892892048 28.21751871562706  11.16044998168945 0.09558500349521637 6.488171100616455  10.6318998336792 0.09558500349521637 7.097518920898438  11.63846969604492 0.09558500349521637 7.244607925415039  11.31838578949527 0.6961893084347961 7.221836724965405  3.939162387944976 11.91584512274063 3.70827789073501  2.9378963069043 11.60262258421202 3.239084080414848  4.275823646926199 11.5098669937177 2.754461607256722  3.830421032097437 10.6037552143173 3.470271026836476  13.24723876169078 13.73944198113977 16.79469021969166  12.39385014507964 12.35464271022589 16.4856390863416  13.57784051988094 12.92263755664768 15.82374506525858  13.92977700206404 12.45480809839192 16.9505301510282  3.338845014572144 0.09558500349521637 26.64773941040039  4.124124050140381 0.7161189913749695 26.70215034484863  3.000479810048755 1.014179511804993 26.18683505348272  3.061164721040992 1.103216606063491 27.21710560724785  12.89505004882812 16.54416084289551 0.6787459850311279  13.85200945460305 16.67835238935003 1.043712675952529  13.34521961212158 17.43120956420898 0.6693580150604248  13.13794040679932 17.06151962280273 1.132534027099609  4.814870834350586 0.9924589991569519 39.89208984375  5.204606056213379 0.4639959931373596 38.86196899414062  5.153764571086372 1.363555033230949 38.36821259456691  5.780478817358538 1.577516686092104 39.24196304409652  8.937583923339844 3.994426965713501 23.16554069519043  9.022880554199219 4.869105815887451 23.39876937866211  9.596207618713379 4.258718013763428 23.61586952209473  9.61470009363652 4.38965288473522 22.96849665201074  11.49279975891113 0.09558500349521637 3.342657089233398  11.82726001739502 0.09558500349521637 4.071989059448242  12.57624767607076 0.805107125684277 3.942777852208582  11.49206023055885 1.113854667434848 3.677004848712172  18.28440285915734 3.530964867688151 29.40069084485169  18.41871733131307 2.181151151254709 28.32657805006649  19.35220921895721 2.801268866417136 28.44053197439563  18.85950943430372 2.567317065668881 29.42444227549026  0.632095992565155 2.743419885635376 7.726728916168213  1.323341965675354 2.745059013366699 7.550306797027588  0.8659150004386902 3.443213939666748 7.105521202087402  1.137949658822444 3.651716394392513 8.095499878565278  2.447232725895193 1.095129799714786 23.72987635038141  3.106514930725098 0.09558500349521637 24.58004951477051  1.985139399235706 1.025796627469854 24.63661427257967  2.221836090087891 0.09558500349521637 24.1338996887207  10.35818004608154 4.973543167114258 27.11243057250977  10.87691974639893 4.989037990570068 26.59758949279785  10.65577983856201 5.681509017944336 26.8709602355957  11.01518645242453 4.716271982191934 27.26412996070284  3.119940042495728 7.278544902801514 26.59510040283203  3.099049753304223 8.410002825033178 26.47487664698666  2.304414875507706 7.936102918469949 25.79525872985419  1.949142373172263 8.085771720188131 26.88847876049708  6.315930008713635 20.29872505255518 9.315721348030022  7.77174979742095 19.87771146066953 8.926403541802012  7.574534643473436 20.90715873568816 9.765917941163188  7.771659049062478 20.08450387210853 10.37717232036229  9.97292423248291 7.475716114044189 24.87092018127441  9.58549976348877 6.921122074127197 24.48695945739746  9.310087203979492 7.721371173858643 24.60479927062988  10.34156087118312 7.992109768550137 24.29892539168162  8.314351081848145 18.91546058654785 12.16154003143311  9.036752700805664 18.58098030090332 11.55375003814697  8.869854927062988 18.48619079589844 12.37067985534668  8.082978698446214 18.41252480727453 11.83038153270756  16.92330932617188 5.794055938720703 27.32415008544922  17.57271573026096 6.292816600233106 26.20677060890071  17.061982245935 5.015928891971939 26.82073832116684  16.24644907596095 5.761196055119441 26.46940368482335  12.15874779290814 12.83607963278179 3.767538948333254  12.18907509361935 13.92706942214599 4.254980329993743  12.70309577587385 13.65486993001768 2.940822372851311  11.1395714808671 13.83083358894184 3.144857369239292  16.17094993591309 3.028398990631104 25.35478019714355  16.84943962097168 2.97537088394165 26.0648193359375  16.73089364961352 3.770612672385373 25.31024585372446  16.19394845057861 3.629106680367777 26.40768624206551  8.15324917338895 7.142637732561603 7.61466119798496  8.156493004666173 7.353799509723124 6.189556292274574  7.2384189731974 6.85685802316401 6.720661806310776  7.562659749777537 8.349689964195694 6.88808729426738  2.132330894470215 12.47772979736328 0.1048400029540062  3.006500005722046 12.35836029052734 0.1048400029540062  2.750739386320566 12.74013755070752 1.246656193364363  1.806942948919174 12.01616175836296 0.9253803347404354  0.09939099848270416 21.08396911621094 14.81503009796143  1.068137936225678 20.74494985623778 15.68842306928618  0.7252183772224178 20.7237381161651 14.08360950296762  1.185225406119254 21.71164030429712 14.59620627757892  10.74765014648438 6.248065948486328 6.593516826629639  11.38043975830078 6.016761779785156 6.028313159942627  11.07662963867188 5.421065807342529 6.71424388885498  10.78495384276337 5.321455470181387 5.890689019692442  5.362687110900879 23.60663986206055 19.70299911499023  5.106142044067383 24.50514984130859 19.6601505279541  5.05626392364502 24.00580024719238 19.15279006958008  4.421248082525279 24.12502222639771 19.41144654169463  12.23508518025742 0.8480799782870929 27.58311463911213  12.77493953704834 0.09558500349521637 27.1120796203613
[...]
<PointData  Scalars="c_HbCO2"> 
<DataArray  type="Float64"  Name="c_HbCO2"  format="ascii">4.0527784008155639e-27  4.0686074487254360e-27  4.0815518768682615e-27  4.0808415752430841e-27  6.3999999999999997e-22  6.3999999999999997e-22  6.3999999999999997e-22  -1.2136509645411166e-22  4.2014841942986370e-27  4.2291423888173113e-27  4.6420659002492053e-27  3.4580986772875139e-27  -1.8338586090278701e-25  3.5694449153880040e-27  2.4811354514077592e-26  6.9130657477738112e-26  4.0691242995088830e-27  4.0698908919979845e-27  4.0723242462223235e-27  4.0706732931022933e-27  4.0694144256040957e-27  4.0710720465543447e-27  4.0745206576244327e-27  4.0689713645874207e-27  4.0706899068396241e-27  4.0591112283756622e-27  4.0889341247557554e-27  4.0699546457891666e-27  -2.1677882507429948e-24  5.6796853521808348e-25  -4.4984265958665345e-24  -3.1662293164151952e-24  4.0678917113805450e-27  4.0693532921449583e-27  4.0708929046995848e-27  4.0687884654338955e-27  -1.6915494946583879e-23  -1.2828416342329637e-22  6.4497930355581174e-23  5.2841622381693301e-23  4.0667490069588435e-27  4.0709860243593957e-27  4.0700314651560954e-27  4.0641320287091054e-27  3.6406044410512849e-25  1.2691544467453930e-25  -2.1256168946422080e-24  2.0502590966757955e-26  2.1307720538598245e-26  3.5070226328071061e-27  6.9871174250753867e-28  2.9597327262734981e-27  4.3267236125472802e-27  2.9590390616660333e-27  7.6730086504400478e-27  1.0035630145575144e-26  4.0700644029213766e-27  4.0694709634730528e-27  4.0715335890975967e-27  4.0678209121368063e-27  1.6382614490818785e-25  -6.8260244090155244e-25  1.3600988483337872e-25  -7.4866568118607795e-25  -1.6734750210196274e-26  1.0955548896802377e-25  9.9740854633697953e-27  7.9579852145160437e-26  7.2177033795581245e-25  -2.3161597850816214e-25  -3.0525266427091419e-25  1.6588538380449057e-24  5.8843261800596642e-26  4.7340191627930565e-26  -3.6376370364635099e-26  -4.8657163721386497e-25  4.0706993157332310e-27  4.0692050572125504e-27  4.0691493421243008e-27  4.0695569291394026e-27  4.0696946197107262e-27  4.0691077005723814e-27  4.0699682611195947e-27  4.0695406694822934e-27  2.3596115754479574e-24  -1.8464784606863227e-23  3.0483059703637502e-24  1.6810964308051960e-24  4.0719826520242818e-27  4.0691216711011520e-27  4.0707194132620765e-27  4.0701890149139648e-27  6.4399777224827066e-24  2.4355289451676148e-24  -1.1241267344442765e-23  -8.8981687973270134e-24  4.0692054598457862e-27  4.0689074119053244e-27  4.0666776548974650e-27  4.0692002922888516e-27  -1.6677902259728748e-25  1.8894085468581134e-25  -2.7460969084802873e-25  2.8366890460199714e-26  3.7814629771038881e-27  4.1591044795918111e-27  4.0595381688255662e-27  4.1220118667087909e-27  4.0693796882233067e-27  4.0699813883475342e-27  4.0701782857017834e-27  4.0697072844286770e-27  4.0689501180683539e-27  4.0696014924994870e-27  4.0685115626857327e-27  4.0683726438478365e-27  -1.8059544789544084e-22  1.2223416183507544e-22  -1.0019817752534259e-22  -1.3934676469879116e-22  -1.4171105455408012e-23  2.1260120913044255e-24  6.6617941510743831e-24  4.6412912828113097e-25  4.0704109791396456e-27  4.0711800175969532e-27  4.0683478765512327e-27  4.0692935748442465e-27  -1.0542388875406831e-23  -7.7510264786024545e-24  4.4052510601096968e-24  6.2503960139891960e-23  -1.1438002507166899e-26  4.3599157150797737e-27  4.9050150984679039e-27  -3.5898903769398927e-27  4.0720228054308783e-27  4.0642413701900185e-27  4.0784030193905279e-27  4.0741972810030597e-27  -3.8014098776603812e-28  3.4590503964405039e-27  3.8786453067791894e-27  9.5507568461463179e-27  4.0737961367301892e-27  4.0696069370819839e-27  4.0704891578186305e-27  4.0692009606753312e-27  4.0823111902132557e-27  4.0680624133988045e-27  4.0655484637616576e-27  4.1064694241721802e-27  4.0728686133323876e-27  4.0687617745004518e-27  4.0695320543396426e-27  4.0686382460870064e-27  -7.8340721852874497e-28  7.1121683870441583e-28  2.9472708582284655e-27  4.1339348117242560e-26  -1.2236277076739464e-23  3.1830325860255417e-24  -7.4478573741356118e-24  3.8590264563686809e-23  6.3999999999999997e-22  -1.5193740965793356e-22  -1.6079036290306368e-22  -1.2593066751476568e-22  4.0606667777932527e-27  4.0699979337363385e-27  4.0430201901101960e-27  4.0719534637326169e-27  3.1827499035234607e-26  -2.2829845642404681e-26  3.3883291808577064e-26  -6.8545219590655905e-27  4.0688129728583762e-27  4.0719451925518660e-27  4.0697047551446958e-27  4.0683984245162933e-27  4.0668832106367470e-27  4.0811448176529572e-27  -2.3681203276503245e-24  2.3645755841124875e-24  1.2622069414007162e-24  -1.1350794135868262e-23  -8.2728074247218809e-27  -5.1476736361921495e-26  -2.2133655377778689e-27  -3.0951606737682021e-25  5.8717596071824464e-26  1.0499868403820493e-23  -1.3940518061424086e-24  -1.3988455570115280e-23  -5.4300792148851571e-24  2.5316781560808826e-23  1.2926218492597382e-23  -2.6149192746910440e-23  4.2993877087706120e-26  7.0447254920455322e-26  8.2795577414492300e-26  6.3655830451768964e-26  -1.5070332154227926e-23  3.1102567800370528e-25  3.0418192448606557e-23  -1.0815964001684106e-23  4.0705001405474143e-27  4.0674823428487357e-27  4.0701088048864037e-27  4.0707606930932583e-27  4.0092968457564484e-27  4.0956969176125796e-27  4.0357031462567449e-27  3.8374115417712249e-27  5.6565302990767534e-23  -1.3528617958450815e-22  -1.7249702651280446e-22  -1.0968641161980414e-22  -2.5107299226838057e-26  7.9228139388243065e-27  4.2078427496534347e-27  1.0351314696696522e-26  -1.5690461835511430e-23  8.0744225964115897e-23  2.3743853528074000e-23  -1.4426147480120092e-22  5.4063600069474042e-23  -4.0120585351057891e-23  -5.4986012803485708e-23  -1.6912949836952779e-22  -7.3718292768025650e-25  -9.9932972530961741e-25  3.3237060653471897e-25  1.2652806241738236e-25  4.0695409197875806e-27  4.0688050331357063e-27  4.0706206313683227e-27  4.0691353512535144e-27  -6.3977637500837149e-25  3.0195404980870358e-24  -1.5266386644867111e-24  1.0989001232140629e-24  -8.0477690181473793e-23  4.2534449106062187e-23  -4.3272412923493604e-23  -8.7749981330187809e-23  4.0369202438649857e-27  4.0203653055773383e-27  4.1090990274942371e-27  4.0703011355482829e-27  4.0834574834282267e-27  4.0687442745577011e-27  4.0585633060021621e-27  5.3519746704415705e-23  -1.3173882935524671e-22  6.3214680747751498e-23  -2.0608571139095336e-23  1.3433877355170660e-23  -7.1445140270088143e-24  -1.3333878454981345e-23  4.0694871375418853e-27  4.0696273860242715e-27  4.0695047903619610e-27  4.0698208879736516e-27  4.0557204194972981e-27  4.0736094355669623e-27  4.0767526865622509e-27  4.0732604553057889e-27  4.0700231668947708e-27  4.0729721820988308e-27  4.0689673962991945e-27  4.0721833232821807e-27  4.0678084547584151e-27  4.0698249606874466e-27  4.0712012934801415e-27  4.0698547480310951e-27  8.1403232026270725e-23  1.1258024406116762e-23  3.1328451517651567e-23  -6.7706252107697077e-23  3.0828985983519720e-27  3.6356610757451745e-27  7.3159997699045964e-27  6.9552783320039420e-27  4.0700074531417459e-27  4.0695510617128511e-27  4.0693193583365028e-27  4.0692958529468542e-27  4.0803507157310494e-27  4.0651913597648051e-27  4.0914601399982846e-27  4.0742795376797470e-27  -5.2822592148072482e-27  1.3464608075425128e-26  1.9489806034183673e-27  2.5867621226536290e-27  1.9650969229810700e-22  8.2245884312193802e-23  -2.1807183303990455e-23  -3.0301714327852709e-22  6.3999999999999997e-22  6.3999999999999997e-22  -2.9279659646287467e-22  -1.3265002486408672e-22  4.0685110992275081e-27  4.0651289067317090e-27  4.0702193273166272e-27  4.0711180019174064e-27  4.0700751694307956e-27  4.0722435140141844e-27  4.0675993268112596e-27  4.0703609806168902e-27  4.0705218368149797e-27  4.0697352154340496e-27  4.0710956837724338e-27  4.0689383454061854e-27  4.0693381501779648e-27  4.0684885133427308e-27  4.0670444924360776e-27  4.0699601776815638e-27  4.0680045109475803e-27  4.0696469336466882e-27  4.0734691104825102e-27  -1.2392307201772530e-24  2.7474841204926037e-25  -2.0761154266255651e-25  2.6994710894791889e-26  4.0731346164454878e-27  4.0512810432305931e-27  4.0658157485916655e-27  4.0684138519364083e-27  4.0683135106624687e-27  4.0693996299782503e-27  4.0702558785793718e-27  4.0689224393535095e-27  -3.3701562194547638e-25  2.6491046634066438e-25  1.2947214811901344e-24  9.5138974974382571e-26  -3.9401749090961122e-23  7.2831775009243697e-23  2.8010641658685289e-23  7.3059920954245312e-23  4.0692384515647033e-27  4.0708520169260582e-27  4.0686923305484996e-27  4.0697828404095094e-27  3.9901059637151007e-27  4.3470843173495100e-27  4.2164206200585429e-27  4.0382408250968719e-27  4.0674107303507974e-27  4.0701666227557268e-27  4.0688870987335017e-27  4.0670017356974474e-27  4.0765032302525087e-27  4.0598522486351969e-27  4.0639919982397388e-27  4.1061244484722150e-27  4.7224725643017097e-27  4.0910650624940324e-27  3.9096094680999938e-27  -1.5633360964643597e-25  6.3958365953621347e-25  4.6986230871287447e-26  -1.4166765016810511e-24  6.3999999999999997e-22  -1.2384212237898069e-22  -2.9649535747883894e-22  6.3999999999999997e-22  -1.9780701769925913e-22  6.3999999999999997e-22  6.3999999999999997e-22  6.3999999999999997e-22  6.3999999999999997e-22  6.3999999999999997e-22  -2.3337235349832227e-22  6.3999999999999997e-22  6.3999999999999997e-22  -1.7907053131833432e-22  -1.2004931553409994e-22  3.0643111634694354e-24  -6.5500602191809408e-24  1.3089285520260638e-24  -4.7601529360003930e-24  4.0691916200311315e-27  4.0699622194533842e-27  4.0692966106083050e-27  4.0695615506367172e-27  4.0611635436958785e-27  4.0618582063630261e-27  4.0652968484502287e-27  4.0741531083438199e-27  6.3999999999999997e-22  6.3999999999999997e-22  6.3999999999999997e-22  -2.1566413023096391e-22  2.0956097947339826e-23  9.1834278196558610e-23  -3.5369164591962717e-23  6.3999999999999997e-22  6.3999999999999997e-22  6.3999999999999997e-22  -8.5775631180652558e-23  1.2716843108217467e-24  -5.1866041810263975e-25  3.3765157086615372e-24  -1.8256372066252538e-24  4.0700689119486487e-27  4.0706690573363220e-27  4.0691436798598419e-27  4.0687350132869322e-27  -1.4344911334085244e-23  8.4599876706642399e-23  -2.6944044424032061e-22  -1.6031367268881288e-22  -5.9366047021504286e-24  -2.1068374230487033e-23  2.7194683882101600e-23  5.6520346015075866e-23  5.4270006159938439e-24  2.8470504835639026e-23  5.0418118987417036e-25  4.0694426301027505e-27  4.0679969522358589e-27  4.0683984299947018e-27  4.0698955952530714e-27  4.0730063161555759e-27  4.0641943329427485e-27  4.0729493793929230e-27  4.0703308849876203e-27  5.3316435656033034e-27  3.8914666275324532e-27  4.2889155961806859e-27  4.4907092667562474e-27  6.3999999999999997e-22  6.3999999999999997e-22  -1.6709374356311579e-22  -1.3883363185182066e-22  3.8973612228861864e-27  6.0535059861415846e-27  3.3929454918470256e-27  4.0529045737125138e-27  4.0686750418417975e-27  4.0673893550485127e-27  4.0721173654284049e-27  4.0696027742972114e-27  -3.2123021208188769e-24  2.2188447494343845e-23  4.8435132620646347e-23  -1.4208641428401907e-22  1.8838320931600456e-26  3.4899942891769463e-26  1.9847843074272794e-26  -4.0712537222212429e-25  1.0552837741276059e-25  9.9223892046467061e-26  1.3599309046557579e-25  2.3110299699547137e-27  -2.9545389112050290e-25  -1.3282707117284853e-26  2.8964655842051877e-26  -5.0571006230476623e-26  4.0578387848680550e-27  4.0659164931487378e-27  4.0701845346348765e-27  4.0654591506160128e-27  4.6765922728733817e-27  3.9737569044664858e-27  4.0470315500829161e-27  5.0297432479271322e-27  -1.5125736831763976e-22  -9.6650923175365059e-23  6.3999999999999997e-22  6.3999999999999997e-22  4.0710478293015478e-27  4.0688822676954426e-27  4.0689708892545924e-27  4.0695541052390581e-27  4.0712360269097119e-27  4.0698358199757455e-27  3.5301234666962477e-27  4.9208863851116278e-27  3.6012066787260821e-27  5.7591105545362766e-27  4.0705774245827156e-27  4.0695568136980592e-27  4.0689113302150809e-27  4.0721446268639107e-27  4.0656950946284392e-27  4.0628852737286597e-27  4.0740014747500863e-27  4.0904338028037609e-27  4.0673539622673142e-27  4.0677148857423623e-27  4.0635719652849014e-27  4.0713848595041740e-27  1.4203454101088059e-22  4.3189664821538288e-23  -1.7229110064073878e-22  -1.8455837177343256e-22  9.6187279615771772e-24  4.5539721539595168e-24  -8.1479598069817682e-24  -1.8980530199441815e-23  2.5211957653381138e-23  3.5233634062636990e-23  8.2494141185045679e-24  -1.1692072170600660e-22  5.3817627268456543e-24  6.2216044214736793e-23  4.0691038209079696e-27  4.0773079212729174e-27  4.0884493198500693e-27  4.0639025395952589e-27  4.0682578215121111e-27  4.0688474667101065e-27  4.0695040660165234e-27  4.0698910083898941e-27  2.2187851154536317e-23  -2.9610348975184487e-26  4.1474521798277627e-23  1.2696236935554613e-23  4.0969066631766244e-27  4.1110180271839868e-27  4.0746456487060340e-27  3.9504102969786772e-27  4.0689690614345950e-27  4.0702606477076991e-27  4.0704532027265438e-27  4.0709223845831229e-27  6.3999999999999997e-22  1.6703477446430173e-26  1.1538059789626915e-27  6.2969403669780665e-27  5.8412229454787375e-28  4.0765867870960162e-27  4.0838353413058884e-27  4.0724123484588332e-27  4.0623967717082412e-27  4.0706534255394326e-27  4.0680314154487443e-27  4.0748703984092621e-27  4.0693564926202467e-27  3.6678869102639374e-27  3.5603410747194717e-27  5.7127958071454377e-27  5.3926406824999429e-27  4.4614228641708984e-27  5.1685996261025629e-27  4.5218045628788159e-27  6.3999999999999997e-22  -1.4939127923111846e-22  -1.7378161787122703e-22  -1.5205361590878919e-22  4.0690889296333162e-27  4.0695155127723974e-27  4.0698550601114445e-27  4.0684836162757994e-27  -1.8246610997569630e-23  4.8685661942261091e-23  8.9084914818191124e-24  1.4393422490812711e-23  3.5790099128535677e-27  4.1639581739974763e-27  4.0522094804798146e-27  5.3953551043165751e-27  -5.7726530499530186e-23  6.3999999999999997e-22  -1.3565204346673715e-22  -1.4508776189787044e-22  4.0706828999835040e-27  4.0677236530686493e-27  4.0698741772540166e-27  4.0711896475596943e-27  4.0834140447933922e-27  4.1420621823330278e-27  4.0530535025457531e-27  1.3812976452118527e-27  -2.3006586041903987e-27  -4.1215897927009116e-28  5.6604280026757467e-26  -6.1056824002911107e-23  -7.7080607797906735e-24  -1.8017952052390988e-22  9.0041762646048962e-23  4.0671203508721553e-27  4.0695174371689545e-27  4.0691506757329919e-27  4.0693130857001860e-27  7.4719162328330330e-23  -7.9970596615801013e-23  2.7291511964111419e-23  -1.0644553639171077e-22  4.0692929237138008e-27  4.0705047843543281e-27  2.3078529122642510e-26  2.5943605523221162e-27  -4.7971462522295163e-28  1.0570748458490772e-26  4.0653861045608567e-27  4.0641089275041336e-27  4.0619062356541330e-27  4.0477476184503339e-27  3.9637908584173117e-27  4.2017414580332818e-27  4.0713377964664697e-27  3.9853270946024779e-27  3.9560109808660847e-27  4.4096370245921896e-27  4.8080282949900837e-27  4.3493552315469520e-27  9.2510475007204697e-23  -1.5175059441580869e-22  -1.7934286451391779e-22  -1.0821161369982785e-22  4.0698684191877094e-27  4.0698756965762678e-27  4.0661979320117368e-27  4.0701713074115493e-27  4.0915833294792641e-27  4.0728157403820915e-27  4.0816486103126459e-27  4.0658455804206494e-27  2.0545503586251931e-27  5.9045996806530093e-27  7.8406278715337239e-27  1.0102303316254607e-26  4.0681048202287423e-27  4.0679083113233914e-27  4.0719816063947149e-27  4.0691312606866414e-27  1.6463997041738586e-24  -2.7013987310695304e-24  -6.5095031454121338e-24  4.0681529627192283e-27  4.0690771201784708e-27  4.0693419039361453e-27  2.0393637770691960e-23  -1.6715967879581232e-22  -1.0731162879133897e-22  4.2971268870719483e-23  4.0703288786115621e-27  4.0688416253968169e-27  4.0678212035893478e-27  4.0700611756152682e-27  4.0696803575170432e-27  4.0697402501966594e-27  4.0692075722064549e-27  4.0694188193818286e-27  4.0694286662486986e-27  4.0694214486531857e-27  4.0678094645000534e-27  4.0685537738291723e-27  4.0012116805469477e-26  2.5553418892170655e-26  -4.0877223279366835e-27  6.9807997294504882e-26  1.2948101113835851e-26  2.2924367564794291e-27  3.9334607954475254e-27  3.2147342107289086e-27  4.0727186511611828e-27  4.0679027709342378e-27  4.0718761537012609e-27  4.0694365731389102e-27  4.0690346379809479e-27  4.0796125099035643e-27  4.0669006107764471e-27  4.0799233492248078e-27  -3.0893809844793151e-23  5.2844152778791297e-24  6.3215260313959372e-24  4.2746582543754683e-23  4.0688180311541009e-27  4.0695844765361563e-27  4.0727997001981023e-27  3.9530288848719488e-27  3.8622694089281383e-27  4.8730071407584509e-27  3.9668512491102735e-27  4.0288411783724112e-27  4.0662122591939759e-27  4.0539584683766163e-27  4.0736354337675558e-27  5.0989183237764137e-27  -1.8808243084352876e-27  -1.3464974688361306e-27  6.1360659352391479e-27  -6.9537147048822643e-24  5.3261292618586351e-23  4.0565798685872236e-27  3.9899950571505719e-27  3.9426874693017852e-27  4.2865600422840311e-27  8.7512479524239084e-26  1.6295537600341422e-25  -2.9539799389087494e-25  -1.4102110332929279e-25  1.8683760651853835e-23  -3.0042637884641414e-24  -1.0894195932447085e-22  4.9223401525640886e-23  4.0690834148888496e-27  4.0706334073871784e-27  4.0691157220879945e-27  4.0698403125982162e-27  -1.6480597213742242e-25  1.0633662863271701e-24  1.1342901519959897e-24  3.4356273587338057e-25  -1.8708247462493979e-23  -1.1960895518014342e-23  2.4124726785689027e-23  7.1044889368906738e-27  -2.2635317507060060e-26  1.8137334486422845e-26  5.5313318235438925e-27  -1.1278133747518099e-25  2.7513421990533215e-25  2.5849490989532950e-26  4.0656243502427719e-27  4.0579230262454768e-27  4.0657581716736994e-27  4.0733881610379878e-27  4.0698932524111727e-27  4.0707556391014307e-27  4.0692453276423013e-27  4.0697848072281215e-27  4.0705265414228609e-27  4.0658527244633722e-27  4.0694438185909724e-27  7.1412167854005270e-23  -1.2512714298339027e-23  -9.5080166654203674e-25  1.5728189559152505e-23  4.0688302429126720e-27  4.0700113272170616e-27  4.0694275544228333e-27  4.0728055753057841e-27  4.0772334636287200e-27  4.0725500436193136e-27  4.0698608268400724e-27  1.3480158088297240e-26  3.9279604886314435e-27  6.5017497615911426e-27  -1.7412157776730918e-27  -1.3597564006017780e-22  1.6409706492999508e-24  -1.2962720046264745e-24  -2.8536781786653470e-24  2.3241162352093786e-24  -5.5988567084555341e-27  1.7383160380033077e-26  -7.2192419277821740e-26  7.5560391833026785e-26  4.0737626446387482e-27  4.0672754552350931e-27  4.0687718278937139e-27  4.0667823748368863e-27  4.0589149322619334e-27  4.0832891478137455e-27  4.0688219364122340e-27  4.0526881830372505e-27  4.1096155576780004e-27  1.3595577350365172e-25  -4.6482795132903876e-25  4.2805372747758376e-28  4.3531268392665483e-25  2.8689808856445463e-24  2.1874976751194786e-24  4.0692854824137189e-27  4.0914020109238920e-27  4.0472924480618144e-27  4.0593187362489779e-27  4.0707091140796747e-27  4.0680873429315208e-27  4.0730624178576640e-27  4.0708132763364772e-27  4.0716427420365742e-27  4.0700318593374400e-27  4.0749859696902861e-27  4.0687747716212714e-27  4.0699164942645149e-27  4.0704901733906820e-27  4.0701802457284402e-27  4.0682315847336376e-27  3.5280241090089925e-23  -4.7676418874979506e-24  2.9257579481732761e-23  -1.2726662548427259e-22  9.6968580649932238e-26  -3.5295352045657061e-27  8.5296504145394949e-26  -2.4441510415170754e-25  4.5343506697742686e-24  -6.6777513620199606e-25  4.0693366965690921e-27  4.0703273041434334e-27  4.0686055306279904e-27  4.0690097956405344e-27  -1.7760525409739640e-27  6.9876358093328126e-26  4.3970962402306434e-27  3.7980091454400910e-26  9.4989772505413500e-27  4.8451803481668006e-27  -1.1791871839190228e-26  7.3811309284442903e-27  8.6277314042831213e-27  -8.4606939055222508e-27  -1.5240101993766953e-25  2.1866675848939102e-26  -1.5911253584517484e-23  -5.5482283782936677e-23  1.0733513674705480e-22  4.0676399235322063e-27  4.0944594232841668e-27  -1.1947355482903510e-24  4.2175514364467032e-25  -2.6087901501600811e-24  2.7312056416595708e-24  -1.19846