<?xml version="1.0"?>
<VTKFile type="UnstructuredGrid"  version="0.1"  >
<UnstructuredGrid>
<Piece  NumberOfPoints="55" NumberOfCells="132">
<Points>
<DataArray  type="Float64"  NumberOfComponents="3"  format="ascii">0 3.333333333333333 3.333333333333333  0.8333333333333334 3.333333333333333 3.333333333333333  0.8333333333333334 2.5 3.333333333333333  0.8333333333333334 2.5 2.5  0 2.5 3.333333333333333  0 2.5 2.5  1.666666666666667 3.333333333333333 3.333333333333333  1.666666666666667 3.333333333333333 4.166666666666667  1.666666666666667 2.5 4.166666666666667  0.8333333333333334 2.5 4.166666666666667  1.666666666666667 3.333333333333333 5  0.8333333333333334 3.333333333333333 4.166666666666667  0 3.333333333333333 5  0.8333333333333334 3.333333333333333 5  0.8333333333333334 2.5 5  0 2.5 5  0 2.5 4.166666666666667  0 3.333333333333333 4.166666666666667  0.8333333333333334 4.166666666666667 4.166666666666667  0.8333333333333334 4.166666666666667 3.333333333333333  1.666666666666667 4.166666666666667 4.166666666666667  1.666666666666667 4.166666666666667 3.333333333333333  1.666666666666667 5 3.333333333333333  1.666666666666667 5 4.166666666666667  1.666666666666667 5 5  1.666666666666667 4.166666666666667 5  0.8333333333333334 4.166666666666667 5  0 4.166666666666667 3.333333333333333  0 5 3.333333333333333  0.8333333333333334 5 4.166666666666667  0.8333333333333334 5 3.333333333333333  0 4.166666666666667 4.166666666666667  0 4.166666666666667 5  0 5 5  0.8333333333333334 5 5  0 5 4.166666666666667  0 3.333333333333333 1.666666666666667  0.8333333333333334 3.333333333333333 2.5  0 3.333333333333333 2.5  0.8333333333333334 4.166666666666667 2.5  0 4.166666666666667 2.5  0 5 1.666666666666667  0.8333333333333334 5 2.5  0 5 2.5  2.5 3.333333333333333 4.166666666666667  2.5 2.5 4.166666666666667  2.5 3.333333333333333 5  3.333333333333333 3.333333333333333 5  2.5 4.166666666666667 4.166666666666667  2.5 4.166666666666667 5  3.333333333333333 4.166666666666667 5  3.333333333333333 5 5  2.5 5 5  2.5 5 4.166666666666667  2.5 2.5 5  </DataArray>
</Points>
<Cells>
<DataArray  type="UInt32"  Name="connectivity"  format="ascii">0 3 2 1  0 3 2 4  0 3 5 4  6 3 2 1  6 8 9 7  10 8 9 7  0 9 1 11  0 2 9 1  0 2 4 9  6 9 7 11  6 9 1 11  6 2 9 1  10 9 7 11  12 9 14 13  12 9 14 15  12 9 16 15  10 9 14 13  0 9 11 17  0 9 16 17  0 4 9 16  12 9 11 13  12 9 11 17  12 9 16 17  10 9 11 13  0 1 19 18  6 21 20 18  6 21 19 18  6 1 19 18  22 20 18 23  22 21 20 18  22 21 19 18  24 20 18 23  0 1 11 18  6 7 20 18  6 7 11 18  6 1 11 18  10 20 18 25  10 7 20 18  10 7 11 18  24 20 18 25  0 11 17 18  12 18 13 26  12 11 18 13  12 11 17 18  10 18 25 26  10 18 13 26  10 11 18 13  24 18 25 26  0 19 18 27  28 18 30 29  28 19 18 30  28 19 18 27  22 18 23 29  22 18 30 29  22 19 18 30  24 18 23 29  0 17 18 31  12 18 26 32  12 18 31 32  12 17 18 31  33 18 26 34  33 18 26 32  33 18 31 32  24 18 26 34  0 18 27 31  28 18 29 35  28 18 31 35  28 18 27 31  33 18 29 34  33 18 29 35  33 18 31 35  24 18 29 34  36 3 37 38  36 3 5 38  0 3 1 37  0 3 37 38  0 3 5 38  6 3 1 37  36 37 38 39  0 1 19 39  0 1 37 39  0 37 38 39  6 21 19 39  6 1 19 39  6 1 37 39  22 21 19 39  36 38 39 40  0 19 27 39  0 27 39 40  0 38 39 40  28 19 30 39  28 19 27 39  28 27 39 40  22 19 30 39  41 39 42 43  41 39 40 43  28 30 39 42  28 39 42 43  28 39 40 43  22 30 39 42  6 7 44 45  6 8 7 45  10 44 45 46  10 7 44 45  10 8 7 45  47 44 45 46  6 7 44 48  10 48 46 49  10 44 48 46  10 7 44 48  47 48 50 49  47 48 46 49  47 44 48 46  51 48 50 49  6 7 20 48  10 25 48 49  10 20 25 48  10 7 20 48  24 48 49 52  24 25 48 49  24 20 25 48  51 48 49 52  6 21 20 48  22 23 48 53  22 20 23 48  22 21 20 48  24 48 53 52  24 23 48 53  24 20 23 48  51 48 53 52  10 45 46 54  47 45 46 54  </DataArray>
<DataArray  type="UInt32"  Name="offsets"  format="ascii">4 8 12 16 20 24 28 32 36 40 44 48 52 56 60 64 68 72 76 80 84 88 92 96 100 104 108 112 116 120 124 128 132 136 140 144 148 152 156 160 164 168 172 176 180 184 188 192 196 200 204 208 212 216 220 224 228 232 236 240 244 248 252 256 260 264 268 272 276 280 284 288 292 296 300 304 308 312 316 320 324 328 332 336 340 344 348 352 356 360 364 368 372 376 380 384 388 392 396 400 404 408 412 416 420 424 428 432 436 440 444 448 452 456 460 464 468 472 476 480 484 488 492 496 500 504 508 512 516 520 524 528 </DataArray>
<DataArray  type="UInt8"  Name="types"  format="ascii">10 10 10 10 10 10 10 10 10 10 10 10 10 10 10 10 10 10 10 10 10 10 10 10 10 10 10 10 10 10 10 10 10 10 10 10 10 10 10 10 10 10 10 10 10 10 10 10 10 10 10 10 10 10 10 10 10 10 10 10 10 10 10 10 10 10 10 10 10 10 10 10 10 10 10 10 10 10 10 10 10 10 10 10 10 10 10 10 10 10 10 10 10 10 10 10 10 10 10 10 10 10 10 10 10 10 10 10 10 10 10 10 10 10 10 10 10 10 10 10 10 10 10 10 10 10 10 10 10 10 10 10 </DataArray>
</Cells>
<PointData  Scalars="c_HbCO2"> 
<DataArray  type="Float64"  Name="c_HbCO2"  format="ascii">6.3999999999999997e-22  1.9158362332997253e-23  -5.3123533945735355e-23  -3.5280731419771440e-22  6.3999999999979055e-22  6.3999999999999997e-22  2.8550090398441022e-23  1.6180295221730264e-23  4.9292960938915540e-24  -3.5280731395689411e-22  2.8550090400281370e-23  -5.3123533629775051e-23  6.3999999999979055e-22  1.9158362320161316e-23  -5.3123533614240600e-23  6.3999999999979055e-22  6.3999999999979055e-22  6.3999999999979055e-22  -3.5280731423041406e-22  -5.3123533651675981e-23  4.9292961796247261e-24  1.6180295214377958e-23  2.8550090393411464e-23  1.6180295214184936e-23  2.8550090393562861e-23  1.6180295214572091e-23  -5.3123533652346048e-23  6.3999999999979055e-22  6.3999999999979055e-22  -5.3123533650989092e-23  1.9158362313960728e-23  6.3999999999979055e-22  6.3999999999979055e-22  6.3999999999979055e-22  1.9158362313312319e-23  6.3999999999979055e-22  6.3999999999979055e-22  -5.3123533657229580e-23  6.3999999999979055e-22  -3.5280731422472237e-22  6.3999999999979055e-22  6.3999999999979055e-22  -5.3123533650702342e-23  6.3999999999979055e-22  -2.0475033068724463e-24  -7.0718233353555291e-24  1.4268647437516898e-25  8.9094908418820649e-25  -7.0718233329199827e-24  -2.0475033106149205e-24  3.9919934101516652e-25  8.9094908401787626e-25  1.4268647475308544e-25  -2.0475033108051647e-24  -2.0475033057255363e-24  </DataArray> 
</PointData> 
</Piece>
</UnstructuredGrid>
</VTKFile>