<?xml version="1.0"?>
<VTKFile type="UnstructuredGrid"  version="0.1"  >
<UnstructuredGrid>
<Piece  NumberOfPoints="50" NumberOfCells="124">
<Points>
<DataArray  type="Float64"  NumberOfComponents="3"  format="ascii">3.333333333333333 3.333333333333333 0  4.166666666666667 3.333333333333333 0.8333333333333334  4.166666666666667 3.333333333333333 0  4.166666666666667 2.5 0.8333333333333334  5 3.333333333333333 0  5 3.333333333333333 0.8333333333333334  5 3.333333333333333 1.666666666666667  3.333333333333333 3.333333333333333 0.8333333333333334  3.333333333333333 3.333333333333333 1.666666666666667  4.166666666666667 3.333333333333333 1.666666666666667  3.333333333333333 4.166666666666667 0.8333333333333334  3.333333333333333 4.166666666666667 0  2.5 4.166666666666667 0.8333333333333334  2.5 4.166666666666667 0  3.333333333333333 5 0  3.333333333333333 5 0.8333333333333334  3.333333333333333 5 1.666666666666667  3.333333333333333 4.166666666666667 1.666666666666667  4.166666666666667 4.166666666666667 0.8333333333333334  4.166666666666667 4.166666666666667 0  5 4.166666666666667 0.8333333333333334  5 4.166666666666667 0  5 5 0  5 5 0.8333333333333334  5 5 1.666666666666667  5 4.166666666666667 1.666666666666667  4.166666666666667 4.166666666666667 1.666666666666667  4.166666666666667 5 0.8333333333333334  4.166666666666667 5 0  4.166666666666667 5 1.666666666666667  4.166666666666667 4.166666666666667 2.5  5 4.166666666666667 2.5  5 5 2.5  4.166666666666667 5 2.5  2.5 4.166666666666667 1.666666666666667  2.5 3.333333333333333 1.666666666666667  2.5 5 0.8333333333333334  2.5 5 0  2.5 5 1.666666666666667  3.333333333333333 4.166666666666667 2.5  2.5 4.166666666666667 2.5  3.333333333333333 5 2.5  3.333333333333333 5 3.333333333333333  2.5 5 2.5  3.333333333333333 3.333333333333333 2.5  3.333333333333333 3.333333333333333 3.333333333333333  3.333333333333333 4.166666666666667 3.333333333333333  4.166666666666667 3.333333333333333 2.5  4.166666666666667 2.5 2.5  5 2.5 0.8333333333333334  </DataArray>
</Points>
<Cells>
<DataArray  type="UInt32"  Name="connectivity"  format="ascii">0 3 2 1  4 3 1 5  4 3 2 1  6 3 1 5  0 3 7 1  8 3 1 9  8 3 7 1  6 3 1 9  0 11 10 12  0 11 13 12  14 10 12 15  14 11 10 12  14 11 13 12  16 10 12 15  0 7 10 12  8 10 17 12  8 7 10 12  16 10 17 12  0 2 19 18  4 18 21 20  4 19 18 21  4 2 19 18  22 18 20 23  22 18 21 20  22 19 18 21  24 18 20 23  0 2 1 18  4 18 5 20  4 1 18 5  4 2 1 18  6 18 20 25  6 18 5 20  6 1 18 5  24 18 20 25  0 7 1 18  8 18 9 26  8 1 18 9  8 7 1 18  6 18 26 25  6 18 9 26  6 1 18 9  24 18 26 25  0 11 19 18  14 18 28 27  14 19 18 28  14 11 19 18  22 18 27 23  22 18 28 27  22 19 18 28  24 18 27 23  0 7 10 18  8 18 17 26  8 10 18 17  8 7 10 18  16 18 26 29  16 18 17 26  16 10 18 17  24 18 26 29  0 11 10 18  14 18 15 27  14 10 18 15  14 11 10 18  16 18 27 29  16 18 15 27  16 10 18 15  24 18 27 29  8 9 26 30  6 30 25 31  6 26 30 25  6 9 26 30  24 30 31 32  24 30 25 31  24 26 30 25  8 17 26 30  16 30 29 33  16 26 30 29  16 17 26 30  24 30 33 32  24 30 29 33  24 26 30 29  8 17 12 34  8 12 35 34  16 17 12 34  14 12 15 36  14 12 36 37  14 13 12 37  16 12 15 36  16 12 34 38  16 12 36 38  8 17 40 39  8 17 34 40  8 35 34 40  16 40 39 41  16 17 40 39  16 17 34 40  42 40 39 41  16 40 43 41  16 38 40 43  16 34 38 40  42 40 43 41  8 30 39 44  45 30 39 46  45 30 39 44  42 30 39 46  8 17 30 39  16 30 33 41  16 30 39 41  16 17 30 39  42 30 33 41  42 30 39 41  8 40 39 44  45 40 39 46  45 40 39 44  42 40 39 46  8 9 48 47  6 9 48 47  8 44 48 47  45 44 48 47  8 9 30 47  6 9 30 47  8 30 44 47  45 30 44 47  4 3 5 49  6 3 5 49  </DataArray>
<DataArray  type="UInt32"  Name="offsets"  format="ascii">4 8 12 16 20 24 28 32 36 40 44 48 52 56 60 64 68 72 76 80 84 88 92 96 100 104 108 112 116 120 124 128 132 136 140 144 148 152 156 160 164 168 172 176 180 184 188 192 196 200 204 208 212 216 220 224 228 232 236 240 244 248 252 256 260 264 268 272 276 280 284 288 292 296 300 304 308 312 316 320 324 328 332 336 340 344 348 352 356 360 364 368 372 376 380 384 388 392 396 400 404 408 412 416 420 424 428 432 436 440 444 448 452 456 460 464 468 472 476 480 484 488 492 496 </DataArray>
<DataArray  type="UInt8"  Name="types"  format="ascii">10 10 10 10 10 10 10 10 10 10 10 10 10 10 10 10 10 10 10 10 10 10 10 10 10 10 10 10 10 10 10 10 10 10 10 10 10 10 10 10 10 10 10 10 10 10 10 10 10 10 10 10 10 10 10 10 10 10 10 10 10 10 10 10 10 10 10 10 10 10 10 10 10 10 10 10 10 10 10 10 10 10 10 10 10 10 10 10 10 10 10 10 10 10 10 10 10 10 10 10 10 10 10 10 10 10 10 10 10 10 10 10 10 10 10 10 10 10 10 10 10 10 10 10 </DataArray>
</Cells>
<PointData  Scalars="c_HbO2"> 
<DataArray  type="Float64"  Name="c_HbO2"  format="ascii">2.7842158877642477e-20  -1.8904404550408614e-21  -2.2071665538138019e-23  -5.3723980999686096e-21  1.5516000093009637e-21  6.3443821424958421e-22  1.5516000090485540e-21  1.2474979405946515e-20  2.7842158874570492e-20  -2.2071665377999471e-23  1.7195693646140181e-21  1.2474979406296181e-20  -2.2099447916808329e-19  -6.3984478457717285e-20  2.7842158877889910e-20  1.2474979405024786e-20  2.7842158878748520e-20  1.2474979406324185e-20  -5.3723981001416122e-21  -1.8904404548371149e-21  5.3316929141905923e-23  6.3443821416744697e-22  1.5516000092536614e-21  6.3443821413544888e-22  1.5516000091346788e-21  6.3443821421683089e-22  -1.8904404551679468e-21  -1.8904404548736636e-21  -2.2071665553226564e-23  -2.2071665560256414e-23  -5.3723980998985253e-21  5.3316929085051857e-23  6.3443821400753027e-22  -1.8904404547910603e-21  -6.3984478461527003e-20  4.4589523301140017e-21  -6.3984478457590631e-20  4.4589523310431477e-21  4.4589523287597351e-21  1.7195693661289339e-21  -2.2099447915937057e-19  1.2474979407641586e-20  2.7842158878400186e-20  -6.3984478466549263e-20  1.2474979402614382e-20  2.7842158875148668e-20  1.2474979405208786e-20  -1.8904404559580528e-21  -5.3723980998252760e-21  5.3316929494707736e-23  </DataArray> 
</PointData> 
</Piece>
</UnstructuredGrid>
</VTKFile>