<?xml version="1.0"?>
<VTKFile type="UnstructuredGrid"  version="0.1"  >
<UnstructuredGrid>
<Piece  NumberOfPoints="343" NumberOfCells="1296">
<Points>
<DataArray  type="Float64"  NumberOfComponents="3"  format="ascii">0 0 0  1.666666666666667 0 0  3.333333333333333 0 0  5 0 0  0 1.666666666666667 0  1.666666666666667 1.666666666666667 0  3.333333333333333 1.666666666666667 0  5 1.666666666666667 0  0 3.333333333333333 0  1.666666666666667 3.333333333333333 0  3.333333333333333 3.333333333333333 0  5 3.333333333333333 0  0 5 0  1.666666666666667 5 0  3.333333333333333 5 0  5 5 0  0 0 1.666666666666667  1.666666666666667 0 1.666666666666667  3.333333333333333 0 1.666666666666667  5 0 1.666666666666667  0 1.666666666666667 1.666666666666667  1.666666666666667 1.666666666666667 1.666666666666667  3.333333333333333 1.666666666666667 1.666666666666667  5 1.666666666666667 1.666666666666667  0 3.333333333333333 1.666666666666667  1.666666666666667 3.333333333333333 1.666666666666667  3.333333333333333 3.333333333333333 1.666666666666667  5 3.333333333333333 1.666666666666667  0 5 1.666666666666667  1.666666666666667 5 1.666666666666667  3.333333333333333 5 1.666666666666667  5 5 1.666666666666667  0 0 3.333333333333333  1.666666666666667 0 3.333333333333333  3.333333333333333 0 3.333333333333333  5 0 3.333333333333333  0 1.666666666666667 3.333333333333333  1.666666666666667 1.666666666666667 3.333333333333333  3.333333333333333 1.666666666666667 3.333333333333333  5 1.666666666666667 3.333333333333333  0 3.333333333333333 3.333333333333333  1.666666666666667 3.333333333333333 3.333333333333333  3.333333333333333 3.333333333333333 3.333333333333333  5 3.333333333333333 3.333333333333333  0 5 3.333333333333333  1.666666666666667 5 3.333333333333333  3.333333333333333 5 3.333333333333333  5 5 3.333333333333333  0 0 5  1.666666666666667 0 5  3.333333333333333 0 5  5 0 5  0 1.666666666666667 5  1.666666666666667 1.666666666666667 5  3.333333333333333 1.666666666666667 5  5 1.666666666666667 5  0 3.333333333333333 5  1.666666666666667 3.333333333333333 5  3.333333333333333 3.333333333333333 5  5 3.333333333333333 5  0 5 5  1.666666666666667 5 5  3.333333333333333 5 5  5 5 5  0.8333333333333334 0 0  0 0.8333333333333334 0  0.8333333333333334 0.8333333333333334 0  0 0 0.8333333333333334  0.8333333333333334 0 0.8333333333333334  0 0.8333333333333334 0.8333333333333334  0.8333333333333334 0.8333333333333334 0.8333333333333334  2.5 0 0  1.666666666666667 0.8333333333333334 0  2.5 0.8333333333333334 0  1.666666666666667 0 0.8333333333333334  2.5 0 0.8333333333333334  1.666666666666667 0.8333333333333334 0.8333333333333334  2.5 0.8333333333333334 0.8333333333333334  4.166666666666667 0 0  3.333333333333333 0.8333333333333334 0  4.166666666666667 0.8333333333333334 0  3.333333333333333 0 0.8333333333333334  4.166666666666667 0 0.8333333333333334  3.333333333333333 0.8333333333333334 0.8333333333333334  4.166666666666667 0.8333333333333334 0.8333333333333334  5 0.8333333333333334 0  5 0 0.8333333333333334  5 0.8333333333333334 0.8333333333333334  0.8333333333333334 1.666666666666667 0  0 2.5 0  0.8333333333333334 2.5 0  0 1.666666666666667 0.8333333333333334  0.8333333333333334 1.666666666666667 0.8333333333333334  0 2.5 0.8333333333333334  0.8333333333333334 2.5 0.8333333333333334  2.5 1.666666666666667 0  1.666666666666667 2.5 0  2.5 2.5 0  1.666666666666667 1.666666666666667 0.8333333333333334  2.5 1.666666666666667 0.8333333333333334  1.666666666666667 2.5 0.8333333333333334  2.5 2.5 0.8333333333333334  4.166666666666667 1.666666666666667 0  3.333333333333333 2.5 0  4.166666666666667 2.5 0  3.333333333333333 1.666666666666667 0.8333333333333334  4.166666666666667 1.666666666666667 0.8333333333333334  3.333333333333333 2.5 0.8333333333333334  4.166666666666667 2.5 0.8333333333333334  5 2.5 0  5 1.666666666666667 0.8333333333333334  5 2.5 0.8333333333333334  0.8333333333333334 3.333333333333333 0  0 4.166666666666667 0  0.8333333333333334 4.166666666666667 0  0 3.333333333333333 0.8333333333333334  0.8333333333333334 3.333333333333333 0.8333333333333334  0 4.166666666666667 0.8333333333333334  0.8333333333333334 4.166666666666667 0.8333333333333334  2.5 3.333333333333333 0  1.666666666666667 4.166666666666667 0  2.5 4.166666666666667 0  1.666666666666667 3.333333333333333 0.8333333333333334  2.5 3.333333333333333 0.8333333333333334  1.666666666666667 4.166666666666667 0.8333333333333334  2.5 4.166666666666667 0.8333333333333334  4.166666666666667 3.333333333333333 0  3.333333333333333 4.166666666666667 0  4.166666666666667 4.166666666666667 0  3.333333333333333 3.333333333333333 0.8333333333333334  4.166666666666667 3.333333333333333 0.8333333333333334  3.333333333333333 4.166666666666667 0.8333333333333334  4.166666666666667 4.166666666666667 0.8333333333333334  5 4.166666666666667 0  5 3.333333333333333 0.8333333333333334  5 4.166666666666667 0.8333333333333334  0.8333333333333334 5 0  0 5 0.8333333333333334  0.8333333333333334 5 0.8333333333333334  2.5 5 0  1.666666666666667 5 0.8333333333333334  2.5 5 0.8333333333333334  4.166666666666667 5 0  3.333333333333333 5 0.8333333333333334  4.166666666666667 5 0.8333333333333334  5 5 0.8333333333333334  0.8333333333333334 0 1.666666666666667  0 0.8333333333333334 1.666666666666667  0.8333333333333334 0.8333333333333334 1.666666666666667  0 0 2.5  0.8333333333333334 0 2.5  0 0.8333333333333334 2.5  0.8333333333333334 0.8333333333333334 2.5  2.5 0 1.666666666666667  1.666666666666667 0.8333333333333334 1.666666666666667  2.5 0.8333333333333334 1.666666666666667  1.666666666666667 0 2.5  2.5 0 2.5  1.666666666666667 0.8333333333333334 2.5  2.5 0.8333333333333334 2.5  4.166666666666667 0 1.666666666666667  3.333333333333333 0.8333333333333334 1.666666666666667  4.166666666666667 0.8333333333333334 1.666666666666667  3.333333333333333 0 2.5  4.166666666666667 0 2.5  3.333333333333333 0.8333333333333334 2.5  4.166666666666667 0.8333333333333334 2.5  5 0.8333333333333334 1.666666666666667  5 0 2.5  5 0.8333333333333334 2.5  0.8333333333333334 1.666666666666667 1.666666666666667  0 2.5 1.666666666666667  0.8333333333333334 2.5 1.666666666666667  0 1.666666666666667 2.5  0.8333333333333334 1.666666666666667 2.5  0 2.5 2.5  0.8333333333333334 2.5 2.5  2.5 1.666666666666667 1.666666666666667  1.666666666666667 2.5 1.666666666666667  2.5 2.5 1.666666666666667  1.666666666666667 1.666666666666667 2.5  2.5 1.666666666666667 2.5  1.666666666666667 2.5 2.5  2.5 2.5 2.5  4.166666666666667 1.666666666666667 1.666666666666667  3.333333333333333 2.5 1.666666666666667  4.166666666666667 2.5 1.666666666666667  3.333333333333333 1.666666666666667 2.5  4.166666666666667 1.666666666666667 2.5  3.333333333333333 2.5 2.5  4.166666666666667 2.5 2.5  5 2.5 1.666666666666667  5 1.666666666666667 2.5  5 2.5 2.5  0.8333333333333334 3.333333333333333 1.666666666666667  0 4.166666666666667 1.666666666666667  0.8333333333333334 4.166666666666667 1.666666666666667  0 3.333333333333333 2.5  0.8333333333333334 3.333333333333333 2.5  0 4.166666666666667 2.5  0.8333333333333334 4.166666666666667 2.5  2.5 3.333333333333333 1.666666666666667  1.666666666666667 4.166666666666667 1.666666666666667  2.5 4.166666666666667 1.666666666666667  1.666666666666667 3.333333333333333 2.5  2.5 3.333333333333333 2.5  1.666666666666667 4.166666666666667 2.5  2.5 4.166666666666667 2.5  4.166666666666667 3.333333333333333 1.666666666666667  3.333333333333333 4.166666666666667 1.666666666666667  4.166666666666667 4.166666666666667 1.666666666666667  3.333333333333333 3.333333333333333 2.5  4.166666666666667 3.333333333333333 2.5  3.333333333333333 4.166666666666667 2.5  4.166666666666667 4.166666666666667 2.5  5 4.166666666666667 1.666666666666667  5 3.333333333333333 2.5  5 4.166666666666667 2.5  0.8333333333333334 5 1.666666666666667  0 5 2.5  0.8333333333333334 5 2.5  2.5 5 1.666666666666667  1.666666666666667 5 2.5  2.5 5 2.5  4.166666666666667 5 1.666666666666667  3.333333333333333 5 2.5  4.166666666666667 5 2.5  5 5 2.5  0.8333333333333334 0 3.333333333333333  0 0.8333333333333334 3.333333333333333  0.8333333333333334 0.8333333333333334 3.333333333333333  0 0 4.166666666666667  0.8333333333333334 0 4.166666666666667  0 0.8333333333333334 4.166666666666667  0.8333333333333334 0.8333333333333334 4.166666666666667  2.5 0 3.333333333333333  1.666666666666667 0.8333333333333334 3.333333333333333  2.5 0.8333333333333334 3.333333333333333  1.666666666666667 0 4.166666666666667  2.5 0 4.166666666666667  1.666666666666667 0.8333333333333334 4.166666666666667  2.5 0.8333333333333334 4.166666666666667  4.166666666666667 0 3.333333333333333  3.333333333333333 0.8333333333333334 3.333333333333333  4.166666666666667 0.8333333333333334 3.333333333333333  3.333333333333333 0 4.166666666666667  4.166666666666667 0 4.166666666666667  3.333333333333333 0.8333333333333334 4.166666666666667  4.166666666666667 0.8333333333333334 4.166666666666667  5 0.8333333333333334 3.333333333333333  5 0 4.166666666666667  5 0.8333333333333334 4.166666666666667  0.8333333333333334 1.666666666666667 3.333333333333333  0 2.5 3.333333333333333  0.8333333333333334 2.5 3.333333333333333  0 1.666666666666667 4.166666666666667  0.8333333333333334 1.666666666666667 4.166666666666667  0 2.5 4.166666666666667  0.8333333333333334 2.5 4.166666666666667  2.5 1.666666666666667 3.333333333333333  1.666666666666667 2.5 3.333333333333333  2.5 2.5 3.333333333333333  1.666666666666667 1.666666666666667 4.166666666666667  2.5 1.666666666666667 4.166666666666667  1.666666666666667 2.5 4.166666666666667  2.5 2.5 4.166666666666667  4.166666666666667 1.666666666666667 3.333333333333333  3.333333333333333 2.5 3.333333333333333  4.166666666666667 2.5 3.333333333333333  3.333333333333333 1.666666666666667 4.166666666666667  4.166666666666667 1.666666666666667 4.166666666666667  3.333333333333333 2.5 4.166666666666667  4.166666666666667 2.5 4.166666666666667  5 2.5 3.333333333333333  5 1.66666666
[...]
<PointData  Scalars="c_HbO2"> 
<DataArray  type="Float64"  Name="c_HbO2"  format="ascii">2.0000000000000017e-17  8.9219478979050731e-19  2.7843532315926429e-20  1.5517385923690712e-21  2.0000000000000017e-17  8.9219048779449021e-19  2.7842109397886317e-20  1.5515704744677347e-21  2.0000000000000017e-17  8.9219033455343453e-19  2.7842159804216377e-20  1.5515985368068857e-21  2.0000000000000017e-17  8.9219032514510363e-19  2.7842158959294106e-20  1.5515998979239793e-21  2.0000000000000017e-17  8.9218997495139947e-19  2.7842153670757537e-20  1.5515811790278960e-21  2.0000000000000060e-17  8.9219031112878369e-19  2.7842154339165584e-20  1.5515954534290149e-21  2.0000000000000060e-17  8.9219032586944241e-19  2.7842158717673622e-20  1.5515997742829419e-21  2.0000000000000017e-17  8.9219032482623665e-19  2.7842158871146857e-20  1.5515999884467561e-21  2.0000000000000017e-17  8.9219031625580718e-19  2.7842156036727404e-20  1.5515989981796673e-21  2.0000000000000060e-17  8.9219032373967089e-19  2.7842158529867111e-20  1.5515996917962217e-21  2.0000000000000060e-17  8.9219032478240730e-19  2.7842158871643458e-20  1.5515999968366804e-21  2.0000000000000017e-17  8.9219032479597529e-19  2.7842158876530427e-20  1.5516000079522123e-21  2.0000000000000017e-17  8.9219032474537013e-19  2.7842158713884830e-20  1.5515999162087642e-21  2.0000000000000017e-17  8.9219032476942037e-19  2.7842158844110574e-20  1.5515999782474116e-21  2.0000000000000017e-17  8.9219032479419784e-19  2.7842158876409683e-20  1.5516000071266666e-21  2.0000000000000017e-17  8.9219032480183993e-19  2.7842158877732953e-20  1.5516000090458479e-21  5.9869649475935830e-19  2.0000000000000032e-17  -1.6601100514074562e-18  2.0000000000000032e-17  -1.6601067976208551e-18  2.0000000000000032e-17  -1.1025228646362016e-17  4.4582266975529289e-21  5.0563492998777257e-19  -6.3984484885263219e-20  5.0563444587667049e-19  -6.3983676077527998e-20  1.5404069593364463e-19  -2.2099464378865353e-19  -2.2219827625733433e-23  1.2475009158207628e-20  -1.8905121746931406e-21  1.2475234594219319e-20  -1.8904838267331266e-21  1.7196419177199467e-21  -5.3724506050213998e-21  6.3445021122051560e-22  6.3444173875737519e-22  5.3312715808627290e-23  5.9869886286837200e-19  2.0000000000000032e-17  -1.6601105143856709e-18  2.0000000000000032e-17  -1.6601103595747715e-18  2.0000000000000032e-17  -1.1025228596225110e-17  4.4589399367698694e-21  5.0563415718808915e-19  -6.3984488755853355e-20  5.0563410513697576e-19  -6.3984463748047867e-20  1.5404046401052801e-19  -2.2099447586653525e-19  -2.2079052638501318e-23  1.2474976154686961e-20  -1.8904401152072294e-21  1.2474956480732435e-20  -1.8904465536731563e-21  1.7195666630402656e-21  -5.3723967424126525e-21  6.3444026770493698e-22  6.3443151508257713e-22  5.3318656659724513e-23  5.9869882642301195e-19  2.0000000000000032e-17  -1.6601104277385650e-18  2.0000000000000032e-17  -1.6601104253243754e-18  2.0000000000000032e-17  -1.1025228569961257e-17  4.4589534854888123e-21  5.0563422489100359e-19  -6.3984478420239158e-20  5.0563422875504104e-19  -6.3984478720307710e-20  1.5404050540989494e-19  -2.2099447916081463e-19  -2.2072142921160803e-23  1.2474979350682588e-20  -1.8904404038798550e-21  1.2474979385720543e-20  -1.8904406019145644e-21  1.7195693340146250e-21  -5.3723980392257812e-21  6.3443834220273910e-22  6.3443786844558034e-22  5.3317018854752158e-23  5.9869882242966814e-19  2.0000000000000032e-17  -1.6601104265562526e-18  4.4589524439724529e-21  5.0563422547939561e-19  -6.3984478497916836e-20  -2.2071691534088215e-23  1.2474979399199722e-20  -1.8904404663831793e-21  6.3443819217790917e-22  5.9869889947580628e-19  2.0000000000000032e-17  -1.6601103885871681e-18  2.0000000000000032e-17  -1.6601103626497981e-18  2.0000000000000032e-17  -1.1025228548242395e-17  4.4589258447075111e-21  5.0563427797714986e-19  -6.3984489602632643e-20  5.0563429288404677e-19  -6.3984457749604300e-20  1.5404054176181836e-19  -2.2099447194048165e-19  -2.2088951121550281e-23  1.2474980713345379e-20  -1.8904400346240553e-21  1.2474985588897047e-20  -1.8904342866402578e-21  1.7195747019159121e-21  -5.3723932020296069e-21  6.3443017173254169e-22  6.3443721370272612e-22  5.3317590679358083e-23  5.9869882461234102e-19  2.0000000000000032e-17  -1.6601104268786400e-18  2.0000000000000032e-17  -1.6601104274532433e-18  2.0000000000000032e-17  -1.1025228569447077e-17  4.4589468924961875e-21  5.0563422867902545e-19  -6.3984478302370235e-20  5.0563422241884092e-19  -6.3984478114631415e-20  1.5404050569203065e-19  -2.2099447896590961e-19  -2.2075358247775371e-23  1.2474979748140112e-20  -1.8904398516307026e-21  1.2474978766711897e-20  -1.8904399496665876e-21  1.7195696298846565e-21  -5.3723978043847690e-21  6.3443801589310843e-22  6.3443785729292553e-22  5.3317059488533770e-23  5.9869882301918779e-19  2.0000000000000032e-17  -1.6601104266389952e-18  2.0000000000000032e-17  -1.6601104266220323e-18  2.0000000000000032e-17  -1.1025228569625878e-17  4.4589523239353491e-21  5.0563422547094568e-19  -6.3984478459792559e-20  5.0563422542809028e-19  -6.3984478438467363e-20  1.5404050561683392e-19  -2.2099447916534110e-19  -2.2071788921251869e-23  1.2474979421341749e-20  -1.8904404347732285e-21  1.2474979388004512e-20  -1.8904404420859134e-21  1.7195693724981712e-21  -5.3723980878408421e-21  6.3443820768052465e-22  6.3443818887600131e-22  5.3316937842231569e-23  5.9869882233144129e-19  2.0000000000000032e-17  -1.6601104266025674e-18  4.4589523317657499e-21  5.0563422544677623e-19  -6.3984478460554036e-20  -2.2071673401020507e-23  1.2474979403732592e-20  -1.8904404551711091e-21  6.3443821171720987e-22  5.9869881809879202e-19  2.0000000000000032e-17  -1.6601104277454198e-18  2.0000000000000032e-17  -1.6601104261723616e-18  2.0000000000000032e-17  -1.1025228569370060e-17  4.4589513923169661e-21  5.0563422226045773e-19  -6.3984478408752274e-20  5.0563422553292741e-19  -6.3984478349349240e-20  1.5404050560313471e-19  -2.2099447905960567e-19  -2.2072267804311481e-23  1.2474978767807038e-20  -1.8904405874185863e-21  1.2474979566617497e-20  -1.8904402700563626e-21  1.7195695710298270e-21  -5.3723978926868627e-21  6.3443773732085283e-22  6.3443819504236989e-22  5.3316994850195360e-23  5.9869882144194351e-19  2.0000000000000032e-17  -1.6601104264955247e-18  2.0000000000000032e-17  -1.6601104265386334e-18  2.0000000000000032e-17  -1.1025228569582590e-17  4.4589523929338161e-21  5.0563422545379017e-19  -6.3984478431378002e-20  5.0563422545400077e-19  -6.3984478452972167e-20  1.5404050562920913e-19  -2.2099447916141437e-19  -2.2071884398770202e-23  1.2474979389420059e-20  -1.8904404342465179e-21  1.2474979394953168e-20  -1.8904404156440448e-21  1.7195693789348908e-21  -5.3723980775304973e-21  6.3443819413710777e-22  6.3443820955381850e-22  5.3316939207575170e-23  5.9869882230962589e-19  2.0000000000000032e-17  -1.6601104266023538e-18  2.0000000000000032e-17  -1.6601104266046872e-18  2.0000000000000032e-17  -1.1025228569604841e-17  4.4589523394810343e-21  5.0563422544347162e-19  -6.3984478460213182e-20  5.0563422544198653e-19  -6.3984478459948403e-20  1.5404050562406001e-19  -2.2099447916659098e-19  -2.2071674916168200e-23  1.2474979405253339e-20  -1.8904404546394171e-21  1.2474979404506468e-20  -1.8904404548767210e-21  1.7195693653631631e-21  -5.3723980994823649e-21  6.3443821275945394e-22  6.3443821188479568e-22  5.3316929448937219e-23  5.9869882230357375e-19  2.0000000000000032e-17  -1.6601104266056257e-18  4.4589523323832858e-21  5.0563422544584764e-19  -6.3984478459962558e-20  -2.2071666418135224e-23  1.2474979406185878e-20  -1.8904404550164788e-21  6.3443821412051126e-22  5.9869882225634495e-19  2.0000000000000032e-17  -1.6601104266266898e-18  4.4589522930471537e-21  5.0563422541000695e-19  -6.3984478475811553e-20  -2.2071715434382093e-23  1.2474979343038557e-20  -1.8904404651026220e-21  6.3443817493082105e-22  5.9869882228991487e-19  2.0000000000000032e-17  -1.6601104266032318e-18  4.4589523209745793e-21  5.0563422544083945e-19  -6.3984478457148293e-20  -2.2071681964134642e-23  1.2474979403725624e-20  -1.8904404541611733e-21  6.3443820970079281e-22  5.9869882230586763e-19  2.0000000000000032e-17  -1.6601104266037433e-18  4.4589523322027750e-21  5.0563422543951094e-19  -6.3984478458359571e-20  -2.2071666438083631e-23  1.2474979406131291e-20  -1.8904404548842362e-21  6.3443821411426196e-22  5.9869882229446324e-19  4.4589523324106174e-21  -2.2071665595972955e-23  </DataArray> 
</PointData> 
</Piece>
</UnstructuredGrid>
</VTKFile>