<?xml version="1.0"?>
<VTKFile type="UnstructuredGrid"  version="0.1"  >
<UnstructuredGrid>
<Piece  NumberOfPoints="52" NumberOfCells="126">
<Points>
<DataArray  type="Float64"  NumberOfComponents="3"  format="ascii">3.333333333333333 0 3.333333333333333  3.333333333333333 0.8333333333333334 3.333333333333333  3.333333333333333 0.8333333333333334 2.5  2.5 0.8333333333333334 2.5  3.333333333333333 0 2.5  2.5 0 2.5  3.333333333333333 1.666666666666667 3.333333333333333  2.5 0.8333333333333334 3.333333333333333  2.5 0 3.333333333333333  5 0 3.333333333333333  5 0.8333333333333334 3.333333333333333  5 0.8333333333333334 2.5  4.166666666666667 0.8333333333333334 2.5  5 0 2.5  4.166666666666667 0 2.5  5 1.666666666666667 3.333333333333333  4.166666666666667 0.8333333333333334 3.333333333333333  4.166666666666667 0 3.333333333333333  4.166666666666667 1.666666666666667 3.333333333333333  3.333333333333333 0.8333333333333334 4.166666666666667  2.5 0.8333333333333334 4.166666666666667  3.333333333333333 1.666666666666667 4.166666666666667  3.333333333333333 1.666666666666667 5  3.333333333333333 0 4.166666666666667  2.5 0 4.166666666666667  3.333333333333333 0 5  3.333333333333333 0.8333333333333334 5  2.5 0.8333333333333334 5  2.5 0 5  2.5 1.666666666666667 4.166666666666667  4.166666666666667 0.8333333333333334 4.166666666666667  5 0.8333333333333334 4.166666666666667  5 1.666666666666667 4.166666666666667  5 1.666666666666667 5  4.166666666666667 0 4.166666666666667  5 0 4.166666666666667  5 0 5  5 0.8333333333333334 5  4.166666666666667 0.8333333333333334 5  4.166666666666667 0 5  4.166666666666667 1.666666666666667 4.166666666666667  4.166666666666667 1.666666666666667 5  2.5 1.666666666666667 5  3.333333333333333 2.5 4.166666666666667  2.5 2.5 4.166666666666667  3.333333333333333 2.5 5  3.333333333333333 3.333333333333333 5  2.5 2.5 5  4.166666666666667 2.5 4.166666666666667  5 2.5 4.166666666666667  5 2.5 5  4.166666666666667 2.5 5  </DataArray>
</Points>
<Cells>
<DataArray  type="UInt32"  Name="connectivity"  format="ascii">0 3 2 1  0 3 2 4  0 3 5 4  6 3 2 1  0 3 1 7  0 3 8 7  0 3 5 8  6 3 1 7  9 12 11 10  9 12 11 13  9 12 14 13  15 12 11 10  0 12 17 16  0 12 14 17  0 12 4 14  9 12 16 10  9 12 17 16  9 12 14 17  15 12 16 10  0 12 1 16  0 2 12 1  0 2 12 4  6 12 18 16  6 12 1 16  6 2 12 1  15 12 18 16  0 1 19 20  0 1 7 20  0 8 7 20  6 19 21 20  6 1 19 20  6 1 7 20  22 19 21 20  0 19 23 20  0 23 20 24  0 8 20 24  25 19 20 26  25 19 23 20  25 23 20 24  22 19 20 26  25 20 26 27  25 20 27 28  25 20 24 28  22 20 26 27  6 21 20 29  22 21 20 29  0 17 16 30  9 30 10 31  9 16 30 10  9 17 16 30  15 30 31 32  15 30 10 31  15 16 30 10  33 30 31 32  0 17 30 34  9 30 31 35  9 30 34 35  9 17 30 34  36 30 31 37  36 30 31 35  36 30 34 35  33 30 31 37  0 23 30 34  25 30 38 39  25 30 34 39  25 23 30 34  36 30 38 37  36 30 38 39  36 30 34 39  33 30 38 37  0 1 16 30  6 18 30 40  6 18 16 30  6 1 16 30  15 30 40 32  15 18 30 40  15 18 16 30  33 30 40 32  0 19 23 30  25 30 26 38  25 19 30 26  25 19 23 30  22 30 41 38  22 30 26 38  22 19 30 26  33 30 41 38  0 1 19 30  6 30 21 40  6 19 30 21  6 1 19 30  22 30 40 41  22 30 21 40  22 19 30 21  33 30 40 41  22 20 27 42  22 20 29 42  6 44 21 43  6 44 21 29  22 44 43 45  22 44 21 43  22 44 21 29  46 44 43 45  22 44 47 45  22 44 47 42  22 44 29 42  46 44 47 45  6 18 40 48  15 32 48 49  15 40 32 48  15 18 40 48  33 48 49 50  33 32 48 49  33 40 32 48  6 21 40 48  22 41 48 51  22 40 41 48  22 21 40 48  33 48 51 50  33 41 48 51  33 40 41 48  6 21 43 48  22 48 45 51  22 43 48 45  22 21 43 48  46 48 45 51  46 43 48 45  </DataArray>
<DataArray  type="UInt32"  Name="offsets"  format="ascii">4 8 12 16 20 24 28 32 36 40 44 48 52 56 60 64 68 72 76 80 84 88 92 96 100 104 108 112 116 120 124 128 132 136 140 144 148 152 156 160 164 168 172 176 180 184 188 192 196 200 204 208 212 216 220 224 228 232 236 240 244 248 252 256 260 264 268 272 276 280 284 288 292 296 300 304 308 312 316 320 324 328 332 336 340 344 348 352 356 360 364 368 372 376 380 384 388 392 396 400 404 408 412 416 420 424 428 432 436 440 444 448 452 456 460 464 468 472 476 480 484 488 492 496 500 504 </DataArray>
<DataArray  type="UInt8"  Name="types"  format="ascii">10 10 10 10 10 10 10 10 10 10 10 10 10 10 10 10 10 10 10 10 10 10 10 10 10 10 10 10 10 10 10 10 10 10 10 10 10 10 10 10 10 10 10 10 10 10 10 10 10 10 10 10 10 10 10 10 10 10 10 10 10 10 10 10 10 10 10 10 10 10 10 10 10 10 10 10 10 10 10 10 10 10 10 10 10 10 10 10 10 10 10 10 10 10 10 10 10 10 10 10 10 10 10 10 10 10 10 10 10 10 10 10 10 10 10 10 10 10 10 10 10 10 10 10 10 10 </DataArray>
</Cells>
<PointData  Scalars="c_HbO2"> 
<DataArray  type="Float64"  Name="c_HbO2"  format="ascii">2.7842158892186426e-20  1.2474979419760721e-20  1.7195693938452137e-21  -2.2099447899033141e-19  1.2474979452998214e-20  -6.3984478686739786e-20  2.7842158892587988e-20  -6.3984478380328966e-20  4.4589524042243118e-21  1.5516000092995239e-21  6.3443821489234179e-22  5.3316929378682905e-23  -5.3723980968458473e-21  6.3443821433702453e-22  -1.8904404544330386e-21  1.5516000098090588e-21  -1.8904404553410506e-21  -2.2071665695890677e-23  -2.2071667738602253e-23  1.7195693657577402e-21  -2.2099447917749858e-19  1.2474979406414714e-20  2.7842158882575945e-20  1.2474979405786315e-20  -6.3984478454800416e-20  2.7842158878365645e-20  1.2474979406136566e-20  -6.3984478469977960e-20  4.4589523323293349e-21  -6.3984478282945944e-20  -5.3723981002557003e-21  5.3316928958952417e-23  6.3443821399846185e-22  1.5516000092762792e-21  -1.8904404552473481e-21  6.3443821401752611e-22  1.5516000090579231e-21  6.3443821404532157e-22  -1.8904404550820270e-21  -2.2071665526598158e-23  -1.8904404541621141e-21  -2.2071665497956286e-23  4.4589523370717982e-21  1.7195693636785044e-21  -2.2099447922995075e-19  1.2474979418099728e-20  2.7842158880032399e-20  -6.3984478303278419e-20  -5.3723980985288829e-21  5.3316928850225479e-23  6.3443821396198428e-22  -1.8904404567672194e-21  </DataArray> 
</PointData> 
</Piece>
</UnstructuredGrid>
</VTKFile>