<?xml version="1.0"?>
<VTKFile type="UnstructuredGrid"  version="0.1"  >
<UnstructuredGrid>
<Piece  NumberOfPoints="56" NumberOfCells="127">
<Points>
<DataArray  type="Float64"  NumberOfComponents="3"  format="ascii">0 0 0  0.8333333333333334 0.8333333333333334 0.8333333333333334  0.8333333333333334 0.8333333333333334 0  0 0.8333333333333334 0  0 1.666666666666667 0  0 0.8333333333333334 0.8333333333333334  0 0 0.8333333333333334  0 0 1.666666666666667  0.8333333333333334 0.8333333333333334 1.666666666666667  0 0.8333333333333334 1.666666666666667  0 1.666666666666667 1.666666666666667  0.8333333333333334 1.666666666666667 1.666666666666667  1.666666666666667 1.666666666666667 1.666666666666667  0.8333333333333334 0.8333333333333334 2.5  0.8333333333333334 1.666666666666667 2.5  1.666666666666667 1.666666666666667 2.5  1.666666666666667 1.666666666666667 3.333333333333333  0 0.8333333333333334 2.5  0 1.666666666666667 2.5  0 1.666666666666667 3.333333333333333  0.8333333333333334 1.666666666666667 3.333333333333333  0.8333333333333334 2.5 2.5  0.8333333333333334 2.5 3.333333333333333  0 2.5 2.5  0 2.5 3.333333333333333  0.8333333333333334 2.5 4.166666666666667  1.666666666666667 0 0  2.5 0.8333333333333334 0.8333333333333334  1.666666666666667 0.8333333333333334 0.8333333333333334  1.666666666666667 0 0.8333333333333334  1.666666666666667 0 1.666666666666667  2.5 0.8333333333333334 1.666666666666667  1.666666666666667 0.8333333333333334 1.666666666666667  1.666666666666667 0.8333333333333334 0  1.666666666666667 1.666666666666667 0  1.666666666666667 1.666666666666667 0.8333333333333334  2.5 0.8333333333333334 2.5  2.5 0 0.8333333333333334  2.5 0 1.666666666666667  0.8333333333333334 0 0  0.8333333333333334 0 0.8333333333333334  0.8333333333333334 0 1.666666666666667  1.666666666666667 0.8333333333333334 2.5  0.8333333333333334 0 2.5  1.666666666666667 0 2.5  0 0 2.5  2.5 0 2.5  2.5 1.666666666666667 3.333333333333333  2.5 0.8333333333333334 3.333333333333333  3.333333333333333 1.666666666666667 3.333333333333333  2.5 1.666666666666667 4.166666666666667  2.5 0.8333333333333334 4.166666666666667  2.5 1.666666666666667 2.5  2.5 2.5 2.5  2.5 2.5 3.333333333333333  2.5 2.5 4.166666666666667  </DataArray>
</Points>
<Cells>
<DataArray  type="UInt32"  Name="connectivity"  format="ascii">0 3 2 1  4 3 2 1  0 3 1 5  4 3 1 5  0 1 5 6  7 1 9 8  7 1 5 9  7 1 5 6  10 1 11 8  10 1 9 8  10 1 5 9  12 1 11 8  7 9 8 13  10 11 13 14  10 11 8 13  10 9 8 13  12 13 14 15  12 11 13 14  12 11 8 13  16 13 14 15  7 9 13 17  10 13 14 18  10 13 17 18  10 9 13 17  19 13 14 20  19 13 14 18  19 13 17 18  16 13 14 20  10 11 14 21  12 14 21 15  12 11 14 21  16 14 21 15  10 14 18 21  19 21 20 22  19 14 21 20  19 14 18 21  16 21 20 22  16 14 21 20  10 18 21 23  19 21 22 24  19 21 23 24  19 18 21 23  19 20 22 25  16 20 22 25  19 22 24 25  26 27 29 28  30 27 31 32  30 27 28 32  30 27 29 28  12 27 31 32  12 27 28 32  26 33 27 28  34 35 27 28  34 33 27 28  12 35 27 28  30 31 32 36  12 31 32 36  26 27 29 37  30 27 31 38  30 27 37 38  30 27 29 37  30 31 36 38  0 2 1 39  26 1 33 28  26 2 1 33  26 2 1 39  34 1 35 28  34 1 33 28  34 2 1 33  12 1 35 28  0 1 39 40  26 1 29 28  26 1 29 40  26 1 39 40  30 1 28 32  30 1 29 28  30 1 29 40  12 1 28 32  0 1 6 40  7 1 8 41  7 1 40 41  7 1 6 40  30 1 8 32  30 1 8 41  30 1 40 41  12 1 8 32  7 8 13 41  30 13 32 42  30 8 13 32  30 8 13 41  12 13 15 42  12 13 32 42  12 8 13 32  16 13 15 42  7 13 41 43  30 13 42 44  30 13 44 43  30 13 41 43  7 13 43 45  7 13 17 45  30 36 38 46  30 36 44 46  30 36 42 44  16 36 48 47  49 36 48 47  16 47 51 50  16 48 47 51  49 47 51 50  49 48 47 51  30 32 36 42  12 15 36 52  12 15 36 42  12 32 36 42  16 36 52 47  16 15 36 52  16 15 36 42  49 36 52 47  12 15 53 52  16 53 54 47  16 53 52 47  16 15 53 52  49 53 54 47  49 53 52 47  16 54 55 47  49 54 55 47  16 55 47 50  49 55 47 50  </DataArray>
<DataArray  type="UInt32"  Name="offsets"  format="ascii">4 8 12 16 20 24 28 32 36 40 44 48 52 56 60 64 68 72 76 80 84 88 92 96 100 104 108 112 116 120 124 128 132 136 140 144 148 152 156 160 164 168 172 176 180 184 188 192 196 200 204 208 212 216 220 224 228 232 236 240 244 248 252 256 260 264 268 272 276 280 284 288 292 296 300 304 308 312 316 320 324 328 332 336 340 344 348 352 356 360 364 368 372 376 380 384 388 392 396 400 404 408 412 416 420 424 428 432 436 440 444 448 452 456 460 464 468 472 476 480 484 488 492 496 500 504 508 </DataArray>
<DataArray  type="UInt8"  Name="types"  format="ascii">10 10 10 10 10 10 10 10 10 10 10 10 10 10 10 10 10 10 10 10 10 10 10 10 10 10 10 10 10 10 10 10 10 10 10 10 10 10 10 10 10 10 10 10 10 10 10 10 10 10 10 10 10 10 10 10 10 10 10 10 10 10 10 10 10 10 10 10 10 10 10 10 10 10 10 10 10 10 10 10 10 10 10 10 10 10 10 10 10 10 10 10 10 10 10 10 10 10 10 10 10 10 10 10 10 10 10 10 10 10 10 10 10 10 10 10 10 10 10 10 10 10 10 10 10 10 10 </DataArray>
</Cells>
<PointData  Scalars="p_CO2"> 
<DataArray  type="Float64"  Name="p_CO2"  format="ascii">4.4999999999952522e+01  4.4999999999448150e+01  4.4999999999738364e+01  4.4999999999952522e+01  4.4999999999952522e+01  4.4999999999952522e+01  4.4999999999952522e+01  4.4999999999952522e+01  4.4999999999913719e+01  4.4999999999952522e+01  4.4999999999952522e+01  4.4999999999744787e+01  4.4999999999976680e+01  4.5000000001349896e+01  4.5000000001160970e+01  4.5000000004022013e+01  4.5000000006050421e+01  4.4999999999952522e+01  4.4999999999952522e+01  4.4999999999952522e+01  4.5000000002024287e+01  4.5000000001755112e+01  4.5000000001547946e+01  4.4999999999952522e+01  4.4999999999952522e+01  4.5000000002063651e+01  4.4999999999989669e+01  4.5000000000243482e+01  4.4999999999543768e+01  4.4999999999992326e+01  4.5000000000699622e+01  4.5000000003232032e+01  4.5000000001158917e+01  4.4999999999300115e+01  4.4999999999495316e+01  4.4999999998814630e+01  4.5000000006607145e+01  4.5000000000341004e+01  4.5000000001236977e+01  4.4999999999954746e+01  4.4999999999649326e+01  4.5000000000150301e+01  4.5000000003956707e+01  4.5000000000510987e+01  4.5000000001060762e+01  4.4999999999952522e+01  4.5000000002247511e+01  4.5000000011094976e+01  4.5000000010297939e+01  4.5000000016569459e+01  4.5000000010251377e+01  4.5000000005760171e+01  4.5000000008851373e+01  4.5000000007332766e+01  4.5000000012538891e+01  4.5000000013969093e+01  </DataArray> 
</PointData> 
</Piece>
</UnstructuredGrid>
</VTKFile>