<?xml version="1.0"?>
<VTKFile type="UnstructuredGrid"  version="0.1"  >
<UnstructuredGrid>
<Piece  NumberOfPoints="55" NumberOfCells="126">
<Points>
<DataArray  type="Float64"  NumberOfComponents="3"  format="ascii">1.666666666666667 1.666666666666667 0  2.5 2.5 0.8333333333333334  2.5 2.5 0  2.5 1.666666666666667 0  3.333333333333333 1.666666666666667 0  3.333333333333333 2.5 0.8333333333333334  3.333333333333333 2.5 0  3.333333333333333 3.333333333333333 0  3.333333333333333 3.333333333333333 0.8333333333333334  3.333333333333333 3.333333333333333 1.666666666666667  1.666666666666667 2.5 0  1.666666666666667 3.333333333333333 0  2.5 3.333333333333333 0.8333333333333334  2.5 3.333333333333333 0  4.166666666666667 2.5 0.8333333333333334  4.166666666666667 2.5 0  4.166666666666667 3.333333333333333 0  5 3.333333333333333 0  2.5 4.166666666666667 0.8333333333333334  2.5 4.166666666666667 0  2.5 3.333333333333333 1.666666666666667  2.5 2.5 1.666666666666667  3.333333333333333 3.333333333333333 2.5  2.5 3.333333333333333 2.5  2.5 2.5 2.5  3.333333333333333 3.333333333333333 3.333333333333333  2.5 4.166666666666667 2.5  1.666666666666667 0 0  2.5 0.8333333333333334 0.8333333333333334  2.5 0.8333333333333334 0  1.666666666666667 0.8333333333333334 0  2.5 1.666666666666667 0.8333333333333334  3.333333333333333 1.666666666666667 0.8333333333333334  3.333333333333333 1.666666666666667 1.666666666666667  1.666666666666667 1.666666666666667 1.666666666666667  2.5 1.666666666666667 1.666666666666667  2.5 0.8333333333333334 1.666666666666667  1.666666666666667 1.666666666666667 0.8333333333333334  3.333333333333333 2.5 1.666666666666667  4.166666666666667 2.5 1.666666666666667  4.166666666666667 3.333333333333333 1.666666666666667  5 3.333333333333333 1.666666666666667  2.5 1.666666666666667 2.5  2.5 0.8333333333333334 2.5  3.333333333333333 1.666666666666667 2.5  3.333333333333333 1.666666666666667 3.333333333333333  3.333333333333333 2.5 2.5  3.333333333333333 2.5 3.333333333333333  4.166666666666667 2.5 2.5  3.333333333333333 0.8333333333333334 2.5  4.166666666666667 1.666666666666667 2.5  4.166666666666667 0.8333333333333334 2.5  4.166666666666667 1.666666666666667 3.333333333333333  2.5 2.5 3.333333333333333  2.5 2.5 4.166666666666667  </DataArray>
</Points>
<Cells>
<DataArray  type="UInt32"  Name="connectivity"  format="ascii">0 3 2 1  4 1 6 5  4 2 1 6  4 3 2 1  7 1 5 8  7 1 6 5  7 2 1 6  9 1 5 8  0 2 1 10  11 1 13 12  11 2 1 13  11 2 1 10  7 1 8 12  7 1 13 12  7 2 1 13  9 1 8 12  4 6 15 14  7 15 14 16  7 6 15 14  17 15 14 16  4 6 5 14  7 5 14 8  7 6 5 14  9 5 14 8  11 13 19 18  7 13 19 18  11 13 12 18  7 8 12 18  7 13 12 18  9 8 12 18  9 1 21 20  9 1 12 20  9 12 18 20  9 22 24 23  9 20 24 23  9 21 20 24  25 22 24 23  9 26 22 23  9 20 26 23  25 26 22 23  27 30 29 28  0 3 28 31  0 3 29 28  0 30 29 28  4 28 31 32  4 3 28 31  4 3 29 28  33 28 31 32  34 28 36 35  33 28 36 35  0 37 28 31  34 28 31 35  34 37 28 31  33 28 31 35  0 3 1 31  4 1 5 32  4 1 31 32  4 3 1 31  33 1 5 38  33 1 5 32  33 1 31 32  9 1 5 38  0 1 37 31  34 1 21 35  34 1 31 35  34 1 37 31  33 1 21 38  33 1 21 35  33 1 31 35  9 1 21 38  4 5 14 32  33 14 38 39  33 5 14 38  33 5 14 32  9 14 40 39  9 14 38 39  9 5 14 38  41 14 40 39  34 35 43 42  34 36 35 43  33 44 43 42  33 35 43 42  33 36 35 43  45 44 43 42  34 21 24 35  33 24 38 46  33 21 24 38  33 21 24 35  9 22 24 46  9 24 38 46  9 21 24 38  25 22 24 46  34 24 35 42  33 24 44 46  33 24 44 42  33 24 35 42  45 24 46 47  45 24 44 46  45 24 44 42  25 24 46 47  33 38 39 48  9 40 39 48  9 38 39 48  41 40 39 48  33 44 46 48  45 46 48 47  45 44 46 48  25 46 48 47  33 38 46 48  9 22 46 48  9 38 46 48  25 22 46 48  33 44 43 49  45 44 43 49  33 44 50 51  33 44 49 51  45 50 51 52  45 44 50 51  45 44 49 51  33 44 48 50  45 48 50 52  45 44 48 50  45 24 53 47  25 24 53 47  45 53 54 47  25 53 54 47  </DataArray>
<DataArray  type="UInt32"  Name="offsets"  format="ascii">4 8 12 16 20 24 28 32 36 40 44 48 52 56 60 64 68 72 76 80 84 88 92 96 100 104 108 112 116 120 124 128 132 136 140 144 148 152 156 160 164 168 172 176 180 184 188 192 196 200 204 208 212 216 220 224 228 232 236 240 244 248 252 256 260 264 268 272 276 280 284 288 292 296 300 304 308 312 316 320 324 328 332 336 340 344 348 352 356 360 364 368 372 376 380 384 388 392 396 400 404 408 412 416 420 424 428 432 436 440 444 448 452 456 460 464 468 472 476 480 484 488 492 496 500 504 </DataArray>
<DataArray  type="UInt8"  Name="types"  format="ascii">10 10 10 10 10 10 10 10 10 10 10 10 10 10 10 10 10 10 10 10 10 10 10 10 10 10 10 10 10 10 10 10 10 10 10 10 10 10 10 10 10 10 10 10 10 10 10 10 10 10 10 10 10 10 10 10 10 10 10 10 10 10 10 10 10 10 10 10 10 10 10 10 10 10 10 10 10 10 10 10 10 10 10 10 10 10 10 10 10 10 10 10 10 10 10 10 10 10 10 10 10 10 10 10 10 10 10 10 10 10 10 10 10 10 10 10 10 10 10 10 10 10 10 10 10 10 </DataArray>
</Cells>
<PointData  Scalars="p_CO2"> 
<DataArray  type="Float64"  Name="p_CO2"  format="ascii">4.4999999999495316e+01  4.4999999999276326e+01  4.4999999998967382e+01  4.4999999999572019e+01  4.4999999999956991e+01  4.5000000000985267e+01  4.4999999999896708e+01  4.4999999999937835e+01  4.5000000000629136e+01  4.5000000002947118e+01  4.4999999999560586e+01  4.4999999999743331e+01  4.4999999998850512e+01  4.4999999999589519e+01  4.5000000002689816e+01  4.5000000000432209e+01  4.5000000000428692e+01  4.5000000000785320e+01  4.4999999998423426e+01  4.5000000000236049e+01  4.5000000000641094e+01  4.5000000001638313e+01  4.5000000007769401e+01  4.5000000004819761e+01  4.5000000007332766e+01  4.5000000011887593e+01  4.5000000001858012e+01  4.4999999999989669e+01  4.5000000000243482e+01  4.4999999999891251e+01  4.4999999999300115e+01  4.4999999999981362e+01  4.5000000001061636e+01  4.5000000006166132e+01  4.4999999999976680e+01  4.5000000003139483e+01  4.5000000003232032e+01  4.4999999998814630e+01  4.5000000005530850e+01  4.5000000008711240e+01  4.5000000005977874e+01  4.5000000007796793e+01  4.5000000008851373e+01  4.5000000006607145e+01  4.5000000011733853e+01  4.5000000016569459e+01  4.5000000011034608e+01  4.5000000015474740e+01  4.5000000016725139e+01  4.5000000009508021e+01  4.5000000014884961e+01  4.5000000011404346e+01  4.5000000020322183e+01  4.5000000012538891e+01  4.5000000013969093e+01  </DataArray> 
</PointData> 
</Piece>
</UnstructuredGrid>
</VTKFile>