<?xml version="1.0"?>
<VTKFile type="UnstructuredGrid"  version="0.1"  >
<UnstructuredGrid>
<Piece  NumberOfPoints="55" NumberOfCells="132">
<Points>
<DataArray  type="Float64"  NumberOfComponents="3"  format="ascii">0 3.333333333333333 3.333333333333333  0.8333333333333334 3.333333333333333 3.333333333333333  0.8333333333333334 2.5 3.333333333333333  0.8333333333333334 2.5 2.5  0 2.5 3.333333333333333  0 2.5 2.5  1.666666666666667 3.333333333333333 3.333333333333333  1.666666666666667 3.333333333333333 4.166666666666667  1.666666666666667 2.5 4.166666666666667  0.8333333333333334 2.5 4.166666666666667  1.666666666666667 3.333333333333333 5  0.8333333333333334 3.333333333333333 4.166666666666667  0 3.333333333333333 5  0.8333333333333334 3.333333333333333 5  0.8333333333333334 2.5 5  0 2.5 5  0 2.5 4.166666666666667  0 3.333333333333333 4.166666666666667  0.8333333333333334 4.166666666666667 4.166666666666667  0.8333333333333334 4.166666666666667 3.333333333333333  1.666666666666667 4.166666666666667 4.166666666666667  1.666666666666667 4.166666666666667 3.333333333333333  1.666666666666667 5 3.333333333333333  1.666666666666667 5 4.166666666666667  1.666666666666667 5 5  1.666666666666667 4.166666666666667 5  0.8333333333333334 4.166666666666667 5  0 4.166666666666667 3.333333333333333  0 5 3.333333333333333  0.8333333333333334 5 4.166666666666667  0.8333333333333334 5 3.333333333333333  0 4.166666666666667 4.166666666666667  0 4.166666666666667 5  0 5 5  0.8333333333333334 5 5  0 5 4.166666666666667  0 3.333333333333333 1.666666666666667  0.8333333333333334 3.333333333333333 2.5  0 3.333333333333333 2.5  0.8333333333333334 4.166666666666667 2.5  0 4.166666666666667 2.5  0 5 1.666666666666667  0.8333333333333334 5 2.5  0 5 2.5  2.5 3.333333333333333 4.166666666666667  2.5 2.5 4.166666666666667  2.5 3.333333333333333 5  3.333333333333333 3.333333333333333 5  2.5 4.166666666666667 4.166666666666667  2.5 4.166666666666667 5  3.333333333333333 4.166666666666667 5  3.333333333333333 5 5  2.5 5 5  2.5 5 4.166666666666667  2.5 2.5 5  </DataArray>
</Points>
<Cells>
<DataArray  type="UInt32"  Name="connectivity"  format="ascii">0 3 2 1  0 3 2 4  0 3 5 4  6 3 2 1  6 8 9 7  10 8 9 7  0 9 1 11  0 2 9 1  0 2 4 9  6 9 7 11  6 9 1 11  6 2 9 1  10 9 7 11  12 9 14 13  12 9 14 15  12 9 16 15  10 9 14 13  0 9 11 17  0 9 16 17  0 4 9 16  12 9 11 13  12 9 11 17  12 9 16 17  10 9 11 13  0 1 19 18  6 21 20 18  6 21 19 18  6 1 19 18  22 20 18 23  22 21 20 18  22 21 19 18  24 20 18 23  0 1 11 18  6 7 20 18  6 7 11 18  6 1 11 18  10 20 18 25  10 7 20 18  10 7 11 18  24 20 18 25  0 11 17 18  12 18 13 26  12 11 18 13  12 11 17 18  10 18 25 26  10 18 13 26  10 11 18 13  24 18 25 26  0 19 18 27  28 18 30 29  28 19 18 30  28 19 18 27  22 18 23 29  22 18 30 29  22 19 18 30  24 18 23 29  0 17 18 31  12 18 26 32  12 18 31 32  12 17 18 31  33 18 26 34  33 18 26 32  33 18 31 32  24 18 26 34  0 18 27 31  28 18 29 35  28 18 31 35  28 18 27 31  33 18 29 34  33 18 29 35  33 18 31 35  24 18 29 34  36 3 37 38  36 3 5 38  0 3 1 37  0 3 37 38  0 3 5 38  6 3 1 37  36 37 38 39  0 1 19 39  0 1 37 39  0 37 38 39  6 21 19 39  6 1 19 39  6 1 37 39  22 21 19 39  36 38 39 40  0 19 27 39  0 27 39 40  0 38 39 40  28 19 30 39  28 19 27 39  28 27 39 40  22 19 30 39  41 39 42 43  41 39 40 43  28 30 39 42  28 39 42 43  28 39 40 43  22 30 39 42  6 7 44 45  6 8 7 45  10 44 45 46  10 7 44 45  10 8 7 45  47 44 45 46  6 7 44 48  10 48 46 49  10 44 48 46  10 7 44 48  47 48 50 49  47 48 46 49  47 44 48 46  51 48 50 49  6 7 20 48  10 25 48 49  10 20 25 48  10 7 20 48  24 48 49 52  24 25 48 49  24 20 25 48  51 48 49 52  6 21 20 48  22 23 48 53  22 20 23 48  22 21 20 48  24 48 53 52  24 23 48 53  24 20 23 48  51 48 53 52  10 45 46 54  47 45 46 54  </DataArray>
<DataArray  type="UInt32"  Name="offsets"  format="ascii">4 8 12 16 20 24 28 32 36 40 44 48 52 56 60 64 68 72 76 80 84 88 92 96 100 104 108 112 116 120 124 128 132 136 140 144 148 152 156 160 164 168 172 176 180 184 188 192 196 200 204 208 212 216 220 224 228 232 236 240 244 248 252 256 260 264 268 272 276 280 284 288 292 296 300 304 308 312 316 320 324 328 332 336 340 344 348 352 356 360 364 368 372 376 380 384 388 392 396 400 404 408 412 416 420 424 428 432 436 440 444 448 452 456 460 464 468 472 476 480 484 488 492 496 500 504 508 512 516 520 524 528 </DataArray>
<DataArray  type="UInt8"  Name="types"  format="ascii">10 10 10 10 10 10 10 10 10 10 10 10 10 10 10 10 10 10 10 10 10 10 10 10 10 10 10 10 10 10 10 10 10 10 10 10 10 10 10 10 10 10 10 10 10 10 10 10 10 10 10 10 10 10 10 10 10 10 10 10 10 10 10 10 10 10 10 10 10 10 10 10 10 10 10 10 10 10 10 10 10 10 10 10 10 10 10 10 10 10 10 10 10 10 10 10 10 10 10 10 10 10 10 10 10 10 10 10 10 10 10 10 10 10 10 10 10 10 10 10 10 10 10 10 10 10 10 10 10 10 10 10 </DataArray>
</Cells>
<PointData  Scalars="p_CO2"> 
<DataArray  type="Float64"  Name="p_CO2"  format="ascii">4.4999999999952522e+01  4.5000000002256918e+01  4.5000000001547946e+01  4.5000000001755112e+01  4.4999999999952522e+01  4.4999999999952522e+01  4.5000000004891952e+01  4.5000000004765987e+01  4.5000000007232970e+01  4.5000000002063651e+01  4.5000000002366491e+01  4.5000000001985626e+01  4.4999999999952522e+01  4.5000000000644064e+01  4.5000000001045123e+01  4.4999999999952522e+01  4.4999999999952522e+01  4.4999999999952522e+01  4.5000000001156828e+01  4.5000000001038643e+01  4.5000000002335078e+01  4.5000000002594632e+01  4.5000000000893394e+01  4.5000000000870116e+01  4.5000000000214676e+01  4.5000000000807169e+01  4.5000000000269480e+01  4.4999999999952522e+01  4.4999999999952522e+01  4.5000000000231601e+01  4.5000000000426922e+01  4.4999999999952522e+01  4.4999999999952522e+01  4.4999999999952522e+01  4.5000000000003922e+01  4.4999999999952522e+01  4.4999999999952522e+01  4.5000000001342144e+01  4.4999999999952522e+01  4.5000000000732072e+01  4.4999999999952522e+01  4.4999999999952522e+01  4.5000000000606029e+01  4.4999999999952522e+01  4.5000000009182777e+01  4.5000000013969093e+01  4.5000000002672692e+01  4.5000000002903462e+01  4.5000000004615863e+01  4.5000000001070205e+01  4.5000000002050008e+01  4.5000000000306322e+01  4.5000000000048146e+01  4.5000000001256169e+01  4.5000000003178641e+01  </DataArray> 
</PointData> 
</Piece>
</UnstructuredGrid>
</VTKFile>