<?xml version="1.0"?>
<VTKFile type="UnstructuredGrid"  version="0.1"  >
<UnstructuredGrid>
<Piece  NumberOfPoints="56" NumberOfCells="136">
<Points>
<DataArray  type="Float64"  NumberOfComponents="3"  format="ascii">3.333333333333333 1.666666666666667 0  4.166666666666667 2.5 0.8333333333333334  4.166666666666667 1.666666666666667 0.8333333333333334  3.333333333333333 1.666666666666667 0.8333333333333334  3.333333333333333 1.666666666666667 1.666666666666667  4.166666666666667 2.5 1.666666666666667  4.166666666666667 1.666666666666667 1.666666666666667  5 1.666666666666667 1.666666666666667  5 2.5 1.666666666666667  5 3.333333333333333 1.666666666666667  4.166666666666667 2.5 2.5  5 2.5 2.5  1.666666666666667 0 0  2.5 0.8333333333333334 0.8333333333333334  2.5 0.8333333333333334 0  2.5 0 0  3.333333333333333 0 0  3.333333333333333 0.8333333333333334 0.8333333333333334  3.333333333333333 0.8333333333333334 0  2.5 0 0.8333333333333334  3.333333333333333 0 0.8333333333333334  3.333333333333333 0 1.666666666666667  3.333333333333333 0.8333333333333334 1.666666666666667  2.5 0.8333333333333334 1.666666666666667  2.5 0 1.666666666666667  4.166666666666667 0.8333333333333334 0.8333333333333334  4.166666666666667 0.8333333333333334 0  4.166666666666667 0 0  5 0 0  5 0.8333333333333334 0.8333333333333334  5 0.8333333333333334 0  5 1.666666666666667 0  5 1.666666666666667 0.8333333333333334  4.166666666666667 0 0.8333333333333334  5 0 0.8333333333333334  5 0 1.666666666666667  5 0.8333333333333334 1.666666666666667  4.166666666666667 0.8333333333333334 1.666666666666667  4.166666666666667 0 1.666666666666667  4.166666666666667 1.666666666666667 0  4.166666666666667 2.5 0  5 2.5 0.8333333333333334  5 2.5 0  5 3.333333333333333 0  3.333333333333333 0.8333333333333334 2.5  2.5 0.8333333333333334 2.5  4.166666666666667 0.8333333333333334 2.5  5 0.8333333333333334 2.5  5 1.666666666666667 2.5  5 1.666666666666667 3.333333333333333  4.166666666666667 1.666666666666667 2.5  4.166666666666667 1.666666666666667 3.333333333333333  3.333333333333333 0 2.5  2.5 0 2.5  4.166666666666667 0 2.5  5 0 2.5  </DataArray>
</Points>
<Cells>
<DataArray  type="UInt32"  Name="connectivity"  format="ascii">0 1 3 2  4 1 6 5  4 1 2 6  4 1 3 2  7 1 5 8  7 1 6 5  7 1 2 6  9 1 5 8  4 6 5 10  7 10 8 11  7 5 10 8  7 6 5 10  9 10 8 11  9 5 10 8  12 14 13 15  16 13 18 17  16 14 13 18  16 14 13 15  0 13 3 17  0 13 18 17  0 14 13 18  4 13 3 17  12 13 15 19  16 13 17 20  16 13 19 20  16 13 15 19  21 13 17 22  21 13 17 20  21 13 19 20  4 13 17 22  21 13 23 22  21 13 23 24  21 13 19 24  4 13 23 22  16 27 26 25  28 25 30 29  28 26 25 30  28 27 26 25  31 25 29 32  31 25 30 29  31 26 25 30  7 25 29 32  16 27 25 33  28 25 29 34  28 25 33 34  28 27 25 33  35 25 29 36  35 25 29 34  35 25 33 34  7 25 29 36  16 20 25 33  21 25 37 38  21 25 33 38  21 20 25 33  35 25 37 36  35 25 37 38  35 25 33 38  7 25 37 36  16 18 26 25  0 2 25 39  0 26 25 39  0 18 26 25  31 2 25 32  31 2 25 39  31 26 25 39  7 2 25 32  16 17 20 25  21 25 22 37  21 17 25 22  21 17 20 25  4 6 25 37  4 25 22 37  4 17 25 22  7 6 25 37  16 18 17 25  0 3 2 25  0 3 17 25  0 18 17 25  4 2 6 25  4 3 2 25  4 3 17 25  7 2 6 25  0 40 1 39  31 1 42 41  31 40 1 42  31 40 1 39  43 1 42 41  43 40 1 42  0 1 2 39  31 1 32 41  31 1 2 32  31 1 2 39  7 1 8 41  7 1 32 41  7 1 2 32  9 1 8 41  21 45 22 44  21 23 45 22  21 23 45 24  4 45 22 44  4 23 45 22  21 37 38 46  35 46 36 47  35 37 46 36  35 37 38 46  7 46 48 47  7 46 36 47  7 37 46 36  49 46 48 47  21 22 37 46  4 6 50 46  4 6 37 46  4 22 37 46  7 50 46 48  7 6 50 46  7 6 37 46  49 50 46 48  21 22 44 46  4 22 44 46  49 50 46 51  4 6 10 50  7 10 11 48  7 10 50 48  7 6 10 50  49 10 11 48  49 10 50 48  49 10 50 51  21 45 44 52  21 45 53 52  21 45 24 53  21 38 46 54  35 46 47 55  35 46 54 55  35 38 46 54  21 46 52 54  21 44 46 52  </DataArray>
<DataArray  type="UInt32"  Name="offsets"  format="ascii">4 8 12 16 20 24 28 32 36 40 44 48 52 56 60 64 68 72 76 80 84 88 92 96 100 104 108 112 116 120 124 128 132 136 140 144 148 152 156 160 164 168 172 176 180 184 188 192 196 200 204 208 212 216 220 224 228 232 236 240 244 248 252 256 260 264 268 272 276 280 284 288 292 296 300 304 308 312 316 320 324 328 332 336 340 344 348 352 356 360 364 368 372 376 380 384 388 392 396 400 404 408 412 416 420 424 428 432 436 440 444 448 452 456 460 464 468 472 476 480 484 488 492 496 500 504 508 512 516 520 524 528 532 536 540 544 </DataArray>
<DataArray  type="UInt8"  Name="types"  format="ascii">10 10 10 10 10 10 10 10 10 10 10 10 10 10 10 10 10 10 10 10 10 10 10 10 10 10 10 10 10 10 10 10 10 10 10 10 10 10 10 10 10 10 10 10 10 10 10 10 10 10 10 10 10 10 10 10 10 10 10 10 10 10 10 10 10 10 10 10 10 10 10 10 10 10 10 10 10 10 10 10 10 10 10 10 10 10 10 10 10 10 10 10 10 10 10 10 10 10 10 10 10 10 10 10 10 10 10 10 10 10 10 10 10 10 10 10 10 10 10 10 10 10 10 10 10 10 10 10 10 10 10 10 10 10 10 10 </DataArray>
</Cells>
<PointData  Scalars="p_CO2"> 
<DataArray  type="Float64"  Name="p_CO2"  format="ascii">4.4999999999956991e+01  4.5000000002689816e+01  4.5000000002965919e+01  4.5000000001061636e+01  4.5000000006166132e+01  4.5000000008711240e+01  4.5000000008079468e+01  4.5000000009171067e+01  4.5000000009666863e+01  4.5000000007796793e+01  4.5000000016725139e+01  4.5000000017816447e+01  4.4999999999989669e+01  4.5000000000243482e+01  4.4999999999891251e+01  4.4999999999921442e+01  4.5000000000192145e+01  4.5000000001393985e+01  4.5000000000066933e+01  4.5000000000341004e+01  4.5000000000392930e+01  4.5000000001643549e+01  4.5000000004703345e+01  4.5000000003232032e+01  4.5000000001236977e+01  4.5000000002396554e+01  4.5000000000152419e+01  4.4999999999851305e+01  4.5000000000208885e+01  4.5000000002806175e+01  4.5000000000698776e+01  4.5000000000952618e+01  4.5000000003823502e+01  4.5000000000712021e+01  4.5000000000620837e+01  4.5000000002003119e+01  4.5000000006163063e+01  4.5000000005704379e+01  4.5000000001758210e+01  4.5000000000686796e+01  4.5000000000432209e+01  4.5000000003630603e+01  4.5000000000729948e+01  4.5000000000785320e+01  4.5000000009508021e+01  4.5000000006607145e+01  4.5000000011404346e+01  4.5000000010233492e+01  4.5000000014983335e+01  4.5000000018144199e+01  4.5000000014884961e+01  4.5000000020322183e+01  4.5000000002760530e+01  4.5000000002247511e+01  4.5000000004114341e+01  4.5000000003079769e+01  </DataArray> 
</PointData> 
</Piece>
</UnstructuredGrid>
</VTKFile>