<?xml version="1.0"?>
<VTKFile type="UnstructuredGrid"  version="0.1"  >
<UnstructuredGrid>
<Piece  NumberOfPoints="51" NumberOfCells="130">
<Points>
<DataArray  type="Float64"  NumberOfComponents="3"  format="ascii">5 5 3.333333333333333  5 5 2.5  5 4.166666666666667 2.5  4.166666666666667 4.166666666666667 2.5  4.166666666666667 5 2.5  3.333333333333333 3.333333333333333 3.333333333333333  4.166666666666667 4.166666666666667 3.333333333333333  3.333333333333333 4.166666666666667 3.333333333333333  3.333333333333333 5 3.333333333333333  4.166666666666667 5 3.333333333333333  3.333333333333333 3.333333333333333 4.166666666666667  2.5 3.333333333333333 4.166666666666667  2.5 2.5 4.166666666666667  3.333333333333333 3.333333333333333 5  3.333333333333333 4.166666666666667 4.166666666666667  2.5 4.166666666666667 4.166666666666667  3.333333333333333 5 4.166666666666667  3.333333333333333 5 5  3.333333333333333 4.166666666666667 5  2.5 5 4.166666666666667  4.166666666666667 4.166666666666667 4.166666666666667  4.166666666666667 5 4.166666666666667  5 5 4.166666666666667  5 5 5  4.166666666666667 4.166666666666667 5  4.166666666666667 5 5  5 3.333333333333333 1.666666666666667  5 3.333333333333333 2.5  5 2.5 2.5  4.166666666666667 2.5 2.5  5 3.333333333333333 3.333333333333333  4.166666666666667 3.333333333333333 2.5  3.333333333333333 1.666666666666667 3.333333333333333  4.166666666666667 2.5 3.333333333333333  3.333333333333333 2.5 3.333333333333333  4.166666666666667 3.333333333333333 3.333333333333333  5 4.166666666666667 3.333333333333333  5 1.666666666666667 3.333333333333333  5 2.5 3.333333333333333  4.166666666666667 1.666666666666667 3.333333333333333  3.333333333333333 2.5 4.166666666666667  4.166666666666667 2.5 4.166666666666667  5 2.5 4.166666666666667  5 3.333333333333333 4.166666666666667  5 3.333333333333333 5  5 2.5 5  4.166666666666667 2.5 5  4.166666666666667 3.333333333333333 4.166666666666667  4.166666666666667 3.333333333333333 5  5 4.166666666666667 4.166666666666667  5 4.166666666666667 5  </DataArray>
</Points>
<Cells>
<DataArray  type="UInt32"  Name="connectivity"  format="ascii">0 3 2 1  0 3 4 1  5 3 7 6  8 3 9 6  8 3 7 6  0 3 9 6  8 3 4 9  0 3 4 9  5 11 10 12  13 11 10 12  5 7 15 14  8 15 14 16  8 7 15 14  17 15 14 16  5 15 10 14  5 11 15 10  13 15 14 18  13 15 10 14  13 11 15 10  17 15 14 18  8 15 16 19  17 15 16 19  5 7 6 20  8 9 20 21  8 9 6 20  8 7 6 20  0 20 21 22  0 9 20 21  0 9 6 20  23 20 21 22  5 10 14 20  13 20 18 24  13 14 20 18  13 10 14 20  17 20 24 25  17 20 18 24  17 14 20 18  23 20 24 25  5 7 14 20  8 20 16 21  8 14 20 16  8 7 14 20  17 20 21 25  17 20 16 21  17 14 20 16  23 20 21 25  26 29 28 27  30 29 28 27  26 29 31 27  30 29 31 27  32 29 34 33  5 29 33 35  5 29 34 33  30 29 33 35  5 29 31 35  30 29 31 35  26 3 2 27  26 3 31 27  30 3 2 36  30 3 2 27  30 3 31 27  0 3 2 36  5 3 6 35  5 3 31 35  30 3 6 36  30 3 6 35  30 3 31 35  0 3 6 36  37 29 28 38  30 29 28 38  32 29 33 39  37 29 33 38  37 29 33 39  30 29 33 38  32 12 34 40  5 10 12 40  5 12 34 40  13 10 12 40  32 33 39 41  37 38 41 42  37 33 38 41  37 33 39 41  30 41 42 43  30 38 41 42  30 33 38 41  44 41 42 43  44 41 42 45  44 41 46 45  32 34 33 41  5 35 41 47  5 33 35 41  5 34 33 41  30 41 47 43  30 35 41 47  30 33 35 41  44 41 47 43  13 41 46 48  44 41 46 48  32 34 40 41  5 10 41 47  5 10 40 41  5 34 40 41  13 41 47 48  13 10 41 47  13 10 40 41  44 41 47 48  5 6 20 35  30 20 36 49  30 6 20 36  30 6 20 35  0 20 22 49  0 20 36 49  0 6 20 36  23 20 22 49  5 20 35 47  30 20 43 49  30 20 47 43  30 20 35 47  44 20 49 50  44 20 43 49  44 20 47 43  23 20 49 50  5 10 20 47  13 20 24 48  13 20 47 48  13 10 20 47  44 20 24 50  44 20 24 48  44 20 47 48  23 20 24 50  </DataArray>
<DataArray  type="UInt32"  Name="offsets"  format="ascii">4 8 12 16 20 24 28 32 36 40 44 48 52 56 60 64 68 72 76 80 84 88 92 96 100 104 108 112 116 120 124 128 132 136 140 144 148 152 156 160 164 168 172 176 180 184 188 192 196 200 204 208 212 216 220 224 228 232 236 240 244 248 252 256 260 264 268 272 276 280 284 288 292 296 300 304 308 312 316 320 324 328 332 336 340 344 348 352 356 360 364 368 372 376 380 384 388 392 396 400 404 408 412 416 420 424 428 432 436 440 444 448 452 456 460 464 468 472 476 480 484 488 492 496 500 504 508 512 516 520 </DataArray>
<DataArray  type="UInt8"  Name="types"  format="ascii">10 10 10 10 10 10 10 10 10 10 10 10 10 10 10 10 10 10 10 10 10 10 10 10 10 10 10 10 10 10 10 10 10 10 10 10 10 10 10 10 10 10 10 10 10 10 10 10 10 10 10 10 10 10 10 10 10 10 10 10 10 10 10 10 10 10 10 10 10 10 10 10 10 10 10 10 10 10 10 10 10 10 10 10 10 10 10 10 10 10 10 10 10 10 10 10 10 10 10 10 10 10 10 10 10 10 10 10 10 10 10 10 10 10 10 10 10 10 10 10 10 10 10 10 10 10 10 10 10 10 </DataArray>
</Cells>
<PointData  Scalars="p_CO2"> 
<DataArray  type="Float64"  Name="p_CO2"  format="ascii">4.5000000002062173e+01  4.5000000001471030e+01  4.5000000008485294e+01  4.5000000006790458e+01  4.5000000001752163e+01  4.5000000011887593e+01  4.5000000006785868e+01  4.5000000006185005e+01  4.5000000001625402e+01  4.5000000001868337e+01  4.5000000009135853e+01  4.5000000009182777e+01  4.5000000013969093e+01  4.5000000002903462e+01  4.5000000005013042e+01  4.5000000004615863e+01  4.5000000001518785e+01  4.5000000000306322e+01  4.5000000002050008e+01  4.5000000001256169e+01  4.5000000005042679e+01  4.5000000001396600e+01  4.5000000001505619e+01  4.5000000000513715e+01  4.5000000001484644e+01  4.5000000000244604e+01  4.5000000007796793e+01  4.5000000012116061e+01  4.5000000017816447e+01  4.5000000016725139e+01  4.5000000012675912e+01  4.5000000012254745e+01  4.5000000016569459e+01  4.5000000016387489e+01  4.5000000015474740e+01  4.5000000012330261e+01  4.5000000007286275e+01  4.5000000018144199e+01  4.5000000017051519e+01  4.5000000020322183e+01  4.5000000013405298e+01  4.5000000013659971e+01  4.5000000013565490e+01  4.5000000009554583e+01  4.5000000002795872e+01  4.5000000004846449e+01  4.5000000004532239e+01  4.5000000009363291e+01  4.5000000002927422e+01  4.5000000005097974e+01  4.5000000001464365e+01  </DataArray> 
</PointData> 
</Piece>
</UnstructuredGrid>
</VTKFile>