<?xml version="1.0"?>
<VTKFile type="UnstructuredGrid"  version="0.1"  >
<UnstructuredGrid>
<Piece  NumberOfPoints="54" NumberOfCells="132">
<Points>
<DataArray  type="Float64"  NumberOfComponents="3"  format="ascii">0 3.333333333333333 0  0.8333333333333334 4.166666666666667 0.8333333333333334  0.8333333333333334 4.166666666666667 0  0 4.166666666666667 0  0 5 0  0.8333333333333334 5 0.8333333333333334  0.8333333333333334 5 0  1.666666666666667 5 0  1.666666666666667 5 0.8333333333333334  1.666666666666667 5 1.666666666666667  0 4.166666666666667 0.8333333333333334  0 5 0.8333333333333334  0 5 1.666666666666667  0.8333333333333334 5 1.666666666666667  0 1.666666666666667 0  0.8333333333333334 2.5 0.8333333333333334  0.8333333333333334 2.5 0  0.8333333333333334 1.666666666666667 0  1.666666666666667 1.666666666666667 0  1.666666666666667 2.5 0.8333333333333334  1.666666666666667 2.5 0  1.666666666666667 3.333333333333333 0  1.666666666666667 3.333333333333333 0.8333333333333334  1.666666666666667 3.333333333333333 1.666666666666667  0 2.5 0  0.8333333333333334 3.333333333333333 0.8333333333333334  0.8333333333333334 3.333333333333333 0  0 2.5 0.8333333333333334  0 3.333333333333333 0.8333333333333334  0 3.333333333333333 1.666666666666667  0.8333333333333334 3.333333333333333 1.666666666666667  2.5 2.5 0.8333333333333334  2.5 3.333333333333333 0.8333333333333334  2.5 3.333333333333333 1.666666666666667  1.666666666666667 4.166666666666667 0.8333333333333334  1.666666666666667 4.166666666666667 0  1.666666666666667 4.166666666666667 1.666666666666667  2.5 4.166666666666667 0.8333333333333334  2.5 4.166666666666667 1.666666666666667  2.5 4.166666666666667 0  2.5 5 0.8333333333333334  2.5 5 0  2.5 5 1.666666666666667  0.8333333333333334 4.166666666666667 1.666666666666667  0 4.166666666666667 1.666666666666667  0.8333333333333334 4.166666666666667 2.5  1.666666666666667 4.166666666666667 2.5  1.666666666666667 5 2.5  1.666666666666667 5 3.333333333333333  0.8333333333333334 3.333333333333333 2.5  0.8333333333333334 5 2.5  0 4.166666666666667 2.5  2.5 4.166666666666667 2.5  2.5 5 2.5  </DataArray>
</Points>
<Cells>
<DataArray  type="UInt32"  Name="connectivity"  format="ascii">0 3 2 1  4 1 6 5  4 2 1 6  4 3 2 1  7 1 5 8  7 1 6 5  7 2 1 6  9 1 5 8  0 3 1 10  4 1 5 11  4 1 10 11  4 3 1 10  12 1 5 13  12 1 5 11  12 1 10 11  9 1 5 13  14 17 16 15  18 20 15 19  18 20 16 15  18 17 16 15  21 15 19 22  21 20 15 19  21 20 16 15  23 15 19 22  14 16 15 24  0 15 26 25  0 16 15 26  0 16 15 24  21 15 22 25  21 15 26 25  21 16 15 26  23 15 22 25  14 15 24 27  0 15 25 28  0 15 27 28  0 15 24 27  29 15 25 30  29 15 25 28  29 15 27 28  23 15 25 30  18 31 20 19  21 31 32 22  21 31 19 22  21 31 20 19  23 31 32 33  23 31 32 22  23 31 19 22  0 2 1 26  21 1 35 34  21 2 1 35  21 2 1 26  7 1 8 34  7 1 35 34  7 2 1 35  9 1 8 34  0 1 26 25  21 1 22 34  21 1 22 25  21 1 26 25  23 1 34 36  23 1 22 34  23 1 22 25  9 1 34 36  21 32 37 22  23 37 33 38  23 32 37 33  23 32 37 22  21 39 37 35  7 37 40 41  7 39 37 41  7 39 37 35  21 37 22 34  23 37 36 38  23 37 34 36  23 37 22 34  9 37 38 42  9 37 36 38  9 37 34 36  21 37 35 34  7 37 8 40  7 37 8 34  7 37 35 34  9 37 40 42  9 37 8 40  9 37 8 34  0 1 25 28  29 1 30 43  29 1 25 30  29 1 25 28  23 1 36 43  23 1 30 43  23 1 25 30  9 1 36 43  0 1 10 28  29 1 43 44  29 1 10 44  29 1 10 28  12 1 13 43  12 1 43 44  12 1 10 44  9 1 13 43  29 30 43 45  23 36 45 46  23 36 43 45  23 30 43 45  9 45 46 47  9 36 45 46  9 36 43 45  48 45 46 47  29 30 49 45  23 30 49 45  29 43 44 45  12 13 45 50  12 13 43 45  12 43 44 45  9 45 47 50  9 13 45 50  9 13 43 45  48 45 47 50  29 44 45 51  12 44 45 51  23 33 38 52  23 36 38 52  9 42 52 53  9 38 42 52  9 36 38 52  23 36 46 52  9 52 47 53  9 46 52 47  9 36 46 52  48 52 47 53  48 46 52 47  </DataArray>
<DataArray  type="UInt32"  Name="offsets"  format="ascii">4 8 12 16 20 24 28 32 36 40 44 48 52 56 60 64 68 72 76 80 84 88 92 96 100 104 108 112 116 120 124 128 132 136 140 144 148 152 156 160 164 168 172 176 180 184 188 192 196 200 204 208 212 216 220 224 228 232 236 240 244 248 252 256 260 264 268 272 276 280 284 288 292 296 300 304 308 312 316 320 324 328 332 336 340 344 348 352 356 360 364 368 372 376 380 384 388 392 396 400 404 408 412 416 420 424 428 432 436 440 444 448 452 456 460 464 468 472 476 480 484 488 492 496 500 504 508 512 516 520 524 528 </DataArray>
<DataArray  type="UInt8"  Name="types"  format="ascii">10 10 10 10 10 10 10 10 10 10 10 10 10 10 10 10 10 10 10 10 10 10 10 10 10 10 10 10 10 10 10 10 10 10 10 10 10 10 10 10 10 10 10 10 10 10 10 10 10 10 10 10 10 10 10 10 10 10 10 10 10 10 10 10 10 10 10 10 10 10 10 10 10 10 10 10 10 10 10 10 10 10 10 10 10 10 10 10 10 10 10 10 10 10 10 10 10 10 10 10 10 10 10 10 10 10 10 10 10 10 10 10 10 10 10 10 10 10 10 10 10 10 10 10 10 10 10 10 10 10 10 10 </DataArray>
</Cells>
<PointData  Scalars="p_CO2"> 
<DataArray  type="Float64"  Name="p_CO2"  format="ascii">4.4999999999952522e+01  4.4999999999691212e+01  4.4999999999389928e+01  4.4999999999952522e+01  4.4999999999952522e+01  4.4999999999747729e+01  4.5000000000200032e+01  4.5000000000020037e+01  4.4999999999899785e+01  4.5000000000257863e+01  4.4999999999952522e+01  4.4999999999952522e+01  4.4999999999952522e+01  4.4999999999977945e+01  4.4999999999952522e+01  4.4999999998769013e+01  4.4999999999471100e+01  4.5000000000446910e+01  4.4999999999495316e+01  4.4999999998452104e+01  4.4999999999560586e+01  4.4999999999743331e+01  4.4999999999113115e+01  4.5000000000113801e+01  4.4999999999952522e+01  4.4999999999449514e+01  4.4999999999670386e+01  4.4999999999952522e+01  4.4999999999952522e+01  4.4999999999952522e+01  4.5000000000010075e+01  4.4999999999276326e+01  4.4999999998850512e+01  4.5000000000641094e+01  4.4999999999571529e+01  4.4999999999883300e+01  4.4999999999972459e+01  4.4999999998423426e+01  4.4999999999897049e+01  4.5000000000236049e+01  4.4999999999831921e+01  4.4999999999667040e+01  4.4999999999959385e+01  4.5000000000037502e+01  4.4999999999952522e+01  4.5000000000732072e+01  4.5000000001124825e+01  4.5000000000560981e+01  4.5000000000893394e+01  4.5000000001342144e+01  4.5000000000606029e+01  4.4999999999952522e+01  4.5000000001858012e+01  4.5000000000657991e+01  </DataArray> 
</PointData> 
</Piece>
</UnstructuredGrid>
</VTKFile>