<?xml version="1.0"?>
<VTKFile type="UnstructuredGrid"  version="0.1"  >
<UnstructuredGrid>
<Piece  NumberOfPoints="52" NumberOfCells="126">
<Points>
<DataArray  type="Float64"  NumberOfComponents="3"  format="ascii">3.333333333333333 0 3.333333333333333  3.333333333333333 0.8333333333333334 3.333333333333333  3.333333333333333 0.8333333333333334 2.5  2.5 0.8333333333333334 2.5  3.333333333333333 0 2.5  2.5 0 2.5  3.333333333333333 1.666666666666667 3.333333333333333  2.5 0.8333333333333334 3.333333333333333  2.5 0 3.333333333333333  5 0 3.333333333333333  5 0.8333333333333334 3.333333333333333  5 0.8333333333333334 2.5  4.166666666666667 0.8333333333333334 2.5  5 0 2.5  4.166666666666667 0 2.5  5 1.666666666666667 3.333333333333333  4.166666666666667 0.8333333333333334 3.333333333333333  4.166666666666667 0 3.333333333333333  4.166666666666667 1.666666666666667 3.333333333333333  3.333333333333333 0.8333333333333334 4.166666666666667  2.5 0.8333333333333334 4.166666666666667  3.333333333333333 1.666666666666667 4.166666666666667  3.333333333333333 1.666666666666667 5  3.333333333333333 0 4.166666666666667  2.5 0 4.166666666666667  3.333333333333333 0 5  3.333333333333333 0.8333333333333334 5  2.5 0.8333333333333334 5  2.5 0 5  2.5 1.666666666666667 4.166666666666667  4.166666666666667 0.8333333333333334 4.166666666666667  5 0.8333333333333334 4.166666666666667  5 1.666666666666667 4.166666666666667  5 1.666666666666667 5  4.166666666666667 0 4.166666666666667  5 0 4.166666666666667  5 0 5  5 0.8333333333333334 5  4.166666666666667 0.8333333333333334 5  4.166666666666667 0 5  4.166666666666667 1.666666666666667 4.166666666666667  4.166666666666667 1.666666666666667 5  2.5 1.666666666666667 5  3.333333333333333 2.5 4.166666666666667  2.5 2.5 4.166666666666667  3.333333333333333 2.5 5  3.333333333333333 3.333333333333333 5  2.5 2.5 5  4.166666666666667 2.5 4.166666666666667  5 2.5 4.166666666666667  5 2.5 5  4.166666666666667 2.5 5  </DataArray>
</Points>
<Cells>
<DataArray  type="UInt32"  Name="connectivity"  format="ascii">0 3 2 1  0 3 2 4  0 3 5 4  6 3 2 1  0 3 1 7  0 3 8 7  0 3 5 8  6 3 1 7  9 12 11 10  9 12 11 13  9 12 14 13  15 12 11 10  0 12 17 16  0 12 14 17  0 12 4 14  9 12 16 10  9 12 17 16  9 12 14 17  15 12 16 10  0 12 1 16  0 2 12 1  0 2 12 4  6 12 18 16  6 12 1 16  6 2 12 1  15 12 18 16  0 1 19 20  0 1 7 20  0 8 7 20  6 19 21 20  6 1 19 20  6 1 7 20  22 19 21 20  0 19 23 20  0 23 20 24  0 8 20 24  25 19 20 26  25 19 23 20  25 23 20 24  22 19 20 26  25 20 26 27  25 20 27 28  25 20 24 28  22 20 26 27  6 21 20 29  22 21 20 29  0 17 16 30  9 30 10 31  9 16 30 10  9 17 16 30  15 30 31 32  15 30 10 31  15 16 30 10  33 30 31 32  0 17 30 34  9 30 31 35  9 30 34 35  9 17 30 34  36 30 31 37  36 30 31 35  36 30 34 35  33 30 31 37  0 23 30 34  25 30 38 39  25 30 34 39  25 23 30 34  36 30 38 37  36 30 38 39  36 30 34 39  33 30 38 37  0 1 16 30  6 18 30 40  6 18 16 30  6 1 16 30  15 30 40 32  15 18 30 40  15 18 16 30  33 30 40 32  0 19 23 30  25 30 26 38  25 19 30 26  25 19 23 30  22 30 41 38  22 30 26 38  22 19 30 26  33 30 41 38  0 1 19 30  6 30 21 40  6 19 30 21  6 1 19 30  22 30 40 41  22 30 21 40  22 19 30 21  33 30 40 41  22 20 27 42  22 20 29 42  6 44 21 43  6 44 21 29  22 44 43 45  22 44 21 43  22 44 21 29  46 44 43 45  22 44 47 45  22 44 47 42  22 44 29 42  46 44 47 45  6 18 40 48  15 32 48 49  15 40 32 48  15 18 40 48  33 48 49 50  33 32 48 49  33 40 32 48  6 21 40 48  22 41 48 51  22 40 41 48  22 21 40 48  33 48 51 50  33 41 48 51  33 40 41 48  6 21 43 48  22 48 45 51  22 43 48 45  22 21 43 48  46 48 45 51  46 43 48 45  </DataArray>
<DataArray  type="UInt32"  Name="offsets"  format="ascii">4 8 12 16 20 24 28 32 36 40 44 48 52 56 60 64 68 72 76 80 84 88 92 96 100 104 108 112 116 120 124 128 132 136 140 144 148 152 156 160 164 168 172 176 180 184 188 192 196 200 204 208 212 216 220 224 228 232 236 240 244 248 252 256 260 264 268 272 276 280 284 288 292 296 300 304 308 312 316 320 324 328 332 336 340 344 348 352 356 360 364 368 372 376 380 384 388 392 396 400 404 408 412 416 420 424 428 432 436 440 444 448 452 456 460 464 468 472 476 480 484 488 492 496 500 504 </DataArray>
<DataArray  type="UInt8"  Name="types"  format="ascii">10 10 10 10 10 10 10 10 10 10 10 10 10 10 10 10 10 10 10 10 10 10 10 10 10 10 10 10 10 10 10 10 10 10 10 10 10 10 10 10 10 10 10 10 10 10 10 10 10 10 10 10 10 10 10 10 10 10 10 10 10 10 10 10 10 10 10 10 10 10 10 10 10 10 10 10 10 10 10 10 10 10 10 10 10 10 10 10 10 10 10 10 10 10 10 10 10 10 10 10 10 10 10 10 10 10 10 10 10 10 10 10 10 10 10 10 10 10 10 10 10 10 10 10 10 10 </DataArray>
</Cells>
<PointData  Scalars="p_O2"> 
<DataArray  type="Float64"  Name="p_O2"  format="ascii">9.7693833378223061e+01  9.4159126450481509e+01  9.3598599177422258e+01  8.9123076723763603e+01  9.7475194438387319e+01  9.5644396684813415e+01  9.1853972761074715e+01  8.9970925299406815e+01  9.5978064041808409e+01  9.8756543872361618e+01  9.6822038002090906e+01  9.6494282813632822e+01  9.5813410689526279e+01  9.8629427708565345e+01  9.8360219297379871e+01  9.5505915473870729e+01  9.6199763278052060e+01  9.8511008020688834e+01  9.4644270293126951e+01  9.5807903372578707e+01  9.2615629286206627e+01  9.4159126451017642e+01  9.7693833378118185e+01  9.8345036369519448e+01  9.7034787024479328e+01  9.9347242157473161e+01  9.8345036369849026e+01  9.7034787024854921e+01  9.8806901028029102e+01  8.9970925297230806e+01  9.7302053211149570e+01  9.7752106299118921e+01  9.6822038003394582e+01  9.8756543872920687e+01  9.8943048467984312e+01  9.9121079373915876e+01  9.9657103148257349e+01  9.9121079373995528e+01  9.8943048467775583e+01  9.9585884894160642e+01  9.6199763278556915e+01  9.8511008021290380e+01  9.5978064041894910e+01  9.3598599179689302e+01  8.9123076730154622e+01  9.7475194438906698e+01  9.7693833379539910e+01  9.5644396685513925e+01  9.5813410688312345e+01  9.6494282817942988e+01  9.8629427711707578e+01  9.8360219294804892e+01  </DataArray> 
</PointData> 
</Piece>
</UnstructuredGrid>
</VTKFile>