<?xml version="1.0"?>
<VTKFile type="UnstructuredGrid"  version="0.1"  >
<UnstructuredGrid>
<Piece  NumberOfPoints="55" NumberOfCells="126">
<Points>
<DataArray  type="Float64"  NumberOfComponents="3"  format="ascii">1.666666666666667 1.666666666666667 0  2.5 2.5 0.8333333333333334  2.5 2.5 0  2.5 1.666666666666667 0  3.333333333333333 1.666666666666667 0  3.333333333333333 2.5 0.8333333333333334  3.333333333333333 2.5 0  3.333333333333333 3.333333333333333 0  3.333333333333333 3.333333333333333 0.8333333333333334  3.333333333333333 3.333333333333333 1.666666666666667  1.666666666666667 2.5 0  1.666666666666667 3.333333333333333 0  2.5 3.333333333333333 0.8333333333333334  2.5 3.333333333333333 0  4.166666666666667 2.5 0.8333333333333334  4.166666666666667 2.5 0  4.166666666666667 3.333333333333333 0  5 3.333333333333333 0  2.5 4.166666666666667 0.8333333333333334  2.5 4.166666666666667 0  2.5 3.333333333333333 1.666666666666667  2.5 2.5 1.666666666666667  3.333333333333333 3.333333333333333 2.5  2.5 3.333333333333333 2.5  2.5 2.5 2.5  3.333333333333333 3.333333333333333 3.333333333333333  2.5 4.166666666666667 2.5  1.666666666666667 0 0  2.5 0.8333333333333334 0.8333333333333334  2.5 0.8333333333333334 0  1.666666666666667 0.8333333333333334 0  2.5 1.666666666666667 0.8333333333333334  3.333333333333333 1.666666666666667 0.8333333333333334  3.333333333333333 1.666666666666667 1.666666666666667  1.666666666666667 1.666666666666667 1.666666666666667  2.5 1.666666666666667 1.666666666666667  2.5 0.8333333333333334 1.666666666666667  1.666666666666667 1.666666666666667 0.8333333333333334  3.333333333333333 2.5 1.666666666666667  4.166666666666667 2.5 1.666666666666667  4.166666666666667 3.333333333333333 1.666666666666667  5 3.333333333333333 1.666666666666667  2.5 1.666666666666667 2.5  2.5 0.8333333333333334 2.5  3.333333333333333 1.666666666666667 2.5  3.333333333333333 1.666666666666667 3.333333333333333  3.333333333333333 2.5 2.5  3.333333333333333 2.5 3.333333333333333  4.166666666666667 2.5 2.5  3.333333333333333 0.8333333333333334 2.5  4.166666666666667 1.666666666666667 2.5  4.166666666666667 0.8333333333333334 2.5  4.166666666666667 1.666666666666667 3.333333333333333  2.5 2.5 3.333333333333333  2.5 2.5 4.166666666666667  </DataArray>
</Points>
<Cells>
<DataArray  type="UInt32"  Name="connectivity"  format="ascii">0 3 2 1  4 1 6 5  4 2 1 6  4 3 2 1  7 1 5 8  7 1 6 5  7 2 1 6  9 1 5 8  0 2 1 10  11 1 13 12  11 2 1 13  11 2 1 10  7 1 8 12  7 1 13 12  7 2 1 13  9 1 8 12  4 6 15 14  7 15 14 16  7 6 15 14  17 15 14 16  4 6 5 14  7 5 14 8  7 6 5 14  9 5 14 8  11 13 19 18  7 13 19 18  11 13 12 18  7 8 12 18  7 13 12 18  9 8 12 18  9 1 21 20  9 1 12 20  9 12 18 20  9 22 24 23  9 20 24 23  9 21 20 24  25 22 24 23  9 26 22 23  9 20 26 23  25 26 22 23  27 30 29 28  0 3 28 31  0 3 29 28  0 30 29 28  4 28 31 32  4 3 28 31  4 3 29 28  33 28 31 32  34 28 36 35  33 28 36 35  0 37 28 31  34 28 31 35  34 37 28 31  33 28 31 35  0 3 1 31  4 1 5 32  4 1 31 32  4 3 1 31  33 1 5 38  33 1 5 32  33 1 31 32  9 1 5 38  0 1 37 31  34 1 21 35  34 1 31 35  34 1 37 31  33 1 21 38  33 1 21 35  33 1 31 35  9 1 21 38  4 5 14 32  33 14 38 39  33 5 14 38  33 5 14 32  9 14 40 39  9 14 38 39  9 5 14 38  41 14 40 39  34 35 43 42  34 36 35 43  33 44 43 42  33 35 43 42  33 36 35 43  45 44 43 42  34 21 24 35  33 24 38 46  33 21 24 38  33 21 24 35  9 22 24 46  9 24 38 46  9 21 24 38  25 22 24 46  34 24 35 42  33 24 44 46  33 24 44 42  33 24 35 42  45 24 46 47  45 24 44 46  45 24 44 42  25 24 46 47  33 38 39 48  9 40 39 48  9 38 39 48  41 40 39 48  33 44 46 48  45 46 48 47  45 44 46 48  25 46 48 47  33 38 46 48  9 22 46 48  9 38 46 48  25 22 46 48  33 44 43 49  45 44 43 49  33 44 50 51  33 44 49 51  45 50 51 52  45 44 50 51  45 44 49 51  33 44 48 50  45 48 50 52  45 44 48 50  45 24 53 47  25 24 53 47  45 53 54 47  25 53 54 47  </DataArray>
<DataArray  type="UInt32"  Name="offsets"  format="ascii">4 8 12 16 20 24 28 32 36 40 44 48 52 56 60 64 68 72 76 80 84 88 92 96 100 104 108 112 116 120 124 128 132 136 140 144 148 152 156 160 164 168 172 176 180 184 188 192 196 200 204 208 212 216 220 224 228 232 236 240 244 248 252 256 260 264 268 272 276 280 284 288 292 296 300 304 308 312 316 320 324 328 332 336 340 344 348 352 356 360 364 368 372 376 380 384 388 392 396 400 404 408 412 416 420 424 428 432 436 440 444 448 452 456 460 464 468 472 476 480 484 488 492 496 500 504 </DataArray>
<DataArray  type="UInt8"  Name="types"  format="ascii">10 10 10 10 10 10 10 10 10 10 10 10 10 10 10 10 10 10 10 10 10 10 10 10 10 10 10 10 10 10 10 10 10 10 10 10 10 10 10 10 10 10 10 10 10 10 10 10 10 10 10 10 10 10 10 10 10 10 10 10 10 10 10 10 10 10 10 10 10 10 10 10 10 10 10 10 10 10 10 10 10 10 10 10 10 10 10 10 10 10 10 10 10 10 10 10 10 10 10 10 10 10 10 10 10 10 10 10 10 10 10 10 10 10 10 10 10 10 10 10 10 10 10 10 10 10 </DataArray>
</Cells>
<PointData  Scalars="p_O2"> 
<DataArray  type="Float64"  Name="p_O2"  format="ascii">9.2416404334746659e+01  8.9123076720664230e+01  9.5644396681332779e+01  9.5978064040972257e+01  9.7693833379964204e+01  9.3598599174702912e+01  9.7475194438027899e+01  9.7693833381169128e+01  9.4159126461157470e+01  9.1853972772503141e+01  9.2009438927443213e+01  9.2416404335093347e+01  8.9970925298434338e+01  9.5978064043295888e+01  9.5813410692937410e+01  9.8360219295234330e+01  9.8511008025492032e+01  9.8756543876017034e+01  9.2615629295005533e+01  9.7034787030311463e+01  8.6336517244386556e+01  8.5168084487135189e+01  9.1070162527486573e+01  8.5168084488781304e+01  8.3892992209753800e+01  9.1853972762587460e+01  8.9123076724869122e+01  9.7445092085897556e+01  9.2615629289054169e+01  9.7034787024557701e+01  9.4105823890839389e+01  8.9970925292733043e+01  9.4159126455120827e+01  9.1853972753841006e+01  7.6579693929222913e+01  8.6336517234286120e+01  8.9970925297228632e+01  8.1923645261780777e+01  9.1070162517489692e+01  9.4100471634287530e+01  9.4644270297275639e+01  9.5505915490555012e+01  8.5168084483157926e+01  8.9123076723763603e+01  9.1070162515337785e+01  9.1853972761074715e+01  9.0207747840110855e+01  9.1070162520107630e+01  9.3500155640212483e+01  9.3598599177422258e+01  9.4100471628850045e+01  9.5813410689526279e+01  9.4644270293126951e+01  8.5168084484216308e+01  8.9123076730154622e+01  </DataArray> 
</PointData> 
</Piece>
</UnstructuredGrid>
</VTKFile>