<?xml version="1.0"?>
<VTKFile type="UnstructuredGrid"  version="0.1"  >
<UnstructuredGrid>
<Piece  NumberOfPoints="55" NumberOfCells="136">
<Points>
<DataArray  type="Float64"  NumberOfComponents="3"  format="ascii">0 1.666666666666667 0  0.8333333333333334 1.666666666666667 0.8333333333333334  0.8333333333333334 1.666666666666667 0  0.8333333333333334 0.8333333333333334 0.8333333333333334  0.8333333333333334 0.8333333333333334 0  1.666666666666667 1.666666666666667 0  1.666666666666667 1.666666666666667 0.8333333333333334  1.666666666666667 1.666666666666667 1.666666666666667  0 1.666666666666667 0.8333333333333334  0 0.8333333333333334 0.8333333333333334  0 1.666666666666667 1.666666666666667  0.8333333333333334 1.666666666666667 1.666666666666667  0.8333333333333334 2.5 0.8333333333333334  1.666666666666667 2.5 0.8333333333333334  1.666666666666667 2.5 1.666666666666667  1.666666666666667 3.333333333333333 1.666666666666667  0.8333333333333334 2.5 1.666666666666667  0 2.5 0.8333333333333334  0 2.5 1.666666666666667  0 3.333333333333333 1.666666666666667  0.8333333333333334 3.333333333333333 1.666666666666667  2.5 2.5 0.8333333333333334  2.5 2.5 1.666666666666667  2.5 3.333333333333333 1.666666666666667  1.666666666666667 2.5 2.5  1.666666666666667 1.666666666666667 2.5  0.8333333333333334 2.5 2.5  1.666666666666667 1.666666666666667 3.333333333333333  1.666666666666667 2.5 3.333333333333333  1.666666666666667 3.333333333333333 3.333333333333333  0.8333333333333334 2.5 3.333333333333333  1.666666666666667 2.5 4.166666666666667  0.8333333333333334 2.5 4.166666666666667  0.8333333333333334 3.333333333333333 2.5  1.666666666666667 3.333333333333333 2.5  0 2.5 2.5  1.666666666666667 4.166666666666667 2.5  0.8333333333333334 4.166666666666667 2.5  1.666666666666667 4.166666666666667 3.333333333333333  1.666666666666667 5 3.333333333333333  2.5 4.166666666666667 2.5  2.5 4.166666666666667 3.333333333333333  2.5 5 3.333333333333333  3.333333333333333 5 3.333333333333333  2.5 5 2.5  2.5 2.5 2.5  2.5 3.333333333333333 2.5  2.5 2.5 3.333333333333333  2.5 3.333333333333333 3.333333333333333  3.333333333333333 3.333333333333333 3.333333333333333  3.333333333333333 4.166666666666667 3.333333333333333  2.5 2.5 4.166666666666667  2.5 3.333333333333333 4.166666666666667  2.5 4.166666666666667 4.166666666666667  2.5 5 4.166666666666667  </DataArray>
</Points>
<Cells>
<DataArray  type="UInt32"  Name="connectivity"  format="ascii">0 3 2 1  0 4 3 2  5 3 1 6  5 3 2 1  5 4 3 2  7 3 1 6  0 3 1 8  0 3 9 8  10 3 1 11  10 3 1 8  10 3 9 8  7 3 1 11  0 2 1 12  5 12 6 13  5 1 12 6  5 2 1 12  7 12 13 14  7 12 6 13  7 1 12 6  15 12 13 14  0 1 8 12  10 12 11 16  10 1 12 11  10 1 8 12  7 12 14 16  7 12 11 16  7 1 12 11  15 12 14 16  0 8 12 17  10 12 16 18  10 12 17 18  10 8 12 17  19 12 16 20  19 12 16 18  19 12 17 18  15 12 16 20  5 21 6 13  7 21 14 22  7 21 13 14  7 21 6 13  15 21 22 23  15 21 14 22  15 21 13 14  7 26 25 24  27 26 24 28  27 26 25 24  29 26 24 28  27 26 28 30  29 26 28 30  27 28 31 32  27 28 30 32  29 28 31 32  29 28 30 32  10 16 18 26  19 20 26 33  19 16 20 26  19 16 18 26  15 26 33 34  15 20 26 33  15 16 20 26  29 26 33 34  10 18 26 35  19 18 26 35  15 37 34 36  15 33 37 34  29 38 37 36  29 37 34 36  29 33 37 34  39 38 37 36  15 34 36 40  29 38 40 41  29 38 36 40  29 34 36 40  39 40 41 42  39 38 40 41  39 38 36 40  43 40 41 42  39 40 44 42  43 40 44 42  10 11 16 26  7 14 26 24  7 14 16 26  7 11 16 26  15 26 24 34  15 14 26 24  15 14 16 26  29 26 24 34  7 14 22 45  15 23 45 46  15 22 23 45  15 14 22 45  7 25 24 45  27 28 45 47  27 24 28 45  27 25 24 45  29 45 48 47  29 28 45 47  29 24 28 45  49 45 48 47  7 14 24 45  15 34 45 46  15 24 34 45  15 14 24 45  29 45 46 48  29 34 45 46  29 24 34 45  49 45 46 48  15 23 40 46  15 34 40 46  29 40 41 48  29 40 46 48  29 34 40 46  49 40 41 50  49 40 41 48  49 40 46 48  43 40 41 50  27 28 47 51  29 48 52 51  29 48 47 51  29 28 47 51  49 48 52 51  49 48 47 51  27 28 31 51  29 28 31 51  29 41 48 53  49 41 50 53  49 41 48 53  43 41 50 53  29 48 52 53  49 48 52 53  29 38 41 53  39 42 53 54  39 41 42 53  39 38 41 53  43 42 53 54  43 41 42 53  </DataArray>
<DataArray  type="UInt32"  Name="offsets"  format="ascii">4 8 12 16 20 24 28 32 36 40 44 48 52 56 60 64 68 72 76 80 84 88 92 96 100 104 108 112 116 120 124 128 132 136 140 144 148 152 156 160 164 168 172 176 180 184 188 192 196 200 204 208 212 216 220 224 228 232 236 240 244 248 252 256 260 264 268 272 276 280 284 288 292 296 300 304 308 312 316 320 324 328 332 336 340 344 348 352 356 360 364 368 372 376 380 384 388 392 396 400 404 408 412 416 420 424 428 432 436 440 444 448 452 456 460 464 468 472 476 480 484 488 492 496 500 504 508 512 516 520 524 528 532 536 540 544 </DataArray>
<DataArray  type="UInt8"  Name="types"  format="ascii">10 10 10 10 10 10 10 10 10 10 10 10 10 10 10 10 10 10 10 10 10 10 10 10 10 10 10 10 10 10 10 10 10 10 10 10 10 10 10 10 10 10 10 10 10 10 10 10 10 10 10 10 10 10 10 10 10 10 10 10 10 10 10 10 10 10 10 10 10 10 10 10 10 10 10 10 10 10 10 10 10 10 10 10 10 10 10 10 10 10 10 10 10 10 10 10 10 10 10 10 10 10 10 10 10 10 10 10 10 10 10 10 10 10 10 10 10 10 10 10 10 10 10 10 10 10 10 10 10 10 10 10 10 10 10 10 </DataArray>
</Cells>
<PointData  Scalars="p_O2"> 
<DataArray  type="Float64"  Name="p_O2"  format="ascii">4.0000000000000000e+01  6.6447407199808907e+01  8.4304312698809454e+01  7.1296028948987868e+01  8.6223683912661329e+01  9.2416404334746659e+01  8.1923645261780777e+01  7.6579693929222913e+01  4.0000000000000000e+01  4.0000000000000000e+01  4.0000000000000000e+01  6.0825328707352412e+01  6.5688913737784858e+01  8.0799882013846300e+01  7.5057775243443245e+01  7.6579693931780923e+01  5.9542031694357753e+01  4.0000000000000000e+01  4.0000000000000000e+01  4.0000000000000000e+01  6.0825328710528233e+01  8.9123076720664230e+01  8.5168084487135189e+01  8.6336517244386556e+01  7.3410873283287842e+01  7.5057775245264196e+01  5.8178957772093383e+01  7.6579693928125110e+01  7.5057775244080545e+01  7.6579693929922740e+01  5.9542031695942519e+01  8.0799882015303140e+01  6.5688913740433264e+01  5.9542031698035345e+01  7.5057775244638890e+01  4.0000000000000000e+01  8.0799882015634580e+01  6.5688913740060428e+01  8.1923645262491533e+01  9.2416404335989057e+01  8.9123076724869122e+01  8.9970925295558800e+01  9.5978064043253099e+01  9.7693833380895043e+01  9.5644396685007976e+01  8.3892992209753800e+01  8.5168084488781304e+01  8.5168084484216308e+01  8.6336517237447779e+01  9.1853972762587460e+01  9.4159126456407193e+01  8.9123076730154622e+01  8.9970925301598200e+01  9.2615629290912111e+01  9.7034787026281293e+01  </DataArray> 
</PointData> 
</Piece>
</UnstructuredGrid>
</VTKFile>