<?xml version="1.0"?>
<VTKFile type="UnstructuredGrid"  version="0.1"  >
<UnstructuredGrid>
<Piece  NumberOfPoints="8700" NumberOfCells="40470">
<Points>
<DataArray  type="Float64"  NumberOfComponents="3"  format="ascii">38.460796 13.522274 5.732995  36.86861605615 13.1443901872 5.7288822545  36.83927226545 13.38613290855 6.392361806149999  37.48293241225 13.98940901965 6.011671918899999  37.51227620295001 13.7476662983 5.34819236725  37.8171358532 12.9189978889 6.11368488725  37.1734757064 12.3157217778 6.4943747745  36.5050688245 14.4565440393 6.2903488378  36.5344126152 14.21480131795 5.62686928615  36.5637564059 13.9730585966 4.9633897345  38.842663 15.746612 2.808879  37.92602317075 15.1019232508 2.0498748691  38.54926320625 14.8974178315 2.36440857615  38.6111839355 15.5719276749 2.01276400125  38.2194229645 15.9511174193 2.49434529295  38.379704871 15.3972433498 1.2166490025  38.31778414175 14.7227335064 1.5682935774  37.9879439 15.7764330942 1.6982302942  37.596182929 16.1556228386 2.1798115859  38.2558634125 14.048223663 1.9199381523  41.044144 16.831808 13.45601  41.5368028704 16.72600614935 13.01688734765  41.5733304687 16.7963099307 12.39663174285  41.1526933704 16.35835214935 13.22230584765  41.4282535 17.199462 13.2505915  41.1892209687 16.4286559307 12.60205024285  41.812363 17.567116 13.045173  41.3342979374 16.0255038614 11.7480904857  41.2977703391 15.95520008005 12.3683460905  41.2612427408 15.8848962987 12.9886016953  46.5 10.495855 10.335  45.9436131724 9.863805550999999 9.694824778699999  45.3301997749 10.46176048215 9.34398881175  45.9436131724 10.010606051 10.4131387787  46.5 10.3490545 9.616686000000001  45.3301997749 10.60856098215 10.06230281175  46.5 10.202254 8.898372  44.1603995498 10.7212669643 9.7896056235  44.7738129473 10.12331203315 10.14044159045  45.3872263448 9.525357101999999 10.4912775574  40.419701 2.011615 2.200252  40.86802770845 1.6880413041 0.5824852381000001  40.92151270845 1.4551985541 1.0234724881  41.12492020845001 2.1497875541 1.4916239881  40.1628085 1.54986875 1.29111325  40.21629350000001 1.317026 1.7321005  40.012886 0.622437 1.263949  39.959401 0.85527975 0.8229617499999999  39.905916 1.0881225 0.3819745  41.8301394169 2.2879601082 0.7829959762000001  34.135132 17.612043 13.894729  34.26598760465 17.3162737719 12.8709770135  34.6014405 17.1530615 13.728768  34.7053795 17.789331 13.624316  35.275627 17.966619 13.353903  34.83623510465 17.4935617719 12.6005640135  35.171688 17.3303495 13.458355  35.067749 16.69408 13.562807  34.73229610465 16.8572922719 12.7050160135  34.3968432093 17.0205045438 11.847225027  40.055229 22.632568 2.372419  40.483169853 22.3365600762 1.65668548155  40.1012285 23.0222345 1.698169  39.7449855 22.561115 1.8204985  39.434742 22.489662 1.268578  40.172926353 22.2651070762 1.10476498155  39.790985 22.9507815 1.1462485  40.147228 23.411901 1.023919  40.529169353 22.7262265762 0.98243548155  40.911110706 22.0405521524 0.9409519631  41.4415985181 15.3728247503 9.940618153100001  41.02769424755 14.47300542755 9.70348272455  41.65732200825001 14.97661936205 9.253708157950001  40.77471543125 15.08961083615 9.34906188815  40.1078323444 14.806396922 8.7575056232  41.2434177377 14.0768000393 9.0165727294  40.3608111607 14.1897915134 9.111926459599999  40.9904389214 14.6934054479 8.662151893000001  41.8730454984 14.5804139738 8.5667981628  40.613789977 13.5731861048 9.466347296  31.696701 20.325033 5.524628  32.4178735335 20.4268320049 5.045056466649999  31.919407 20.4019345 4.329967  31.8211775 19.740997 4.4652065  31.945654 19.156961 3.405785  32.5423500335 19.8427960049 3.98563496665  32.0438835 19.8178985 3.2705455  32.142113 20.478836 3.135306  32.6405795335 20.5037335049 3.85039546665  33.139046067 20.5286310098 4.5654849333  36.9061232137 14.7344763353 1.7274151247  35.8478121207 14.27444723585 2.79105256895  36.46293362755 13.8475758737 2.19516248005  36.88047018465 14.7107076819 2.503373004  35.87346514975 14.29821588925 2.01509468965  34.8408070858 13.8619554432 2.3027742546  35.43027556360001 13.41131542765 2.482842045  36.8548171556 14.6869390285 3.2793308833  36.4372805985 13.8238072203 2.97112035935  36.0197440414 12.9606754121 2.6629098354  43.605244 14.769205 7.676696  43.7698559855 13.920996629 8.352846924450001  44.338703 14.208387 7.812438500000001  43.8304025 14.3000815 7.552844  43.2615554855 14.012691129 8.09325242445  44.1135445 14.6775105 7.9362905  44.621845 14.585816 8.195885000000001  44.055561 13.830958 7.428992  43.4867139855 13.543567629 7.969400424450001  42.917866971 13.256177258 8.509808848900001  39.2739514705 12.982194651 9.833526327  38.938396157 13.14311415165 8.791832770599999  38.7020671998 12.972204662 9.5938655918  39.1094032928 13.4902045592 9.36353193355  39.1029443347 12.63510424345 9.261827164050001  38.9319371989 12.2880138359 8.6901280011  38.531060064 12.62511425445 9.022166428849999  38.9448551151 13.9982144674 8.893537540100001  38.5375190221 13.4802145702 9.123871198349999  38.1301829291 12.962214673 9.354204856599999  41.362438 10.710154 6.601643  42.31215263145 11.2960645219 6.9520048366  41.59762363145 11.1631190219 7.2131478366  41.4487515 11.2023425 6.431658000000001  42.076967 10.8430995 6.3405  41.535065 11.694531 6.261673  41.68393713145 11.6553075219 7.043162836600001  42.1632805 11.335288 6.170515  42.791496 10.976045 6.079357  41.8328092629 11.6160840438 7.8246526732  35.6866034595 13.8451066433 3.862365723  35.95370398735 12.68999099505 3.7752196669  35.51206486305 12.5186789705 4.62039018575  35.3556529403 13.05503700395 3.8259766433  35.84301538225 13.30874860985 4.65677926545  36.28465450655 13.4800606344 3.8116087466  35.999427305 12.7723905764 5.4511928079  36.44106642929999 12.94370260095 4.60602228905  35.0247024211 12.2649673646 3.7895875636  36.8827055536 13.1150146255 3.7608517702  38.4449529784 11.3979612251 1.6045084098  38.61164517885 11.86010555795 2.6068625413  38.24786896785 12.01827605815 2.03639691495  38.14601469475 11.3193560088 2.37000859315  38.8087291894 11.2397907249 2.17497403615  37.8470764111 11.2407507925 3.1355087765  37.9489306842 11.93967084185 2.8018970983  38.50979090574999 11.1611855086 2.9404742195  39.1725054004 11.0816202247 2.7454396625  38.0507849573 12.6385908912 2.4682854201  41.3698401986 12.7807726551 1.4358466531  41.12915569695 11.82680469215 1.7459963068  40.92682093975 12.2132170101 1.1965771514  41.03469409705 11.95124601555 1.90232446635  41.5721749558 12.39436033715 1.9852658085  40.6995479955 11.121719376 2.3688022796  40.5916748382 11.38369037055 1.66305496465  41.23702885425 11.5648336976 2.45174362175  41.774509713 12.0079480192 2.5346849639  40.4838016809 11.6456613651 0.9573076497  40.409054 22.418169 -0.5  41.315141853 22.5116205762 0.22047598155  40.915323853 22.9062330762 0.22047598155  40.660082353 22.2293605762 0.22047598155  41.0641135 22.700429 -0.5  40.66429549999999 23.0950415 -0.5  40.919537 23.771914 -0.5  41.319355 23.3773015 -0.5  41.719173 22.982689 -0.5  40.790794 8.228401 2.336104  42.06523765350001 8.795130969399999 1.78022104875  41.24739610065 8.3060815254 1.57370458905  41.2206763822 8.9642141486 1.84697953385  41.60863555285 8.717450444000001 2.5426204597  41.6505587644 9.7000272972 1.3578550677  41.67727848285 9.041894674 1.0845801229  42.03851793505 9.453263592599999 2.05349599355  42.4264771057 9.206499888 2.7491369194  41.7039982013 8.3837620508 0.8113051781  31.089027 18.043318 5.433388  31.66586446285 17.6735277137 4.712957304  32.20959496285001 17.8113507137 5.287978804  31.63615996285 18.1703577137 5.001236304  31.1187315 17.546488 5.145109  31.6921665 17.187481 5.4318515  31.662462 17.684311 5.7201305  32.235897 17.325304 6.006873  31.148436 17.049658 4.85683  32.1832929257 18.2973974274 4.569084608  34.326035 24.600712 4.22988  34.54807206605 23.619233143 4.0282827691  35.2295015 23.892094 3.873526  34.711731 24.249307 3.655494  34.68014656605 23.613425143 4.8207007691  34.8438055 24.243499 4.447912  35.361576 23.886286 4.665944  35.097427 23.897902 3.081108  44.1194 21.718769 12.063171  44.529627 21.900095 11.391958  43.70025775085 21.66028429065 11.1255712388  44.3818705 21.5281355 11.629878  44.2671565 22.0907285 11.825251  44.414913 22.462688 11.587331  43.84801425085 22.03224379065 10.8876512388  44.644341 21.337502 11.196585  43.96272825085 21.46965079065 10.6922782388  43.2811155017 21.6017995813 10.1879714776  40.22485547705 13.5411959565 8.701007671399999  39.77932254605 13.7857002861 9.17994241805  39.97187666075 14.1578013651 8.346586835  39.52634372975 14.4023056947 8.825521581650001  39.3903880461 13.7537101378 8.414602793450001  39.8359209771 13.5092058082 7.9356680468  34.286621 19.568172 2.855989  35.3156627808 19.21877328235 3.06963441965  35.0161137808 19.69156778235 3.18061241965  34.8634481218 18.80942794855 3.3431787029  34.58617 19.0953775 2.745011  34.885719 18.622583 2.634033  35.5929409026 18.9328237309 3.66780212255  35.1629971218 18.33663344855 3.2322007029  35.4402752436 18.0506838971 3.8303684058  35.7456065616 19.8149635647 3.5052358393  38.310085 14.575704 6.031427  37.70270115445 13.44743319325 6.7119133221  37.62734565445 13.97414819325 6.8611293221  38.1875210123 13.88570878825 7.073267911149999  38.3854405 14.048989 5.882211  38.2628765123 13.35899378825 6.92405191115  38.0649570246 13.1957135765 8.1151088223  37.50478166675 13.2841529815 7.90297023325  36.9446063089 13.3725923865 7.6908316442  42.87925 6.401383 12.119558  43.66809069289999 6.59449990135 11.211019338  43.0750541929 6.40463540135 11.202275338  43.273846 6.0471785 12.046351  43.4722865 6.5912475 12.128302  44.065323 6.781112 12.137046  43.8668825 6.237043 12.055095  43.668442 5.692974 11.973144  43.4696501929 6.05043090135 11.129068338  43.2708583858 6.4078878027 10.284992676  35.972816 12.464838 9.41268  37.30057327455 12.64016206285 9.90571923585  37.76619364755 11.93022612535 10.006748262  36.5144082286 12.6037075212 9.09350878245  36.75898104595 12.50129254165 10.2248904534  36.9800286016 11
[...]
<PointData  Scalars="p"> 
<DataArray  type="Float64"  Name="p"  format="ascii">7.9999999998663602e+00  7.9999999998485523e+00  7.9999999998513616e+00  7.9999999998606475e+00  7.9999999998577946e+00  7.9999999998593792e+00  7.9999999998465681e+00  7.9999999998549347e+00  7.9999999998525269e+00  7.9999999998512008e+00  7.9999999998992397e+00  7.9999999998878693e+00  7.9999999998962599e+00  7.9999999999017426e+00  7.9999999998924674e+00  7.9999999999012585e+00  7.9999999998964872e+00  7.9999999998933609e+00  7.9999999998859153e+00  7.9999999998916698e+00  7.9999999999632632e+00  7.9999999999704849e+00  7.9999999999731095e+00  7.9999999999616573e+00  7.9999999999716200e+00  7.9999999999632987e+00  7.9999999999821156e+00  7.9999999999635287e+00  7.9999999999621432e+00  7.9999999999605826e+00  7.9999999999978781e+00  7.9999999999977760e+00  7.9999999999979865e+00  7.9999999999978231e+00  7.9999999999977867e+00  7.9999999999980140e+00  7.9999999999978328e+00  7.9999999999989280e+00  7.9999999999983604e+00  7.9999999999980638e+00  7.9999999999962119e+00  7.9999999999964961e+00  7.9999999999962412e+00  7.9999999999968727e+00  7.9999999999957625e+00  7.9999999999955609e+00  7.9999999999955520e+00  7.9999999999956062e+00  7.9999999999957403e+00  7.9999999999980735e+00  7.9999999998182467e+00  7.9999999998192024e+00  7.9999999998163354e+00  7.9999999998218438e+00  7.9999999998260733e+00  7.9999999998246523e+00  7.9999999998212905e+00  7.9999999998140732e+00  7.9999999998192495e+00  7.9999999998244649e+00  7.9999999999631397e+00  7.9999999999658682e+00  7.9999999999696589e+00  7.9999999999542268e+00  7.9999999999476419e+00  7.9999999999600249e+00  7.9999999999635767e+00  7.9999999999760023e+00  7.9999999999710436e+00  7.9999999999710640e+00  7.9999999999635305e+00  7.9999999999492246e+00  7.9999999999678479e+00  7.9999999999446016e+00  7.9999999999260094e+00  7.9999999999541052e+00  7.9999999999302052e+00  7.9999999999485558e+00  7.9999999999725269e+00  7.9999999999345679e+00  7.9999999997781863e+00  7.9999999997877866e+00  7.9999999997682254e+00  7.9999999997725348e+00  7.9999999997823688e+00  7.9999999997887095e+00  7.9999999997743885e+00  7.9999999997677094e+00  7.9999999997837188e+00  7.9999999997989306e+00  7.9999999998718740e+00  7.9999999998505080e+00  7.9999999998581499e+00  7.9999999998677023e+00  7.9999999998533902e+00  7.9999999998367288e+00  7.9999999998390532e+00  7.9999999998632267e+00  7.9999999998545501e+00  7.9999999998430988e+00  7.9999999999998126e+00  7.9999999999992646e+00  7.9999999999991118e+00  7.9999999999996083e+00  7.9999999999999991e+00  7.9999999999993685e+00  7.9999999999990372e+00  7.9999999999993960e+00  7.9999999999999991e+00  8.0000000000000018e+00  7.9999999998941442e+00  7.9999999998892255e+00  7.9999999998807958e+00  7.9999999998944515e+00  7.9999999998894111e+00  7.9999999998841327e+00  7.9999999998761417e+00  7.9999999998942357e+00  7.9999999998817986e+00  7.9999999998690097e+00  7.9999999999633484e+00  7.9999999999841407e+00  7.9999999999638387e+00  7.9999999999599138e+00  7.9999999999834088e+00  7.9999999999585629e+00  7.9999999999645741e+00  7.9999999999819718e+00  7.9999999999999991e+00  7.9999999999692255e+00  7.9999999998430624e+00  7.9999999998359712e+00  7.9999999998266054e+00  7.9999999998318909e+00  7.9999999998391393e+00  7.9999999998471996e+00  7.9999999998354188e+00  7.9999999998428128e+00  7.9999999998173736e+00  7.9999999998528706e+00  7.9999999998929230e+00  7.9999999998916325e+00  7.9999999998862412e+00  7.9999999998809583e+00  7.9999999999000391e+00  7.9999999998670877e+00  7.9999999998739684e+00  7.9999999998864570e+00  7.9999999999072990e+00  7.9999999998804405e+00  7.9999999999648415e+00  7.9999999999597646e+00  7.9999999999547313e+00  7.9999999999572253e+00  7.9999999999697442e+00  7.9999999999510534e+00  7.9999999999478950e+00  7.9999999999631264e+00  7.9999999999753149e+00  7.9999999999453166e+00  7.9999999999664855e+00  7.9999999999805107e+00  7.9999999999783400e+00  7.9999999999686491e+00  7.9999999999789377e+00  7.9999999999792122e+00  7.9999999999873213e+00  7.9999999999865263e+00  7.9999999999881792e+00  7.9999999999755111e+00  7.9999999999887974e+00  7.9999999999797469e+00  7.9999999999743485e+00  7.9999999999835136e+00  7.9999999999783302e+00  7.9999999999813660e+00  7.9999999999864162e+00  7.9999999999929567e+00  7.9999999999851239e+00  7.9999999997828075e+00  7.9999999997980016e+00  7.9999999998088160e+00  7.9999999997908873e+00  7.9999999997904441e+00  7.9999999998089830e+00  7.9999999998036992e+00  7.9999999998192637e+00  7.9999999998006954e+00  7.9999999997997469e+00  7.9999999997769971e+00  7.9999999997932152e+00  7.9999999998030100e+00  7.9999999997849196e+00  7.9999999998015205e+00  7.9999999997940252e+00  7.9999999998104734e+00  7.9999999997958886e+00  7.9999999999998304e+00  7.9999999999995870e+00  7.9999999999997060e+00  7.9999999999996660e+00  7.9999999999997362e+00  7.9999999999996909e+00  7.9999999999995595e+00  7.9999999999996438e+00  7.9999999999996385e+00  8.0000000000000000e+00  7.9999999999239630e+00  7.9999999999130447e+00  7.9999999999193712e+00  7.9999999999098357e+00  7.9999999999032063e+00  7.9999999999126681e+00  7.9999999998317639e+00  7.9999999998508118e+00  7.9999999998422782e+00  7.9999999998441007e+00  7.9999999998419069e+00  7.9999999998504592e+00  7.9999999998538405e+00  7.9999999998510098e+00  7.9999999998532090e+00  7.9999999998529514e+00  7.9999999998706661e+00  7.9999999998632676e+00  7.9999999998657900e+00  7.9999999998745634e+00  7.9999999998682583e+00  7.9999999998724469e+00  7.9999999998712976e+00  7.9999999998622604e+00  7.9999999998552989e+00  8.0000000000000000e+00  7.9999999999993596e+00  7.9999999999999991e+00  8.0000000000000000e+00  8.0000000000000000e+00  7.9999999999988853e+00  7.9999999999990301e+00  7.9999999999991287e+00  8.0000000000000000e+00  8.0000000000000000e+00  7.9999999998346345e+00  7.9999999998475815e+00  7.9999999998493294e+00  7.9999999998415889e+00  7.9999999998349791e+00  7.9999999998385762e+00  7.9999999998416209e+00  7.9999999998528644e+00  7.9999999998504379e+00  7.9999999998504734e+00  7.9999999999027027e+00  7.9999999998785984e+00  7.9999999998972227e+00  7.9999999998887432e+00  7.9999999998831983e+00  7.9999999998768612e+00  7.9999999998717879e+00  7.9999999998840199e+00  7.9999999998644471e+00  7.9999999998918661e+00  7.9999999999522542e+00  7.9999999999628466e+00  7.9999999999529887e+00  7.9999999999549543e+00  7.9999999999598783e+00  7.9999999999674820e+00  7.9999999999603411e+00  7.9999999999594982e+00  7.9999999999547100e+00  7.9999999999986606e+00  7.9999999999985549e+00  7.9999999999986953e+00  7.9999999999989733e+00  7.9999999999983675e+00  7.9999999999983737e+00  7.9999999999983018e+00  7.9999999999981695e+00  7.9999999999993383e+00  7.9999999999982370e+00  7.9999999999017781e+00  7.9999999998571543e+00  7.9999999998776383e+00  7.9999999998593152e+00  7.9999999998795088e+00  7.9999999998611662e+00  7.9999999998569153e+00  7.9999999998542410e+00  7.9999999998832116e+00  7.9999999998887388e+00  7.9999999998801163e+00  7.9999999998924718e+00  7.9999999998924984e+00  7.9999999999024576e+00  7.9999999999025819e+00  7.9999999998876543e+00  7.9999999998765849e+00  7.9999999999987166e+00  7.9999999999992939e+00  7.9999999999982645e+00  7.9999999999980282e+00  7.9999999999988320e+00  7.9999999999999991e+00  8.0000000000000000e+00  7.9999999997980336e+00  7.9999999998020295e+00  7.9999999997889084e+00  7.9999999997925277e+00  7.9999999998061897e+00  7.9999999998170397e+00  7.9999999997991420e+00  7.9999999997885576e+00  7.9999999997841593e+00  7.9999999997802895e+00  7.9999999998486020e+00  7.9999999998405027e+00  7.9999999998570637e+00  7.9999999998526947e+00  7.9999999998311697e+00  7.9999999998586064e+00  7.9999999998353202e+00  7.9999999998628377e+00  7.9999999998452873e+00  7.9999999998477413e+00  7.9999999998490949e+00  7.9999999998394973e+00  7.9999999998493339e+00  7.9999999998395737e+00  7.9999999998562066e+00  7.9999999998374696e+00  7.9999999998366986e+00  7.9999999998361533e+00  7.9999999998495284e+00  7.9999999998506404e+00  7.9999999998624975e+00  7.9999999998590621e+00  7.9999999998646816e+00  7.9999999998622311e+00  7.9999999998741140e+00  7.9999999998519229e+00  7.9999999999053912e+00  7.9999999999336593e+00  7.9999999999121547e+00  7.9999999999172493e+00  7.9999999999298836e+00  7.9999999999462919e+00  7.9999999999254934e+00  7.9999999999209468e+00  7.9999999999403677e+00  7.9999999999607372e+00  7.9999999999343068e+00  7.9999999999342446e+00  7.9999999999161231e+00  7.9999999999315863e+00  7.9999999999197140e+00  7.9999999999379066e+00  7.9999999999031779e+00  7.9999999999233466e+00  7.9999999999423865e+00  7.9999999999294733e+00  7.9999999998526770e+00  7.9999999998564189e+00  7.9999999998632214e+00  7.9999999998478994e+00  7.9999999998614655e+00  7.9999999998707159e+00  7.9999999998716804e+00  7.9999999998435545e+00  7.9999999998552171e+00  7.9999999998697024e+00  7.9999999998504956e+00  7.9999999998497096e+00  7.9999999998510516e+00  7.9999999998532978e+00  7.9999999998594538e+00  7.9999999998547349e+00  7.9999999998579305e+00  7.9999999998522240e+00  7.9999999998499831e+00  7.9999999998290345e+00  7.9999999998363487e+00  7.9999999998339639e+00  7.9999999998323856e+00  7.9999999998288986e+00  7.9999999998304272e+00  7.9999999998300293e+00  7.9999999998319975e+00  7.9999999998309033e+00  7.9999999998367404e+00  7.9999999999978755e+00  7.9999999999977787e+00  7.9999999999978435e+00  7.9999999999979234e+00  7.9999999999978595e+00  7.9999999999978053e+00  7.9999999999978497e+00  7.9999999999982698e+00  7.9999999999981393e+00  7.9999999999981366e+00  7.9999999999167688e+00  7.9999999999056266e+00  7.9999999999251745e+00  7.9999999999093063e+00  7.9999999999121174e+00  7.9999999999159277e+00  7.9999999999332703e+00  7.9999999999991935e+00  7.9999999999984110e+00  7.9999999999984563e+00  7.9999999999985905e+00  7.9999999999985967e+00  7.9999999999989209e+00  7.9999999999988223e+00  7.9999999999982281e+00  7.9999999999983125e+00  7.9999999998572475e+00  7.9999999998706448e+00  7.9999999998731717e+00  7.9999999998599058e+00  7.9999999998683027e+00  7.9999999998788036e+00  7.9999999998835696e+00  7.9999999998612079e+00  7.9999999998741798e+00  7.9999999998882148e+00  7.9999999999851381e+00  8.0000000000000000e+00  7.9999999999798659e+00  7.9999999999999991e+00  8.0000000000000018e+00  7.9999999999770273e+00  7.9999999999647624e+00  8.0000000000000000e+00  8.0000000000000000e+00  7.9999999998343529e+00  7.9999999998275904e+00  7.9999999998292575e+00  7.9999999998282840e+00  7.9999999998325269e+00  7.9999999998247739e+00  7.9999999998222435e+00  7.9999999998292974e+00  7.9999999998322302e+00  7.9999999998232783e+00  7.9999999999995177e+00  7.9999999999989875e+00  7.9999999999990532e+00  7.9999999999991784e+00  7.9999999999993197e+00  7.9999999999992850e+00  7.9999999999991891e+00  7.9999999999991029e+00  7.9999999999990807e+00  7.9999999999991740e+00  7.9999999999983711e+00  7.9999999999980709e+00  7.9999999999980442e+00  7.9999999999979190e+00  7.9999999999978106e+00  7.9999999999977582e+00  7.9999999999978035e+00  7.9999999999978861e+00  7.9999999999978204e+00  7.9999999999980025e+00  7.9999999999989848e+00  7.9999999999986917e+00  7.9999999999988427e+00  7.9999999999990887e+00  7.9999999999994156e+00  7.9999999999988862e+00  7.9999999999989759e+00  7.9999999999988871e+00  7.9999999999986215e+00  7.9999999999985958e+00  7.9999999999976783e+00  7.9999999999976774e+00  7.9999999999975557e+00  7.9999999999977334e+00  7.9999999999975548e+00  7.9999999999976064e+00  7.9999999999975620e+00  7.9999999999980087e+00  7.9999999999980860e+00  7.9999999999473754e+00  7.9999999999450404e+00  7.9999999999345226e+00  7.9999999999442188e+00  7.9999999998382307e+00  7.9999999998430331e+00  7.9999999998408677e+00  7.9999999998228892e+00  7.9999999998102655e+00  7.9999999998436069e+00  7.9999999998279794e+00  7.9999999998258629e+00  7.9999999998429310e+00  7.9999999998454907e+00  7.9999999999980096e+00  7.9999999999981002e+00  7.9999999999978506e+00  7.9999999999980327e+00  7.9999999999983622e+00  7.9999999999984404e+00  7.9999999999984146e+00  7.9999999999983382e+00  7.9999999999984412e+00  7.9999999999129754e+00  7.9999999999015747e+00  7.9999999999076286e+00  7.9999999999103544e+00  7.9999999999059170e+00  7.9999999998957056e+00  7.9999999998969651e+00  7.9999999999035110e+00  7.9999999999008864e+00  7.9999999998895905e+00  7.9999999998530509e+00  7.9999999998467226e+00  7.9999999998459161e+00  7.9999999998499085e+00  7.9999999998453486e+00  7.9999999998436477e+00  7.9999999998421938e+00  7.9999999998384697e+00  7.9999999998402993e+00  7.9999999998414930e+00  7.9999999999999369e+00  7.9999999999999991e+00  7.9999999999999991e+00  7.9999999999998330e+00  7.9999999999998135e+00  8.0000000000000000e+00  8.0000000000000000e+00  7.9999999999870797e+00  7.9999999999902904e+00  7.9999999999999991e+00  7.9999999999875433e+00  8.0000000000000000e+00  8.0000000000000000e+00  8.0000000000000000e+00  8.0000000000000000e+00  8.0000000000000018e+00  8.0000000000000000e+00  8.0000000000000000e+00  7.9999999999995701e+00  7.9999999999999991e+00  7.9999999999866649e+00  7.9999999999938831e+00  7.9999999999941442e+00  7.9999999999930518e+00  7.9999999999958105e+00  7.9999999999965290e+00  7.9999999999961444e+00  7.9999999999966454e+00  7.9999999999965548e+00  7.9999999999980016e+00  7.9999999998427631e+00  7.9999999998484759e+00  7.9999999998477058e+00  7.9999999998471196e+00  7.9999999998446265e+00  7.9999999998456763e+00  7.9999999998470566e+00  7.9999999998463860e+00  7.9999999998489129e+00  7.9999999998527276e+00  7.9999999999999991e+00  7.9999999999999991e+00  7.9999999999995515e+00  8.0000000000000000e+00  7.9999999999999991e+00  7.9999999999889875e+00  8.0000000000000000e+00  7.9999999997926121e+00  7.9999999998130953e+00  7.9999999997977485e+00  7.9999999998140048e+00  7.9999999998114681e+00  7.9999999998303215e+00  7.9999999998302940e+00  7.9999999998298472e+00  7.9999999998155804e+00  7.9999999998033688e+00  7.9999999999999769e+00  8.0000000000000000e+00  8.0000000000000000e+00  8.0000000000000000e+00  7.9999999999999059e+00  7.9999999999997380e+00  7.9999999999999165e+00  7.9999999999996847e+00  7.9999999999994547e+00  7.9999999999915170e+00  7.9999999999976517e+00  7.9999999999976188e+00  7.9999999999976970e+00  7.9999999999976090e+00  7.9999999999976632e+00  7.9999999999977476e+00  7.9999999999977387e+00  7.9999999999981126e+00  7.9999999999981615e+00  7.9999999999980451e+00  7.9999999999981508e+00  7.9999999999980629e+00  7.9999999999980247e+00  7.9999999999981632e+00  7.9999999999983205e+00  7.9999999999984919e+00  7.9999999999350146e+00  7.9999999999330900e+00  7.9999999999483622e+00  7.9999999999546674e+00  7.9999999999429621e+00  7.9999999999404423e+00  7.9999999999258389e+00  7.9999999999281819e+00  7.9999999999306679e+00  7.9999999999986882e+00  7.9999999999979536e+00  7.9999999999983311e+00  7.9999999999984981e+00  7.9999999999980158e+00  7.9999999999978924e+00  7.9999999999978986e+00  7.9999999999995781e+00  7.9999999999990479e+00  7.9999999999991509e+00  7.9999999999991269e+00  7.9999999999994458e+00  7.9999999999994262e+00  7.9999999999991287e+00  7.9999999999986873e+00  7.9999999999987637e+00  7.9999999999991571e+00  7.9999999999979350e+00  7.9999999999982725e+00  7.9999999999984714e+00  7.9999999999980700e+00  7.9999999999981579e+00  7.9999999999978408e+00  7.9999999999978861e+00  7.9999999999183489e+00  7.9999999999377183e+00  7.9999999999376996e+00  7.9999999999329452e+00  7.9999999999470717e+00  7.9999999999513758e+00  7.9999999999517488e+00  7.9999999999569180e+00  7.9999999999557945e+00  7.9999999999553735e+00  7.9999999999088676e+00  7.9999999999048308e+00  7.9999999999141735e+00  7.9999999998989217e+00  7.9999999998351283e+00  7.9999999998412523e+00  7.9999999998476703e+00  7.9999999998269296e+00  7.9999999998161337e+00  7.9999999998321609e+00  7.9999999998379154e+00  7.9999999998633369e+00  7.9999999998528200e+00  7.9999999999977867e+00  7.9999999999977627e+00  7.9999999999976570e+00  7.9999999999976650e+00  7.9999999999977076e+00  7.9999999999977272e+00  7.9999999999976721e+00  7.9999999999979305e+00  7.9999999999752491e+00  7.9999999999764349e+00  7.9999999999840643e+00  7.9999999999744187e+00  7.9999999999629470e+00  7.9999999999636220e+00  7.9999999999539160e+00  8.0000000000000000e+00  7.9999999999999991e+00  8.0000000000000000e+00  7.9999999999999991e+00  8.0000000000000000e+00  7.9999999999998996e+00  7.9999999999999991e+00  7.9999999999788853e+00  7.9999999999887619e+00  8.0000000000000018e+00  7.9999999999978009e+00  7.9999999999978222e+00  7.9999999999978089e+00  7.9999999999977778e+00  7.9999999999977502e+00  7.9999999999982787e+00  7.9999999999981126e+00  7.9999999999988214e+00  7.9999999999985203e+00  7.9999999999982290e+00  7.9999999999982521e+00  7.9999999999981943e+00  7.9999999999981259e+00  7.9999999999981597e+00  7.9999999999982832e+00  7.9999999999982014e+00  7.9999999998493196e+00  7.9999999998495532e+00  7.9999999998465743e+00  7.9999999998432214e+00  7.9999999998485176e+00  7.9999999998450386e+00  7.9999999998281943e+00  7.9999999998279936e+00  7.9999999998255378e+00  7.9999999998357216e+00  7.9999999998459055e+00  7.9999999998388320e+00  7.9999999998342259e+00  7.9999999998268629e+00  7.9999999998308091e+00  7.9999999998488445e+00  7.9999999998511404e+00  7.9999999998317888e+00  7.9999999998591740e+00  7.9999999998412568e+00  7.9999999998396829e+00  7.9999999998364553e+00  7.9999999998493463e+00  7.9999999999979403e+00  7.9999999999978755e+00  7.9999999999979785e+00  7.9999999999979101e+00  7.9999999999978542e+00  7.9999999999979812e+00  7.9999999999978888e+00  7.9999999999983853e+00  7.9999999998501297e+00  7.9999999998607123e+00  7.9999999998665574e+00  7.9999999998503659e+00  7.9999999998471010e+00  7.9999999998603091e+00  7.9999999998640217e+00  7.9999999998782219e+00  7.9999999998751621e+00  7.9999999998734941e+00  7.9999999999845386e+00  7.9999999999999991e+00  8.0000000000000000e+00  8.0000000000000000e+00  7.9999999999999991e+00  7.9999999999999991e+00  7.9999999999997176e+00  7.9999999999995284e+00  7.9999999999994769e+00  7.9999999999032667e+00  7.9999999999097380e+00  7.9999999998963203e+00  7.9999999999061160e+00  7.9999999999199183e+00  7.9999999999050635e+00  7.9999999998986997e+00  7.9999999999214291e+00  7.9999999999356612e+00  7.9999999998922098e+00  7.9999999997875157e+00  7.9999999997937907e+00  7.9999999997981588e+00  7.9999999997852660e+00  7.9999999997959348e+00  7.9999999998022657e+00  7.9999999998045519e+00  7.9999999997871010e+00  7.9999999997985283e+00  7.9999999998082165e+00  7.9999999999987450e+00  7.9999999999985079e+00  7.9999999999987708e+00  7.9999999999985221e+00  7.9999999999987015e+00  7.9999999999987237e+00  7.9999999999988320e+00  7.9999999998173861e+00  7.9999999998404601e+00  7.9999999998314415e+00  7.9999999998244871e+00  7.9999999998350768e+00  7.9999999998460334e+00  7.9999999998346389e+00  7.9999999998397913e+00  7.9999999998454054e+00  7.9999999998207780e+00  7.9999999998186713e+00  7.9999999998142854e+00  7.9999999998101528e+00  7.9999999997964846e+00  7.9999999998082032e+00  7.9999999998020339e+00  7.9999999998082565e+00  7.9999999998139604e+00  7.9999999999986322e+00  7.9999999999981517e+00  7.9999999999983560e+00  7.9999999999986073e+00  7.9999999999981579e+00  7.9999999999980274e+00  7.9999999999979705e+00  7.9999999999990248e+00  7.9999999999985647e+00  7.9999999999983222e+00  7.9999999997155289e+00  7.9999999997484217e+00  7.9999999997237756e+00  7.9999999997381135e+00  7.9999999997561959e+00  7.9999999997517648e+00  7.9999999997638414e+00  7.9999999997412639e+00  7.9999999997302345e+00  7.9999999997725721e+00  7.9999999999623173e+00  7.9999999999608722e+00  7.9999999999625437e+00  7.9999999999657581e+00  7.9999999999610676e+00  7.9999999999607851e+00  7.9999999999640705e+00  7.9999999999743663e+00  7