<?xml version="1.0"?>
<VTKFile type="UnstructuredGrid"  version="0.1"  >
<UnstructuredGrid>
<Piece  NumberOfPoints="8944" NumberOfCells="40526">
<Points>
<DataArray  type="Float64"  NumberOfComponents="3"  format="ascii">21.23406 16.664494 37.481441  21.5487291031 15.67702103445 37.13322499135  20.7771695 15.6235765 37.556612  21.264986 16.081409 37.754028  20.7462435 16.2066615 37.284025  20.258427 15.748829 37.086609  21.295912 15.498324 38.026615  22.23869247715 15.13991651355 36.79646606975  22.0292731031 16.00131853445 37.19824849135  22.46641937405 15.2855169791 37.75487957839999  21.98587537405 14.9612194791 37.6898560784  21.776456 15.8226215 38.0916385  22.257 16.146919 38.156662  22.6758387481 14.4241149582 37.3530971568  21.8015462062 15.8557180689 36.2398349827  21.3172541031 15.29517003445 36.86563949135  21.75440037405 14.5793684791 37.4222705784  21.064437 15.116473 37.7590295  20.832962 14.734622 37.491444  20.616381 14.646643 36.389591  20.7246715 14.6906325 36.9405175  20.437404 15.197736 36.7381  20.5456945 15.2417255 37.28902650000001  21.2089636031 15.25118053445 36.31471299135001  21.64610987405 14.5353789791 36.8713440784  22.227678 17.102739 37.489746  21.74553 16.4057065 37.8190515  22.242339 16.624829 37.823204  21.730869 16.8836165 37.48559349999999  21.387672 14.714943 35.217541  21.6301641031 14.75986853445 36.14919899135  21.5946091031 15.28533053445 35.72868799135  21.0020265 14.680793 35.803566  21.423227 14.189481 35.638052  21.0375815 14.155331 36.224077  21.458782 13.664019 36.058563  20.100912 9.381133999999999 44.437183  19.7812252454 8.934016298 43.65792684675  19.67683159935 9.61681981285 43.67168923929999  20.39402685745 8.89647560565 43.34110993215  20.6871417149 8.411817211300001 42.2450368643  20.07434010285 8.44935790365 42.5618537789  19.9699464568 9.132161418500001 42.57561617144999  19.2527511987 9.852505625699999 42.9061954786  19.35714484475 9.16970211085 42.89243308605  19.4615384908 8.486898596 42.8786706935  18.925985 9.874299000000001 45.176319  18.7350313887 10.70985902305 45.0824598384  18.5197525 10.4203 45.8381595  19.042708 10.5213795 45.8381595  18.5440777774 11.5454190461 44.9886006768  19.6415425 8.912300500000001 44.484531  20.141862 8.817667 44.235605  20.182812 8.254200000000001 44.034027  19.3218557454 8.465182798000001 43.70527484675  19.8221752454 8.370549298 43.45634884675  19.6824925 8.348833500000001 44.28295300000001  19.182173 8.443467 44.531879  19.1669535045 11.6435031856 43.3004112312  18.95729205525 11.08757577275 43.6430314314  18.85551564095 11.59446111585 44.144505954  18.3402291633 11.36323614055 43.5262129304  18.6458541917 11.038533703 44.4871261542  18.02879129975 11.3141940708 44.3703076532  18.747630606 10.5316483599 43.9856516316  19.67247576225 12.62376388495 43.66805561015001  19.74949954585 11.8479912663 43.6188101285  19.07879955855 12.39096523475 44.13020496105  20.3320455872 12.052479347 43.9372090258  19.6613455999 12.59545331545 44.44860385835  18.1740568804 10.4996699553 44.61023702305  18.2632340774 10.17099527535 45.20557070725  18.30947460155 9.556956571050002 44.65504049775  18.836807803 10.20297367995 44.5809853158  17.6004831548 10.4676915507 45.2348224145  19.017475 12.065058 41.210552  18.68701847195 11.4359356438 41.93048199075  18.21930021905 12.50864937215 41.9805390236  19.09221425225 11.8542805928 42.2554816156  17.888843691 11.87952701595 42.70046901435  18.7617577242 11.2251582366 42.97541160635  18.3565619439 10.8068132876 42.6504119815  20.1937742454 8.035328298 43.38903834675  20.43497685745 8.333008605650001 43.13953193215  20.554411 7.918979 43.9667165  20.92601 7.583758 43.899406  20.80657585745 7.99778760565 43.07222143215  19.9181012706 7.85784970515 42.4123883607  20.53090288265 7.820309012800001 42.0955714461  20.6503370252 7.40627940715 42.92275601395  18.0722804661 11.0065552984 45.11171154565  20.012726 10.694886 45.018654  19.380178303 10.61326717995 44.5021528158  19.2784018887 11.12015252305 45.00362733839999  19.4693555 10.2845925 45.0974865  19.26295111005 10.9820186775 42.02436231655  18.929015 11.246021 41.0100155  19.5934076381 11.6111410337 41.3044323258  18.840555 10.426984 40.809479  18.59855847195 10.6168986438 41.72994549075  19.5049476381 10.7921040337 41.1038958258  20.1693402762 11.1572240674 41.3983126516  19.620758 8.011543 40.360134  19.9977110252 7.62017190715 41.15312001395  19.4135525 7.757898 40.9622725  19.7108715 7.430192 40.5756895  19.800985 6.848841 40.791245  19.206347 7.504253 41.564411  19.503666 7.176547 41.17782800000001  18.964901803 9.487557679950001 44.25876531580001  19.21746209935 9.14798631285 43.7190372393  19.424271303 9.95639117995 44.2114173158  19.00019090235 10.1920769928 43.44592355509999  18.768463 8.916700000000001 41.249943  19.1150007454 8.701799298000001 42.06430684675  18.5764285 8.466585500000001 41.7010955  18.3433725 8.922981500000001 41.674242  19.5312807454 7.855761798 43.54479084675  21.505133 8.829435 43.974846  21.35104885745 8.132885105650001 42.99555943215  21.09613735745 8.62062610565 43.10994143214999  21.2155715 8.2065965 43.937126  21.7600445 8.341694 43.860464  22.014956 7.853953 43.746082  21.470483 7.7188555 43.822744  20.709749 12.725368 45.092533  20.5208972936 12.3889236735 44.5148710129  20.3549382936 13.0655596735 44.2167240129  20.2195200661 10.02987153965 43.9360057081  19.5428793691 10.6051287196 43.7102400239  19.79543966545 10.2655573525 43.1705119474  20.3381281322 10.6786090793 43.4348284162  18.55209627495 10.66923082375 43.31803180655  19.2098523516 10.74800440565 43.1033033549  18.8046565713 10.32965945665 42.77830373005  21.3009562823 7.5635015563 40.5609060955  20.83781016635 7.396151185300001 41.2535060617  21.3745167289 7.42960797925 41.5813156734  21.33252749085 6.77653593385 41.3418007826  20.3746640504 7.2288008143 41.9461060279  18.43756860155 8.84154057105 44.33282049775001  19.054079 9.158882999999999 44.85409900000001  17.6929642031 9.239614142100001 44.1337619955  19.75254081835 11.16105613245 43.3676198237  20.9940489986 7.987659383800001 41.4029714799  21.0676094452 7.85376580675 42.4233810578  21.4480771755 7.2957144022 42.6017252513  20.91137061295 7.26225760825 42.27391563960001  22.787086 6.958484 41.049866  21.3417995143 5.91725598585 41.0301639003  22.0532931646 6.40171283015 40.49374916545  22.779366 6.352683000000001 40.796669  22.771646 5.746882 40.543472  20.1754270661 10.68674753965 44.22674120809999  20.1723857936 11.3736826735 44.4779315129  19.58983975225 11.1691945928 44.1595326156  20.3350868597 11.36554421315 43.686018721  19.4380616823 11.79894919655 44.4629048513  19.01060709935 9.38460281285 42.0780692393  17.918282 8.929263000000001 42.098541  18.6899102454 8.708080798000001 42.48860584675  19.66814689035 11.4003636265 42.34936194140001  19.71104573745 10.50486484655 42.1522540651  20.0343991757 8.879972384649999 41.94308000325  19.72780235745 8.664258605650001 41.74748993215  19.6878614303 9.094873086650001 41.1287161565  20.64720078775 8.8424316923 41.62626308865  20.6072598606 9.273046173299999 41.007489313  22.04402114115 7.26099277815 40.80538604775001  22.11758158775 7.1270992011 41.82579562565  22.0755923497 6.4740271557 41.58628073485  22.1719738497 6.618334155699999 42.17991823485  22.8834675 7.102791 41.6435035  22.979849 7.247098 42.237141  19.6269133887 12.13539352305 45.0405668384  18.987405 8.2104765 41.407177  19.3339427454 7.995575798 42.22154084675  19.94674435745 7.95803510565 41.90472393215  18.320283 9.440338499999999 41.493502  21.31022830575 6.7042216083 40.2492692132  21.3195003292 5.8449416603 39.9376323309  20.4495702936 13.0906906735 43.4503170129  19.9694592936 12.6485101735 42.9459965129  18.30346 11.661744 41.4337785  17.589445 11.25843 41.657005  17.97300347195 11.0326216438 42.15370849075  19.5134485 9.6277165 44.806751  20.056819 10.03801 44.7279185  21.201702 10.127225 44.478935  20.7699150661 10.40291703965 43.9568817081  20.651307 9.754179499999999 44.458059  20.607214 10.4110555 44.7487945  19.7905055252 7.36652690715 41.75525851395  20.51263492355 9.5452131453 42.83993264025  20.8030225 9.1052845 44.20601449999999  20.9216305661 9.75402203965 43.7048372081  19.04665309935 10.13974481285 41.8578372393  18.356329 10.1954805 41.27327  18.804509 9.671842 41.02971100000001  17.872103 9.963977 41.737061  18.56242709935 9.908241312849999 42.3216282393  20.049221 7.185701 39.469193  20.46085714115 7.78752227815 40.46052004775  20.67508864115 7.37460127815 40.01504954775  19.925103 7.017271 40.130219  19.8349895 7.598622 39.9146635  20.55097064115 7.20617127815 40.67607554775  20.885611 11.279315 44.950123  20.6118695661 10.97896203965 44.1924757081  20.6088282936 11.6658971735 44.4436660129  20.4491685 10.9871005 44.98438849999999  21.0436565 10.70327 44.714529  18.215 10.842707 41.233242  17.730774 10.6112035 41.697033  20.8439725 8.541817500000001 44.0044365  19.93000552965 9.5627758995 41.9568423958  18.4728577009 9.5460598839 43.51997873705  18.57725134695 8.863256369049999 43.5062163445  17.80562310155 9.084438571050001 43.11615149775  21.3534175 9.47833 44.2268905  19.9068034303 8.388649586650001 41.2859501565  20.1140089303 8.642294586649999 40.6838116565  20.15394985745 8.21168010565 41.30258543215  19.1946105 8.464121500000001 40.8050385  17.55147491105 11.17069954775 42.7045098148  23.0846095 6.4021995 41.5128805  20.5602426646 6.34689133015 40.36443866545  20.6843606646 6.51532133015 39.70341266545  20.3752415 11.6171885 45.7250615  20.3612375 11.710127 45.0555935  20.79768 12.0023415 45.021328  20.0878245252 7.038820907150001 41.36867551395  31.693348 12.408294 31.961115  32.04779616265 12.44558190955 32.90207586515  31.3472288745 12.3583966753 33.1908450268  31.99304766265 12.90689090955 32.44058236515  31.7480965 11.946985 32.4226085  31.2924803745 12.8197056753 32.7293515268  31.802845 11.485676 32.884102  30.891612749 13.2311173506 33.4975880536  31.59218003715 13.31830258485 33.20881889195  32.2927473253 13.4054878191 32.92004
[...]
<PointData  Scalars="p"> 
<DataArray  type="Float64"  Name="p"  format="ascii">8.9478109647685766e+00  8.9465224422827117e+00  8.9494878856866436e+00  8.9463283053466718e+00  8.9504535015390179e+00  8.9521793008226176e+00  8.9477536428455124e+00  8.9430340046223797e+00  8.9418568858343956e+00  8.9406316418742158e+00  8.9475044171654794e+00  8.9434735557615994e+00  8.9376094112204445e+00  8.9449495448148415e+00  8.9455466014177656e+00  8.9490034684276676e+00  8.9519718401651254e+00  8.9506500531205546e+00  8.9533144109925349e+00  8.9520477467002824e+00  8.9526940569340407e+00  8.9517824841355829e+00  8.9508250522319628e+00  8.9496498702087166e+00  8.9514427580291898e+00  8.9388921303427509e+00  8.9424810495581042e+00  8.9371589638309086e+00  8.9441811667265156e+00  8.9481566719159709e+00  8.9483734666776247e+00  8.9474934795132128e+00  8.9503721337362467e+00  8.9494045361603174e+00  8.9533603488302607e+00  8.9566668763277466e+00  9.1384539908828462e+00  9.1458847353153079e+00  9.1424495832279806e+00  9.1264890149222602e+00  9.1160301515787445e+00  9.1314344114592352e+00  9.1265112008855311e+00  9.1432383648004016e+00  9.1454732023465244e+00  9.1490598320306233e+00  9.1830315906527780e+00  9.1779404270119667e+00  9.1921555793916223e+00  9.1786047595975262e+00  9.1782136116590838e+00  9.1595561520305822e+00  9.1412069701913996e+00  9.1453685534366702e+00  9.1641484562234083e+00  9.1487421929707313e+00  9.1623914314049575e+00  9.1817748713485265e+00  9.1443358721820545e+00  9.1548205118332096e+00  9.1619976865398165e+00  9.1705397336720065e+00  9.1725414011087647e+00  9.1865146129702921e+00  9.1667311881802824e+00  9.1327378436097639e+00  9.1285808377820761e+00  9.1559251301671942e+00  9.1099978471739202e+00  9.1410057570920458e+00  9.1887586926462976e+00  9.1953514589477141e+00  9.1938900310074114e+00  9.1733257996253936e+00  9.2075274265626810e+00  9.1277233359008125e+00  9.1428805513477514e+00  9.1655265440595866e+00  9.1364857674993800e+00  9.1754744336303151e+00  9.1529929823484757e+00  9.1607012083995230e+00  9.1428347343655716e+00  9.1310416857358021e+00  9.1393585133164166e+00  9.1361611058298333e+00  9.1272862114795394e+00  9.1394924854849915e+00  9.1251921202903148e+00  9.1374655535745095e+00  9.1925030827721006e+00  9.1406900920190388e+00  9.1540062993571674e+00  9.1607273618196814e+00  9.1613939189700826e+00  9.1263070435239921e+00  9.1176924719354577e+00  9.1047515474326861e+00  9.1139132600515591e+00  9.1401461710754770e+00  9.1035741704370459e+00  9.0897408090292835e+00  9.1082423620920991e+00  9.1222476048272068e+00  9.1224267279450686e+00  9.1174767927020390e+00  9.1281755428329614e+00  9.1399957808564629e+00  9.1317149641093245e+00  9.1717413296473804e+00  9.1603811869927920e+00  9.1534562937350810e+00  9.1550685709096502e+00  9.1299594526842149e+00  9.1417989301215457e+00  9.1468610828474368e+00  9.1488410673690854e+00  9.1631718784366107e+00  9.1007699596381162e+00  9.1143037845001622e+00  9.1119034976735431e+00  9.1191408714768887e+00  9.1062497206968800e+00  9.1127724596612669e+00  9.1236321867240644e+00  9.1031000697640838e+00  9.1065699502181729e+00  9.1111109024524630e+00  9.1246583213496777e+00  9.1400009780704270e+00  9.1284757222336950e+00  9.1115855856863543e+00  9.1638756943530009e+00  9.1423899106283510e+00  9.1512057138692722e+00  9.1030540086033618e+00  9.1174487564452846e+00  9.1140149308066558e+00  9.1223926944829330e+00  9.1334702218611437e+00  9.1933418305884391e+00  9.1836536162595603e+00  9.2052711740013269e+00  9.1273587271082128e+00  9.1082485982689523e+00  9.1193736064406039e+00  9.1243450200901375e+00  9.1290985630062504e+00  9.1079893588923522e+00  9.1312926985949474e+00  9.1155825245987856e+00  9.1180967309169123e+00  9.1240426103377885e+00  9.1241701729079399e+00  9.1240302307836458e+00  9.1409738939453788e+00  9.1099568881975017e+00  9.1478530914480576e+00  9.1396296675016817e+00  9.1696080771420263e+00  9.1593947332582388e+00  9.1182681749433332e+00  9.1168862622534927e+00  9.1193212112343183e+00  9.1243824410280272e+00  9.1107162455996171e+00  9.1040471367311344e+00  9.0916028503560327e+00  9.1028364018337182e+00  9.1143571452675083e+00  9.1233212478909191e+00  9.1252828963704182e+00  9.1108239016485815e+00  9.1125625912638544e+00  9.1497516688714562e+00  9.1336946623554258e+00  9.1464500308585421e+00  9.1305063414248941e+00  9.1437819732862078e+00  9.1147344374143948e+00  9.1256593961296097e+00  9.1007395461823020e+00  9.1154772126593286e+00  9.1503538615353879e+00  9.1692085177280696e+00  9.1645706471348536e+00  9.1605740797563193e+00  9.1372842110283248e+00  9.0902412639799657e+00  9.1028042298778544e+00  9.1155413622910721e+00  9.1142514638541616e+00  9.1372059358867084e+00  9.1114946295554606e+00  9.1165207601967051e+00  9.1032947269745996e+00  9.1312221754749476e+00  9.1373997502047004e+00  9.1214140406156599e+00  9.1594079063344758e+00  9.1524040578005437e+00  9.1111873046113079e+00  9.1070470236008134e+00  9.1078360051592568e+00  9.1177955457260911e+00  9.1068320952379906e+00  9.1170296270482734e+00  9.0987648478861445e+00  9.1059820631846691e+00  9.1049115605506863e+00  9.1226124075165433e+00  9.0913324145188490e+00  9.1426114171310751e+00  9.1628026660607826e+00  9.1224371812791816e+00  9.1151363032820516e+00  9.1747207552772743e+00  9.1773891526808438e+00  9.1903888412467936e+00  9.0936857121218484e+00  9.1168283523648270e+00  9.1021923267703109e+00  9.1155840024441765e+00  9.1158880734361318e+00  9.1829941145411222e+00  9.1235861782671321e+00  9.1274463735620177e+00  9.1206942250603724e+00  9.1432373817021784e+00  9.1268461259144029e+00  9.1022663404372732e+00  9.1317620685337886e+00  8.6724012044890735e+00  8.6717836648658597e+00  8.7093081496210853e+00  8.6708383271091645e+00  8.6742996960804213e+00  8.7084277829989691e+00  8.6739975563665368e+00  8.7352087090982380e+00  8.7014686144295865e+00  8.6692572725312385e+00  8.7579678291691572e+00  8.7299635158485884e+00  8.7586439108143619e+00  8.7536353006816032e+00  8.7634955894197333e+00  8.7286892609418363e+00  8.7670864854941986e+00  8.7351761079675754e+00  8.7062273147471370e+00  8.7493780108816495e+00  8.9778734229475177e+00  8.9959913977550450e+00  8.9923148248187328e+00  8.9858207383165460e+00  8.9914598064730011e+00  8.9860769147160973e+00  8.9944300712962111e+00  8.9990196974460677e+00  9.0016856810060109e+00  8.9918531822372767e+00  8.6689592370944251e+00  8.6624600299934116e+00  8.6498797079552041e+00  8.6641272181539417e+00  8.6804258355627653e+00  8.6569165427800794e+00  8.6431476126142748e+00  8.6756049676679545e+00  8.6912966140834964e+00  8.6287414703829537e+00  8.7047967003831328e+00  8.7231811055457573e+00  8.7088079375087428e+00  8.7004548043372072e+00  8.7234344373083914e+00  8.6895135067248166e+00  8.6985999942432901e+00  8.7124303318505678e+00  8.7348404280349410e+00  8.7117261898760390e+00  8.8367177881500716e+00  8.8324020111277424e+00  8.8305631539078870e+00  8.8444044989608184e+00  8.8230767889769695e+00  8.8240915512389240e+00  8.8088326272705277e+00  8.8103749738264057e+00  8.8117123321834256e+00  8.8500534356211933e+00  8.8723807070712315e+00  8.8678979067193779e+00  8.8543211620217637e+00  8.8663491655013704e+00  8.8611656673322354e+00  8.8537327983108653e+00  8.8618702971880712e+00  8.8496629231535717e+00  8.8371028072347659e+00  8.8631747026282337e+00  8.7459158211667596e+00  8.7644311169646691e+00  8.7805680357103650e+00  8.7484534146668871e+00  8.7505071894801603e+00  8.7673284884133977e+00  8.7835736501796333e+00  8.8176178706699506e+00  8.7973134710238501e+00  8.7780886273088647e+00  8.4378971926087516e+00  8.4610347485796371e+00  8.5042056095645222e+00  8.4601070453810863e+00  8.4433941328711644e+00  8.4454003845476198e+00  8.5035975116288913e+00  8.4720717682543079e+00  8.5071742695605117e+00  8.5444820098150149e+00  8.9441262245145747e+00  8.9034808313646483e+00  8.9228214633688605e+00  8.9312381505805476e+00  8.9244557289232738e+00  8.9200457650599390e+00  8.9127803573856692e+00  8.9111520693351736e+00  8.9025395122114190e+00  8.9032166074114603e+00  8.7718975423630408e+00  8.7668847516998962e+00  8.7989233988417528e+00  8.7752533515483009e+00  8.7676162686789034e+00  8.7998215044662036e+00  8.8196037489956343e+00  8.7937681350597980e+00  8.7657420702343973e+00  8.7995075846602493e+00  8.7597552175607891e+00  8.7520376138494651e+00  8.7841492987027134e+00  8.8014935583251201e+00  8.8075502434063644e+00  8.7880103737657738e+00  8.7726288195586388e+00  8.7440554996340829e+00  8.9828390468176718e+00  8.9814262386272894e+00  8.9948083078964416e+00  8.9767336288880859e+00  8.9791226759334783e+00  8.9776671356903801e+00  8.9895539026887938e+00  9.0047341765022377e+00  8.9929951198886311e+00  8.9800182266105413e+00  8.6855574445168227e+00  8.6905995101421798e+00  8.6774391962387369e+00  8.7012867412335542e+00  8.6968148217728931e+00  8.6727999550187853e+00  8.6473345787705043e+00  8.6622387546309021e+00  8.6766630112347727e+00  8.5015777787830000e+00  8.4666012168305560e+00  8.4868179461197357e+00  8.4885176577898775e+00  8.4847562531591674e+00  8.4576376510381319e+00  8.4738646889275433e+00  8.4721019189945164e+00  8.4508933881662536e+00  8.4341929020831223e+00  8.9297935799630288e+00  8.9129153010961701e+00  8.9292670278607051e+00  8.9190170234568846e+00  8.9084981558782506e+00  8.9040118895368892e+00  8.9197846224950688e+00  8.9295108345239509e+00  8.9148443454842514e+00  8.9003852106283965e+00  8.8243620546656665e+00  8.8379807527329586e+00  8.8291850094845579e+00  8.8122381064232318e+00  8.8678397450356155e+00  8.8538789752545739e+00  8.8415382791280308e+00  8.8567964951705953e+00  8.8757450740195143e+00  8.8036192273330265e+00  8.6487997619051420e+00  8.6311334746319339e+00  8.6419219898353727e+00  8.6408014230951125e+00  8.6353548553632784e+00  8.6286359114470077e+00  8.6334825702807620e+00  8.6373228931938151e+00  8.6379790352587591e+00  8.6389551103975020e+00  8.7376685875591580e+00  8.7360989862381295e+00  8.7217742382029932e+00  8.7543045522872305e+00  8.7797024327425479e+00  8.7852718015638906e+00  8.7592901890223498e+00  8.7317712658943272e+00  8.7642390974911883e+00  8.7606532249496656e+00  8.7499164823848066e+00  8.7456859957785973e+00  8.7601417469118754e+00  8.7753128611305069e+00  8.7708471031187454e+00  8.7803434361583967e+00  8.7901626904384269e+00  8.5620905594745995e+00  8.5512947551488399e+00  8.5522218524494331e+00  8.5833416582358701e+00  8.6151314502760847e+00  8.5436987520472609e+00  8.5816769355028573e+00  8.5794914890943588e+00  8.5423671135299788e+00  8.7496172590643653e+00  8.7613062089178833e+00  8.7299333135560921e+00  8.7396925175784670e+00  8.7310973239153320e+00  8.7532117924255264e+00  8.7203971541150409e+00  8.7109235343543698e+00  8.7407210952050800e+00  8.8587436361757188e+00  8.8390736025694583e+00  8.8389987401680674e+00  8.8550774222980735e+00  8.8530901693419395e+00  8.8429971095748385e+00  8.8265092966056145e+00  8.8511135554980864e+00  8.8498325070456154e+00  8.8481744265417355e+00  8.8268206465807335e+00  8.8253659836605411e+00  8.8348861987565819e+00  8.8295970132903339e+00  8.8318416458181215e+00  8.8270244943638119e+00  8.8388281740952355e+00  8.8470694340689686e+00  8.8356576545028016e+00  8.8264741491224843e+00  8.8415483436166991e+00  8.8437411982673861e+00  8.8621037083590632e+00  8.8233419338207426e+00  8.8281758556268937e+00  8.8489760439946465e+00  8.9841378508192857e+00  8.9895371950564940e+00  8.9959650417644426e+00  8.9818334414640191e+00  8.9902934637161742e+00  9.0015824707766576e+00  8.9963910791400554e+00  9.0080684526125410e+00  8.9960906720853107e+00  8.9814185428698750e+00  8.7357657307211767e+00  8.6883912488102091e+00  8.7000278573163143e+00  8.7079133619096751e+00  8.7205478230549360e+00  8.6874881878289454e+00  8.6843554410429622e+00  8.6928658771735634e+00  8.7042259737092778e+00  8.6751284316560131e+00  8.6462293416172038e+00  8.6256209638702952e+00  8.6293911247577775e+00  8.6401931351494845e+00  8.6191880220225912e+00  8.6290261532646770e+00  8.6369219102381969e+00  8.6267314122900576e+00  8.6146371621036160e+00  8.6348178110217031e+00  8.6294183067247978e+00  8.6299204527428923e+00  8.6291372175714116e+00  8.6397585945008899e+00  8.8050504351706795e+00  8.8143847096999028e+00  8.7932422065628746e+00  8.8086774357241193e+00  8.8112175090849245e+00  8.7839373779643015e+00  8.7639394426272350e+00  8.7903046276982693e+00  8.8173379389000797e+00  8.8110510396543180e+00  8.6213283066629529e+00  8.6033254596940640e+00  8.6394777467825890e+00  8.6121406292745935e+00  8.6061543620629415e+00  8.6250566436374232e+00  8.5969893346963406e+00  8.6303290807608946e+00  8.6550588006274474e+00  8.5875085500016635e+00  8.5641478370368578e+00  8.5439343395422416e+00  8.5402864082453807e+00  8.5438954792131625e+00  8.5451410531566427e+00  8.5644994025949313e+00  8.5655628563576709e+00  8.5280595273219824e+00  8.5231486585212721e+00  8.5193680292423881e+00  8.8066089769528677e+00  8.8127981624450200e+00  8.8144200723552011e+00  8.8081682090372198e+00  8.8081336089199631e+00  8.8161537167335595e+00  8.8174510971807223e+00  8.8302500465335498e+00  8.8288012033503414e+00  8.8291768458971784e+00  8.9146790831146987e+00  8.9081275296010034e+00  8.9116291159821852e+00  8.9218257901955109e+00  8.6948341866187082e+00  8.6722545103181243e+00  8.6870707538467826e+00  8.6845332419274897e+00  8.6922667041300983e+00  8.6889925370012637e+00  8.6833745141282908e+00  8.6788512127843909e+00  8.6814116032877227e+00  8.6689578015353188e+00  8.7357079249174650e+00  8.7673681289401149e+00  8.7341893748332300e+00  8.6958652350390935e+00  8.7373535701941485e+00  8.7675523915977891e+00  8.7692779664873814e+00  8.7178503532435023e+00  8.7166715613291981e+00  8.7656500529394297e+00  8.7361236285274586e+00  8.7460354031341261e+00  8.7485406296554462e+00  8.7337631922255685e+00  8.7255868153915621e+00  8.7456129188275895e+00  8.7290706643131006e+00  8.7355287111972491e+00  8.7142882824318288e+00  8.7178025124075944e+00  8.7223479898068152e+00  8.7404619061290614e+00  8.7248667051640840e+00  8.7348874595747183e+00  8.7386779773060734e+00  8.7091954110153562e+00  8.7237420348659356e+00  8.7230008261953174e+00  8.7106204214324521e+00  8.6947772660259002e+00  8.7202976271935686e+00  8.9453619784258667e+00  8.9358545841918957e+00  8.9452127917009570e+00  8.9386626457978693e+00  8.9448352979900392e+00  8.9462067146704296e+00  8.9434808854236429e+00  8.9375035101227489e+00  8.9310713597966060e+00  8.9279871480034565e+00  8.9131506884604317e+00  8.9158066172245327e+00  8.9254326406050488e+00  8.9179476387394487e+00  8.9070383485330424e+00  8.9040029421950990e+00  8.9238910677176317e+00  8.9123893088064126e+00  8.9017667218430123e+00  8.7562213955740695e+00  8.7804042774067241e+00  8.7634656645923084e+00  8.7571890507849179e+00  8.7758590006902484e+00  8.7857672981221544e+00  8.8031074876611530e+00  8.5681479970830630e+00  8.5696996084872605e+00  8.5556589861117942e+00  8.5706568613143581e+00  8.5817592227406205e+00  8.5784670529682536e+00  8.5669325092481721e+00  8.5490576521327686e+00  8.5598059448513126e+00  8.5726545932576848e+00  8.9699015388417873e+00  8.9802846495374311e+00  8.9607351412344673e+00  8.9893690666960833e+00  8.9898368079279596e+00  9.0116680533583757e+00  8.9788653871530855e+00  9.0091305285560122e+00  9.0051457545223865e+00  8.9515539922508758e+00  9.0067322304297885e+00  9.0175850016874790e+00  9.0093686494193346e+00  9.0104443345169347e+00  9.0127172002293268e+00  9.0199169077127568e+00  9.0153988067203947e+00  9.0161392402166260e+00  9.0119883350528518e+00  9.0079870012100844e+00  8.5631607671288741e+00  8.5531284971576600e+00  8.5837067582171205e+00  8.5420193418715105e+00  8.5185751969939556e+00  8.5744643500271245e+00  8.5323220336709351e+00  8.5654432155555487e+00  8.6089231842404192e+00  9.0380639018780400e+00  9.0485613592481027e+00  9.0436840895538655e+00  9.0613009415089980e+00  9.0544976020267818e+00  9.0725290707708908e+00  9.0671507162443561e+00  9.0486045212407280e+00  9.0547342479299022e+00  8.5413569746962974e+00  8.5554547797530027e+00  8.5342908324799858e+00  8.5167565609274938e+00  8.4915883903152398e+00  8.5296300597601107e+00  8.5070595381367760e+00  8.5282730439457879e+00  8.5475952408622575e+00  8.5664177030548032e+00  8.9362206887192670e+00  8.9449397388737726e+00  8.9459377803787810e+00  8.9219273785546065e+00  8.9050718658034551e+00  8.9284084121107803e+00  8.9292145057546541e+00  8.9537469600561863e+00  8.9515525227630857e+00  8.8129200901300440e+00  8.8038343119453479e+00  8.8023514961277431e+00  8.8067219240892474e+00  8.8097776366926208e+00  8.8078507827117676e+00  8.8006479035210603e+00  8.7984292731527596e+00  8.7963294745144935e+00  8.7943217219769583e+00  8.8001163402935081e+00  8.7753705670198485e+00  8.7924515002360906e+00  8.7883208621907016e+00  8.7770860878113268e+00  8.7548257111989223e+00  8.7682430798528266e+00  8.7808017148481454e+00  8.7836755260900148e+00  8.7877101621928766e+00  8.7850765759615683e+00  8.7858871977459554e+00  8.7861199985855833e+00  8.7844440696491315e+00  8.7845174856797446e+00  8.7866041282737779e+00  8.7855915469670904e+00  8.7859877382154359e+00  8.7867829239439121e+00  8.7871400179651076e+00  8.9459853455403398e+00  8.9385880426214914e+00  8.9327457925766982e+00  8.9467199063778278e+00  8.9512576663936745e+00  8.9482290228862400e+00  8.9343622851763342e+00  8.9519358361563004e+00  8.9553885837918887e+00  8.9212120174577851e+00  8.8108074697816878e+00  8.8287998004007164e+00  8.8256135410716237e+00  8.8118627362265922e+00  8.8387081121418998e+00  8.8274323137249215e+00  8.8240343235444101e+00  8.8373561511674890e+00  8.8428157350100935e+00  8.8144194134077125e+00  8.4566145805199184e+00  8.4410172762309656e+00  8.4849950951189683e+00  8.4374119363562130e+00  8.4182423072425117e+00  8.4214344906570044e+00  8.4620887950251298e+00  8.5089984780689285e+00  8.4677916150580756e+00  8.4256951489728422e+00  8.6751555290291620e+00  8.6721826991656954e+00  8.6831950123757231e+00  8.6889769707875040e+00  8.7092383815961032e+00  8.6937491771007966e+00  8.7026029019570608e+00  8.6865011946451602e+00  8.6076141988034713e+00  8.5919414083500474e+00  8.6118384813164042e+00  8.5911183948311916e+00  8.5881654901074995e+00  8.5977848401492736e+00  8.6212840247954787e+00  9.0009656309442381e+00  8.9918091980112269e+00  9.0000912890213218e+00  9.0065497009568620e+00  8.9978440585051604e+00  8.9915081948686613e+00  8.9949440503853353e+00  8.9877977440167101e+00  8.9770934024721587e+00  9.0144711860096951e+00  9.0167242393821141e+00  9.0372338904198735e+00  9.0437961108347995e+00  9.0200084719094313e+00  9.0313930191587559e+00  9.0482141798770073e+00  9.0610822401920093e+00  9.0238474794035071e+00  9.0460792442598095e+00  9.0684753041178947e+00  8.8983982102230037e+00  8.8701311611982376e+00  8.8562253055529609e+00  8.8914771149880547e+00  8.8749973517317517e+00  8.8776118927785923e+00  8.8707792615536203e+00  8.8459956360691105e+00  8.8842087327592498e+00  8.7040416829473095e+00  8.6966214772815640e+00  8.7087365539949708e+00  8.6978610603946223e+00  8.6866238941436968e+00  8.6986962388165256e+00  8.6865206116011020e+00  8.6981283124743918e+00  8.7083362387718832e+00  8.7773943567574886e+00  8.7473943587627883e+00  8.7402723061653695e+00  8.7692647786798101e+00  8.7453020235495433e+00  8.7243275559961990e+00  8.7229141069354252e+00  8.7375504671763853e+00  8.7158362036906158e+00  8.8710582224843932e+00  8.8370347034121490e+00  8.8590895945996042e+00  8.8604807788968820e+00  8.8381637088271479e+00  8.8036549811452733e+00  8.8262887613915151e+00  8.8526385877425948e+00  8.8552147366967766e+00  8.8565070715145886e+00  8.9480223616844583e+00  8.9502322574632966e+00  8.9379239803369064e+00  8.9399093979178996e+00  8.9587166481396299e+00  8.9655581588307367e+00  8.9521731488835581e+00  8.9300521860270194e+00  8.9301375500394400e+00  8.9331743851146790e+00  8.8127499109687619e+00  8.8247330910489978e+00  8.8061314260426666e+00  8.8094581239527567e+00  8.8235013771359689e+00  8.8145826695726548e+00  8