<?xml version="1.0"?>
<VTKFile type="UnstructuredGrid"  version="0.1"  >
<UnstructuredGrid>
<Piece  NumberOfPoints="8670" NumberOfCells="41205">
<Points>
<DataArray  type="Float64"  NumberOfComponents="3"  format="ascii">19.9579655745 33.1582866844 30.657645936  20.72347563415 33.25111864394999 31.14424228405  20.47179487735 32.515242625 30.68173060625  20.16633352205 32.67429455555 31.24998753695  21.79344 34.170017 33.869282  22.51765975665 33.39501534765 33.66969766415  22.29215025665 33.62672934765 33.20489016415  22.00687275665 33.03685134765 33.45804266415  22.0189495 33.938303 34.3340895  21.5081625 33.580139 34.1224345  22.244459 33.706589 34.798897  22.7908605133 33.0834416953 32.5404983283  18.768122 33.627831 29.720663  19.04963978725 33.7367493422 30.492142468  18.5512837609 33.76431525035 30.77278375115  19.36304378725 33.3930588422 30.189154468  18.454718 33.9715215 30.023651  18.141314 34.315212 30.326639  18.2378797609 34.10800575035 31.07577175115  19.14620554815 33.52954309255 31.24127521915  18.3344455218 33.9007995007 31.8249045023  19.9138077839 31.7503835573 29.9296380428  19.9358866792 32.45433512085 30.2936419894  20.14425462675 31.970342992 30.88598359035  19.0152806925 31.9023276538 31.1749440584  18.67486310715 32.90156357725 31.49992428035  19.4866231335 32.5303071691 30.9162949972  19.3545734957 33.0455509637 31.8336168201  19.78351178725 33.3934973422 31.952359968  21.5198320785 32.9156384492 30.0797677444  20.3297035638 33.29529064134999 29.49804139955  20.3076246685 32.5913390778 29.13403745295  21.1106368158 33.17396652375 29.20910230375  20.7168199312 32.33301100325 30.0047028936  20.7388988265 33.0369625668 30.3687068402  20.7014415531 33.4322945983 28.3384368631  20.759281 33.738792 33.194897  20.7826653469 34.01969280175 32.01282981605  20.2255232348 33.44286871335 32.11857506895  21.1241333469 33.54137130175 32.41286781605  20.417813 34.2171135 32.794859  20.076345 34.695435 32.394821  21.4889856938 33.3439506035 31.6308386321  22.879482 31.340076 26.769836  22.77727257985 31.3136298957 27.89504703745  22.342329 31.5885065 26.88881  21.886575 31.128745 27.0319365  21.805176 31.836937 27.007784  18.674032 32.656208 29.87434  18.2820635 33.2707215 30.014164  18.5042387609 33.27850375035 30.84962225115  18.2350185 32.78491 30.0910025  18.721077 33.1420195 29.7975015  17.796005 32.913612 30.307665  18.0652252609 33.40720575035 31.06628475115  19.31599878725 32.90724734219999 30.265992968  17.9686595 33.614412 30.317152  23.1958431753 32.64408295805 33.95570386750001  22.425742839 32.7005787791 34.45472318145  23.0145593363 33.65009317895 34.29987768605  23.7846596726 33.5935973579 33.8008583721  23.28776009295 33.3385195266 33.17067835020001  18.40564284625 32.4079698269 30.7413045292  18.84465634625 32.2792678269 30.5246420292  24.982359 31.915747 30.166037  23.7860432914 31.74441179875 30.5763621173  24.6395845 32.5841265 30.432336  24.6632425 32.0245355 30.883714  24.344126 32.133324 31.601391  23.4432687914 32.41279129874999 30.8426611173  24.320468 32.692915 31.150013  24.29681 33.252506 30.698635  22.656057 32.810318 35.268158  22.450258 33.2584535 35.0335275  23.2203583363 33.20195767895 34.53450818605  21.4001553469 34.13193630175 32.16788981605  22.05109275665 34.00168184765 32.62271966415  21.035303 34.329357 32.94991899999999  21.77507075665 33.41111684765 32.86769766415  21.311325 34.919922 32.704941  22.13992310355 33.2136961494 32.0856684802  18.402687 31.834242 29.761986  18.70898384625 31.8682848269 30.4684650292  18.5383595 32.245225 29.818163  18.099346 32.373927 30.0348255  19.965324 30.949697 27.112492  20.2514920537 31.8344933451 27.9635273751  19.9493815 31.9413545 27.2284965  19.6672055 31.3628165 27.2882005  20.2475 31.528235 27.052788  20.529676 32.106773 26.993084  19.369087 31.775936 27.463909  19.2053952609 34.29811725035 32.10986275115  20.01715528725 33.9268608422 31.526233468  18.959457 32.368187 28.916643  19.29391989195 32.20329577865 29.9019890214  19.45871128725 32.7632368422 29.787144468  19.43663239195 32.05928527865 29.4231405214  18.8167445 32.5121975 29.3954915  21.5523825 34.5449695 33.28711149999999  21.2763605 33.9544045 33.5320895  23.54383525665 33.16797384765 31.61956666415  23.56749325665 32.60838284765001 32.07094466415001  24.346611 32.815241 31.8274575  24.322953 33.374832 31.3760795  24.349096 33.497158 32.053524  23.56997825665 33.29029984765 32.29701116415001  19.8427015 34.1620715 32.8209475  20.1841695 33.68375 33.2209855  19.609058 33.628708 33.247074  20.0466770537 32.1306188451 28.6898943751  19.83044927655 32.90024079915 28.62753993155  20.91766933025 32.66267264424999 28.40079130665  21.1338971074 31.8930506902 28.4631457502  20.693835 34.8076785 32.549881  19.15824739195 31.79231277865 29.8458120214  18.681072 32.1012145 29.3393145  18.8637895 32.998009 29.318653  19.4645442382 31.82635560555 30.5522910506  21.32686459295 32.4043445697 29.2714567473  21.4695365537 31.8649938451 27.7354648751  21.167426 31.971855 27.000434  21.0119215537 31.3338323451 27.7985873751  21.347561 31.3057755 27.0709065  20.8317865537 31.9999118451 27.7281148751  23.76840575665 32.72480934765 32.62720166415  17.95389591215 32.83066691175 31.6225565649  26.264519 37.733612 23.759109  26.56177255485 37.88189659895 22.7986458213  26.1889477426 38.3679798938 23.13129975875  26.7158185 37.7222425 23.4594895  27.167118 37.710873 23.15987  27.01307205485 37.87052709895 22.4990263213  26.6402472426 38.3566103938 22.83168025875  26.1133764852 39.0023477876 22.5034905175  26.48620129745 38.51626449275 22.17083658005  26.8590261097 38.0301811979 21.8381826426  27.1506273651 38.92540404 20.8099411438  27.8885681688 38.2903366955 20.72329974335  27.68810696195 38.49632897985 21.3972144085  27.20528794425 38.2718003346 20.65014722805  27.83390758965 38.9439404009 20.8830936591  27.05948731655 37.82418891355 21.16426797745  27.0048267374 38.47779261895 21.3240618932  28.5171878142 38.9624767618 20.9562461744  27.2599485234 37.6181966292 20.4903533123  30.973867 39.110352 18.112497  29.47143000625 38.9328741569 17.9777443441  30.1516612403 38.98438708465 18.55117283  30.3859407403 38.54167458465 18.23126283  30.05935626595 39.50155157224999 17.8589785141  30.7395875 39.5530645 18.432407  30.505308 39.995777 18.752317  29.82507676595 39.94426407224999 18.1788885141  29.1448455319 39.8927511445 17.6054600282  29.7980144806 37.9729971693 18.35002866  21.276754 45.177448 15.680842  21.5805695 45.3687915 15.937452  21.687639 45.838724 15.945018  21.219119 45.838724 15.999434  21.161484 46.5 16.318026  21.5229345 46.0300675 16.256044  21.630004 46.5 16.26361  22.098524 46.5 16.209194  21.9914545 46.0300675 16.201628  21.884385 45.560135 16.194062  28.563322 39.876286 23.127039  28.4510756098 39.9918210514 21.9172887175  28.1708086098 39.6568050514 22.5642642175  27.81114944535 40.6154363096 22.7130151771  28.843589 40.211302 22.4800635  29.123856 40.546318 21.833088  28.09141644535 40.9504523096 22.0660396771  27.0589768907 41.3545866192 22.2989913542  27.41863605515 40.395955361 22.1502403946  27.7782952196 39.4373241028 22.001489435  23.298845 40.167652 17.019764  24.3789381854 40.3599045373 17.6643245198  24.07395019925 39.7285106995 17.4066152619  23.7867346854 40.1983730373 17.7907790198  23.8910485 40.3291835 16.8933095  24.483252 40.490715 16.766855  24.66615369925 39.8900421995 17.2801607619  24.2746243708 40.2290940746 18.5617940396  24.56183988465 39.7592317368 18.1776302817  24.8490553985 39.289369399 17.7934665238  26.2909371201 39.9611850177 17.3292855165  26.83506296125 38.99785639025 17.24527875945  26.0382934234 38.963694073 17.2840016918  26.59284472275 39.6067862133 16.8926045906  26.5331553586 39.35225519465 17.68195968535  26.09798278755 39.21822509165 16.49464659705  25.7960751849 39.57262389605 16.93132752295  25.3012132497 39.1840627744 16.5333695294  26.7753735971 38.7433253716 18.0346338542  26.8947523254 39.2523874089 16.4559236647  26.622124 35.138287 20.182306  25.7695737508 35.96184273015 20.57697961825  26.00264245955 35.5724733307 21.16976301135  26.4364455363 36.0654476426 20.6576825524  26.2507670726 36.9926082852 21.1330591048  25.5838952871 36.88900337275 21.05235617065  25.81696399585 36.4996339733 21.64513956375  25.3831609191 36.0066596614 22.1572200227  25.15009221035 36.39602906085 21.5644366296  24.9170235016 36.7853984603 20.9716532365  25.451647 35.64061 18.481718  26.13641540895 36.70849677095001 18.3431942483  26.269704 36.079962 17.9248235  25.6244145 35.87393400000001 17.9243745  25.49112590895 36.50246877095 18.3427452483  26.0969365 35.846638 18.482167  26.742226 36.052666 18.482616  25.797182 36.107258 17.367031  25.66389340895 36.73579277095 17.7854017483  25.5306048179 37.3643275419 18.2037724966  26.4309615 35.4262755 19.814169  26.239799 35.714264 19.446032  25.5784112508 36.24983123015 20.20884261825  26.2452830363 36.3534361426 20.2895455524  30.046993 42.09684 14.861581  29.08767751485 41.8788628194 15.4603494715  29.7325129427 41.48787933595 15.27084443855  29.5554930968 42.2131685154 15.75377762885  29.40215757215 42.48782348345 15.05108603295  29.0639931936 42.3294970308 16.6459742577  29.2410130395 41.60420785135 16.1630410674  28.91065766895 42.60415199885 15.9432826618  28.7573221443 42.8788069669 15.2405910659  29.4180328854 40.8789186719 15.6801078771  25.6617261808 42.195124247 24.8265862878  26.2173508324 42.38918578175 23.80354207855  25.8873371254 41.80282630375 24.1868828911  25.547384047 42.395928394 23.72040271905  25.4330419132 42.596732541 22.6142191503  26.1030086986 42.58998992875 22.6973585098  25.7729949916 42.00363045075 23.08069932235  26.11294807 41.4105283605 23.5471794944  26.442961777 41.9968878385 23.16383868185  26.772975484 42.5832473165 22.7804978693  27.6691110626 41.108149042 19.5089686508  28.06656684935 41.70612917655 18.8425614909  27.4880930889 41.7881349696 19.29763639345  28.2201281154 41.7254272112 19.2961706104  28.24758482305 41.02614324895 19.05389374825  28.7711
[...]
<PointData  Scalars="p"> 
<DataArray  type="Float64"  Name="p"  format="ascii">9.0855867290094547e+00  9.0704735412318360e+00  9.0745830536216729e+00  9.0809461603227124e+00  9.0086011833187420e+00  9.0000515831424259e+00  9.0122044252807214e+00  9.0198927547557393e+00  8.9962605158987650e+00  9.0192269096097561e+00  8.9848712382458018e+00  9.0128239771088960e+00  9.0989024391924040e+00  9.1051424331225341e+00  9.1193491624789651e+00  9.0948571005743464e+00  9.1121853696791906e+00  9.1280435633043986e+00  9.1334340204178037e+00  9.1074875071241390e+00  9.1355245557418563e+00  9.0820138269662110e+00  9.0832493466976612e+00  9.0797209636033536e+00  9.1018268210215094e+00  9.1160910233723822e+00  9.0937290945805493e+00  9.1021741444952458e+00  9.0932016862286638e+00  9.0586232704645013e+00  9.0765228154118720e+00  9.0751756625294622e+00  9.0657534534236071e+00  9.0703647529304945e+00  9.0707649751248542e+00  9.0706222622695449e+00  9.0575642370714284e+00  9.0669465167933598e+00  9.0813321453574503e+00  9.0544360791890011e+00  9.0737594601158378e+00  9.0913705317111280e+00  9.0517550052706763e+00  9.0424487772775635e+00  9.0465692165850271e+00  9.0489768618543032e+00  9.0553449357098756e+00  9.0559678430927697e+00  9.1005219158093631e+00  9.1130637696474661e+00  9.1178434186854798e+00  9.1135128410640380e+00  9.0997589681246094e+00  9.1267019542240817e+00  9.1315190960221013e+00  9.0945713800378325e+00  9.1263479798603733e+00  8.9807651192670033e+00  8.9962011119010032e+00  8.9741769706465249e+00  8.9624097014393040e+00  8.9887885160950027e+00  9.1141172498672898e+00  9.1032296551082332e+00  9.0287954061780411e+00  9.0283344539701211e+00  9.0293004742025449e+00  9.0236448744481503e+00  9.0105978111613716e+00  9.0287498365371448e+00  9.0202857258372351e+00  9.0274889808709986e+00  8.9751510026259922e+00  8.9802297581855903e+00  8.9675195607231721e+00  9.0485677590511298e+00  9.0259319651013392e+00  9.0480350808902319e+00  9.0319445695244998e+00  9.0417916238727791e+00  9.0332875887542325e+00  9.1033673463917815e+00  9.1041251589571974e+00  9.1014840690646821e+00  9.1144199376973347e+00  9.0800918038817713e+00  9.0745408049054834e+00  9.0759431601571539e+00  9.0805037484375557e+00  9.0741129366701898e+00  9.0710740884015468e+00  9.0800511735128229e+00  9.1170133298015035e+00  9.0889060339170022e+00  9.0855818775010722e+00  9.0909826156147648e+00  9.0885439909403196e+00  9.0862265953358250e+00  9.0909245730252444e+00  9.0234708159075989e+00  9.0318186589411393e+00  9.0153639779055244e+00  9.0068497016046614e+00  9.0024203933313025e+00  9.0145933362773096e+00  8.9908747850837223e+00  9.0001684264410269e+00  9.0975570937294048e+00  9.0808447448184602e+00  9.1032695683717808e+00  9.0771385143933596e+00  9.0788447671623711e+00  9.0675129458424664e+00  9.0650533001490494e+00  9.0655210024078237e+00  9.0925532917342125e+00  9.0924672271370195e+00  9.0895830727415277e+00  9.0910015926974506e+00  9.0623793363526932e+00  9.0609485371958360e+00  9.0641618196850615e+00  9.0668638604787901e+00  9.0623759702092954e+00  9.0682138084012074e+00  8.9901385734733363e+00  9.1333936104241804e+00  9.0031712143961364e+00  8.9885271349140261e+00  8.9996392740525319e+00  8.9929294828326576e+00  8.9821970362767889e+00  8.9787357333762685e+00  8.9914895764857974e+00  8.9992220643237726e+00  8.9889261423190128e+00  8.9767846701252338e+00  8.9741197715995362e+00  8.9535293605174573e+00  8.9651571219969313e+00  8.9651699130806417e+00  8.9646296083553008e+00  8.9663333761676309e+00  8.9750560528579566e+00  8.9548813646505678e+00  8.9559207904333054e+00  8.9044085066872363e+00  8.9234655866872394e+00  8.9134948375124541e+00  8.8970796402123558e+00  8.9270524466069858e+00  8.9209446919748103e+00  8.9360835937969494e+00  8.9401343078503963e+00  8.9455275397779186e+00  8.8949947861574916e+00  9.1501253216308172e+00  9.1371826145915520e+00  9.1292942847926959e+00  9.1495469401237663e+00  9.1450136906094475e+00  9.1303229040332443e+00  9.1238664529772517e+00  9.1086302544839661e+00  9.1145235616195848e+00  9.1197292745991252e+00  8.9914271018951624e+00  8.9803005021014872e+00  8.9848480359466105e+00  8.9976355908852792e+00  8.9873274011589963e+00  8.9839658327046514e+00  8.9944559998004898e+00  9.0047788871749095e+00  8.9946793213624847e+00  8.9807257110877909e+00  9.0114807428556691e+00  9.0061283466345579e+00  9.0049064599783684e+00  9.0115725008487644e+00  9.0072678069773211e+00  9.0002473146389015e+00  8.9988392622502893e+00  9.0099706080669879e+00  9.0029418804030872e+00  8.9965233625466965e+00  8.9808871755822501e+00  8.9665202774522026e+00  8.9782832332248024e+00  8.9734797230443117e+00  8.9746404144359992e+00  8.9767408090054861e+00  8.9832934333324204e+00  8.9866956154388618e+00  8.9671582891396309e+00  8.9660927761730349e+00  8.9538423509421232e+00  8.9800397573595347e+00  8.9741056997748743e+00  8.9635208436797384e+00  8.9745272072005395e+00  8.9858798873213210e+00  8.9825217384343201e+00  8.9905564490173937e+00  8.9929156316929308e+00  8.9958715120742472e+00  8.9975075671789231e+00  8.9708140024509753e+00  8.9674324723359362e+00  8.9903133836100650e+00  8.9873233753057100e+00  8.9760368802668946e+00  8.9513071100235742e+00  8.9816554315418795e+00  8.9820291607003675e+00  8.9839639779091520e+00  8.9635381478123755e+00  8.9704522928257564e+00  8.9844691042689195e+00  8.9688817627293744e+00  8.9663111796042632e+00  8.9678135446126284e+00  8.9594893016523010e+00  8.9701105130442755e+00  8.9721180655324648e+00  8.9753065686833260e+00  8.9654891468123861e+00  8.9763699109527817e+00  8.9772285136074625e+00  8.9540718713447678e+00  9.0219174783183185e+00  9.0183448748975348e+00  9.0197828357463727e+00  9.0238242127050423e+00  9.0243477569231967e+00  9.0186284769500027e+00  9.0199580217290265e+00  9.0161167909720223e+00  9.0147909121944920e+00  9.0138158229029006e+00  8.9841844341646961e+00  8.9836786587674293e+00  8.9910245171248349e+00  8.9847846308209505e+00  8.9759276615757368e+00  8.9862197817046567e+00  8.9910105751825391e+00  8.9778715299474783e+00  8.9678947594795630e+00  8.9968031507503330e+00  8.9865670315289865e+00  8.9871511998504605e+00  8.9987538236812306e+00  8.9971917394124610e+00  8.9377780928775152e+00  8.9272372702304050e+00  8.9400364696115489e+00  8.9185492453592019e+00  8.8977935331486062e+00  8.9073457722970311e+00  8.9229167074508435e+00  8.9428825773510603e+00  8.9303817450692478e+00  8.9175727172633348e+00  9.0797514897260516e+00  9.0877392791332277e+00  9.0767444722398061e+00  9.0867552993391829e+00  9.0896795845050722e+00  9.0918860270658524e+00  9.0815127115616825e+00  9.0728380343018511e+00  9.0840921121711204e+00  9.0951150662419664e+00  8.9837980944424629e+00  8.9792574731737282e+00  8.9831585743851274e+00  8.9842537752256320e+00  8.9792166631598302e+00  8.9823695630982119e+00  9.0333977687838303e+00  9.0391628841246927e+00  9.0310926362019490e+00  9.0356685388996656e+00  9.0378153610559195e+00  9.0418137290342102e+00  9.0326249213658976e+00  9.0273580875126740e+00  9.0363898285074935e+00  9.0455136564398710e+00  9.0170534132964573e+00  9.0133972545932011e+00  9.0172822561688175e+00  9.0138758897089222e+00  9.0168264121314223e+00  9.0161926256026259e+00  9.0164973497925054e+00  9.0058858381393883e+00  9.0101320329252150e+00  9.0152912924763093e+00  9.0095200708894403e+00  9.0046275172420582e+00  9.0030584072359545e+00  9.0106953834410959e+00  9.0105225201776875e+00  9.0058394115908360e+00  9.0068608019943301e+00  9.0018094199733873e+00  8.7753971524201138e+00  8.7429758507786488e+00  8.7733511931474641e+00  8.7484847034612052e+00  8.7396053449225128e+00  8.6971075433005787e+00  8.7181237660408346e+00  8.7399366524307318e+00  8.7541854173771032e+00  8.7722007324747135e+00  8.9836830512524415e+00  8.9880862282681395e+00  8.9837983876680578e+00  8.9867178687348588e+00  8.9875961147827574e+00  8.9923995521160052e+00  9.0026931530538707e+00  9.0107146696921632e+00  9.0119535085523950e+00  9.0051683371945739e+00  9.0017839867175784e+00  9.0002659812401173e+00  9.0128408959213235e+00  9.0036966625946100e+00  9.0058710337903474e+00  9.0216902646599486e+00  9.0119602960677394e+00  9.0057730038196535e+00  9.0124009871853339e+00  9.0094045973248686e+00  9.0085904810632407e+00  9.0153218660829637e+00  9.0194372700433458e+00  9.0113686244940947e+00  9.0046563606510315e+00  8.9729309946483600e+00  8.9685562320273746e+00  8.9814300921143015e+00  8.9782707823241275e+00  8.9882055300944153e+00  8.9768088724125406e+00  8.9850720425500334e+00  8.9828570150263154e+00  8.9636886687311161e+00  9.0069298018911770e+00  9.0075875643354379e+00  9.0081366742938211e+00  9.0068488235840185e+00  9.0068465593411506e+00  9.0071175717301362e+00  9.0078221746649554e+00  9.0085841991159992e+00  9.0083383896632707e+00  9.0076319239631957e+00  8.7033805739007342e+00  8.7233749589591572e+00  8.6796701438525332e+00  8.6938267402247167e+00  8.7385609529320636e+00  8.7298646424400594e+00  8.6881850251670532e+00  8.6818491956334078e+00  8.6718693639331299e+00  8.9969061118522724e+00  9.0032344926338688e+00  8.9943112445409970e+00  8.9894843826418445e+00  8.9928749358968680e+00  8.9976861162598212e+00  9.0073850954140795e+00  9.0001028593340191e+00  8.9937994800094074e+00  8.9752763911310414e+00  8.9851833773842920e+00  8.9805956139669743e+00  8.9835619743340285e+00  8.9810671046602124e+00  8.9866133305655751e+00  8.9881054068803152e+00  8.9892055590684699e+00  8.9865739089982615e+00  8.9848149954606669e+00  9.0117916740655772e+00  9.0088845490255505e+00  9.0164002959636615e+00  9.0100155156569866e+00  9.0100673931990301e+00  9.0088838281378987e+00  9.0146193530922574e+00  9.0084555974113325e+00  9.0142067898257423e+00  9.0197028669570969e+00  9.0990037692004062e+00  9.1046033363568348e+00  9.1032708781976819e+00  9.0950831370541962e+00  9.1003449989935419e+00  9.1024303716508133e+00  9.0969423261785387e+00  9.0983039605347145e+00  9.1063721553934567e+00  9.0053222950889236e+00  9.0051023564597816e+00  9.0037053086574552e+00  9.0040097795835745e+00  9.0033686408590228e+00  9.0044738680490060e+00  9.0028169402851841e+00  9.0015248520339650e+00  9.0034741205604192e+00  9.0052660818145700e+00  8.8104134336384572e+00  8.8207492807717855e+00  8.8268588138452024e+00  8.8320629014044592e+00  8.8058730140403085e+00  8.8015793552317785e+00  8.8005555442064356e+00  8.7960826637760690e+00  8.8512985365603463e+00  8.7945186691330068e+00  8.9802852519455438e+00  8.8964172579931251e+00  8.9252344667964625e+00  8.9250197462862424e+00  8.9023441452783967e+00  8.9245163306273927e+00  8.9459808172776842e+00  8.9073163517159042e+00  8.9273207544282318e+00  8.9452511935235481e+00  8.6144697275283217e+00  8.6098569465169117e+00  8.5966094852216841e+00  8.6216484940828906e+00  8.6272581376503261e+00  8.6201681588705057e+00  8.6114268691566487e+00  8.6426786016546480e+00  8.6406715977157020e+00  8.6365992279045560e+00  8.6585746286012455e+00  8.6468156686635620e+00  8.6496869327860644e+00  8.6646130647543878e+00  8.6784017515727054e+00  8.6578646302126252e+00  8.6353256990000631e+00  8.9891643893238786e+00  8.9737206992250744e+00  8.9671843128324973e+00  8.9852551246563088e+00  8.9786671975839241e+00  8.9797141164769414e+00  8.9684412198770964e+00  8.9761297915204050e+00  8.9781742577560095e+00  8.9803753949609693e+00  8.9770140917864421e+00  8.9796174595721450e+00  8.9766587116659036e+00  8.9781485066911060e+00  8.9772749151323943e+00  8.9787917061766542e+00  8.9812935080198013e+00  8.9933943697260670e+00  9.0006966841821310e+00  8.9986379696039798e+00  8.9937543983501893e+00  8.7924475087047753e+00  8.7727762027703697e+00  8.7841784091117656e+00  8.7676000777495062e+00  8.7807221350888867e+00  8.7711509865666475e+00  8.7572612041402174e+00  8.7412185227829298e+00  8.7579473246722106e+00  8.7750448663988383e+00  8.7227737162429051e+00  8.7180154533431722e+00  8.7086692725056611e+00  8.7486733402910470e+00  8.7376821756682723e+00  8.6974930490265177e+00  8.7094241637256822e+00  8.9984644049960867e+00  9.0041322581280383e+00  9.0032708710935871e+00  8.9996724109925950e+00  9.0087108506777795e+00  9.0054017606336956e+00  9.0044191956669426e+00  9.0090852035957347e+00  8.7351844415890323e+00  8.7282442570142607e+00  8.7363711538383928e+00  8.7393445294432013e+00  8.7389260504711945e+00  8.7295174559726085e+00  8.7316994931135721e+00  8.7233142682723663e+00  8.7188906784899132e+00  9.0198694465057390e+00  9.0196979578722409e+00  9.0223542070492790e+00  9.0137256090943723e+00  9.0171354647011039e+00  9.0071914596867266e+00  9.0167982775262008e+00  9.0102119810359103e+00  9.0137058869367479e+00  9.0253206401091930e+00  8.8466530348572761e+00  8.8097547595774213e+00  8.8211060840367743e+00  8.8333020612633408e+00  8.8182451048419885e+00  8.7945200113882560e+00  8.8062776202874637e+00  8.7824204502930900e+00  8.7714036514262173e+00  8.9979539562264126e+00  9.0083691858151180e+00  8.9977729600531280e+00  9.0053067322168161e+00  9.0025904727885848e+00  9.0011024130958504e+00  8.7855064548007373e+00  8.8118924869209216e+00  8.8015066612381094e+00  8.8088996008312037e+00  8.8299635788923290e+00  8.8348297752499985e+00  8.8236801716658295e+00  8.8161143420112662e+00  8.8283528650755194e+00  8.8427356429311068e+00  9.0285306230713633e+00  9.0330966356351539e+00  9.0342480108702450e+00  9.0390251318243795e+00  9.0501128477193742e+00  9.0423747351070762e+00  9.0455031726936816e+00  9.0409072610732544e+00  9.0387183201393224e+00  9.0341847784606397e+00  8.9557711487948204e+00  8.9542424521155173e+00  8.9605332518241330e+00  8.9470417620056608e+00  8.9371966236871803e+00  8.9591614109974831e+00  8.9455095706268057e+00  8.9527763696679337e+00  8.9657035697043401e+00  9.0121260776338961e+00  9.0161970188592715e+00  9.0135210181483085e+00  9.0111663493011740e+00  9.0170008557199015e+00  9.0239185935829607e+00  9.0191910302142997e+00  8.6870202279466859e+00  8.7072129703780821e+00  8.6795790510250139e+00  8.6990836767561355e+00  8.7153170808986111e+00  8.7098788977718442e+00  8.7244669356856086e+00  8.6954650486499112e+00  8.6837401211812786e+00  8.7290516020806184e+00  9.0880457611788703e+00  9.0779668002827059e+00  9.0846360476281944e+00  9.0885719902839828e+00  9.0824484788296385e+00  9.0839859429103491e+00  9.0797171730385333e+00  9.0877492339553587e+00  9.0814431337720301e+00  9.0764846233640633e+00  8.7643847596766218e+00  8.7387689809280449e+00  8.7578297301979635e+00  8.7590881539973449e+00  8.7573136869877093e+00  8.7349946898977961e+00  8.7539007816890351e+00  8.7252063468871590e+00  9.0676611610928166e+00  9.0724584613992239e+00  9.0676246782426553e+00  9.0731539335224980e+00  9.0737936334851543e+00  9.0669076141095779e+00  9.0716420975273770e+00  8.9782583427999558e+00  8.9825024667543598e+00  8.9849780701304436e+00  8.9691690229528085e+00  8.9616373353706873e+00  8.9955104621172790e+00  9.0231828586738647e+00  9.0253576484410480e+00  9.0285292075659012e+00  9.0299012733301058e+00  9.0236090607983286e+00  9.0216470501987818e+00  9.0182776066508268e+00  9.0847909074161848e+00  9.0763668709984540e+00  9.0687957249488651e+00  9.0773127893114243e+00  9.0699176971369901e+00  9.0630629368393940e+00  9.0544792466168147e+00  9.0612726696825021e+00  9.0670623507324990e+00  9.1036463938596803e+00  9.1113033326201638e+00  9.1150591854752996e+00  9.1047741504592086e+00  9.1059838025617115e+00  9.1110553669949681e+00  9.1139129937324626e+00  9.1206545536511250e+00  9.1199356883823928e+00  9.1165446925459328e+00  9.0119443339859853e+00  9.0141339694532014e+00  9.0116851683736119e+00  9.0135267727891009e+00  9.0104895768978448e+00  9.0123469465852217e+00  9.0159596458930267e+00  9.0148557122902577e+00  9.0112820105851288e+00  8.9830788161989208e+00  8.9665888540645646e+00  8.9722345215399066e+00  8.9600720628815189e+00  8.9797722633217258e+00  8.9876223449302444e+00  8.9581625688773929e+00  8.9220955252012608e+00  8.9417053734368466e+00  8.9559468619995197e+00  8.9270514147122597e+00  8.9128302296732134e+00  8.9234312892755572e+00  8.8864328714538949e+00  8.9163022682689590e+00  8.8384922526230927e+00  8.8837720158023572e+00  8.8763031528760781e+00  8.9219422725197646e+00  8.9857939878444792e+00  8.9853954740901276e+00  8.9859912476435149e+00  8.9854358627482860e+00  8.9845910692888094e+00  8.9843878500216210e+00  8.9850335959177947e+00  8.9856213992772158e+00  8.9849297195376323e+00  8.9843767731391839e+00  9.1331141671727636e+00  9.1488590493259334e+00  9.1463582674645245e+00  9.1449655112227202e+00  8.5969403300485308e+00  8.5953570751145971e+00  8.6028573707686800e+00  8.6264269458613327e+00  8.5857430774364367e+00  8.6612719654859074e+00  8.6299708525239165e+00  8.6144885894571619e+00  8.5766543479456896e+00  8.6061860239461279e+00  9.1665037932626241e+00  9.1685219375699241e+00  9.1890510539372237e+00  9.1649405791205432e+00  9.1407381438705873e+00  9.1722437799475163e+00  9.1434521668173545e+00  9.1625136091055133e+00  9.1496534979547928e+00  9.1877202292197353e+00  9.1564306023046296e+00  9.1522674128700334e+00  9.0251535903808495e+00  9.0198936146702007e+00  9.0271022209995291e+00  9.0267825777682038e+00  9.0200235622789631e+00  9.0140743563492443e+00  9.0206582217188753e+00  9.0283016792478978e+00  9.0290859753078809e+00  8.9829412549392025e+00  8.9839907921173037e+00  8.9834867423913707e+00  8.9822666055813905e+00  8.9829472134235964e+00  8.9829936165233182e+00  8.9825797196561741e+00  8.9820276681936821e+00  8.9833421022361541e+00  9.0180497018500603e+00  9.0163377435313894e+00  9.0164659943147072e+00  9.0183999442882516e+00  9.0160016305261816e+00  9.0164030825902888e+00  9.0170251388840281e+00  9.0141822191442742e+00  9.0157237739721552e+00  9.0182697535860932e+00  8.9345225885923405e+00  8.9511643841120954e+00  8.9455500789843558e+00  8.9264631040275262e+00  8.9589891475763643e+00  8.9422195185583853e+00  8.5981745589810625e+00  8.6220874978493551e+00  8.6184240883548089e+00  8.6238090423960170e+00  8.6095080409479632e+00  8.6284366051012622e+00  9.0120275269817292e+00  9.0160621004637029e+00  9.0148959070990440e+00  9.0154903089264273e+00  8.8761094478366793e+00  8.8800783765071074e+00  8.8679908620519861e+00  8.9000079800121643e+00  8.9228844217924284e+00  8.8725156328616333e+00  8.9038581341053717e+00  8.8936830336437005e+00  8.8616875892389153e+00  8.8850585992297244e+00  9.0038977963224127e+00  8.9996422350575074e+00  8.9994214934709422e+00  9.0073680197335531e+00  8.9959210043875188e+00  9.0039418261094806e+00  8.9954562089510439e+00  8.9840785715612768e+00  8.9871597186549739e+00  8.9831137114081692e+00  8.9873021314159018e+00  8.9781088611120392e+00  8.9756296773383326e+00  8.9884357341827581e+00  8.9847340601306591e+00  8.9865766819585264e+00  8.9853590942063963e+00  8.9863880056046348e+00  8.9842564664837585e+00  8.9833128061697067e+00  9.0224281532186410e+00  9.0232294636790797e+00  9.0209838089762577e+00  9.0193103925863127e+00  9.0248449903835954e+00  9.0164858049662548e+00  9.0182442851708089e+00  9.0210556957978021e+00  9.0265155662291416e+00  8.8604785509797317e+00  8.8750436427244104e+00  8.8692777983183344e+00  8.8874709114783208e+00  8.8782132589527780e+00  8.8911689193647927e+00  8.8966861054702040e+00  8.8854054224379375e+00  8.8728527039260499e+00  9.0249581648448167e+00  9.0295467591810130e+00  9.0285008061816097e+00  9.0046841188908946e+00  9.0062299312219718e+00  9.0060893709615062e+00  9.0056893532659270e+00  9.0043881958224627e+00  9.0050082454407825e+00  9.0051771804924776e+00  9.0048588301619787e+00  8.9243244985072039e+00  8.9358340962751139e+00  8.9509665493900545e+00  8.9387053997286490e+00  8.9599031179752835e+00  8.9570917265157224e+00  9.0067124089803716e+00  9.0076532643989076e+00  9.0021895516395514e+00  9.0107507553520261e+00  9.0143435385326995e+00  9.0236464595759376e+00  9.0170520727005776e+00  9.0112696452739520e+00  9.0047311521593230e+00  8.9983530985209832e+00  9.0080998065199314e+00  9.0168638956237270e+00  9.0178428931413261e+00  9.0185968699240320e+00  9.0289819471100667e+00  9.0268099639330330e+00  9.0285328846587998e+00  9.0276176454117252e+00  9