<?xml version="1.0"?>
<VTKFile type="UnstructuredGrid"  version="0.1"  >
<UnstructuredGrid>
<Piece  NumberOfPoints="8844" NumberOfCells="40297">
<Points>
<DataArray  type="Float64"  NumberOfComponents="3"  format="ascii">42.43528 24.103226 17.526066  42.6980688444 25.2510359275 17.1146948983  42.2321343444 24.6706099275 17.1171708983  41.912044449 25.0824984936 17.62538163285  42.90121449999999 24.683652 17.52359  43.367149 25.264078 17.521114  42.377978949 25.6629244936 17.62290563285  41.388808898 26.0617709872 17.7246972657  41.7088987934 25.6498824211 17.21648653115  42.0289886888 25.237993855 16.7082757966  37.157112 29.855604 18.937696  36.5727518237 29.7826748611 19.36178001315  35.99290501314999 30.25387646985 19.42403247495  36.6203288237 29.3749883611 19.14506301315  37.10953499999999 30.2632905 19.154413  36.04048201315 29.84618996985 19.20731547495  37.061958 30.670977 19.37113  34.9238520263 29.8367759397 19.4769349499  35.50369883685 29.36557433095 19.4146824881  36.0835456474 28.8943727222 19.3524300263  35.7809725294 27.0051996836 16.6609797979  36.27049366735 27.9596331671 17.02965622915  36.9028922414 27.33182441915 17.538980125  36.22062466195 27.57691256045 16.4956503527  35.8308415348 27.38792029025 17.19498567435  36.853023236 26.9491038125 17.00497424855  37.9250739426 26.8930079414 17.3489686992  37.29267536855 27.52081668935 16.83964480335  35.8807105402 27.7706408969 17.7289915508  36.6602767945 28.1486254373 16.3303209075  34.9120751661 28.5782216727 16.0773624326  35.39639285315 28.1744312848 16.9031769917  35.4512200802 28.79868887145 16.69965623805  34.79003394405 28.151386605 17.15992993255  34.667992722 27.7245515373 18.2424974325  35.2743516311 27.7475962171 17.98574449165  35.32917885815 28.37185380375 17.782223738  35.9903649943 29.0191560702 17.3219500435  35.93553776725 28.39489848355 17.52547079715  36.16666916465 30.64376080055 20.00676485555  36.6183908373 30.0815864442 20.04785405785  35.0976161778 30.2266602704 20.0596673305  35.54933785045 29.66448591405 20.1007565328  36.1748236746 29.4921958884 20.7245781157  35.72310200195 30.05437024475 20.6834889134  35.2713803293 30.6165446011 20.6423997111  34.3568360988 27.251789773 16.4408039394  35.1187733195 27.51121533495 17.0848977451  34.644191101 26.84155647245 17.05550820115  34.5124144104 27.48817065515 17.34165068595  35.4061283217 27.1009820344 17.69960200685  34.7997694126 27.0779373546 17.9563549477  34.9315461032 26.4313231719 17.6702124629  32.806652 29.413036 18.323826  34.01436021385 29.50588778875 18.8760625344  34.0045915345 30.0860631516 18.4750777707  33.18606260325 30.07822549045 18.68179949485  33.1958312826 29.4980501276 19.08278425855  33.62518093125 29.42087366115 18.11710427585  34.4437098625 29.4287113223 17.9103825517  33.5654732065 30.7434149809 19.0397729897  33.57524188585001 30.16323961805 19.4407577534  33.5850105652 29.5830642552 19.8417425171  34.42819544725 30.09980442815 20.2420711141  34.4184267679 30.679979791 19.8410863504  34.25443129575 29.70992009745 19.6593387335  34.2446626164 30.2900954603 19.2583539698  36.182068 31.935305 18.126303  35.73096172345 31.56021637845 17.2851343295  36.453005 31.6997835 17.0052365  36.169245 32.16834 17.5244285  36.465828 31.4667485 17.607111  35.74378472345001 31.32718137845 17.8870088295  36.749588 30.998192 17.087919  36.02754472345001 30.85862487845 17.3678168295  36.156422 32.401375 16.922554  35.3055014469 30.7190577569 17.647714659  34.2212001869 31.5705027733 16.8887645685  34.26592821395 31.6504250379 17.60036309955  34.7633508169 31.1447802651 17.26823961375  35.48075572345 31.79129337845 17.7650278295  34.80807884395 31.2247025297 17.9798381448  34.310656241 31.7303473025 18.3119616306  35.421654 36.406372 20.044487  34.3524759701 36.3384698972 20.454499868  34.65436947009999 35.9629108972 20.347703368  35.12610621425 36.2755807401 20.80940672525  35.1197605 36.781931 20.1512835  34.817867 37.15749 20.25808  34.82421271425 36.6511397401 20.91620322525  34.8305584285 36.1447894802 21.5743264505  34.35882168435 35.8321196373 21.11262309325  33.8870849402 35.5194497944 20.650919736  33.254238 34.624382 21.773125  34.32250390325 35.1839448766 21.24845429205  33.5706614701 35.0719158972 21.212022368  33.9121822098 34.42656117075 21.2306995704  34.00608043315 34.7364109794 21.80955692405  34.5701264196 34.2287403415 20.6882741408  34.2286056799 34.87409506795 20.6695969384  34.66402464295 34.53859015015 21.26713149445  34.7579228663 34.8484399588 21.8459888481  36.424057 23.452406 20.654863  36.93180263325 24.74605866685 20.40025331155  36.57074163324999 24.52944566685 20.85967531155  36.9401205 23.50035 20.6923425  36.785118 23.669019 20.195441  37.456184 23.548294 20.729822  37.08680513325 24.57738966685 20.89715481155  37.3011815 23.716963 20.2329205  37.146179 23.885632 19.736019  36.7174262665 25.6064853337 21.0644876231  43.034843 30.007406 16.190495  43.02256847635 29.02515402875 16.18626358755  43.6836455 29.519335 16.090599  43.296665 29.7929545 15.805118  43.4218235 29.7337865 16.475976  42.76074647635 29.23960552875 16.57164058755  43.808804 29.460167 16.761457  43.14772697635 28.96598602875 16.85712158755  43.558487 29.578503 15.419741  42.4866499527 28.4718050575 16.9527861751  36.3805308783 26.4409756129 16.2764741889  36.03903589150001 26.2753559628 16.9013073767  37.4525815849 26.3848797418 16.62046863955  37.1110865981 26.2192600917 17.24530182735  36.2970992536 25.545512242 17.1416349555  36.6385942404 25.7111318921 16.5168017677  36.9800892272 25.8767515422 15.8919685799  32.729809 28.549137 19.40634  33.2995777826 29.0729816276 18.99632575855  33.1574097826 29.0661006276 19.62404125855  32.7682305 28.9810865 18.865083  32.871977 28.556018 18.7786245  33.014145 28.562899 18.150909  32.9103985 28.9879675 18.2373675  35.0689043141 27.1284947283 16.55089186865  35.34652384775001 27.79171067815 16.36917111525  34.63445563245 27.91500572285 16.259083186  36.328639775 31.5176320248 21.0390949538  35.80001005215 31.06708831295 20.84074733245  35.83084118475 31.4416780949 20.14478798805  35.4076429713 31.9999169163 20.43895352565  34.4866461676 32.4822018078 19.8388120975  34.87901324845 31.54937320445 20.2406059043  34.90984438105 31.9239629864 19.5446465599  35.3330425945 31.365724165 19.2504810223  35.3022114619 30.99113438305 19.9464403667  34.770611 24.717262 21.624048  36.24218963325 24.62510016685 21.38405231155  35.6984871307 24.7641054341 21.9216205026  35.74401863325 25.16187366685 21.34426781155  35.268782 24.1804885 21.6638325  35.766953 23.643715 21.703617  36.1966581307 24.2273319341 21.9614050026  36.67189476395 25.20871710095 21.64184031415  36.6263632614 24.8109488682 22.2191930052  36.437428 27.922565 22.912043  37.15370657495 27.1757821126 22.0824034658  36.70814431165 27.05037184615 22.62300191355  37.24208610655 27.5129982034 22.6736859532  36.8829902633 28.04797526645 22.37144455225  38.0467442131 27.1034314068 22.4353289064  37.5128024182 26.64080504955 22.38464486675  37.68764836985 27.63840846985 22.13308750545  37.3285525266 28.1733855329 21.8308461045  36.9788606233 26.1781786923 22.3339608271  38.95575 29.586273 19.971685  38.8390235708 28.85923799745 20.87557628655  38.20308016955001 29.0144057709 20.20507809195  38.5208498673 29.4778198554 20.827138837  38.0859497346 29.3693667108 21.682592674  38.08635374035001 28.28737076835 21.1089693785  38.4041234381 28.75078485285 21.73103012355  37.76818003685 28.9059526263 21.06053192895  37.4504103391 28.4425385418 20.4384711839  38.7222971416 28.1322029949 21.7794675731  38.4260608447 26.9375264558 20.6141399308  38.57417899315 27.53486472535 21.19680375195  39.01712197934999 27.01785507935 21.0460498334  39.17480610725 27.4881480543 20.5017040332  39.9235513698 28.0387696528 20.3892681356  39.3229242557 28.08548632385 21.08436785435  39.7658672419 27.56847667785 20.9336139358  39.608183114 27.0981837029 21.477959736  39.1652401278 27.6151933489 21.62871365455  35.79606881725 30.03261611815 16.59652487405  36.36997649715001 30.0086740351 17.20493452175  36.5181120938 30.1721832397 16.31662704455  36.2866361876 29.3461744794 15.5453350891  36.13850059095 29.1826652748 16.4336425663  35.6479332206 29.86910691355 17.48483235125  33.469151 30.518911 21.251804  34.27447450085 31.16400433045 20.36495323785  33.3733598362 31.1151875299 20.6696553823  34.37026566465 30.56772780055 20.94710185555  33.51731210325 30.63116299045 20.14578849485  33.42152093945001 31.22743952035 19.56363987715  33.2775686724 31.7114640598 20.0875067646  34.546612 28.205223 21.758804  35.18123360955 28.69273027265 21.27526002035  34.66407510955 28.63323177265 21.01711552035  35.03810060955 28.18540327265 21.20814202035  34.689745 28.71255 21.825922  34.1725865 28.6530515 21.5677775  33.798561 29.10088 21.376751  34.3157195 29.1603785 21.6348955  34.832878 29.219877 21.89304  35.5295892191 28.1655835453 20.6574800407  38.391178 29.084101 17.094126  38.8114885656 28.39150737595 16.75145513145  39.2547355 29.055793 16.7462415  38.968414 29.006158 17.2879285  39.54565 28.928215 17.481731  33.438599 25.085999 18.527302  34.006461115 25.76402035185 19.1487373598  34.5464184394 25.36131314475 18.5771882944  33.6423245 24.827164 18.961358  33.84605 24.568329 19.395414  34.210186615 25.50518535185 19.5827933598  34.7501439394 25.10247814475 19.0112442944  35.6542378788 25.6366272895 18.6270745888  35.1142805544 26.0393344966 19.1986236542  34.57432323 26.4420417037 19.7701727196  40.28580601595 28.30761242365 16.92104543615  39.91247651595 28.14726842365 17.49627193615  39.75331955110001 28.4109163107 16.6660939933  39.91897950000001 29.088559 16.9065045  40.292309 29.248903 16.331278  40.1266490511 28.5712603107 16.0908674933  39.9609891022 27.8936176214 15.8504569866  40.12014606705 27.62996973435 16.68063492945  40.2793030319 27.3663218473 17.5108128723  33.906406 33.406605 22.039778  34.33216443315 34.1275224794 21.94288342405  34.2382662098 33.81767267075 21.3640260704  33.580322 34.0154935 21.90
[...]
<PointData  Scalars="p"> 
<DataArray  type="Float64"  Name="p"  format="ascii">7.9999999999878781e+00  8.0000000000000000e+00  7.9999999999883924e+00  7.9999999999816271e+00  8.0000000000000000e+00  8.0000000000000000e+00  7.9999999999897904e+00  7.9999999999714371e+00  7.9999999999782885e+00  7.9999999999855413e+00  7.9999999998541265e+00  7.9999999998499227e+00  7.9999999998337374e+00  7.9999999998541167e+00  7.9999999998494387e+00  7.9999999998377174e+00  7.9999999998468709e+00  7.9999999998208393e+00  7.9999999998370521e+00  7.9999999998526121e+00  7.9999999998477982e+00  7.9999999998497877e+00  7.9999999998694475e+00  7.9999999998492299e+00  7.9999999998492299e+00  7.9999999998675646e+00  7.9999999998915436e+00  7.9999999998716360e+00  7.9999999998501217e+00  7.9999999998508011e+00  7.9999999998171250e+00  7.9999999998334426e+00  7.9999999998250653e+00  7.9999999998279696e+00  7.9999999998385594e+00  7.9999999998436566e+00  7.9999999998358078e+00  7.9999999998340279e+00  7.9999999998427320e+00  7.9999999998393978e+00  7.9999999998551798e+00  7.9999999998238005e+00  7.9999999998401305e+00  7.9999999998601163e+00  7.9999999998447731e+00  7.9999999998288107e+00  7.9999999998287077e+00  7.9999999998380726e+00  7.9999999998386313e+00  7.9999999998338556e+00  7.9999999998492042e+00  7.9999999998444924e+00  7.9999999998484874e+00  7.9999999997901101e+00  7.9999999998065734e+00  7.9999999997945039e+00  7.9999999997808073e+00  7.9999999997930926e+00  7.9999999998000186e+00  7.9999999998095355e+00  7.9999999997773612e+00  7.9999999997886055e+00  7.9999999998005720e+00  7.9999999998128590e+00  7.9999999998013882e+00  7.9999999998113314e+00  7.9999999997995355e+00  7.9999999997945457e+00  7.9999999997859286e+00  7.9999999997874580e+00  7.9999999997814264e+00  7.9999999997981739e+00  7.9999999997962501e+00  7.9999999998061497e+00  7.9999999998030678e+00  7.9999999997707327e+00  7.9999999997985487e+00  7.9999999997633884e+00  7.9999999997671916e+00  7.9999999997807407e+00  7.9999999997836948e+00  7.9999999997854614e+00  7.9999999997720987e+00  7.9999999997990496e+00  7.9999999997744196e+00  7.9999999997800995e+00  7.9999999998013767e+00  7.9999999997937623e+00  7.9999999997892024e+00  7.9999999997965610e+00  7.9999999998067626e+00  7.9999999997857971e+00  7.9999999997628635e+00  7.9999999997695834e+00  7.9999999997872555e+00  7.9999999997652367e+00  7.9999999997766871e+00  7.9999999997916440e+00  7.9999999997852997e+00  7.9999999997738946e+00  7.9999999997972893e+00  7.9999999998098854e+00  7.9999999999022275e+00  7.9999999999007780e+00  7.9999999999012248e+00  7.9999999999072156e+00  7.9999999998999236e+00  7.9999999999132809e+00  7.9999999999072386e+00  7.9999999999059792e+00  7.9999999998988045e+00  7.9999999999006075e+00  8.0000000000000000e+00  8.0000000000000000e+00  7.9999999999999405e+00  8.0000000000000000e+00  8.0000000000000000e+00  7.9999999999999991e+00  8.0000000000000018e+00  7.9999999999999991e+00  8.0000000000000302e+00  7.9999999999918208e+00  7.9999999998568470e+00  7.9999999998565734e+00  7.9999999998791846e+00  7.9999999998766071e+00  7.9999999998633680e+00  7.9999999998637827e+00  7.9999999998653912e+00  7.9999999998087903e+00  7.9999999998042295e+00  7.9999999998019860e+00  7.9999999997994324e+00  7.9999999998129487e+00  7.9999999998133378e+00  7.9999999998027107e+00  7.9999999998371623e+00  7.9999999998334657e+00  7.9999999998232303e+00  7.9999999998476747e+00  7.9999999998378231e+00  7.9999999998259472e+00  7.9999999998155173e+00  7.9999999997819238e+00  7.9999999998052820e+00  7.9999999997937277e+00  7.9999999998054578e+00  7.9999999998174012e+00  7.9999999998894609e+00  7.9999999999019389e+00  7.9999999999010409e+00  7.9999999998939337e+00  7.9999999998982858e+00  7.9999999999056177e+00  7.9999999999083800e+00  7.9999999999062386e+00  7.9999999999119300e+00  7.9999999999013891e+00  7.9999999999069447e+00  7.9999999999068132e+00  7.9999999999116049e+00  7.9999999999006040e+00  7.9999999999220837e+00  7.9999999999162696e+00  7.9999999999127080e+00  7.9999999999018776e+00  7.9999999999113092e+00  7.9999999999166107e+00  7.9999999999196518e+00  7.9999999999014646e+00  7.9999999999090621e+00  7.9999999999066347e+00  7.9999999999089413e+00  7.9999999999163816e+00  7.9999999998988214e+00  7.9999999998914131e+00  7.9999999999250475e+00  7.9999999999180389e+00  7.9999999999214779e+00  7.9999999999299263e+00  7.9999999999295150e+00  7.9999999999430287e+00  7.9999999999329114e+00  7.9999999999419034e+00  7.9999999999415481e+00  7.9999999999334603e+00  7.9999999998097016e+00  7.9999999998226530e+00  7.9999999998162883e+00  7.9999999998241726e+00  7.9999999998284883e+00  7.9999999998164837e+00  7.9999999997883888e+00  7.9999999997962652e+00  7.9999999997732472e+00  7.9999999998117062e+00  7.9999999997819318e+00  7.9999999997685096e+00  7.9999999997606084e+00  7.9999999998552882e+00  7.9999999998555831e+00  7.9999999998448068e+00  7.9999999998586446e+00  7.9999999998514859e+00  7.9999999998409637e+00  7.9999999998246185e+00  7.9999999998367359e+00  7.9999999998486055e+00  7.9999999998622089e+00  7.9999999998845341e+00  7.9999999999023474e+00  7.9999999999138964e+00  7.9999999999070468e+00  7.9999999999276907e+00  7.9999999998526610e+00  7.9999999998563203e+00  7.9999999998572502e+00  7.9999999998579625e+00  7.9999999998630296e+00  7.9999999998623128e+00  7.9999999998635047e+00  7.9999999998672173e+00  7.9999999998641007e+00  7.9999999998603171e+00  7.9999999999442686e+00  7.9999999999365317e+00  7.9999999999290994e+00  7.9999999999369029e+00  7.9999999999454117e+00  7.9999999999370619e+00  7.9999999999327738e+00  7.9999999999396847e+00  7.9999999999457971e+00  7.9999999997974429e+00  7.9999999998035127e+00  7.9999999997900275e+00  7.9999999997839666e+00  7.9999999998599254e+00  7.9999999998529567e+00  7.9999999998594360e+00  7.9999999998570628e+00  7.9999999998549445e+00  7.9999999998517177e+00  7.9999999998555458e+00  7.9999999998507274e+00  7.9999999998492477e+00  7.9999999999237605e+00  7.9999999999268647e+00  7.9999999999184839e+00  7.9999999999053921e+00  7.9999999999107745e+00  7.9999999999016502e+00  7.9999999999139719e+00  7.9999999999225819e+00  7.9999999999306155e+00  7.9999999997648708e+00  7.9999999997690079e+00  7.9999999997708207e+00  7.9999999997655014e+00  7.9999999997783640e+00  7.9999999997768443e+00  7.9999999997646238e+00  8.0000000000000107e+00  8.0000000000000000e+00  7.9999999999999991e+00  7.9999999999999307e+00  7.9999999999998899e+00  7.9999999999999512e+00  7.9999999999999272e+00  7.9999999999999956e+00  8.0000000000000018e+00  8.0000000000000000e+00  7.9999999998873932e+00  7.9999999998808784e+00  7.9999999998673079e+00  7.9999999998891731e+00  7.9999999998779998e+00  7.9999999998711200e+00  7.9999999998614992e+00  7.9999999998720002e+00  7.9999999998584617e+00  7.9999999998385141e+00  7.9999999998543361e+00  7.9999999998525073e+00  7.9999999998579154e+00  7.9999999998432614e+00  7.9999999998435491e+00  7.9999999998451266e+00  7.9999999998494760e+00  7.9999999998421494e+00  7.9999999998498295e+00  7.9999999998575708e+00  7.9999999998497531e+00  7.9999999998430811e+00  7.9999999998427516e+00  7.9999999998407585e+00  7.9999999997860636e+00  7.9999999997912976e+00  7.9999999998802442e+00  7.9999999998899520e+00  7.9999999998907336e+00  7.9999999998763540e+00  7.9999999998732383e+00  7.9999999998880167e+00  7.9999999998879794e+00  7.9999999998475690e+00  7.9999999998442428e+00  7.9999999998450297e+00  7.9999999998359943e+00  7.9999999999073479e+00  7.9999999999040439e+00  7.9999999998342970e+00  7.9999999998320295e+00  7.9999999998251434e+00  7.9999999998258637e+00  7.9999999998214220e+00  7.9999999998216573e+00  7.9999999998352687e+00  7.9999999997752518e+00  7.9999999997767537e+00  7.9999999997754347e+00  7.9999999997882165e+00  7.9999999998319318e+00  7.9999999998332303e+00  7.9999999998289031e+00  7.9999999998256968e+00  7.9999999998170965e+00  7.9999999998258016e+00  7.9999999998222853e+00  7.9999999998410853e+00  7.9999999998350253e+00  7.9999999998395044e+00  7.9999999998368816e+00  7.9999999998429479e+00  7.9999999997823990e+00  7.9999999997849311e+00  7.9999999998017772e+00  7.9999999997944444e+00  7.9999999997957483e+00  7.9999999998006341e+00  7.9999999997831210e+00  7.9999999997940154e+00  7.9999999997776863e+00  7.9999999997778009e+00  7.9999999997622675e+00  7.9999999997814353e+00  7.9999999997714966e+00  7.9999999997678541e+00  7.9999999997562750e+00  7.9999999997771889e+00  7.9999999997886126e+00  7.9999999997473408e+00  7.9999999999322471e+00  7.9999999999478471e+00  7.9999999999196101e+00  7.9999999999422320e+00  7.9999999999542135e+00  7.9999999999304299e+00  7.9999999999147180e+00  7.9999999998213891e+00  7.9999999998297380e+00  7.9999999998251363e+00  7.9999999998427107e+00  7.9999999998440048e+00  7.9999999998937703e+00  7.9999999998887947e+00  7.9999999998880398e+00  7.9999999998972982e+00  7.9999999999013518e+00  7.9999999999193587e+00  7.9999999999130100e+00  7.9999999999045173e+00  7.9999999999105249e+00  7.9999999999183640e+00  7.9999999999199982e+00  7.9999999999275264e+00  7.9999999999367155e+00  7.9999999999055875e+00  7.9999999999064340e+00  7.9999999999076667e+00  7.9999999999117595e+00  7.9999999999046594e+00  7.9999999999029585e+00  7.9999999999128493e+00  7.9999999999066000e+00  7.9999999999105356e+00  7.9999999999166178e+00  7.9999999999298588e+00  7.9999999999231752e+00  7.9999999999137135e+00  7.9999999997756364e+00  7.9999999998001670e+00  7.9999999998015481e+00  7.9999999997802504e+00  7.9999999998000764e+00  7.9999999998009477e+00  7.9999999998234630e+00  7.9999999998225224e+00  7.9999999998222346e+00  7.9999999998043112e+00  7.9999999998080540e+00  7.9999999998112239e+00  7.9999999998198756e+00  7.9999999999256834e+00  7.9999999999356843e+00  7.9999999999191287e+00  7.9999999999405027e+00  7.9999999999403260e+00  7.9999999999523395e+00  7.9999999999543974e+00  7.9999999998493463e+00  7.9999999998468887e+00  7.9999999998470779e+00  7.9999999998417142e+00  7.9999999998436371e+00  7.9999999998428848e+00  7.9999999998418199e+00  7.9999999998325810e+00  7.9999999998423901e+00  7.9999999998839995e+00  7.9999999998897247e+00  7.9999999998807922e+00  7.9999999998976810e+00  7.9999999998932925e+00  7.9999999998955520e+00  7.9999999998787636e+00  7.9999999997942624e+00  7.9999999997931255e+00  7.9999999998059153e+00  7.9999999998040794e+00  7.9999999997902664e+00  7.9999999998040670e+00  7.9999999997897158e+00  7.9999999998091518e+00  7.9999999997876188e+00  7.9999999997950875e+00  7.9999999998086686e+00  7.9999999998818918e+00  7.9999999998821947e+00  7.9999999998662785e+00  7.9999999998670619e+00  7.9999999998607612e+00  7.9999999997794893e+00  7.9999999997867475e+00  7.9999999998003037e+00  7.9999999998039817e+00  7.9999999998588915e+00  7.9999999998640998e+00  7.9999999998685114e+00  7.9999999998620863e+00  7.9999999998651807e+00  7.9999999998588809e+00  7.9999999998646105e+00  7.9999999998706235e+00  7.9999999999290452e+00  7.9999999999175637e+00  7.9999999999172910e+00  7.9999999999144746e+00  7.9999999999285469e+00  7.9999999999031823e+00  7.9999999999037072e+00  7.9999999999159144e+00  7.9999999999287024e+00  7.9999999997865556e+00  7.9999999997755884e+00  7.9999999997708491e+00  7.9999999997845235e+00  7.9999999997915854e+00  7.9999999997719629e+00  7.9999999997566222e+00  7.9999999997496696e+00  7.9999999997567528e+00  7.9999999999235545e+00  7.9999999999107168e+00  7.9999999999225135e+00  7.9999999998756817e+00  7.9999999998653992e+00  7.9999999998844320e+00  7.9999999998761062e+00  7.9999999998605107e+00  7.9999999998833484e+00  7.9999999998659623e+00  7.9999999998534443e+00  7.9999999998535669e+00  7.9999999998432889e+00  7.9999999998647322e+00  7.9999999998525242e+00  7.9999999998204254e+00  7.9999999998298303e+00  7.9999999998280584e+00  7.9999999998329789e+00  7.9999999998204014e+00  7.9999999998432649e+00  7.9999999998385496e+00  7.9999999998342153e+00  8.0000000000000000e+00  7.9999999999999991e+00  7.9999999999723057e+00  7.9999999999808642e+00  7.9999999999781535e+00  7.9999999999797975e+00  7.9999999999730456e+00  7.9999999999754063e+00  7.9999999999785247e+00  7.9999999999461604e+00  7.9999999999343805e+00  7.9999999999485665e+00  7.9999999998122213e+00  7.9999999997933102e+00  7.9999999998109956e+00  7.9999999998293578e+00  7.9999999998290292e+00  7.9999999998793099e+00  7.9999999998644276e+00  7.9999999998775531e+00  7.9999999998730296e+00  7.9999999998627915e+00  7.9999999998576605e+00  7.9999999998683071e+00  7.9999999998731210e+00  7.9999999998775104e+00  7.9999999997868443e+00  7.9999999997847695e+00  7.9999999997745963e+00  7.9999999997799369e+00  7.9999999997906217e+00  7.9999999997701758e+00  7.9999999997526245e+00  7.9999999997628972e+00  7.9999999997952624e+00  7.9999999997741940e+00  7.9999999998085842e+00  7.9999999997851940e+00  7.9999999999177129e+00  7.9999999999125286e+00  7.9999999999158362e+00  7.9999999999113989e+00  7.9999999999226095e+00  7.9999999998391678e+00  7.9999999998426281e+00  7.9999999998471401e+00  7.9999999998454578e+00  7.9999999998388320e+00  7.9999999998346381e+00  7.9999999998443769e+00  7.9999999998483800e+00  7.9999999999225277e+00  7.9999999999377582e+00  7.9999999998917239e+00  7.9999999998901270e+00  7.9999999999058984e+00  7.9999999998657749e+00  7.9999999998496367e+00  7.9999999998566942e+00  7.9999999998513607e+00  7.9999999998621512e+00  7.9999999998543805e+00  7.9999999999661267e+00  7.9999999999575735e+00  7.9999999999570957e+00  7.9999999999669535e+00  7.9999999999534879e+00  7.9999999999586962e+00  7.9999999999718012e+00  7.9999999998854072e+00  7.9999999998972982e+00  7.9999999998815872e+00  7.9999999998917364e+00  7.9999999998770104e+00  7.9999999998873657e+00  7.9999999999033449e+00  7.9999999998811688e+00  8.0000000000000018e+00  8.0000000000000000e+00  8.0000000000000000e+00  7.9999999999999991e+00  7.9999999998346301e+00  7.9999999998220188e+00  7.9999999998374207e+00  7.9999999998149569e+00  7.9999999998397469e+00  7.9999999998443867e+00  7.9999999998196687e+00  7.9999999998422195e+00  7.9999999998192353e+00  7.9999999998476161e+00  7.9999999998607558e+00  7.9999999998719584e+00  7.9999999998640376e+00  7.9999999998688498e+00  7.9999999998709930e+00  7.9999999999074598e+00  7.9999999999127436e+00  7.9999999999048734e+00  7.9999999999194245e+00  7.9999999998923910e+00  7.9999999999017035e+00  7.9999999998640661e+00  7.9999999998726929e+00  7.9999999999119220e+00  7.9999999999260698e+00  7.9999999999083631e+00  7.9999999999222204e+00  7.9999999999162696e+00  7.9999999998234248e+00  7.9999999998285851e+00  7.9999999998291944e+00  7.9999999998141291e+00  7.9999999998354294e+00  7.9999999998284865e+00  7.9999999998381153e+00  7.9999999998402034e+00  7.9999999998282183e+00  7.9999999998293925e+00  7.9999999998392619e+00  7.9999999998404894e+00  7.9999999998525713e+00  7.9999999998521849e+00  7.9999999998515650e+00  7.9999999998511750e+00  7.9999999998577627e+00  7.9999999998676286e+00  7.9999999998597184e+00  7.9999999998598570e+00  7.9999999998927844e+00  7.9999999998854214e+00  7.9999999998854836e+00  7.9999999998954943e+00  7.9999999998926503e+00  7.9999999998819344e+00  7.9999999998836282e+00  7.9999999998838334e+00  7.9999999998059907e+00  7.9999999998244817e+00  7.9999999998069260e+00  7.9999999998140074e+00  7.9999999997989084e+00  7.9999999998188960e+00  7.9999999997924753e+00  7.9999999998127791e+00  7.9999999999429185e+00  7.9999999999301483e+00  7.9999999999438911e+00  7.9999999999333289e+00  7.9999999999480806e+00  7.9999999999577112e+00  7.9999999998811067e+00  7.9999999998706715e+00  7.9999999998748157e+00  7.9999999998756941e+00  7.9999999998873346e+00  7.9999999998706217e+00  7.9999999998826850e+00  7.9999999998949871e+00  7.9999999999701554e+00  7.9999999999677582e+00  7.9999999999661959e+00  7.9999999998623554e+00  7.9999999998684874e+00  7.9999999998703952e+00  7.9999999998609992e+00  7.9999999998584359e+00  7.9999999997817905e+00  7.9999999998044329e+00  7.9999999997815676e+00  7.9999999997738858e+00  7.9999999997706208e+00  7.9999999998833200e+00  7.9999999998988516e+00  7.9999999998928706e+00  7.9999999998079856e+00  7.9999999998061302e+00  7.9999999998042606e+00  7.9999999998215676e+00  7.9999999998229612e+00  7.9999999998104592e+00  7.9999999998255857e+00  7.9999999998919060e+00  7.9999999999123341e+00  7.9999999999142437e+00  7.9999999998967759e+00  7.9999999999087352e+00  7.9999999998981499e+00  7.9999999999239542e+00  7.9999999999039080e+00  7.9999999998079421e+00  7.9999999998263940e+00  7.9999999998264144e+00  7.9999999998254641e+00  7.9999999998811404e+00  7.9999999998733067e+00  7.9999999998794680e+00  7.9999999998752997e+00  7.9999999998879563e+00  7.9999999998866373e+00  7.9999999998429034e+00  7.9999999998642437e+00  7.9999999998525801e+00  7.9999999998114184e+00  7.9999999998252269e+00  7.9999999998163203e+00  7.9999999998090203e+00  7.9999999998735323e+00  7.9999999998824540e+00  7.9999999997833449e+00  7.9999999998110294e+00  7.9999999997935554e+00  7.9999999998070948e+00  7.9999999997833218e+00  7.9999999998061959e+00  7.9999999999411555e+00  7.9999999999292859e+00  7.9999999999468434e+00  7.9999999999641052e+00  7.9999999997903659e+00  7.9999999998144302e+00  7.9999999998006528e+00  7.9999999998110134e+00  7.9999999998158735e+00  7.9999999998090203e+00  7.9999999997599840e+00  7.9999999997898437e+00  7.9999999997546274e+00  7.9999999997550422e+00  7.9999999997688009e+00  7.9999999999120384e+00  7.9999999999210978e+00  7.9999999999160165e+00  7.9999999999168727e+00  7.9999999998396509e+00  7.9999999998320099e+00  7.9999999998223954e+00  7.9999999997534843e+00  7.9999999997468629e+00  7.9999999998017266e+00  7.9999999998077511e+00  7.9999999998675442e+00  7.9999999998577493e+00  7.9999999998661258e+00  7.9999999998261258e+00  7.9999999998481330e+00  7.9999999998791047e+00  7.9999999997573790e+00  7.9999999997802149e+00  7.9999999997642712e+00  7.9999999997660289e+00  7.9999999997754099e+00  7.9999999997816111e+00  7.9999999997731015e+00  7.9999999997725819e+00  7.9999999997345599e+00  7.9999999997506004e+00  7.9999999997607656e+00  7.9999999997616182e+00  7.9999999999999991e+00  8.0000000000000000e+00  7.9999999999999005e+00  7.9999999999998943e+00  7.9999999999999245e+00  7.9999999999999698e+00  7.9999999997882423e+00  7.9999999997901110e+00  7.9999999998040341e+00  7.9999999998966222e+00  7.9999999998917763e+00  7.9999999999068150e+00  7.9999999998815090e+00  7.9999999999023208e+00  7.9999999998903375e+00  7.9999999997954410e+00  7.9999999997757083e+00  7.9999999997773585e+00  7.9999999997710631e+00  7.9999999997995230e+00  7.9999999997985896e+00  7.9999999998558939e+00  7.9999999998613651e+00  7.9999999999705098e+00  7.9999999999767324e+00  7.9999999999741505e+00  7.9999999999616325e+00  7.9999999997739994e+00  7.9999999997637490e+00  7.9999999997638778e+00  7.9999999997451994e+00  7.9999999999287645e+00  7.9999999999359872e+00  7.9999999999415161e+00  7.9999999999236318e+00  7.9999999999171090e+00  7.9999999999056870e+00  7.9999999998990470e+00  7.9999999999096465e+00  7.9999999998964348e+00  7.9999999999132063e+00  7.9999999999624931e+00  7.9999999999590825e+00  7.9999999999734470e+00  7.9999999999653983e+00  7.9999999999502203e+00  7.9999999998551896e+00  7.9999999998597024e+00  7.9999999998547002e+00  7.9999999998490923e+00  7.9999999998557634e+00  7.9999999998612550e+00  7.9999999998259490e+00  7.9999999998406688e+00  7.9999999998298046e+00  7.9999999998141984e+00  7.9999999998550866e+00  7.9999999998538813e+00  7.9999999998514966e+00  7.9999999998111715e+00  7.9999999998138929e+00  7.9999999997996367e+00  7.9999999998493374e+00  7.9999999998471116e+00  7.9999999998517621e+00  8.0000000000000000e+00  7.9999999999904503e+00  7.9999999999671889e+00  7.9999999999501590e+00  7.9999999999468807e+00  7.9999999999633911e+00  7.9999999999587894e+00  7.9999999998278044e+00  7.9999999998391731e+00  7.9999999998429789e+00  7.9999999998483036e+00  7