<?xml version="1.0"?>
<VTKFile type="UnstructuredGrid"  version="0.1"  >
<UnstructuredGrid>
<Piece  NumberOfPoints="9056" NumberOfCells="41006">
<Points>
<DataArray  type="Float64"  NumberOfComponents="3"  format="ascii">19.35247 43.627224 16.051924  19.5822543257 44.7885933841 15.6440225124  18.9760633257 44.3836653841 15.7155875124  19.6208305 44.054531 15.488186  19.958661 44.032152 15.980359  19.889191 44.481838 14.924448  19.2444238257 44.8109723841 15.1518495124  20.2270215 44.459459 15.416621  20.564852 44.43708 15.908794  18.5996566514 45.1401067682 15.3792510248  21.161484 46.5 16.318026  20.3815795196 45.8946871219 16.6375063623  20.83984725 45.98427 15.967639  20.5731315 46.5 16.3385805  19.984779 46.5 16.359135  20.25149475 45.98427 15.9881935  20.5182105 45.46854 15.617252  19.48593958675 44.8005854383 16.42678570785  18.87974858675 44.3956574383 16.49835070785  19.47806822905 44.24822403589999 16.97254699435  18.4070271735 45.1640908766 16.9447774157  18.929344 46.5 17.545504  18.58472958675 45.8320454383 16.48883870785  18.66818558675 45.8320454383 17.24514070785  18.2867095 46.5 17.0883935  18.845888 46.5 16.789202  18.762432 46.5 16.0329  18.2032535 46.5 16.3320915  17.644075 46.5 16.631283  18.02555108675 45.8320454383 16.78803020785  18.589382 43.177567 17.168562  18.49820458675 44.17082893830001 17.05666970785  18.970926 43.4023955 16.610243  19.09652422905 44.0233955359 17.53086599435  19.0976238257 45.8200533841 15.1746770124  18.6810443257 45.8200533841 15.7060755124  19.64032125 45.98427 15.825076  19.1790115 46.5 15.5015015  19.595591 46.5 14.970103  19.5589335757 45.3043233841 15.4982515124  20.05690075 45.98427 15.2936775  19.790185 46.5 15.664619  19.3736055 46.5 16.1960175  20.228174 46.5 15.8424225  20.471569 46.5 15.32571  20.49488975 45.98427 15.471481  20.03358 46.5 15.1479065  20.8165265 46.5 15.821868  17.8786885 43.7979165 17.342539  17.9028245 43.2974 17.1044255  18.34494 43.451523 17.595932  18.100498 43.725479 18.023302  17.6342465 44.0718725 17.769909  17.6583825 43.571356 17.5317955  17.216267 43.417233 17.040289  17.192131 43.9177495 17.2784025  17.167995 44.418266 17.516516  20.20370075 44.975189 15.27085  19.742391 45.49091900000001 14.9472755  20.18038 45.49091900000001 15.125079  19.9298105 45.49091900000001 14.5007185  20.2209995 46.5 14.7013495  19.7830105 46.5 14.523546  19.97043 46.5 14.076989  20.8741615 45.838724 15.503276  18.281389 46.5 17.6334725  18.65188 46.5 18.2182095  18.3987835 45.5694865 17.9256335  17.633434 46.5 17.721441  19.46261883675 45.31631543829999 16.28101470785  19.3791235 43.2349305 17.203431  18.50334191245 45.1520988224 16.16201422025  19.276995 43.165333 18.581755  19.72293 43.2288135 17.9100275  18.9331885 43.17145 17.8751585  18.02023058675 45.8320454383 17.33310920785  17.6387545 46.5 17.176362  17.868223 44.638973 18.305763  18.13762508675 44.9015319383 17.62527020785  17.7508285 45.5694865 18.013602  19.19590308675 45.8320454383 16.65195620785  19.4570615 46.5 16.9523195  19.2922178257 45.8200533841 15.8691930124  18.25376258675 44.4447849383 17.48403970785  17.78751108675 44.7911784383 17.23064670785  18.6887465 43.445406 18.3025285  17.4007145 45.459133 17.6189785  17.518109 44.5286195 17.9111395  17.81164708675 44.2906619383 16.99253320785  7.4272406848 21.1404988432 5.8459790344  7.4046256035 21.2866883771 6.93148414445  7.815728551099999 21.1492352049 6.7664828491  7.62019602365 21.6886805491 6.19496672645  7.8131513625 22.236862255 6.5439544185  8.008683889949999 21.6974169108 7.11547054115  8.2042164174 21.1579715666 7.6869866638  7.184909 22.529697 8.510153000000001  7.49903018125 22.3832796275 7.527053709250001  6.6166425 22.503994 7.965756000000001  7.1461885 22.853548 7.864511500000001  7.107468 23.177399 7.21887  6.93076368125 22.3575766275 6.98265670925  7.46030968125 22.7071306275 6.88141220925  6.577922 22.827845 7.3201145  6.048376 22.478291 7.421359  13.452531 22.113592 6.803484  12.41553711585 23.0474972439 7.33369421685  12.4636009009 21.96165184265 7.4178653233  13.0952779009 22.14449384265 7.499614323299999  12.820854 21.93075 6.721735000000001  12.77279021495 23.01659540125 6.63756389355  12.189177 21.747908 6.639986  12.14111321495 22.83375340125 6.55581489355  12.7380248018 22.1753956853 8.1957446466  12.0930494299 23.9195988025 6.4716437871  11.3403195195 22.067978033 6.74034480625  11.8557015 21.9438915 6.2507025  11.5933695 21.4545425 6.4668565  10.997562 21.161177 6.293727  11.0068440195 22.263961533 6.351061306249999  10.7445120195 21.774612533 6.56721530625  11.259894 21.650526 6.077572999999999  11.522226 22.139875 5.861419  10.491462039 22.388048066 6.8407036125  13.9800208699 21.9884196328 9.0134553359  12.94008740645 22.65025190285 8.7913543465  13.5610854405 22.5567638766 9.20020969115  13.7884228427 22.6247072752 8.509484953799999  13.35902283585 22.08190765905 8.60459999125  13.5968248155 23.2609949176 8.005514571699999  13.3694874133 23.193051519 8.69623930905  13.16742480865 22.71819530145 8.100629609149999  13.1421500111 23.1251081204 9.386964046399999  11.185298524 21.76784968445 7.13360282445  11.781106024 22.06121518445 7.30673232445  11.373035048 22.3745223689 7.9734786489  10.9322485435 22.38128521745 7.4070911307  14.441893 21.189611 7.066499  13.5899589009 21.68250334265 7.6311218233  14.21095693495 21.5890153164 8.039977167949999  13.6791305 21.116992 7.230737  12.916368 21.044373 7.394975  12.8271964009 21.60988434265 7.7953598233  13.44819443495 21.5163963164 8.20421516795  9.1166046329 21.9764454057 6.8109788653  9.6359615529 22.6053111908 7.2756200022  9.938691899449999 22.8879334776 6.6900525418  9.804033335949999 22.18224673585 6.8258412389  9.501302989399999 21.89962444905 7.411408699300001  9.2512631964 22.68213214745 6.6751901682  9.3859217599 23.3878188892 6.5394014711  10.18873169245 22.1054257792 7.426271072900001  9.8860013459 21.8228034924 8.011838533300001  13.00785531255 22.0535460467 9.266283499450001  13.41900359255 21.48329588085 8.9597463094  8.146119000000001 23.302202 7.9294  8.1751677087 22.2300867833 7.8081933319  7.97963518125 22.7695321275 7.236677209250001  8.631361816449999 22.63932370285 7.37018943265  8.660410525149999 21.56720848615 7.24898276455  8.4648779977 22.10665383035 6.677466641900001  11.723676 20.494081 7.089275  10.33212157235 20.78529711905 7.098287291849999  10.80483867295 21.1584422462 7.550556766650001  11.360619 20.827629 6.691501  10.44178167295 21.4919902462 7.152782766650001  9.93349857235 20.54751911905 6.83020629185  10.8560095 20.404773 6.293514  10.598939 20.923399 6.025646  10.200316 20.685621 5.757565  11.107257 23.344732 9.324401  12.3628029774 23.4331592659 8.5813209681  11.9226409009 22.76006384265 8.7600728233  11.34535647185 23.5429712057 8.550039444899999  11.5834559437 23.7412104114 7.7756778898  12.16074037275 22.95830304835 7.985711268199999  12.8871771576 21.01127256445 8.15050614145  11.73304223895 23.1470605857 7.222561217999999  11.447630524 22.25719868445 6.91744882445  11.80763771495 23.02973690125 6.16653139355  12.0555299249 22.2749590271 8.08461164775  12.144701524 21.70944768445 7.68422682445  12.5527725 21.3961405 7.0174805  12.1896784009 22.24714184265 9.170806323299999  11.548355524 21.43430168445 7.53137682445  10.62951819695 22.09866293065 7.9926585911  10.69164536565 21.5204589914 8.374944407699999  11.4351622167 21.79631842965 8.3557644655  11.4972893854 21.2181144904 8.7380502821  10.107802 23.112637 8.804928  9.545283172950001 22.5740452462 8.179213266650001  9.8480135195 22.856667533 7.593645806250001  9.996901672949999 22.4677202462 8.40838326665  9.656183500000001 23.218962 8.575758  10.2996320195 22.750342533 7.82281580625  9.204565000000001 23.325287 8.346588000000001  10.636679 22.219622 9.480370000000001  10.26134017295 22.0212127462 8.746104266650001  9.957222000000002 22.2618945 9.349423999999999  10.3722405 22.6661295 9.142649  9.692783500000001 22.708402 9.011703000000001  9.277765 22.304167 9.218477999999999  9.58188317295 22.0634852462 8.615158266649999  12.1176570936 21.69675508785 8.46689746435  11.507183524 22.34670518445 9.059673324449999  11.004857024 22.29707218445 8.72692432445  10.740418524 22.74357968445 8.389203324449999  11.9564265 21.1209945 6.864630500000001  12.320022 20.769227 7.242125  8.719416316450001 22.32187220285 7.78894243265  9.160584816450001 22.65086620285 7.578783432650001  8.675342000000001 23.3137445 8.137994000000001  8.763396500000001 22.996293 8.556747000000001  8.322228000000001 22.667299 8.766906000000001  8.234173500000001 22.9847505 8.348153  13.99064215975 23.17097983365 9.07974795865  14.3155571688 22.8383064042 8.110486242249999  10.05708331645 21.56881120285 6.55235293265  9.65846031645 21.33103320285 6.28427193265  12.5901403796 23.5011026645 7.890596230749999  10.84562897185 23.4269237057 8.290302944900001  11.03745899135 23.0646292387 7.30819075115  11.47824549585 23.05786639015 7.87457826935  11.8382526868 23.83040460695 7.12366083845  12.2068286927 21.1312437452 8.06651264105  11.240146024 22.85962718445 8.64893982445  7.665514 22.9159495 8.2197765  7.694562708699999 21.8438342833 8.098569831900001  9.295243379950001 23.3565529446 7.44299473555  9.104114672950001 22.2450512462 8.38937226665  11.29225573445 23.15382343425 6.6561736998  13.1844495 21.5789825 7.0992295  7.6267935 23.2398005 7.574135  13.71627593495 22.0510058164 7.90846966795  10.6075295 23.2286845 9.064664499999999  10.871968 22.782177 9.402385500000001  6.1525759151 21.3556173956 6.5067813358  7.17839616625 21.2567944811 7.0968839998  6.9828636388 21.7962398253 6.52536787715  12.8449371227 23.59029686005 7.238579179399999  13.52467790775 22.6872934588 7.404499285849999  11.3742945 22.83181 9.735134500000001  9.241165000000001 22.814727 8.782533000000001  9.482172392900001 20.537149253 6.1382086045  8.94031670935 21.18256145585 6.66491553715  8.764028785800001 20.388677506 6.518852209  7.7535685 22.598498 8.638529500000001  13.947212 21.6516015 6.934991500000001  8.2885900741500
[...]
<PointData  Scalars="p"> 
<DataArray  type="Float64"  Name="p"  format="ascii">9.2258244508128087e+00  9.2256520566106595e+00  9.2437105380658942e+00  9.2366543487178543e+00  9.2018879559812667e+00  9.2501356096786225e+00  9.2520020675749954e+00  9.2149505786833537e+00  9.1765726303810276e+00  9.2577356103483162e+00  9.1450136906094475e+00  9.1665037932626241e+00  9.1685219375699241e+00  9.1685356615384901e+00  9.1877202292197353e+00  9.1896344900966191e+00  9.1890510539372237e+00  9.2018966590736326e+00  9.2203932167884162e+00  9.1850434893330455e+00  9.2177915317637567e+00  9.1849227640340061e+00  9.2246046281856522e+00  9.2005924061196325e+00  9.2151997975115840e+00  9.2085131312494148e+00  9.2321843225520617e+00  9.2384025348588299e+00  9.2452457001391632e+00  9.2314026454622979e+00  9.2134613566288994e+00  9.2152944563626935e+00  9.2196460265198787e+00  9.1797151862786741e+00  9.2497655338491267e+00  9.2441219274249171e+00  9.2149353034109609e+00  9.2371800994030249e+00  9.2448127763720915e+00  9.2296723512166672e+00  9.2220152257981383e+00  9.2157285473324482e+00  9.2108765471376728e+00  9.1957793857523153e+00  9.2078999486054727e+00  9.1968952449134385e+00  9.2285116538771241e+00  9.1771939959011331e+00  9.2286403420642138e+00  9.2421818781723282e+00  9.2033022331248659e+00  9.1943814529724364e+00  9.2196500032381046e+00  9.2315022441715726e+00  9.2669896410171013e+00  9.2531577189209617e+00  9.2422656817780968e+00  9.2206734450475807e+00  9.2447148263282752e+00  9.2271033097541597e+00  9.2593036295047462e+00  9.2431708196419553e+00  9.2566455706874056e+00  9.2693044435211966e+00  9.1770684020239486e+00  9.1990808814011533e+00  9.1722659999086158e+00  9.1872900372332840e+00  9.2141763124006317e+00  9.2064731952219443e+00  9.1784174750186089e+00  9.2380329311752440e+00  9.1336282966147859e+00  9.1403739244000697e+00  9.1708987267201252e+00  9.2158002885684578e+00  9.2308204200575315e+00  9.1893121312209107e+00  9.2051415999479307e+00  9.2013827939180715e+00  9.2028896149196946e+00  9.1868768219089016e+00  9.2233438639890473e+00  9.2075739540575974e+00  9.2287293607761853e+00  9.1643416824553903e+00  9.2261524714094190e+00  9.2157397248192670e+00  9.2384369095494083e+00  9.7122655773869511e+00  9.7100233545123480e+00  9.7009117601080845e+00  9.7044305928875119e+00  9.6946808374921023e+00  9.6922431559096633e+00  9.6914951469329900e+00  9.7149572164476581e+00  9.7003006509534426e+00  9.7240395192678513e+00  9.7046770871239740e+00  9.7018530343378870e+00  9.7151336820326346e+00  9.6986894289807495e+00  9.7186204902393900e+00  9.7329080136564503e+00  9.5077231559117603e+00  9.5340454559210865e+00  9.5395243542703341e+00  9.5143399057631459e+00  9.5338678117665623e+00  9.5322268437029898e+00  9.5617536697389802e+00  9.5561109268548119e+00  9.5192770337031387e+00  9.5498236085331136e+00  9.5887157485777923e+00  9.5787102203503682e+00  9.5905673243205882e+00  9.6188529558937024e+00  9.6035121938242565e+00  9.6147390428803163e+00  9.6063390505474224e+00  9.5948490651337845e+00  9.6122794232919144e+00  9.4769455686215593e+00  9.5015703509528944e+00  9.4807428084719501e+00  9.4811854318652191e+00  9.4961794397080084e+00  9.4872742735976985e+00  9.4858970206939244e+00  9.5026483000447328e+00  9.4828407642775066e+00  9.5920753659203584e+00  9.5652486069356932e+00  9.5677215387057402e+00  9.5904852744086835e+00  9.4604093141129759e+00  9.4962736998080270e+00  9.4753308039383963e+00  9.4912070118607108e+00  9.5256568145420069e+00  9.5239771307011978e+00  9.4993874307664026e+00  9.6597277879140115e+00  9.6331151951570231e+00  9.6256874877750001e+00  9.6367294578330327e+00  9.6448916966043701e+00  9.6492175358922196e+00  9.6380880150385657e+00  9.6193368203683605e+00  9.6291793662522931e+00  9.4991498996078114e+00  9.4959189588557766e+00  9.6692437798145381e+00  9.6830161431219341e+00  9.6825119588046160e+00  9.6642859637904053e+00  9.6748337184516835e+00  9.6776989411433476e+00  9.5890663067983173e+00  9.6321493049652123e+00  9.6071752395619310e+00  9.6047569088449727e+00  9.6205720578283653e+00  9.6492643885179561e+00  9.6337273521891280e+00  9.6390222981962062e+00  9.6571849128399538e+00  9.5415467812892825e+00  9.5137654306244190e+00  9.5323198230215809e+00  9.5450710488517458e+00  9.5471473622127974e+00  9.5340740544072009e+00  9.5223292419723755e+00  9.5572383786438753e+00  9.5804539320403901e+00  9.5717533370483583e+00  9.5430861644968825e+00  9.5503235838383240e+00  9.5450346908997030e+00  9.5228430080149558e+00  9.5772877042606890e+00  9.5981881585774484e+00  9.5991859516997344e+00  9.5671486384888222e+00  9.5663309503644918e+00  9.5966951767049835e+00  9.6316407830260111e+00  9.6200879728550319e+00  9.6145537067997680e+00  9.6154196725978345e+00  9.6035477680605457e+00  9.6323710958750475e+00  9.5804127835441975e+00  9.6078308823859899e+00  9.6168102370960007e+00  9.5895362372108934e+00  9.6226558439841963e+00  9.6486346282522089e+00  9.6364993019590575e+00  9.5416183740344422e+00  9.5471941255977146e+00  9.5726154625366000e+00  9.5809267818916553e+00  9.5745472749209064e+00  9.5581618326363529e+00  9.6645954810393668e+00  9.6463593802367527e+00  9.6521309734882941e+00  9.6554049676804663e+00  9.6774377271411414e+00  9.6729575126191616e+00  9.4660540162845894e+00  9.4688088405963988e+00  9.6388005899865892e+00  9.6557120269611776e+00  9.5166804802757987e+00  9.5682596374146485e+00  9.5800458452418198e+00  9.5573337269011933e+00  9.5482635817613613e+00  9.5484798618186630e+00  9.5568265136843618e+00  9.6911120472923784e+00  9.7034041495123766e+00  9.6328935905837341e+00  9.6526423893739750e+00  9.5799122513955108e+00  9.5145185040807423e+00  9.6856289689512991e+00  9.4903035211857105e+00  9.5685718371027590e+00  9.5592730034956350e+00  9.7368269521269255e+00  9.7157472842274704e+00  9.7179324836063810e+00  9.5175075941741056e+00  9.4989266236927161e+00  9.5305563841802989e+00  9.6401249962987077e+00  9.6689463734441894e+00  9.6726867180757168e+00  9.6831668927652323e+00  9.6965242284772888e+00  9.4846977303502999e+00  9.6891156705044441e+00  9.7156639060569514e+00  9.7363269931610112e+00  9.6623598104082458e+00  9.6588788470814073e+00  9.6703078828135016e+00  9.6510864997902566e+00  9.6399495976014258e+00  9.6473677268315825e+00  9.6575303473182448e+00  9.6787725895770791e+00  9.6656941847432165e+00  9.6522508721489242e+00  9.5488500148199762e+00  9.5820006043761179e+00  9.5824437711828576e+00  9.5621487002141610e+00  9.5737596291359264e+00  9.5879350629146369e+00  9.5696843890795709e+00  9.5882706210512243e+00  9.5902972227043772e+00  9.5794853019974955e+00  9.7903763449953036e+00  9.7853518096336369e+00  9.7750681667504882e+00  9.8100225231431768e+00  9.7999545517565654e+00  9.8121646468505421e+00  9.7859221934704230e+00  9.8196514010999891e+00  9.8107142348399670e+00  9.7602372431069213e+00  9.9907250765806577e+00  1.0017782971747366e+01  1.0012237852235909e+01  1.0015851079603154e+01  9.9946179902812737e+00  9.9936058969423414e+00  1.0019940672106371e+01  1.0039379174588095e+01  1.0034934172544737e+01  1.0031897603183236e+01  9.7090062622301634e+00  9.6802545877790731e+00  9.6787778293156190e+00  9.6841154596447012e+00  9.7157614691077061e+00  9.6590384668877238e+00  9.6545218357431750e+00  9.6843722905291330e+00  9.7122409809167678e+00  9.6488780248103296e+00  9.9448366445188636e+00  9.9262804304987746e+00  9.9588962611351857e+00  9.9300636949523895e+00  9.9371893844204475e+00  9.9629680425322107e+00  9.9741934646764570e+00  1.0005382730313910e+01  9.9305182118540056e+00  9.9155155546498808e+00  9.3256637915169662e+00  9.3064044383973883e+00  9.3028223930701390e+00  9.3223611433374831e+00  9.3025077650512547e+00  9.3063006203871179e+00  9.2743582965698099e+00  9.2835256463014666e+00  9.2918247137616845e+00  9.3233904103039453e+00  9.7300252641510436e+00  9.7497245431845538e+00  9.7735271622441147e+00  9.7233472873765816e+00  9.7590694665322300e+00  9.7886964278657072e+00  9.8018028855072927e+00  9.7168033817601227e+00  9.7593268896754797e+00  9.8077789048821185e+00  9.8332240973552985e+00  9.8259711114963544e+00  9.8507339331159685e+00  9.8133287502237589e+00  9.8118672142846695e+00  9.7951431440045127e+00  9.7949983047312124e+00  9.7932344423199300e+00  9.8279070317781390e+00  9.8615702677239945e+00  9.7231258456214782e+00  9.7003043466161678e+00  9.7125037526668727e+00  9.7166571206240580e+00  9.7089065615992567e+00  9.6884067248280559e+00  9.6929869180287653e+00  9.7036596355383971e+00  9.6993800951394746e+00  1.0149714054762347e+01  1.0132523581277757e+01  1.0150960891926104e+01  1.0177166352697052e+01  1.0211943407177882e+01  1.0162369782189268e+01  1.0187212746459505e+01  1.0157737951001113e+01  1.0136325405368245e+01  1.0112849049791198e+01  1.0155852679965845e+01  1.0210821431076917e+01  1.0181210342655369e+01  1.0194285260869023e+01  1.0175049925966306e+01  1.0191885481549804e+01  1.0196001368993098e+01  1.0237914681043460e+01  1.0219411336058801e+01  1.0203681432881925e+01  9.8127868441968431e+00  9.7953877654024506e+00  9.7980190587617582e+00  9.8247088503448534e+00  9.7909117385495215e+00  9.7661206196096675e+00  9.7741633041032863e+00  9.8259303274411316e+00  9.8035548237317709e+00  9.7828396795791548e+00  9.6782809553805667e+00  9.6649498672298115e+00  9.6548151748780597e+00  9.6721480162286788e+00  9.6716052800385803e+00  9.6658204481416572e+00  9.6478320571481895e+00  9.6437469145786228e+00  9.6275578045828851e+00  9.8064960477240835e+00  9.8064676482849364e+00  9.7797071167203278e+00  9.7712093537998133e+00  9.7493201416971420e+00  9.7819002636114654e+00  9.7732164022030226e+00  9.7542090999207556e+00  9.7590509730434274e+00  9.8003139353126869e+00  9.9382276074523190e+00  9.9186677240575492e+00  9.9461451607059761e+00  9.9223842137463638e+00  9.9148212558425275e+00  9.9121886531164236e+00  9.9559102594052344e+00  9.9302201911203714e+00  9.9060960459615863e+00  9.6637515605983850e+00  9.6711975884302337e+00  9.6799703011117355e+00  9.6736577086107811e+00  9.6578758763520796e+00  9.6495569480818730e+00  9.6942002052643641e+00  9.6859478112574706e+00  9.6782154934749371e+00  1.0203591056994611e+01  1.0218524951650668e+01  1.0216695139843925e+01  1.0213732359229866e+01  1.0221721900412662e+01  1.0232518375820629e+01  1.0226301400705189e+01  1.0225484108133855e+01  1.0229244019890739e+01  1.0234875276567067e+01  9.7049522229010332e+00  9.7318077919119332e+00  9.7057812341638812e+00  9.7288252209605375e+00  9.7315064640256566e+00  9.7610897759490438e+00  9.7609075948006048e+00  9.7559834305623543e+00  9.7306893744974445e+00  9.7077006483276307e+00  9.9615651165435590e+00  9.9550112751823079e+00  9.9827638177032352e+00  9.9405437077855670e+00  9.9789913658488789e+00  9.9903366257481352e+00  9.9944450851470350e+00  9.9236693496859729e+00  9.9616568187766230e+00  9.9988666201420227e+00  9.3324662793265443e+00  9.3492699401238255e+00  9.3468471990987343e+00  9.3482207974144291e+00  9.3339533902035701e+00  9.3466140651101490e+00  9.3350466151914855e+00  9.3611530781767449e+00  9.3626111486920873e+00  9.3651061882518576e+00  9.9884360818763511e+00  1.0055962211386449e+01  1.0049740581182455e+01  1.0021467662506968e+01  1.0022025175616523e+01  1.0054594345754117e+01  1.0083449854485190e+01  1.0046951897319172e+01  1.0076534359984580e+01  1.0107969272695417e+01  1.0051971136500013e+01  1.0029606582119426e+01  1.0085818223546527e+01  1.0047894709824952e+01  1.0032786024897812e+01  1.0008312003421429e+01  1.0062391704729606e+01  9.3322375645959532e+00  9.3533153178009805e+00  9.3469137452523778e+00  9.3426667813129995e+00  9.3525268432790902e+00  9.3712968138970467e+00  9.3645182168869905e+00  9.3588192482899206e+00  9.3592701544262589e+00  9.3804503145752669e+00  1.0190967545455594e+01  1.0214344617822217e+01  1.0224208461770180e+01  1.0194847472448057e+01  1.0223278466286253e+01  1.0211656970193651e+01  1.0245769872497904e+01  1.0237500009503979e+01  1.0202162134580716e+01  1.0233910108791193e+01  9.5649006935577656e+00  9.5986240684845647e+00  9.5695987436819507e+00  9.5931366309753727e+00  9.5935600931591605e+00  9.6188924834653715e+00  9.6177632211840720e+00  9.6210575350671217e+00  9.6005802261190354e+00  9.5781756548508667e+00  9.8378189322594505e+00  9.8183952654729740e+00  9.8353380176372500e+00  9.8170792860711096e+00  9.8003169162301695e+00  9.8210072524291121e+00  9.8021831275356597e+00  9.8235809140903907e+00  9.8372973242960118e+00  9.8017886213526761e+00  9.7542068678632035e+00  9.7472304357086905e+00  9.7569804899034303e+00  9.7693701937587480e+00  9.7381095939318829e+00  9.7315703021222824e+00  9.7466491769924737e+00  9.7380144697791131e+00  9.7240579079292164e+00  9.7785151264523975e+00  1.0228221379875505e+01  1.0198031592663849e+01  1.0180642633236051e+01  1.0206938850620926e+01  1.0221824363996358e+01  1.0204683322154489e+01  1.0187632236352208e+01  1.0202720600730304e+01  1.0218314169374983e+01  1.0185319109926281e+01  9.6471184449921026e+00  9.6411493432503192e+00  9.6416013483683702e+00  9.6578330534003864e+00  9.6291767354686630e+00  9.6092199821715791e+00  9.6528536827223856e+00  9.6240734800135641e+00  9.6677640299530694e+00  9.6396805473615839e+00  9.8617237383385596e+00  9.8206352868999911e+00  9.8121963194232436e+00  9.8596821062984432e+00  9.8752652720136194e+00  9.8694877490037740e+00  9.8619623565337147e+00  9.8513148107675352e+00  9.8116005021734320e+00  9.7763087640927147e+00  9.7230873973990111e+00  9.7258601685629937e+00  9.7134347505781715e+00  9.7171722490218695e+00  9.7137168944743753e+00  9.7261217612340989e+00  9.7095809965111748e+00  9.7037651241877985e+00  9.7204736244340584e+00  9.7379248673356535e+00  1.0285310334934691e+01  1.0265871829157213e+01  1.0257616947504147e+01  1.0288305488654354e+01  1.0287940818391972e+01  1.0264751295292818e+01  1.0256486725299212e+01  1.0230084047013094e+01  1.0237184506998171e+01  1.0245066166490258e+01  9.9555277332275072e+00  1.0000417820581358e+01  9.9402160413498208e+00  9.9797360666816264e+00  9.9114947805872440e+00  9.9798302861457220e+00  9.8771711058886087e+00  9.9335352499617660e+00  1.0007376324020480e+01  9.8825764473271214e+00  9.8629464613718056e+00  9.8858784222154217e+00  9.8500520965371390e+00  9.8929049364645270e+00  9.8729950093464716e+00  9.8667254590863500e+00  9.8440106987568416e+00  9.9003945605030488e+00  9.8255695203358950e+00  9.7168705282516754e+00  9.7081363330146839e+00  9.7128060958476308e+00  9.7053238999524840e+00  9.6964630887712975e+00  9.6973248121907520e+00  9.7037004240288436e+00  9.7104561237833149e+00  9.7035578395753479e+00  9.6974154628481752e+00  9.6552434482380782e+00  9.6486421191071869e+00  9.6660223970961194e+00  9.6595529709565380e+00  9.6356176969717033e+00  9.6157805331302200e+00  9.6389795325483245e+00  9.6618613104514974e+00  9.6689233354235977e+00  9.8759503939757174e+00  9.8144246313084977e+00  9.8448516224377158e+00  9.8727014435944369e+00  9.8249430239206905e+00  9.8230053396991135e+00  9.8664605394973108e+00  9.8441357668922205e+00  9.8197467721379041e+00  9.7369429269016212e+00  9.7415269711709520e+00  9.7386448335673279e+00  9.7379746273552659e+00  9.7380485430315087e+00  9.7404751416005784e+00  9.7383820396179352e+00  9.7408744956948112e+00  9.7429239541990711e+00  9.7414086105386719e+00  9.5784449719588736e+00  9.5446844380580718e+00  9.5229935901835443e+00  9.5577677884554841e+00  9.5953642489003741e+00  9.5402684652260117e+00  9.5064878798830854e+00  9.5778203505107165e+00  9.6088991589717185e+00  9.4799489255207980e+00  9.6985978276546518e+00  9.7091551386925321e+00  9.7121088973550371e+00  9.7043960244144980e+00  9.7010647756401180e+00  9.7073237790821949e+00  9.7147355887711466e+00  9.7088875912897521e+00  9.7054927910078241e+00  1.0297479676971772e+01  1.0270681599210411e+01  1.0289267315726720e+01  1.0297994210611707e+01  1.0269447606781178e+01  1.0236874507319552e+01  1.0260966730827654e+01  1.0294302662619572e+01  1.0291574073911391e+01  1.0289791645950121e+01  1.0260017925693253e+01  1.0283595822700839e+01  1.0283562204453956e+01  1.0264398749983485e+01  1.0287060641932820e+01  1.0286139181819717e+01  1.0275977950142980e+01  9.7318669044979451e+00  9.7294837912762802e+00  9.7143565485167631e+00  9.7179869196221418e+00  9.7168709744665129e+00  9.7202918552541213e+00  9.7229982200697354e+00  1.0191868829001407e+01  1.0236893867477580e+01  1.0236450227999860e+01  1.0222894675450265e+01  1.0275973763551745e+01  1.0287868504372211e+01  1.0259575651789557e+01  1.0289805307685095e+01  1.0291686250551463e+01  1.0287013435175476e+01  1.0255828224190534e+01  1.0287556516570051e+01  1.0025164769684636e+01  9.9729743699266002e+00  9.9751484287946788e+00  9.9890660216861331e+00  1.0008397496115784e+01  9.9924642448398533e+00  9.9563058283639805e+00  9.9542376612769363e+00  9.9400524838427078e+00  9.7299566573905985e+00  9.7315644921642832e+00  9.7241970230187427e+00  9.7241149918727761e+00  9.7285700029098212e+00  9.7302783172611953e+00  9.7366619488421673e+00  9.7352167423599454e+00  9.7349555907433700e+00  9.6416148892094231e+00  9.6710990161381325e+00  9.6641148846572449e+00  9.6604487930398051e+00  9.6502689560196178e+00  9.6587199187777451e+00  9.6673878702509821e+00  9.6808354512134223e+00  9.6826719236891599e+00  9.6845123848658901e+00  9.3586302743525618e+00  9.3788635420613069e+00  9.3697024499995987e+00  9.3789555774892346e+00  9.3667508919403684e+00  9.4026088317926657e+00  9.3925259556892744e+00  9.3904572576711818e+00  9.3757778882903189e+00  9.3833227268808770e+00  9.7749157016320254e+00  9.7793983936063107e+00  9.7847606000811513e+00  9.7829663987946329e+00  9.7698025776895214e+00  9.7661506764518329e+00  9.7806038379586582e+00  9.7886141717331814e+00  9.7897041804090161e+00  9.7921533672912684e+00  1.0240414840250210e+01  1.0256805753985294e+01  1.0252535254078136e+01  1.0240849264284757e+01  1.0230515597473136e+01  1.0223571251816262e+01  1.0115706107518349e+01  1.0112102968951953e+01  1.0118343016753725e+01  1.0131778998359769e+01  1.0120511498185277e+01  1.0117694267631116e+01  1.0136808572565757e+01  1.0074849411792130e+01  1.0056832864826067e+01  1.0055829783546136e+01  1.0090833954007030e+01  1.0031633472098834e+01  1.0028092391852422e+01  9.9841929092175388e+00  9.9871837037285651e+00  1.0108384618405095e+01  9.9924126266641284e+00  9.8118228685326461e+00  9.8373564861554641e+00  9.8422737883789804e+00  9.8229896254284075e+00  9.8282765928229630e+00  9.8502078254943974e+00  9.8324468286730795e+00  9.8545596655541097e+00  9.8434645202684692e+00  9.8327359642501388e+00  9.9956073872652436e+00  1.0021227865300238e+01  1.0027681426839671e+01  1.0026588124765093e+01  9.9910045274282364e+00  1.0039581194757687e+01  1.0078105076017494e+01  1.0063492363240943e+01  1.0053780567623361e+01  1.0151440700106679e+01  1.0169254872399604e+01  1.0105701223295304e+01  1.0176803995818801e+01  1.0129717928313703e+01  1.0109672340618109e+01  1.0131176671392481e+01  1.0113112871249500e+01  1.0155752769858966e+01  1.0202880358211960e+01  9.7448921913833235e+00  9.7461234685377338e+00  9.7466775994234869e+00  9.7569939323258712e+00  9.7398237482369261e+00  9.7560670951823507e+00  9.7311275834574662e+00  9.7627384153247068e+00  9.7652223419778874e+00  9.7676296947539498e+00  9.7674385456122099e+00  9.7780481263804990e+00  9.7740435922005187e+00  9.7648431258607467e+00  9.7692506122404605e+00  9.7758298421639562e+00  9.7837527699977365e+00  9.7628532991246058e+00  9.7686273520736506e+00  9.7733800254520151e+00  9.3318896241715770e+00  9.3150745999137285e+00  9.3269136456887303e+00  9.3227893853306316e+00  9.3217039848413652e+00  9.3364332031446153e+00  9.3138587084172002e+00  9.3453328020938553e+00  9.3323989871678474e+00  9.3176018419711735e+00  9.8471381668524440e+00  9.8519649031901793e+00  9.8521267939860895e+00  9.8577656638981477e+00  9.8453636804567832e+00  9.8697521439851386e+00  9.8625711124420210e+00  9.8548861279505946e+00  9.8445424686191831e+00  9.8527058274152708e+00  9.7435831823498571e+00  9.7425991368160751e+00  9.7453922348670581e+00  9.7584001545741703e+00  9