<?xml version="1.0"?>
<VTKFile type="UnstructuredGrid"  version="0.1"  >
<UnstructuredGrid>
<Piece  NumberOfPoints="8886" NumberOfCells="41275">
<Points>
<DataArray  type="Float64"  NumberOfComponents="3"  format="ascii">18.4178231269 10.0691760698 15.7691075096  18.6114162784 9.078150173199999 16.12628943235  18.5215561187 9.785475667699998 16.3306951993  19.3320145088 9.160867267899999 15.9711701441  18.5076832866 9.3618505753 15.56470174265  19.228281517 9.44456767 15.4095824544  18.5975434463 8.654525080799999 15.3602959757  18.6252891105 9.501775265599999 16.892282889  19.1288929051 8.344313056400001 16.710147796  18.8770910078 8.923044161 16.8012153425  19.427011 11.170297 15.340589  19.73287545355 9.9951281351 15.1953231996  19.5261035 10.954945 14.7836335  20.084356 10.8063455 14.688037  19.9852635 11.0216975 15.2449925  19.625196 10.739593 14.226678  18.330261 10.167871 14.220835  18.01004106345 9.512806534899999 15.0358062548  18.46390222315 9.411198040399999 14.79056548785  18.37404206345 10.1185235349 14.9949712548  17.96626 9.562154 14.26167  17.602259 8.956436999999999 14.302505  18.09990122315 8.8054810404 14.83140048785  17.84046372315 8.303763540399999 15.05103948785  18.38546472315 8.255159040399999 14.73087898785  17.628385 7.9043975 14.4216225  17.3428215 8.454719499999999 14.522144  17.8878225 8.406115 14.2019835  18.173386 7.855793 14.101462  17.083384 7.953002 14.741783  19.722429 10.766729 16.24448  19.57472 10.968513 15.7925345  20.1329725 10.8199135 15.696938  19.02150956345 10.4043845349 14.9978927548  18.92241706345 10.6197365349 15.5548482548  18.878636 10.669084 14.780712  18.9777285 10.453732 14.2237565  18.543391 9.5213895 13.937902  18.67703222315 8.764716540399998 14.50763248785  18.17939 8.915672499999999 13.978737  18.436869 11.628143 14.983512  18.383565 10.898007 14.6021735  19.0310325 11.183868 14.605095  18.93194 11.39922 15.1620505  18.951111 11.703931 16.140993  18.68446706345 10.8865535349 15.9550502548  19.189061 11.437114 15.740791  18.69399 11.666037 15.5622525  18.42734606345 10.8486595349 15.3763097548  18.92815 10.759405 17.184263  19.17385905525 10.1342521328 16.5683814445  18.77671955525 10.1305901328 17.0382729445  18.67298656345 10.4142905349 16.4766852548  19.3252895 10.763067 16.7143715  19.07012606345 10.4179525349 16.0067937548  19.33677 11.23533 16.1927365  19.18450045355 9.4939151351 14.6354461996  18.879736 9.951857 13.8635965  19.429211 9.735842999999999 13.506358  18.0281468191 7.767299583650001 14.878714218  17.4831458191 7.81590408365 15.198874718  18.24022554225 8.166665624049999 15.50813120585  17.8829076382 7.6788061673 15.655966436  17.9157985 7.2893715 14.49596  17.3707975 7.337975999999999 14.8161205  17.658211 6.72295 14.890458  17.7705593191 7.20087808365 15.273212218  19.3490295 10.373883 17.17933  19.746169 10.377545 16.7094385  19.769909 9.988360999999999 17.174397  19.19759905525 9.7450681328 17.0333399445  19.5272035 10.237718 13.866518  18.9396305 11.231668 16.662628  15.241096 13.826941 21.699535  14.97176780085 14.3605711114 21.10417630185  14.14627 13.993233 21.6876  14.298682 14.495641 21.69293  13.356268 15.164341 21.686325  13.87694180085 14.5268631114 21.09224130185  14.02935380085 15.0292711114 21.09757130185  13.203856 14.661933 21.680995  13.051444 14.159525 21.675665  14.7024396017 14.8942012228 20.5088176037  8.694269 23.215811 21.970953  8.4479425247 22.53165132465 22.65539710945  8.6817160247 23.07485582465 22.64400810945  9.0976430247 22.81369582465 22.78675410945  8.6691630494 22.9339006493 23.3170632189  8.336409 23.943047 22.443556  7.36451937785 23.0005851172 22.8171628424  7.56093587785 22.6758216172 22.4063513424  7.96238437785 22.9548631172 22.8733733424  7.9349605 23.6640055 21.976534  7.738544 23.988769 22.3873455  7.533512 23.384964 21.509512  7.3370955 23.7097275 21.9203235  7.140679 24.034491 22.331135  7.5883597557 21.9666792344 23.3031906848  3.785655 12.112686 25.211628  3.27524959655 11.63849734265 24.8638158457  3.6720827516 12.110184029 24.2368504454  3.1190934016 12.5579400788 24.2804215254  2.4525318032 13.0031941576 23.3492150508  2.60868799815 12.08375142145 23.9326093711  3.0055211532 12.5554381078 23.3056439708  3.5585105032 12.107682058 23.2620728908  3.16167734815 11.63599537165 23.8890382911  2.7648441931 11.1643086853 24.5160036914  5.264389 10.63871 24.848799  4.57482705495 10.13842699415 24.1029036956  4.3719977277 10.11483320425 24.55733399125  4.55605855495 10.68407999415 24.1667396956  5.2831575 10.093057 24.784963  5.301926 9.547404 24.721127  4.3907662277 9.569180204249999 24.49349799125  3.8477281099 10.7294499883 23.4846803912  3.66366728265 10.1602031984 23.87527468685  3.4796064554 9.5909564085 24.2658689825  3.59024 13.270367 24.966433  3.282291 12.408072 25.4412385  3.17754209655 12.21733784265 24.7412183457  3.1845835 12.9869125 25.318641  3.6879475 12.6915265 25.0890305  2.77188559655 11.93388334265 25.0934263457  2.778927 12.703458 25.670849  6.629592 11.985273 20.433214  6.30323397805 11.5833880142 21.69715612465  6.800514478049999 11.2401695142 21.51694062465  6.83434697805 11.9176345142 21.21100062465  6.5957595 11.307808 20.739154  6.098478999999999 11.6510265 20.9193695  6.561927 10.630343 21.045094  6.0646465 10.9735615 21.2253095  5.567366 11.31678 21.405525  7.0391019561 11.8499960284 21.9887872493  5.630404 12.83498 23.187777  5.5278879028 11.98258384425 22.9816194502  5.598885 12.07588 22.296651  5.466239 12.5991375 22.191001  5.302074 12.363295 21.194225  5.3637229028 11.74674134425 21.9848434502  5.43472 11.8400375 21.299875  5.4963689028 11.22348384425 22.0904934502  5.4253718056 11.1301876885 22.7754619004  8.281565499999999 23.0362245 22.2186435  8.226722000000001 22.129402 21.993731  7.90754087785 22.0480406172 22.6484608424  7.880117 22.757183 21.7516215  14.5451544546 13.59241784185 22.6115104432  14.133095 13.3852235 21.793844  5.837692 11.298546 24.070456  5.3448804028 10.88444884425 23.8121304502  5.834789902800001 10.68880534425 23.5009749502  5.6315319028 11.21436684425 23.4229589502  5.754298500000001 10.4430665 24.5376435  5.5510405 10.968628 24.4596275  6.04095 10.7729845 24.148472  6.244208 10.247423 24.226488  3.44206 7.830395 24.36145  2.241832874 8.2179501489 23.9690433883  2.8614724805 8.510884700949999 23.97999131855  2.542653874 8.418368148900001 24.5719323883  3.141239 7.629977 23.758561  2.840418 7.429559 23.155672  2.5606514805 8.31046670095 23.37710231855  1.643247748 9.006341297800001 24.7824147766  1.9620663545 9.098857849849999 24.19047370685  2.280884961 9.191374401899999 23.5985326371  7.697881 12.277783 23.641085  7.02162997805 11.4646710142 22.93877262465  7.36849147805 12.0638895142 22.81493612465  7.975391375699999 11.5394004692 22.9529173998  7.3510195 11.6785645 23.7649215  7.004158 11.079346 23.888758  7.6285298757 10.9401819692 23.0767538998  8.2529017514 10.8010179384 22.2647497996  7.64600185375 11.3255069834 22.12676852445  2.789108 11.928631 21.70204  2.636268821 12.0035140694 23.0904481694  2.2515675694 11.9139885404 22.310431724  2.6208199016 12.4659125788 22.5256275254  3.1738092516 12.018156529 22.4820564454  2.083279471 12.4512701192 23.1340192494  1.7140271388 11.8993460808 22.918823448  6.33475297805 12.3424880142 22.58828212465  6.170587978049999 12.1066455142 21.59150612465  6.366869 12.02584 23.445835  6.232236880849999 11.49009185845 22.38212457485  6.70298547805 11.9379180142 22.71731112465  5.8961204028 11.57801384425 23.1106484502  5.9986365 12.43041 23.316806  8.794687176049999 11.98875267065 23.5871558094  7.9180165 11.6841595 23.9748325  8.138152 11.090536 24.30858  8.195526875700001 10.9457769692 23.2866648998  4.322544 8.819406000000001 25.251276  3.4608332277 8.710675704250001 24.31365949125  3.16045285185 8.89913467785 24.93393285425  3.9010752277 9.20518120425 24.75857249125  3.882302 8.3249005 24.806363  3.60069485185 9.393640177849999 25.37884585425  2.8788457037 9.967874355699999 25.5064157085  3.17922607955 9.7794153821 24.8861423455  4.517919 8.650672 23.983541  3.4719327277 9.01718870425 23.59913549125  4.0274647277 9.19986270425 23.61419099125  3.9987627277 9.120814204249999 24.12470499125  3.991089 8.5470465 23.4579715  4.546621 8.729720499999999 23.473027  4.575323 8.808769 22.962513  4.019791 8.626094999999999 22.9474575  3.464259 8.443421000000001 22.932402  3.4531595 8.136908 23.646926  2.8725719805 8.81739770095 23.26546731855  2.8802457082 9.391165405199999 23.9322008098  3.9799895 8.2405335 24.1724955  4.4202315 8.735039 24.6174085  5.3636489028 10.33879584425 23.7482944502  5.773067 9.897413499999999 24.4738075  5.693756902800001 10.12578884425 23.2354404502  5.632034 9.334396999999999 24.208273  6.103175 9.6844065 23.9609535  5.962142 9.12139 23.695419  4.84271005495 11.01399799415 23.7775681956  4.63654995775 10.9298188384 23.1300711458  4.90493505495 9.925419994150001 23.5900496956  5.725605 9.168137999999999 23.094758  5.489068 9.214886 22.494097  5.4572199028 10.17253684425 22.6347794502  4.66839805495 9.97216799415 22.9893886956  1.581332 8.521210999999999 22.647795  0.8757485948 8.81100844865 23.4193914345  1.2529910948 9.22328944865 23.2979404345  0.540666 8.650968499999999 22.9971715  1.2040895 8.108929999999999 22.769246  -0.5 8.780726 23.346548  0.2123250948 9.35304694865 23.6473169345  0.9246501896 9.925367897299999 23.948085869  6.20676268795 10.91388767995 21.97712428185  5.5271385 10.7500065 21.5968205  5.486911 10.183233 21.788116  6.16653518795 10.34711417995 22.16841978185  5.4561414028 10.65671034425 22.2817889502  6.13576559075 10.8205915242 22.66209273205  6.8461593759 10.5109953599 22.5487235637  2.5614271017 9.29864885315 24.52414187955  1.559246 10.707461 22.2085  0.6070135694 11.4373355404 23.148860224  1.6366365694 11.3034035404 22.563661724  1.4146728393 11.0080870037 23.1559428292  0.529623 10.841393 22.7936985  -0.5 10.975325 23.378897  0.3850498393 11.1420190037 23.7411413292  1.2700996786 11.3087130074 24.1033856584  1.4920634087 11.6040295441 23.5111045
[...]
<PointData  Scalars="p"> 
<DataArray  type="Float64"  Name="p"  format="ascii">7.9999999994123741e+00  7.9999999994195523e+00  7.9999999994132143e+00  7.9999999994295532e+00  7.9999999994191695e+00  7.9999999994297646e+00  7.9999999994252136e+00  7.9999999994144595e+00  7.9999999994281978e+00  7.9999999994215676e+00  7.9999999994209254e+00  7.9999999994359978e+00  7.9999999994297628e+00  7.9999999994447215e+00  7.9999999994352082e+00  7.9999999994400843e+00  7.9999999994207931e+00  7.9999999994139159e+00  7.9999999994227968e+00  7.9999999994158415e+00  7.9999999994185451e+00  7.9999999994158770e+00  7.9999999994203925e+00  7.9999999994176099e+00  7.9999999994277564e+00  7.9999999994207602e+00  7.9999999994123794e+00  7.9999999994237987e+00  7.9999999994318465e+00  7.9999999994081117e+00  7.9999999994234017e+00  7.9999999994220055e+00  7.9999999994351949e+00  7.9999999994235091e+00  7.9999999994162252e+00  7.9999999994206590e+00  7.9999999994291544e+00  7.9999999994302957e+00  7.9999999994309547e+00  7.9999999994273754e+00  7.9999999993997202e+00  7.9999999994123669e+00  7.9999999994197131e+00  7.9999999994107149e+00  7.9999999993972608e+00  7.9999999994076587e+00  7.9999999994092814e+00  7.9999999993987636e+00  7.9999999994079554e+00  7.9999999994063931e+00  7.9999999994183977e+00  7.9999999994110826e+00  7.9999999994095941e+00  7.9999999994141007e+00  7.9999999994174926e+00  7.9999999994109663e+00  7.9999999994339941e+00  7.9999999994339523e+00  7.9999999994466959e+00  7.9999999994241771e+00  7.9999999994135207e+00  7.9999999994217932e+00  7.9999999994184767e+00  7.9999999994284812e+00  7.9999999994164952e+00  7.9999999994259268e+00  7.9999999994212647e+00  7.9999999994160236e+00  7.9999999994244293e+00  7.9999999994257873e+00  7.9999999994197948e+00  7.9999999994437179e+00  7.9999999994033324e+00  7.9999999993650945e+00  7.9999999993657047e+00  7.9999999993639355e+00  7.9999999993643822e+00  7.9999999993640349e+00  7.9999999993645847e+00  7.9999999993652295e+00  7.9999999993632969e+00  7.9999999993627666e+00  7.9999999993664632e+00  7.9999999993254658e+00  7.9999999993247952e+00  7.9999999993271595e+00  7.9999999993306297e+00  7.9999999993288524e+00  7.9999999993247872e+00  7.9999999993174855e+00  7.9999999993171134e+00  7.9999999993220765e+00  7.9999999993191375e+00  7.9999999993192095e+00  7.9999999993135349e+00  7.9999999993137667e+00  7.9999999993140154e+00  7.9999999993204360e+00  7.9999999992950519e+00  7.9999999992945030e+00  7.9999999992962518e+00  7.9999999992951425e+00  7.9999999992954169e+00  7.9999999992947313e+00  7.9999999992961666e+00  7.9999999992974899e+00  7.9999999992955857e+00  7.9999999992939808e+00  7.9999999992997299e+00  7.9999999992986890e+00  7.9999999992967501e+00  7.9999999992988213e+00  7.9999999992996669e+00  7.9999999992995594e+00  7.9999999992964739e+00  7.9999999992977147e+00  7.9999999992960351e+00  7.9999999992944488e+00  7.9999999992954587e+00  7.9999999992942419e+00  7.9999999992946345e+00  7.9999999992946327e+00  7.9999999992952127e+00  7.9999999992937232e+00  7.9999999992939621e+00  7.9999999993146007e+00  7.9999999993124966e+00  7.9999999993156825e+00  7.9999999993148876e+00  7.9999999993158255e+00  7.9999999993126130e+00  7.9999999993166595e+00  7.9999999993131423e+00  7.9999999993096758e+00  7.9999999993159161e+00  7.9999999993059072e+00  7.9999999993061257e+00  7.9999999993073114e+00  7.9999999993061897e+00  7.9999999993072839e+00  7.9999999993068389e+00  7.9999999993085718e+00  7.9999999993078443e+00  7.9999999993064650e+00  7.9999999993224353e+00  7.9999999993201971e+00  7.9999999993201492e+00  7.9999999993170157e+00  7.9999999993637161e+00  7.9999999993636477e+00  7.9999999993061630e+00  7.9999999993036459e+00  7.9999999993077697e+00  7.9999999993063895e+00  7.9999999993036734e+00  7.9999999993027044e+00  7.9999999993075672e+00  7.9999999993094546e+00  7.9999999992917052e+00  7.9999999992909743e+00  7.9999999992921129e+00  7.9999999992911484e+00  7.9999999992912798e+00  7.9999999992909920e+00  7.9999999992917825e+00  7.9999999992908295e+00  7.9999999992914699e+00  7.9999999992924158e+00  7.9999999993230855e+00  7.9999999993165520e+00  7.9999999993182342e+00  7.9999999993229380e+00  7.9999999993204565e+00  7.9999999993174837e+00  7.9999999993213500e+00  7.9999999993236282e+00  7.9999999993197690e+00  7.9999999992963575e+00  7.9999999992954365e+00  7.9999999992951656e+00  7.9999999992958806e+00  7.9999999992970210e+00  7.9999999992947624e+00  7.9999999992942321e+00  7.9999999993111501e+00  7.9999999993111111e+00  7.9999999993115383e+00  7.9999999993115054e+00  7.9999999993139195e+00  7.9999999993084838e+00  7.9999999993085025e+00  7.9999999993303010e+00  7.9999999993263859e+00  7.9999999993301421e+00  7.9999999993256070e+00  7.9999999992932747e+00  7.9999999992931512e+00  7.9999999992920250e+00  7.9999999992940376e+00  7.9999999992926591e+00  7.9999999992924247e+00  7.9999999992919584e+00  7.9999999992930126e+00  7.9999999992969046e+00  7.9999999992945234e+00  7.9999999992965343e+00  7.9999999992954471e+00  7.9999999992955511e+00  7.9999999992983248e+00  7.9999999992995496e+00  7.9999999992964739e+00  7.9999999992941015e+00  7.9999999992927977e+00  7.9999999992930713e+00  7.9999999992932889e+00  7.9999999992937694e+00  7.9999999992950306e+00  7.9999999993039710e+00  7.9999999993037738e+00  7.9999999993076223e+00  7.9999999993035749e+00  7.9999999993092281e+00  7.9999999993095212e+00  7.9999999993009849e+00  7.9999999993014814e+00  7.9999999993015116e+00  7.9999999993088942e+00  7.9999999993080895e+00  7.9999999993071693e+00  7.9999999993014690e+00  7.9999999992913491e+00  7.9999999992906137e+00  7.9999999992913517e+00  7.9999999992903739e+00  7.9999999992905746e+00  7.9999999992904449e+00  7.9999999992907416e+00  7.9999999992915010e+00  7.9999999993124877e+00  7.9999999993094146e+00  7.9999999993091082e+00  7.9999999993126565e+00  7.9999999993076356e+00  7.9999999993112541e+00  7.9999999993164268e+00  7.9999999992919726e+00  7.9999999992936583e+00  7.9999999992927480e+00  7.9999999992939106e+00  7.9999999992930944e+00  7.9999999992924185e+00  7.9999999992920641e+00  7.9999999992921369e+00  7.9999999992927178e+00  7.9999999992933972e+00  7.9999999992924744e+00  7.9999999992924549e+00  7.9999999992932898e+00  7.9999999992917283e+00  7.9999999992916973e+00  7.9999999992913464e+00  7.9999999992913589e+00  7.9999999992942374e+00  7.9999999992932223e+00  7.9999999992923767e+00  7.9999999992941229e+00  7.9999999993236210e+00  7.9999999993215809e+00  7.9999999993187885e+00  7.9999999993188089e+00  7.9999999993143085e+00  7.9999999993144701e+00  7.9999999993174580e+00  7.9999999992931814e+00  7.9999999992945323e+00  7.9999999992939630e+00  7.9999999992931699e+00  7.9999999992903863e+00  7.9999999992904769e+00  7.9999999992902016e+00  7.9999999992900230e+00  7.9999999992961239e+00  7.9999999992953770e+00  7.9999999992925099e+00  7.9999999992927666e+00  7.9999999992917523e+00  7.9999999992924673e+00  7.9999999992919859e+00  7.9999999992937179e+00  7.9999999992917621e+00  7.9999999992921031e+00  7.9999999992930046e+00  7.9999999992927426e+00  7.9999999992923199e+00  7.9999999992920676e+00  7.9999999992916591e+00  7.9999999992903792e+00  7.9999999992944577e+00  7.9999999992918447e+00  7.9999999992929931e+00  7.9999999992927719e+00  7.9999999992927453e+00  7.9999999992914201e+00  7.9999999992915161e+00  7.9999999992919415e+00  7.9999999992918180e+00  7.9999999992903676e+00  7.9999999992905737e+00  7.9999999992898134e+00  7.9999999992902797e+00  7.9999999992963122e+00  7.9999999992965787e+00  7.9999999992946407e+00  7.9999999993269038e+00  7.9999999993240092e+00  7.9999999993261408e+00  7.9999999993244648e+00  7.9999999993230269e+00  7.9999999993250146e+00  7.9999999992908766e+00  7.9999999992910222e+00  7.9999999992908366e+00  7.9999999992914770e+00  7.9999999992910187e+00  7.9999999992912709e+00  7.9999999992916928e+00  7.9999999993641113e+00  7.9999999993646949e+00  7.9999999993650404e+00  7.9999999993655511e+00  7.9999999992908872e+00  7.9999999992909805e+00  7.9999999992905924e+00  7.9999999992903241e+00  7.9999999992948094e+00  7.9999999992943547e+00  7.9999999992949622e+00  7.9999999992947615e+00  7.9999999992942357e+00  7.9999999992942845e+00  7.9999999992938999e+00  7.9999999992939239e+00  7.9999999993017026e+00  7.9999999992991953e+00  7.9999999992986242e+00  7.9999999992983062e+00  7.9999999993310311e+00  7.9999999993678266e+00  7.9999999993670725e+00  7.9999999993683639e+00  7.9999999993675344e+00  7.9999999993693383e+00  7.9999999993672173e+00  7.9999999993659863e+00  7.9999999992964241e+00  7.9999999992952588e+00  7.9999999992948014e+00  7.9999999992946327e+00  7.9999999992941193e+00  7.9999999992938262e+00  7.9999999993115978e+00  7.9999999993164748e+00  7.9999999993104858e+00  7.9999999993112905e+00  7.9999999992947703e+00  7.9999999992962669e+00  7.9999999993160040e+00  7.9999999993192299e+00  7.9999999993202877e+00  7.9999999993161817e+00  7.9999999992957607e+00  7.9999999992954534e+00  7.9999999992956594e+00  7.9999999992975832e+00  7.9999999992931841e+00  7.9999999992930713e+00  7.9999999992932551e+00  7.9999999992988906e+00  7.9999999992959845e+00  7.9999999992984128e+00  7.9999999992974313e+00  7.9999999992971365e+00  7.9999999993132391e+00  7.9999999992929496e+00  7.9999999992933759e+00  7.9999999992930828e+00  7.9999999992922692e+00  7.9999999992942783e+00  7.9999999992941033e+00  7.9999999992929585e+00  7.9999999992909707e+00  7.9999999992910897e+00  7.9999999992922017e+00  7.9999999992927275e+00  7.9999999992919637e+00  7.9999999992915756e+00  7.9999999992902122e+00  7.9999999992905391e+00  7.9999999992902291e+00  7.9999999993633732e+00  7.9999999993031299e+00  7.9999999993024655e+00  7.9999999992986126e+00  7.9999999992992423e+00  7.9999999992916173e+00  7.9999999992910613e+00  7.9999999992915232e+00  7.9999999992906421e+00  7.9999999992909254e+00  7.9999999993028812e+00  7.9999999993042712e+00  7.9999999993052198e+00  7.9999999993032898e+00  7.9999999993021431e+00  7.9999999993005577e+00  7.9999999992921049e+00  7.9999999993056443e+00  7.9999999993066311e+00  7.9999999993037418e+00  7.9999999993049080e+00  7.9999999993229496e+00  7.9999999993137498e+00  7.9999999993188595e+00  7.9999999993200435e+00  7.9999999993172972e+00  7.9999999992906607e+00  7.9999999992924185e+00  7.9999999992915587e+00  7.9999999992920676e+00  7.9999999992963087e+00  7.9999999992939879e+00  7.9999999992934887e+00  7.9999999992944142e+00  7.9999999992900772e+00  7.9999999992965929e+00  7.9999999992912985e+00  7.9999999992970778e+00  7.9999999992952420e+00  7.9999999992942818e+00  7.9999999993023980e+00  7.9999999993045883e+00  7.9999999993042383e+00  7.9999999993026067e+00  7.9999999993004849e+00  7.9999999993088098e+00  7.9999999993141104e+00  7.9999999992957784e+00  7.9999999992980637e+00  7.9999999992963877e+00  7.9999999992961701e+00  7.9999999993186668e+00  7.9999999993205435e+00  7.9999999993168744e+00  7.9999999993202016e+00  7.9999999992916750e+00  7.9999999993065662e+00  7.9999999993041984e+00  7.9999999992907362e+00  7.9999999992907060e+00  7.9999999992911563e+00  7.9999999992929558e+00  7.9999999992939923e+00  7.9999999992900852e+00  7.9999999992907878e+00  7.9999999992903970e+00  7.9999999993659543e+00  7.9999999993675228e+00  7.9999999993671800e+00  7.9999999992964179e+00  7.9999999993658948e+00  7.9999999993662581e+00  7.9999999993649284e+00  7.9999999993660973e+00  7.9999999993664055e+00  7.9999999993663611e+00  7.9999999993651061e+00  7.9999999992901083e+00  7.9999999992905666e+00  7.9999999992919770e+00  7.9999999992915027e+00  7.9999999992912425e+00  7.9999999992912141e+00  7.9999999992928306e+00  7.9999999992913091e+00  7.9999999992941913e+00  7.9999999992957056e+00  7.9999999992913366e+00  7.9999999992916218e+00  7.9999999992910293e+00  7.9999999992931858e+00  7.9999999992915036e+00  7.9999999992921937e+00  7.9999999993058744e+00  7.9999999993030064e+00  7.9999999993136992e+00  7.9999999992940598e+00  7.9999999992911208e+00  7.9999999992909441e+00  7.9999999992906288e+00  7.9999999992914299e+00  7.9999999992913811e+00  7.9999999992986686e+00  7.9999999992997646e+00  7.9999999992990931e+00  7.9999999992983071e+00  7.9999999992975610e+00  7.9999999992973150e+00  7.9999999993008997e+00  7.9999999992985407e+00  7.9999999993024344e+00  7.9999999993137827e+00  7.9999999992936077e+00  7.9999999992950510e+00  7.9999999993004662e+00  7.9999999993235233e+00  7.9999999993194413e+00  7.9999999992910169e+00  7.9999999993293338e+00  7.9999999993652073e+00  7.9999999992909583e+00  7.9999999993197930e+00  7.9999999993133963e+00  7.9999999993162616e+00  7.9999999993234860e+00  7.9999999993235758e+00  7.9999999993261515e+00  7.9999999993174464e+00  7.9999999993212541e+00  7.9999999993195647e+00  7.9999999993216599e+00  7.9999999993045297e+00  7.9999999992913233e+00  7.9999999992925845e+00  7.9999999992921023e+00  7.9999999992984119e+00  7.9999999992975122e+00  7.9999999992999902e+00  7.9999999992999182e+00  7.9999999993000053e+00  7.9999999993011910e+00  7.9999999993022550e+00  7.9999999993009299e+00  7.9999999992991073e+00  7.9999999992976489e+00  7.9999999992976605e+00  7.9999999992961985e+00  7.9999999992980690e+00  7.9999999992902353e+00  7.9999999992905693e+00  7.9999999993656514e+00  7.9999999993003081e+00  7.9999999992959649e+00  7.9999999992934852e+00  7.9999999992980868e+00  7.9999999993032525e+00  7.9999999992926876e+00  7.9999999993110169e+00  7.9999999992961595e+00  7.9999999992964534e+00  7.9999999992910471e+00  7.9999999992948041e+00  7.9999999993260706e+00  7.9999999993271595e+00  7.9999999993227551e+00  7.9999999993227933e+00  7.9999999992995772e+00  7.9999999993138227e+00  7.9999999993085247e+00  7.9999999993127799e+00  7.9999999993138964e+00  7.9999999993165014e+00  7.9999999992937560e+00  7.9999999992907398e+00  7.9999999993032231e+00  7.9999999993016520e+00  7.9999999992907567e+00  7.9999999993019566e+00  7.9999999992996456e+00  7.9999999992961586e+00  7.9999999993170965e+00  7.9999999993031050e+00  7.9999999993040083e+00  7.9999999994066178e+00  7.9999999994167537e+00  7.9999999994115436e+00  7.9999999994169499e+00  7.9999999994104591e+00  7.9999999993220321e+00  7.9999999993237774e+00  7.9999999993214663e+00  7.9999999993214335e+00  7.9999999993219282e+00  7.9999999993233031e+00  7.9999999993241238e+00  7.9999999993214335e+00  7.9999999993211892e+00  7.9999999993272324e+00  7.9999999992959667e+00  7.9999999992963247e+00  7.9999999992963406e+00  7.9999999992960094e+00  7.9999999992962465e+00  7.9999999992962563e+00  7.9999999992966826e+00  7.9999999992965982e+00  7.9999999992965654e+00  7.9999999992964099e+00  7.9999999992958006e+00  7.9999999992959179e+00  7.9999999992958433e+00  7.9999999992954374e+00  7.9999999992954089e+00  7.9999999992957846e+00  7.9999999992957784e+00  7.9999999992962048e+00  7.9999999992962119e+00  7.9999999992963486e+00  7.9999999993028323e+00  7.9999999993023145e+00  7.9999999993017896e+00  7.9999999993029434e+00  7.9999999993023723e+00  7.9999999993019300e+00  7.9999999993012496e+00  7.9999999993013757e+00  7.9999999993018234e+00  7.9999999993030952e+00  7.9999999993239612e+00  7.9999999993241753e+00  7.9999999993254747e+00  7.9999999993230198e+00  7.9999999992938884e+00  7.9999999992938777e+00  7.9999999992940580e+00  7.9999999992937036e+00  7.9999999992939390e+00  7.9999999992943795e+00  7.9999999992942428e+00  7.9999999992942339e+00  7.9999999992946442e+00  7.9999999992946798e+00  7.9999999992973354e+00  7.9999999992966639e+00  7.9999999992967110e+00  7.9999999992964304e+00  7.9999999992977040e+00  7.9999999992975521e+00  7.9999999992986144e+00  7.9999999992983932e+00  7.9999999992959285e+00  7.9999999992981641e+00  7.9999999993767297e+00  7.9999999993737596e+00  7.9999999993750732e+00  7.9999999993753521e+00  7.9999999993749746e+00  7.9999999993763034e+00  7.9999999993766258e+00  7.9999999993751167e+00  7.9999999993737108e+00  7.9999999993737267e+00  7.9999999993204920e+00  7.9999999993227711e+00  7.9999999993220436e+00  7.9999999993224611e+00  7.9999999993217763e+00  7.9999999993226893e+00  7.9999999993231938e+00  7.9999999993256665e+00  7.9999999993247775e+00  7.9999999993239426e+00  7.9999999992989963e+00  7.9999999992991224e+00  7.9999999992990452e+00  7.9999999992983302e+00  7.9999999992989590e+00  7.9999999992993880e+00  7.9999999992986561e+00  7.9999999992983915e+00  7.9999999992984829e+00  7.9999999992988782e+00  7.9999999993452180e+00  7.9999999993391029e+00  7.9999999993445527e+00  7.9999999993393081e+00  7.9999999993390931e+00  7.9999999993341842e+00  7.9999999993345696e+00  7.9999999993335598e+00  7.9999999993380149e+00  7.9999999993433955e+00  7.9999999993094546e+00  7.9999999993097077e+00  7.9999999993063229e+00  7.9999999993106989e+00  7.9999999993085966e+00  7.9999999993072297e+00  7.9999999993076774e+00  7.9999999993052677e+00  7.9999999993080149e+00  7.9999999993114352e+00  7.9999999993282769e+00  7.9999999993242845e+00  7.9999999993221520e+00  7.9999999993269881e+00  7.9999999993253992e+00  7.9999999993218216e+00  7.9999999993191269e+00  7.9999999993257278e+00  7.9999999993213269e+00  7.9999999993170157e+00  7.9999999993942676e+00  7.9999999993937578e+00  7.9999999993985353e+00  7.9999999993944835e+00  7.9999999993929523e+00  7.9999999993916795e+00  7.9999999993969038e+00  7.9999999994011155e+00  7.9999999993958815e+00  7.9999999993908064e+00  7.9999999993771027e+00  7.9999999993775424e+00  7.9999999993758957e+00  7.9999999993785940e+00  7.9999999993758424e+00  7.9999999993742907e+00  7.9999999993743298e+00  7.9999999993797113e+00  7.9999999993771489e+00  7.9999999993745243e+00  7.9999999993155679e+00  7.9999999993103010e+00  7.9999999993124602e+00  7.9999999993131317e+00  7.9999999993131761e+00  7.9999999993108011e+00  7.9999999993101500e+00  7.9999999993106723e+00  7.9999999993107238e+00  7.9999999993096598e+00  7.9999999992970405e+00  7.9999999992964863e+00  7.9999999992968256e+00  7.9999999992959347e+00  7.9999999992965840e+00  7.9999999992962376e+00  7.9999999992956408e+00  7.9999999992954702e+00  7.9999999992962731e+00  7.9999999992974304e+00  7.9999999992951887e+00  7.9999999992948441e+00  7.9999999992958681e+00  7.9999999992944195e+00  7.9999999992939852e+00  7.9999999992963993e+00  7.9999999993770690e+00  7.9999999993770166e+00  7.9999999993776534e+00  7.9999999993797921e+00  7.9999999993764517e+00  7.9999999993829674e+00  7.9999999993800310e+00  7.9999999993797548e+00  7.9999999993760831e+00  7.9999999993780264e+00  7.9999999992976054e+00  7.9999999992970174e+00  7.9999999992975184e+00  7.9999999992976996e+00  7.9999999992976809e+00  7.9999999992970343e+00  7.9999999992975921e+00  7.9999999992976205e+00  7.9999999992968744e+00  7.9999999992965911e+00  7.9999999993621236e+00  7.9999999993671205e+00  7.9999999993640367e+00  7.9999999993659685e+00  7.9999999993659765e+00  7.9999999993696154e+00  7.9999999993671791e+00  7.9999999993695114e+00  7.9999999993699014e+00  7.9999999993658522e+00  7.9999999993052651e+00  7.9999999993040314e+00  7.9999999993037578e+00  7.9999999993042881e+00  7.9999999993034319e+00  7.9999999993026529e+00  7.9999999993031956e+00  7.9999999993026778e+00  7.9999999993023305e+00  7.9999999993033075e+00  7.9999999993035651e+00  7.9999999993013287e+00  7.9999999993020054e+00  7.9999999993030277e+00  7.9999999993024833e+00  7.9999999993008677e+00  7.9999999993013402e+00  7.9999999993003819e+00  7.9999999992998978e+00  7.9999999992996669e+00  7.9999999992961168e+00  7.9999999992949649e+00  7.9999999992951167e+00  7.9999999992959712e+00  7.9999999992949746e+00  7.9999999992940021e+00  7.9999999992943334e+00  7.9999999992959694e+00  7.9999999992951407e+00  7.9999999992947393e+00  7.9999999992946709e+00  7.9999999992944693e+00  7.9999999992946007e+00  7.9999999992947419e+00  7.9999999992943289e+00  7.9999999992941220e+00  7.9999999992943192e+00  7.9999999992949435e+00  7.9999999992947384e+00  7.9999999992948538e+00  7.9999999993877209e+00  7.9999999993919868e+00  7.9999999993883240e+00  7