<?xml version="1.0"?>
<VTKFile type="UnstructuredGrid"  version="0.1"  >
<UnstructuredGrid>
<Piece  NumberOfPoints="8819" NumberOfCells="41470">
<Points>
<DataArray  type="Float64"  NumberOfComponents="3"  format="ascii">16.901419 20.983809 46.5  16.16315452505 21.3313452537 46.12383394755  15.99232 21.0672435 46.5  16.57622652505 20.9553937537 46.12383394755  16.488347 21.3597605 46.5  16.405392 20.691292 46.5  16.075275 21.735712 46.5  15.909365 20.398775 46.5  16.08019952505 20.6628767537 46.12383394755  16.2510340501 20.9269785074 45.7476678951  16.010893 24.303782 43.93792  15.40945235285 23.8802259172 43.3375374253  15.3628795 24.274546 44.000214  15.688551 23.903433 44.217436  15.366209 23.503084 44.496952  15.08711035285 23.4798769172 43.6170534253  15.0405375 23.874197 44.27973  14.714866 24.24531 44.062508  14.76143885285 23.8509899172 43.3998314253  14.8080117057 23.4566698344 42.7371548506  16.793604 22.656069 37.858749  17.7866726528 23.23127850565 38.5758259939  17.67897629685 23.2775883771 37.87648594380001  17.6109395011 22.552727304 38.46856117670001  18.4282750022 22.449385608 39.0783733534  18.6040081539 23.12793680965 39.1856381706  18.49631179795 23.1742466811 38.4862981205  18.5643485937 23.8991077542 37.8942228876  18.67204494965 23.85279788275 38.5935629377  18.7797413056 23.8064880113 39.2929029878  19.396814 24.340477 28.886408  19.32687281565 25.1253757617 28.09079646435  19.00482531565 24.4073897617 28.09011846435  18.96665866645 25.3258948237 28.409958568  19.7188615 25.058463 28.887086  20.040909 25.776449 28.887764  19.28870616645 26.0438808237 28.410636568  18.5365033329 26.3113126474 27.933509136  18.5746699821 25.3928075854 27.61366903235  18.6128366313 24.4743025234 27.2938289287  21.520784 20.836758 30.439722  21.833626 21.1857015 31.181908  21.662792 20.964494 31.2233685  21.6111545 20.5734895 30.9250175  21.7432555 21.44897 30.6966125  21.965727 22.061182 30.953503  21.8852635 21.576706 31.480259  21.701525 20.310221 31.410313  21.7531625 20.7012255 31.708664  21.8048 21.09223 32.007015  15.065404 25.608408 43.203663  15.41762840955 25.01094948915 42.31240958604999  14.93670785285 24.5325389172 42.9704089253  14.68804663065 24.85584683995 42.3143318074  14.3106892613 24.1032856799 41.4250006148  15.2889322624 23.93508040635 42.07915551135  15.0402710402 24.2583883291 41.42307839345  14.5593504835 23.77997775715 42.0810777327  15.7698528191 24.4134909783 41.4211561721  16.868296 21.629028 38.450497  16.6708089391 21.9975515331 39.6196789426  17.1436124391 21.6012910331 39.4060444426  16.3769555 21.4285075 39.0970935  16.3954925 22.0252885 38.6641315  15.922689 22.421549 38.877766  15.904152 21.824768 39.310728  15.885615 21.227987 39.74369  16.6522719391 21.4007705331 40.0526409426  17.4189288782 21.5735540662 40.3615918852  16.864458 20.210304 46.5  16.55774602505 20.5686412537 46.12383394755  16.82414275 20.180713 45.98606775  16.987001 20.361853 46.00801575  17.109544 20.513402 45.5160315  16.68028902505 20.7201902537 45.63184969755  16.94668575 20.332262 45.4940835  16.7838275 20.151122 45.4721355  16.51743077505 20.5390502537 45.60990169755  20.3747014696 32.1903024267 31.8423291379  21.237304937 32.60807458455 31.1683269543  20.72347563415 33.25111864394999 31.14424228405  20.9318435817 32.7671265151 31.736583885  20.6801628249 32.03125049615 31.2740722072  20.47179487735 32.515242625 30.68173060625  20.16633352205 32.67429455555 31.24998753695  20.9856241802 31.8721985656 30.7058152765  21.4889856938 33.3439506035 31.6308386321  21.374987 25.958105 26.777042  20.4727745744 25.6342259276 26.6828036827  20.911035 26.103116 27.1143615  20.88558 26.2271585 26.6026545  20.396173 26.496212 26.428267  20.0088225744 25.7792369276 27.0201231827  19.9833675744 25.9032794276 26.5084161827  20.421628 26.3721695 26.939974  20.447083 26.248127 27.451681  19.5705621488 25.3103468552 26.5885653654  21.005009 27.034502 39.79567  20.0970065139 27.0604896461 39.51998594  20.3882395139 26.8051701461 39.22930044  20.651699 27.517188 39.6211015  20.713776 27.2898215 40.0863555  20.298389 27.999874 39.446533  20.0349295139 27.2878561461 39.05473194  20.360466 27.7725075 39.911787  20.422543 27.545141 40.377041  19.7714700278 26.5758382922 38.66293088  15.972929 28.679874 34.550396  17.59738011355 28.67636531085 34.40804901065  17.39186089355 29.1669108002 33.6541152113  16.76298891695 29.18977991585 34.61250597735  16.8073201966 28.166459395 34.3459390333  16.6018009766 28.65700488435 33.59200523395  17.2306729532 28.6341357687 32.6336144679  17.4361921732 28.14359027935 33.38754826725  17.6417113932 27.65304479 34.1414820666  17.5530488339 29.6996858317 34.6746159547  20.72455 30.126278 35.749744  20.227063 30.6186915 36.3793015  20.0031929456 30.1424767536 35.741746523  20.422841 30.155885 36.296423  20.528772 30.5890845 35.8326225  20.332994 31.051891 35.915501  19.7014839456 30.1720837536 36.288425523  19.8074149456 30.6052832536 35.824625023  20.121132 30.185492 36.843102  19.2818358912 30.1586755072 35.733749046  17.149879 29.928265 26.129194  16.87117934215 28.6622298984 26.2384270064  16.407732 29.204786 26.4554845  16.8791815 29.5394145 26.666604  17.34262884215 28.9968583984 26.4495465064  16.6784295 29.5936365 25.9180745  16.20698 29.259008 25.706955  16.608484 29.150564 27.204014  17.07193134215 28.6080078984 26.9869565064  17.5353786843 28.0654517968 26.7698990128  18.635717 31.41835 38.845211  17.2283756682 30.86287590995 38.4265727165  17.63191727585 31.549663748 39.22165313745  17.70711327585 31.574630748 38.61653163745  18.15697939235 30.70659516195 38.65525207905  18.08178339235 30.68162816195 39.26037357905  18.560521 31.393383 39.4503325  18.485325 31.368416 40.055454  17.6782417847 29.9948403239 38.4652931581  16.7785095517 31.730911496 38.3878522749  20.08218 29.611164 27.324347  19.72664818565 30.392080446 27.99478702195  20.20684968565 30.091569946 28.10751802195  20.023752 30.2804305 27.2184195  19.6019785 29.9116745 27.211616  19.121777 30.212185 27.098885  19.5435505 30.580941 27.1056885  19.965324 30.949697 27.112492  20.14842168565 30.760836446 28.00159052195  20.3315193713 30.571975892 28.8906890439  24.395714 27.247849 34.418987  25.74640905665 26.96896671965 34.29719868875  25.19264555665 26.95229121965 33.87318168875  24.60732 26.789199 34.680122  24.9494775 27.2645245 34.843004  24.818926 26.330549 34.941257  25.40425155665 26.49364121965 34.13431668875  25.1610835 26.8058745 35.104139  25.503241 27.2812 35.267021  25.9895771133 26.6567334393 33.3273763775  17.8162397261 25.6148845705 37.7568704658  17.9520100165 25.1989679596 38.83812828265  18.06072543895 25.9230251492 38.5902173672  18.3248511513 25.4188212693 38.27437202075  17.4433985913 25.3950312608 38.3206267277  17.17927287895 25.8992351407 38.63647207415  17.55211401375 26.1190884504 38.07271581225  17.2879883014 26.6232923303 38.3885611587  17.0705574565 25.1751779511 38.8843829896  18.8334625765 25.2227579681 38.7918735757  26.318071 29.725046 33.055927  26.07274775825 29.577342836 33.6057482288  26.3262593556 29.9549063113 33.71800580935  25.7303751438 30.116776668 33.3863868181  25.1426792876 30.508507336 33.7168466362  25.48505190205 29.969073504 33.93620804690001  25.7385634994 30.3466369793 34.04846562745  26.3344477112 30.1847666226 34.3800846187  26.08093611385 29.8072031473 34.26782703815  25.8274245165 29.429639672 34.1555694576  18.3632105661 28.6864890413 37.2330505263  18.7213217928 27.63514340735 36.83993932005  18.83777724145 28.1396747854 37.36496688405  19.00216568515 28.24332410815 36.6362047869  18.24675511745 28.18195766325 36.7080229623  19.6411208042 27.800159175 36.0393590475  19.4767323605 27.69650985225 36.76812114465  18.8857102365 27.7387927301 36.1111772229  18.1302996688 27.6774262852 36.1829953983  19.3123439168 27.5928605295 37.4968832418  25.159065 15.934125 29.134066  24.6260376571 14.98563967105 29.5527235591  24.4165431571 15.71458017105 29.4056165591  25.027703 15.5279265 29.6137735  25.3685595 15.2051845 29.281173  24.896341 15.121728 30.093481  24.2851811571 15.30838167105 29.8853240591  25.2371975 14.798986 29.7608805  25.578054 14.476244 29.42828  23.6740213142 15.4950353421 29.6771671182  26.6678671842 27.2005498592 35.85315195465  26.3291821842 26.5460658592 35.57071945465  26.2935491842 27.3135178592 35.23116345465  25.877559 27.168232 35.8890095  25.538874 26.513748 35.606577  25.574507 25.746296 35.946133  25.913192 26.40078 36.2285655  26.251877 27.055264 36.510998  27.0838573684 27.3458357184 35.1953059093  23.405127 27.610624 26.6891  23.69629948995 28.3928480133 27.6720343116  24.1495468468 28.64269835745 27.20358509045  24.2928043468 28.09109185745 27.17838959045  23.83955698995 27.8412415133 27.6468388116  23.2618695 28.1622305 26.7142955  23.118612 28.713837 26.739491  25.1804816936 28.5715597149 27.6676791809  24.72723433675 28.32170937075 28.13612840205  24.2739869799 28.0718590266 28.6045776232  15.01662 29.312603 30.50808  16.13815807245 29.5897033657 30.74126318735  15.80008707245 29.1290368657 30.79548068735  15.61236578775 29.8023852667 31.39164234975  15.354691 29.7732695 30.4538625  15.692762 30.233936 30.399645  15.95043678775 30.2630517667 31.33742484975  16.2081115755 30.2921675334 32.2752046995  16.3958328602 29.6188191324 31.6790430371  16.5835541449 28.9454707314 31.0828813747  23.36285701 22.7150913984 25.1918900722  22.6244250904 23.17778624185 25.66942964225  23.29325881155 23.4359527409 25.4572404534  22.30030210515 23.2238566114 25.22078515555  22.69402328885 22.45692489935 25.40407926105  21.2377472003 23.7326218244 25.2496802389  22.2307039067 23.9447179539 25.48613553675  21.631468384 22.96569011235 25.4329743444  22.0251895677 22.1987584003 25.6162684499  23.2236606131 24.1568140834 25.7225908346  27.103951 23.032717 32.818504  25.883969043 22.8540935329 33.95934950585  26.49577432525 22.9410706905 33.90178395845  26.6953357526 22.42610911405 33.3858595758  26.2925842904 23.46070141885 33.39199393005  25.4812175808 23.8
[...]
<PointData  Vectors="u"> 
<DataArray  type="Float64"  Name="u"  NumberOfComponents="3" format="ascii">-3.9510926647775757e-08 -2.5067935622173042e-08 -2.0422283405690870e-09  -4.3797741581742651e-08 -1.5870930839944464e-08 1.9739803079414334e-09  -4.1307048040390299e-08 -1.4642390439065090e-08 7.5846022337151201e-10  -3.9519113746255943e-08 -2.0908398195390065e-08 -2.7645233106358935e-10  -4.4727881875284898e-08 -2.1585300399917997e-08 -1.5414430054624339e-09  -3.6909611301946092e-08 -1.3153972927233260e-08 8.2627058923003032e-10  -5.2344185917520751e-08 -2.0139450834683775e-09 2.9285527116867227e-09  -4.7419546355178839e-08 -1.3417806493143001e-08 -6.9731849064248320e-10  -3.9124922382214501e-08 -1.2466761983213983e-08 -8.3816604389973054e-10  -3.8091774465741975e-08 -1.8053656464928166e-08 2.5709401092637706e-10  -6.5265846576370419e-08 -1.9332625607688745e-08 -6.5583762555280752e-09  -5.1631455789751957e-08 -9.8722607888364757e-09 9.1845923165730863e-09  -5.8519389620040251e-08 -9.2281609066882714e-09 1.0629438223141790e-08  -6.5249662582097251e-08 -1.4066523865071877e-08 8.7979927076619355e-09  -5.7090670444493369e-08 -1.1483624630019880e-08 1.4505670640436592e-08  -5.0159291865245316e-08 -9.0678755381464288e-09 1.1222631666686949e-08  -5.6551364864700551e-08 -9.2928037139456013e-09 1.6192856391656436e-08  -5.5287812401436401e-08 -6.2565227573354107e-09 1.4236876124764306e-08  -4.9303352453907527e-08 -6.9458139293566805e-09 1.2903203738093138e-08  -4.5651018055050903e-08 -6.9218361052068999e-09 1.3253068075531552e-08  -3.1678064934054096e-08 3.0321850151748439e-09 3.6546899992546081e-08  -3.4431595875094931e-08 5.3714711541180957e-09 2.9750937088861409e-08  -3.2444945568150356e-08 7.6691378005192907e-09 3.1201110145461806e-08  -3.5595875726992133e-08 3.5094934128793352e-09 3.3397145769882124e-08  -3.7514517332384123e-08 1.7265006846426117e-09 3.1672168905774121e-08  -3.5873028003731268e-08 3.8807308486855591e-09 2.7254727361153822e-08  -3.5852081556954754e-08 7.2581107627670101e-09 2.9361831269289874e-08  -3.2717834746762969e-08 1.1463537142614273e-08 2.6688833677678746e-08  -3.3111540294718845e-08 8.9033624194781663e-09 2.5948886568168684e-08  -3.4224691571694281e-08 6.0900851065041047e-09 2.3394552107776097e-08  -2.7972459400527650e-08 1.9421558532772600e-09 -5.2805507859572957e-09  -2.1432666147912715e-08 -7.6310407029933619e-09 -1.2594139655715746e-08  -2.7357229825940158e-08 -5.8859121550222079e-09 -1.4172856468346901e-08  -1.8618575526011060e-08 -1.2303478443474563e-08 -1.3276019508336171e-08  -1.3324718205276439e-08 -1.0257581531944147e-08 9.6819570975338783e-09  -2.9170162764437757e-08 -3.5573104054536498e-08 -3.4872927259322132e-08  -2.2277547038552986e-08 -1.5095233423439081e-08 -2.1336951101658623e-08  -1.8069430198238148e-08 -1.2051461008158358e-08 -2.2456284156624201e-08  -2.0580846959955374e-08 -1.0066848349034304e-08 -2.1004078423420768e-08  -2.6151150822287686e-08 -8.8346813913037795e-09 -2.0981792305283901e-08  -3.6413518637747236e-08 -4.9384011064505661e-11 -6.1349235615036414e-08  -1.1648604043014777e-08 1.3352415625766392e-09 -5.3494185019853902e-08  -6.8432067223987087e-09 -1.0954560501166215e-09 -5.6623954988767073e-08  -2.1251053739865806e-08 -8.1415027779313123e-09 -6.3532413852470004e-08  -2.6924470905597028e-08 7.7409878780079582e-09 -6.3575976580174706e-08  -1.8493945795707941e-08 5.3842030013078923e-09 -5.4490019390144662e-08  -3.8537513528212859e-09 1.1549319196999238e-09 -4.9469716550734762e-08  -8.5908508709016086e-09 -2.6897484164198326e-09 -5.6948221750184030e-08  1.1301103373241299e-09 1.4063187132975892e-09 -4.8182453210104130e-08  4.4457413026732004e-09 2.8647135383573812e-09 -3.2238772301142158e-08  -5.6323594383449200e-08 -1.0005720388129262e-08 5.0637236634416307e-09  -4.8079457098159869e-08 -5.0941175812052540e-09 7.3144208548054879e-09  -5.0144353342860314e-08 -5.6326922073973416e-09 1.1252063971578686e-08  -4.7945268449977071e-08 -3.4300233729893253e-09 1.1425117425139851e-08  -4.5514234142845544e-08 -1.8397224512097184e-09 1.4427022104804837e-08  -4.5438449097089147e-08 -5.7052691346366539e-09 1.2544511235916818e-08  -4.5366491582787253e-08 -2.8582416436544270e-09 1.4416300555536822e-08  -4.4583113220992857e-08 -4.4569013395902858e-09 1.4092147414321412e-08  -4.3882578907669072e-08 -3.1374157043587538e-09 1.2919895184496412e-08  -3.5048403757341188e-08 -3.1130373300601190e-10 3.6002286162823627e-08  -3.6929303980210985e-08 -1.1679376621767544e-09 3.1908054173296635e-08  -3.5247024469316689e-08 -2.3666768745093551e-09 3.2684670075092758e-08  -3.4208653805904360e-08 -9.3362470763424155e-10 3.4322881524753535e-08  -3.4466638964567316e-08 5.7302397568150116e-10 3.4490307344804337e-08  -3.6346412187439900e-08 5.1093824944234508e-10 3.7341356848497915e-08  -3.8045315411069707e-08 2.1937079722563176e-10 3.7144089050247659e-08  -4.1312925825741272e-08 -1.0234942293571336e-10 3.6313064321045958e-08  -3.7091775348044280e-08 -2.0396674531622642e-09 3.2206020765131403e-08  -3.5226917997797955e-08 -5.3748534626435042e-09 2.9991787915146562e-08  -1.9942452285421340e-08 -1.1742551241287326e-08 -6.8856209555836887e-09  -3.3063466695873571e-08 -1.6430894552950188e-08 -2.8713910109404602e-09  -1.9726314165344969e-08 -1.9511311232183598e-08 -6.2593516428504443e-09  -2.7353254718487768e-08 -2.7879529047441850e-08 -4.2184386432043069e-09  -3.2421965423480325e-08 -2.9088645940957720e-08 -2.7135338678503626e-09  -3.4809127439422861e-08 -2.4395855842380026e-08 -5.5478084179147741e-10  -2.6489651093518121e-08 -2.8029235461691092e-08 -2.8569982635671705e-09  -2.3393967674414006e-08 -2.1171540190896436e-08 -4.6271056030005096e-09  -3.0621191872360852e-08 -1.9208081928889806e-08 -2.6338914845808988e-09  -4.6878813803353439e-08 -1.0077027459361764e-09 -2.5771500646580825e-09  -4.1442475647830039e-08 -3.0604953806044259e-09 -9.3542651317584886e-09  -4.3627857285090878e-08 -1.5325160434114460e-09 -5.6200976933357588e-09  -4.8208525512369511e-08 -3.8143969288831091e-09 -9.7189444497350910e-09  -4.1741428684075025e-08 -2.0838801773568523e-09 -4.8697262821210804e-09  -3.7456536684434663e-08 -1.3882178311144439e-09 -1.1034890073541785e-09  -4.3232392231829859e-08 2.9410495676122365e-10 1.3146587402738588e-10  -3.6659826566191871e-08 -2.6519045801427210e-09 -5.7620192658889088e-09  -4.7358025439499520e-08 -4.6916287281728889e-09 -1.7174781488386425e-08  -6.7200772247393403e-08 -6.0903569077779196e-10 -1.9618141954631317e-08  -3.1302212795270148e-08 8.2188322129826644e-09 -1.6300827060022835e-08  -3.0578706549496621e-08 2.5391327024074344e-08 2.1535382121739201e-09  -3.5073743417681926e-08 2.3166006092180457e-08 -1.4164249863817413e-08  -2.0345541738728884e-08 9.3813466297214624e-09 -1.7614608156423795e-08  -2.4811701080841402e-08 1.0284601469947464e-09 -2.0052121195115510e-08  -2.5588429365987592e-08 1.3732412987465065e-09 -2.0262379877894541e-08  -1.6434981754435244e-08 1.4623774778220677e-08 -1.7499710877111085e-08  -5.2791665108316958e-09 -6.3717892731452160e-10 -1.5945187263441846e-08  -2.7953905093236896e-08 -2.4673698256889342e-09 -2.2160080452323198e-08  -2.1504309130844552e-08 1.9280702823793047e-08 1.4092011845424817e-08  -2.3258621573036875e-08 1.9418265224572741e-08 1.2495373044728384e-08  -2.4890434259179521e-08 1.9044043161275922e-08 1.6013456006692621e-08  -2.2824943688289784e-08 2.2650322175340917e-08 1.5283879241555285e-08  -1.9767556782239400e-08 2.1875728290359138e-08 1.1954429974094461e-08  -2.0445270027366111e-08 2.4651013745845999e-08 1.5455252526460950e-08  -2.3664423995958507e-08 1.9526889291662750e-08 1.6343775059944341e-08  -1.8444091878738915e-08 2.6397823728065759e-08 1.2243124414699872e-08  -1.6559581384167700e-08 2.4534557239152006e-08 2.4163730825869590e-09  -2.5813752900232803e-08 1.7633401191162629e-08 1.8330823213390963e-08  -8.3008302235552532e-09 1.1869829147575786e-08 -9.6801756815646814e-09  -2.1346412767626716e-08 1.0365112731791191e-08 7.4388389237123089e-09  -2.4915700231739188e-08 9.9660837731007416e-09 3.1761921575237286e-09  -1.2387461950620488e-08 1.2009043771622587e-08 1.6269435736657309e-09  -1.4639435718906337e-08 9.9164378055439777e-09 -1.0788451565432817e-10  -2.0597740741335690e-08 1.1546645366042919e-08 -1.6602951224507686e-09  -2.5509597228009383e-08 7.7412363147932010e-09 6.1393310417123332e-10  -2.3897314313316514e-08 8.0784762112410413e-09 6.5512885220838843e-10  -2.2399125609489573e-08 8.8244507668388172e-09 3.1851402638016592e-09  -2.0640213593903543e-08 1.0854309591156779e-08 9.2149610726249979e-09  -4.5821542037141003e-08 9.7092369325890497e-10 4.8805274370211195e-08  -2.4129826929340461e-08 8.8240545069477457e-09 4.2006534027312264e-08  -3.4402587680739175e-08 6.4528483557769967e-09 3.6634034208454709e-08  -2.3770047873324836e-08 8.1816036452452983e-09 4.3990749231653416e-08  -4.5148848451624376e-08 4.7814972948618310e-10 5.1819036281877332e-08  -4.2360523853006371e-08 5.2575039925809969e-09 4.7608334162125381e-08  -2.5420141684789114e-08 1.0051036077454422e-08 3.2680952075437030e-08  -3.4545166970512738e-08 7.6126873811571794e-09 3.5836634498924470e-08  -2.0054564837237868e-08 1.0667485103199729e-08 3.7101299319434602e-08  -2.9650924101349551e-08 9.1054885179776470e-09 2.7722586247198985e-08  -8.1490539923225129e-09 7.0106794649849991e-09 -3.1249804664880996e-08  -9.4876978055554227e-09 -4.5527593958006767e-09 -2.5922909084079919e-08  -9.9037435176842230e-09 -1.2240136485905640e-09 -2.6386018350213946e-08  -1.3730036802856542e-08 -8.8969142484761456e-11 -2.9548188582485279e-08  -1.3249040391786139e-08 -5.3816865240058484e-09 -2.8153208161755577e-08  -8.8549834730090125e-09 4.2455785376051866e-09 -2.3207534724533086e-08  -3.9863171380337954e-09 4.4923903175926165e-10 -1.9771117546509208e-08  -6.0109672169219956e-09 -6.7133248198053802e-09 -2.8716428996426833e-08  -1.0695919683516265e-08 -6.4255708545733290e-09 -2.5427608591582817e-08  -1.3051640143099211e-08 -8.4902517715877913e-09 -2.6664423669802214e-08  -2.2555818890289638e-08 1.5986116889730583e-08 2.4934314305832506e-08  -2.6399739734494913e-08 1.8911570175987830e-08 2.2993936718734620e-08  -2.4089586686336980e-08 1.9856605452424984e-08 1.6730381820169841e-08  -2.6236667480832425e-08 1.9405156638326571e-08 2.3586761468325094e-08  -2.2154045688732484e-08 1.6729985098584123e-08 2.2171955233111094e-08  -2.0680009727964748e-08 1.8260280113444528e-08 1.7301859646335230e-08  -1.5032489065560713e-08 1.8842332364330090e-08 1.9292619201259581e-08  -1.4566925964555175e-08 2.0153535375439933e-08 1.0700619157639310e-08  -2.3485253772992139e-08 1.6854363018526559e-08 2.2345274915334938e-08  -3.1911379422633560e-08 2.2867890916358221e-08 2.2815126472144523e-08  -4.4625750421740469e-08 -2.0344707490833686e-08 -7.5964695490022471e-09  -2.8177478448816701e-08 -1.5061231257298681e-08 -1.2387416467840997e-09  -3.2496616029134744e-08 -1.1374632262745022e-08 -2.3622942149317249e-09  -3.4545523903515930e-08 -1.7008892397649125e-08 5.5095069873216979e-10  -4.0310629764896149e-08 -2.8353848861522043e-08 -1.0207423135409082e-08  -3.6987211975281428e-08 -3.5019417325700283e-08 -1.5766857084126180e-08  -2.7709380599322780e-08 -2.4599446381285106e-08 -1.2247935105597988e-09  -2.5179701311634186e-08 -1.6618618473174808e-08 2.6203824868660887e-09  -2.7296866483661620e-08 -1.2233090006987243e-08 -2.8032980740728207e-10  -2.9440568020027230e-08 -7.4112131570863217e-09 -1.8396608903347526e-09  -1.0466561107312913e-07 -1.3383912164251965e-08 -3.1879331278107347e-08  -7.8390746292577802e-08 -1.0166887735760715e-08 -6.2822198792063562e-08  -7.7465864002095252e-08 -8.1379148527118355e-09 -5.1707616912339127e-08  -1.1844773856774409e-07 -1.7915551674005966e-08 -4.1130938728984354e-08  -9.6446060028898866e-08 -2.0662203926332614e-08 -7.3790989455602679e-08  -1.1212368709894013e-07 -1.7426608316160188e-08 -4.8374531692906979e-08  -8.0254213295269323e-08 -9.1022036274985439e-09 -5.3792180692366088e-08  -9.4603547123093557e-08 -2.2986311586057985e-08 -7.6763088136971089e-08  -7.4904801495173304e-08 -1.7204479246204715e-08 -8.6092409997645029e-08  -6.9776936999876439e-08 -5.8894637372433914e-09 -5.9665738524987198e-08  -2.5168808509701358e-08 1.1603585077510748e-08 2.3725025296072072e-08  -2.9813589387990009e-08 9.1349140964022171e-09 2.2118247583993892e-08  -2.7375778267692261e-08 1.1571688146905514e-08 2.1578123498594257e-08  -2.8270974023749385e-08 1.1824790787000385e-08 2.2242638497878475e-08  -2.6975845875807904e-08 9.3868111144794303e-09 2.5522472087709808e-08  -2.7783335619517577e-08 9.5906688622740310e-09 2.5073170268943602e-08  -2.4436934564528955e-08 1.1338568487542062e-08 2.4411897966372300e-08  -2.5132467607594209e-08 1.2465357161724832e-08 2.4834681097895162e-08  -3.0271547762802084e-08 6.7435708009570368e-09 2.6097046147427504e-08  -3.0032010982211568e-08 1.1280960633896617e-08 2.0424905580661826e-08  -8.3815211963807302e-08 -4.2013653149302269e-08 -2.5202586148621143e-08  -8.1744177299553520e-08 -2.4762327891771658e-08 -4.5275589268092875e-08  -7.9836573617652959e-08 -1.8645262355526529e-08 -3.6707317355130055e-08  -9.0732283431394134e-08 -1.4318320366785336e-08 -3.0361611097378265e-08  -8.9298885751072205e-08 -1.3613547349063781e-08 -5.0358805218370323e-08  -8.4718846197571576e-08 -1.2496347561529381e-08 -4.6055160369796680e-08  -8.4612452551575019e-08 -1.3881176462509042e-08 -4.3730062851909390e-08  -7.7456259672329678e-08 -1.0717725235984480e-08 -4.4778233699107005e-08  -7.9535021409154382e-08 -1.2038970556099300e-08 -4.9374961939239109e-08  -8.0690771396497295e-08 -1.2608040373246136e-08 -5.3587162489267579e-08  -2.0341622546535466e-08 1.5136386141751140e-08 2.3562941409766642e-08  -2.2682487149151223e-08 1.5345402736866613e-08 2.1499221275234903e-08  -2.2066124110528486e-08 1.5631404754736223e-08 2.2978175382810090e-08  -2.3354413074800170e-08 1.4837195490995555e-08 2.2535001378159901e-08  -2.0068088760945726e-08 1.4389753410782960e-08 2.2261908613783431e-08  -2.7751609916789863e-08 1.4596502644252687e-08 2.2944664705683805e-08  -2.4407188901380883e-08 1.6712370805874786e-08 2.3188130582166156e-08  -2.4363351853213426e-08 1.3536532287606698e-08 2.0415300568552010e-08  -1.9513557993000398e-08 1.3317202423802044e-08 1.8783295009051770e-08  -2.3270983663810819e-08 1.7522826096607461e-08 2.2111778444184404e-08  -4.1337234722764184e-09 4.2537993050383341e-09 -2.5451510550686034e-09  -1.0805884642702215e-08 2.6639635787192444e-11 5.0032668389520825e-10  -1.2569555376350962e-08 -1.3376475083818539e-09 -8.4574180348967898e-09  -4.9310190303691935e-10 -3.3310356195094240e-09 -3.8559673334170184e-09  -6.5979668942778424e-09 8.3135575163811230e-09 7.4120516124047904e-09  -2.9709756395340670e-09 -8.5291323438506713e-09 -3.2663495439371580e-09  -1.1985656449566079e-08 -7.9823203967660922e-09 -8.8488503236543949e-09  -5.8692859701261386e-09 5.9864961913104552e-09 9.3473059017615895e-09  -1.2200905788888434e-08 1.0830265099324874e-08 1.0336753190784981e-08  -2.0877632079365077e-08 -3.1029278571515247e-09 -1.1746478202419588e-08  -6.3194319071608174e-08 -9.5151461943425774e-09 -7.1686855355224908e-08  -7.0344901900596635e-08 -1.7477853014206565e-08 -7.3417458714833215e-08  -6.9963758706504820e-08 -9.9099264472796805e-09 -7.2521856640478219e-08  -5.2113575227204312e-08 -1.8501530819081070e-08 -8.7945477323459602e-08  -7.7739187113369638e-08 -3.1797248308609099e-08 -8.8906849468984896e-08  -9.6062367499824717e-08 -3.7103326841675202e-08 -7.1639787269025598e-08  -6.3797000871707730e-08 -2.9855672953275013e-08 -7.9202395471808125e-08  -4.9836051658289605e-08 -1.3673768173399194e-08 -8.3133231648197917e-08  -7.1066327988050676e-08 -6.4989709141396424e-09 -6.5898823245480901e-08  -1.1292778313753302e-08 -1.6556156013393973e-08 1.4833940869541512e-09  -1.6223237687201151e-08 -6.1534284944090290e-09 -4.3922139902196391e-09  -1.2719677666302477e-08 -7.9284973860260571e-09 -1.1161650071247450e-09  -1.2434246920947482e-08 -9.1606252109002368e-09 -4.4543064402328414e-09  -1.5411308948139730e-08 -7.3749009969739969e-09 -7.2251021412395548e-09  -1.1588950758244372e-08 -9.4008202517356192e-09 5.3014842225915394e-09  -1.4277571379874399e-08 -6.9450446400858537e-09 7.4485220975134761e-09  -8.8705353175101906e-09 -5.5543606053197230e-09 -6.7058273317808534e-09  -1.2413955279866211e-08 -3.8613542624895672e-09 -1.0273345339835780e-08  -1.6683038619592114e-08 -2.4142424809890346e-09 -1.4026505607534980e-08  -2.4981263925035207e-08 1.2942240887950763e-08 2.0041777921171902e-08  -2.2493196564124986e-08 8.6538398039340490e-09 1.1007257310080716e-08  -2.1830685699031331e-08 9.3596437021855862e-09 1.1169212493968775e-08  -2.8509453044016669e-08 1.5003553041898081e-08 9.5113430906140528e-09  -2.4334012186455101e-08 1.1837620274939182e-08 2.2333417908346866e-08  -2.4563035417065025e-08 1.1736432786902052e-08 2.1894689852250808e-08  -3.0956384402042792e-08 1.4467570088178272e-08 1.0758633882190333e-08  -3.1520050994624471e-08 1.5277165370817238e-08 4.4401148777220158e-09  -2.6987901675899104e-08 1.1036608470864562e-08 5.8434459069808333e-09  -2.2398466429657313e-08 6.4700154500155694e-09 4.6424498514608239e-09  -2.7919427657799011e-08 7.4628176632658737e-09 -2.4411834310654125e-08  -3.1718307755146901e-08 3.6529631510980090e-09 -2.4244034084355111e-08  -2.9378334259381001e-08 1.5881403563377040e-09 -2.4991326370137893e-08  -3.3005056531654134e-08 4.8876572520135053e-09 -2.3748062092660404e-08  -3.0235911257296100e-08 1.0176415015570743e-08 -2.1636666492419305e-08  -3.6248981686915761e-08 1.9039283738734284e-09 -2.4109538723516115e-08  -3.4038089232843490e-08 -1.1317028454650048e-09 -2.4663408705663570e-08  -3.5041571330285863e-08 6.5440616643901306e-09 -2.2172699429483062e-08  -3.3934860841839518e-08 1.0788233510504263e-08 -1.9012592104519890e-08  -2.9966778633540306e-08 -3.9703804425272990e-09 -2.4663076268045424e-08  -4.7281321979174658e-08 1.8154391051622331e-08 -8.0988318327309147e-08  -6.7672574801198462e-08 5.6715516933443679e-09 -4.1683864135600791e-08  -7.0246157944470714e-08 5.7054019052589707e-09 -5.1546353241786164e-08  -6.4055108997615945e-08 1.3273501837418581e-08 -5.6268497693702521e-08  -6.0466356701427720e-08 5.0945932371785331e-09 -5.5524331293555611e-08  -6.8296167294904541e-08 2.1874659863611570e-09 -4.0327535185948372e-08  -7.4615431526532513e-08 1.9152517488749447e-09 -3.8561229655285983e-08  -6.9539180590347119e-08 1.0309745633379104e-08 -4.1622229263458697e-08  -7.3954255375630671e-08 5.6671174091552588e-09 -3.8561134168344271e-08  -8.0801564384994042e-08 1.7087476063183606e-09 -3.4220190443046743e-08  -2.5441997102754642e-08 2.8505856284210429e-08 1.8411440851049637e-08  -3.5841456931862552e-08 2.6068580649384852e-08 1.6321794559771903e-08  -3.7502556515999004e-08 2.4772565208076555e-08 1.4058304728959342e-08  -3.4980283787710572e-08 3.0178925146615779e-08 2.0680942324225809e-08  -4.1941123262542767e-08 3.0554065029387544e-08 1.6097114849660733e-08  -3.7054963329537091e-08 2.7194553168422522e-08 1.8901683285439255e-08  -3.9769510746737107e-08 2.4519208533454120e-08 1.5029413129562922e-08  -4.1276933886436835e-08 2.1525647334409723e-08 1.6587670664687903e-08  -4.0682479266032856e-08 2.3719301124576073e-08 1.8632673443016116e-08  -3.9618080915242489e-08 2.6114740805898088e-08 2.0975807750815216e-08  -3.7039191217480265e-08 1.9060123661168967e-08 2.6338135625332172e-08  -4.1312441907984986e-08 2.2079317355255581e-08 2.4167975427426047e-08  -3.7691932071662305e-08 2.0149565331391118e-08 2.6389840120170816e-08  -3.6208795012560024e-08 1.9692834344202465e-08 2.2728883967533119e-08  -3.9042337202010679e-08 2.1508237711303504e-08 2.2449720988407417e-08  -3.6677409709477297e-08 1.8651401591303723e-08 2.0529270328247609e-08  -3.7514133671575764e-08 2.1206284120613554e-08 2.4778882408737226e-08  -3.9619963904993676e-08 1.9466034675208424e-08 1.8536718549628203e-08  -3.7199290191875450e-08 2.3352536078902146e-08 2.8533905394678511e-08  -3.3653728000453948e-08 -2.9589883935990963e-08 4.1969709004449430e-09  -3.1693833283815960e-08 -2.2658708585