<?xml version="1.0"?>
<VTKFile type="UnstructuredGrid"  version="0.1"  >
<UnstructuredGrid>
<Piece  NumberOfPoints="8714" NumberOfCells="39902">
<Points>
<DataArray  type="Float64"  NumberOfComponents="3"  format="ascii">10.9106554665 41.7623194324 31.4053191432  10.45160671575 41.88891628615 32.3618543247  10.0107240031 41.4936311369 31.73489646565  10.3673016327 42.3000857105 31.608504187  17.036066 46.5 29.554308  16.7709366354 45.11838398475 29.73319966765  17.38538066315 45.8643518805 29.397391866  17.1057559705 45.7834655648 30.16929104285  16.42162197225 45.75403210425 29.89011580165  15.8071779445 45.0080642085 30.2259236033  16.49131194275 45.03749766905 30.5050988445  17.175445941 45.0669311296 30.7842740857  17.45507063365 45.1478174453 30.01237490885  17.7346953263 45.228703761 29.240475732  11.785999 33.639668 34.580223  12.2335536335 34.4947398184 34.2161503253  11.6044814472 34.57204887875 34.4426752249  11.9089376335 34.0954043184 33.9799538253  12.110615 34.0390035 34.81641949999999  11.2798654472 34.17271337875 34.20647872489999  12.435231 34.438339 35.052616  10.7737318944 34.7057587575 33.8327344498  11.4028040807 34.62844969715 33.6062095502  12.031876267 34.5511406368 33.3796846506  12.116869481 39.9563111346 32.0771938905  11.51376247375 40.8593152835 31.74125651685  11.8860812757 40.1774857728 31.3554116146  11.2225637293 40.0226548853 31.7540630062  10.3282579776 40.088998636 31.4309321219  10.61945672205 40.9256590342 31.41812563255  10.991775524 40.2438295235 31.0322807303  11.6552930704 40.398660411 30.6336293387  11.28297426845 41.0804899217 31.01947424095  15.800017 46.5 36.20475  14.93988705545 45.92854429505 36.32125310844999  15.388038 46.5 36.653656  15.127869 46.5 36.052664  14.455721 46.5 35.900578  14.52790805545 45.92854429505 36.77015910845  14.26773905545 45.92854429505 36.16916710845  14.71589 46.5 36.50157  14.976059 46.5 37.102562  14.0797571109 45.3570885901 36.4377562169  13.6549499258 43.6240951253 27.8003838463  13.88835083675 43.9025690418 27.1017531324  14.53448266665 44.25308578035001 27.66434217635  14.53626274005 43.46181534375 27.17956653105  15.4175755543 43.2995355622 26.5587492158  14.769663651 43.74028926024999 26.48093581715  15.4157954809 44.0908059988 27.0435248611  15.4140154075 44.8820764354 27.5283005064  14.7678835776 44.53155969685 26.96571146245  14.1217517477 44.1810429583 26.4031224185  17.575235 35.569782 33.902325  16.76782808255 35.91008144435 33.0146334193  17.53253389105 35.8902722839 32.92448250875  17.30242870245 35.21134340725 33.1498778663  17.0296224049 34.8529048145 32.3974307326  16.495021785 35.5516428516 32.2621862856  17.2597275935 35.53183369115 32.17203537505  17.4898327821 36.2107625678 31.9466400175  16.7251269736 36.23057172825 32.03679092805  15.9604211651 36.2503808887 32.1269418386  12.822164 44.996319 36.996315  13.45096055545 45.17670379505 36.71703560845  13.091441 45.053753 37.25524350000001  13.2726285 45.7481595 36.9921265  13.723093 46.5 36.987938  13.90142505545 45.92854429505 36.71284710845  13.5419055 45.8055935 37.251055  13.360718 45.111187 37.514172  13.72023755545 45.23413779505 36.97596410845  17.096544 46.5 27.991505  17.6254038878 45.15740642195 28.2489250394  17.41561966315 45.8643518805 28.615990366  16.9462072524 45.48201532725 28.28278110315  17.30632822465 45.79305454145 27.6244396734  16.7958705048 44.4640306545 28.5740572063  17.26528291555 44.84636720775 28.90726646915  17.15599147705 44.7750698687 27.91571577655  17.5161124493 45.0861090829 27.2573743468  11.788711 43.544735 25.085863  11.4692578137 43.5630158621 25.8627777038  11.9863661216 44.29481152965 25.72409373635  11.2619454313 44.19426467725 25.682595226  10.7351798626 44.8437943545 26.279327452  11.6669129353 44.31309239175 26.50100844015  10.942492245 44.21254553935 26.4595099298  11.4596005529 44.9443412069 26.32082596235  12.1840212432 45.0448880593 26.3623244727  11.1498046274 43.5812967242 26.6396924076  10.802522293 44.5227366687 30.9718659806  11.8496846125 44.30217467195 30.2676610166  11.07790153625 43.98574371095 30.48969835565  11.572758386 44.10197407545 31.0343216907  11.0794485195 44.7229372652 30.2052053065  11.356374746 44.9231378617 29.4385446324  11.35482776275 44.18594430745 29.72303768155  12.342994479 43.6812114822 31.0967774008  11.84813762925 43.5649811177 30.55215406575  11.3532807795 43.4487507532 30.0075307307  13.2065452078 37.2721321645 33.9967430176  13.12941185985 37.1353428793 35.34854071385  13.68480540755 36.8455193396 34.70101966135  13.37926676475 37.77900956885 35.2692402484  12.6511516601 37.5619557042 34.64426407009999  13.5519883217 38.2858869732 36.5417374792  13.8575269645 37.35239674395 35.97351689215  12.82387321705 38.06883310855 35.9167613009  12.0957581124 37.8517792439 35.2917851226  14.1630656073 36.4189065147 35.4052963051  13.32286935535 37.9302481181 33.2897350776  12.5812856666 37.9179584961 33.29885282445  12.9932544133 38.0098904295 33.9494256321  12.7945764611 37.1802002311 33.34617020995  13.53616014985 37.1924898531 33.33705246309999  12.3826077144 37.0882682977 32.6955974023  13.12419140315 37.10055791969999 32.68647965545  12.7799636188 38.7476486945 33.9021082466  13.8657750919 37.1128475417 32.6773619086  16.189499 46.5 25.532059  15.4401276141 45.65434699015 25.90649389525  15.62308398625 45.9464306452 26.0124061463  16.0246796141 45.65434699015 25.66795439525  15.604947 46.5 25.7705985  15.020395 46.5 26.009138  15.03853198625 45.9464306452 26.2509456463  15.8598602282 44.8086939803 25.8038497905  15.45826460035 45.10077763535 26.14830154155  15.0566689725 45.3928612904 26.4927532926  13.0976949664 42.9152249222 34.6420680473  13.709555807 44.06531869985 34.53643444285  13.77265664385 43.1086639323 34.91269094695  13.77330840745 43.78316562409999 33.9196510595  14.4489218485 44.651106326 33.1972340717  14.38516924805 44.93325940175 33.81401745505001  14.4482700849 43.9766046342 34.19027395915001  14.4476183213 43.3021029424 35.1833138466  14.38451748445 44.25875770995 34.8070573425  14.3214166476 45.2154124775 34.4308008384  17.095579 38.600819 34.074558  16.05069485585 38.5511668457 33.9288894633  16.211132675 39.03901352875 33.41132531380001  16.57584885585 38.3504988457 33.5763309633  16.570425 38.801487 34.4271165  16.045271 39.002155 34.779675  15.685978675 39.23968152875 33.7638838138  16.0561187117 38.1001786914 33.0781039266  15.69140253085 38.78869337445 32.9130982771  15.32668635 39.4772080575 32.7480926276  13.38660113255 38.1670323659 34.5917681621  13.5666570573 39.0619325673 35.1867933066  12.83120758485 38.45685590559999 35.2392892146  13.5593226895 38.67390977025 35.8642653929  9.956511000000001 39.933723 29.517218  10.3477571677 40.97263551185 29.40052477255  9.8236979143 40.75267375555 29.9666385279  9.857969000000001 40.4220405 29.0835725  9.759427000000001 40.910358 28.649927  10.2492151677 41.46095301185 28.96687927255  9.7251559143 41.24099125555 29.5329930279  9.6908848286 41.5716245111 30.4160590558  10.214944082 41.7915862674 29.84994530045  10.7390033354 42.0115480237 29.2838315451  12.0397082493 42.1794478557 30.3786331276  11.64744197065 42.04148227345 31.5493519952  12.0197607726 41.35965276275 31.16350709295  12.21196836205 42.2500464851 31.0360089874  11.4751818579 41.97088364405 30.8919761354  11.84750065985 41.28905413335 30.50613123315  12.3842284748 42.3206451145 31.6933848472  17.992567 38.15276 33.432854  17.576056382 38.523696228 32.9182265254  17.02434285585 38.1264693457 33.2554789633  17.38400686175 37.84150930465 32.6468334504  16.7754467235 37.5302586093 31.8608129008  16.96749624375 38.21244553264999 32.1322059758  16.4157827176 37.81521865035 32.4694584137  16.60783223785 38.49740557369999 32.7408514887  17.159545764 38.894632456 32.4035990508  15.498685 43.553249 37.384575  16.1587272993 44.3074948592 36.48486532055  15.3515612993 43.8830163592 36.37398382055  15.7747977993 43.6418528592 36.50160632055  15.459378 44.4600545 37.2402115  15.8826145 44.218891 37.367834  15.0754485 43.7944125 37.2569525  14.652212 44.035576 37.12933  16.266544 44.884533 37.351093  16.0509105986 43.7304567184 35.6186376411  16.2058332288 43.9595398174 32.5938779432  17.12560551895 43.20983811465 32.8548179264  17.3607592827 43.84350507185 32.63237642125  16.821359876 43.7922507497 32.21583761605  16.58620611225 43.1585837925 32.4382791212  16.7452326355 44.01079413955 33.0104167484  17.2846320422 44.0620484617 33.4269555536  17.4368865232 43.624961682 31.8377972889  17.20173275945 42.9912947248 32.06023879405  16.9665789957 42.3576277676 32.2826802992  16.364538 46.5 38.686813  16.4488955 45.6177595 39.3459055  16.457286 46.5 39.33099900000001  16.1022595 46.5 38.9146575  16.711174 45.6177595 39.118061  17.05781 44.735519 39.549309  16.803922 45.6177595 39.762247  15.839981 46.5 39.142502  16.1950075 46.5 39.5588435  16.550034 46.5 39.975185  16.170662 46.5 28.376862  16.9159682524 45.48201532725 29.06418260315  16.95267866315 45.8643518805 28.808668866  16.4832662524 45.48201532725 28.47545960315  16.603364 46.5 28.965585  12.2505489779 41.13847812455001 31.88528936885  12.69174184945 40.63048236155 31.4712186908  12.56279560865 40.6712750921 32.2739075645  13.0087217363 41.3862390496 32.4706212385  12.69647510555 41.85344208205 32.08200304285  13.1376679771 41.34544631905 31.6679323648  13.2666142179 41.3046535885 30.8652434911  12.82542134635 41.8126493515 31.27931416915  11.955459996 35.8508305578 33.7218173866  11.44620169035 36.8909406051 32.97542717505  11.4070588637 36.95930007055 33.79761218535  12.1690338552 36.46954942775 33.20870739445  11.23262783115 36.27222173515 33.4885371672  10.5097956663 36.6936129125 33.2552569478  11.6206327229 37.5780189405 33.2845021932  10.68422669885 37.3806912479 33.56433196595  10.8586577314 38.0677695833 33.8734069841  16.929417 36.615524 34.317665  15.9584699266 36.6342430787 34.31222850455001  16.4491744266 36.6978225787 33.84632050455  16.120234203 36.2228537336 34.2009675745  16.4387125 36.5519445 34.
[...]
<PointData  Vectors="u"> 
<DataArray  type="Float64"  Name="u"  NumberOfComponents="3" format="ascii">1.7556668652411858e+02 -5.9860678921087587e+00 4.7898534818397405e+00  1.6554728903991142e+02 -3.3144431645180719e+00 1.3255589027015887e+01  1.7490027233085263e+02 -1.6660381220830005e+00 1.8070371949187976e+01  1.7304785715394297e+02 -3.7710297368940791e+00 1.3028566067447930e+01  1.6104631861088424e+02 3.3883430668496486e-02 -2.2732391328409935e+01  1.6220125829894690e+02 -4.2035639004837941e+00 -2.3010695400264961e+01  1.5963278863686472e+02 -1.8297715656610962e+00 -2.0820189873241802e+01  1.6284031172135761e+02 -2.6212347053839986e+00 -2.3779576302970682e+01  1.6273885058760214e+02 -2.3700790191649936e+00 -2.3553564453692335e+01  1.6341030730430819e+02 -4.7898687215581059e+00 -2.3058248356110710e+01  1.6189207075966846e+02 -5.0031941698628692e+00 -2.5266507985542322e+01  1.6470595619181256e+02 -5.4173712606670872e+00 -2.6690389923043789e+01  1.6222311729517156e+02 -4.2096355590142327e+00 -2.1662278285042994e+01  1.5731475100391066e+02 -3.3021167640199129e+00 -1.8562062582451986e+01  1.8058455788444138e+02 2.1699582117487036e+01 -6.0849821932712956e+01  1.8575731444452242e+02 1.0335202392300223e+01 -4.4481938429735109e+01  1.7562670163911298e+02 2.4512607026828523e+01 -1.6946321242454335e+01  2.0465214126819325e+02 2.1377650353961757e+00 -3.8471330093977301e+01  1.6790518423934111e+02 3.1858255277985883e+01 -5.5992722807159716e+01  1.9350092940806420e+02 2.2120357749838529e+01 -1.2831143847897454e+01  1.5509263625299010e+02 3.9643511834264594e+01 -4.2629169192125715e+01  1.8857571348952840e+02 3.4444554974683484e+01 2.0953633297799726e+01  2.0722945706572926e+02 1.5344125121538134e+01 5.4088598715426051e-01  2.2233909239850632e+02 -6.6278812154452833e+00 -2.5732390209542086e+01  1.6368081344159543e+02 -6.8469415744408053e+00 -1.3514881502466732e+01  1.7000313505463330e+02 -6.8704306627084977e+00 -4.1264435285388172e+00  1.7352112652724153e+02 -1.0117833968811846e+01 -1.4854576942285702e+01  1.7417415828085717e+02 -6.4548029502687267e+00 -3.1697867899170258e+00  1.8706950425680913e+02 -3.5799831107175479e+00 1.1652166193409426e+01  1.8091794592806721e+02 -4.6858216190619091e+00 6.6743023156053152e+00  1.8848620401628557e+02 -7.8166827479234673e+00 -5.3294394639178897e+00  1.8351518961715087e+02 -1.4034864432773205e+01 -1.9347863374126611e+01  1.8057327138162913e+02 -9.2367771786802333e+00 -5.3623459962380968e+00  2.3650460894120247e+01 -2.5221605991012172e+01 -7.9038049504646235e+00  7.9670633850458231e+01 -6.1139729242530638e+00 4.5318676828974411e+01  9.6111295578006128e+00 -3.8884878150643281e+01 2.2046512213298989e+01  6.9942738053208828e+01 2.9566360421050848e+00 2.1172685090367388e+01  9.4603450889029986e+01 -2.7997234900847062e-01 3.3764174537445847e+01  1.0016968152963645e+02 -1.1369594511530131e+01 4.9358310207742228e+01  1.0193723405663914e+02 4.3126321996646033e-01 4.4969265757818377e+01  7.6977388131187482e+01 1.6660851997800581e+00 3.5422755674768517e+01  7.7666313586957230e+01 -2.6842305863522913e+01 9.5762356314692980e+01  1.0822215248416040e+02 9.3954963767945578e+00 5.1946755169585579e+01  1.8832250045098309e+02 -1.9212048342059099e+01 -1.8232893485131445e+01  1.9579188288358861e+02 -1.8584215530997902e+01 -2.1991274495221155e+01  1.8371489081686428e+02 -1.1267157623773473e+01 -2.6496722593965725e+01  1.8405307059289518e+02 -1.5430880792855852e+01 -3.0103690725524544e+01  1.7285908759026330e+02 -1.1489209053050534e+01 -4.1165291642222343e+01  1.8828436072576514e+02 -1.0916345473113081e+01 -3.9797092250967864e+01  1.7352799624245054e+02 -7.7368940600865264e+00 -3.7898071374097917e+01  1.7403785655371530e+02 -4.9066942505463365e+00 -3.4641525242406516e+01  1.8807966845289286e+02 -8.2833516686147171e+00 -3.5663742473800696e+01  2.0868395982521156e+02 -1.4542132173509710e+01 -3.4340794972675120e+01  1.1583811113486517e+02 -8.0603842203110602e+01 -9.1198147288473592e+01  1.3956702868301528e+02 -5.6868940081921828e+01 -6.9398319901473684e+01  1.3240392495786892e+02 -5.9760528350571498e+01 -8.0051708692073319e+01  1.3391711705940619e+02 -7.9442481568215584e+01 -6.6377665650731402e+01  1.4493859598959816e+02 -7.0516504200860837e+01 -5.1255211723041256e+01  1.4869574902576554e+02 -5.7544427323010403e+01 -5.4325888312633637e+01  1.4590034008338625e+02 -5.7569668976101411e+01 -5.9740110097481285e+01  1.4743061512619693e+02 -4.5130293443777653e+01 -6.5020028402033446e+01  1.4907201936348451e+02 -4.4256191524634815e+01 -5.8157179006435165e+01  1.5194195892068322e+02 -4.4201631440387402e+01 -5.1755419875269887e+01  1.3658997619086404e+02 6.2298423720273092e+01 7.9954134030551771e+01  1.1444252062677495e+02 3.0651062370060842e+01 6.8840915171693311e+01  1.0361740711019871e+02 4.1792208273967148e+01 1.0255786789230621e+02  7.4561520590805216e+01 3.5992039900485693e+01 6.7850572126889759e+01  5.2192143933024823e+01 1.9861979884200247e+00 4.2477473996646665e+01  8.4704913433749539e+01 7.2081984052019719e+00 5.2732593628481816e+01  7.0226190455004343e+01 1.3849699628475168e+01 4.4134235035754735e+01  8.9854609393490890e+01 1.4411297897646190e+01 5.9472417909760310e+01  1.0988834108480157e+02 1.8281777167236232e+01 6.5626207943774475e+01  1.5381255851709952e+02 5.7929512322709202e-02 -2.7398186680339283e+01  1.5076031639555737e+02 -3.4146152198423256e+00 -2.2168096210582128e+01  1.5482532185335486e+02 -1.7317888884470503e+00 -2.2115744297715018e+01  1.5664701963811873e+02 -2.7793362432981112e+00 -2.6176776608122012e+01  1.4930808318314186e+02 -1.6558755462987624e+00 -2.8449461650307814e+01  1.5836960704166472e+02 -6.0443881695773998e+00 -2.4825002729774294e+01  1.5682866909121850e+02 -4.7077263115193908e+00 -2.2085890307316912e+01  1.5253077052569736e+02 -4.6354182925979668e+00 -2.7112404764209572e+01  1.4421531770061563e+02 -3.3917351808001963e+00 -2.9392209858512317e+01  2.5738787666810452e+02 -8.4943647853281362e+01 1.5545304065034003e+01  2.3450225354140065e+02 -5.9797675094442454e+01 1.7216228517268654e+01  2.3898562014863407e+02 -4.7131819039273395e+01 2.3903878963316849e+01  2.4015632785655237e+02 -4.9417160019097068e+01 3.7646445092241997e+01  2.3087654694870824e+02 -2.8863335703322385e+01 4.3559315925309917e+01  2.2431322808390243e+02 -3.6765863526929159e+01 1.8661281128173691e+01  2.2747000578195906e+02 -3.9045930106500137e+01 3.0649837468001504e+01  2.2657458723504939e+02 -2.9099750313777552e+01 3.2666309482369854e+01  2.2415992209143693e+02 -2.8109358952720054e+01 1.9856944777331460e+01  2.2301735083973333e+02 -4.8046011747012187e+01 1.6938459365969482e+01  1.7392905696495632e+02 -4.2892068618132368e+00 1.3511916053335646e+01  1.7783946071061322e+02 -8.0322433286643165e+00 3.5627481704769095e+00  1.7846821958819720e+02 -7.2098707260085293e+00 9.6369143435136060e+00  1.7221045139484178e+02 -5.5309952438708487e+00 5.8176599410819581e+00  1.8031351052635614e+02 -6.1630176235686074e+00 1.2378557270965930e+01  1.8716102282353285e+02 -8.3258059733407741e+00 1.1503184339608335e+01  1.8491728265682619e+02 -1.0527601166071317e+01 7.9835396138559096e+00  1.6922313957578618e+02 -6.8407426970727014e+00 -2.0932064002163364e+00  1.7576526221143769e+02 -9.1215346633813734e+00 6.3051068277154454e-01  1.8318067545300573e+02 -1.1810940976426751e+01 3.6896827020389784e+00  1.4327904383178031e+02 -7.2963114953562576e+00 -3.1635253564910393e+01  1.1941536414999548e+02 -3.1853426832039782e+00 -2.2848442647768056e+01  1.2939901871998561e+02 -1.1359674679363808e+01 -3.9965355310793321e+01  1.1357407050325136e+02 -3.1384774357544325e+00 -2.7926174579959685e+01  1.3325192673921140e+02 -8.2439486355535052e-01 -1.8475826740670566e+01  8.2936113563011986e+01 -2.4204178310504605e+00 -1.1243795146029427e+01  8.9375575889075805e+01 -8.0770131348270375e+00 -2.5882723116639159e+01  1.0873681838011652e+02 -2.9360902770666056e-02 -1.0023064910893762e+01  1.2482007151854553e+02 3.2335930326817084e+00 -6.0652609671284115e+00  1.1030434481660345e+02 -1.5826697258771185e+01 -5.0088014095004688e+01  1.4844246289344133e+02 -7.9253182916979545e+00 -3.2200160736635141e+01  1.5177717846644560e+02 -3.4822584037081485e+00 -2.1582934204485639e+01  1.4010278547804765e+02 -3.4680039670795448e+00 -2.5963533551893381e+01  1.5735257468998105e+02 -5.8792443486360098e+00 -2.7085103325787983e+01  1.5199879335401175e+02 -1.3732339417622386e+01 -3.8272612492050207e+01  1.7013750270929427e+02 -1.7967057386410312e+00 -2.4990590705848930e+01  1.6460145451507583e+02 -1.1833026049545204e+01 -3.3372087183168304e+01  1.3940828707529101e+02 -1.3221719144724511e+00 -2.0456897062711260e+01  1.5809307455205490e+02 -1.9429256145910230e+01 -4.1250181562553934e+01  1.3324023505952275e+02 1.1095298386308563e+00 -7.0763959547212096e+01  1.6427001311200328e+02 1.3708987099052569e+01 -7.2934871762516892e+01  1.5787885869318413e+02 6.8724657405334577e+00 -7.0480692641609735e+01  1.4708075868591013e+02 7.3277785023819249e+00 -6.7927695964602563e+01  1.3799706395652026e+02 -5.0214096451093748e-01 -8.3687794062293236e+01  1.5818424754914872e+02 2.0957389568863015e+01 -1.2982216010006601e+02  1.7918595864776051e+02 1.4428763885951170e+01 -8.5658957659297684e+01  1.5984354292720852e+02 4.3971636998455512e+00 -6.3114820854898035e+01  1.7518643104300503e+02 3.9799988576660650e+00 -6.1227662919732246e+01  1.8600659962219538e+02 5.7021467861883472e+00 -5.9852402809851235e+01  1.3904274765115872e+02 1.0007584377861477e+01 -1.0340148035030716e+00  1.3595305826600153e+02 8.0760519520669103e+00 4.4874966273564389e+00  1.3543505681310364e+02 1.2965795059237820e+01 -1.1278877537646170e+00  1.4039551303564932e+02 4.0094395497408915e+00 -2.7414078388089922e+00  1.4168102087610865e+02 -1.2129335726536785e+00 -1.0826864139849336e+01  1.3388280572433698e+02 3.3789939491474227e-02 -4.5009551831715218e+00  1.3311006638804821e+02 3.0981697447150687e+00 -6.0687086615769621e+00  1.3006345780576805e+02 1.4057200002384803e+01 2.3080229551979650e+00  1.2674810404682268e+02 6.2593171795505045e+00 5.1931680526008899e+00  1.2608929482113095e+02 1.9615674060522874e+00 4.1536239539513335e+00  1.3858165343085525e+02 9.2949236916853621e+00 -7.7110840288369587e+01  1.3654375424694265e+02 -4.2931790220208504e-01 -7.0398138643878340e+01  1.4312943084061416e+02 -2.8451333702348280e-01 -6.0452789857440244e+01  1.3902298446451834e+02 -4.0315784456883144e+00 -7.0540299630855372e+01  1.4044955285301640e+02 1.2719440533052667e+01 -7.5635251244198884e+01  1.3209848797109686e+02 1.5165225814264103e+01 -8.4658971648852116e+01  1.3960659235937902e+02 2.8931715941189764e+00 -5.7482356379362081e+01  1.4300527554138105e+02 -1.2753695553810475e+01 -6.2374259743243790e+01  1.4594708304482475e+02 -7.0238521077856184e+00 -5.3422921883831457e+01  1.4804702565383312e+02 -4.5286561591859158e+00 -4.4700807569685033e+01  1.2612665128784666e+02 -2.7729332206169364e+00 -3.0270557576928738e+01  1.1222326121013676e+02 4.3829321909130012e+00 -3.0310316145722496e+01  1.1788285876391494e+02 1.0806278499273938e+00 -1.7006049653091271e+01  9.4959692411457866e+01 2.1118974048249952e+00 -2.4559379162139447e+01  2.5746411262351978e+02 2.3922148493605997e+00 -2.3641953124972147e+01  2.1946879926597774e+02 -1.9037648530273390e+01 -2.0000766762697939e+01  2.2496626001429846e+02 4.1100714737865847e+00 7.0430598754390727e+00  2.7057682007890401e+02 -1.5256875568220106e+01 -4.2610432559843431e+01  2.6403336283289468e+02 -2.6876505158751353e+01 -3.7250706850934357e+01  2.2095076845289188e+02 -2.6724595110591263e+01 -1.9894328442148144e+01  2.2853239151184968e+02 -1.8206447086792685e+00 3.5654920625857622e+00  1.9844713065162833e+02 6.0976395860093235e-01 1.7666769361241641e+01  2.0361046156329090e+02 -9.6439725594446042e+00 2.2386056027138204e+00  2.0212219342199069e+02 -2.1976244807816411e+01 -8.7267543146068842e+00  1.7723829457404696e+02 -1.4199934926465025e+01 -9.7889879534602589e+00  1.6958911552560815e+02 -7.0033051424503672e+00 -1.6848101643022968e+00  1.7197979858281764e+02 -1.0455244972552832e+01 -1.0786648581070232e+01  1.7100511334900671e+02 -9.8788821885306639e+00 -7.7374143782734537e+00  1.7746011686035115e+02 -9.7176693399576486e+00 -3.0190763701469248e+00  1.7983139218234740e+02 -1.4919853780793417e+01 -1.4745413105765211e+01  1.6446033375828463e+02 -6.5953629751407314e+00 -6.5551414526610445e+00  1.2541065655184192e+02 5.0784639084788123e+00 -8.7780225427639039e+01  1.4478114092622135e+02 9.1866747807725779e-01 -7.0532687351740563e+01  1.3967568060553245e+02 -7.0200491232936741e+00 -7.3255994655910698e+01  1.4276802272136641e+02 -1.3422906765526355e+01 -7.1410672415959681e+01  1.5115009714730078e+02 -2.3506394695524662e+01 -5.7191483474126429e+01  1.5033404092117763e+02 -1.3591454450020160e+01 -5.8902477192197715e+01  1.4702442160606424e+02 -1.8616042079023586e+01 -5.9634015897343481e+01  1.4673832384657467e+02 -8.0441251293901992e+00 -6.0626625732688424e+01  1.5176897023077530e+02 -3.4797030235052486e+00 -5.8424683472642194e+01  8.2277793642050042e+01 6.5129674979905339e+00 1.3646160148693491e+02  4.3426926728088418e+01 -1.5973622461614370e+01 4.3545426751376333e+01  9.6238798286744469e+01 8.3948433908074485e+00 5.2428158706034544e+01  7.9602338589784480e+01 5.0397662934257843e+00 5.5728000719265161e+01  7.6359521769284498e+01 -4.9882334420811691e+00 1.1279353919994765e+02  5.0224192698464684e+01 -6.6164299585104303e+00 1.1828622797713827e+02  1.0845701476770238e+02 1.6046412371161406e+01 1.2703246670429284e+02  1.3530656001834146e+02 1.7458066928818408e+01 1.0546234996019213e+02  1.7128847408235909e+01 -1.0430617803357404e+01 1.4782658565325011e+02  8.6566382590990230e+01 -3.4207725714163342e+00 3.8655667840627961e-02  1.5101370451776631e+02 -8.3525103040310409e+00 -3.3766533071251530e+01  1.6472385691298365e+02 -1.0223470867121552e+01 -4.2602332394395482e+01  1.6648120041217436e+02 -1.5157371031459023e+01 -4.5737719397334445e+01  1.6151226568922837e+02 -1.0018782341162719e+01 -3.5851545316472226e+01  1.5918397911778300e+02 -7.8155788892724978e+00 -3.5261795122015563e+01  1.5082619033225635e+02 -1.3253020177122393e+01 -4.4331147218531036e+01  1.5403245238405293e+02 -2.3259270913783119e+01 -6.2482261860498326e+01  1.7063067931745576e+02 -9.5029271510823197e+00 -3.1834858165700929e+01  1.6843425964138967e+02 -7.8804229860536950e+00 -3.3366116907565633e+01  1.6578342004981553e+02 -5.0905428199433915e+00 -3.5323494010950327e+01  2.7355935581118928e+01 1.5300758112388431e+01 8.1661015871361698e+01  4.5688948431915257e+01 -1.8386354321161832e+01 1.4474825069314605e+02  1.7274761228960930e+01 -7.7467083816399525e+00 1.3394381537498950e+02  4.0254402544832828e+01 3.8221155707803791e+00 1.0197219841140148e+02  4.0746349420524169e+01 -2.6269001642199669e+01 1.3344441970309347e+02  9.0319178905091675e+01 -1.8438419928891850e+01 1.7253341001641812e+02  8.3895249284393657e+01 -3.1535919896536409e+01 1.7060481386234099e+02  4.8244988082549511e+01 4.6909397679244735e+00 1.1202313482206939e+02  4.4501369351401443e+01 9.2986382164613232e-02 1.3086239255937832e+02  4.3435509947809216e+01 -1.3492881616511374e+01 1.4086279407930562e+02  1.6404357803801921e+02 1.4829303595001919e-03 -2.8155597472071836e+01  1.5996123529131080e+02 -2.9757539830352044e+00 -2.3375237137381649e+01  1.5843820218087154e+02 -1.7875064041014304e+00 -2.3659687791176911e+01  1.6069199789410357e+02 -2.9574005607091189e+00 -2.6836769175941875e+01  1.6126396155862528e+02 -3.5708360019831083e-02 -2.4381237339079000e+01  1.6382682066090243e+02 -7.0041705083806614e+00 -1.0008524057252075e+01  1.6489507365742520e+02 -9.9301950632552280e+00 -1.8784397238369063e+01  1.5872653539720767e+02 -5.8334784045909167e+00 -1.4023525734207659e+01  1.5522873628780107e+02 -3.9382307251647175e+00 -1.4061407642649616e+01  1.5988976928964203e+02 -5.4415856662820534e+00 -1.0230748784604209e+01  1.6124599636901658e+02 -8.0988783574985117e+00 -1.7648371124730211e+01  1.6578773715926226e+02 -1.2679224197947251e+01 -2.1581571757000042e+01  1.6575275373207006e+02 -9.5451034616612063e+00 -1.4216853225111784e+01  1.7525641117889009e+02 8.9780138379061061e+00 -1.3480690401247255e+01  1.6899322543751111e+02 1.4579935064173407e+01 -7.1268637098546295e+00  1.5200060097084665e+02 1.2659204687479944e+01 -2.1917405910335130e+00  1.7341619680276281e+02 3.8928886826939095e+00 -1.9116267265948597e+01  1.6898377575006211e+02 2.3841942134219849e+01 3.3091034547199669e+00  1.5517004883922820e+02 3.3061704130989071e+01 1.6376809806668643e+01  1.5637122430785624e+02 4.0259050770765343e+00 -9.5435476718683461e+00  1.4498791557441319e+02 1.2332339090056387e+01 6.4716602018573770e+00  1.4194669788138975e+02 4.9404015920130275e+00 5.0430019927927328e+00  1.2599245218367676e+02 -3.5313651755686614e+01 -9.8464000412220003e+01  1.2939715053158795e+02 -3.6418809882027439e+01 -8.8940782819529375e+01  1.3352687714494678e+02 -3.6075811493626077e+01 -8.3526438554506782e+01  1.3195382732975082e+02 -4.7688413053131946e+01 -8.8701274186294398e+01  1.2547828751678736e+02 -3.4583947069978727e+01 -1.0448829077083445e+02  1.1334076771584327e+02 -3.7460238460980882e+01 -1.2021058748748383e+02  1.2686430953707095e+02 -4.3388279446707955e+01 -9.2796409287707831e+01  1.4257982252785385e+02 -5.2825376700659184e+01 -7.8299362819859851e+01  1.4023097659400599e+02 -4.2852088254744750e+01 -7.4144579365116130e+01  1.3992198388079714e+02 -3.3940262480523295e+01 -7.0308996236089996e+01  6.7058135471468830e+01 -2.4338201372969468e+01 -9.7914169083162719e+01  6.0658314491002741e+01 -8.2138206760795747e+00 -4.0523266118083519e+01  1.0313072131963947e+01 -2.3109429091441857e+01 -6.0755331446678824e+01  2.8897579310847068e+01 -1.6567284162032070e+01 -9.2816975582880985e+01  2.8955790227952132e+01 4.9700725117464142e+00 -7.2154864448697623e+01  5.2599030795975303e+01 -7.2335934808986586e+00 -1.1189305400301876e+01  6.0445274931711268e+01 -1.4969628225633425e+00 -3.2281796634114833e+01  7.6636373654256849e+00 -1.2256698974248119e+01 -4.0878682175339513e+01  6.2787624493182115e+00 -1.1809687199707955e+01 -7.0662480978774775e+00  1.3974100360248627e+02 -2.8087024682956784e-02 -2.0980188523446472e+01  1.5245778707340574e+02 1.2027798793901093e-02 -2.1856527966178017e+01  1.4942713579567450e+02 -1.5158939541961709e+00 -1.8676344949619207e+01  1.4676020309030758e+02 -3.9626142777088917e-02 -2.4832692959911029e+01  1.4658509374672414e+02 6.6923786419698945e-03 -1.7675320736091575e+01  1.5313013094509006e+02 -4.4070443902725194e-02 -1.6251540110137427e+01  1.5539861787105431e+02 -1.5773336933739046e+00 -1.7606841165931741e+01  1.6171609552027951e+02 -1.4899988283367598e+01 -2.8191201466954887e+01  1.6326262222799227e+02 -1.1154111040516591e+01 -2.5761450454310960e+01  1.6652008175680700e+02 -1.2661010968251125e+01 -2.7762208227212167e+01  1.6588350086285408e+02 -1.4096789418630417e+01 -2.6183443746594975e+01  1.6047741059553448e+02 -1.3874378702875216e+01 -2.8737296959302828e+01  1.5962541988671356e+02 -1.2171733407250965e+01 -2.6487417871657836e+01  1.5881420970100893e+02 -1.1710108260575309e+01 -3.0588056620596340e+01  1.5745851571658773e+02 -1.0823394940529631e+01 -2.6500979281747625e+01  1.5794987859626787e+02 -9.6092555065993359e+00 -2.3691720465137848e+01  1.7083035492808503e+02 -1.3688679363070390e+01 -2.3177898609122622e+01  9.6041286737800363e+01 2.3090204220992585e+00 -3.9235405556612179e+01  1.0576803803654819e+02 2.6722068971519679e+00 -4.0036951240756480e+00  9.4396682140732054e+01 4.5181832119873491e+00 -2.5190325864333087e+01  1.1045858004802550e+02 1.0209396470309809e+01 -1.9129408975740507e+01  9.8315123690962281e+01 1.5205023822727295e+00 -1.0060345614287201e+01  1.2042324385451413e+02 8.7819503717426297e+00 -1.4013277570870869e+01  1.1466580904592350e+02 4.8946301488368888e+00 -2.6573711736582655e+00  1.0793569610671970e+02 9.1028994538136594e+00 -1.9220995480014036e+01  1.0620500659346413e+02 3.1120679571109835e+00 1.1108568694949776e+01  9.2612821680333525e+01 7.6739976911678269e+00 -1.9697979275634932e+01  1.3677995572069071e+02 5.2191626197242735e+00 7