<?xml version="1.0"?>
<VTKFile type="UnstructuredGrid"  version="0.1"  >
<UnstructuredGrid>
<Piece  NumberOfPoints="9252" NumberOfCells="42175">
<Points>
<DataArray  type="Float64"  NumberOfComponents="3"  format="ascii">6.160113 2.368731 41.149216  7.3543181948 2.04604546895 40.0418888374  6.6568692418 1.69431151825 40.18292288150001  7.055119953 2.0916064507 40.9792509559  6.4593112418 2.32317001825 40.21185388150001  6.357671 1.7398725 41.120285  6.555229 1.111014 41.091354  7.252677953 1.4627479507 40.9503199559  6.7585094836 2.2776090365 39.274491763  7.950126906 1.8144819014 40.8092859118  11.375228 8.689816 39.823708  11.3932700039 8.8705124564 40.88674270495  11.49584687625 8.14697742565 40.73399058705  11.817604 8.625252 40.2132075  12.25998 8.560688000000001 40.602707  11.8356460039 8.805948456399999 41.27624220495  11.93822287625 8.08241342565 41.12349008705  11.6164657525 7.6041388513 41.6442731741  11.51388888015 8.32767388205 41.797025292  11.4113120078 9.0512089128 41.9497774099  12.079995 4.096958 44.439877  11.75269977765 4.4225604212 43.33946675905  12.5315744474 4.6953339018 43.8919248292  12.1957511081 3.86719173915 43.3674002806  12.3115072162 3.6374254783 42.2949235612  11.86845588575 4.19279416035 42.26699003965  12.6473305555 4.46556764095 42.8194481098  12.9831538948 5.2937098036 43.3439726584  12.20427922505 5.020936323 42.79151458825  11.4254045553 4.7481628424 42.2390565181  20.3739761492 3.5385712461 38.0492449222  21.60900837755 4.35793247365 38.09138276625  20.67551077485 4.48280350835 38.039873357  20.8910611913 4.068639542050001 38.62570840895  21.09192333545 3.8278641777 37.51491927950001  21.8098705217 4.1171571093 36.9805936368  21.3934579611 4.772096439949999 37.5055477143  21.4081462334 4.598707838 39.2021718957  21.19259581695 5.0128718043 38.61633684375  20.9770454005 5.4270357706 38.0305017918  -0.5 4.422436 30.368607  0.14639674175 3.55295886935 31.0361187102  -0.5 3.4649015 30.822345  -0.5 4.115601 30.995377  -0.5 3.7717365 30.195575  0.14639674175 3.85979386935 30.4093487102  -0.5 3.121037 30.022543  0.14639674175 3.20909436935 30.2363167102  -0.5 3.808766 31.622147  0.7927934835 3.2971517387 30.4500904204  8.842627999999999 7.336297 35.532001  8.1442885 6.7013545 35.103035  8.326001 7.042813499999999 35.66506  8.878125000000001 6.5337955 35.5472755  8.6609155 6.994838 34.969976  8.479203 6.653379 34.407951  8.696412500000001 6.1923365 34.9852505  8.913622 5.731294 35.56255  8.361498000000001 6.240311999999999 35.6803345  7.809374 6.74933 35.798119  15.12374 9.257682000000001 31.50124  14.652035815 8.6099123926 32.4029821506  14.9809895 9.410264999999999 32.4720745  15.340519 9.206569500000001 32.0638045  15.011565315 8.4062168926 31.9947121506  14.7642105 9.461377500000001 31.90951  14.404681 9.665073 32.31778  15.557298 9.155457 32.626369  15.228344315 8.355104392599999 32.5572766506  14.89939063 7.5547517852 32.4881843012  2.962431 3.448886 32.521763  2.29633769345 3.06311509485 32.37851813165  2.28414169345 3.42098659485 32.74402263165  2.13746735995 3.47183064395 32.11361580365  2.974627 3.0910145 32.1562585  2.986823 2.733143 31.790754  2.14966335995 3.11395914395 31.74811130365  1.3125037199 3.4947752879 31.7054686073  1.4591780534 3.4439312388 32.3358754353  1.6058523869 3.3930871897 32.9662822633  14.135726 4.166317 41.770897  13.18087569135 4.378754425349999 42.61491387905  13.4605530194 4.53923723665 41.89843220295  13.2236166081 3.90187123915 42.0329102806  13.85604867195 4.0058341887 42.4873786761  12.5484436275 4.2747914758 42.16044548355  12.94393928005 3.74138842785 42.7493919567  13.5763713439 3.8453513774 43.2038603522  12.7853800388 4.9121574733 42.0259674059  19.103964 1.403485 41.909603  19.76762158085 1.69767038205 42.93944786759999  19.30267608085 1.99926938205 42.4887068676  19.9377690085 1.7088119736 42.26422032879999  19.5689095 1.101886 42.360344  20.033855 0.800287 42.811085  20.4027145085 1.4072129736 42.7149613288  20.771574017 2.0141389472 42.6188376576  20.13648108935 2.30459635565 42.8433241964  19.5013881617 2.5950537641 43.0678107352  21.561104 -0.5 40.954937  21.80531825365 0.4940766791 41.59907022425  21.69541 -0.5 41.831793  21.8834985 -0.5 41.353861  21.3730155 -0.5 41.432869  21.48292375365 0.4940766791 41.20014622425001  21.184927 -0.5 41.910801  21.29483525365 0.4940766791 41.67807822425  22.205893 -0.5 41.752785  21.4047435073 1.4881533582 41.4453554485  18.839312 3.485924 40.690422  20.0569665788 2.93825021185 40.7952059809  19.5353174006 2.7325062401 40.77831389105  19.34772908185 3.1578398614 40.25654873395  19.54854949695 3.26633435045 41.22907924695  20.2577869939 3.0467447009 41.7677364939  20.24455489755 2.51291659055 41.316971138  19.8561461637 2.8297557228 39.8226754679  20.04373448245 2.4044221015 40.344440625  20.2313228012 1.9790884802 40.8662057821  2.831853 6.493505 32.675465  2.40446102905 5.647501993600001 33.2313581622  2.33661852905 5.9859569936 32.6113116622  2.2616794474 6.039529031 33.3173513081  2.8996955 6.15505 33.2955115  2.967538 5.816595 33.915558  2.3295219474 5.701074031 33.9373978081  1.6915058948 5.585553062 33.9592376162  1.76644497645 5.5319810246 33.2531979703  1.8413840581 5.4784089872 32.5471583244  13.748164 1.820389 46.5  13.5820873409 1.6432770429 45.1855330228  14.2467878409 1.6859035429 45.7860540228  13.7568658409 2.1760495429 45.7860540228  13.5733855 1.2876165 45.899479  14.0633075 0.7974705 45.899479  14.238086 1.330243 46.5  14.728008 0.840097 46.5  13.398607 0.754844 45.298958  13.7655676818 2.5317100858 45.0721080456  16.121935 2.553342 46.5  15.287181172 2.83106891355 45.8333920262  15.897144672 3.01088591355 45.8333920262  15.71113904705 2.39479642535 45.6261131876  15.5119715 2.373525 46.5  14.902008 2.193708 46.5  15.10117554705 2.21497942535 45.6261131876  15.3003430941 2.2362508507 44.7522263752  15.48634871905 2.8523403389 44.9595052138  15.672354344 3.4684298271 45.1667840524  1.941541 3.241541 41.134888  1.6262397597 2.62617293675 40.72673149054999  1.7474405 2.62111 41.1641675  2.373654 2.5742595 41.005234  2.805767 1.906978 40.87558  2.0583527597 1.95889143675 40.59707749055  2.1795535 1.9538285 41.0345135  1.55334 2.000679 41.193447  1.4321392597 2.00574193675 40.75601099055  1.3109385194 2.0108048735 40.3185749811  0.8112780000000001 8.180149 37.871708  0.07802350000000002 7.4706 38.312925  0.7336625000000001 7.9674155 38.369419  0.155639 7.8373295 38.32176  0.155639 7.6833335 37.815214  -0.5 7.186518 37.75872  -0.5 7.340514000000001 38.265266  -0.5 7.49451 38.771812  0.07802350000000002 7.624596 38.819471  0.656047 7.754682 38.86713  2.162686 1.678466 34.009521  1.1599682956 1.50084326625 33.2925561419  1.5974327956 1.98841976625 33.7810221419  1.4171915 1.250518 33.972717  1.7252215 1.1908895 33.521055  1.287757 0.703313 33.032589  0.979727 0.7629414999999999 33.484251  0.671697 0.82257 33.935913  0.8519382956 1.56047176625 33.7442181419  1.0321795912 2.2983735325 33.5525232838  2.931787 1.323354 30.580269  2.15747670255 1.66823637945 30.97926235615  2.72719 1.0870405 31.102259  2.8910705 1.530076 31.11924  2.850354 1.736798 31.658211  1.95287970255 1.43192287945 31.50125235615  2.11676020255 1.87495837945 31.51823335615  2.6864735 1.2937625 31.64123  2.522593 0.850727 31.624249  1.3831664051 2.0131187589 31.3782557123  8.684868 6.284209000000001 36.17816000000001  8.649370999999999 7.086710500000001 36.1628855  8.456113999999999 6.837124 36.79377  8.132743999999999 6.793227 36.2959445  0.23285159475 6.2394474447 38.3408332804  0.23285159475 6.6021494447 37.7482712804  -0.5 6.632993000000001 37.8409135  -0.5 6.823816000000001 38.351282  -0.5 6.079468 37.923107  0.23285159475 6.0486244447 37.8304647804  -0.5 6.270291 38.4334755  -0.5 6.461114 38.943844  0.9657031895 6.0177808894 37.7378225608  24.758997 3.078065 40.583237  25.3166664337 2.46840498745 41.6071011952  24.7261834337 2.73294648745 41.3923721952  24.9968469337 2.41433098745 40.9295901952  25.0788165 3.132139 41.260748  24.4883335 3.3966805 41.046019  24.21767 3.715296 41.508801  24.808153 3.4507545 41.72353  25.398636 3.186213 41.938259  25.2346968674 1.7505969749 41.2759433904  22.760502 1.831411 46.5  22.92963509285 2.48236717875 45.0306921241  22.39813211485 1.8802174522 45.02652741555  23.274885478 1.89756672655 45.75799270855  22.41525161485 2.4162114522 45.77269941555  22.7433825 1.295417 45.753828  22.726263 0.759423 45.007656  23.257765978 1.36157272655 45.01182070855  22.0700012297 3.0010119044 45.0453988311  23.789268956 1.9637224531 45.0159854171  10.027552 4.74706 36.599415  10.7550778558 5.72845717415 37.1588832915  10.6662616022 5.2365900711 36.54795871170001  10.70085107725 4.7430136024 37.03830144175  10.1163682536 5.23892710305 37.2103395798  10.2051845072 5.7307942061 37.8212641596  10.78966733085 5.234880705449999 37.64922602155  11.3741501545 4.7389672048 37.4771878835  11.33956067945 5.2325436735 36.98684515345001  11.3049712044 5.7261201422 36.4965024234  16.199192 9.156212 33.633415  16.15057893235 8.001264780550001 33.98756300175  16.68869943235 8.19108828055 33.95945250175  16.29919393235 8.20842278055 33.53297900175  16.050577 8.949054 34.087999  16.5886975 9.1388775 34.0598885  16.978203 9.121543000000001 34.486362  16.4400825 8.9317195 34.5144725  15.901962 8.741896000000001 34.542583  16.3991958647 7.2606335611 33.4325430035  17.17502 7.907378 42.851563  17.43399210155 8.57349607105 43.49266249775  16.90167238145 7.897461582349999 43.7498841669  17.9137745 7.75325 43.8338665  18.652529 7.599122 44.81617  18.17274660155 8.41936807105 44.47496599775  17.64042688145 7.74333358235 44.7321876669  16.6283247629 7.8875451647 44.6482053338  17.160644483 8.5635796534 44.39098366465  17.6929642031 9.239614142100001 44.1337619955  6.9166625 0.6510125 42.015972  8.0038646048 0.6859864657 41.58171500429999  7.433394703 1.2327472007 41.4126289559  7.83333750155 1.0763830738 42.1325046931  8.750012503100001 1.5017536476 42.2490373862  8.920539606350001 1.1113570395 41.6982476974  8.350069
[...]
<PointData  Vectors="u"> 
<DataArray  type="Float64"  Name="u"  NumberOfComponents="3" format="ascii">4.2503688362621835e+02 -4.9920069002768244e+01 2.3597189135139672e+02  2.9896312647765200e+02 -1.2923902093019151e+01 1.3373588691486322e+02  3.4056425234030098e+02 -9.3242918941605062e+00 1.5156196982221240e+02  2.6856661064974247e+02 -3.5462213606468360e+01 2.1911565785509524e+02  3.4707772007586442e+02 -1.2675138949794238e+01 1.4113172346084170e+02  4.3971421804521577e+02 -1.9805457050518246e+01 2.9153361311778599e+02  3.9173103954166044e+02 -1.1104273016284408e+01 3.1514578698974844e+02  2.5271082386090180e+02 -3.7770055852006671e+01 2.1517521888972479e+02  3.3875810568641111e+02 -7.9769599791123884e+00 1.2448466647405772e+02  2.3339193564146265e+02 -1.7065461071511375e+01 1.4092698507463629e+02  7.9730823147596354e+01 1.6070267591604627e+02 1.4735584849939048e+02  7.9332490650625701e+01 1.4093008667537464e+02 1.0970548597258157e+02  9.1777824853581976e+01 1.1666952534843492e+02 1.2633611019991433e+02  7.7849133974802996e+01 1.6024791670025508e+02 1.4325736307777245e+02  7.3178891601071911e+01 1.3629535909045086e+02 1.3194327705337008e+02  7.7248908827668117e+01 1.2661038131139500e+02 1.0780508808033927e+02  8.4052972958540224e+01 1.0779763275133573e+02 1.2240853381191118e+02  9.6279566579914587e+01 9.8842502717687069e+01 1.1664817902562555e+02  8.1208306790053442e+01 1.1402287916885943e+02 1.1088581563470089e+02  6.5658636250561955e+01 1.2427039534046756e+02 9.6654855381875549e+01  1.2307912206150483e+02 8.8290157968888280e+01 8.6754532615364539e+01  1.2654546838932080e+02 7.2106515679079337e+01 9.4774971107693617e+01  1.1486613889986214e+02 6.8918345276106464e+01 9.3022830134217543e+01  1.2914439780687263e+02 6.3531500884853401e+01 8.4384362411310875e+01  1.2549618001501921e+02 4.5201101615291307e+01 7.9003767156239249e+01  1.2971763118270957e+02 5.1608556836717277e+01 8.3800552610381615e+01  1.2121915362699791e+02 5.6251409467708207e+01 9.3127881020882626e+01  1.1405109565271776e+02 5.9554103519102931e+01 9.4811965437358793e+01  1.1943501040644378e+02 6.2690896293286784e+01 9.6942389208950331e+01  1.3610188066518936e+02 6.2215686237939586e+01 9.3028889054700230e+01  1.3140034162513012e+02 3.4565666241263578e+01 3.8820523294412624e+01  1.1342887572489761e+02 3.6571755724608941e+01 7.6064669491340775e-01  1.2060382565627876e+02 4.7581131746287021e+01 3.2387065620235795e+01  1.0481083617554992e+02 3.9355074199326772e+01 1.6731171673280731e+01  1.4087928294624211e+02 3.1022983813051685e+01 1.9437532128034739e+01  1.4764697802306071e+02 2.3930339224398640e+01 -2.2322318640311174e+00  1.3099104056203120e+02 4.3689540026047879e+01 1.5536372495685418e+01  7.9751452458619582e+01 4.1922028475580596e+01 -7.9397234264390786e+00  9.3218647021354428e+01 5.4384908561359232e+01 8.7930871624711191e+00  1.1059599305280220e+02 6.2376381310203321e+01 2.7427935374102297e+01  1.9977387000386713e+02 -3.3800566093756942e+01 1.8163781803739745e+01  1.5790965253804870e+02 -4.6562762333109461e+01 4.4961056902487051e+01  2.0079988459437828e+02 -5.0978355897953826e+01 3.5690360916039609e+01  2.0007813707961563e+02 -3.7694104943687080e+01 4.3126007732383286e+01  1.9972468293080794e+02 -4.6708482545716926e+01 8.3338689033273425e+00  1.6040188366430192e+02 -4.3005446814749455e+01 1.7597985421609774e+01  2.0088774709350764e+02 -6.2106525482308506e+01 -3.9186288508930063e+00  1.5644923592487370e+02 -5.5504738380032038e+01 5.6030266447163388e+00  2.0101894499941508e+02 -4.7258077924088347e+01 7.2419314753567022e+01  1.1751853574009584e+02 -4.7291830894547736e+01 1.4268194449225014e+01  3.1093846088985853e+01 -4.2848548227823136e+00 -1.1211127702056613e+01  7.8511940647390981e+00 8.5163284202029015e+00 -1.2125288796918277e+01  2.0241338312694200e+01 1.9874890464689969e+01 -2.9422871757964831e+01  5.7235194640748631e+01 6.9823013643381842e+00 -1.7927946769555195e+01  2.4806947755713175e+01 -1.6249550575073961e+00 -7.2519107463865284e-01  1.0598287261214793e+01 3.8231277858078796e+00 5.8769821069415551e+00  2.6762607071173999e+01 1.8529068283082644e+01 -1.5549488522452009e+00  9.0822043676119605e+01 1.2931283109185568e+01 -1.6050937822055928e+01  1.6676531092205593e+01 1.2619118136346781e+01 -4.7832851058613684e+01  -1.1631559145879381e+01 1.2880758407312971e+01 -3.0869978580095434e+01  7.8485563996258762e+01 -5.7237303929059514e+01 9.3609887420554813e+01  8.9211923297399551e+01 -3.5452867758185867e+01 5.4536445787458895e+01  1.0407447489439875e+02 -4.6464733756234899e+01 5.5474797811106264e+01  9.8475958309952233e+01 -4.5897259070157588e+01 8.0756399150508770e+01  9.4576419024086036e+01 -3.5095833844318932e+01 6.5497618319474640e+01  8.1376152770696550e+01 -5.4906904608033443e+01 7.8463320851756734e+01  6.9230095887539051e+01 -4.5662326740379527e+01 5.7582049827471536e+01  1.4101538255441170e+02 -2.9939145743687757e+01 8.5666677135199023e+01  1.0804344342645142e+02 -2.5037891707454616e+01 6.1132266244644882e+01  9.6251144860481560e+01 -2.0116743334600802e+01 5.0014189440122088e+01  -1.6587876409438703e+01 -1.0660414962349487e+00 1.0164142999741128e+02  1.2759100151097359e+01 -1.2956660869491465e+01 1.0007098403692085e+02  1.5685453047621847e+01 -1.1189806662724193e+01 1.2661658248620637e+02  3.3199792304248014e+01 -1.8022226102296578e+01 9.0499409237438726e+01  -1.3942677366833822e+01 -3.9111265614767001e+00 6.9432958791692883e+01  -1.0698683736245307e+01 -1.0366346867065975e+01 4.9922640835697010e+01  3.2412929739899973e+01 -2.2328008148924649e+01 6.6447842552219541e+01  8.4008357552151580e+01 -3.2698179704790853e+01 7.2777970088795072e+01  7.2732937609881290e+01 -2.9986059573240095e+01 1.0589552158680476e+02  6.4876344158888841e+01 -2.5211003708073235e+01 1.4466779954395147e+02  1.2499327995975928e+02 3.6060277800841007e+01 1.4470815469240435e+02  1.2084201121936424e+02 4.8520708145946756e+01 9.6706789139193432e+01  1.0451890930724159e+02 4.0661953709524383e+01 1.1430883740469798e+02  1.1599332405203538e+02 4.0551414024659685e+01 1.0049233079075343e+02  1.3692229303572998e+02 4.2954036306561484e+01 1.0700175146751766e+02  1.1749339620768372e+02 4.6982232953281944e+01 9.1293026272053112e+01  1.2797007739071346e+02 4.7450577992807332e+01 8.6931009851746566e+01  1.3628977265852146e+02 4.7609915565351955e+01 8.8329961156779746e+01  1.0917222805579200e+02 4.9114366042585878e+01 1.0285197488327702e+02  4.8667437410051697e+01 -4.2308907661821472e+01 -6.3853430278156416e+01  8.7995436382070338e+01 -9.4160440131656777e+00 -5.2416353426436075e+01  7.9757457567116077e+01 -1.3280075396751117e+01 -6.2629189633499529e+01  6.9132859260731692e+01 -1.6274003713401907e+01 -4.2569675797288404e+01  6.2833807472925265e+01 -6.1112340438006093e+01 -7.8099041312095707e+01  8.9895583567442301e+01 -9.6804603490803771e+00 -6.7701580189925551e+01  7.2401844649662493e+01 -1.5379485250198098e+01 -3.9571301915782001e+01  7.5180097806676699e+01 -4.6443426724208665e+00 -3.2147981321740517e+01  8.2611667350108888e+01 -2.8104181086552753e+00 -3.9979562714224066e+01  9.7678429893948817e+01 -8.2957325917661240e-01 -4.9402528605756473e+01  6.6675151660418038e+01 9.9105550991260305e-01 -2.5045924742179841e+00  6.6302991958717953e+01 -7.2364271097713004e+00 -1.4591254061968350e+01  5.6531667295028342e+01 -1.4491411369991374e+00 -1.0329465296399665e+01  6.5101096924370722e+01 -4.9894394903079231e-01 -9.1594534080282948e+00  5.5028592937906083e+01 -1.2364620100312598e+00 -3.0216897197113588e+00  6.5944230162378929e+01 -6.3255148212785492e+00 -8.6003902278635476e+00  4.2293865613094347e+01 -1.5144455382451985e+01 6.9894424493312712e-01  6.0572423643747307e+01 -1.0671070984575753e+01 -1.2393945304539223e+01  6.6824315335958048e+01 -7.4707955426081862e-01 -1.4160984885781703e+01  6.8179597643466138e+01 -5.1497334772036920e+00 -1.5084142908993533e+01  2.2995264078293047e+01 3.3092956986746835e+01 -3.7569630226490620e+00  6.3922727007919434e+01 1.4918857782599543e+01 -4.9767177594232885e+00  5.2859707402820554e+01 1.1432896151508006e+01 5.7381179776191793e-01  5.0727103385933731e+01 2.9661395498429613e+01 2.5278517406671323e+01  5.4154036089703894e+01 1.7352576025834274e+01 -2.7840503586530161e+01  6.7488483608581021e+01 9.5313663233428123e+00 -2.9445835911269853e+01  6.3873215723309180e+01 3.0819189643123610e+00 -1.7033066829605186e+01  7.8338150233817927e+01 2.2428225777616138e+01 3.0257888699584694e+01  6.8945775593010552e+01 1.0366728510988125e+01 1.3729972481968630e+01  6.2944417387967313e+01 -9.7617450049106791e-01 1.1705629557895039e+00  -6.7954993236160837e+00 -4.2254742448083732e+01 1.4512242962232745e+02  4.7190764553119372e+01 -2.6213547182096587e+01 1.8728687822984443e+02  3.5032443705330060e+01 -2.8049283620460336e+01 1.3449495692486215e+02  4.8950229787595433e+01 -3.4571981620258967e+01 1.8558011613208791e+02  1.0033060614120060e+01 -5.1375065994041933e+01 1.9739593549905874e+02  4.9869530201814463e+01 -1.5286671469521998e+01 3.0549415411684629e+02  9.0790754341221529e+01 -2.0777556060956663e+01 2.4541598057959709e+02  1.1696294660553670e+02 -1.9693713911796870e+01 2.0729534210054459e+02  8.6760881967001922e+01 -2.1089456789834507e+01 1.6988490642828782e+02  6.8409106196352425e+01 -2.1508391719688298e+01 1.2550873041853261e+02  1.3934542358385465e+02 -1.6562178944959158e+00 1.5402286413351819e+01  1.5596995024059893e+02 3.7122415795954396e+01 5.4054371231874832e+01  1.3615754352457478e+02 9.6950940195610116e+00 3.2907873882711236e+01  1.3929434577738067e+02 3.4766516371824011e+01 3.0326338266679269e+01  1.8355111798363870e+02 -6.0258121950961998e+00 5.8446186563456550e+01  1.1773840493623676e+02 -2.2519329235553474e+01 8.3705123896943434e+01  8.6632047215457035e+01 -3.0808702832290802e+01 1.9007800377058857e+01  7.1827343993924273e+01 -2.3538836248438328e+00 7.7854586372280625e+00  1.7892608591869254e+02 4.6394981686016685e+01 8.1615653216135044e+01  1.4018933877638796e+02 4.3680066668617918e+01 4.7262754013555153e+01  1.3684425525282620e+02 1.9138873565173721e+01 -8.0059067714600127e-02  1.3346877954189830e+02 3.0292510762423142e+01 1.1542878797642869e+01  1.3449158097978315e+02 2.3597202142775391e+01 5.6094544166132447e+00  1.4184265405760991e+02 1.9674358288539022e+01 7.8696628947399851e+00  1.3706199409658407e+02 2.3740851784055700e+01 8.3553875180963433e-01  1.3204048743878874e+02 2.8037923887254518e+01 -8.8416166835487819e-01  1.4090096798760720e+02 2.5352400793511912e+01 1.4611712228819504e+01  1.5712777570946565e+02 1.7539939021304907e+01 2.3188811734120456e+01  1.4691781251944687e+02 2.5095102588709814e+01 2.0898646309398195e+01  1.3750695330424821e+02 2.7282956356445883e+01 1.6245475458471660e+01  2.2011486758396427e+02 -2.2942184206415533e+01 -1.5122540081547733e+01  1.8744553215371732e+02 -3.6383440647988472e+01 1.5141262520584042e+00  1.6195586169602524e+02 -2.2935424165331341e+01 -9.3397165388100181e+00  2.3390682692868205e+02 -8.0897122866333824e+00 -4.0332149511517777e+01  2.6090027596719955e+02 -4.4291632330640018e+00 -3.4502396164240672e+01  1.9822365738862953e+02 -2.5361241099182145e+01 -2.4598380660656709e+01  2.0187108378909386e+02 -1.2157703664914230e+01 -5.4718823393883369e+01  1.4626884598524455e+02 -1.3554051609671131e+01 -3.2544413500458987e+01  1.5825439022166913e+02 -3.8855474835982804e+01 -1.3051089010102897e+01  1.6749505164413404e+02 -5.9216547491807873e+01 6.6970895237068309e+00  1.3069775537214488e+02 9.4611856067197877e+01 3.6114258126862921e+01  1.5163823781226608e+02 8.2504196139012407e+01 3.1371019718118699e+01  1.4870310322852518e+02 6.8065166238870916e+01 2.2913094369980040e+01  1.2993783419632015e+02 8.7016570651549074e+01 9.3514541297931135e+00  1.3163074935982075e+02 1.1713778472737380e+02 4.9664292130730502e+01  1.7221888194951021e+02 1.2176227265661501e+02 7.1594018863009197e+01  1.8228449929998823e+02 1.2165007664466442e+02 3.1074808859560488e+01  1.7384070515080086e+02 8.7995886991622442e+01 5.7614879040811156e+00  1.5957907631629138e+02 6.0024717783696723e+01 5.8277281903450699e+00  1.6265418899532781e+02 4.4520408619425844e+01 8.8094060488065651e+00  5.3187982766460017e+01 -4.3949418659386843e+01 3.3237032443605267e+02  2.9128181168750110e+01 -3.7814497386756535e+01 1.7076181588004596e+02  4.6152776996196636e+01 -3.6865434007645419e+01 2.2415243389121508e+02  5.6961449606199338e+01 -3.9536377220188143e+01 2.4976071894426963e+02  -3.4551559699581915e+01 2.2491917793233718e+00 2.4170855029902603e+02  -3.2201533051367385e+01 3.1136325545927097e+01 1.9475577057955718e+02  -2.9422096518063059e+00 -3.6835634866774591e+01 1.9573163348874201e+02  5.5361976052774239e+01 -6.7770570306382012e+01 1.9348224089403723e+02  7.2605629293645549e+01 -6.2737442837147860e+01 1.8162256247514682e+02  8.5024627081352236e+01 -5.0738916390481421e+01 1.7307979276679947e+02  -3.1338734868949607e+00 -2.4208407355557604e+01 -2.3152990409103417e+01  2.2971382619095760e+01 -2.6225445627717320e+01 9.1012807634310544e+00  -3.8680694638363700e+00 -1.4623148178553992e+01 -4.6724661863454910e+00  -3.9537602795396323e+00 -1.4388569617976037e+01 2.4975460249875203e+00  -1.1714532277111608e+01 -4.8514118591662250e+00 2.6417629735931229e+01  1.9034893902895082e+01 -1.7755699731552046e+01 3.0607676952959746e+01  1.8421575604226167e+01 -1.9344332151561229e+01 3.7962766778361129e+01  -9.4391960772349659e+00 -4.6857082402212340e+00 1.8833663472248450e+01  -7.4449161534843782e+00 -4.3368612917582592e+00 1.3302990172099069e+01  5.6213308763678938e+01 -3.5594996174683011e+01 4.4189396493655146e+01  3.6796527271462587e+01 2.0282123265276933e+01 -1.2063062521203810e+02  3.6828955871174607e+01 3.8731485399693064e+01 -7.4143175556742833e+01  1.3828889843076578e+02 5.2029245573561006e+01 -2.5590103799480534e+02  -4.7961486504953307e+01 1.9868841757699364e+01 -7.7437485171225248e+01  1.9129874225048059e+02 1.6293589261372574e+01 8.4136050625708791e+01  1.8439648060036080e+02 4.8942573616032291e+01 9.8758005057351255e+01  1.9768362795298606e+02 6.4199059722532439e+01 9.0238424569930515e+01  2.0122863618290205e+02 5.4493621202474365e+01 6.0434651817049229e+01  1.9942494073463649e+02 2.6731357205428900e+01 1.0066271721825186e+02  1.9323089556271171e+02 2.1050774692099647e+01 1.0487953533607678e+02  1.9899545906627020e+02 2.0403005957781801e+01 8.4599068533435229e+01  1.9242558865764622e+02 2.9099468468175180e+00 6.8261654609928357e+01  1.9754406326284274e+02 1.0335051973347488e+01 1.1014293980972967e+02  1.0483223200949307e+02 -2.4890656048628173e+01 -6.2855314035590993e+01  9.7108332576887847e+01 -2.0197602080011865e+01 -4.7611032335721774e+01  8.5018982684158630e+01 -3.3025305428042799e+01 -4.4307550368156370e+01  9.7552245575090083e+01 -1.3668318541315411e+01 -4.8523102442072101e+01  1.1201641665781843e+02 -5.2920992669654758e+01 -6.1527175225828167e+01  7.5342238571412906e+01 -5.6497395270216380e+01 -5.2234457081382523e+01  5.0104552941421794e+01 -5.7269094251055115e+01 -2.7926146464178089e+01  6.5663388226556464e+01 -7.2732039011558797e+01 -4.4405080984156342e+01  1.0175999180669766e+02 -5.5490070853424733e+01 -5.6349297388026969e+01  9.1929706715563597e+01 -7.1370154442066340e+00 -4.0593369452217502e+01  7.6619079749669069e+01 -5.3282316967449210e+00 -1.9985238262136440e+00  5.8762121151113341e+01 -7.5236915860274207e+00 -1.6285082699823782e+01  7.1365533565207670e+01 -5.6515414549130325e+00 -1.8994311613847017e+01  5.5131865828578711e+01 -1.6163197104891797e+01 -8.6765927089675863e+00  6.6033366795914134e+01 -5.6221694769786612e-01 -9.1024688391499318e+00  8.9728470714479769e+01 -1.7201167636335583e+01 -9.8702711929720568e+00  7.7419947841990151e+01 -2.8571266323627029e+01 -1.6607356814470606e+01  5.9812825894088398e+01 -1.9517214294929868e+01 -1.5251253489677223e+01  6.8128791923074388e+01 2.0449510450385175e+00 -1.3939398394176242e+01  5.2569193579029772e+01 -1.5455561618049895e+01 -2.1618358785502483e+01  1.6800363864025377e+02 -3.2609566227836162e+01 -1.2734521451618981e+02  1.5253397957214727e+02 -1.0914121923182295e+01 -6.6336680327335188e+01  1.4528044534810849e+02 -2.2479088194075167e+01 -9.5267841008112413e+01  1.5444844529390971e+02 -1.8434941169964524e+01 -8.7941690761733753e+01  1.8633010828174119e+02 -1.1901865454070146e+01 -8.3193271527475119e+01  1.8245273219477198e+02 5.8229915459884625e+00 -3.9834276224181764e+01  1.5726307411295846e+02 -6.3923622581265205e+00 -5.3375597045644881e+01  1.3526367677068279e+02 -1.2935873313370235e+01 -6.2915752310284397e+01  1.3264076584277257e+02 -1.6305001540439964e+01 -7.4891043193867574e+01  1.3160010124671044e+02 -1.5305379102639360e+01 -8.9066633488679599e+01  1.2895898401943947e+02 8.7115713980356819e+00 6.4034181938306389e+01  1.2513774252842234e+02 2.1688539141994223e+00 5.4928877026473806e+01  1.2243666815730549e+02 2.2808599430099465e+00 6.1095645367476962e+01  1.2202289195400787e+02 -1.7490282923061445e-01 5.8575334117706490e+01  1.3444559698619472e+02 6.9771006889101503e+00 6.0705375423050825e+01  1.1528981628288994e+02 1.3944830157903725e+01 6.2515099362107591e+01  1.1219071435280482e+02 -2.3525209834498857e+00 6.5528844225244384e+01  1.2440869122180108e+02 9.9418503121249024e+00 5.4996180011958018e+01  1.3105498622013161e+02 6.6805636318139392e+00 6.0644846997754165e+01  1.1861678780161670e+02 -9.9854525228546198e-01 5.3249989544726539e+01  1.7268716806651329e+02 6.6046832504943893e+01 -7.0724107929432847e+01  1.3961341843679804e+02 4.9579542265306991e+01 -6.4900843245165021e+01  1.4500361476129947e+02 5.4450576074280356e+01 -3.6175927311972437e+01  1.3277908480451666e+02 4.9295340605335404e+01 -6.3651036602952615e+01  9.8451577039885677e+01 4.9794783849354147e+01 -9.6780693617906607e+01  1.1080847863522843e+02 4.9010313044869392e+01 -6.9933222339249753e+01  1.0422362608561217e+02 4.7098428321966374e+01 -5.2205507941362711e+01  1.2019758321891865e+02 4.7343065267978083e+01 -2.1330537377054750e+01  1.2106998850951025e+02 4.8045184804214905e+01 -4.1611136242007383e+01  1.2572615023797039e+02 4.4034395487371043e+01 -5.7982287565358668e+01  3.1088916451564707e+01 -5.5779975080267697e+01 2.0559233451093019e+02  1.4282092519331172e+02 -2.3595022184340419e+01 1.4487219707233140e+02  1.6749296456575146e+02 -4.7984663048333566e+01 2.1613393731996169e+02  1.0321845349206811e+02 -2.3901472210244641e+01 1.4575647164499878e+02  1.3254176940943745e+02 -4.4646588778749869e+00 9.1485455715927714e+01  1.5166121836600030e+02 -3.5781793382086722e+00 8.9298902357482461e+01  1.7172639757700702e+02 -1.2912961743694380e+01 1.2069868305427067e+02  1.9545309744763267e+02 -9.3195540308211431e+00 1.0531988334328254e+02  1.6952595598030373e+02 -3.2730532178445522e+00 7.9389784004167865e+01  4.9247574359386299e+01 5.2698975692065147e+01 -4.0804166115688432e+01  4.0839210164092052e+01 4.3255297589144604e+01 -3.2974223104475300e+01  3.8538949070049235e+01 3.8041892260592320e+01 -3.1895481593310947e+01  5.3186307287417250e+01 3.5765154530490854e+01 -3.3624644764042813e+01  5.9912001426114330e+01 2.1519675708050151e+01 -2.7657783485666840e+01  4.6888872091219447e+01 2.5554245130118584e+01 -2.6884692140583290e+01  4.7165941203031771e+01 2.0702186472955528e+01 -2.7713440638186853e+01  3.3033618126500393e+01 1.7824321740981194e+01 -2.5856623299450515e+01  3.2344579942677910e+01 2.3842195168804945e+01 -2.6393298891741910e+01  3.0511003895168820e+01 3.0191880100935613e+01 -2.7026513162245148e+01  -1.4597116727026130e+02 3.8542324167123667e+01 -7.8155480281588481e+01  2.1456015930443746e+02 7.3879166686301375e+01 -3.6619374676570129e+02  -1.2414522671601364e+02 3.8824844258352648e+01 -1.2612182773537458e+02  -1.2024009157818618e+01 9.2621557440977540e+00 -4.4213156204799567e+01  1.8028650441032410e+00 -5.8335316247657385e+00 -4.7523151078154285e+01  -1.0048587112240033e+02 2.6771663386454119e+01 -2.1884972039675796e+02  3.6798146691463648e+02 1.2562697520582601e+02 -2.7163825842131172e+02  1.8991735871654396e+02 3.3750987095586424e+01 1.0680846512633134e+02  2.2030366946552155e+02 -2.7198224164229046e+01 1.1340510534253852e+02  1.6943939942468293e+02 