<?xml version="1.0"?>
<VTKFile type="UnstructuredGrid"  version="0.1"  >
<UnstructuredGrid>
<Piece  NumberOfPoints="9400" NumberOfCells="42216">
<Points>
<DataArray  type="Float64"  NumberOfComponents="3"  format="ascii">2.199837 36.984764 25.046019  2.89243436245 37.3906670882 24.38317504555  2.7779374106 37.5948819591 24.87936125165  2.99292336245 36.97155958819999 24.78457954555  2.099348 37.40387149999999 24.6446145  3.7860097249 36.9583551764 24.5231400911  3.57102377305 37.5816775473 24.6179217972  3.3560378212 38.2049999182 24.7127035033  1.942146 32.371838 25.600306  0.9876439031000001 32.68648525935 25.38805188545  1.3914384031 33.24723175935 25.34217488545  1.4127424031 32.87730725935 25.73450838545  1.4957435 32.5509405 24.861516  1.5170475 32.181016 25.2538495  1.920842 32.7417625 25.2079725  1.899538 33.111687 24.815639  1.091949 31.990194 24.907393  0.8833388062 33.3827765187 25.8687107709  2.747085 33.19553 25.959402  2.6670751649 34.1453830567 25.73826635415  2.6378781649 33.7917930567 26.38042885415  1.970173 33.9639895 25.6271945  2.776282 33.54912 25.3172395  2.805479 33.90271 24.675077  1.99937 34.3175795 24.985032  1.193261 34.732449 25.294987  1.8609661649 34.5602525567 26.04822135415  2.5286713298 34.3880561134 26.8014557083  2.54026 35.683926 28.879488  2.1194902065 35.34649889755 27.922409387  2.7348946857 35.1714710766 28.0123106546  2.1923422065 35.11464539755 28.444050387  2.467408 35.9157795 28.357847  2.8077466857 34.9396175766 28.5339516546  2.394556 36.147633 27.836206  3.0752333714 34.1953091532 28.1884153092  2.4598288922 34.37033697415 28.0985140416  1.844424413 34.5453647951 28.008612774  8.545653 35.739437 27.28813  7.51138108825 36.20725947455 27.74491022165  8.338252499999999 36.488781 27.690069  8.261566500000001 36.2587775 27.2161465  7.43469508825 35.97725597455 27.27098772165  8.622339 35.9694405 27.7620525  8.699025000000001 36.199444 28.235975  7.97748 36.778118 27.144163  7.15060858825 36.49659647455 27.19900422165  6.3237371765 36.2150749491 27.2538454433  3.676229 35.635571 29.33255  3.3757311857 34.9154400766 28.7604826546  3.1082445 35.6597485 29.106019  3.1822265 35.378508 29.4626675  2.688224 35.121445 29.592785  2.8817286857 34.6583770766 28.8906001546  2.614242 35.4026855 29.2361365  10.896228 31.56357 32.180637  10.4694855 31.5460235 32.932167  10.3290955 31.367899 32.4424705  10.951836 31.294382 32.5942515  11.007444 31.025194 33.007866  10.5250935 31.2768355 33.3457815  10.3847035 31.098711 32.856085  9.761963 31.172228 32.704304  9.902353 31.3503525 33.1940005  10.042743 31.528477 33.683697  3.8826862199 32.9510990961 29.1016205204  4.388613396 34.0935118622 29.02211501625  4.75657741445 33.6304498356 28.4686758598  4.8990244988 33.21040546245 29.20979407305  5.9153627777 33.4697118288 29.3179676257  5.4049516749 34.35281822855 29.1302885689  5.772915693350001 33.88975620195 28.57684941245  5.630468609 34.3098005751 27.8357311992  5.26250459055 34.7728626017 28.38917035565  4.8945405721 35.2359246283 28.9426095121  4.627103 36.904263 29.366278  5.42191131445 36.77605713965 28.2482216407  4.559978725800001 36.87464863595 28.44862109885  5.15383154185 37.31056981725 28.6242384103  5.48903558865 36.8056715037 29.16587854185  6.3509681773 36.7070800074 28.9654790837  6.0157641305 37.21197832095 28.42383895215  4.4928544516 36.8450342719 27.5309641977  5.08670726765 37.28095545319999 27.70658150915  1.8898555 35.92200099999999 28.233917  1.853674 35.8303475 27.586743  1.312792 35.513062 27.33728  1.6147897065 35.12086689755 28.320120387  1.5786082065 35.02921339755 27.672946387  1.3489735 35.6047155 27.984454  1.385155 35.696369 28.631628  -0.5 33.238586 31.671862  0.2182737137 34.12002303055 31.4828135927  -0.10542525 34.05687425 32.11465925  -0.10542525 33.44685825 32.16953475  0.2182737137 33.51000703055 31.5376890927  -0.5 33.848602 31.6169865  -0.5 34.458618 31.562111  0.2891495 33.6551305 32.6672075  0.6128484637 33.71827928055 32.0353618427  0.9365474274 33.7814280611 31.4035161854  2.4437565 34.8992825 25.246046  2.082034 35.895855 25.817015  2.3053526649 35.1419555567 26.30923535415  1.6376475 35.314152 25.556001  1.349427 35.252495 30.574381  0.8773642377 34.6104776369 30.64045936765  1.1429872137 34.51696153055001 30.9889485927  1.1325377377 34.5777321369 30.27888136765  1.0942535 35.2852405 30.935959  0.83908 35.317986 31.297537  0.8878137137 34.54970703055 31.3505265927  0.9156484754000001 33.9029692738 29.9833817353  0.9260979514000001 33.84219866745 30.69344896035  1.439814 35.253479 26.307178  1.34891976995 34.5489043493 27.30690528355  1.6421192065 34.89942189755 27.157895387  1.41243076995 34.4191128493 26.79185428355  1.376303 35.38327049999999 26.822229  1.3850475399 33.5847466986 27.2765305671  1.61473597645 34.06505574685 27.64257167055  -0.5 29.383947 25.782024  -0.125491 30.3188195 25.95764775  -0.5 30.456058 26.003254  -0.5 29.858285 26.257738  -0.5 29.98172 25.52754  -0.125491 29.8444815 25.48193375  -0.5 30.579493 25.273056  -0.125491 30.4422545 25.22744975  -0.5 30.332623 26.733452  0.249018 30.305016 25.1818435  9.689446 33.018894 28.329811  9.190014999999999 33.605383 27.85721  8.69706499125 33.271990683 28.38318954005  9.492350500000001 33.5553645 28.2544345  9.3871105 33.0689125 27.9325865  9.084775 33.118931 27.535362  8.499969491249999 33.80846118300001 28.30781304005  8.394729491250001 33.32200918300001 27.98596504005  9.295254999999999 34.091835 28.179058  7.7046839825 33.525087366 28.4365680801  2.303515 34.911819 31.435631  1.3921705 34.79987749999999 31.997115  1.6200312137 34.34662353055 31.4195735927  1.5712975 35.1149025 31.366584  2.124388 34.596794 32.06616200000001  1.945261 34.281769 32.696693  1.4409042137 34.03159853055 32.0501045927  9.960207 31.024847 28.958214  9.19782494415 31.29593056585 29.14860228085  9.732288499999999 31.100835 29.537199  9.625154 30.5878955 29.1945065  9.290101 30.150944 29.430799  8.862771944150001 30.85897906585 29.38489478085  9.397235500000001 30.6638835 29.7734915  9.50437 31.176823 30.116184  8.96990644415 31.37191856585 29.72758728085  8.435442888300001 31.5670141317 29.3389905617  4.983651 31.971405 28.414541  4.43316860995 32.46125204805 28.7580807602  4.6295065 32.530838 28.01937  4.334229000000001 31.910411 28.232848  3.684807 31.849417 28.051155  3.78374660995 32.40025804805 28.5763877602  3.9800845 32.469844 27.837677  4.275362 33.090271 27.624199  4.07902410995 33.02068504805 28.3629097602  3.2800086857 34.5705455766 29.2931926546  3.77945760995 34.29333504805 29.2170852602  3.5805065 35.2906765 29.86526  3.484784 34.945782 30.39797  3.68373510995 33.94844054805 29.7497952602  3.47895979565 33.57320412465 28.6450179148  1.2648018089 33.06235843864999 30.10329728035  1.73580726905 33.6501033881 29.85758507815  1.63375731915 33.44114891625 30.69325860195  2.3518661629 32.9793285587 31.4031354686  1.98291065265 32.6005380811 30.813174147  2.4539161128 33.18828303055 30.5674619448  2.5559660627 33.3972375024 29.731788421  2.08496060255 32.80949255295 29.9775006232  1.6139551424 32.2217476035 30.2232128254  5.312052 35.023022 24.089352  4.486640427 35.3316865475 24.97747330425  4.499697 34.6541385 24.1835865  5.0403305 34.5720045 24.299927  4.768609 34.120987 24.510502  4.214918926999999 34.8806690475 25.18804830425  4.227975499999999 34.203121 24.3941615  3.687342 34.285255 24.277821  3.674285427 34.9628030475 25.07170780425  3.661228854 35.640351095 25.8655946085  1.892589 35.646717 24.585629  2.6146189115 36.5558014694 24.40453313975  2.4609949115 35.8867779694 24.17433813975  1.9082355 36.202362 24.2335845  2.046213 36.3157405 24.815824  1.923882 36.758007 23.88154  2.0618595 36.8713855 24.4637795  3.029400823 36.1268389388 23.7630472795  2.4766414115 36.4424229694 23.82229363975  -0.5 30.981501 28.241444  0.15720319945 31.4550396761 28.6813649347  0.2362840724 31.54757550575 27.99576250565  -0.5 31.7093805 28.262846  -0.5 32.43726 28.284248  0.15720319945 32.1829191761 28.7027669347  0.2362840724 32.27545500575 28.01716450565  0.9725681448 32.1136500115 27.7500810113  0.89348727185 32.02111418185 28.43568344035  0.8144063989 31.9285783522 29.1212858694  2.654373 36.543747 26.72094  3.085721927 36.1954580475 25.89757430425  3.5652712793 36.8312241 25.9763689606  3.157800927 36.0920490475 26.29326730425  2.582294 36.647156 26.325247  3.6373502793 36.7278151 26.3720619606  2.510215 36.750565 25.929554  4.6203275586 36.9118832 26.0231839212  4.1407782063 36.2761171475 25.94438926485  1.956214 35.37579 23.431725  1.940048 36.0668985 23.6566325  1.9244015 35.5112535 24.008677  3.233353927 34.7715305475 25.27033580425  3.7215625 34.0385855 24.7973255  3.2464105 34.0939825 24.476449  3.755783 33.791916 25.31683  3.708505927 34.7161335475 25.59121230425  3.280631 33.847313 24.9959535  5.082492 36.093441 23.810949  3.89188036245 36.0257740882 24.05532754555  4.43425086245 36.52589808819999 24.16704454555  4.371860427 35.8668960475 24.83827180425  4.5401215 35.593317 23.699232  3.997751 35.093193 23.587515  3.829489927 35.3667720475 24.72655480425  3.72361928945 36.2993531357 25.1943673498  2.871631427 35.7681030475 25.84130480425  2.3682035 36.219801 26.2689775  2.2961245 36.32321 25.8732845  6.745173 37.619705 25.659973  6.0141352183 37.3648240672 25.42968316795  5.7745891186 37.90422628250001 25.5998791071  6.181982118600001 37.6970442825 26.0731826071  6.421528218300001 37.1576420672 25.90298666795  6.33778 37.826887 25.1866695  5.930387 38.034069 24.713366  5.6187912372 37.774383565 26.4863922142  5.8583373369 37.2349813497 26.31619627505  6.0978834366 36.6955791344 26.1460003359  4.273597000000001 37.512871 28.997616  3.920091 38.121479 28.628954  4.2064727258 37.48325663595 28.07995909885  4.80032554185 37.91917781725 28.2555764103  5.0558228444 37.30970891845 27.00867820595  4.645515884 37.8632032871 27.12759755715  4.5565910051 36.87845873595 26.77707405945  5.1195593979 37.3431333825 26.2547880677  4.7092524375 37.89662775115 26.3737074189  5.2084842768 38.32787793365 26.
[...]
<PointData  Vectors="u"> 
<DataArray  type="Float64"  Name="u"  NumberOfComponents="3" format="ascii">5.8093873207801245e+01 -3.0301854447947470e+01 2.3015868764814826e+02  1.1433689854855206e+02 -2.0851207123614897e+00 2.6264512400245479e+02  9.7191172688142913e+01 -7.3844210519229436e-01 2.2945031006082240e+02  1.0455008870773690e+02 -1.8758944165496096e+01 2.3693920555099788e+02  6.0608960278996157e+01 -5.9758033960031351e+00 2.7831256376320977e+02  1.3790160932592929e+02 -2.3381106020905698e+01 2.2817324178647547e+02  1.2638359174593161e+02 1.7384592908287988e+00 2.2983768707436465e+02  1.1871338232782662e+02 1.5899994564242460e+01 2.2335808099174554e+02  6.5891155765328278e+01 2.9729171691607760e+01 6.7569080216200447e+01  9.2911183214591176e+01 1.1495232302563538e+01 3.3620165443186821e+01  9.0916549211907721e+01 2.8246106480758360e+01 4.5874479428146394e+01  9.7653173397254463e+01 2.0549992990771649e+01 5.0698677005521994e+01  6.0730168070664838e+01 2.5966342202412307e+01 5.3959071752358327e+01  6.2437333606761300e+01 1.3663534143901076e+01 5.1013934372175186e+01  6.8126754058369173e+01 3.4715974449000903e+01 6.0345554260791054e+01  7.8332572253972089e+01 3.7090299863150619e+01 4.5482424535395246e+01  3.9137074099824446e+01 -1.3553817177733075e+01 1.7549530922674684e+01  1.1914369223501235e+02 2.8595446210583091e+01 3.6012366132854865e+01  1.1040462890629148e+02 4.3152805018378807e+01 7.9878359305277371e+01  1.0087073215998787e+02 6.5229180446707984e+00 8.9233347851442559e+01  1.1688674164181779e+02 2.1679923426715124e+01 8.1681650131398101e+01  8.9680450492696721e+01 2.0685193819638176e+01 6.7211038110818933e+01  1.1314104332677201e+02 1.9694034760027566e+01 7.7071623590884371e+01  8.6565178052831982e+01 -2.9622369179483975e+01 7.8810054952979570e+01  5.3126535086240338e+01 -5.9624882394713552e+00 7.2107936276559414e+01  4.9808779471519586e+01 4.9817918430044195e+01 3.7703447400444375e+01  8.9722296536234779e+01 3.1616573816350424e+01 6.8874872987361840e+01  1.1768997375970449e+02 2.3525149706945847e+01 7.8485470901821913e+01  1.7554001731570369e+02 2.8624360115044325e+01 2.5600156368588856e+01  1.3442821302703391e+02 3.6686243883787952e+01 4.1797424432072610e+01  1.3722314024381683e+02 2.3657655852320719e+01 6.4424925053662548e+01  1.5290164593638951e+02 1.5997498374783659e+01 3.9941030330752035e+01  1.7343986578176040e+02 4.6538570556866830e+01 3.6130106613174320e+01  1.5360470006227257e+02 1.3357473312761051e+01 6.1139975073998592e+01  1.1334643241088605e+02 7.5560695478460445e+01 3.8466458521506688e+01  1.4842244147270543e+02 6.2334989691249874e+00 7.7866030546113038e+01  1.4632413200443139e+02 1.3068128715163080e+01 6.5742082957114974e+01  1.4691413043221291e+02 1.9632679785641653e+01 5.0552637639723514e+01  5.1521486156467255e+01 -1.9839971449449909e+01 8.9200482609010123e+01  6.7634599167441365e+01 7.4483548570358771e-01 1.1240142606870864e+02  4.3557723580828188e+01 -3.2268202532905890e+00 1.0764359949009142e+02  5.8436216054567595e+01 -1.4399000168057130e+01 9.3180276041997587e+01  7.6446187403595715e+01 -9.1416049251199532e+00 1.0808531092781810e+02  4.0669926419444465e+01 -1.3160850216596002e+01 9.7414649634493841e+01  2.5551811576624395e+01 -7.6596601691151145e+00 9.9034123939305587e+01  5.7883494013836355e+01 -2.3656772285185630e+00 1.1332974416214449e+02  7.8278485076348602e+01 1.2582387890365110e+00 1.1787219032297190e+02  9.4704020700395390e+01 1.6153060433630033e+00 1.1825476406632320e+02  1.6855196609977253e+02 2.3790629536678509e+01 8.7255134489955196e+01  1.5253072161757666e+02 1.0939544318691365e+01 7.6029524344037853e+01  1.7238818071982027e+02 1.7313354822644829e+01 5.2233384106355416e+01  1.8780774228661221e+02 7.3505682282936977e+00 7.7303335116343462e+01  1.9485473363125598e+02 -1.3285611670859321e+01 5.1047716411998550e+01  1.5937500342131958e+02 3.4468313700051665e+00 6.7172041687519012e+01  1.9710003452103817e+02 -4.3154718215830785e+00 2.8910421556183085e+01  5.3285886603003416e+02 -1.6404710778466776e+02 1.2922927826008240e+02  3.7154959236835703e+02 -3.5913069937077687e+01 2.9521286055262333e+01  4.1431431351396839e+02 -1.3345278555312428e+01 1.4470185321676036e+02  5.7166838847827296e+02 -2.5105632551902784e+02 -6.8633406594555638e+01  5.3229138200531725e+02 -2.2451492919144368e+02 -1.3613546250378585e+02  3.0018876891708913e+02 -5.2768660188568056e+01 -7.9568080171966088e+01  3.9752958380059118e+02 -7.3690614000173497e+01 8.8009054150868693e+01  3.1457295732252476e+02 4.5139319143437156e+01 1.0210191083492323e+02  3.4295850180442045e+02 1.3711798732907121e+00 2.3090932115952523e+01  2.7815324674005757e+02 1.7520197103872874e+01 -4.0380525341509504e+01  1.5659997673309800e+02 -8.3542748399502180e+00 8.4840188800641897e+01  1.4584033210289124e+02 -3.0962841852372494e+00 8.9537083339578885e+01  1.4073710182690684e+02 -1.7618308243973924e+01 8.2645052837858131e+01  1.3959300788508131e+02 -1.1949694312833385e+01 8.4067626896093401e+01  1.1993446936487457e+02 -1.3767115608527678e+01 8.7586975371636612e+01  1.2408218637589802e+02 -3.4003040031208682e+00 9.7192647514524239e+01  1.1876630968382912e+02 -2.0503326663739649e+01 8.8842318947371837e+01  1.1834753648725052e+02 -2.3270659775980445e+01 9.5540948118163556e+01  1.2130085200626330e+02 -3.9353796919570141e+00 9.9341756880092220e+01  1.2887474407799252e+02 1.1695076449773071e+01 1.0211139363620835e+02  1.3595865036840189e+02 4.3034940980696895e+01 1.0939050593033927e+02  1.0582191337607073e+02 3.0802421417417481e+01 1.2252072784473042e+02  1.1923253431960899e+02 3.7019061285824108e+01 1.0904915801184761e+02  1.1513771655831735e+02 4.5138165197870563e+01 1.2168365115131114e+02  1.1348788586931624e+02 4.1399254274120835e+01 1.1955930127681499e+02  9.1372985130236898e+01 3.6596256809591644e+01 1.2270642353565135e+02  9.6653003354931968e+01 4.0738667602931820e+01 1.3114487692214695e+02  1.0605213676251167e+02 2.6014407287026117e+01 1.2268698920150051e+02  1.0429434285248648e+02 3.2135881642769839e+01 1.3065611947357840e+02  1.2764770165331939e+02 3.9443197799592951e+01 -3.9317357503617685e+00  1.2151299601302740e+02 6.9189610516411122e+01 3.8144053772934349e+01  1.3134809825071073e+02 6.2229750986441118e+01 2.2851022790111827e+01  1.5343051906754360e+02 2.5702015539568940e+01 2.7345045431536633e+01  1.3911305688704545e+02 3.8128467364235931e+01 3.8565867684561660e+01  1.5568376834196764e+02 6.2022264518193893e+01 1.8465449907945043e+01  1.5766518777959433e+02 3.0676569134633770e+01 -5.3624282762682975e+00  2.0928607367999598e+02 -1.0843243501321291e+02 2.7930905744410875e+01  1.8461696059858161e+02 -3.2362586465160163e+01 1.3773555534070516e+01  2.1407805583034335e+02 -5.1249992414250329e+01 -2.4612003820687438e+01  2.6884774020295902e+02 -1.0569320302422327e+02 7.6894635012945614e+00  1.9410086244938321e+02 -7.3826604267310813e+01 3.3196568055459622e+01  1.9949572250398074e+02 -4.0127166278731401e+01 -2.8832386941146106e+00  1.7939320816976885e+02 3.3783672837513784e+01 -2.0413725680441644e+01  1.9952540482078470e+02 -1.2799743915503555e+02 7.2967973175678198e+00  1.9968876991885367e+02 -8.7749760148521432e+01 1.5647231400007570e+01  1.9090179542974670e+02 -6.2797498890159019e+01 3.9656551117563055e+01  6.3282336621701035e+01 -1.6152169988667673e+01 1.1590463467824098e+02  3.0053437976426387e+01 7.8524087899493455e+00 1.3429730346403031e+02  8.5329098357515207e+01 2.7275852327216001e+01 8.9693480259971878e+01  1.4628226713593769e+01 3.6562611416510400e+01 8.9035265626823673e+01  1.5287579603300640e+02 -3.0452100016883559e+01 2.9579153501021271e+01  1.6960563185873210e+02 -2.5900415926289885e+01 4.0386198142348753e+01  1.7406275346533184e+02 -3.9923917061121557e+01 3.1467214975803333e+01  1.7207651738300808e+02 -2.7558101228400808e+01 4.4499157174389850e+01  1.4012750328001940e+02 -2.5485299314796855e+01 2.4084134427897492e+01  1.0755588164104469e+02 -3.5598135315288393e-01 5.8329637722611025e+00  1.7011024877333855e+02 -3.7922180638720626e+01 1.9129441020675497e+01  1.7988076563108532e+02 -2.9302284733765877e+01 5.3629351826054055e+01  1.8297931333753823e+02 -4.2105595730642229e+01 4.9689007260004487e+01  8.8734732854326779e+01 6.1141885031699452e+01 4.6576454245644690e+01  1.3766155286815746e+02 3.2005333382399634e+01 4.2860787487730583e+01  1.2310407450244135e+02 4.1702892389733442e+01 4.9885812089077234e+01  1.2203735162315481e+02 3.6682964334440086e+01 4.9208612837057139e+01  1.1008061370474255e+02 6.8718361695078514e+01 3.8895965534883011e+01  1.4151639679858525e+02 1.7172742032287083e+01 5.7973669542258314e+01  1.4367204611087737e+02 1.8798686476276607e+01 5.6262917861130312e+01  2.0959644875141461e+02 -1.1461624376828411e+02 7.4796327741931847e+01  1.8443379154137000e+02 -2.2856331702983962e+01 6.1031288433948461e+01  2.0065009207257282e+02 -1.1825572378462775e+01 5.6630074300370644e+01  2.0225067228664685e+02 -5.8352128435857580e+01 6.9865170768068623e+01  2.2351879999413194e+02 -4.3623491328097991e+01 1.7896333406786832e+02  2.6350223452445908e+02 -8.2418349054364512e+01 3.9110638722021434e+01  2.1264699218222441e+02 1.3252163683402182e+02 1.3324450057378121e+02  3.2061988878405890e+02 -3.0448210622030651e+01 2.3351936290011139e+02  2.0003309498500874e+02 -3.6948952352662261e+01 6.1931117546450729e+01  1.7760172877761775e+02 -6.5098526025021400e+01 3.3300266728432831e+01  2.5264402611080040e+01 -3.6329179856232187e+01 6.4453238428146989e+01  5.7301768658141526e+01 -4.8217287209448799e+01 7.6179897486133541e+01  5.8806194888067942e+01 -3.9360499332337753e+01 7.9276899482667361e+01  4.0266948943899258e+01 -4.2443931523693927e+01 6.5970213003859357e+01  4.9608586333500512e+01 -3.9135612709485407e+01 6.1853960160280963e+01  5.6160154602940757e+01 -5.5227019726059005e+01 6.3997444824526241e+01  6.0617944179540153e+01 -3.6626338418108993e+01 8.7315259976859224e+01  6.5602661139380089e+01 -4.5446602677266391e+01 7.7488530243775713e+01  4.0395712629213563e+01 -4.5917726927332531e+01 8.4671116905529232e+01  7.9312809742940019e+01 -3.5835902989939392e+01 8.5498658030242993e+01  2.2112402584037176e+02 -7.5093583787902332e+01 4.6400357833970487e+00  1.4989239420640297e+02 -8.6865053136151587e+01 -3.2146140743097469e+01  1.8496495629180120e+02 -6.7632480493928156e+01 2.0125286198393724e+01  1.7038415678690583e+02 -5.6644703914372997e+01 -1.0978255081976213e+01  2.5169247237081694e+02 -1.6615520379773361e+02 -1.4751118127438678e-01  2.8825629096219012e+02 -2.0511156584485863e+02 4.3813710069612519e+01  2.0967070597736125e+02 -1.0270156496177960e+02 1.9823804043338573e+01  3.4493710672415901e+01 -5.3541982161370221e+01 -1.6409111187444104e+01  2.9562426772352627e+01 -2.5612435931533327e+01 2.3575525118113315e+01  -2.2337692913551898e+01 3.0892762896583310e+00 7.4926889669248116e+00  3.5701417426343099e+01 -4.7285320939910818e+01 -1.8837681126369993e+01  3.7593166300998739e+01 -5.0482048944721527e+01 -1.9034565209281013e+01  3.8877356079434968e+01 -1.9172371999437527e+01 8.7471790724672633e+00  2.1266962930103088e+00 1.0538288145515004e+01 -4.5179463175777181e+00  1.6664792438231078e+01 4.0566823988040589e+01 8.8552265523463447e+01  3.8547663085541572e+01 4.9000974371437058e+00 6.0232854111818945e+01  6.0107959666257159e+01 -2.2196997214233182e+01 5.0082382498530116e+01  1.6777228463828254e+02 -1.9946189478527760e+01 4.3386817211348479e+01  1.5846125558910666e+02 -1.2136532025053841e+01 7.1619682432658280e+01  1.8573599617461264e+02 -3.0554893186372709e+01 3.9516060005878231e+01  1.8627032593863609e+02 -8.2200727109936160e+00 5.9431948486209151e+01  1.7951150404419457e+02 1.0198628211807371e+01 1.0191100129044122e+02  1.6526164659082198e+02 -5.9037280612321039e+00 8.2692361596725831e+01  1.9302360877491051e+02 -1.4044112304615789e+01 8.0887629690695150e+01  1.7492440242521570e+02 -2.7843887321032213e+01 8.3146381327262759e+01  1.6088918963449038e+02 -1.3331215978668036e+01 8.0239483878657296e+01  1.6550777599680205e+02 2.6006928179303679e+00 7.4536524037960291e+01  1.5592692175993824e+02 3.6837209566050952e-02 8.4425983885787900e+01  1.8002821219744521e+02 2.7187134380174832e+01 9.2311533966886429e+01  2.0244381121715591e+02 1.0344427012818949e+01 7.5469898490362766e+01  1.6270603689574699e+02 -4.5758122117211268e+00 8.5594245925901433e+01  1.5293944914199932e+02 -2.8840370103838366e+00 8.4240998445570355e+01  1.7390176092949380e+02 -3.6169493404312171e+01 7.0136064243651973e+01  1.7282468465752763e+02 -2.4517126696269624e+01 6.3459702132295483e+01  1.7955650278828304e+02 -4.3158637834012509e+01 6.5529813364329272e+01  1.8441507114540198e+02 -4.6484944762928265e+01 8.8926911584770195e+01  1.7019273016418859e+02 -4.2231632391100284e+01 8.5219921945154681e+01  1.7516358256486774e+02 -3.1478236385950968e+01 8.0281073910113662e+01  1.6771380751101236e+02 -1.7633878175341120e+01 7.6242044204818072e+01  1.6516087732404745e+02 -2.6862401759942276e+01 8.1037116788036414e+01  1.6179226491437356e+02 -3.7918456080816576e+01 8.6589692807372387e+01  1.4891943302239338e+02 -5.9497722862536754e+01 8.5504737129785553e+01  1.3392202791747920e+02 -4.3580367732584541e+01 1.3416850091467387e+02  1.4672094123386844e+02 -8.0537279205846374e+01 1.0287155938265214e+02  1.3766472990584521e+02 -6.3518228339054687e+01 9.3600934083182068e+01  1.3466862728603076e+02 -6.5136593190678752e+01 8.6058934897289987e+01  1.2701584057635719e+02 -3.8831071990080972e+01 1.2183778662901561e+02  1.4389149080868668e+02 -6.8107954004662560e+01 9.0902134506359033e+01  1.3740999561758230e+02 -8.1398523851785470e+01 1.0930755178000955e+02  1.1644715010206724e+02 -4.4348021206600365e+01 1.3847323928790584e+02  1.0590617814459597e+02 -1.1990125384947994e+01 1.3721536508858017e+02  -9.9013858700895412e+00 -8.7672884148369107e+01 2.2129799127680579e+02  9.6095153873619125e+01 -4.1046386128617549e+01 2.8172074757728080e+02  5.7679905908032119e+01 -9.2333736535362931e+01 2.9441106295726013e+02  -6.0660192002906665e+00 -1.2162183034920541e+02 3.1950376118039134e+02  2.8436179312044992e+01 -5.7338673530696326e+01 2.5143612805381014e+02  1.5163495508149592e+02 -4.3275936474264952e+01 4.0065660389736428e+02  6.1444142323067531e+01 -3.8678933912692344e+01 3.0674976337987459e+02  1.4979577621641388e+02 -6.9362413049172559e+01 3.3369175982494755e+02  1.2951871550822153e+02 -4.6479970161505769e+01 3.5296956595773742e+02  2.0108179430391672e+02 -3.8146136288316399e+01 8.7571476168949999e+01  1.7613867583947666e+02 -3.4035260932136310e+01 9.0633596683337515e+01  1.7353021615093681e+02 -2.3808917958798652e+01 7.7197546213179038e+01  1.9956830252214235e+02 -2.6679405664271698e+01 7.9010008992907999e+01  2.0024922421335677e+02 -1.7679397639029272e+01 6.7547414242009467e+01  1.8107244274720949e+02 -2.5518278690099724e+01 7.7686264333182521e+01  1.7694069048446866e+02 -1.4183003578996869e+01 6.7680051233470493e+01  1.5395553681447825e+02 -8.7701296187985278e+00 7.3874260855808885e+01  1.6004073177595450e+02 -2.0039512487277278e+01 8.0366186033989877e+01  1.6616151643747617e+02 -3.1149916346156420e+01 8.8770244284884612e+01  5.2611116455232860e+01 3.2955122958719244e+01 1.4242650566718208e+02  8.3700133857644886e+01 -4.0734068306778868e+00 1.5649865374783394e+02  9.5665821793237782e+01 1.2861578145475263e+00 1.6491536949045317e+02  8.7394614856856833e+01 9.8815223820895888e+00 1.3702227853545554e+02  5.3969000813633805e+01 2.0128028400081451e+01 1.6518300110305421e+02  9.4860642022380816e+01 8.5598662012297861e+00 1.4922173879922801e+02  6.6161493976555860e+01 -8.7699189628995156e-01 1.9072678285886980e+02  1.1069642405923246e+02 1.3094784784059512e+00 1.5140705409149933e+02  1.0925658897216255e+02 -6.4678680906786008e+00 1.4671600170613789e+02  1.5451568461270787e+02 -2.3595483796984860e+02 6.2583172666459882e+02  1.1931788575378008e+02 -1.0461665211569304e+02 5.2532645595036502e+02  -7.6235976476948551e+01 -1.9088869486397616e+02 3.3005316831558343e+02  1.0379783581397771e+02 -2.6247237821701127e+01 1.2246656093071027e+02  1.3456041791029941e+02 -4.0537789435661850e+01 1.0307449250845875e+02  9.5416842760421972e+01 -5.5442478378798725e+01 9.9997388781517571e+01  1.3779308607977848e+02 -1.9649682106664692e+01 8.2861241964893807e+01  1.1778814576126211e+02 -2.2846681798856970e+01 1.1480151044277549e+02  1.1457923682364142e+02 -2.4092301627609935e+01 9.3067104460618197e+01  2.0346523593372066e+02 -9.0000960919778436e+01 1.6271211229158158e+02  1.6841692140329300e+02 -6.4251002934003452e+01 2.3669591820760692e+02  1.7063342630532333e+02 -4.9747974729288210e+01 2.0244073395783295e+02  1.3809695962535460e+02 -4.2876905882261184e+01 1.5942968151952545e+02  2.3460381182397040e+02 -1.2612407170731801e+02 1.6885625018576525e+02  2.1620737762878460e+02 -1.3667780615169207e+02 2.0726134317711919e+02  1.2798016091994863e+02 -5.9208049754557010e+01 1.6404741180714203e+02  1.1489408189186318e+02 -2.3780788013383077e+01 1.8065974098188974e+02  8.2885234534881988e+01 -3.7245565215706038e+00 1.4274937549005730e+02  4.5275356272864890e+01 2.4263062282931116e+01 1.5060413720225321e+02  5.8382855493569963e+01 -1.5677937538413248e+01 1.7287455705313988e+02  9.2536933572565218e+01 -6.4032284258144490e+00 1.3190094641785407e+02  1.1087071986682831e+02 -7.9850432181332875e+00 1.4368757143313121e+02  1.0995602018656000e+02 6.2134492745803573e+00 1.5531621233863083e+02  9.7306620129672183e+01 8.6170648223513080e+00 1.4490053382509058e+02  9.9119228923714630e+01 -5.6259498669943007e+00 1.3017934069878677e+02  1.0820204915240093e+02 -6.6314779788228781e+00 1.4682326396927556e+02  1.2470512948442966e+02 -9.5456599203308539e+00 1.5572624681733186e+02  1.0165188007343552e+02 1.8830250722732153e+01 1.4884654302332638e+02  1.0170002723776626e+02 6.3240798458905481e+00 1.3821983260302380e+02  1.0289750356066935e+02 -6.0493536460802941e+00 1.2744575649883166e+02  1.3648880612558003e+02 5.9994671004091515e+01 1.0001046313581418e+02  1.0769407525762800e+02 6.9125551278613159e+01 1.1628477795252843e+02  1.0264257339537525e+02 4.3464150253462677e+01 1.2187361744187221e+02  1.1002291341477846e+02 5.1561848530100846e+01 1.3330631945674466e+02  1.0329776643975798e+02 2.0630893373190819e+01 1.3905526881920443e+02  1.0316730827039218e+02 3.0332879852191571e+01 1.4770330504717450e+02  1.0451166473097972e+02 1.3958250671783746e+01 1.3715707380169715e+02  1.0757433800444537e+02 9.4378776388194741e+00 1.4894254187134140e+02  1.0783434234477720e+02 1.9113015848295607e+01 1.5904590314853419e+02  1.0444728692478043e+02 2.9898681745992224e+01 1.5869304800269430e+02  8.6756301317660544e+01 2.0151478510208602e+01 3.2287021478903540e+01  5.5702324496699781e+01 2.8325848069337887e+01 4.9118912065484572e+01  5.1405989598930908e+01 9.7892279876430000e-01 2.6146210132228280e+01  6.0616847075959697e+01 1.6003874466902747e+01 1.8266854955046917e+01  7.9748152946971373e+01 -3.5127879027715203e+01 1.1382511597171182e+02  1.0248918133837965e+02 -4.7419851875567389e+01 7.2713059563892486e+01  1.0620052045870531e+02 -3.9626652149958012e+01 8.5557245012356816e+01  8.8580577698117992e+01 -5.9769583493240084e+01 1.0592568871368508e+02  5.6244478992846602e+01 -2.6155945976156939e+01 1.0909944216108214e+02  4.8527148178451988e+01 -2.2390458268546524e+01 6.9918100979832261e+01  4.3783251839020750e+01 -5.0858538503590687e+01 8.5643292333022586e+01  7.4603857517747116e+01 -8.9767369959124423e+01 6.9943199920388082e+01  1.0825257200121415e+02 -6.2765013484641962e+01 6.2030614947806676e+01  1.3684877403111989e+02 -5.4192858142364116e+01 7.0718485138385475e+01  1.2882851989405108e+02 -3.8157650597470571e+01 1.1421295622842990e+02  1.3897000339413424e+02 -1.4593855814052725e+01 1.7375547282098194e+02  1.2109172208705485e+02 -3.4783821873590544e+00 1.5984273020251274e+02  1.2206188900579767e+02 -1.6258144073010794e+01 1.4241951125030587e+02  1.2402662676748696e+02 -2.2599470167777447e+01 1.3626647977119381e+02  1.6026007515723029e+02 -3.6148445203629038e+01 1.4179795455623255e+02  1.5805803796599224e+02 -1.8488077676791718e+01 1.6829193072372641e+02  1.9038540336766889e+02 -3.2841