<?xml version="1.0"?>
<VTKFile type="UnstructuredGrid"  version="0.1"  >
<UnstructuredGrid>
<Piece  NumberOfPoints="9189" NumberOfCells="42121">
<Points>
<DataArray  type="Float64"  NumberOfComponents="3"  format="ascii">32.104435 28.245525 13.494447  32.7857782212 28.74321100405 13.26057184595  33.1502647212 28.55203250405 13.70420834595  32.8600732212 28.19823750405 13.33010384595  32.3203315 29.1442935 13.7990195  32.03014 28.7904985 13.424915  32.3946265 28.59932 13.8685515  32.684818 28.953115 14.242656  31.955845 29.335472 13.355383  33.6157114424 28.1509500081 13.1657606919  39.454601 29.655615 14.843118  39.69071999975 29.1655388784 14.00040462655  39.77536291135 29.11611366865 14.64586009395  39.06667150305 28.97573828275 13.97285028185  38.6787420061 28.2958615655 13.1025825637  39.3027905028 28.48566216115 13.1301369084  39.3874334144 28.4362369514 13.7755923758  40.0961248227 28.5766123373 14.4486021879  40.0114819111 28.62603754705 13.8031467205  39.9268389995 28.6754627568 13.1576912531  37.86927 26.797503 13.070772  37.8886494075 27.98585816125 13.4735664265  37.7310504685 28.2914776284 12.8581927388  37.48391340445 27.2366788785 13.45766114465  38.27400600305 27.54668228275 13.08667728185  37.32631446545 27.54229834565 12.84228745695  36.7833589309 28.2870936913 12.6138029139  36.9409578699 27.98147422415 13.2291766016  37.0985568089 27.675854757 13.8445502893  36.336632 33.093731 16.076212  35.86950591665 33.16734560355 15.19381184275  36.350668 33.6205405 15.442249  36.609835 33.162155 15.5350475  36.12867291665 32.70896010355 15.28661034275  36.077465 33.5521165 15.9834135  35.818298 34.010502 15.890615  36.883038 33.230579 14.993883  36.40187591665 32.77738410355 14.74544584275  35.9207138333 32.3241892071 14.4970086855  37.326233 32.711323 13.619886  36.33385972095 33.75750124925 13.80666979305  36.12206572095 33.51677474925 13.06170579305  36.28126272095 33.06793574925 13.77770229305  37.37883 33.4008885 13.6488535  37.167036 33.160162 12.9038895  37.007839 33.609001 12.187893  37.219633 33.8497275 12.932857  37.431427 34.090454 13.677821  35.2362924419 33.4245484985 13.9355185861  33.671963 35.442612 14.202984  33.21297958345 34.87088077145 14.0440367997  33.8412891815 34.761186786 14.32393863225  33.7276646815 34.422744786 13.82932563225  34.010615363 34.079761572 14.4448932645  33.38230576495 34.18945555745 14.16499143195  32.7539961669 34.2991495429 13.8850895994  40.85976 29.681574 15.166569  40.41037455110001 28.7875958107 15.5085129933  40.47794241135 29.12909316865 14.80758559395  40.97384335875 28.45535482455 15.16710579565  41.0879267175 27.2291356491 15.1676425913  40.52445790985 27.56137663525 15.50904978895  40.59202577009999 27.9028739932 14.8081223896  40.02855696245 28.23511497935 15.14952958725  39.9609891022 27.8936176214 15.8504569866  40.088017 24.154949 15.83897  41.34575435335 24.16076278765 15.47014056825  41.41154835335 24.47225478765 16.06099406825  40.91758535335 24.71054378765 15.55924756825  40.58198 23.91666 16.3407165  40.516186 23.605168 15.749863  41.075943 23.678371 16.842463  41.010149 23.366879 16.2516095  40.944355 23.055387 15.660756  41.7471537067 25.2661385753 15.2795251365  37.023533 24.560448 15.256895  37.5969401136 25.5572847711 15.66415028995  37.2631101136 25.6367907711 15.15787328995  37.0018111136 25.2185997711 15.57443178995  37.618662 24.899133 15.3466135  37.284832 24.978639 14.8403365  37.546131 25.39683 14.423778  37.879961 25.317324 14.930055  38.213791 25.237818 15.436332  36.9800892272 25.8767515422 15.8919685799  44.050682 26.627031 15.295793  43.25946223355 26.82112026875 14.3685519997  43.1054753896 26.97062338705 14.8162584818  43.30065123355 26.32243726875 14.7557884997  44.00949300000001 27.125714 14.9085565  43.968304 27.624397 14.52132  43.0642863896 27.46930638705 14.4290219818  42.5506204671 26.0178435375 14.2157839994  42.35544462315001 26.6660296558 14.2762539815  42.1602687792 27.3142157741 14.3367239636  36.369854 30.751434 11.94453  37.251423 30.731652 12.405425  36.59771901095 30.378053434 12.53798902365  36.828665 30.4808805 11.913527  36.792612 31.0022055 12.436428  37.21537 31.252977 12.928326  37.02047701095 30.628824934 13.02988702365  37.287476 30.210327 11.882524  37.05653001095 30.107499934 12.50698602365  36.8255840219 30.004672868 13.1314480473  37.649048 29.822962 16.369186  37.8631875656 28.83888087595 16.19518263145  38.3064345 29.5031665 16.189969  38.02011299999999 29.4535315 16.731656  38.391178 29.084101 17.094126  38.2342525656 28.46945037595 16.55765263145  38.6774995 29.133736 16.552439  38.963821 29.183371 16.010752  38.5205740656 28.51908537595 16.01596563145  38.0773271312 27.8547997519 16.0211792629  34.3777569895 24.8000766913 14.4040090692  35.38631762275 25.1330221573 14.30194428205  34.83238928095 25.34718791335 14.74603306955  35.1025283968 25.22041256595 13.71991617495  34.9316853313 24.58591093525 13.9599202817  35.4856136731 24.3717451792 13.5158314942  35.6564567386 25.0062468099 13.27582738745  35.8272998041 25.6407484406 13.0358232807  35.55716068825 25.767523788 14.0619401753  35.2870215724 25.8942991354 15.0880570699  34.8166366275 26.6881268324 14.5976738923  35.8975192317 26.7812899115 14.96080911615  35.78538359345 27.27163073415 14.40637483725  35.4975900036 26.34034780315 14.5748020487  35.2165658556 27.12906894075 14.98368095975  35.38545436535 26.8306886258 14.0203677698  35.9542721032 26.9732504192 13.4430616473  36.06640774145 26.48290959655 13.9974959262  35.6164950837 27.5700110491 15.3696880272  36.1785433797 25.9925687739 14.5519302051  35.126007 34.955624 14.305849  34.98224372095 34.13727324925 13.71000229305  34.5683111815 34.517692786 14.37537113225  35.18114972095 34.19008624925 14.12068379305  34.927101 34.902811 13.8951675  34.728195 34.849998 13.484486  34.3694051815 34.464879786 13.96468963225  34.62345390245 33.75215503525 14.1902059253  43.510284 28.340572 13.733467  42.8352763896 27.82739388705 14.0350954818  42.94220451725 28.2804491941 14.53027498155  43.739294 27.9824845 14.1273935  43.17121451725 27.9223616941 14.92420148155  42.3741250345 28.2203263882 15.3270829631  42.26719690685 27.76727108115 14.83190346335  33.7048069036 31.3033027216 12.8943300596  34.97959091725 31.19459160535 12.6345042145  34.54274688585 31.59789264075 13.0608133261  34.4451109886 30.81772412135 13.06661061035  34.141650935 30.9000016862 12.468020948  35.1854150736 30.3321455211 13.2388911611  35.28305097085 31.1123140405 13.23309387685  34.88195502 30.41442308595 12.64030149875  34.5784949664 30.4967006508 12.0417118364  35.3806868681 31.8924825599 13.2272965926  34.0309697432 32.6653510073 14.6169259877  33.80962050945 33.1756402748 15.252970123  34.02079255309999 33.37255628965001 14.5309096261  34.92463387159999 33.33792650365 15.25377049385  33.79944331935 33.88284555715001 15.1669537614  34.9144566815 34.045131786 15.16775413225  33.5882712757 33.6859295423 15.8890142583  36.62347341665 32.51775610355 14.05844734275  37.1046355 32.970951 14.3068845  36.05966522095 33.32756374925 14.46470079305  35.57850313759999 32.8743688528 14.2162636358  37.179173 31.689499 14.407884  36.7448788929 30.87120803415 13.58048654255  36.7267803929 31.08946903415 14.32026554255  36.27992993405 31.79099077995 13.8175902963  37.1972715 31.471238 13.668105  36.29802843405 31.57272977995 13.0778112963  35.82753732695 31.1909608141 13.72997183885  36.2743877858 30.4894390683 14.2326470851  41.15864302695 27.36668337795 14.0179268276  41.62409774835 27.2716757116 14.75218327745  41.37128303995 27.6537955217 14.25022247555  40.6224719961 27.32414331545 14.43338614145  40.1570172747 27.4191509818 13.6991296916  40.90582831855 27.74880318805 13.5159660257  41.6546393624 28.0784553943 13.3328023598  41.9074540708 27.6963355842 13.8347631617  36.937019 24.674892 13.550448  35.8320785264 25.18215697655 14.03388084965  36.55778118985 25.33373038695 14.05118910255  36.38215940205 25.1578202203 13.29313564035  36.21131633655 24.5233185896 13.5331397471  36.00292159190001 25.81665860725 13.7938767429  34.5299883939 31.51916896335 13.8408049593  33.85512983145 31.90560318705 14.53561965685  33.8678883234 31.98432686445 13.75562802365  34.70582830565 32.2789167836 13.92211129015  33.69204841165 31.2245790442 13.6743216928  33.6792899197 31.1458553668 14.454313326  37.265717 25.979027 13.426586  37.7599948495 26.74495495045 13.6701465669  37.18213690445 26.8274408785 13.63556814465  37.5674935 26.388265 13.248679  38.0617713495 27.15419295045 13.4922395669  37.67641475395 27.59336882895 13.87912871155  38.254272699 27.5108829009 13.9137071338  38.8114885656 28.39150737595 16.75145513145  39.2547355 29.055793 16.7462415  37.5573409124 29.29691850515 15.80951540795  37.15466239725 28.98579371865 16.34975345375  37.06295530965 28.4597502238 15.7900828617  37.771480478 28.3128373811 15.6355120394  37.36880196285 28.0017125946 16.1757500852  36.6602767945 28.1486254373 16.3303209075  37.4656338248 28.7708750103 15.2498448159  40.294621 29.836731 14.125891  40.81011249975 29.1005308784 13.53764862655  40.89475541135 29.05110566865 14.18310409395  40.19537291135 29.20667166865 14.28724659395  40.11072999975 29.2560968784 13.64179112655  40.9940035 29.681165 14.0217485  41.693386 29.525599 13.917606  35.0440942755 24.26303621425 15.35435594095  35.01556099139999 23.98535750695 14.41735448145  34.4616326496 24.199523263 14.86144326895  34.9602186154 24.86358964255 14.8969217412  35.5141469572 24.6494238865 14.4528329537  35.5426802413 24.9271025938 15.3898344132  34.5455083097 23.5989698347 15.3188774687  39.0080721037 27.8896391491 14.7236501954  38.63117240135 27.700261025 14.3186786646  38.1350055128 28.4765993486 14.3384490487  38.8434070549 28.0927503573 13.91311637955  37.75810581045 28.2872212245 13.9334775179  38.46650735255 27.9033722332 13.50814484875  37.970340464 28.6797105568 13.52791523285  37.2619389219 29.0635595481 13.953247902  33.957432 24.21908 17.387615  35.1505916114 24.4281344533 16.72545942285 
[...]
<PointData  Vectors="u"> 
<DataArray  type="Float64"  Name="u"  NumberOfComponents="3" format="ascii">9.6230021167034153e+01 -7.6107572902035329e+01 9.5135093362193444e+01  9.7495237761655375e+01 -8.9047841740024964e+01 6.6886271155390162e+01  8.6699529963511594e+01 -8.7144289263347403e+01 6.6344979874725013e+01  9.4473539943786719e+01 -7.9068287565978252e+01 6.9566289355818640e+01  7.8124157448789788e+01 -1.0819734519143346e+02 8.5923921612650531e+01  9.4935491822255102e+01 -9.0586164526703456e+01 9.6134875852272685e+01  7.5288771510232351e+01 -8.9627515347037615e+01 9.1015999018922471e+01  7.0763280878645730e+01 -1.0678765786686914e+02 8.4272173713321834e+01  9.9468881351242558e+01 -1.0841027914111059e+02 8.5977871764320426e+01  9.7431775770003242e+01 -7.5704627390024385e+01 5.0157063916311159e+01  1.6270536627646007e+02 -2.1795281136824570e+01 1.2864781259071375e+01  1.3563921361246472e+02 -2.4018340747336449e+01 -6.5111368972403003e+00  1.3383810331814229e+02 -1.7803775757108152e+01 8.7344643476599124e+00  1.4747841257727669e+02 -3.9114159682611096e+01 -6.7476247953298962e+00  1.5006741296662807e+02 -3.6510394333285632e+01 -1.8930065600232989e+01  1.4187534773433330e+02 -3.3854341759880228e+01 -2.4293536821043521e+01  1.3551021290535138e+02 -3.4052936447079809e+01 -1.2950690818002716e+01  1.1577404922268572e+02 -2.1522012885376157e+01 -2.0797133312802876e+00  1.2267431382929169e+02 -2.6015062831598676e+01 -1.5883288314827528e+01  1.2990023948562506e+02 -2.7785021199053421e+01 -2.9024521909999340e+01  1.6709541962488098e+02 2.7116265094922223e+01 4.4982137146007956e-01  1.4231498609062405e+02 -3.7418357106499343e+01 -3.1993134708792388e+00  1.5008643092565359e+02 -4.2949914547983823e+01 -1.2357106429532283e+01  1.3149453830991692e+02 -8.0827061848802213e+00 1.0664729319836345e+01  1.5378474718050501e+02 -3.1375500036971555e+01 -1.3715229705322638e+01  1.3730496564558956e+02 -1.6268781646181392e+01 -2.2463172076341222e+00  1.3823624556256385e+02 -5.0058744622376729e+01 -3.5950412867929811e+00  1.3041835929107447e+02 -4.1254380500680746e+01 5.0539701639978674e+00  1.2317736350024749e+02 -3.4413068475267551e+01 1.3744664292084789e+01  2.8624566286757840e+01 -9.5354153801594038e+01 2.5713621642639858e+01  5.7302977077684560e+01 -8.8987439341940245e+01 1.9722352772977622e+01  4.6385935382168583e+01 -8.0625797017005453e+01 1.3346341117980124e+01  2.7644950603896245e+01 -7.7536737039648784e+01 1.6849312183594790e+01  4.3919464977060137e+01 -1.0150726570229776e+02 2.2448073924720326e+01  4.9570654677063956e+01 -9.1077422915057440e+01 2.1916328112765768e+01  6.1518389023667581e+01 -7.5273756756990863e+01 1.5170966697191963e+01  1.3374494109903459e+01 -7.4260160172221617e+01 1.7386605409388117e+01  3.5259301166571888e+01 -9.6110169537947058e+01 1.6583586903594892e+01  6.0383078886848438e+01 -1.0698550904257317e+02 2.0482703179947318e+01  -1.2049678438378116e+01 -9.9558904565403310e+01 2.0685336204296537e+01  4.3968399269580985e+01 -4.5832982555108281e+01 2.9243201883991397e+00  4.8398719752941176e+01 -4.7396082467676301e+01 2.5294275659070391e+00  4.2858081276387850e+01 -7.7238151420103321e+01 1.0601517945309419e+01  -5.2571155844469359e+00 -4.7082701148061595e+01 8.1922825948526459e+00  -9.7670032564509377e+00 -4.1083455747500494e+01 1.7583036831511393e+01  6.3284559162129064e+00 -2.2355208940993503e+01 3.5883299111282496e+00  7.2986169460539818e+00 -2.4627745355850116e+01 3.1150520724115141e+00  3.2863720744280500e+00 -1.9450463881930599e+01 2.4424759418945965e+00  8.4862638631331492e+01 -6.9980739272108082e+01 6.7418247809347056e+00  1.8882895518534528e+02 -1.3471972834315761e+02 -3.3482205165660041e+01  1.6877342344288942e+02 -1.0631323423463654e+02 -9.7650288053573231e+00  1.5641832239974974e+02 -8.7730206668417267e+01 -1.4571278598712777e+01  1.5139141994262786e+02 -7.3702794138001536e+01 -1.0322470489841042e+01  1.2951924686574247e+02 -8.7084514474333403e+01 4.2619703134671809e+00  1.4555298588747772e+02 -9.7197840040724799e+01 5.0973735986708144e+00  1.5852193417618301e+02 -1.0737014390037146e+02 7.8177832653132491e+00  8.9651445295675188e+01 6.9790781437759808e+00 3.0731992612978672e+01  1.0309681068352137e+02 -8.4547731202981868e-01 2.1108354819216785e+01  1.0569527735224581e+02 -8.5465784648644316e+00 1.2580920830464542e+01  8.5091926438713600e+01 -8.2245722112836752e+00 6.7506961174153881e+00  7.4387127289978480e+01 -1.7111551054796518e+01 -5.8269589364677152e+00  8.9597067800154321e+01 -1.5215543288368869e+01 6.6798382748844602e+00  9.4250029995678531e+01 -1.8698995153950481e+01 -3.8188136539321258e+00  1.1058320399172642e+02 -1.8542374883100809e+01 8.8658852334813218e+00  1.0594782343191729e+02 -1.3845741928953798e+01 1.8376333164058995e+01  4.6660655166527654e+01 -5.1919129071968094e+01 -3.0006218329605140e+01  2.8674961390070209e+01 -2.3054847022173142e+01 -2.2427046173296862e+01  3.3915255686005935e+01 -1.7699493276584970e+01 -1.3312444923640610e+01  4.5600837088667973e+01 -3.0683358709891582e+01 -2.0350843815319820e+01  3.4466570648595052e+01 -3.7988640310124097e+01 -1.7487396155062857e+01  2.1947859519403863e+01 -3.6624592692502247e+01 -2.1603895767314103e+01  2.4185802765542725e+01 -1.6714571178589271e+01 -1.2974706234805602e+01  1.3442654215112757e+01 -2.0747104182845781e+01 -1.9961278479769760e+01  1.1843213715124085e+01 -2.1453733028380782e+01 -2.3898895599028243e+01  4.0406408714522378e+01 -1.7683591191295061e+01 -2.0483000224529103e+01  6.6051408314859273e+01 4.9933007074685513e+01 5.9614949682346484e+01  1.1282384511962729e+02 1.6317372666598231e+01 4.7757804036315299e+01  1.0025218820668546e+02 1.6351282085501602e+01 4.7531588220364505e+01  8.6315288050719033e+01 2.1467350594269611e+01 5.0268635025650035e+01  1.0539916863681859e+02 4.5876301653443349e+01 5.3805984627416734e+01  8.0343915492273283e+01 5.2918338461527703e+01 7.3309130218354525e+01  9.7129251582373385e+01 5.3781964360457330e+01 6.6470047064097457e+01  1.2291111662867536e+02 4.8190870804161541e+01 7.0088336298499527e+01  1.5829041968947411e+02 1.9373436212970645e+01 3.6912104379426523e+01  9.2879256955022512e+01 -7.6696460026048352e-01 4.4968363933902438e+01  -7.3257010359886787e-01 -6.2981921340187670e+00 -1.7145220139779866e+01  2.3236475144271683e+01 -1.4862053453679161e+01 -4.2511656405189399e+01  2.4572512164930313e+01 -1.1980724406637416e+01 -2.6183086774884199e+01  1.8298647535659910e+01 -1.0523074167792069e+01 -3.2971822120458583e+01  -4.0480386601042523e-01 -1.2129301753638579e+01 -2.3346849595624558e+01  -1.2348098923146416e+00 -1.9890991476184521e+01 -3.0689248699445294e+01  2.8097711990820834e+01 -1.6392940508580889e+01 -3.3034180808272410e+01  3.9083436649685559e+01 -1.4553674150945440e+01 -4.2308692453294938e+01  4.6672671573016828e+01 -1.6948198047032687e+01 -3.6718794299592631e+01  5.2738610512252116e+01 -1.7507909931238100e+01 -2.9544790511110186e+01  1.4824082607917055e+02 -1.5633327442697814e+02 -3.2735358518961539e+00  1.6968853471778181e+02 -1.5479635249627549e+02 -4.4394711694887121e+01  1.5450463824158277e+02 -1.2919774430245087e+02 -1.6141279256704298e+01  1.7945912036854307e+02 -1.3209861832955198e+02 -2.8736787726052690e+01  1.3742699670834770e+02 -2.1403723046261263e+02 9.1086895851049068e+00  1.0069853038843964e+02 -2.1953674498288802e+02 -2.8108950298728015e+00  1.5006029226914407e+02 -1.5606229169024951e+02 -1.6732411413220902e+01  1.9886782446760401e+02 -1.1325565693589095e+02 -6.0819838541240095e+01  1.5974182800504772e+02 -1.2488063710600572e+02 -2.0579031724437758e+01  1.4333821193538122e+02 -1.1694848571604412e+02 -5.7647490118960336e+00  1.2930869098434135e+02 -1.3099928505200600e+02 2.8284294396621373e+01  1.2974542294680145e+02 -7.4717578721050430e+01 3.1308501616195468e+01  1.4713996642389057e+02 -9.7653999949690586e+01 1.8571547917596099e+01  1.4012991066820504e+02 -1.0577263919161153e+02 3.3590863272544091e+01  1.5741250557312264e+02 -7.6046378197955647e+01 4.9765097006716474e+01  1.2938130382118501e+02 -5.4030021314391874e+01 3.7611534076886194e+01  1.7784907950987005e+02 -7.3233003582954908e+01 4.8096798849061813e+01  1.7046076441046091e+02 -4.7131205585432397e+01 3.1664019204609829e+01  1.3524653228074459e+02 -4.9926383549439052e+01 2.8438785707698575e+01  1.2083822874130848e+02 -4.1434784312888780e+01 3.0535094263651114e+01  5.2326701614058727e+01 -1.6331237560495783e+01 3.7816780372050218e+01  5.4808101984961546e+01 -7.7334159467392443e+00 3.2914475828560953e+01  5.5650807161811024e+01 -1.5682395428669096e+01 4.1621578317993759e+01  6.2329191917942090e+01 -1.7317223972545676e+01 2.6845743106038949e+01  5.1943043475034699e+01 -1.3636389143860255e+01 2.4446719768616671e+01  4.5673379540184506e+01 -9.4820876185001914e+00 1.1356444410825098e+01  5.5728313809974374e+01 -1.1612604871548795e+01 1.3028871036406052e+01  6.5493113187607662e+01 -1.3569422038374707e+01 1.2909325753244353e+01  6.8018571412772957e+01 -1.4783725564368799e+01 3.2576812744816820e+01  6.2577738779195684e+01 -1.7893706577586048e+01 4.4350095881684396e+01  6.9257883387607706e+01 -3.9407500810985098e+01 4.5861936713770802e+01  8.2265576748607046e+01 -3.0615841106039873e+01 3.8449915744547049e+01  9.0512038037089397e+01 -4.1692433329808850e+01 3.3349726627866922e+01  7.4232986561584966e+01 -2.5125759259743159e+01 3.8759553881239682e+01  7.5405344725774498e+01 -4.5904216650263827e+01 4.3769262262661705e+01  8.3149612815433741e+01 -3.6510139581378901e+01 3.3557271359606773e+01  9.4847546230920841e+01 -2.9702774161449881e+01 2.1942707426625013e+01  8.4373794017535715e+01 -1.7497471612125526e+01 3.0490577312825462e+01  8.2759467350177317e+01 -5.3306690426850921e+01 4.1388850041872850e+01  7.5562287431274896e+01 -6.0777678109327651e+00 3.8066180984582076e+01  1.1644085320802499e+02 -3.3071435220218405e+01 -2.1191383283440960e+01  1.0435619515521890e+02 -4.6602499709955239e+01 -9.1238534113827523e+00  1.2484498726501744e+02 -6.4875273711149745e+01 -6.1831969040038990e+00  9.7864557956678993e+01 -5.1869942340944718e+01 -6.4370159761579426e+00  1.3588067672028976e+02 -3.4602466840164496e+01 -2.8580117298028060e+01  1.3132652549821694e+02 -3.0607356414954005e+01 -3.5442722274934340e+01  1.3152634751187287e+02 -6.3957932504851186e+01 -1.3699448465407203e+01  1.0700963641474951e+02 -7.3841455160647655e+01 5.3236028264826212e+00  6.7835888774719368e+00 -3.6306041339930346e+01 -5.0401001033107590e+01  3.6907421378209797e+01 -2.0465382126573896e+01 -4.1848338443879868e+01  2.7869127915021817e+01 -1.6420807134079446e+01 -1.9325548282608551e+01  4.0852968552758551e+00 -3.0950688105575288e+01 -4.1470212462540928e+01  2.1665295034641446e+01 -1.2418360473584855e+01 -1.3291267812676487e+01  4.2783070245948885e+01 -6.3090384627868001e+00 2.1005962814130896e+00  4.7920359537054935e+01 -1.2720643323589064e+01 -1.4799466995712411e+01  1.1297551844976604e+02 -1.0143928447147967e+02 2.7893579887458955e+01  1.0093967482207616e+02 -1.0622667642258834e+02 2.4171745998957565e+01  1.0124883646199324e+02 -1.0112596977155850e+02 2.4937285317807369e+01  1.0499446412092416e+02 -1.0361238882623528e+02 2.7716146046439697e+01  1.0947885261343747e+02 -1.0061384625857009e+02 2.6347519733248632e+01  1.0742622623451301e+02 -1.0669410863538165e+02 2.2994704815977535e+01  9.6893101173407530e+01 -1.1188008989600152e+02 2.2263051658954964e+01  1.1170797863741397e+02 -1.0587679415062709e+02 2.3519280569719534e+01  1.1079980765458856e+02 -1.0416161615799089e+02 2.4327539807255302e+01  8.4435817083204014e+01 -1.0348396779695476e+02 2.1173859539662999e+01  1.0667668213353279e+02 -1.0228082880203331e+02 2.6613826256293770e+01  1.1304567772738345e+02 -1.0663689882246032e+02 3.0470325051358035e+01  1.1552104626412455e+02 -9.4066520491068715e+01 1.7736614886391816e+01  8.8888724753157788e+01 -9.3455625894605873e+01 2.2586084907566214e+01  1.2397865348673105e+02 -1.0308358615427392e+02 2.1600529807519134e+01  1.0074714172214512e+02 -8.0982521041102515e+01 1.1354616119971098e+01  1.1975317616293520e+02 -1.1202737583345657e+02 3.6413069232047569e+01  2.9603416893509714e+01 -1.0577307271771549e+02 1.3620663462329789e+01  -1.5746969405562321e+00 -8.7054927622554843e+01 9.7387712530162425e+00  5.2670404060414199e+01 -7.4503036738903205e+01 1.0993235482627314e+01  6.9779209805209589e+01 -8.6524707802808891e+01 1.4917533834001874e+01  3.6056880331435217e+01 -1.7664617755437180e+02 1.6740900857444277e+01  1.1020146463218320e+02 -1.5558448076255260e+02 2.6140654258255243e+00  7.5471505847183224e+01 -1.5275733731234516e+02 1.0520177223314096e+01  5.7273958851755054e+01 -1.2701611037191311e+02 1.8531157562969039e+01  4.8356833650564930e+01 -2.2259631452367213e+02 1.7743387953903895e+01  7.1980204739324535e+01 -1.3684973771226541e+02 1.6211395453755689e+01  8.9570396344908872e+01 -1.2290275250670048e+02 1.8948203671786274e+01  1.0226868011389351e+02 -1.2680257741870220e+02 1.6181373295087777e+01  8.1284543024798424e+01 -2.4492319627808094e+01 -2.7800761039172443e+01  6.3686095414332833e+01 -1.6809834309231846e+01 -1.6682086517796151e+01  7.5335918523246221e+01 -2.0456151549158115e+01 -2.2534862378819014e+01  9.1153604494926100e+01 -2.6353674848377590e+01 -1.6462722992950056e+01  1.0996166996109898e+02 -3.5520378222124059e+01 -2.5603448231101595e+01  9.5292436751852790e+01 -2.6575565355530376e+01 -3.3411723538949254e+01  7.9892112914975769e+01 -2.2180309051705109e+01 -4.6070511232356580e+01  6.6000690784507242e+01 -2.0230917815154218e+01 -3.7239883685654846e+01  1.4597486836257474e+01 2.1325831749408543e+01 2.1127900192714705e+01  5.7370065258891586e+01 -1.8534004994451392e+00 2.9072638371355644e+01  5.0798833774424516e+01 1.5413801681695885e+01 3.6397179303821716e+01  4.0142245880922509e+01 2.2882842133731112e+00 1.5873837785670503e+01  3.3483904418552548e+01 3.3639540883748658e+00 1.1075556927817795e+01  6.8246452340923625e+01 -8.4923841778359748e+00 2.7445446240699159e+01  9.7181985188061461e+01 -1.0455133362407689e+02 2.7834335699854183e+01  1.0352578282947542e+02 -1.0951135972546462e+02 3.3363562215735662e+01  1.0907800975290182e+02 -1.0172939397166475e+02 2.7533360760375565e+01  9.4408870041971582e+01 -9.6985281119490708e+01 2.2349203115055047e+01  1.0701841276146226e+02 -1.0740598936192090e+02 3.4773725459419445e+01  1.0029359315329471e+02 -1.1458186226099281e+02 3.9906480018983814e+01  7.2884325521631084e+01 4.7118515379467659e+01 5.1523467179648343e+01  1.4206481440884531e+02 1.9158815681980851e+01 2.4855454894299200e+01  1.1382656120830264e+02 2.8082506412673931e+00 2.3909463410067683e+01  1.1181404869994057e+02 6.4674926466303830e+01 5.5736845579172275e+01  1.5697258002344282e+02 -7.7437372262375606e+00 1.6242149098812093e+00  1.3357685083365584e+02 -2.9801192217810748e+01 7.2611629972386584e+00  1.4253698886590260e+02 -2.8243962851132387e+01 9.7940786299588156e-01  1.3277785487857867e+02 -2.9704227388208366e+01 4.0914017630580517e+01  1.5585863458773710e+02 -3.4788692688087308e+00 4.3235787623847990e+01  1.3103062631987063e+02 -9.6327568602222584e+01 2.6546415382406945e+01  1.1416885562857532e+02 -8.6192725015938223e+01 3.7834431424336699e+01  1.1221685916613818e+02 -6.8535927531528301e+01 3.2721092409772012e+01  1.2380838695741343e+02 -5.5369724303720488e+01 2.6844892822597313e+01  1.1160041597386291e+02 -5.2551460420707549e+01 3.6083016862882452e+01  9.9728981673801130e+01 -6.2358181810980994e+01 4.1277163600542366e+01  1.2788891077811276e+02 -7.2319489651579502e+01 2.1633438022683794e+01  1.1468722294823866e+02 -1.7645256111289040e+01 3.4000219294109941e+00  1.0336813796650279e+02 -2.1437477837945661e+01 -2.7131847837659457e+01  9.6512274782845566e+01 -1.8635756389264742e+01 -9.9679940076580351e+00  1.1778468122759634e+02 -1.6096169352658258e+01 1.2328669971624817e+00  1.2590100568064310e+02 -2.4406348126483557e+01 -1.8048450245368393e+01  9.6746248078956981e+01 -2.3346789957012827e+01 -1.2197357004378402e+01  6.9308009269687389e+01 -1.5218233422476001e+01 -1.4286651657578663e+01  4.0078496795711750e+01 6.4608036791164558e+00 3.7805121307015774e+01  4.0868988335045579e+01 -3.1936020811265569e+00 2.3805092168522020e+01  4.3099189705561699e+01 -5.6751322377414430e+00 3.4843844484196829e+01  4.9250871118147458e+01 -6.1766817885431760e+00 3.8613797334386803e+01  4.7309573937139284e+01 2.5691874510789436e-01 3.0442206162205888e+01  5.2069665246973713e+01 3.9611509037518924e+00 4.3447203660778250e+01  3.3543468769768872e+01 7.1119964025768985e+00 3.0491378764435051e+01  1.2916374796960710e+02 -3.2017119516181147e+01 5.5982626076562942e+00  1.3628579671442799e+02 -3.2386036610887579e+01 2.0407837669210345e+00  1.3983149606261921e+02 -4.8665081433617345e+01 6.1802721746900460e+00  1.3905811284224396e+02 -3.7275564217531461e+01 -6.9699936370958859e+00  1.3810536826874406e+02 -4.7146563359737101e+01 3.7909522014133699e+00  1.4610950838869783e+02 -3.4472069147559147e+01 -8.1603231990799472e+00  1.4895668151247631e+02 -5.4538342578016497e+01 -6.5892550739291593e+00  1.3871590495544632e+02 -7.8908222277470429e+01 4.8653510953377292e+00  2.4682659135458159e+01 1.9809755852075522e+01 6.9224866111285664e+01  4.3854726118677412e+01 1.5037205629672302e+01 5.3677022914547955e+01  4.0405175971567964e+01 3.5153204875569251e+01 5.8787802195574976e+01  3.4193116290200564e+01 2.5742827051415372e+01 8.1059092974506711e+01  9.7659694663345221e+01 -1.2903937808902012e+02 7.2416968126326637e+01  1.2069280382415826e+02 -1.0339354660114410e+02 3.9548214173113706e+01  1.2247704342247745e+02 -1.1674953767972707e+02 5.3756526613975851e+01  1.1229055614365187e+02 -1.1146736521683545e+02 4.5448585226629213e+01  1.0139160936209620e+02 -1.0933083059936267e+02 5.7312988386905801e+01  1.2554797119956731e+02 -1.0160872920931561e+02 2.9175318824482222e+01  1.1065613878441859e+02 -1.0325876212137246e+02 3.5483407416958727e+01  1.0575123980060414e+02 -9.8122857622405093e+01 4.3266730283922847e+01  1.4188391798954805e+02 -1.0457272337971057e+02 3.1361917034574468e+01  1.0289216674458754e+02 -6.9109142043734238e+01 2.7892372390988513e+01  1.1318391665001779e+02 -7.0971264744761811e+01 2.3635490059429443e+01  1.1303308692171973e+02 -5.3062167464501620e+01 2.0277933922503671e+01  1.1898382999166550e+02 -7.3538349736394750e+01 1.6841491875940708e+01  1.2403291197368641e+02 -5.3940303861856677e+01 1.7076961753986453e+01  1.3242340361129533e+02 -7.4417174947851507e+01 1.3649210746622531e+01  1.3015437739349170e+02 -5.4995517059408634e+01 9.3045717886812476e+00  1.1098279033792528e+02 -1.2875072540871821e+02 3.4951863582857705e+01  9.3282301203789032e+01 -1.1208189269396300e+02 2.3666431538026703e+01  1.1074069506887874e+02 -1.1560421912023597e+02 1.9277557051031017e+01  1.0511275745703256e+02 -1.1361934277244677e+02 2.9037092897834142e+01  1.1871908910305827e+02 -1.3910492280874573e+02 4.8098634863295544e+01  9.6689269745936016e+01 -1.0800846577868739e+02 2.9477461463234487e+01  1.1675602507895081e+02 -1.1191358337085921e+02 2.6305645751234234e+01  1.3382760992928362e+02 -1.3776370392089746e+02 5.0789997731820471e+01  6.2327123824233588e+01 -1.3238283329679135e+02 5.5870450988183208e+01  9.0598427699661386e+01 -1.3186794378093808e+02 6.1568140511475740e+01  5.3455767457532644e+01 -1.1496626922794849e+02 3.4579592674754572e+01  1.2378735189157762e+01 -1.3418334575201463e+01 6.0402491857908245e+01  3.4678745948563574e+01 -1.9726291264366482e+00 5.8589058504114043e+01  3.0015862675971491e+01 -8.6928048989171369e+00 5.6679595954105380e+01  1.2259379111524364e+01 -1.3990816103271684e+00 6.1277695394218441e+01  2.7105010733511126e+01 1.2353066003454343e+01 6.1756030063553290e+01  2.0293840081030144e+01 3.8051007117550064e+00 6.0064961856411507e+01  1.1160033075177816e+02 -1.0416274262179176e+02 2.8448368362280881e+01  1.2101951436749869e+02 -1.1133961176582770e+02 3.3528603409260100e+01  1.1575052129518676e+02 -9.4376605754201108e+01 1.9306975187920731e+01  1.2683985676105338e+02 -1.0475657864829464e+02 2.5002024635178199e+01  1.4607868188377969e+02 -1.0897103044143618e+02 2.5241896147042432e+01  1.3809510215784334e+02 -9.74681140