<?xml version="1.0"?>
<VTKFile type="UnstructuredGrid"  version="0.1"  >
<UnstructuredGrid>
<Piece  NumberOfPoints="8879" NumberOfCells="40592">
<Points>
<DataArray  type="Float64"  NumberOfComponents="3"  format="ascii">5.73402 46.5 23.997393  5.379807374649999 45.2914613841 24.30296409385  5.2792242797 45.75242126335 24.8663551203  6.22573380715 45.72648186175 24.43258052855  6.7174476143 44.9529637235 24.8677680571  5.8715211818 44.51794324585 24.7381516224  5.77093808685 44.9789031251 25.30154264885  4.8244285594 45.0048425267 25.7353172406  4.92501165435 44.54388264745 25.17192621415  5.0255947493 44.0829227682 24.6085351877  9.823947798900001 42.8378519886 31.8116892308  10.45160671575 41.88891628615 32.3618543247  10.0107240031 41.4936311369 31.73489646565  10.3673016327 42.3000857105 31.608504187  9.467370169300001 42.031397415 31.93808150945  9.90825288195 42.42668256425 32.5650393685  9.1107925397 41.2249428414 32.0644737881  9.55167525235 41.62022799065 32.69143164715  9.992557965 42.0155131399 33.3183895062  4.0847820055 43.6491147602 26.5084188095  3.22111576995 44.0620677796 25.6668996736  3.5512927345 44.2629200629 26.3107879462  3.9079156937 44.1992764518 25.55633763915  3.75460504095 43.4482624769 25.8645305369  3.7310493819 44.7494381434 24.6042564688  3.3744264227 44.8130817545 25.35870677585  3.57773872915 43.99842416849999 24.91244936655  3.4244280764 43.2474101936 25.2206422643  3.0178034635 44.8767253656 26.1131570829  -0.5 42.977505 24.052393  0.12084209065 43.4439422332 24.24599762865  0.5609148949 43.284140145 24.81865636705  0.12084209065 43.1637012332 23.74807362865  -0.5 43.257746 24.550317  0.5609148949 43.00389914500001 24.32073236705  -0.5 43.537987 25.048241  1.6218297898 43.03029329 24.5890717341  1.18175698555 43.1900953782 24.0164129957  0.7416841813 43.3498974664 23.4437542573  9.8130557518 37.5345895006 34.8806588213  10.56565314185 38.49299578199999 34.5768291561  9.862484590699999 38.3670887746 33.89605623845  10.04285215205 38.22640574064999 35.0804550747  10.3358567416 37.80117954195 34.3770329027  9.56948000115 38.79231497329999 34.59947841045  9.339683600899999 38.10049873325 34.39968215705  8.86631145 38.6664079659 33.9187054928  10.8586577314 38.0677695833 33.8734069841  10.2726485523 38.9182219807 35.2802513281  1.998859 37.822979 24.24321  2.6774484106 38.0139894591 24.47795675165  2.89243436245 37.3906670882 24.38317504555  2.7779374106 37.5948819591 24.87936125165  2.099348 37.40387149999999 24.6446145  3.3560378212 38.2049999182 24.7127035033  4.149153 46.5 28.825741  3.82564161895 45.87225663575 28.03968877465  3.54695290985 45.42900328655 28.9451608248  3.6204 46.5 28.472045  3.091647 46.5 28.118349  3.29688861895 45.87225663575 27.68599277465  3.01819990985 45.42900328655 28.5914648248  2.9447528197 44.3580065731 29.0645806496  3.2234415288 44.8012599223 28.15910859945  3.5021302379 45.2445132715 27.2536365493  -0.5 38.279922 35.167599  0.2608081893 38.39401658285 35.0761117288  0.21173402095 38.5310996901 35.7072668508  0.02518599999999999 37.857087 35.351331  0.550372 37.434252 35.535063  0.7859941893 37.97118158285 35.2598437288  0.73692002095 38.1082646901 35.8909988508  0.9234680419 38.7822773802 36.2469347016  0.9725422102500001 38.64519427295 35.6157795796  1.0216163786 38.5081111657 34.9846244576  0.689176 44.426121 36.45364  1.63779172315 44.08510721415 35.96334912335  1.5223237496 44.7551954628 36.3250956487  1.2703082381 44.38484106350001 35.65384209695  0.8046439735499999 43.75603275135001 36.09189347465  0.9201119471 43.0859445027 35.7301469493  1.38577621165 43.71475281485 35.2920955716  1.8514404762 44.343561127 34.8540441939  2.1034559877 44.7139155263 35.52529774565  2.3554714992 45.0842699256 36.1965512974  9.912407 36.903557 31.637556  9.612264973649999 37.33717236695 32.7627775618  10.17025147365 37.35415186695 32.0672045618  10.21110133315 36.79858495625 32.4464064739  9.3544205 36.8865775 32.333129  8.796434 36.869598 33.028702  9.653114833149999 36.78160545625001 33.1419794739  10.5097956663 36.6936129125 33.2552569478  10.4689458068 37.2491798232 32.8760550357  10.4280959473 37.8047467339 32.4968531236  3.112982 41.217972 27.645756  3.1149825549 42.128883727 27.3369983335  3.4333630549 41.817238227 27.4093718335  3.31858421185 41.53916545175 26.71689760395  2.7946015 41.5296175 27.5733825  2.476221 41.841263 27.501009  3.00020371185 41.85081095175 26.64452410395  3.5241864237 41.8603589035 25.7880392079  3.63896526675 42.13843167875 26.48051343745  3.7537441098 42.416504454 27.172987667  1.396822 39.558571 25.458864  0.448411 40.15485 25.7927865  0.448411 39.8363475 25.809411  1.403712 39.9259415 26.013336  1.410602 40.293312 26.567808  0.455301 40.5222205 26.3472585  0.455301 40.20371799999999 26.363883  -0.5 40.114124 26.159958  -0.5 40.4326265 26.1433335  -0.5 40.751129 26.126709  7.8670455777 41.7038628523 30.8822320654  8.70966810915 40.91655384165 30.33902283595  8.366976173799999 40.95680683635 30.8966708967  7.7160673725 41.18045400855 30.427316518  8.209737513049999 41.6636098576 30.32458400465  7.5650891673 40.6570451648 29.9724009706  8.2159979686 40.4333979926 30.4417553493  8.05875930785 41.14020101385 29.86966845725  8.5524294484 41.6233568629 29.7669359439  8.8669067699 40.2097508204 30.911109728  8.803246 36.340546 34.237522  9.97113174975 36.6975098083 34.6061246732  9.3168083879 36.35766469935 35.14936025025  9.466226873850001 36.100488058 34.28455626255  9.308150875900001 36.9375677503 34.55909041065  9.97978926175 36.11760675735 35.1963945128  9.8217132638 36.95468644965 35.4709286609  10.1292077477 35.860430116 34.3315905251  9.830370775800001 36.3747833987 36.0611985005  8.076142000000001 39.121086 37.280766  7.901572362600001 38.57452446805 36.34358811465  8.4221656698 38.95173216005 36.31003632445  7.695928 39.375469 36.7619345  7.315714 39.629852 36.243103  7.5213583626 38.82890746805001 35.82475661465  8.0419516698 39.20611516005 35.79120482445  8.768189339599999 38.7823783201 35.3393066489  8.247596032400001 38.4051706281 35.3728584391  7.7270027252 38.0279629361 35.4064102293  6.2142066779 40.9883763364 29.6893219711  6.8645349832 40.0496923275 29.51983234185  6.78739552475 39.5540935443 30.02195856245  6.8896479226 40.8227107506 29.83086147085  6.1890937385 40.2153579133 29.3782928421  6.81250846415 40.3271119674 30.33298769145  7.4108102504 39.6658475984 30.9766534118  7.48794970885 40.1614463816 30.4745271912  6.1639807991 39.4423394902 29.0672637131  8.087515 38.87125 29.136986  7.82630208365 39.7641475824 29.5546934853  8.035011000000001 39.7382715 28.822986  8.359510499999999 39.392601 29.2694895  8.631506 39.913952 29.401993  7.77379808365 40.63116908240001 29.2406934853  8.09829758365 40.2854985824 29.6871969853  8.3070065 40.25962250000001 28.9554895  7.982507 40.605293 28.508986  5.5319647226 41.9149510382 31.964053042  5.21458538415 42.90965036645 31.90192446225  5.3390974507 42.86988836065 31.207726373  4.8551697446 42.4777157025 31.4948188979  4.1783747666 43.0404803668 31.0255847538  5.021718112249999 43.8645876889 31.14559779325  4.53779040615 43.47241503075 31.43269031815  4.6623024727 43.43265302495 30.7384922289  5.1462301788 43.8248256831 30.451399704  4.8972060457 43.9043496947 31.8397958825  4.218735 39.828297 31.487356  5.1462541509 40.24431869115 32.0609736063  4.16359380365 40.22057873955 32.08261334399999  5.32314342795 40.0184294762 32.09766664605  5.201395347249999 39.8520369516 31.4657162623  6.4275518559 40.2085619524 32.7079772921  5.268002231600001 40.41071121575 32.69292399005  6.305803775199999 40.0421694278 32.07602690835  6.1840556945 39.8757769032 31.4440765246  4.1084526073 40.6128604791 32.677870688  6.095243 37.33857 34.28989  6.470708 37.550148 34.82057  6.32353764585 38.00243405315 34.6292787875  5.92884 37.4437315 34.793882  6.637111 37.4449865 34.316578  7.178979 37.551403 34.343266  6.86540564585 38.10885055315 34.6559667875  5.762437 37.548893 35.297874  6.15713464585 38.10759555315 35.1332707875  6.5518322917 38.6662981063 34.968667575  0.960703 39.516701 24.399647  0.2721716747 40.9323038066 24.98588930985  1.2205826747 40.6585023066 25.14210080985  1.0025231747 40.6375673066 24.61249230985  0.2303515 39.8114375 24.773044  0.448411 39.83237250000001 25.3026525  1.1787625 39.537636 24.9292555  -0.5 40.106174 25.146441  1.0443433494 41.7584336132 24.8253376197  7.006585 43.097408 25.811007  7.00915343285 43.41991064395 26.61605614585  6.309489408799999 43.6048591207 26.65343291705  7.26485793285 43.65054914395 26.30233764585  6.7508805 42.8667695 26.1247255  6.5651939088 43.8354976207 26.33971441705  6.495176 42.636131 26.438444  6.1238028176 44.5735872414 26.8684218341  6.823466841649999 44.38863876465 26.8310450629  7.5231308657 44.2036902879 26.7936682917  4.16327939865 45.1246778991 26.49447689495  4.711422268650001 44.9040199443 26.7561692837  3.7934561217 44.44681401584999 26.8810276794  4.45460528245 44.32697864345 26.12186802505  4.3415989917 44.22615606105 27.14272006815  4.5984159779 44.8031973619 27.7770213268  4.0502731079 45.02385531669999 27.51532893805  0.9370230000000001 41.529995 21.267246  1.29508630515 42.11070502005 21.9120679072  1.1239409606 41.4745108458 22.23565378005  1.90730891335 41.8335466867 21.61692673815  2.8775948267 42.1370983734 21.9666074763  2.2653722185 42.41425670675 22.26174864535  2.09422687395 41.7780625325 22.5853345182  1.3108589212 41.4190266916 23.2040615601  1.48200426575 42.05522086585 22.88047568725  1.6531496103 42.6914150401 22.5568898144  3.600562 35.848183 22.653673  2.75634888955 36.4988985059 21.8752079424  3.4585715 36.101677 21.6755745  3.28052 35.6031 22.133728  3.7786135 36.34676 22.1955195  3.07639088955 36.7439815059 22.3951529424  3.956665 36.845337 21.737366  3.25444238955 37.2425585059 21.9369994424  2.960478 35.358017 21.613783  2.5522197791 37.6397800118 22.1366328848  5.1579553618 44.8398149835 23.3717233169  4.753322116250001 45.37360198845001 22.32180548555  4.79077219245 44.86297769495 21.7834
[...]
<PointData  Vectors="u"> 
<DataArray  type="Float64"  Name="u"  NumberOfComponents="3" format="ascii">-2.2004491132686891e-08 -8.4698205923335451e-10 -1.6311486421766251e-08  -2.0753957984486855e-08 -2.2015146230030193e-09 -1.4886945690662940e-08  -2.1193563618620267e-08 -2.0563576649786872e-09 -1.4005599049571593e-08  -2.6462881486367303e-08 -1.9179414059414739e-09 -1.5783659251940396e-08  -3.1215924183096067e-08 -3.2957704384822770e-09 -1.6816472130964040e-08  -2.4857906171963702e-08 -5.0779597976375751e-09 -1.5372179603025345e-08  -2.4387108796393092e-08 -3.1994813434361380e-09 -1.4279290788177979e-08  -1.9254556159419479e-08 -3.1114988659985878e-09 -1.2520670511088699e-08  -1.8766051793917484e-08 -5.3205621553210729e-09 -1.3436247865987339e-08  -1.8391193967040037e-08 -7.0272060118310495e-09 -1.3994069463503875e-08  -3.7162612542066856e-08 -1.2465752742428195e-09 1.2474769295242168e-09  -3.7773253794832664e-08 -2.1169299633877632e-09 2.4423885780877666e-09  -3.8652503917200037e-08 -2.3730080264842222e-09 1.9385175424331280e-09  -3.9191415373100953e-08 -1.4581101684634758e-09 2.6759092713978239e-09  -3.6376346391578301e-08 -2.3998328320559669e-09 3.7488577396500022e-10  -3.6122082647096892e-08 -1.9689560656291717e-09 1.1929129493683279e-09  -3.5825141413300767e-08 -3.1489300165491091e-09 -5.0574337226998365e-10  -3.5505563956384050e-08 -2.7649982064594895e-09 1.0062362311015847e-09  -3.4948873770687955e-08 -2.5488843458492752e-09 1.2650460937458546e-09  -1.5436617508825259e-08 -6.3795621198051441e-09 -1.2791371834526343e-08  -1.1588507446812744e-08 -5.2842993600815324e-09 -1.1612374512122686e-08  -1.3583229990275491e-08 -4.7250377580213091e-09 -1.2319897406130468e-08  -1.3521711290307395e-08 -5.9872373245489898e-09 -1.2799397306396942e-08  -1.3531848774818951e-08 -6.8323236600767285e-09 -1.2502528346351285e-08  -1.2553856458677336e-08 -4.3035086824769908e-09 -1.1255792969294895e-08  -1.1534110388465802e-08 -3.7872030067628405e-09 -1.1007831286841632e-08  -1.1762698367000436e-08 -5.9201778376692226e-09 -1.1165297917267562e-08  -1.1703595156589295e-08 -7.3664837779926687e-09 -1.1584273324227502e-08  -1.1299109514254128e-08 -3.4764662312594971e-09 -1.1333961821596192e-08  9.2666700158338566e-10 -5.9523225328027211e-09 -7.3731874260807924e-09  -2.0743954781669491e-09 -5.0879010718435517e-09 -7.1706605252033209e-09  -3.7858618983732887e-09 -6.5042573817545224e-09 -8.1968587554512404e-09  -1.9532751014814339e-09 -5.9189867218960687e-09 -6.3282377265332832e-09  -2.8089519699072572e-10 -4.6866650598089608e-09 -7.7121726706969385e-09  -3.5988539765516488e-09 -6.2404929293160815e-09 -7.4829163733708141e-09  3.7895074120467685e-10 -4.2562023974047334e-09 -9.2690867059744870e-09  -6.0868740972495249e-09 -6.7481250979313590e-09 -9.2254368484482912e-09  -4.3583641401333296e-09 -7.0370462891790460e-09 -8.1771364779556680e-09  -2.8795970631326186e-09 -6.7342305911955351e-09 -6.9262527209381728e-09  -2.8828566404857010e-08 -6.2807788233091340e-09 4.7138951201463880e-09  -3.2380100126073411e-08 -4.9321121626683374e-09 4.3679997134842199e-09  -3.0712611241271257e-08 -3.5151520836982186e-09 3.0587381226294037e-09  -2.9804593965365700e-08 -5.7813871797486672e-09 3.8858626233477378e-09  -3.1635985946617491e-08 -5.7161007964928324e-09 4.5927385972059456e-09  -2.9630282838930950e-08 -4.4257346000589250e-09 1.9981546611985767e-09  -2.8256852232796112e-08 -3.8258340277941800e-09 3.5098674556865966e-09  -2.9049721935812511e-08 -1.5773624973786928e-09 8.6597706343759355e-10  -3.4417395944793294e-08 -5.1446354776554284e-09 5.3624466364711422e-09  -2.9803805138195841e-08 -5.5714712333085701e-09 3.1786288376187472e-09  -3.2993913786431819e-09 -5.3692126035735732e-09 -1.6417845731456104e-08  -5.2651136969802913e-09 -5.2805258244614302e-09 -1.3843572694975327e-08  -6.3810169557622334e-09 -4.7579872093685719e-09 -1.4167081940892481e-08  -5.4581282451020373e-09 -5.0413874618585040e-09 -1.2832644299269706e-08  -2.8952259479722388e-09 -3.8460804073032200e-09 -1.3856243045967763e-08  -6.7616077272437968e-09 -5.3139845051430754e-09 -1.3122836870066789e-08  -1.5266708195270727e-08 -9.1194551641877059e-10 -8.3437329472293257e-09  -1.4405436974245245e-08 -8.2375431352598345e-10 -9.7956559695251972e-09  -1.2979042049549649e-08 -1.0311177208069160e-09 -8.8261872687930936e-09  -1.3047146848921271e-08 -6.1204451670309373e-11 -9.5860007318175990e-09  -1.0877030470051853e-08 -8.6694341482273490e-10 -1.0037152696261397e-08  -1.2069878626031439e-08 -1.1913998516174504e-09 -1.0362048676354509e-08  -1.0811532547927850e-08 -1.6096699808071829e-09 -9.2827346543678992e-09  -1.0678395849066505e-08 -1.5038303309850218e-09 -1.0110142846684630e-08  -1.1740940223831004e-08 -2.3100880016639768e-09 -1.0532165243690164e-08  -1.3464177020405220e-08 -2.2018709987817605e-09 -1.1283450153097301e-08  1.1471063369445880e-09 -1.5532916615501897e-09 1.5648506636427542e-09  -2.3223875475545033e-09 -1.4765131379442354e-09 1.8587869303120857e-09  -1.5952269047313498e-09 -1.5155467326934270e-09 2.1035767765038914e-09  -1.3731566893580780e-09 -1.2736771689994402e-09 1.4724402718303140e-09  -2.4132112371408158e-09 -7.8333205415313864e-11 2.6042125440432061e-09  -3.0368966047535719e-09 -1.4897228076878546e-09 2.4625453139662334e-09  -2.7389378962311540e-09 -1.6832095679114820e-09 2.9096595503713511e-09  -3.1021707131416389e-09 -1.9335756440604558e-09 2.3677579796171694e-09  -3.8904284950437858e-09 -2.0248315604851136e-09 2.7483367900813185e-09  -4.2660805722843350e-09 -1.9303794544871156e-09 1.9745213001244253e-09  -6.3836558475600014e-10 -3.3270736612332075e-09 2.9721382106419444e-09  -4.1801138835484281e-09 -1.1526076834893179e-09 4.2590671334200797e-09  -3.0602751946741453e-09 -1.0169809449189579e-09 3.9251904851167931e-09  -3.7730891663006705e-09 -1.9604916255323025e-09 3.1181669370654600e-09  -2.2598493917655527e-09 -8.9206307897444606e-10 3.6485605696533389e-09  -3.2156819335327361e-09 -6.7554768114198137e-10 3.4030670203958062e-09  -4.6925175677990527e-09 -6.4947604456976876e-10 3.0370568238234424e-09  -5.9806261389300700e-09 -1.0430208938044590e-09 2.7356240757631289e-09  -5.5501627520261481e-09 -1.1759295818993141e-09 4.0910356839756941e-09  -4.8113153860649097e-09 -9.6908190564349837e-10 5.4783410734002834e-09  -3.2319135390138736e-08 -1.4869973056367286e-08 1.1069211123609784e-08  -2.9013513891356121e-08 -7.1748061495238996e-09 2.4155374896747037e-09  -3.5946281798030685e-08 -7.8877866810734978e-09 6.2359410098324939e-09  -3.7467344422845820e-08 -1.5300963692617468e-08 3.4873913690523285e-09  -1.7215754092972875e-08 -1.8110525955519951e-08 3.7341314963802488e-09  -5.9819493840798154e-09 -7.0005835656067323e-09 2.3725622470358146e-09  -2.7732459732330509e-08 -1.4685943144729396e-08 8.0037827969109433e-11  -3.7423994074858842e-08 -1.0645616620434852e-08 2.3878266460056323e-09  -3.6128535975137693e-08 -8.7163657326999510e-09 4.0400876925055070e-09  -3.7012937216066476e-08 -5.2832955997813050e-09 4.6958229616723664e-09  -1.3570056036683918e-08 -8.2995523118829701e-09 -1.9521171130204239e-08  -1.2942522416854798e-08 -7.5442616293218308e-09 -1.5333711614433982e-08  -1.3448957067428382e-08 -7.4806574578740846e-09 -1.6244081742104417e-08  -1.2798850458893744e-08 -8.1565893437671780e-09 -1.4482489839451849e-08  -1.5657980650437967e-08 -9.2813260854203348e-09 -1.7755736380639383e-08  -1.4894952996248035e-08 -8.6122384765250753e-09 -1.5683949858519310e-08  -1.1986000112098983e-08 -7.8403571608453618e-09 -1.2866369931069175e-08  -1.1438072991003074e-08 -8.6202935337779614e-09 -1.2710540827900724e-08  -1.3009740851736321e-08 -7.5732822985569686e-09 -1.3863039330570113e-08  -1.3640244710574447e-08 -7.3232381114959397e-09 -1.4635446988501688e-08  -2.2390528435465798e-09 -2.5900285880814602e-09 -9.7495548814572146e-09  -2.0636871758550184e-09 -3.0589582266284380e-09 -4.7517847582758595e-09  -1.7342021718545528e-09 -2.5853039600935500e-09 -3.8411775642000828e-09  -6.6730905407110747e-09 -3.6508264596483422e-09 -8.2042162577368209e-09  -7.9695696345562374e-09 -3.6352708648542963e-09 -5.6896086587458784e-09  -4.1852081434426102e-09 -4.7027259982116251e-09 -3.4781047115780554e-09  -3.8819279609867666e-09 -3.0129736093486217e-09 -3.7859099330554742e-09  2.1709669151313704e-09 3.3589746752187196e-11 -2.4760708436235922e-09  -2.8511433180796015e-10 -1.7544554725221471e-09 -2.2424275550866600e-09  6.7295045743758742e-10 -3.3946909138392870e-09 -1.9891302457702601e-09  -3.2906165324115364e-08 -5.1163221169627457e-09 -4.4283963725057148e-09  -4.1081666620662151e-08 -7.2049848896944380e-09 -3.6931893672322450e-09  -3.6272056570606888e-08 -6.2759197689606426e-09 -5.1916069134091080e-09  -3.3423829655699663e-08 -7.9060771457395405e-09 -7.4390006791662625e-09  -3.6434628059066230e-08 -6.3598473405629724e-09 -4.4364220453230262e-09  -3.3625449532133460e-08 -1.2042868625959184e-08 -1.1535186011254459e-08  -3.7536125818694927e-08 -9.3095790491795867e-09 -8.5327661293390451e-09  -3.8008879141759021e-08 -1.0494555763795433e-08 -7.9642651736278819e-09  -4.1113841048227077e-08 -6.9819377010169533e-09 -3.2719221743676282e-09  -4.1029292474664502e-08 -7.0667110180472275e-09 -5.2779789492947451e-09  -5.9797538402850017e-09 -1.1204452758636338e-08 5.5647935154913798e-09  -3.0355717450248168e-08 -8.4604433673731528e-09 4.0557293661173709e-09  -2.6359665350007912e-08 -9.8129999936931713e-09 6.5168607331289657e-09  -2.5285951222572604e-08 -1.4022356654968384e-08 1.3435306410736579e-09  -2.3396756317162629e-08 -6.6527056574649474e-09 5.6172601870862864e-09  -3.1151643474327825e-08 -9.9644999514864639e-09 4.3067641914813750e-09  -2.9679725685760624e-08 -8.2674004540822769e-09 4.7136770370918892e-09  -3.4144095267769176e-08 -1.1701832236686495e-08 2.0869407689907931e-09  -3.0195949339521254e-08 -8.9636347244898064e-09 4.7965292620406399e-09  -2.1870936747983258e-08 -1.7642984799976170e-08 -2.4960785351632893e-09  -2.4285580624610501e-08 -9.8004080359605102e-09 -2.8370934891954785e-10  -2.4967237206000031e-08 -9.7649465781872535e-09 -1.3586611790582675e-09  -2.3930234914590080e-08 -1.3830321062345038e-08 -7.1393291558030650e-09  -2.7509764787712676e-08 -6.2322133141753761e-09 -7.6792427903347851e-09  -2.4347176460513367e-08 -6.4254275062183404e-09 -1.5488957074302555e-09  -2.5616632971377019e-08 -6.3217676130027364e-09 -2.4942842365457521e-09  -2.7512127843480186e-08 -5.5320441457227925e-09 7.6467522863698558e-10  -2.6275481426330294e-08 -5.4155054147317399e-09 1.3203998131492626e-09  -2.5807863650532025e-08 -6.6145462832471319e-09 2.7183697096285526e-09  -2.1835605336329183e-08 -8.5203992432517467e-09 -1.1946477884268094e-08  -2.4203551643312456e-08 -1.3658948945275852e-08 -1.6687233328455482e-08  -2.2818023029767948e-08 -1.3354810130774050e-08 -1.7101244391979343e-08  -2.7306658378018772e-08 -1.0961143085859191e-08 -1.1583712330091920e-08  -1.8888888709262921e-08 -1.2117462764613126e-08 -1.5836366967672317e-08  -2.4392576608474333e-08 -8.3269619895809159e-09 -1.1959133092699437e-08  -2.9022731447226128e-08 -1.0656531445474021e-08 -1.3467646921018853e-08  -3.1212259693973506e-08 -1.0575125086645466e-08 -1.2170892820287022e-08  -1.5717367585333594e-08 -1.4594315767651026e-08 -1.9181220159072058e-08  -2.6922829446202492e-08 -3.2714233615214035e-08 -3.2895579898489392e-08  -3.3475671179999854e-08 -1.9326587038519881e-08 -2.1449485653100232e-08  -2.9436270290300535e-08 -2.8567770244718957e-08 -3.1739823311484341e-08  -4.0639774061516654e-08 -2.7189062448091172e-08 -3.0931091312186738e-08  -5.6219223545529628e-08 -2.2265322545185707e-08 -1.6733068866692188e-08  -3.7296288827243589e-08 -1.8394872911216921e-08 -1.4373564416300360e-08  -3.9923048092761022e-08 -1.6402453758116463e-08 -1.4027881175018512e-08  -4.9459350727466940e-08 -3.3889117462166184e-08 -2.2786801818744618e-08  -4.6488373903227729e-08 -2.9285787141883541e-08 -1.5894356729374662e-08  -1.9172131167551667e-08 -2.1267220373759137e-09 -3.3919341368661710e-09  -1.8444900755968602e-08 -1.3638702798445605e-09 -3.0350445975820015e-09  -1.8735623873953387e-08 -2.0051291974827647e-09 -4.7394563384680039e-09  -1.6360106838848256e-08 -1.0222358561502257e-09 -3.3471857920798137e-09  -1.3610137613161602e-08 -6.2174133063594255e-10 -4.2635133284535015e-09  -1.8228244265232619e-08 -1.0144320765066307e-09 -3.9893736635028667e-09  -1.5732452484196779e-08 -8.3459581268008870e-10 -3.2749921606293585e-09  -1.6238611159645917e-08 -1.2055720590002330e-09 -5.4897913859960510e-09  -1.9287100743693258e-08 -1.7789802851488072e-09 -5.7679401154902820e-09  -1.7560126710078814e-08 -4.3724019963005541e-10 -1.9500699581583786e-09  -7.4993567009657046e-09 4.4667813988126122e-09 -1.1302842460299946e-10  -1.3834763256655399e-08 -1.3716288303024022e-09 -2.5739458919820247e-09  -1.1195985869378267e-08 1.2158991486585515e-09 -6.3756423853611767e-10  -1.4963588317755651e-08 2.3913771650473285e-09 -4.0313479594388661e-09  -1.1333180272192587e-08 -1.9883563998838017e-11 -8.0140995457518528e-09  -2.2697587285517088e-08 -1.8109544074701111e-09 -4.6742792577371305e-09  -1.7647270909254313e-08 1.6007228627016968e-10 -4.1978681422668422e-09  -2.1525430508690107e-08 -2.8264218653112558e-09 -6.8471660865941800e-09  -1.8971609284180616e-08 -3.7186830293511821e-09 -9.4125190171490904e-09  -1.2719992627495369e-08 -1.2500375918593692e-11 2.6324748404956918e-10  -1.3003534446720531e-08 -3.3306060850387912e-08 -7.9644955047188588e-09  -1.8855396142117236e-08 -1.2970345280942494e-08 1.7356021484349959e-09  -1.5025683146617360e-08 -4.2144905826747051e-09 2.1460945205364414e-09  -4.8861823477151478e-09 -1.8490299107651483e-08 5.2176921739199518e-11  -2.4811446707301978e-08 -1.6630218303118414e-08 1.0268360502968226e-08  -2.8867074542554583e-08 -7.1380227876370212e-09 8.9633225886187682e-09  -2.2763811592764791e-08 -5.6423610617103160e-09 1.5654450070290048e-09  -3.8811097693491619e-09 -9.3572431256379705e-09 -3.8491330546064254e-09  -1.4824730393124257e-08 -3.1147874756468687e-09 -1.5556297921836226e-09  -2.1576546668814587e-08 -1.8092978615898528e-09 -5.8427216373333080e-10  2.0879433379387727e-09 -2.0077721772521980e-09 -1.3104848036802781e-08  -1.0933427224913319e-09 -4.7099360172844641e-09 -8.5554744158818878e-09  -4.8201395471250942e-09 -5.0966387847552862e-09 -7.6282473462593098e-09  -3.2742912738988868e-09 -6.1057920593642777e-09 -8.9546412522564532e-09  1.5869474242885310e-09 -1.0130103789177022e-09 -7.5054862843743377e-09  -7.6004206465973066e-10 -1.0923946594753076e-10 -6.4775096095201765e-09  -4.2599370629118722e-10 -2.8371852981784701e-09 -1.1161302092776080e-08  2.8269282345541364e-09 5.1624115897652939e-10 -5.5787601295575508e-09  -4.4640129644087677e-09 -7.5752538622039951e-09 -8.3937936917300825e-09  -4.5688954845472764e-08 -1.0445877048170610e-08 -1.5870215601624376e-08  -4.0310949173481860e-08 -5.4051142702828618e-09 -1.1611318453338683e-08  -3.0408837129477889e-08 -7.5820620057238528e-09 -1.3212211531919160e-08  -4.1130975713555373e-08 -2.9686014721302519e-09 -1.2190738006394328e-08  -4.2385983479620638e-08 -1.8601133017832209e-08 -1.8519868844754611e-08  -3.2801169134779924e-08 -6.4207853921907412e-09 -1.3242513693456682e-08  -3.2091663510398988e-08 -1.9547712453890898e-08 -1.8481233978968530e-08  -2.7609410191957565e-08 -3.3413193055036139e-09 -1.0679745399319775e-08  -3.3158303388428708e-08 -2.8745669427253764e-09 -1.1282899267789561e-08  -3.8351196527583014e-08 -9.7886929834377114e-10 -9.8240184916340625e-09  -1.6145470061010715e-08 -2.5730926944716334e-09 -1.1690801972017603e-08  -1.9012132075405802e-08 -2.7681306934946756e-09 -1.2247256233719188e-08  -1.4799269617350063e-08 -4.0616313586297770e-09 -1.1894163873928192e-08  -1.7680091595488563e-08 -5.2652883932766888e-09 -1.3075322955978427e-08  -1.7190945674591916e-08 -4.3132866522628442e-09 -1.1854580413117190e-08  -1.7936815323413056e-08 -2.6219617214408061e-09 -1.0352798092584937e-08  -1.5799178513279078e-08 -2.5532749545149513e-09 -1.1078815241292297e-08  3.4020864627667115e-11 -1.6382659961541332e-08 -1.1492201862387574e-08  -8.8680684958521531e-11 -1.1302396330802824e-08 -6.5121200874310709e-09  -1.2026522186221952e-09 -1.0924244955156831e-08 -9.2160146650468407e-09  -2.3387474943154507e-09 -1.1773992991001231e-08 -9.8754332082476722e-09  -4.6048768715013492e-09 -1.0670927871891604e-08 -1.0017834585725501e-08  -4.1890273798753359e-09 -1.0050608740429307e-08 -8.7645754445582225e-09  -3.9605152204580377e-09 -9.9960712734806113e-09 -9.7793260435791660e-09  -2.8723277233138724e-09 -9.0377714611196057e-09 -9.4693923377519735e-09  -3.2038467162385750e-09 -9.0773313011878700e-09 -8.4666962680832971e-09  -3.1844027391540743e-09 -8.5196049806037439e-09 -7.5999832460875853e-09  -1.1809490046542787e-08 1.7366282266128294e-09 -2.2190084921566449e-08  -5.4410715251354597e-09 -5.2467597046293859e-09 -1.6824796865144002e-08  -1.4267900251214810e-09 -6.4871005182544131e-09 -2.3873244739917412e-08  -8.2824952995401157e-09 -3.3915741672688319e-09 -2.1964205112273370e-08  -7.8871976730438596e-09 -2.2913479745115909e-09 -2.2637888077236995e-08  -6.6246137219509935e-09 -4.2726890547709691e-09 -1.7652653028173793e-08  -2.2555657384120146e-09 -4.6954908467466368e-09 -2.3459301706698198e-08  -4.2005309598093745e-09 -5.5985446755787760e-09 -1.6975052829973983e-08  -4.5312833181453146e-09 -4.1383044425653170e-09 -2.0690408891528266e-08  -5.3839276543755651e-09 -6.6160393359686342e-09 -1.4811462722090846e-08  -1.5513013000272922e-08 -4.3251826557909791e-09 -1.4852175843026525e-08  -1.0273093696060806e-08 -2.9659163377597921e-09 -1.3101372540567987e-08  -9.5104132674462489e-09 -4.1873490057536228e-09 -1.1746053133148534e-08  -1.2997835586101144e-08 -2.6985651811659464e-09 -1.5431665674962798e-08  -1.0745910834602980e-08 -5.4671741284235193e-09 -1.2063195060910053e-08  -1.2557702618617849e-08 -4.0109717323420344e-09 -1.1804589071406142e-08  -7.3185160114067888e-09 -6.8421414878819866e-09 -9.7525106358832878e-09  -8.2064707111057173e-09 -5.0506776051146114e-09 -1.0362492469782305e-08  -9.4177551871250612e-09 -4.8910374505789038e-11 -1.3709385383239098e-08  -9.7597425053998020e-09 -3.5979565210708710e-09 -1.0723531435320649e-08  -3.8059671647200262e-08 -4.0117015246588720e-10 6.6438814268787551e-09  -2.7903415468432442e-08 1.3939479569660539e-09 6.6123580856411751e-09  -2.9058101846828429e-08 5.8610045615599962e-10 4.8478523461315409e-09  -3.4644135176719510e-08 1.1248521061631893e-09 5.7739506580411494e-09  -2.9424975387648532e-08 6.1227722707483763e-10 9.9907401784078016e-09  -3.0532779374946696e-08 5.2018602766584876e-10 5.2492012866092893e-09  -2.7319981746792395e-08 -1.0596611597213392e-09 3.1163433627611178e-09  -2.6483040977564856e-08 4.3454872189227765e-10 5.1510520147992076e-09  -2.4531313016196385e-08 -6.8772848983166860e-10 7.7095806931316460e-09  -3.1466478199526286e-08 1.0978185677779314e-09 4.6166508144692778e-09  -1.9430001564896734e-08 -8.7782726818387998e-10 -5.5339132931124010e-09  -1.3768363593075755e-08 -6.9382312937734814e-10 -7.4814107768111955e-09  -1.4107794478347985e-08 9.5897581575368582e-10 -6.8820159104576103e-09  -1.6194784890586711e-08 2.1699747674606859e-10 -5.1977441218869343e-09  -1.5727861633352613e-08 -3.6858025612128688e-10 -5.5071440130823185e-09  -1.7607890212611943e-08 3.5408265861200266e-10 -7.2359753756887001e-09  -1.2342627808547117e-08 -9.8700562011820144e-10 -4.7625204823722604e-09  -1.2101979655470912e-08 -2.2897647258498880e-10 -5.1082105097384117e-09  -1.1855160101719370e-08 -5.1901692586661602e-10 -5.5495314769049688e-09  -6.7326431425380601e-09 8.1903134501344142e-09 9.4468093883115498e-09  -2.2555616721673249e-08 -4.7495698597550002e-09 4.0246870829128209e-09  -9.7962062197063936e-09 1.0966802619793127e-08 6.1277715684710286e-09  -1.7384806762445265e-09 -1.1868584851214813e-08 1.0010667063406038e-09  -2.3091846162501967e-08 -1.2697709283591039e-09 5.0343663272935571e-09  -2.3634329171417834e-08 1.1100035102134290e-08 6.8888993469518964e-09  -1.1663146404858752e-08 -7.0514368065269249e-09 -1.2556369517696772e-08  -1.24308