<?xml version="1.0"?>
<VTKFile type="UnstructuredGrid"  version="0.1"  >
<UnstructuredGrid>
<Piece  NumberOfPoints="8819" NumberOfCells="40654">
<Points>
<DataArray  type="Float64"  NumberOfComponents="3"  format="ascii">32.446842 44.422745 46.5  32.22100994794999 44.2449692211 45.86681888865  32.6339665 44.9052585 45.8330555  32.024207 44.892132 45.87702  32.821091 45.387772 45.166111  32.40813444795 44.7274827211 45.19987438865  31.9951778959 44.0671934422 45.2336377773  31.226984 37.475254 36.757915  30.8641650326 38.04271401515 37.018600899  31.2174555748 38.127219022 37.58200965544999  30.5309908014 37.57044785945 37.3582247204  29.8349976028 37.6656417189 37.9585344408  30.168171834 38.1379078746 37.6189106194  30.5214623762 38.22241288145 38.18231937585  31.2079271496 38.779184044 38.4061043109  30.8546366074 38.69467903715 37.84269555445  30.5013460652 38.6101740303 37.279286798  30.5875756889 38.2987059265 39.7056871375  31.42350187605 37.4331185438 38.94539922705  31.6793278967 38.4999151814 39.01402434969999  31.36915216635 38.25967612265 39.663815763  30.95210112895 37.7123874064 38.33747918825  30.89775141925 38.53894498525 39.0558957242  32.1507286438 38.2206463188 39.6219443885  31.3633420326 38.68576701515001 36.821474899  31.055846 37.9703615 36.38031549999999  31.726161 38.118307 36.560789  30.884708 38.465469 36.002716  30.6930270326 38.53782151515 36.641001399  31.555023 38.6134145 36.1831895  32.225338 38.76136 36.363663  31.60026244795 44.2874077211 45.86681888865  31.6098380748 37.821402522 38.17889765545  31.6193665 37.1694375 37.354803  32.011749 36.863621 37.951691  29.882326 37.750404 35.898743  30.2552345326 38.88509451515 36.333487399  30.1918360326 38.18028901515 36.58901489900001  29.61534561145 38.52149575 36.56408522380001  29.92485564405 38.95138076515001 37.2543571228  31.4142530326 38.42056951515 37.409283399  31.777072 37.8531095 37.14859749999999  32.276249 38.4961625 36.9514715  32.32716 38.230965 37.53928  31.65104786185 39.50225142595 36.2484836371  31.7677125 38.918234 35.774586  31.0973975 38.7702885 35.5941125  30.98073286185 39.35430592595 36.0680101371  31.310087 39.075108 35.185509  31.19342236185 39.65912542594999 35.65940663710001  31.0767577237 40.2431428519 36.1333042742  30.78905189445 39.4266584411 36.7062955361  31.53543491665 39.4905207028 37.2281612371  30.8455318333 40.2196814056 38.0926594742  30.67343894925 39.41492771795 37.6859731361  30.9611447785 40.23141212874999 37.1129818742  32.22171 38.956467 41.103363  32.1862193219 38.5885566594 40.36265369425  31.64081864745 39.37209769925001 40.3434438015  31.40464284445 38.62758646325 40.40452506875  31.60532796935 39.00418735865 39.60273449575  30.8237514919 39.0432171625 39.64460587025  31.0599272949 39.7877283985 39.583524603  33.176476 46.5 43.230293  32.9987835 45.943886 44.198202  33.3824085 46.5 43.719669  32.7439635 46.5 43.739563  32.311451 46.5 44.248833  33.204716 45.943886 44.687578  32.566271 45.943886 44.707472  32.949896 46.5 44.228939  33.588341 46.5 44.209045  30.36987992595 38.95643283705 38.61379793235  30.0597041956 38.7161937783 39.26358934565  30.21128664585 37.9821738227 38.83211078915  29.68341515255 38.3996616745 38.3900129973  29.5318327023 39.1336816301 38.8214915538  31.8146305 39.3553945 41.1570815  31.407551 39.754322 41.2108  31.23373914745 39.77102519925 40.3971623015  30.99756334445 39.02651396325 40.45824356875  31.76090164745 39.87963169925 40.1010293015  31.493152 40.301649 40.9118955  31.9347135 39.8629285 40.91466699999999  32.461876 39.971535 40.618534  32.0203145 40.41025550000001 40.6157625  32.599564 44.422092 42.995926  32.71032750000001 44.904932 44.0810185  32.4555075 45.461046 43.62237949999999  32.88802 45.461046 43.1131095  30.009123 39.160015 35.387688  30.54294036185 39.70157892595 35.7604961371  30.4469155 38.812742 35.69520199999999  31.85411164745 40.35081169925 39.7733563015  32.1135245 40.88143549999999 40.2880895  32.555086 40.442715 40.290861  32.648296 40.913895 39.963188  30.01658938375 38.8719278302 38.0503891759  29.8586618014 37.70802285945 36.9286387204  29.59168141285 38.47911460945 37.5939809442  30.383517 38.1079365 35.9507295  30.554655 37.612829 36.328329  31.02672949145 39.4994327248 38.24938189255  30.9527295641 40.00370490205 38.8380920386  31.616025045 39.9473118257 38.41757146255  32.3865182567 39.6749422458 38.7424834509  31.79722270315 39.2270631449 38.5742938809  31.7232227758 39.73133532215 39.16300402695  31.13392722225 39.28345622125 38.99481445695  30.101435 40.521286 34.998207  30.54380236185 40.83275092594999 35.8008766371  31.05647886185 40.81644692595 35.6331271371  30.58909636185 40.38221442595 35.5657556371  30.5688175 40.9555185 35.0655785  31.0362 41.389751 35.13295  32.1694545 37.547293 37.7454855  31.7675435748 38.505074522 37.97269215545  33.0939525 45.461046 43.6024855  29.05619085115 38.49139181505 39.7180787769  29.54850684445 37.77840996325 39.44288356875  29.02063535115 38.19589781505 39.0007857769  30.1886822678 39.67668151785 38.457075514  30.2958799986 39.4607050143 39.2025080784  32.0812388219 37.5421336594 38.78681769425  32.537094 37.257395 38.2165035  32.2389443219 38.2258056594 38.58061219424999  32.6947995 37.941067 38.010298  33.062439 37.651169 38.481316  32.6065838219 37.9359076594 39.05163019425  30.659605 39.1175615 35.2865985  32.51321512835 40.7280501229 38.92470272545  33.01743962835 40.4659236229 39.03065222545  32.51740712835 40.2944186229 39.35283572545  33.14832850000001 41.0854 39.6410045  32.644104 41.3475265 39.535055  33.648361 41.256905 39.318821  33.1441365 41.5190315 39.2128715  32.639912 41.781158 39.106922  31.7166325748 38.770272022 37.38488365545  33.07948762835 39.9180281229 39.40708472545  32.42419712835 39.8232386229 39.68050872545  33.1171665 40.0663245 40.34511  33.2103765 40.5375045 40.017437  33.772457 40.161114 40.071686  30.3725530878 39.4901066626 39.95741039295  30.1363772848 38.7455954266 40.0184916602  29.6851788807 39.1924849267 40.3312961829  31.53148681235 40.4584498677 38.9114135275  32.08176 42.85762 46.5  32.03846894795 43.4624067211 45.86681888865  32.002137 43.226999 46.5  31.911522 43.2324445 45.5566485  31.991145 42.8630655 45.5566485  31.922514 43.596378 46.5  31.95884594795 43.8317857211 45.86681888865  30.361164 39.5154515 35.045248  31.011646 39.472998 34.9441585  30.713205 39.870888 34.702808  30.89498136185 40.05701542595 35.4180561371  32.3063023219 39.09609065940001 40.12023919425  33.0523042563 39.4297632211 39.97292821364999  32.26862345025 38.94779428229999 39.1822139197  33.01462538465 39.28146684399999 39.03490293909999  33.6427325126 38.8879914422 39.3273224273  32.8967305782 38.5543188805 39.4746334079  30.8747025 40.6303195 34.917879  30.40732 40.19608700000001 34.8505075  32.35683912835 38.9529536229 38.14088172545  29.6085057915 39.16308327839999 39.57639386835  32.7558413219 38.6799966594 40.12631019425  32.791332 39.047907 40.8670195  32.341793 39.464001 40.8609485  32.911415 39.555441 40.624605  33.360954 39.139347 40.630676  29.9457245 38.4552095 35.6432155  32.509056 42.146935 37.951466  32.1235 42.240755 38.8978365  31.592755684 41.6944462448 38.51590480205  32.574484 41.96404649999999 38.529194  30.22623756525 40.3074818745 36.1926358404  32.184678 44.0095615 46.5  30.2125614733 39.76786517595 36.6813658609  32.763157 43.076069 46.5  32.37916744795 43.5716312211 45.86681888865  32.6049995 43.749407 46.5  32.3428355 43.3362235 46.5  30.0969485281 39.7561344528 37.6610434609  32.72447862835 38.6630556229 38.61189972545  30.94748986185 41.12500092595 36.1595476371  30.5820305 40.7033215 34.549736  30.8879155 40.3781225 34.40203649999999  31.062626 40.885357 34.101265  31.049413 41.13755399999999 34.6171075  32.204569 45.461046 43.137764  32.493025 46.5 43.2549475  30.055279 39.8406505 35.1929475  32.4224585 42.96684449999999 46.5  42.598125 40.906738 35.199329  43.3446370254 40.8963498386 35.55106576755  42.968458 41.3385465 35.0385855  43.3539425 40.7786275 34.860836  44.10976 40.650517 34.522343  43.7149700254 41.32815833860001 35.39032226755  44.1004545254 40.7682393386 35.21257276755  43.7242755 41.210436 34.7000925  43.338791 41.770355 34.877842  44.0911490508 40.8859616772 35.9028025351  42.358906 41.530807 41.569782  41.8968184411 42.8986926931 41.4203050801  41.45993727515 42.14335746170001 41.62008629195  42.21463387244999 42.65952998115 40.9632890438  42.79578716595 42.28614223140001 41.37000078814999  42.0703617449 43.7882529623 40.3567960876  41.3156651476 43.27208044285 41.01359333575  42.6515150384 43.41486521255 40.76350783195  43.2326683319 43.0414774628 41.1702195763  40.5609685503 42.7559079234 41.6703905839  43.402256 41.631981 43.313  43.47011856015 42.16363244285 44.1207598272  43.86825 41.6071645 43.61109  43.4621945 41.3732775 43.8115885  43.522133 41.114574 44.310177  43.93611256015 42.13881594285 44.4188498272  43.53005706015 41.90492894285 44.6193483272  43.9281885 41.348461 44.1096785  44.334244 41.582348 43.90918  43.5379811203 42.6952838857 44.9285196544  33.907932 44.442577 42.671505  34.8760550165 45.38353439055 43.4478742159  34.5943225165 44.35482289055 43.17029771590001  34.442484 44.96747 43.609955  34.18966450000001 45.4712885 42.94908150000001  34.471397 46.5 43.226658  34.7242165 45.9961815 43.8875315  34.977036 45.492363 44.548405  35.1288745165 44.87971589055 44.1087477159  35.280713033 44.2670687811 43.6690904318  43.742615 34.726006 36.811195  43.06368539775 35.8348505056 36.62865767705  42.91974739775 35.3259280056 36.88880667705  43.0655059077 35.13917157445 36.17221931975  43.886553 35.2349285 36.551046  44.030491 35.743851 36.290897  43.2094439077 35.64809407445 35.91207031975  42.3883968154 35.5523371489 35.5332436395  42.24263830545 35.73909358005 36.2498309968  42.0968797955 35.9258500112 36.9664183541  44.348042 36.722942 34.592987  44.84193524705 37.2763689985 35.8024544761  44.76987374705 37.4030779985 34.9457399761  44.8860315 36.73782525 34.841586  44.4201035 36.596233 35.4497015  
[...]
<PointData  Vectors="u"> 
<DataArray  type="Float64"  Name="u"  NumberOfComponents="3" format="ascii">-1.8185459999914290e-07 -9.0026109900292599e-10 -7.3772836420105329e-09  -1.7597158768797516e-07 2.1126267606248995e-08 -3.0473813902759533e-09  -1.8158715184404026e-07 -5.2654686143075023e-09 -2.7116673874711389e-08  -1.8509068946182672e-07 1.6314118106399988e-08 -6.6939433647063610e-09  -1.6486114334784038e-07 1.4612758977055503e-08 -1.3537150506491120e-08  -1.7598134953608807e-07 1.7694780157498994e-08 -6.5330652373224494e-09  -1.8604164338006516e-07 2.8261171622892295e-08 -3.4529478641433214e-09  -7.8100026392197887e-08 -7.0872853820110639e-08 -3.2303392480536906e-08  -9.9272200198168071e-08 -4.7591533426507407e-08 -1.8060236828488038e-08  -9.7790192282755307e-08 -3.7734948690114287e-08 -1.8052904164375404e-08  -8.5062155208473910e-08 -3.0007070127381421e-08 -3.6065738901856079e-08  -7.6810278925209959e-08 -8.8916653256166060e-09 -4.0048049550830517e-08  -9.0563156228542537e-08 -1.5091364844859685e-08 -2.7387888359756715e-08  -8.9664020543365833e-08 -8.6834358407280894e-09 -2.1258863008045994e-08  -1.0729010607387536e-07 -8.6311735051113281e-09 -3.4593558863773481e-09  -1.0744401456051905e-07 -1.5075554602229499e-08 -6.7750461485135632e-09  -1.0961593863654847e-07 -2.4372740872954438e-08 -8.7888047669243353e-09  -7.6479162890280529e-08 1.5426912019830284e-08 -7.0872864076358394e-09  -9.0382860823125420e-08 -1.2105771458218438e-08 -2.6327444239684672e-08  -1.0977694228661530e-07 -6.3425263591452390e-09 -2.5994043723239380e-09  -9.3902216858655052e-08 6.9846250955282134e-09 -7.7762390996301933e-10  -8.7285475692186874e-08 -1.5591098830922055e-08 -2.8219504618998974e-08  -9.2303837477692683e-08 4.5443678532835991e-09 -7.6504782474303635e-09  -1.1488538114562260e-07 -3.4948153938187257e-09 4.8086664595331430e-09  -1.2248262417517392e-07 -6.0042323296272084e-08 1.9130194711404767e-08  -1.1720233799751429e-07 -7.4710376974536022e-08 -7.2340374910974472e-09  -8.9587763704105635e-08 -1.0429284721358520e-07 5.1690869760203859e-09  -1.4643409734175816e-07 -9.1343216765270752e-08 3.1031484173622170e-08  -1.2339268811888780e-07 -4.9037183296028453e-08 8.7902107681236788e-10  -1.4915058553259188e-07 -1.1492702665609450e-07 6.0093946656693591e-08  -1.7962073781813270e-07 -8.2450397882695401e-08 1.0137778958192119e-07  -1.8792778475860241e-07 1.9842231206735832e-08 -5.2584127976997703e-09  -9.6958109984305527e-08 -3.2395457031540638e-08 -3.0117863373210159e-08  -6.5410009526216142e-08 -5.7041303635279199e-08 -5.8873272686780595e-08  -7.6772232619159699e-08 -4.2884350229616809e-08 -6.5150362520148878e-08  -1.0812313612868994e-07 -4.9855043638492459e-08 -4.1039153916665495e-08  -1.4020851601955910e-07 -3.9060372593497186e-08 8.8458969808770158e-10  -1.1169754502806183e-07 -3.9914674186123512e-08 -2.3418139217285361e-08  -1.1126314866062544e-07 -2.1330190425288117e-08 -2.7547596200295422e-08  -1.0881875225363616e-07 -6.3787334197874356e-09 -1.5798373785644062e-08  -1.0993484754236212e-07 -4.6790159679553422e-08 -2.4521691484496691e-09  -7.8835975102750623e-08 -8.1572262085018717e-08 -2.2850078464649467e-08  -1.0448754209904129e-07 -1.3673059988738262e-07 1.4858530435038997e-08  -1.1329682185107049e-07 -7.7058422770423816e-08 -2.5511970279304503e-08  -1.6085804796528506e-07 -2.6459693680883393e-08 7.1040979081454590e-08  -2.3026489826256060e-07 -5.1119939440652553e-08 1.5398103380092981e-07  -1.6594927886362828e-07 -1.0611232873752700e-07 9.9381361936818619e-08  -1.6164579500472572e-07 -2.9929251751569409e-08 6.7627179445649790e-08  -2.0797781552683994e-07 -8.3301600970001920e-09 1.7973024466434053e-07  -1.8183250193603761e-07 -2.1150068361874795e-08 9.6509175210764621e-08  -1.7047179026114658e-07 5.5235345597175690e-09 6.8662314565085058e-08  -1.3935095271291195e-07 -1.4786471467443494e-08 2.8376952300261789e-08  -1.3677489871309994e-07 -1.9911534341324731e-08 2.8070308025009275e-08  -1.2100070338867223e-07 2.2522990523920179e-08 1.3945359804776939e-08  -1.1677744516587941e-07 -7.6203529051900134e-10 4.1230082785278257e-09  -1.4178620689702354e-07 1.4557777926610267e-08 2.8817576061014570e-08  -1.0721633997237025e-07 1.7035518302562356e-08 4.8329916772948702e-08  -1.1250633245137278e-07 9.3994310278315128e-09 2.6166174065783835e-08  -1.0619161563512871e-07 2.4167188113928318e-08 2.6728579615580197e-08  -9.0723859289326222e-08 1.9388845431385062e-08 1.7232406126361307e-08  -1.0898986786081836e-07 1.0784785340112441e-08 1.1635107092580368e-08  -8.9823456073913415e-08 1.9952657260275791e-08 3.9384008918497520e-09  -1.0224955021369902e-07 2.7457566092440667e-08 1.5841528901685735e-08  -1.6606203441226262e-07 7.7941987496717216e-09 1.5429285199147045e-08  -1.6443476114059313e-07 1.1199458078504271e-08 7.8109924084195576e-09  -1.5011674114679248e-07 3.9762507549673809e-09 1.6146426464697956e-08  -1.7562555148160242e-07 2.6098345557976718e-11 8.0173167318234513e-09  -1.8019519413288869e-07 1.4833429370861083e-09 1.0856044868609610e-09  -1.5347360659968846e-07 1.3730513372043844e-08 2.0683807542896942e-10  -1.7388352764608140e-07 1.0930971401085542e-08 -1.0999087210268052e-09  -1.6433705135873341e-07 -3.4199469068562931e-09 4.2825004702170980e-09  -1.2947035698984509e-07 1.2336589550137289e-08 1.4368986474053665e-08  -9.1853705903175600e-08 9.3288488476594339e-09 -9.7448984037598614e-09  -7.4413151048760416e-08 1.8515755067029108e-08 -1.2830156663191715e-08  -7.4786333070316489e-08 3.8428333020963435e-09 -2.5487001818138495e-08  -7.6360753628527360e-08 7.0962180870579234e-09 -2.9234413123248781e-08  -7.4241976532407591e-08 2.2678477257574020e-08 -1.8074886687545558e-08  -9.9749745517160060e-08 2.8359295020584691e-08 4.4745292766834076e-08  -8.7571900040450184e-08 4.0827430797858936e-08 4.4825859401766287e-08  -9.6922909713177113e-08 3.2927168840870215e-08 2.5608558068101385e-08  -8.1556933928334295e-08 2.7319610361432665e-08 1.5752144926909392e-08  -1.1810030695416053e-07 2.7898312447389151e-08 2.9183907185817153e-08  -1.0765410703141854e-07 4.8064682140910050e-08 4.3983684246052540e-08  -1.1371311412541380e-07 2.9468079365488111e-08 4.1136577520044157e-08  -1.3918953973960734e-07 2.6726075195346694e-08 4.5019233294635467e-08  -1.2334150110896204e-07 4.2929571422120431e-08 3.9632410190736976e-08  -2.0859969935263260e-07 4.1138728523796242e-08 3.3524132218828029e-08  -1.7849133605109724e-07 2.5482643895320730e-08 9.6526739730224911e-09  -1.8595098389884038e-07 1.8100304345465882e-08 1.1068114673754771e-08  -1.9668596642266523e-07 2.9315140623283784e-08 3.1094679564516975e-08  -2.0736954865553803e-07 -4.6248754255957641e-08 2.8409785558939617e-08  -1.8339322277836271e-07 -2.2418475358562866e-08 6.0308586915493970e-08  -1.9545899648775001e-07 -8.1774785560101983e-08 5.1538246166417013e-08  -1.2876490549567370e-07 3.5417294743214329e-08 3.2631119957811792e-08  -1.3276638579063589e-07 4.9642924206607018e-08 4.6913386854796456e-08  -1.5844759353256852e-07 3.4506854519607311e-08 4.7169518587491507e-08  -1.6880953010440073e-07 4.2281828240039362e-08 4.6943677045896645e-08  -9.2424539493459879e-08 2.8172881922106331e-09 -1.6247825879002298e-08  -9.2247157930857597e-08 -2.5419464353146799e-08 -3.9366049490885069e-08  -8.9794388325903875e-08 -3.9452871496554864e-09 -3.1740402755965385e-08  -1.2128473083108429e-07 -6.8580478763936523e-08 -2.5060137467135889e-08  -9.3041953731894563e-08 -6.1510855957402866e-08 -4.1697308935513809e-08  -1.1519335811697684e-07 6.0162383938819793e-09 7.2217357850093584e-09  -1.1136685385009504e-07 2.4877977760087168e-08 1.2528272214422282e-08  -1.3117156715029011e-07 1.1131170347652047e-08 1.9600103149333834e-08  -1.4530453893746619e-07 1.8812473470176721e-09 2.1474350726370351e-08  -1.2559732281347354e-07 -3.8924182795984268e-09 1.0645441921202416e-08  -1.2497436340393509e-07 1.5781027030880584e-08 1.8656430185701442e-08  -1.0646952596780790e-07 1.1893663182175254e-08 6.1957696326177415e-09  -2.9448643998895944e-07 2.2400199139244497e-08 9.6894871586492644e-08  -2.0171357500779357e-07 3.2047841902370082e-08 6.9932561566354436e-08  -1.8211508520405688e-07 1.7264818990955989e-08 1.0330978818415444e-07  -1.9458480125060702e-07 1.2726203768518756e-08 9.5894417263307513e-08  -2.5071975565270270e-07 3.1547247310452154e-08 1.9669684660917702e-07  -1.8755638464018872e-07 -6.7001423160840500e-09 1.6583359047629983e-07  -8.7031168319236839e-08 -5.8424268048811174e-08 -5.7525452141521993e-08  -1.1624520476347156e-07 -3.4872191921217152e-08 -7.2475695231251483e-09  -1.7331596263588159e-07 2.3413238647838455e-08 2.4467629930111721e-08  -4.4290480564712931e-08 3.2412165786227088e-08 -2.2897767183578559e-08  -5.2110421533788622e-08 1.7177065773252212e-08 -3.0453511435166289e-08  -4.9484839867682910e-08 2.0387018047642984e-08 -3.6178068844702154e-08  -9.8138966578964091e-08 2.0626529516195558e-08 -2.2954345772115319e-09  -8.7077419752145184e-08 2.4954964916984210e-08 -6.8250612162355778e-10  -1.0367730167686288e-07 -2.5929533008468418e-08 -3.1179747531557307e-08  -9.4897141773365540e-08 -5.0754016050545689e-08 -6.4409289892039111e-08  -1.2218117544978410e-07 -3.0183900135612253e-08 -1.2245055508904714e-08  -1.3009179614753204e-07 -7.5745425603691129e-08 -4.3766473437101590e-08  -1.4761804892219747e-07 -5.2834973915825288e-08 -3.8373608079090051e-08  -1.2942226947546339e-07 -2.4253864541527529e-08 -1.2768147076791800e-08  -2.2048080565449398e-07 -5.2292255150519291e-08 8.7735619643364742e-08  -1.6163911351981657e-07 2.5321351152897264e-08 3.2487441058305424e-08  -1.7173665832556802e-07 1.4390822376116289e-08 3.1899278199767800e-08  -1.5494613152411944e-07 1.9887778797516527e-08 3.2763722772883874e-08  -1.9544449179510686e-07 2.0199633102766995e-08 4.2131122174504160e-08  -1.8146919309731284e-07 5.6840098452117907e-08 5.3845005381824270e-08  -2.3231995931809421e-07 5.2118847817179629e-09 2.6184771960796347e-08  -2.0102223204581279e-07 4.7773275722837911e-08 4.2900364962703830e-08  -1.8847126139513882e-07 6.6439534010141878e-08 4.8002532009722177e-08  -1.1628318808073834e-07 -5.1219962919865491e-08 3.4480521624564642e-09  -1.6703345956740194e-07 3.5221839514020252e-09 2.9609440067433503e-08  -1.4255148992771235e-07 1.4846798517186902e-08 3.0310801739278470e-08  -1.6228052383555495e-07 1.2544835828152902e-08 5.0135958851928724e-08  -1.8003469902561261e-07 2.7377623742996070e-08 5.5939817427354077e-08  -2.2235614453937515e-07 -1.1583945935503648e-08 3.3219190287613553e-08  -7.8700187979700171e-08 3.1867030686014419e-08 6.2221318367724614e-09  -6.7141651851485255e-08 2.7067772000034945e-08 -4.0551992789814850e-09  -5.7667865847338882e-08 3.7392803100294388e-08 -1.4432671912161340e-09  -1.2667797617354872e-07 3.1010199215263019e-08 2.3814784325549704e-08  -1.5163239446610859e-07 8.6371997733605776e-08 -1.3776851093672963e-09  -1.7799507817948956e-07 4.7225267955424541e-08 -4.0025432536759124e-09  -1.6577923771798547e-07 5.7618931871239722e-08 2.1613376753157117e-09  -1.8251006424818677e-07 6.1753025602156101e-08 -6.8247482950008305e-09  -1.6996081234452914e-07 8.8594176189673463e-08 -4.6320986994598707e-09  -1.7816217949398884e-07 3.9523947155980816e-08 -6.9018561881279968e-10  -1.7832079317095998e-07 2.9669007858137468e-08 -2.6821487200042269e-09  -1.9937513376012621e-07 -5.8911801481315432e-08 1.3705750588007100e-07  -2.1234520008047392e-07 2.0480505355817046e-09 1.8864821570202887e-07  -1.9665651840464091e-07 6.4700534303555125e-09 1.9623379896718565e-07  -1.8989822884578464e-07 -5.3104136968752620e-09 1.1054647486304871e-07  -1.2592737395475284e-07 9.7994310774171908e-09 2.7307329922215022e-08  -1.5700324217461049e-07 3.6144672337221445e-09 3.5156239707560774e-08  -1.3033799386549129e-07 -4.8884859608765746e-09 1.1724061818978868e-08  -1.5583556178910896e-07 -9.0611427125617931e-09 2.0030681366234732e-08  -1.6882668294126271e-07 -1.8675182944378442e-08 1.6921245116009532e-08  -1.4342738479501032e-07 -1.0990561565991524e-08 1.4821424799892742e-08  -1.7864543350909428e-07 -6.8789459318082577e-09 1.5617407752615092e-07  -2.3390027822355521e-07 4.9242278508096169e-09 1.8183150318445808e-07  -1.3813414469591576e-07 -3.1205814830888349e-08 5.0137770715102829e-09  -6.5347003326077357e-08 3.0802761632736763e-08 -1.0865443740779742e-08  -1.3590383734800710e-07 -4.5585288003761045e-10 2.7733367440317563e-08  -1.3091757726679352e-07 4.7878297266118891e-09 4.5492127188626864e-08  -1.2680880352494616e-07 2.1590431133852555e-08 4.5340459948114959e-08  -1.4423849529186203e-07 1.1533860735056531e-08 4.7341326252949441e-08  -1.5621607209956562e-07 6.2282408008280926e-10 5.3318493509796775e-08  -1.3401404738491862e-07 -5.8348881223190555e-08 -2.2450642594015069e-08  -2.0301721000567117e-07 7.6725598705612994e-08 5.8057907776220394e-08  -1.4634678181748172e-07 9.4464940360905810e-08 3.0853310754207902e-08  -1.3937609602956054e-07 6.6285852130501461e-08 3.4467710260587908e-08  -2.0716628349619051e-07 7.7980270819757389e-08 5.2551459143618747e-08  -1.6327056389871089e-07 1.9281959613060067e-08 2.9414518528740297e-08  -1.7542339425506250e-07 2.4718544642627692e-08 -9.2210456381578406e-10  -1.4057896768163702e-07 1.8517094479690553e-09 1.5253866484218192e-08  -1.3286791969887110e-07 3.5041286700293999e-08 -3.6655444701979850e-10  -1.6497464802901030e-07 3.8471660703965866e-08 -7.6548058667996272e-10  -1.5813842227368633e-07 2.6636256919713648e-08 1.6196357997997732e-09  -1.5836136828639347e-07 4.7098693757866082e-08 2.3251459528516649e-10  -1.1145979195691268e-07 1.3751411953082876e-08 -2.7447855656507889e-09  -1.4441472706657647e-07 -2.8019146966090880e-08 1.8856385232584486e-09  -1.7834400672528461e-07 3.1841049753281778e-08 7.5187775797534356e-08  -1.6932275657077953e-07 -5.5015647926465359e-08 1.9241900644113128e-07  -1.6345823659865887e-07 2.4602165002008663e-08 1.8975113259573822e-07  -6.5529161690555713e-08 -1.8704672019623956e-08 1.6127835446367262e-07  -1.3691291230688258e-07 -2.9356168889837425e-08 1.6545207448895008e-07  -1.9378127635155994e-07 1.9713232198280457e-08 1.0250640210855839e-08  -1.8519469751943234e-07 2.4170574787041929e-09 7.1527576096861684e-09  -2.7991838604379288e-07 -4.5187083701322877e-09 6.4759545130623819e-08  -1.3456780008197485e-07 6.2619021982029918e-08 6.8259650731438564e-10  -1.6011951383397012e-08 -3.7552426764532848e-09 9.8671483721800450e-10  1.9907961046372618e-08 3.0380445171444131e-09 -1.4896698940732433e-09  -9.8811212262395288e-09 1.4194551175675467e-09 1.0653813002538000e-09  5.8408529268780357e-09 -2.7979682493974335e-09 4.4383650674573803e-11  4.1629022199248421e-09 -1.1436550371890266e-09 -3.1508680687065291e-10  3.2604931673823258e-09 -7.5030299844699506e-11 1.6452331334809586e-10  4.6735698750089757e-09 -9.9613104660819375e-10 -7.9486538254500651e-10  8.4848053748213174e-09 -7.0457154106229669e-10 -3.2236615709993105e-09  -6.6667585950721571e-10 1.2962030226758496e-10 1.9581442637018330e-09  2.9338054972528476e-09 -7.8202998286065624e-10 1.9961234802496714e-10  -1.5014934114797276e-07 -3.7474379417235083e-08 2.0427523539677605e-08  -1.1484513090494416e-07 -2.0177834178370223e-08 -3.1021309580277881e-09  -1.0520267583657932e-07 -3.4307559678924052e-08 1.2831536598294470e-09  -1.1941097390662856e-07 -1.6716149956915971e-08 1.0975998645490503e-08  -8.1090763353962636e-08 1.8400819479061628e-08 2.6160366798480421e-09  -1.1058849455138080e-07 -4.6434184061478007e-09 -5.4525434294186397e-09  -9.2710152553342176e-08 -1.7199887397007782e-08 2.9988161724689897e-09  -7.9849512270746518e-08 3.6100837049779865e-09 -1.2173525826769426e-10  4.2236329027133020e-09 -1.1806406593141908e-09 3.7536899150818746e-09  -9.3909262882237498e-08 -2.7726694465442039e-08 6.1551188813335096e-10  1.3663526835201608e-08 7.2098601102190892e-09 3.6745690058568405e-09  6.6368270082610135e-09 1.3179854783629356e-09 3.1602050569534600e-09  1.4936865320986210e-09 -4.0476093261708770e-10 -3.5461460840845568e-09  2.4505554056196455e-08 -4.8431029686026133e-09 3.0855271573533049e-09  2.1260571938106859e-08 -2.6442772617566621e-09 2.5004427247212705e-09  2.3858906377815978e-09 4.6190585188158172e-10 1.9911582250383876e-11  8.5269951773616326e-09 3.4640579024305584e-09 2.6994470752404880e-09  -4.1512416156732440e-09 1.5997444304418865e-09 -9.7208486142586515e-10  3.6378757217975332e-09 2.8072143785784392e-09 -4.9426013620614709e-10  1.0991615668984377e-08 -6.7671414513099154e-12 -7.2528677961052068e-10  -1.5751952347581831e-07 3.8413641799679495e-08 6.1035431243100354e-08  -1.4561050767414410e-07 1.6731209908294284e-08 3.0322715467075022e-08  -1.3362479802174790e-07 2.3595935259925471e-08 4.5161397581341225e-08  -1.4449113772452344e-07 2.3694449343928025e-08 3.2168796884279801e-08  -1.7923808856020521e-07 3.2239497244074580e-08 4.9855877673190728e-08  -1.7755021941680048e-07 2.6136627968801297e-08 3.6995124928335333e-08  -1.8632131583378580e-07 2.8756809782973086e-08 4.4324130783055777e-08  -1.6276804552937849e-07 1.3955556274687218e-08 1.2262244860813316e-08  -1.3522715662855325e-07 7.9508975333744249e-09 2.1145556376382952e-08  -1.2100462848200189e-07 1.2699509136975816e-08 2.9629509311181704e-08  2.1887521785903685e-08 -1.7785774255871440e-09 7.4925640239512260e-09  -3.5987949957808602e-08 5.0311297454042181e-09 -8.0597816161511454e-09  -5.9693843629829590e-08 1.1928823245637389e-08 -2.0770716629406185e-08  -4.5945208252349669e-08 1.0642241858808673e-09 -1.3428472724556663e-08  1.0017592118695367e-08 2.2260702879228423e-10 1.8645825602249328e-09  2.0218040998307909e-08 2.0071168565154008e-09 4.7441864415216155e-09  -2.6721976697535022e-08 3.8097698520343805e-09 -5.5153924793532546e-09  -1.1064465470420235e-07 1.2082099525576159e-08 1.1157417150322377e-08  -1.0952361418983133e-07 -1.1108499812719774e-09 1.1084478409976314e-09  -1.3366859084285130e-07 1.5822509606624894e-10 9.3698003915405841e-09  6.2460387245625129e-09 3.4531568175937721e-09 1.1286396829804076e-09  4.6231360371024425e-09 2.4251901347276089e-10 9.4364847572040356e-11  5.1552344416357440e-09 5.1252968407260783e-10 1.2137851936730280e-11  5.5524127880980116e-09 1.9742916618557855e-10 -1.3581942218440428e-11  6.3103922421568530e-09 2.1133785278246869e-09 7.4756669427357887e-10  7.0899619346987812e-09 4.2558497175105072e-09 1.9520369639722176e-09  5.1297006001547481e-09 -4.5913958356262737e-10 -2.4094206274667506e-10  4.2782018121460613e-09 1.7476318462854814e-09 7.1542779651939707e-10  4.1831384458139595e-09 -5.3328847425449806e-11 -2.7184975076645565e-10  3.8303222534276466e-09 -4.1393321396229948e-10 1.6865177054068517e-10  -3.8954743911649710e-08 -1.6449334401457944e-09 1.6746299755955960e-08  -7.6975251224486439e-08 -1.5984904856221413e-09 1.3470221821852031e-08  -7.3481352356323945e-08 8.3128162058169697e-09 5.9525079124300421e-09  -6.1991547846892672e-08 -7.4132714059768932e-09 2.1940414670322372e-08  -7.4230832634992275e-08 1.4916507097724167e-09 7.4443158199001250e-10  -4.0937328651241794e-08 -7.3832769661023813e-09 2.1055620197130016e-08  -8.3620765130491354e-08 -2.4153060774010927e-09 3.1496983453220475e-08  -5.1442779803153330e-08 -1.5081372186362750e-08 2.4481555823862316e-08  -6.3743573519881841e-08 -1.3525596667538538e-08 2.3207790087234551e-08  -7.2106886010335862e-08 -1.1525942866338132e-08 1.9537245424159610e-08  -8.8366088930869105e-08 -7.7658744757530065e-08 -3.2830950404182968e-08  -7.6483733945685349e-08 -6.5959850537036995e-08 -1.0946808957548359e-08  -8.6886769010320790e-08 -5.4414192139986457e-08 -1.6271284157599223e-08  -9.2639327269452438e-08 -8.4571892289695938e-08 -2.5682718641836786e-08  -1.0297160896888741e-07 -7.7205359697743841e-08 -6.9672185410599004e-09  -8.5411034420159974e-08 -6.3186049760103226e-08 -3.1554507877047259e-09  -9.3441546411584881e-08 -5.3952004838816622e-08 -1.0383041862682396e-08  -8.7801981401172239e-08 -3.8589982590037729e-08 -8.6454976210617493e-09  -8.2460241336574430e-08 -4.5616987197985464e-08 -6.6869077988053048e-09  -7.8434330699241770e-08 -5.0811185286069920e-08 -2.9983038578366833e-09  -7.9252274725633355e-08 -7.33455414269