<?xml version="1.0"?>
<VTKFile type="UnstructuredGrid"  version="0.1"  >
<UnstructuredGrid>
<Piece  NumberOfPoints="8881" NumberOfCells="41412">
<Points>
<DataArray  type="Float64"  NumberOfComponents="3"  format="ascii">18.022465 27.366222 22.675714  17.60177498545 27.07324038875 23.5215041954  17.0471375 27.507714 22.861081  17.977237 27.534967 23.200999  17.932009 27.703712 23.726284  17.55654698545 27.24198538875 24.0467891954  17.0019095 27.676459 23.386366  16.07181 27.649206 23.046448  16.62644748545 27.21473238875 23.7068711954  17.1810849709 26.7802587775 24.3672943908  18.041943 29.60553 22.916805  17.054239 30.5160815 23.385623  17.223829 30.228608 22.904427  17.0249015 29.877632 23.169233  18.0712805 30.2439795 23.133195  17.1944915 29.5901585 22.688037  16.34704 29.574787 22.459269  16.17745 29.8622605 22.940465  18.100618 30.882429 23.349585  16.00786 30.149734 23.421661  17.936852 28.430265 22.952625  17.141946 29.002526 22.705947  17.4039145 28.7747255 22.3517895  17.238866 28.3765085 22.666106  16.54088 28.322752 22.379587  16.44396 28.9487695 22.419428  16.7059285 28.720969 22.0652705  16.870977 29.119186 21.750954  16.6090085 29.3469865 22.1051115  15.881878 26.983185 24.05356  15.9344285 27.5724945 23.997048  15.976844 27.3161955 23.550004  16.0293945 27.905505 23.493492  15.986979 28.161804 23.940536  18.016638 29.771652 24.792686  17.5832585 29.8499585 25.46094  17.7957785 30.1621885 25.037934  17.927563 29.999505 25.6653785  17.574919 30.552725 25.283182  17.362399 30.240495 25.706188  17.149879 29.928265 26.129194  17.0166715 28.653553 23.121748  16.9619155 28.2960345 23.4465805  16.3186855 28.5997965 22.835229  16.2639295 28.242278 23.1600615  16.041735 28.5193225 23.6157035  16.096491 28.876841 23.290871  18.379158 28.770519 22.035549  17.665758 29.2076985 21.426029  17.6250675 28.9448525 21.8932515  17.606513 28.4680525 21.659498  16.833868 28.165586 21.283447  16.893113 28.905232 21.049978  16.8524225 28.642386 21.5172005  16.9116675 29.382032 21.2837315  16.952358 29.644878 20.816509  17.38536 28.2979255 22.118036  17.2816725 27.844487 22.5276505  17.4281665 27.765904 21.9795805  17.9796585 27.8982435 22.8141695  16.687374 28.244169 21.831517  17.933626 28.975027 23.7943  16.970743 29.5623805 23.6079805  17.9594515 29.5319355 23.847886  17.9877845 29.2902785 23.3555525  18.01361 29.847187 23.4091385  17.985277 30.088844 23.901472  16.9965685 30.119289 23.6615665  18.2105505 29.1880245 22.476177  17.9893975 29.0178975 22.934715  18.158005 28.600392 22.494087  17.45646 29.362358 22.3338795  18.217447 26.480633 23.445488  17.69926598545 26.63044588875 23.9063911954  18.074728 27.0921725 23.585886  18.119956 26.9234275 23.060601  18.0429475 30.4856365 23.6255285  17.2334355 30.131569 24.7970275  16.800056 30.2098755 25.4652815  17.012576 30.5221055 25.0422755  16.450233 30.491486 24.801369  17.460019 28.5466355 22.207568  16.959494 27.932758 23.83341  17.780098 30.3207845 24.592327  17.953372 30.437472 24.6713845  18.0009575 29.930248 24.347079  17.9376915 30.596068 24.2257775  17.890106 31.103292 24.550083  17.7325125 30.8280085 24.9166325  17.111809 29.51533 25.2498205  17.002781 29.532488 24.597659  15.988924 29.293324 24.402632  16.3286065 29.875247 25.254162  16.2195785 29.892405 24.6020005  16.097952 29.276166 25.0547935  16.20698 29.259008 25.706955  16.9603025 28.5684155 23.867418  17.9328175 28.3393695 23.760292  17.9344305 28.0669885 23.3394545  17.935239 28.702646 23.3734625  17.1559995 30.2682525 22.6237475  16.308548 30.252881 22.3949795  17.185337 30.906702 22.8401375  16.270056 30.930975 22.33069  17.0529145 30.736694 23.7289335  17.217755 30.290165 24.3514205  17.005329 31.243918 24.053239  17.1701695 30.797389 24.675726  16.2853925 30.938015 24.178882  16.120552 31.384544 23.556395  17.069217 29.2411855 23.103838  16.0521755 29.5132875 23.356266  16.2217655 29.225814 22.87507  17.424407 31.4262415 24.567848  16.7044705 31.1203385 24.693491  16.53963 31.5668675 24.071004  16.958708 31.749191 24.585613  16.9871005 29.691084 24.152052  16.0841505 28.2630235 23.1686595  16.306345 27.985979 22.7130175  17.995362 30.9928605 23.949834  17.110585 31.1334865 23.45299  16.064206 30.767139 23.489028  16.138958 30.5403545 22.8761755  16.195304 31.1577595 22.9435425  17.0150585 28.925934 23.5425855  17.2668135 31.150958 24.9343975  17.2364445 28.013232 23.0529355  18.2008115 28.0683705 22.3556315  16.961275 29.1341755 24.098466  15.9879515 28.727564 24.171584  16.0427075 29.0850825 23.8467515  16.2290465 30.32061 24.111515  15.998392 29.721529 23.9121465  17.0469635 28.872681 24.6160175  17.975132 29.3733395 24.293493  18.0608205 29.111845 24.8110445  30.15535 33.501259 15.323171  30.2922547621 34.23602422315 14.2252479759  29.65983 33.603924 14.3741325  29.686102 33.844658 14.9687265  30.3185267621 34.47675822315 14.8198419759  30.129078 33.260525 14.728577  30.102806 33.019791 14.133983  29.216854 34.188057 14.614282  29.8492787621 34.82015722315001 14.4653974759  30.4817035242 35.4522574463 14.3165129518  24.255966 39.668625 13.735502  25.18751793625 39.6160780295 13.13257629165  24.86138543625 39.2829045295 12.85905129165  24.94997293625 39.2943065295 13.46269529165  24.493511 39.9903965 13.405383  24.1673785 39.657223 13.131858  24.078791 39.645821 12.528214  24.4049235 39.9789945 12.801739  24.731056 40.312168 13.075264  25.6439798725 38.919988059 13.1898885833  33.444714 34.765728 13.213758  33.21297958345 34.87088077145 14.0440367997  33.09935508345 34.53243877145 13.5494237997  33.7276646815 34.422744786 13.82932563225  33.5583385 35.10417 13.708371  33.671963 35.442612 14.202984  32.7539961669 34.2991495429 13.8850895994  24.907516 40.008682 15.933454  25.5233524665 40.0204676803 15.2142763327  25.77587750785 40.2415947109 15.9413240995  25.2595704665 39.5894106803 15.6168523327  25.171298 40.439739 15.530878  25.43508 40.870796 15.128302  26.12793197435 39.8223233912 15.6247224322  26.03965950785 40.6726517109 15.5387480995  25.611624933 39.1701393606 15.3002506654  26.6442390157 40.4745074218 15.949194199  23.569603 39.150928 15.77041  24.4223558346 38.3297101188 15.66435335025  24.1538952402 38.6745940236 15.30448862765  23.81533337095 38.2332027035 15.84124506385  23.8380635944 38.8060440952 16.1302747226  24.0610637419 37.315477407 15.9120801277  24.39962561115 37.7568687271 15.3753236915  24.08379396535 37.8883187987 16.20110978645  24.1065241888 38.4611601904 16.4901394452  24.7381874804 38.1982600472 14.8385672553  30.065334 38.12571 12.412587  29.70895974065 38.8650403527 13.21565814645  30.097124 39.252369 12.748815  29.7762755 38.794308 12.3041955  29.38811124065 38.4069793527 12.77103864645  30.3861825 38.583771 12.8572065  30.707031 39.041832 13.301826  29.487217 39.462906 12.195804  29.09905274065 39.07557735269999 12.66264714645  28.7108884813 38.6882487054 13.1294902929  29.0280205909 38.9074799743 15.3062249764  29.26760087465 37.7861439898 14.89757440855  30.01428121835 38.18351068645 14.95596213055  28.97075326165 38.22154566695 15.5330628016  29.3248682039 38.47207829715001 14.67073658335  29.6601662761 37.93297805624999 15.8182883488  29.71743360535 38.6189123636 15.5914505236  30.4068466198 38.3303447529 15.8766760708  29.6217158169 38.03667662 14.0352481903  28.9134859324 37.5356113596 15.7599006268  25.760977 34.759426 14.697823  25.9301890399 35.7110544372 14.4581870033  25.1966668033 35.89356071765 14.61548413675  25.8571035399 35.2884659372 14.1557085033  25.8340625 35.18201449999999 15.0003015  25.1235813033 35.47097221765 14.31300563675  25.907148 35.604603 15.30278  24.4861856066 36.1825184353 13.9281882735  25.2197078432 36.00001215485 13.77089114005  25.9532300798 35.8175058744 13.6135940066  25.170437 40.831474 13.929261  26.129056539 41.31165844265 13.63190363605  25.856279039 40.88255794265 13.31048013605  25.943141539 40.66825594265 13.90032913605  25.356352 41.4748765 13.6608355  25.0835745 41.045776 13.339412  24.996712 41.260078 12.749563  26.715846078 40.5050378853 13.8713972721  26.376704382 38.2919162282 15.7934516154  26.2531886292 39.21126338475 15.87808716505  26.09798278755 39.21822509165 16.49464659705  26.6357283537 38.77215181855 16.12468764005  25.83895881585 38.7379895013 16.1634105724  25.9941646575 38.7310277944 15.5468511404  25.3012132497 39.1840627744 16.5333695294  25.45641909135 39.1771010675 15.9168100974  26.8947523254 39.2523874089 16.4559236647  30.8802452164 37.33947724165 15.48846175485  30.1950962476 37.50589324214999 14.8412359886  29.86937663935 37.327981576 15.47850738585  29.3319066589 36.3256183991 15.0803387009  30.34277523595 36.33711406475 15.0902930699  29.65762626715 36.50353006525 14.44306730365  29.9833458754 36.6814417314 13.8057959064  30.6684948442 36.5150257309 14.45302167265  31.353643813 36.3486097304 15.1002474389  26.68004254685 40.48977265355 14.91029573555  26.075463039 40.68791694265 14.49984963605  26.29682805605 41.42617362435 15.09027051805  26.9014075639 41.22802933525 15.50071661755  27.1585761121 41.9815512487 15.0522390361  26.93721109505 41.243294567 14.4618181541  24.35366447395 38.73207089225 12.9545406601  24.44225197395 38.74347289225 13.5581846601  25.1362589102 38.36915442175 13.28537795175  24.6285379479 37.8183207845 13.3808673202  26.1637355055 39.83758862294999 14.58582396875  25.40720843625 39.8757310295 13.55957479165  25.3910309665 40.0008066803 14.6147558327  25.62780240275 39.0450637098 14.24506962435  26.17991297525 39.71251297214999 13.5306429277  26.308813539 41.19697494265 14.19014863605  25.536109 41.360193 14.2190805  25.901781 41.888912 14.5089  27.743055 35.544075 15.638297  28.4392397085 36.70433117755 15.33691149305  28.3282704662 36.5398431798 15.6990988134  28.53748082945 35.93484669955 15.35931785045  27.64481387905 36.313559478 15.6158906426  27.5465727581 37.083043956 15.5934842852  28.23002934525 37.3093276578 15.676692456  29.12269629565 36.93061487935 15.42011966385  24.472013 39.306747 15.831751  24.88661312485 39.2454048872 16.1825602647  24.
[...]
<PointData  Vectors="u"> 
<DataArray  type="Float64"  Name="u"  NumberOfComponents="3" format="ascii">-1.1431088152859127e+01 5.2201735599208163e+01 4.3090803758970480e+01  2.0089557143215554e+01 5.0001665026469162e+01 7.9674652805075738e+01  2.8340890144013525e+01 7.0526045515986098e+01 5.9708629115529170e+01  -9.5071790164857042e+00 5.3722169989800726e+01 7.0821004009454299e+01  1.0619779367820200e+01 4.7646674727344980e+01 8.2597649049327231e+01  2.7831847336030908e+01 4.9348571447284165e+01 8.4746263185441876e+01  1.6975249661298221e+01 6.5720519161699855e+01 6.6208604325879435e+01  3.7968434468731701e+01 1.1860682651798552e+02 7.6147741888297688e+01  3.9530733873214054e+01 8.2077294241841145e+01 8.2208561242148903e+01  4.3491586883586727e+01 5.8166896003982799e+01 8.9646960383265196e+01  -5.4396118938111320e+00 5.2506007324964081e+01 3.7746486389619285e+01  2.5526014540839292e+00 4.3949804387623260e+01 2.3760166291199461e+01  -2.8540070446784500e+00 4.7346103420363264e+01 2.8289608338617327e+01  -1.7827932805051920e+00 4.5422877170438277e+01 3.0651924377518696e+01  -1.0116953827591317e+00 4.6826857233404468e+01 3.2146761915252725e+01  -5.4555578805284295e+00 5.2896390447623389e+01 3.1428370452869679e+01  -1.5004248214355730e+01 5.3026469588459108e+01 2.1663597016411323e+01  -9.2578112362545859e+00 4.5098139150854763e+01 2.0529445582655015e+01  1.4902544233757617e+00 5.5471308716685286e+01 3.3026022898849469e+01  4.2569992880621847e-02 3.7560202166656040e+01 1.4674890087580641e+01  -7.1356328640809812e+00 6.0645137402216001e+01 5.2199010531284948e+01  -5.5409436264503729e+00 6.0904810131661257e+01 3.7011472508712835e+01  -7.1532844018368402e-01 6.4527549830179098e+01 3.6578195661456014e+01  2.4873369585756002e+00 6.9044647374558409e+01 4.5926329321458674e+01  8.8287526854884071e+00 1.0110383381971614e+02 5.3655652032722735e+01  -2.6844263503270540e+01 6.8797784701862440e+01 2.4355128657961878e+01  -1.7084582463063253e+01 8.9728744616218250e+01 4.3294073887724821e+01  -1.2708620698730288e+01 7.3383550179968992e+01 4.0374211101501494e+01  -2.2692111479202637e+01 6.2040794564190001e+01 2.5826912271619349e+01  5.3029712607800313e+01 1.2114075327815779e+02 1.1203215711908767e+02  -2.5954809894036996e+00 9.4571902533072233e+01 7.9845426691809763e+01  5.7534653862448920e+01 1.2716382973611030e+02 1.0266294519155150e+02  -2.1166576880508434e-01 9.7440209069256625e+01 6.8418912831714778e+01  -8.9013300549622543e-01 6.7962873456634711e+01 6.1470083934898085e+01  5.6383677346456871e+00 5.4418731180295872e+00 5.2250550034254672e+01  1.1347580466551713e+01 -2.5321980045264919e+01 5.2647788492196739e+01  -1.2891978806284001e+00 -4.6851509570882497e+00 3.8583780361774693e+01  6.5964582183469940e+00 -5.6665423944449451e+01 4.1183455102928924e+01  2.7163989788316423e+00 -1.0416146667218907e+01 1.9232810268883654e+01  4.9622185589975026e-01 -3.3809735568323013e+01 4.1379324585403786e+01  2.7505845922594084e+01 -2.5980358416489359e+01 9.6934321294431513e+01  5.6412265737214362e-01 6.1100488532394500e+01 4.6329352711493932e+01  8.2190728957573551e+00 6.2288952342329665e+01 5.6648432495949486e+01  -1.6175113652881741e+01 8.0673729817858273e+01 3.5215778843051410e+01  -4.7213434790468414e+00 8.5915220861904487e+01 4.9596100381681538e+01  -1.8110189053273040e+00 6.3239599391536764e+01 4.8866576902129509e+01  -8.3313142065591990e+00 5.9711427154340434e+01 3.4070153192661884e+01  -3.3250601475974899e+00 6.0727319212445103e+01 1.3324385653024544e+01  1.1479522305622925e+01 6.1300321619312939e+01 2.7585663616565490e+01  6.6707410098469628e+00 6.4665316995880048e+01 3.2441743837907225e+01  1.4825194780831442e+01 6.8096093046138478e+01 2.9606819579488818e+01  4.0388527854928618e+01 8.6036928240335897e+01 4.6927803255631510e+01  1.5707300294985908e+01 7.8139116338093814e+01 5.7386359643628893e+01  3.3410956202867097e+00 8.6144545802182165e+01 4.7389668360248834e+01  -7.3863354751981509e+00 7.1766379162930733e+01 4.8543506148957086e+01  1.5743517444517416e+01 6.7622283696292570e+01 5.6274379619518669e+01  1.0650176299766901e+01 6.9954812259285134e+01 3.7327579026393835e+01  1.9183276345945497e+01 6.8668944585415204e+01 4.8754724016688790e+01  2.4482947444329714e+01 6.6883758486733925e+01 3.6925448349450896e+01  -1.0892277040801792e+01 6.2208570451940091e+01 5.1619456487677823e+01  2.7536356178450610e+01 1.0111436894088456e+02 4.9135676087009251e+01  2.9682056811874089e+00 3.9861609891632511e+01 5.6550031826470565e+01  1.1853467734091492e+00 4.1808976691828128e+01 3.5831039958407672e+01  1.4620583066064483e+00 3.5675839458542598e+01 4.5134941726810787e+01  1.4029773737325224e-01 4.6862051740034964e+01 4.5522327693960179e+01  -4.5170211374880087e-01 4.4912203981896369e+01 3.6902743386546952e+01  -1.6513323611824274e-01 3.5551348097894099e+01 3.1686628190967017e+01  2.8267155565528488e+00 3.9798983336194269e+01 2.7781313605854660e+01  -1.0814648019278536e+01 5.9400400994174184e+01 3.1471455428617094e+01  -4.9364875346818939e+00 5.6537116175431393e+01 4.7408647230233797e+01  -1.0631196350072248e+01 6.3063214161100596e+01 3.2484542489333577e+01  -4.8988319462652905e+00 5.8639300911454832e+01 3.3258718030102372e+01  2.1377526391478618e+01 2.1239851957008266e+01 9.2880773226466928e+01  4.1787558760559691e+01 4.2988636083286330e+01 8.6363316828594790e+01  6.9630182248615240e+00 3.7435342808008564e+01 1.0352485459843619e+02  -1.5293000926165215e+01 3.5289493876112331e+01 7.4075077547091468e+01  -1.1770909267059873e+00 4.6512263260887387e+01 2.4352093619566809e+01  6.3331653657297178e+00 9.3239528989995488e+00 2.6924610634895814e+01  2.0899659006089930e+01 -2.0166742560790375e+01 3.3554029827640598e+01  1.4332398687049274e+01 2.4887204518177350e+00 1.2952549616672275e+01  1.1498265372976382e+01 1.2851086020308331e+01 1.1026846870208947e+01  3.5234095002510015e+00 6.7699772236903101e+01 3.6280235794920507e+01  1.5754111290167588e+01 5.9355394315507255e+01 6.8406326758999484e+01  -4.3491669910524005e+00 1.5810617326210673e+01 1.7960464790399460e+01  -1.0610956102947611e+01 1.5993810815599232e+01 8.8509309033537402e+00  8.5917019941344253e-01 2.0325522338909000e+01 3.4292719355399861e+01  -1.9179315958401850e+00 3.8195039598235105e+01 1.5372737569263268e+01  1.2281341294804097e+01 6.0476479830316883e+01 -3.4879720405174033e+00  -2.5246051304177342e+00 1.3790971517396278e+01 -5.9693062777422012e+00  1.6942746639058100e+01 6.6254001293113463e-01 5.5741985830076857e+01  9.8827755224550167e+00 2.0705418815911475e+01 4.5509430045036488e+01  5.5326242950464373e+00 2.5628214974812355e+01 3.7995662121857464e+01  1.3516117902286748e+01 -3.8026311681458802e+00 3.5000038021881196e+01  1.2181681295206182e+01 1.7482382184882059e+01 3.2298078204869050e+01  1.1697589474557166e+01 1.3809102987166925e+01 5.1146263152441428e+01  1.6943986419456348e+01 -3.2263902297216651e+00 6.3819252940151628e+01  7.4464039165882960e+00 5.1022475751411356e+01 5.7280204917249335e+01  6.9622311343359655e+00 4.7170292558834035e+01 7.1097168168401865e+01  -2.5538638752545806e+00 5.6969913432656035e+01 6.7562140868394380e+01  1.0859629111398850e+00 5.2022954313722920e+01 5.7140524504681714e+01  -4.5793142072409374e+00 4.8263837847955209e+01 2.6353273340427481e+01  -1.2192759847648770e+01 4.5033234467667697e+01 1.5953244849605051e+01  -5.6718044965354797e-01 4.7337723533519473e+01 2.6123099709226192e+01  -8.2624727053612439e+00 4.2628601915844186e+01 1.6446974809877617e+01  6.3400638495409218e+00 4.3675576441707165e+01 2.0802455886625960e+01  4.7146531966878591e+00 2.6231646283626418e+01 2.3017472267397022e+01  1.5879503075648639e+01 4.9725618889085261e+01 8.5611673600439229e+00  4.5820631288095033e+00 2.5043797810224845e+01 -1.6859884041096980e+00  1.1787196712286466e+01 3.0035726278882994e+01 4.7662543807891735e+00  7.4212787790694339e+00 4.3457415242974861e+01 7.2052237792583043e+00  -1.7409884290029827e+00 5.3181198868344360e+01 3.8040346471158486e+01  -6.5328370539667118e+00 4.2590547715590155e+01 2.4373391573819372e+01  -1.3562414713915386e+01 5.4137716908982213e+01 2.5917609590896184e+01  2.7065329395575024e+01 8.0223776065972984e+01 -6.1190426431176110e+00  1.6051651220789083e+01 3.4640823733640865e+01 -7.5149427300697367e+00  2.1039035044136799e+01 5.4916602437055658e+01 6.8860794518119572e+00  2.9498140978156915e+01 7.5824773210158241e+01 8.7849692163762576e+00  6.2076085576707838e+00 3.0999534751663109e+01 3.7114419467219221e+01  -1.9357458514385815e+01 8.7553750997821382e+01 4.0702259908080478e+01  2.1049838216241653e+01 1.1075873409159379e+02 7.2891592480105530e+01  8.0006844739245810e+00 6.3037158965868635e+01 1.9258664704813391e+01  7.5236278181191443e+00 4.6587561168210513e+01 2.3905992563283821e+01  4.2570580631828498e+00 3.9355835099762487e+01 1.3506563825386307e+01  -3.3977829637042394e+00 4.0161453560912356e+01 1.6040674438232486e+01  -5.7188992320360510e-01 4.4544974630338871e+01 1.5883522035858345e+01  2.3115207409208112e+00 5.0435615776012895e+01 4.7299837215484423e+01  -2.0591984594253843e+00 2.2733713294600669e+01 -2.7938341480920833e+01  1.1112529864261505e+01 6.4553523378211978e+01 5.5923643664621949e+01  -1.3661140836598056e+01 6.4328615101641006e+01 2.2642692851009894e+01  6.2028410469136377e+00 3.6586235688446060e+01 4.8650728891141327e+01  -8.8134913000240589e-01 4.4200219592674657e+01 4.9571670950841053e+01  -3.4592985025720182e+00 4.3943198907707668e+01 3.7888385828896816e+01  1.1340346753313300e+01 3.1252061943520566e+01 1.8392032387010474e+01  4.1059204974327130e+00 2.7242540175989362e+01 2.2310449887382852e+01  1.2857669171118856e+01 2.9763846858765675e+01 6.0175289081135190e+01  4.4413423350735979e+00 2.4653108342209890e+01 5.2684484279992390e+01  1.1849589372350799e+01 1.4419083813981324e+01 7.0801721541967538e+01  1.5067391176285508e+02 -1.3231393676233159e+02 4.8351221797380212e+01  1.5982985859251764e+02 -1.1586797050187718e+02 4.6785975660514353e+01  1.6095472504328353e+02 -1.2688394039825991e+02 7.2383800918363036e+01  1.4999447497959147e+02 -1.2871214399053753e+02 5.0944989592594737e+01  1.5157313845863598e+02 -1.1981622821829193e+02 4.2500541999957825e+01  1.5080870494031512e+02 -1.2399953387942648e+02 5.4395111923629429e+01  1.6583917436981858e+02 -1.2446942493748104e+02 6.4805395590317119e+01  1.6751953570084024e+02 -1.1516044744529947e+02 6.8646913824087960e+01  1.5592919734463217e+02 -1.1020336294163816e+02 4.4767898334008606e+01  1.4432829329330173e+02 -1.1511595920933740e+02 3.5416269200660693e+01  3.5140288740263074e+01 3.3036760039670341e+01 1.7538744142882809e+01  4.9155586398141395e+01 1.0290955446360240e+01 2.2462808236737022e+01  5.5131657306887412e+01 1.4628537452583823e+01 2.8980668715686768e+01  5.0149178372740529e+01 1.5143942887565007e+01 1.8637531670385272e+01  2.8913441165068182e+01 3.1330497972164970e+01 2.5910903063156027e+01  3.6152293392676910e+01 3.4258115927655638e+01 3.2702806642250138e+01  4.7378620267765378e+01 2.6516907069353312e+01 5.4650070734302282e+01  3.5110601684251407e+01 2.8812233595760894e+01 4.4781994360514226e+01  2.7384732733632841e+01 2.3197845243544847e+01 3.3117445888791615e+01  6.5486346523145059e+01 1.5314020620633311e+00 1.5840183511034629e+01  1.8376368988647098e+02 -6.3596485324038916e+01 -2.3872927600611508e+01  1.6877342344288942e+02 -1.0631323423463654e+02 -9.7650288053573231e+00  1.6801464608478594e+02 -9.4582533429779545e+01 -6.2374033927465762e+00  1.5139141994262786e+02 -7.3702794138001536e+01 -1.0322470489841042e+01  2.0584010990242311e+02 -7.1247722583251729e+01 -4.9852738990143308e+01  1.8882895518534528e+02 -1.3471972834315761e+02 -3.3482205165660041e+01  1.5852193417618301e+02 -1.0737014390037146e+02 7.8177832653132491e+00  2.7576746147962481e+01 6.2277895031713877e+00 -3.6635347568320270e+01  3.1829645438662585e+01 1.5598204494548131e+00 -9.7764870464670572e+00  3.8210714436214275e+01 -1.3572025178439993e+01 -2.3024949977082091e+01  4.0802429344528043e+01 5.2937594755728075e+00 -1.4188243823591478e+01  5.4561956510700087e+00 7.6712741485947546e+00 -2.7161637594474588e+01  7.9948411509815882e+00 1.4763863809645239e+00 -1.7891326132267441e+01  4.9322448135323718e+01 -1.6373658765470310e+01 -1.1526479218654158e+01  3.1481924124559441e+01 -1.6609847136972810e+01 -1.9622121239740281e+01  5.5612319916915119e+01 -1.4361664615292435e+00 -5.7302265752123240e+00  4.4791066876513426e+01 -2.8813347130612069e+01 -1.5719206839106384e+01  4.3368630308791566e+01 1.2291491509306667e+01 -1.9385081795369818e+01  5.9169187313867461e+01 1.6299930435830031e+01 -6.6304853488913418e+00  5.2616074975168004e+01 2.1063190616611834e+01 -6.9999283351582031e+00  5.3506004424791023e+01 2.1618585992460851e+01 -8.0357760454961742e+00  4.9933980549359909e+01 1.0706068197905024e+01 -1.2798151494534848e+01  6.4362739770685238e+01 3.2643953299991800e+01 -5.7471177278336194e+00  6.5193634100606118e+01 2.3478087988122798e+01 -3.2843221580611228e+00  5.9778701210043977e+01 2.2172885246221110e+01 -6.8632884913550738e+00  5.5616594507931154e+01 1.2066132545427159e+01 -1.0641056251252824e+01  6.3522367877216624e+01 1.6172871508932406e+01 7.8703220516359451e-01  5.8304737443340052e+01 -8.3495662543897566e+01 3.6581457480109016e+01  6.3326517740767365e+01 -6.8714470631485398e+01 2.2669054165104914e+01  5.5970951114770017e+01 -6.2001330415825485e+01 2.8201592528466474e+01  5.0689789572201228e+01 -6.7715961932597750e+01 3.4545863658436204e+01  6.6108761210383236e+01 -6.8098990688170247e+01 2.1814903843655394e+01  5.5489531009790021e+01 -7.9668760380433667e+01 3.8092574857355935e+01  5.7170956544206192e+01 -7.5971343626764792e+01 2.9812154297938136e+01  3.7771920345969079e+01 -5.6147954434272748e+01 2.7513515836899337e+01  5.4727736453063621e+01 -5.6004822154725865e+01 1.8051538099437160e+01  6.9109007473711074e+01 -5.4087557804584314e+01 1.4361526765031174e+01  7.5997912217166913e+01 -7.1593364431158406e+01 6.6481983307785466e+00  9.7729732588850837e+01 -8.0740463041060750e+01 1.7884292921307367e+01  8.6851882779981977e+01 -9.4166556710263762e+01 1.8377061462705150e+01  9.1617466986152763e+01 -7.6215030611636635e+01 1.0773887695182422e+01  8.1567912300409716e+01 -7.5612662358618792e+01 1.4054269475406359e+01  9.7838615825573768e+01 -9.5757125388571467e+01 1.5047544475317842e+01  8.1144810002955936e+01 -9.0427820530601878e+01 1.0420839284109224e+01  8.6510846286905888e+01 -1.1090772722975723e+02 1.4890185629143298e+01  8.5625471031749200e+01 -8.0857148358590081e+01 2.1658313705682311e+01  1.0832293035002564e+02 -8.0734031223495734e+01 1.4955319888676140e+01  1.3085741022991169e+02 7.0722614190189375e+01 -2.9662383041809456e+01  1.2781816065781935e+02 3.4071131370750294e+01 -1.1208144649327363e+00  1.0177665915297607e+02 4.3137623972587718e+01 -8.8396067149133017e+00  1.2606570138470552e+02 4.4470121102295543e+01 -8.0772728670769407e+00  1.3856561337796089e+02 6.7997183915209007e+01 -2.9164941390594009e+01  1.0053961513264881e+02 4.7819276860081438e+01 -1.2301245635468661e+01  1.4944126927863115e+02 6.0152927048361242e+01 -1.0672025147129713e+01  7.8065603000797822e+01 3.4852204923440524e+01 -1.0013557987507935e+00  9.7304006191027284e+01 2.9506584383651926e+01 4.0869167833608716e-01  1.1925169356575083e+02 2.3586352389888241e+01 3.1389078003769564e+00  1.2296441124244037e+01 1.2753847390682239e+01 1.1853354809832618e+01  2.3778527997795226e+01 -9.9116972981523954e+00 6.2995271053379103e+00  2.9584557216211856e+01 -2.6541200547909667e+00 1.3593368415952938e+01  2.9738929982397075e+01 -4.5973239638447847e+00 5.3219572383038658e+00  5.1447566781946135e+00 2.3582198008761579e+00 1.6692960999584702e+01  1.0423195636068970e+01 9.8780607973627550e+00 2.4928307177558999e+01  2.3359874683796551e+01 6.0778905530945817e+00 3.8707780466054245e+01  4.0700259328143986e+01 -1.7912200154238100e+01 2.1221377588598584e+00  8.3542811392794263e+01 -1.8203643056168659e+01 -9.7111029059446130e-01  6.3152611377013486e+01 -1.8806412648538011e+01 -7.8814512823820619e+00  6.5177809842266626e+01 -2.1173434184573178e+01 -1.1706499161204894e+01  7.6221598585959001e+01 -2.7589272289704152e+01 -4.7612731967026871e+00  7.0125358768690191e+01 -1.1372585542807263e+01 -7.8402535265523019e+00  6.9757492374895619e+01 -1.0674901431710243e+01 -3.4239127949743300e+00  5.9519195821254826e+01 -7.6353150349886176e+00 -1.6168178513076224e+01  5.6876841050390745e+01 -3.8472012719283435e+00 -1.1316545798724407e+01  6.9659809128224609e+01 -3.5376297868744132e+01 -8.1404972760762444e+00  1.0616491195212102e+02 -1.2443118683547542e+02 2.7370768783852217e+01  1.0050687902751901e+02 -1.0334636567781263e+02 2.5380469845683034e+01  1.0891465246976925e+02 -1.0179979575067617e+02 2.2555270408587596e+01  1.3278024099521835e+02 -9.3467370895892913e+01 2.9698670963140831e+01  1.2710557914680038e+02 -1.1459662523701458e+02 3.1536968597124311e+01  1.2465199969220699e+02 -9.4589643814802415e+01 2.9077941527783167e+01  1.1559328255857383e+02 -9.8931071239673770e+01 3.1194291053421853e+01  1.2154920798222645e+02 -1.1803867165320364e+02 3.2083473191667181e+01  1.2692470926807232e+02 -1.3545218017125700e+02 3.3294767034903231e+01  4.0009333035825442e+01 -2.2601989169538790e+01 -6.8761347250493623e+00  2.7431064347441545e+01 -8.2883524750465511e+00 -2.7903850560937529e+00  1.8498777490157941e+01 -1.9459827485224530e+01 -1.7131809925321260e+01  3.4940200441440588e+01 -2.9661607753841061e+01 -1.5334427862530740e+01  2.5977569339648660e+01 -2.9586528148445751e+01 -1.5367884242501917e+01  3.0564727850651401e+01 -2.4294082168475967e+01 -6.3885602792482148e+00  5.6591682290652294e+01 1.9545273072142965e+01 3.0749560905170132e+01  5.3203222193763928e+01 2.0129380773483419e+01 1.7565626443661809e+01  6.7661621351816905e+01 9.8382018276103942e+00 1.6848125264293252e+01  6.7183593840903981e+01 1.6243848298478856e+01 1.7353162618970973e+01  4.6182194946841953e+01 -9.7877454751209765e+00 -8.6844730716868690e-01  4.1826262845305727e+01 7.7420708819793882e+00 1.4204765524231082e+01  3.2668930574821140e+01 8.2757859777642580e+00 7.3548414924248451e-01  5.8439004691130386e+01 1.5585353525185290e+00 6.0888303542045774e+00  5.2542571658057831e+01 -7.9135962842629235e+00 9.2440036094764046e+00  2.3496343958958906e+01 -1.3287271774819640e+01 -1.8331259157472319e+00  2.4882675043181255e+00 1.4656152410805880e+00 6.1450745392921666e+00  1.4448043271963087e+00 -1.4510515423771043e+01 -8.5761575514714607e+00  1.7143446076676258e+02 -6.6170460600978075e+01 5.0602642257692558e+01  1.2858762005906877e+02 -7.0376317593032070e+01 2.2115371704952537e+01  1.3411049775381409e+02 -7.4130295328334711e+01 2.2282734059963889e+01  1.4854855998943248e+02 -8.3946088591789817e+01 3.5696527266925870e+01  1.4395293710213841e+02 -5.4472262453531727e+01 2.6737677510406851e+01  1.2086751273659519e+02 -4.6340982373692277e+01 1.4591300965781095e+01  1.1461902002616671e+02 -6.4711339996318458e+01 1.4438933542266399e+01  1.2017909946155814e+02 -8.6753617917113061e+01 2.2442355488983818e+01  5.4187872224187949e+01 2.0476350721880259e+01 -1.9460908692594963e+01  5.2516756643292737e+01 6.0835713254690713e+00 -1.9904124368667638e+01  6.6159240739642129e+01 7.5531416302499874e+00 -7.3733118478719391e+00  6.1320364512507545e+01 2.8981013140696463e+00 -1.2226909113749608e+01  7.3970114117873109e+01 1.3118264351509328e+00 -8.2599977066252173e+00  7.3086245748997115e+01 -7.6133323685389453e-01 -6.9548454103759028e+00  6.7245375017765667e+01 -4.8208159957038150e+00 -1.1413994379095437e+01  8.1644090163521469e+01 5.6468634517089233e+00 -4.9814047333138847e+00  9.0353680825755845e+01 9.1722015620859398e+00 -1.9890352592060969e+00  8.5879485679688784e+01 -1.1435949052335575e+02 4.5933544599915329e+01  8.8790649754132673e+01 -8.5881996825730198e+01 2.8342992833534034e+01  1.0339417481543911e+02 -1.0462003929043236e+02 3.4787883309045959e+01  1.1180709801909083e+02 -9.2674969916181254e+01 2.8599444598665212e+01  1.3969620102589548e+02 -7.0414405366183161e+01 2.5088079978042469e+01  1.0520408524938954e+02 -7.9943750553659726e+01 2.4863056942566750e+01  1.1681165