<?xml version="1.0"?>
<VTKFile type="UnstructuredGrid"  version="0.1"  >
<UnstructuredGrid>
<Piece  NumberOfPoints="8805" NumberOfCells="39795">
<Points>
<DataArray  type="Float64"  NumberOfComponents="3"  format="ascii">25.413603 44.040501 14.563457  25.6916446378 44.61835844834999 13.6992909421  25.3117085 44.65537575 14.46987075  25.0406095 44.420607 13.9274145  24.667616 44.800713 13.291372  25.5897501378 45.23323319835 13.6057046921  25.3186511378 44.99846444835 13.0632484421  24.938715 45.03548175 13.83382825  25.209814 45.2702505 14.3762845  25.9696862756 45.1962158967 12.8351248842  25.885916 42.895191 14.109879  26.65789398235 43.57426578739999 13.9084833711  26.7081446316 42.545348196 13.9292684467  26.79679588635 43.3696521088 14.3848401332  27.5303732632 42.195505392 13.7486578934  27.48012261395 43.2244229834 13.7278728178  27.61902451795 43.0198093048 14.2042295799  27.4298719647 44.2533405748 13.7070877422  27.7873926938 42.82976534905 13.53317635955  28.0444121244 43.4640253061 13.3176948257  27.73714204455 43.85868294045 13.51239128395  27.87604394855 43.65406926185 13.98874804605  28.940582 43.211838 11.637761  28.599267477 44.0889212964 11.2880606741  28.453388977 43.5090872964 10.9704071741  28.322260477 43.5953587964 11.5061361741  29.217589 43.7054005 11.4196855  29.3487175 43.619129 10.8839565  29.0717105 43.12556650000001 11.102032  29.202839 43.039295 10.566303  29.494596 44.198963 11.20161  27.703938954 43.9788795928 11.3745113482  26.31542648235 43.8264192874 13.4012088711  26.5117310158 43.63567791305 13.39570544725  25.5434485 43.1473445 13.6026045  25.200981 43.399498 13.09533  26.1692635158 43.88783141305 12.88843094725  27.1375460316 44.3761648261 12.6815318945  27.28370899815 44.31475270045 13.19430981835  24.996712 41.260078 12.749563  25.856279039 40.88255794265 13.31048013605  25.2694895 41.6891785 13.0709865  25.356352 41.4748765 13.6608355  25.542267 42.118279 13.39241  26.129056539 41.31165844265 13.63190363605  26.6334713315 41.3983721182 11.0807984996  25.865297707 41.65482174555 11.4770986282  26.1760577508 42.2818652949 11.84502027415  26.52870560925 41.57854713205001 11.7379613025  26.28082347305 42.10169028105 11.18785747125  25.97006342925 41.47464673170001 10.8199358253  25.9281756146 42.8050084439 11.2949164429  25.6174155708 42.17796489455 10.92699479695  25.306655527 41.5509213452 10.559073151  26.423939887 41.7587221459 12.3951241054  25.901781 41.888912 14.5089  25.722024 42.0035955 13.950655  27.8741755392 43.72145244945 12.34610308695  27.4207424928 44.17752220945 12.02802162135  27.2532711719 43.51644182175 12.3137852992  27.590979078 43.9200950661 12.9996133601  27.3689963122 42.6567188174 11.9460387039  27.5364676331 43.3177992051 11.66027502605  27.7067042183 43.06037206175 12.6318667648  24.488171 43.001335 11.935039  25.1981552974 43.7236864635 11.7740549389  24.4879275 43.53243999999999 12.125458  24.844576 43.2004165 12.5151845  25.5545602974 43.9227679635 12.3542004389  24.8443325 43.7315215 12.7056035  24.487684 44.063545 12.315877  25.1979117974 44.2547914635 11.9644739389  25.9081395948 44.446037927 11.6130708778  26.275095 46.5 10.880713  27.2178880753 45.98777547095 10.56266611765  26.4896805753 45.98777547095 10.58318911765  26.808074 46.5 10.4009995  27.0033025 46.5 10.86019  27.73151 46.5 10.839667  27.5362815 46.5 10.3804765  27.341053 46.5 9.921286  27.0226595753 45.98777547095 10.10347561765  26.7042661506 45.4755509419 10.2856652353  27.61885645515 45.28655177585 10.26444206725  27.93724987985 45.7987763049 10.0822524496  28.13247837985 45.7987763049 10.5414429496  28.5334467597 45.0975526098 10.2432188992  25.5853336378 44.29785694835 12.9652274421  24.9342985 44.1001055 13.193351  25.2286851378 44.62988044834999 12.5755009421  24.57765 44.432129 12.8036245  26.25831 46.5 14.104753  26.78266840105 45.743327889 13.6456271631  26.1139981378 45.84810794835 13.4699389421  26.50486390105 45.743327889 14.1022961631  26.5361145 46.5 13.648084  26.813919 46.5 13.191415  26.3918026378 45.84810794835 13.0132699421  26.7514178021 44.986655778 14.0998393262  26.36055203885 45.09143583735 13.4674821052  25.006025 46.5 14.189112  25.4878556378 45.84810794835 13.5121184421  25.2304945 46.5 13.357863  24.7582785 46.5 13.642349  24.510532 46.5 13.095586  25.2401091378 45.84810794835 12.9653554421  24.982748 46.5 12.8111  25.454964 46.5 12.526614  25.7123251378 45.84810794835 12.6808694421  28.919039 42.561424 12.625274  28.1547891561 42.9342784087 11.79189985195  28.1440176561 42.6090714087 12.28565635195  28.902529 42.4081325 11.965418  28.9298105 42.886631 12.1315175  28.886019 42.254841 11.305562  28.1275076561 42.45577990869999 11.62580035195  28.9133005 42.7333395 11.4716615  26.2494196378 40.98421522755 12.30885775625  25.7103259435 41.50940007295 12.5723435527  25.5358056943 40.7348931546 12.48607720355  26.0748993886 40.2097083092 12.2225914071  26.5698929825 41.1318800156 13.13326068875  28.053955 46.5 13.149505  28.49509807855 45.77479760855 12.50381218935  28.24057307855 45.77479760855 13.09997618935  29.01151507855 45.77479760855 13.11158218935  28.30848 46.5 12.553341  29.079422 46.5 12.564947  28.563005 46.5 11.957177  28.4271911571 45.0495952171 13.0504473787  27.95096435125 45.90187637875 13.9572861016  27.40268640105 45.743327889 13.6246721631  24.989608 41.784063 12.609745  25.7032219435 42.03338507295 12.4325255527  25.9831034435 41.93850057295001 12.8937670527  25.2623855 42.2131635 12.9311685  24.982504 42.308048 12.469927  25.8124604435 42.57911007295 12.7452270527  26.1549279435 42.32695657295 13.2525015527  25.7140915 42.506735 13.7511445  25.371624 42.7588885 13.24387  24.078791 39.645821 12.528214  25.33334060215 39.31225448955 12.19966870585  24.5507461659 39.67517096005 11.8688314142  25.0768451943 39.9277646546 12.37540270355  25.5488003602 39.95711461465 11.71602011775  25.0227013318 39.7045209201 11.2094488284  28.898626 41.241749 11.653009  28.28251597775 41.5596210518 10.7406321098  28.28881947775 41.0530750518 10.9143556098  29.051337 41.49164949999999 10.997876  28.8923225 41.748295 11.4792855  29.0450335 41.99819549999999 10.8241525  29.204048 41.74155 10.342743  28.44153047775 41.3029755518 10.2592226098  27.6790129555 40.8644011036 10.1757022196  28.2585950986 42.350893679 10.7117332511  28.4176095986 42.094248179 10.2303237511  27.6311711972 42.446946358 10.1179045022  27.65509207635 41.6556737308 10.1468033609  26.52224605605 42.43837112435 14.58105901805  25.8938485 42.39205149999999 14.3093895  25.913927 42.353378 14.855616  28.2156727266 41.10326619449999 12.12589544175  28.1338111561 41.94923390869999 11.79952385195  27.76604866575 41.3200605591 11.3669037498  27.4508578827 41.8107511032 12.2724102937  27.08309539235 41.1815777536 11.83979019155  27.00123382185 42.0275454678 11.51341860175  27.5327194532 40.964783389 12.5987818835  25.856637 46.5 13.3156835  25.6321675 46.5 14.1469325  28.4803189584 45.07357391345 11.64683313895  28.96089357855 44.62427910855 12.12602868935  29.01402137985 44.6482578049 10.7224144496  28.11869285685 44.53821610129999 10.8088651237  28.06556505555 44.51423740494999 12.21247936345  28.133471977 45.2394397964 11.6658441741  28.54822587985 45.7987763049 11.1001979496  27.5893044796 45.01812549755 13.57514335245  27.78236859435 44.7128800216 12.8659896366  26.94448191685 44.68141030205 13.39068561035  26.9771565751 41.97711376895001 13.0718909994  27.5315463582 41.5801443905 13.17371988845  27.4496847877 42.4261121047 12.84734829865  26.8964680996 42.20772048165 12.17058140465  26.9783296701 41.36175276745 12.49695299445  29.47452 43.568947 13.509053  28.9249615263 44.21790908695 13.24164855585  28.6711595622 43.73279065305 12.86932541285  28.7594660622 43.51648615305 13.41337391285  29.3862135 43.7852515 12.9650045  29.297907 44.001556 12.420956  28.2982140885 43.94914374 13.6900179687  25.81509166575 41.3292250591 11.9151807498  26.35418536005 40.80404021370001 11.65169495335  27.717724477 45.2394397964 11.1070891741  27.2041025523 44.72721526735 10.83008829175  28.4817255622 43.01272465305 12.97148441285  29.1967795 43.0651855 13.0671635  29.108473 43.28149000000001 12.523115  24.504051 40.484379 12.201262  25.6907774578 40.8803148272 11.39083227905  24.7633761659 40.09444996005 11.7053554142  24.9053532635 41.0176501726 11.3801675755  25.2894751943 40.3470436546 12.21192670355  25.1646784294 40.62772113265 10.8842609897  26.7160771316 42.042208696 14.1287789467  29.156334 41.409473 13.098871  28.2258792266 41.7631036945 12.61202794175  28.9088325 41.9015865 12.1391415  29.0376865 41.9854485 12.8620725  27.1562421435 41.1313866109 10.6282503596  27.1445819413 40.3521599851 11.38818284935  27.0401310798 40.3999674625 10.59800714285  27.4467908281 39.4015628068 10.1152157861  27.5629018918 40.1329819552 10.14545900285  27.68628057855 45.77479760855 12.57972768935  27.4996625 46.5 12.6292565  26.8796445 46.5 12.6502115  27.433937 46.5 13.17046  27.62055507855 45.77479760855 13.12093118935  26.94537 46.5 12.109008  25.307292 43.7199995 13.8293935  28.997668 40.8918955 11.0590115  29.09671 40.542042 10.465014  29.150379 41.141796 10.4038785  28.23580164075 44.25681026159999 13.1840711022  28.2858765986 42.829392179 10.8778327511  27.6675550756 43.2129129754 10.7462079252  28.4170050986 42.743120679 10.3421037511  29.2034435 42.3904225 10.454523  29.044429 42.647068 10.9359325  29.15823557855 45.06478510855 12.54594168935  28.86254907855 44.52557560855 12.73570168935  29.5935935 44.5407655 12.231196  29.3962515 44.1002595 11.811283  29.691938 44.639469 11.621523  29.88928 45.079975 12.041436  27.75974516575 41.8266065591 11.1931802498  27.13232126435 41.9226592381 10.5993515009  29.0288005 45.3494815 11.5793935  28.500922977 43.9902177964 11.8977336741  29.2261425 45.7899875 11.9993065  26.9757325158 45.43808241305 12.93647344725  28.2177265158 44.18886041305 12.55124394725  26.6274561561 42.7759549087 13.02795885195  28.4924970622 43.33793165305 12.47772791285  25.4179817974 45.473
[...]
<PointData  Vectors="u"> 
<DataArray  type="Float64"  Name="u"  NumberOfComponents="3" format="ascii">-3.4417764205952059e-09 1.1552520275177051e-08 2.5393834045009527e-08  -1.4176382395590413e-09 6.7159235184599804e-09 1.4234295905257712e-08  -5.7363597028132954e-11 9.8778847500600133e-09 3.0515099096178110e-08  5.4718497557925930e-09 6.3195310631298212e-09 1.1902847586332503e-08  2.8061174198404963e-09 5.4735594611733631e-09 6.7789089180179159e-09  -1.9188528158845465e-09 5.0715149258041522e-09 1.4515982826330241e-08  -2.5264498484469192e-09 4.6756320051361060e-09 9.9774032434871927e-09  6.6979996754723633e-09 6.4216586378095414e-09 1.2313855835799145e-08  1.2015509156839748e-11 6.9145234862901701e-09 2.8096805108973139e-08  -5.9659816832860500e-09 3.7019221978287628e-09 1.1357530552804809e-08  -1.1697502680036928e-09 1.8338138135319680e-08 1.1589422143321885e-08  -6.7371225936090616e-09 1.2507872965041191e-08 1.2612581808346410e-08  -7.2641393957135942e-09 1.6889040425094902e-08 9.4974388403696811e-09  -8.4073411125183892e-09 1.5486912456184212e-08 1.3740589157189589e-08  -1.0503039191755237e-08 1.9745021165241192e-08 8.4730918358828405e-09  -7.9535991317808541e-09 1.4642416950376057e-08 1.0977024184419941e-08  -7.5738820064821175e-09 1.7928427537183220e-08 1.0977803456116940e-08  -6.4957969903303204e-09 9.3681133844835737e-09 1.3823993401788942e-08  -7.4415911857164008e-09 1.7769367083859706e-08 1.0884408102316022e-08  -4.8705419955666261e-09 1.3736155914321909e-08 1.2734700644416431e-08  -5.7566723916811791e-09 1.0974563789889526e-08 1.3410582270678582e-08  -5.3524703550078779e-09 1.3643540945247319e-08 1.2148152744001364e-08  -2.7332644567110688e-09 8.6133156429633049e-09 2.8103283961720915e-08  -1.2909090383631018e-08 4.8522977928599937e-09 2.7794224221130311e-08  -1.6811828464798514e-08 7.1541094508276877e-09 2.6415171648946855e-08  -1.1314489177647699e-08 7.9333763019684200e-09 2.2087200330992936e-08  -4.9336693612037521e-09 4.1464653297206050e-09 3.5795091879141997e-08  -1.5196858855237105e-08 3.3283010808333067e-09 4.1402192472956606e-08  -7.5823521586373706e-09 6.9048273840762463e-09 3.4789682278475555e-08  -2.2100673962306557e-08 9.1766804946731545e-09 4.0873816989211702e-08  -1.0851693477463984e-08 3.8881272994034819e-09 4.0782881441056938e-08  -1.5683767287287988e-08 6.2114132832194803e-09 1.7576677629984277e-08  -6.0731073618357199e-09 9.5802465324229567e-09 1.0849919066867562e-08  -8.0276346338774799e-09 1.1473875887651134e-08 1.2562166466542207e-08  -1.6710729895635009e-09 1.4747905195635053e-08 7.3753865472688629e-09  -1.9936412178609161e-09 1.0275073008359841e-08 3.2319736076114954e-09  -7.3188763882903133e-09 7.5557434516376969e-09 9.7900087513798107e-09  -8.3317355522731790e-09 6.8617059177739816e-09 1.3346392028961120e-08  -6.9269452876917854e-09 8.0287944865526829e-09 1.4183503101228135e-08  -6.2606641828900555e-09 3.0425629604925412e-09 -1.3954206329870551e-08  -1.2537330740112623e-08 7.5362777828138302e-09 -8.6033593960337978e-10  -2.2866936748305343e-09 7.1816821783969812e-09 -8.1062393657725171e-09  1.5191633222643367e-09 4.9782931117469688e-09 -3.9037459467304113e-09  4.7697366968427898e-10 1.1346594870105635e-08 -3.2405457495211917e-09  -9.5091998692359637e-09 1.1861411457969082e-08 1.9318514267457334e-09  -2.9576751985425049e-08 1.0397777574965463e-08 3.6303033191550893e-09  -2.5033166731452893e-08 5.8664789013483076e-09 -3.7907108715152997e-09  -1.8821961658487541e-08 7.8504865370630106e-09 6.4462012029029357e-10  -2.3164915230625054e-08 1.0642712948017045e-08 2.1908820731683872e-09  -2.5642021564508366e-08 7.4745711616724719e-09 1.1601778860762397e-09  -3.2881171770250847e-08 6.7091143834748777e-09 -2.7569468743195314e-09  -2.1101788832768417e-08 4.3644110045631358e-09 -1.2450367000201084e-09  -2.8330553596916017e-08 3.6535021288958210e-09 -6.0578708518957132e-09  -3.5544685590068258e-08 2.6346836865919927e-09 -1.0893250694708528e-08  -1.6517057836950866e-08 1.1385189226127131e-08 1.2523392591524787e-09  2.8714970379586385e-09 1.4984340344099187e-08 1.0384710545120287e-08  3.9389295776025485e-09 1.3083218122945364e-08 2.0360719225435567e-09  -7.8884290394170971e-09 9.3713925945669663e-09 1.5673955949621208e-08  -1.0873253942766415e-08 6.1931710955981414e-09 1.4647615978668592e-08  -1.0977405730799607e-08 9.1258223124647827e-09 1.1855505337829449e-08  -6.6717129482882453e-09 9.6758402459417490e-09 1.3654134480715680e-08  -1.4643559129163777e-08 1.1630504129664995e-08 1.0495109031439210e-08  -1.4789348589645200e-08 8.7380982150561696e-09 1.3977884287233940e-08  -9.3154837396968820e-09 1.3033043711633447e-08 1.2387265099987424e-08  -7.1265344784532846e-09 1.0339617298497336e-09 -1.3160448587892585e-08  -1.0815177673983742e-08 1.6163931490149727e-09 -2.8395077261604698e-09  -4.3156161420127734e-09 1.0990740464073534e-09 -6.0546624375079070e-09  -4.9652182365751955e-09 5.6345614096546086e-09 -4.7062113874557833e-09  -8.2508556777113447e-09 4.6938205250733568e-09 3.4856106727737659e-09  -2.3719121578475504e-09 6.0389770025160076e-09 3.6903768826768594e-10  -5.5726631408861137e-10 2.3246806160835829e-09 -2.8811316719079460e-09  -8.1581027188365890e-09 1.3162629059844458e-09 6.5723455178801915e-10  -1.2844890650993645e-08 1.8109297039139533e-09 4.4068784294860361e-09  -1.4369955935243467e-08 -1.2008363415369129e-09 8.4314317699727944e-09  -2.0769440359460418e-08 8.6874459809244743e-10 1.5168722060764366e-08  -1.8498558048087345e-08 1.0365318878247670e-11 8.8599149931089244e-09  -2.0982952376940813e-08 9.6411663648973530e-10 1.1349814677270640e-08  -1.8632885953871756e-08 4.9970227637857067e-10 1.2898741012663343e-08  -1.8512209575531698e-08 -6.9562319135534057e-10 1.9510937043750173e-08  -2.3139665181379936e-08 5.7274419952820247e-10 1.7585797911631506e-08  -2.6412678947325512e-08 -1.1761738114306530e-09 1.5539176221022230e-08  -2.4701990996142737e-08 1.0268407119208722e-09 1.2604165653251674e-08  -2.3063093024233609e-08 1.4360486911929572e-10 1.0020199580093998e-08  -2.4336533008794980e-08 2.5801194946015644e-09 1.7930512728898027e-08  -2.6023359264415601e-08 1.6296708993413050e-09 2.1103796867329474e-08  -2.2126187095265077e-08 1.2746275250278363e-09 2.3264338410717238e-08  -2.5476187163251174e-08 3.5201447452587241e-09 2.7759982187644561e-08  -4.3092874848950663e-09 6.2877520694359338e-09 8.8106577500016489e-09  -1.3420612001950595e-09 7.1058936143543407e-09 7.8376504642865828e-09  -3.9334798537168256e-09 3.5418164243101022e-09 6.1775267999274485e-09  1.4814564249083696e-10 4.2990325456058360e-09 3.9214400898422433e-09  -6.0154990154584636e-09 -8.1413063823651496e-10 1.8806848281004469e-08  -5.7133998520141373e-09 2.7418526526758495e-09 1.5989512347815398e-08  -4.9396915980971314e-09 2.4499920823030635e-09 1.4804122173979746e-08  -6.3339642348698326e-09 3.3717431089087409e-09 1.7390255341579371e-08  -5.8212637954290059e-09 -1.6445573770421947e-11 1.6205370144618214e-08  -5.9829550713375493e-09 -9.8160402519375159e-10 1.5687530330863123e-08  -6.0945043951356686e-09 2.0710030821247996e-09 1.4173913341459012e-08  -6.5147262391008982e-09 6.6387138291010102e-09 1.6421234280340685e-08  -6.2800589934552912e-09 5.2196933732455599e-09 1.5064256643626645e-08  4.7435723666372635e-09 -5.7911699180202175e-10 2.6017123690079615e-08  -7.8861698162809752e-10 2.6970102939630106e-09 1.3824950131053856e-08  -1.2645602311821449e-09 1.7324360466033262e-10 1.0862858676183909e-08  3.8361372971174372e-09 1.1451437587647983e-09 9.5328556603078016e-09  -2.2822443558751981e-10 4.1337344257360255e-10 5.2253443335733472e-09  -3.7619509000715132e-09 2.0649747386934866e-09 8.9930569562746718e-09  -6.4260638280625204e-09 1.8989830513966979e-09 7.1638911589440795e-09  -3.7365331509694705e-09 -1.4392766462348455e-09 1.2799998947690973e-08  -6.0646613982122919e-09 1.5165435216139400e-09 1.1524641205992385e-08  1.6147456092563923e-09 2.0877002458972161e-08 1.2211478815124024e-08  -9.9579108562094739e-09 1.1385420898325733e-08 1.8264785681810372e-08  -7.8136120447681034e-09 1.5328343909967297e-08 1.3130554753173352e-08  1.0661686171562160e-09 1.6780029105626879e-08 1.7928450201330293e-08  4.5297147819683047e-09 1.4761838607673366e-08 1.9561472646682418e-08  -7.6101529059332498e-09 1.4904527657878732e-08 2.7630833579337727e-08  -1.2288714208088994e-08 1.3395890223860598e-08 1.7092817939760580e-08  -3.0972296851118433e-09 1.1196622679634577e-08 2.8842061989275482e-08  -2.2160721784470885e-08 1.1031093199081636e-08 -1.1852035078603066e-09  -1.3545960752313178e-08 8.0981344468831320e-09 -5.3177242078425902e-09  -1.8184098994956052e-08 6.0401197275755405e-09 -7.2397585574595526e-09  -2.7228930540901730e-08 1.0192127154278760e-08 -3.1391695794622960e-09  -1.7052043024330542e-08 1.4459073821560950e-08 2.9386476573178378e-09  -4.2583992215084800e-09 -1.4664013973155479e-09 1.7270616110920638e-08  -1.9577697818884300e-09 3.6245279085614983e-09 2.1011939912436458e-08  -3.6665534797468680e-09 3.2104388664687532e-09 1.7585066890708179e-08  3.3846611488259633e-09 4.7765919429451562e-09 1.5704362307897107e-08  -1.8798733036078891e-09 -1.1634954584505960e-10 2.0211141864505325e-08  1.0633134926795551e-08 4.9343063950705542e-09 1.6294888459648231e-08  -6.8187048315073475e-09 -4.5218347400679458e-10 2.8251175822104144e-08  -2.2370887546639142e-09 5.2410350789536706e-09 1.7164254043586339e-08  -3.9723759303088843e-09 2.7084771638669109e-09 1.5185878119979489e-08  -5.9797312669604269e-09 2.9755553129643626e-09 1.5407389002201583e-08  -6.9959479978032815e-09 6.6209351259414116e-09 -1.2316076672853208e-08  -1.3126037090806200e-08 7.7838757250457473e-09 -3.9108817204340443e-09  -1.0003802175082057e-08 1.1488308697436785e-08 -3.3567443308324669e-11  -4.2728878384776928e-09 1.0229699746712146e-08 -5.9515748369317518e-09  -7.0099385499079222e-09 5.9440033063822844e-09 -1.0968581271123427e-08  -8.0849281937791431e-09 9.8993164124662088e-09 1.5455061575025341e-10  -7.2510211923192409e-09 1.1881147689408551e-08 4.0648703964042653e-09  7.5814640605444055e-10 1.6445018243348104e-08 2.9050502131850924e-09  -1.9966260914775854e-09 1.2847452452447158e-08 5.1964217821059747e-10  -1.7080263675579853e-08 -9.8900414585230907e-09 -1.8475972051333986e-08  -3.1814719082588072e-08 4.3769325137444869e-09 -7.2061611689894491e-09  -2.7455756375242689e-08 -1.3632331711588574e-09 -1.7547117584352121e-08  -2.2756191605822525e-08 9.2385878909892470e-10 -1.0367177995853130e-08  -3.1811447287973143e-08 6.8068865505202044e-09 -8.0208741600257979e-09  -3.7623013608523146e-08 3.9954552637861452e-09 -1.4231239431285617e-08  -5.1330639965813503e-09 2.1780470342391342e-08 1.5563409415329109e-08  -2.2480227017980997e-08 1.5036771576306627e-08 2.3778259681679956e-08  -1.9365344552695796e-08 1.8598445434332871e-08 2.0537063906732085e-08  -4.3250198656566293e-09 1.4373823206282366e-08 3.1204373182022459e-08  -5.5285239096011572e-09 1.8430950248119249e-08 2.4415851745264930e-08  -1.1940687002820152e-08 1.4239420041416262e-08 3.5470464514953232e-08  -2.6188692115413376e-08 1.5911113371137497e-08 4.3709381192557353e-08  -2.9002049201868654e-08 1.6694583335770019e-08 2.9630705262622795e-08  -3.6848773477538275e-08 1.6054714241555227e-08 1.8289452488195798e-08  -2.1650903312727766e-08 1.2726530678442277e-08 2.3723174383744081e-08  -2.8195249332614819e-08 1.3554595211132198e-08 2.8384545551532215e-08  -3.2705420344507850e-08 1.0315820902322075e-08 1.7732823480043582e-08  -3.4608145890677568e-08 1.3334754225957271e-08 1.8021457659580407e-08  -6.9517686415015785e-09 1.8779898104260939e-08 1.3235597281761082e-08  2.4303676058739218e-09 1.9133620180143347e-08 1.1429749632314237e-08  1.1853790356992965e-09 2.1791724884981872e-08 1.8399240055885899e-08  -1.4444472166201339e-08 2.2603039033410536e-08 7.9069489480521869e-09  -1.2778626331792520e-08 1.7166424383111880e-08 1.3587735697916864e-08  -2.1497926881612430e-08 1.6518377583530729e-08 1.1784657624465302e-08  -1.5632467171086319e-08 1.5882087005590656e-08 7.8904482929618068e-09  -2.2851281183972516e-08 1.4796254573190106e-08 5.0668094374862690e-09  -2.1861263641056181e-08 1.1348417339764049e-08 7.3096914019627001e-09  -1.9160210193535228e-08 1.9962953770137413e-08 4.4228993409400863e-09  -5.0396356802597686e-09 -1.3868797978798313e-10 1.3985475112579101e-08  -3.6372200798289034e-09 4.4707408722032718e-10 2.1099622095147392e-08  -1.0227309674643254e-08 4.0242265615652187e-09 2.5469072073596044e-08  -2.6217299228133879e-09 4.7258110185986306e-09 2.5603821861345215e-08  -1.9238120311495071e-08 4.9614376138803060e-09 3.3859181820926400e-08  -2.0046322400071505e-08 4.5112809082030633e-09 2.3182209463439058e-08  -7.8396523831557980e-09 5.8913365081458523e-09 1.8983531229019199e-08  -1.0713598773222129e-08 2.9035389857734089e-09 2.1968144946325460e-08  -1.6606586147771070e-08 9.3033322049297907e-10 2.7309074891667905e-08  -5.0373267939459998e-09 6.2568876657697856e-09 1.5251918203087677e-08  -5.7333462907684323e-09 6.2386639208406369e-09 1.5967338485268208e-08  -6.6839932025439493e-09 6.6046826039362035e-09 1.4369799088179532e-08  -1.2877322308208284e-08 1.5930061691271970e-08 6.6076050681726255e-09  -1.4420233062873802e-08 1.9993776608873727e-08 6.0351612366183295e-09  -1.1578072299669342e-08 1.5662020100360425e-08 9.2405992973339534e-09  -1.6036201983869247e-08 1.1869158966616489e-08 6.0629077947428799e-09  -1.8444821731978559e-08 1.5419751725291266e-08 3.8508718784369753e-09  9.6513806853938024e-09 1.3998869011142098e-08 9.4685745887505640e-09  2.5568243325251222e-09 8.5465579941217403e-09 1.4851205950553083e-08  -2.3393649288417968e-11 1.0361479239112606e-08 1.5672784811513267e-08  8.3100426791768512e-10 1.4101558780095291e-08 1.1485596825218085e-08  1.0002832173260002e-08 9.6878414274490915e-09 1.4823615671057226e-08  5.0556685912694322e-09 6.0535672772004681e-09 2.3992353133775401e-08  -3.0728396149175391e-09 1.1950447259419194e-08 1.2561775804419520e-08  -2.2875282998409943e-08 7.7934692413792533e-09 -5.0390041081930372e-09  -2.8389576064058109e-08 1.1135178891496490e-08 -8.5719176105069039e-10  -1.7055046714688222e-08 2.3013267164687513e-09 1.9659887221511476e-08  -2.0220877546344083e-08 2.8673515938563552e-09 1.4651107686328746e-08  -1.5935517644673873e-09 1.6360376177837346e-08 1.1818808637725329e-08  7.6810034995620200e-09 1.6092941747454627e-08 1.0215134692805357e-08  7.8161135395935262e-09 1.0136561639210076e-08 1.6858693825568650e-08  -1.5499045358969204e-08 -2.5182954455410255e-09 -2.2300509654373042e-08  -2.9814116285222379e-08 7.6144499285733436e-09 -6.7140663283641872e-09  -2.8166374650603170e-08 1.3303839147212365e-09 -1.7193577838988377e-08  -2.7143334841451861e-08 2.0642512423963690e-09 -1.7141686151863688e-08  -2.2478816544925038e-08 4.1618280884499655e-09 -9.8631658339778369e-09  -3.6386335795914737e-08 4.6752829503703194e-09 -1.2238172802997963e-08  -9.3344580329822171e-09 1.7500290159018962e-08 8.6074543998372123e-09  -1.3333831621287834e-08 3.6410824525032199e-08 2.4108138284104265e-10  -1.0472756507193463e-08 2.1445389514934056e-08 8.0824173557461002e-09  8.7774854517451828e-10 2.1450912512943049e-08 1.1174897097646320e-08  -1.3120761545789461e-09 2.7902064834416102e-08 5.7367253498570587e-09  -3.3052173253521239e-08 1.3363731908363996e-08 1.0602644237430715e-08  -3.0013973277692030e-08 1.6635482292670147e-08 5.2337597094343442e-09  -3.8168901048984710e-08 1.4909491386669256e-08 8.6961714027956693e-09  -4.6838016333945827e-08 2.1062928277209364e-08 1.6398462543017047e-08  -4.0605800478965992e-08 1.8952747563752783e-08 1.7426953978980252e-08  -7.0040276337261453e-09 2.0633537496678360e-09 1.6981951981120338e-08  -6.6293797493574259e-09 7.6330153534552053e-10 1.7213152013868135e-08  -7.7591060233712860e-09 -1.8023019050367242e-10 1.5130632931370714e-08  -5.6416424690806417e-09 -7.1912827047973720e-11 1.6110965389190890e-08  -5.9807100700364636e-09 2.9150760554163793e-09 1.6214102279916680e-08  -9.7042883933615394e-09 -8.5678362146115707e-10 1.4996954197273229e-08  -1.5327100582189582e-09 1.1702934803322887e-08 1.3333603827564090e-08  -3.5011540713638597e-09 1.9946961574562278e-08 2.6103698588423879e-08  -2.0708276797534911e-08 1.7637482724541312e-08 4.2488882600945934e-08  -2.3065494532866154e-08 1.7924296140204716e-08 4.7821367099673771e-08  -3.4220097800887148e-09 8.8941323871219403e-09 1.4879079985507388e-08  -1.8601380994178575e-08 1.0591166177748830e-08 2.3327819553417262e-08  -2.2713742525398485e-08 7.4197617780043400e-09 1.7624078785748103e-08  -2.5843928319216052e-08 1.0276310214355821e-08 2.8049937282457562e-08  -2.1299035281571462e-08 1.1709119309755458e-08 4.4210708455572082e-08  -1.0484355614925530e-08 1.1581303713780285e-08 3.6584627010648968e-08  2.4927642780278889e-09 4.8813401361311698e-09 2.3482117827516450e-08  3.0789257427241499e-10 5.9485917777619364e-09 1.9569745743242014e-08  8.4280451210298136e-09 2.0973311224946277e-09 3.3004027116528064e-08  -6.5227648466260234e-10 2.2749333504897972e-09 3.2542001921283311e-08  -5.1277025866709307e-09 1.6864286487200920e-09 3.9938801107601167e-08  4.8302504675444947e-09 2.5346269370218847e-09 4.0494570989356295e-08  -2.1735357502551404e-08 1.3778783264853290e-08 1.5334163882512966e-08  -3.0480653749207642e-08 1.0734803090446922e-08 1.0457126638835138e-08  -8.8390141438384434e-09 2.1919269587014435e-09 3.0884588703984696e-08  -6.8586735152836513e-09 6.8548730232288571e-09 2.2505427025323432e-08  -2.0947595964197827e-10 6.5313513111373113e-09 3.4594350863241112e-08  -7.1377760450954796e-09 3.8943552888070361e-09 1.4595022021991182e-08  -5.1522488802360003e-09 7.7402447868490016e-09 1.7557450633760349e-08  -9.7435501297097352e-09 1.2485554532862103e-08 7.2139448613796857e-09  -1.6633067458416455e-09 1.1820930178721030e-08 1.6291329442113008e-08  -8.4449402616640015e-09 -2.5227080454828031e-09 3.4663035955603920e-09  -6.1016636232750403e-09 6.8118946994030467e-10 8.5770199811458335e-09  -7.3527000558713537e-09 1.7506176072767533e-10 9.0132071014185064e-09  -1.6784894462984810e-10 -9.4465350606183215e-10 5.4181604377505387e-09  -1.6098142839950242e-09 -3.8130401812828156e-09 1.6293524322108402e-09  -1.0091960487880518e-08 -2.1110247985251508e-10 4.3397920270162343e-09  -1.3078516565234448e-08 -1.3508373718425062e-10 7.8488579565119561e-09  -2.7403065710357159e-10 3.3831712881548364e-08 3.6592269944753180e-09  -4.6493994807562803e-10 1.9826710030505365e-08 8.8236231531288586e-09  8.1892111633859430e-09 2.1086315171761251e-08 5.8372812135066152e-09  3.4306988284883089e-09 2.7972107743279539e-08 6.1841380625644892e-09  -2.1767740557223106e-08 -6.5381277034876496e-09 -2.8159125843125900e-08  -1.7138258912130537e-08 -7.3879777460874192e-09 -2.2062969249701581e-08  -3.4108503054562681e-08 -7.0853685350729051e-10 -2.3036648525829841e-08  -2.2140011007554788e-08 -3.9570848867267688e-09 -2.7799994949025781e-08  -3.4935585841279032e-08 -4.2661100012673799e-09 -3.7180736875176334e-08  -7.2972207595954812e-09 2.0405984923415611e-08 8.7788766584640462e-09  1.9344126622181948e-09 5.1882038271954142e-09 2.5221745923396366e-08  -2.0159134374113021e-08 4.7725371347314958e-10 2.6908835304272069e-08  -1.6502116784961561e-08 -1.2772207078308137e-09 2.7560213904496538e-08  -1.3827883047236070e-08 2.4525102979888090e-10 2.3234313459713694e-08  -1.6390775433189258e-08 1.7797275442527068e-09 3.3275628186857990e-08  -2.2355766966581295e-08 3.1046150356888345e-09 3.1780182966473271e-08  -8.3170500277613282e-09 1.4458274136104140e-08 1.2630933310583430e-08  -4.8535360585997702e-09 2.3894309568466095e-09 2.0986259725834285e-08  2.2528838373586468e-09 4.0098921233570910e-09 3.0810168560333480e-08  -8.7214758067184290e-09 1.5874496918767674e-08 5.9419312700980925e-09  -1.0826147911474882e-08 6.0017159302906222e-09 -9.2390939060651730e-10  -1.1260212095070999e-08 9.4483197920005371e-09 5.4467689791225866e-09  -1.8651924555841707e-08 8.9778620655516664e-09 5.5367558250573779e-09  3.4791800336949231e-09 4.7492167828928971e-09 1.8029449911328320e-08  -1.4136432893819961e-08 1.9439507698300553e-09 3.556