<?xml version="1.0"?>
<VTKFile type="UnstructuredGrid"  version="0.1"  >
<UnstructuredGrid>
<Piece  NumberOfPoints="9103" NumberOfCells="41986">
<Points>
<DataArray  type="Float64"  NumberOfComponents="3"  format="ascii">25.395294 1.69943 11.05331  25.3383142053 0.94283498065 10.38299303935  25.8632359553 1.14461948065 10.56839253935  25.3663894553 1.49269248065 10.43865153935  25.36721875 1.1495725 10.9976515  25.8921405 1.351357 11.183051  26.388987 1.003284 11.312792  25.86406525 0.8014995 11.1273925  25.3391435 0.599715 10.941993  25.3374849106 1.2859549613 9.823993078699999  23.3467623587 6.599867459 3.5859431703  24.5395181954 6.1166328713 3.04584977705  23.5882880695 6.0414837808 3.08258987265  24.26170617215 5.842783363900001 3.5245426772  24.2979924846 6.6750165495 3.5492030747  25.1766499856 5.0856992688 3.4631421841  24.50323188295 5.2843996857 3.02118937955  25.21293629805 5.9179324544 3.4878025816  25.2492226105 6.75016564 3.5124629791  23.8298137803 5.4831001026 2.579236575  30.787315 7.095661 -0.5  31.1003390712 6.9588961911 0.81694000125  31.084951 6.5748335 0.03117599999999998  30.587305 6.658726 0.32354  30.8027030712 7.4797236911 0.28576400125  30.387295 6.221791 1.14708  30.884941 6.1378985 0.854716  30.6026930712 7.0427886911 1.10930400125  30.8180911424 7.8637863822 1.0715280025  31.382587 6.054006 0.562352  36.014824 4.512536 17.275501  35.58937854235 3.5414132362 17.36809922985  35.42263454235 3.9779592362 17.90326172985  35.36802904235 4.250841236199999 17.19531122985  36.2361735 3.803108 17.448289  36.0694295 4.239654 17.9834515  36.124035 3.966772 18.691402  36.290779 3.530226 18.1562395  36.457523 3.09368 17.621077  34.7212340847 3.9891464724 17.1151214597  35.841446 4.317995 -0.5  35.7020075 3.6948745 0.251295  36.10502281315 3.6402200021 0.0089394431  35.5205155 3.8215405 -0.5  36.022938 4.191329 0.251295  36.20443 4.064663 1.00259  36.28651481315001 3.5135540021 0.7602344431000001  35.199585 3.325086 -0.5  35.78409231315 3.1437655021 0.0089394431  36.3685996263 2.9624450042 0.5178788862  31.156868 9.686339 13.916444  32.2077482589 9.3099427112 14.26662102295  31.5619447589 9.045143211199999 14.28641452295  31.700903 9.420201500000001 13.735496  31.8026715 9.951138499999999 13.8966505  32.448475 10.215938 13.876857  32.3467065 9.685001 13.7157025  32.244938 9.154064 13.554548  32.1059797589 8.7790057112 14.10546652295  31.9670215178 8.4039474224 14.6563850459  28.459284 6.178826 1.583678  28.58857113565 6.56153377545 2.06657603065  28.08329063565 6.64792827545 1.90155053065  29.1633837216 7.09519234015 2.0279512371  28.9645645 6.0924315 1.7487035  29.469845 6.006037 1.913729  28.78739035725 7.5642946156 2.34582376775  29.6686642216 7.008797840150001 2.1929767371  29.8674834432 8.0115586803 2.4722244742  27.7072972713 7.1170305509 2.2194230613  32.793312 8.091317 -0.5  32.883684 7.106056499999999 -0.5  32.734853462 7.64334730985 0.44633253425  33.175705 7.670375 -0.5  32.50129099999999 7.526998499999999 -0.5  32.20927 6.96268 -0.5  33.117246462 7.22240530985 0.44633253425  32.442832462 7.07902880985 0.44633253425  33.558098 7.249433 -0.5  32.676394924 7.1953776197 1.3926650685  31.3622458141 1.5163745724 17.0257371984  31.80516710935 1.74625555585 15.9989174731  31.87176560265 2.07618673585 16.7285308239  32.09770113995 1.3913177415 16.319102371  31.2956473208 1.1864433924 16.2961238476  32.8331564658 1.2662609106 15.6124675436  32.6072209285 1.95112990495 16.0218959965  32.03110264665 1.0613865615 15.5894890202  31.2290488275 0.8565122124 15.5665104968  32.3812853912 2.6359988993 16.4313244494  34.588886 6.303766 2.76231  34.32476950815 5.3173000938 2.94347450055  34.14412050815 5.9673650938 3.18879300055  33.7659455 5.690217000000001 2.565582  34.769535 5.653701 2.5169915  32.943005 5.076668 2.368854  33.32118000814999 5.3538160938 2.99206500055  33.9465945 5.040152 2.3202635  34.950184 5.003636 2.271673  33.6993550163 5.6309641876 3.6152760011  25.211849 10.132747 -0.5  24.7161040085 9.4508430556 0.26994271915  24.8998320085 10.0335335556 0.26994271915  24.6196105 9.970739 -0.5  25.028121 9.5500565 -0.5  24.027372 9.808731 -0.5  24.3075935085 9.8715255556 0.26994271915  24.4358825 9.3880485 -0.5  24.844393 8.967366 -0.5  24.587815017 9.9343201112 1.0398854383  22.415165 9.527476 5.978189  21.6984625 8.786616500000001 6.169351000000001  21.5702745 9.307643500000001 5.9417355  21.5223305 9.170286000000001 6.5228365  20.725384 9.087811 5.905282  20.853572 8.566784 6.1328975  20.98176 8.045757 6.360513  20.974466 6.548608 4.661302  21.4704230759 5.6142586755 4.496428997600001  21.59934886715 5.8329084184 5.1785935674  21.5494920759 6.2271771755 4.3696674976  20.895397 5.935689500000001 4.7880635  20.816328 5.322771 4.914825  22.17437494305 5.5114775939 4.886959065  21.52027986715 5.2199899184 5.305355067400001  22.1245181518 5.905746351 4.0780329952  22.2242317343 5.1172088368 5.6958851348  26.018879 12.057204 1.644916  25.8749601604 11.3656929502 1.06241745705  25.515541 12.0252885 1.070114  25.9900505 12.1661635 1.262975  26.3494696604 11.5065679502 1.25527845705  25.5443695 11.916329 1.452055  25.06986 11.775454 1.259194  25.961222 12.275123 0.881034  26.3206411604 11.6155274502 0.87333745705  26.6800603208 10.9559319004 0.8656409141  30.142475 9.052647 12.446454  30.0797511174 8.184570675750001 12.1066132954  30.1134995494 8.21987546215 12.78436682525  29.49398373375 8.5151044439 12.20335642005  28.8454924675 7.9775618878 11.9602588401  29.43125985115 7.647028119650001 11.86351571545  29.46500828315 7.68233290605 12.5412692453  30.0845240988 7.3871039243 13.1222796505  30.0507756668 7.351799137900001 12.44452612065  30.0170272348 7.3164943515 11.7667725908  33.7926086095 2.9311070564 17.8665855253  33.4392307426 3.3748786818 18.3835743149  33.3585921728 3.60491860535 17.56352082415  32.9926051805 2.92963332225 17.94336788775  32.1926017515 2.9281595881 18.0201502502  32.6392273136 3.37340494765 18.46035667735  32.5585887438 3.6034448712 17.6403031866  32.9245757361 4.2787301543 17.260456123  33.0052143059 4.04869023075 18.08050961375  33.0858528757 3.8186503072 18.9005631045  23.929644 6.804438 8.935890000000001  23.461915 6.0067615 9.327456  23.2758212365 5.9376910556 8.477764109750002  24.0085805 6.280684 9.026116  23.3829785 6.5305155 9.23723  22.836313 6.256593 9.53857  23.3547577365 5.4139370556 8.567990109749999  22.7291557365 5.6637685556 8.779104109750001  24.087517 5.75693 9.116342  22.621998473 5.0709441112 8.019638219500001  26.1418366604 11.1065839502 0.18282045705  26.3915895 11.920536 0.190517  25.7824175 11.7661795 0.190517  26.821957 11.565949 -0.5  26.7510086604 11.2609404502 0.18282045705  26.212785 11.4115925 -0.5  25.603613 11.257236 -0.5  25.4487369364 8.563403151299999 1.3236393818  24.2178415964 7.900100664050001 1.70458838585  24.5997287654 7.561171924 0.9723108756000001  25.18103190735 8.1229856698 1.8616698378  24.48554662545 8.34051814555 1.16655792985  25.2952140473 7.34363944825 1.66742278355  25.56291907635 7.784056929749999 1.12939232755  25.6771012163 7.0047107082 0.9351452733  23.5223563145 8.117633139800001 1.0094764779  24.9133268783 7.6825681883 2.3997002938  32.8063106272 5.3954283436 14.2195317509  31.93240375365 6.143501279100001 14.1062738971  31.83547499115 5.8364873438 14.83473024615  32.60336020425 6.33766169185 14.12068951345  32.4004097813 7.2798950401 14.021847276  31.7294533307 7.08573462735 14.00743165965  31.6325245682 6.77872069205 14.7358880087  30.8646393551 6.277546344 15.4499287414  30.9615681176 6.5845602793 14.72147239235  31.0584968801 6.8915742146 13.9930160433  21.898605 7.814317 -0.5  21.417154 8.28303775 -0.07535375  21.43226186625 8.0063833255 0.23888534815  21.448158 7.9222675 -0.5  20.997711 8.030218 -0.5  20.966707 8.390988249999999 -0.07535375  20.98181486625 8.114333825500001 0.23888534815  20.9659187325 8.198449651000001 0.9777706963  20.95081086625 8.475104075499999 0.6635315981500001  20.935703 8.751758499999999 0.3492925  35.3269385 2.647782 0.1596155  35.528755 2.8368665 -0.5  35.857925 2.348647 -0.5  36.11326231315 2.6555460021 0.0089394431  35.6561085 2.1595625 0.1596155  35.454292 1.970478 0.819231  35.91144581315 2.4664615021 0.6685549431  19.956898 2.423713 6.269658  20.20556545975 1.8600406731 5.6270184595  20.51262945975 2.3458676731 5.7754624595  20.5076145 1.6738455 5.675732  19.649834 1.937886 6.121214  19.34277 1.452059 5.97277  20.2005505 1.1880185 5.527288  21.058331 0.923978 5.081806  21.06334595975 1.5960001731 5.1815364595  21.0683609195 2.2680223462 5.281266919  31.015923 8.922112 13.020404  31.9865262589 8.358201211200001 13.54329352295  31.4914722589 8.6630297112 13.83839452295  31.70816639065 8.10100352005 13.521125638  31.510977 8.617283499999999 12.725303  32.006031 8.312455 12.430202  32.20322039065 7.796175020050001 13.226024638  32.18371564955 7.84192123125 14.33911616095  35.931252 3.735938 9.108333  34.924006512 3.2800408292 9.1726030584  35.150071512 3.5778063292 9.632302058400001  35.7035065 3.0868615 9.112821499999999  35.705187 3.4381725 8.648634000000001  35.479122 3.140407 8.188935000000001  35.4774415 2.789096 8.6531225  35.475761 2.437785 9.11731  34.922326012 2.9287298292 9.6367905584  34.368891024 3.4196746584 10.1562711168  21.7722004475 1.76252271375 5.49933234585  21.17427949595 1.5073068459 5.88422288215  21.76718548775 1.09050054065 5.39960188635  22.4760399755 1.2570230813 5.7173977727  21.8831339837 1.67382938655 6.2020187685  21.1792944557 2.179329019 5.98395334165  21.2902279919 2.0906356918 6.6866397643  24.8392309553 1.50928248065 10.17506103935  24.937021 1.296357 10.884158  24.8681355 1.71602 10.7897195  24.340977 1.73261 10.526129  24.4098625 1.312947 10.6205675  24.478748 0.893284 10.715006  24.9081164553 1.08961948065 10.26949953935  36.31839 5.255751 10.528851  35.32703861225 5.94310280375 10.7519346833  35.852835772 5.3899468445 11.00879923155  36.10176254935 6.00899498425 11.0643892049  35.79259284025 5.808906959250001 10.27198645175  35.8851350987 6.7
[...]
<PointData  Vectors="u"> 
<DataArray  type="Float64"  Name="u"  NumberOfComponents="3" format="ascii">-4.8782459991039855e-08 -1.3350070833920609e-08 -2.5037932167037224e-08  -3.8575031075576309e-08 -6.2583571829363031e-09 -1.8138685085372524e-08  -4.6105279416194557e-08 -1.0835603034475592e-08 -2.0594144288746850e-08  -4.5339233051744963e-08 -8.2722426805066509e-09 -2.0448346570710352e-08  -4.8221032132568428e-08 -1.1213541761000846e-08 -1.4065272611797638e-08  -5.3154082345834943e-08 -1.5417615819916927e-08 -2.4073486073189363e-08  -5.5606841177648162e-08 -4.1132479274932971e-09 -3.5555212471392825e-08  -5.1136961883580163e-08 -2.6847726526302709e-08 -1.1317600627151030e-08  -3.5759836527286260e-08 -1.0071890657348059e-08 -1.3555392472930752e-08  -4.0612533511883207e-08 -5.3973201693148143e-09 -2.1823363723203327e-08  -4.1047137284339058e-08 -6.4563099785797589e-09 2.4516250247070860e-09  -4.9879726518084896e-08 -1.7632683344735416e-08 -1.7075245237421940e-09  -4.0552086185635985e-08 -1.3336396943264539e-08 -1.1605727486042575e-09  -4.6700374443452203e-08 -1.6431453455227057e-08 -1.9787240101570091e-09  -5.1284589820530825e-08 -1.1407537877858686e-08 7.4110895743461716e-10  -4.6749734395406136e-08 -2.7234949306143868e-08 -7.1276510652729667e-09  -4.3045086934286797e-08 -2.1079470818394440e-08 -5.0428503617080098e-09  -5.5192854235963292e-08 -2.2071128407034153e-08 -3.4725147379225062e-09  -6.1443964422411724e-08 -1.8307552544367161e-08 -7.4131596966433767e-10  -3.9843824457098385e-08 -1.7964878013090891e-08 -3.8306699995352754e-09  -4.6721483301796963e-08 2.1784290384104906e-08 1.7742018135544982e-08  -7.7696410169718167e-08 -1.0833018998787183e-09 1.7205981614424124e-08  -4.1507742637412814e-08 1.4278120796155039e-08 2.2520893776357424e-08  -7.1858794201475961e-08 2.9310121598825878e-08 4.0880598316267192e-08  -7.8194060164265283e-08 4.9202706998843757e-09 2.0144394298606356e-08  -9.2702948514961598e-08 1.2356625566216889e-08 3.7320438796851149e-08  -6.1877810838725545e-08 1.5434338804710562e-08 3.4485375421926213e-08  -9.1654081523945197e-08 1.9159937729240216e-09 2.1859954329526532e-08  -9.9954338836972676e-08 -1.4335680103344775e-08 6.3629389982043688e-09  -4.7852084368084921e-08 1.2832964188283301e-08 1.3334423673739191e-08  -2.9151571997506568e-09 -5.5646365650969121e-08 5.3312042595195899e-08  -4.1055201902130155e-09 -3.2447988188904907e-08 2.9172515438860677e-08  -8.6736325217927986e-09 -3.1825256231510388e-08 2.7273724831399582e-08  -1.7341412131951215e-08 -4.3239343026929336e-08 4.2097190873493533e-08  1.3588422110826626e-08 -3.0384459798218908e-08 2.5867816860131033e-08  8.4520907150248980e-09 -3.5937719663423694e-08 2.6519587077188596e-08  2.6689115279366882e-09 -2.4927978299685914e-08 1.6866741246636167e-08  5.7379972000158262e-09 -2.2811324090656860e-08 2.0607912519020739e-08  1.1835018832100573e-08 -1.8158351633539364e-08 1.6142057147892086e-08  -2.8897304345011159e-08 -3.5036259335902870e-08 3.2372947587247990e-08  1.3109001412743763e-09 -2.7205565178396017e-09 1.8396526104840262e-09  2.9210322942501730e-09 -4.1735247684782088e-09 -1.4564492009792698e-09  4.2135845026964694e-09 -3.2983864210437481e-09 -9.5471835416613660e-10  3.0183095572579647e-09 -3.7715807842540630e-09 -5.5367257491021641e-11  1.8109811879883061e-09 -4.5190841280279738e-09 -2.1240415380469086e-09  1.1958285690628036e-09 -5.1261715316156908e-09 -1.7299595221845869e-09  1.5235141529326786e-09 -3.8939012253999935e-09 -3.1185212333216000e-09  2.5617816499327303e-09 -3.2091577591465701e-09 1.6251409031168971e-09  2.7072642194349258e-09 -2.8908186063553107e-09 -3.5462543449015981e-10  1.6549771984671760e-09 -3.4890661550667594e-09 -1.2345056848296593e-09  -1.3644867750646712e-07 -3.7932916281447197e-08 -2.0004857003946952e-08  -1.2078576773469971e-07 -4.5836670333639749e-08 1.8578319089293490e-08  -1.1456183632656836e-07 -2.7313228600058572e-08 2.7778505317122394e-09  -1.3985234734794982e-07 -4.7853779479526394e-08 -2.9794465056444851e-08  -1.4326607555476718e-07 -6.8345477691047215e-08 -2.5687456687410483e-09  -1.4410541508807571e-07 -9.4657883594319449e-08 5.1524412300238429e-08  -1.4867977599525324e-07 -6.9764323309997325e-08 -3.8887311834737118e-09  -1.4532370858823514e-07 -3.8860474752712398e-08 -8.1808220318592882e-09  -1.1847469088750739e-07 -3.0633193951884726e-08 9.1282257996270060e-09  -1.0140575296722469e-07 -2.2985999593263092e-08 1.7131282402041830e-08  -1.1349368669637172e-07 -1.2754465569949829e-08 -5.8335505059533571e-09  -1.0858475384566804e-07 -1.2254846382849416e-08 6.3998189139711595e-10  -1.0307437322345407e-07 -1.8940503480400759e-08 -3.1678247239383412e-09  -1.0779417256373536e-07 -1.0685365041887912e-08 5.2515153338910735e-09  -1.1800840933767283e-07 -3.3117787084427698e-09 1.8245488847610895e-09  -1.1538191921439786e-07 -5.4087833022880099e-09 1.8406633825590480e-08  -1.0222929759708762e-07 -1.4502300389743417e-08 4.5578405562880510e-10  -1.0533478666965377e-07 -1.0896190810118029e-08 9.3904147096397328e-09  -1.0977192716299771e-07 -1.7454436669213959e-08 3.2343364931074736e-09  -9.4327371264010711e-08 -1.8026541278386314e-08 -2.3163947810368298e-09  -6.9248300247786163e-08 -6.2868047978879888e-08 1.4740849390955165e-09  -3.5961596037548724e-08 -3.3357856823894555e-08 -5.5076660277415171e-10  -5.5252244031880708e-08 -4.8404966374919313e-08 -1.8492865057257986e-10  -4.2171864454121619e-08 -6.4439127349845316e-08 1.4368782422736288e-10  -5.8316460350437236e-08 -3.8857701714469787e-08 -8.4675314096237483e-10  -5.7358510278305447e-08 -1.6485403804821995e-08 5.8000047215458378e-09  -3.5836147299855038e-08 -4.6972857677376871e-08 -8.0470691424713579e-10  -5.2993700277960984e-08 -2.9101267693944636e-08 3.0035932623710429e-09  -1.3811811137402036e-08 -5.6564969627966541e-08 -1.6695094738677202e-09  -5.4131335322136153e-08 -4.0540800162216432e-08 7.9424530830249977e-10  -4.6950861260568590e-08 -1.0411188608109854e-08 7.3821795487577796e-09  -3.8671738661496071e-08 -1.2951383508278557e-08 1.1218240755001958e-08  -4.1507123341500178e-08 -1.3875419824254117e-08 7.9553909691372987e-09  -3.6716083466203651e-08 -1.1643028642576453e-08 8.6287700565585391e-09  -4.2123573866607766e-08 -8.5919582800556200e-09 1.2876874950694151e-08  -2.8358008513014055e-08 -1.4828647022632836e-08 8.7862920412894024e-09  -3.4375239656783896e-08 -1.8036239709702659e-08 1.0045233695745416e-08  -3.3552672219728821e-08 -1.0147491395300300e-08 1.1258472252136758e-08  -3.7345178823041313e-08 -6.9992691222208118e-09 1.4981517301849885e-08  -3.9844431052652466e-08 -1.8971637187261438e-08 1.0725598132805684e-08  -1.9489465740887670e-10 -4.1501323060565591e-08 -2.5365020715179629e-08  -6.7690248019343996e-09 -1.7776257958756595e-08 -5.8133546259637670e-09  -1.8748574964201729e-08 -3.6557308070891873e-08 -1.0400130953442670e-08  -1.4936377197917298e-08 -2.1364577642991932e-08 -3.1341984095719559e-09  6.0264021348330285e-09 -1.9224833744590617e-08 -9.2716932011441695e-09  -1.1704767258822688e-08 4.8896690905213637e-09 8.7641779080747340e-09  -2.3926774369812077e-08 -1.0823203175216354e-08 5.6339437100641068e-09  -4.7976844292228795e-09 -9.8657773638445879e-09 -2.7129906549772946e-09  3.6434875062986295e-09 -1.1426924002683357e-08 -8.1047827998773910e-09  -2.8908341494715601e-08 -2.7154857890815417e-08 4.0049012931252113e-10  -6.2624735718852177e-08 3.0576768702103045e-09 7.7469429136599047e-10  -5.7811225600340500e-08 1.9352282404711693e-09 2.5304763581714084e-10  -6.1267042924118460e-08 4.2612965367106506e-09 -2.0033055037656086e-10  -5.8418712997281017e-08 4.9660096086803458e-09 -4.2630815522022696e-10  -6.0147867461169442e-08 1.8597169357496241e-09 -5.2778008826943517e-10  -5.1330635692649868e-08 6.3973578857874730e-09 8.2229159246182745e-10  -5.5289869220512827e-08 6.2935367101941527e-09 8.1387516713174303e-10  -5.4538511324216203e-08 1.7705285303038143e-09 -5.7546744544236065e-10  -5.7785686789031153e-08 -2.8570535673390850e-09 1.0143816975283759e-09  -6.0609182466827050e-08 5.8098926130629439e-09 7.6532655387582426e-10  -2.0471163279549398e-08 5.3668217272481639e-08 2.5508853817654096e-08  -2.2120123718871828e-08 4.3015582796834908e-08 2.2521282108737793e-08  -1.9736113064291126e-08 4.5665090218121315e-08 2.6720897089218101e-08  -2.1556922300690414e-08 4.6401270228537708e-08 2.1892588331624050e-08  -2.7059077307936283e-08 4.7165537753198778e-08 3.0301413758892033e-08  -2.0315042541151655e-08 5.0220857599392033e-08 2.4932180489988210e-08  -1.0605510844179833e-08 4.6342961914490093e-08 2.0216973016639740e-08  -9.2996416626471749e-10 -2.9111584768595988e-09 -2.1488443138075928e-09  -1.9763682988130288e-08 -1.3603735906376830e-08 -8.6421889854804222e-09  -1.5396310462850934e-08 -3.6234132833758458e-09 -4.7245702732418169e-09  -1.7079388978690304e-08 -7.1584544240666847e-09 -3.2662079523785072e-09  -4.0772879498174643e-09 -1.2195697264074444e-08 -1.0708716555472609e-08  -9.6467256923205798e-09 -2.0722090333768953e-08 -1.7988245774933044e-08  -2.6617354965837302e-08 -6.4672205457036199e-09 -4.7745956180442046e-09  -1.7554008518248469e-08 -1.0335866740501717e-08 -1.0947388984879881e-08  -2.7384395626158041e-08 -8.9934738544360103e-09 -2.9692522903820635e-09  -2.4460474688959951e-08 -4.1335069069511461e-09 -6.6294143003049210e-09  -2.4476187567180498e-08 -2.2937719663374791e-09 -1.1129245430970061e-08  -5.1385171116173809e-08 -4.8487000395225280e-09 -9.1536029966036752e-10  -4.6392270216443973e-08 -3.4616200229222138e-08 9.4252073758289784e-09  -2.0002810142625842e-08 -7.7745206558373345e-09 -7.4057165033566047e-09  -4.5396000808037521e-08 1.0583690870979753e-08 -2.8091959564295365e-09  -5.1915522592552671e-08 -2.6027319262888925e-08 -1.3643073971563874e-08  -9.7320710442338017e-08 5.1175759505654166e-10 2.7668810243729907e-09  -1.3487918334616366e-08 5.4862618900592853e-09 3.2950502523318831e-09  -3.8671193809205178e-08 8.5096368570469988e-09 7.4180338071121509e-10  -5.5155616722100641e-08 1.7733415279773312e-08 -1.9835266923497141e-09  -9.2345338184982486e-08 4.4466162141835715e-08 -3.2692552762154108e-08  -7.6421307372024224e-08 3.6441380693386647e-08 -1.7553566195433930e-08  -8.2308783460086148e-08 2.8429146626736810e-08 -1.7374521098744832e-08  -7.2191675912479042e-08 4.3341390684001891e-08 -1.5995536564473490e-08  -6.6732398163604459e-08 4.2785230008503241e-08 -7.9777039260872519e-09  -6.6011929437525131e-08 3.6938136201631925e-08 -9.0353800112718759e-09  -6.8740732059526300e-08 3.3467838286770105e-08 -1.1217005859346682e-08  -7.2715121023537697e-08 1.9421855004575480e-08 -6.8679634346405288e-09  -7.2309914174667256e-08 2.4580232907450583e-08 -9.2763637452524754e-09  -6.9398446065259111e-08 3.1630947069567034e-08 -9.0260055439428990e-09  -2.5124613937488308e-08 -2.0411021848493821e-08 9.6136858398921847e-09  -2.5096576415269185e-08 -1.8018071255607768e-08 6.2238142074519067e-09  -3.2685016458756091e-08 -2.1768736988681833e-08 1.1679239891421745e-08  -3.0525047809235792e-08 -1.7690264813070314e-08 4.2488567161763336e-09  -3.7391291608754338e-08 -1.6457082151492067e-08 -2.3432699874606487e-09  -2.9475059106398531e-08 -1.6538568030790387e-08 -1.5147535350645702e-09  -3.7984419716169549e-08 -1.8343640325174532e-08 5.2064425715730615e-09  -4.1814359703947978e-08 -2.1521791143169134e-08 1.3647002382909112e-08  -3.2300689661641333e-08 -1.8882556589064016e-08 7.1727981600980506e-09  -2.3481258234758354e-08 -1.5875263016637377e-08 1.8570825681847524e-09  -7.5112873711462513e-08 3.9484787755365441e-08 1.1806915243711424e-08  -4.5751958021509427e-08 3.4618772554961515e-08 1.4216860874298275e-08  -3.7728998799241217e-08 2.5151551355893421e-08 8.1065709946410541e-09  -7.1558903196021349e-08 2.5782353791214865e-08 5.8300908094658322e-09  -5.6737108150367812e-08 5.7862379872599443e-08 2.5976037043149399e-08  -2.2551888097757002e-08 6.3341911257241796e-08 2.1921391196721235e-08  -3.7633316356040365e-08 1.7966601689619497e-08 1.9986645096213819e-09  -2.5315186175652940e-08 2.5415593025116026e-08 2.0263693727499679e-09  -6.1436138608328044e-08 1.8639952441655557e-08 2.5615325210937991e-11  -2.4503961723642882e-08 1.1613228628807858e-08 -2.0401300280063785e-09  -5.3867107530176000e-08 1.4268387907504617e-09 1.6397264005983789e-09  -2.5214577137511453e-08 6.6359646418575634e-09 1.1672659771411657e-08  -3.6233788592058359e-08 -2.2002688009221517e-08 6.5685178099864516e-09  -2.7341848686215109e-08 1.5667534134132947e-08 5.3533025964648010e-09  -4.6681155647841099e-08 1.7685284001774094e-08 1.1593238736257276e-09  -4.8107170353833432e-08 -6.8778064522010192e-09 2.5189775341000306e-09  -6.4615588043734867e-08 -9.7974775870275151e-09 9.7865481912078279e-10  -6.4813787671485153e-08 -6.8824313964219676e-09 -2.3910140293928879e-09  -5.2191696882486276e-08 -8.0972100544348672e-09 2.7446567622343926e-10  -5.3278551827603523e-08 -1.3366840783048490e-08 -1.3169487157265670e-09  -6.2681783030760516e-08 -9.8319766125888443e-09 -2.1883080151462524e-09  -5.4874304058259756e-08 -6.2618677284577123e-09 -4.0506986423581213e-10  -6.0807703867888664e-08 -1.7175230295110478e-08 -2.9733286942988075e-09  -6.4562763094792047e-08 -1.4337799551890922e-08 -2.3453021606446759e-09  -6.2695893974102544e-08 -2.4177106164851719e-08 -4.4844157955017381e-09  -4.3094708944362144e-08 -5.7938981209026897e-09 1.4775204879126459e-09  -6.1000639442997099e-08 -1.2437044160306350e-08 -1.3386401729498702e-09  -7.7632003897502268e-08 -2.8681353463426635e-08 2.4116745405771466e-08  -7.8443497174397836e-08 -1.6517150240957706e-08 1.7452359321215972e-08  -6.9701567064454948e-08 -1.7087740858785037e-08 2.0096800379368035e-08  -8.6765716270518447e-08 -2.3233955606654983e-08 2.3069779368689824e-08  -9.7765799585510839e-08 -2.1158330900126583e-08 1.8882657368302437e-08  -8.8484775123282011e-08 -1.1699188409259322e-08 1.2896815812267079e-08  -7.8204530157910506e-08 -1.2435688519960662e-08 1.7109375571133437e-08  -6.5072084935949267e-08 -8.0647841675815531e-09 1.7708691538772317e-08  -6.9555547343885625e-08 -6.1182736841641708e-09 1.4716421757363835e-08  -7.7554454275235217e-08 -3.4233629918636643e-09 8.3128034905750015e-09  -2.2963617802723999e-08 -1.2049601796116188e-08 1.7918902063663929e-09  -1.4175898721355734e-08 -1.1451471285026831e-08 1.4594459714268599e-09  -1.4295536066804397e-08 -1.2369243369747960e-08 1.1805741336206144e-09  -1.7255970442837096e-08 -1.3766907104213306e-08 3.2950927536205236e-10  -8.3043411731756799e-09 -1.8582486997839957e-08 3.5815142813887491e-10  -1.2099793379461130e-09 -8.7099166004446375e-09 -1.7786604190683073e-09  -3.0241931128584815e-09 -1.9355190692816300e-08 1.2682927515707852e-09  -2.4152063237765503e-09 -1.0591928165272017e-08 4.1911077003950248e-09  -8.9729942386219134e-11 -5.6767119873840301e-09 3.8563912986637846e-09  -1.0637875483123598e-09 -3.3242959075099531e-09 5.1504922702526830e-09  1.9046863002137472e-09 -2.1376104098847543e-09 1.9590871209910777e-10  3.0013264613400152e-09 -2.6246495336382867e-09 -6.6192509061291359e-10  2.7051671282868807e-09 8.5733667656517082e-10 2.3795814221874426e-09  4.1065805073080061e-09 -2.9667471251700210e-09 -1.6143408773396123e-10  3.3073830793523580e-09 -2.0693846564782304e-09 -8.9041122518108285e-11  2.0435787756310550e-09 1.2378744383599119e-09 -1.3567490588219127e-09  3.7371232868285676e-09 -2.7086660217431462e-09 -4.6098035541906854e-10  -2.2229210140163251e-08 -2.5793557153739941e-08 -4.7146093637633350e-08  -4.9986035707711409e-08 -2.5886829571722305e-08 -5.5636166301348147e-08  -3.9530806570255531e-08 -2.3592351707551833e-08 -4.2239772770170114e-08  -5.0732542937821361e-08 -1.7919942627330579e-08 -4.9015385513888397e-08  -2.3836045693567793e-08 -2.5626827687799977e-08 -6.4798334458378526e-08  -2.8612855385978471e-08 -2.1876617660440071e-08 -8.7320211114492095e-08  -5.8951299425468966e-08 -1.9656653596130705e-08 -6.4459186048867695e-08  -9.3063816184470673e-08 -3.4068589671113477e-09 -4.3183925708833530e-08  -6.6165045508075179e-08 -1.2770601657170432e-08 -3.5013231642259140e-08  -5.2994077989163123e-08 -1.7777086122018370e-08 -3.2158500926385101e-08  -1.1166625106341669e-07 8.4231517855463580e-09 -3.3682825441695374e-08  -1.2008609791370057e-07 -1.6984296075293460e-08 -6.6005247719801015e-10  -1.1203090578071231e-07 -1.1471609811276040e-08 -8.1693864796264350e-09  -1.0939311928691544e-07 -8.7427821956349275e-09 -2.2686741267561121e-09  -1.2193408384895317e-07 1.0350475966639622e-08 -3.9604188212857092e-08  -1.3683925683742084e-07 1.0278805409453172e-08 -3.1921013398830862e-08  -1.1572744717036843e-07 -1.1662810607294515e-08 3.0532586715127152e-09  -9.9739487486390151e-08 -2.1199322927898055e-08 1.7588716877592783e-08  -1.1118787154586547e-08 -6.6274860140068940e-08 6.1219043236889972e-09  -2.9600716531653862e-08 -5.3514163945027037e-08 1.5650611379845292e-08  -3.0653765674005867e-08 -6.3737926137405322e-08 8.9646330959658452e-09  -1.5092635954144824e-08 -5.5422629925897462e-08 1.4348884528370337e-08  -1.5105195650550812e-08 -5.4721768262075320e-08 1.2357774849537880e-08  -1.4400755831308469e-08 -4.0069534849835360e-08 1.8973726931826511e-08  -1.2999040449367281e-08 -4.1410844332222392e-08 2.5474147303283175e-08  -1.8370921284676058e-08 -4.4052033388174477e-08 2.2828017089944804e-08  -2.9010013081260639e-08 -5.4341562183200902e-08 1.5178735037383992e-08  -4.4903914244449714e-08 -5.6332316471846055e-08 1.2642932056104342e-08  -4.5594493656002500e-08 -4.8174306950979037e-09 -1.9598762381647323e-08  -4.7696796199945894e-08 -7.2076888444174159e-09 -2.9681938747311081e-08  -4.8579285712648036e-08 7.9220788698904901e-09 -9.2508521414515247e-09  -3.6722593989273420e-08 4.1749106011822369e-10 -1.0697744776790448e-08  -3.7807511886796753e-08 -5.6637145517612167e-09 -1.9287691000854624e-08  -3.9704659482213545e-08 -1.4231753107463474e-08 -2.8925311666519482e-08  -3.0496319096395145e-08 -1.1175429480926632e-08 -2.3940481086877042e-08  -4.1917469491335640e-08 -3.7918391703748533e-09 -2.0074123415210549e-08  -4.1213226909167048e-08 -7.6562845717100498e-09 -1.5194310970496287e-08  -4.4935274796328238e-08 -4.7444796685330751e-09 -1.9590396504971552e-08  -4.4776093857632833e-08 2.4486844359913163e-09 -1.9911437320240925e-08  -3.7678820545798165e-08 -4.9889840405061258e-10 -2.1260321344342428e-08  -3.3590978483780471e-08 2.2079832553345162e-09 -1.9886704796942625e-08  -3.9842399926408390e-08 -3.2002911227724835e-09 -1.8531777037320211e-08  -1.4087985130602603e-07 -1.2783233048842078e-07 -6.7492000377915919e-08  -1.0884845183075552e-07 -8.1586847703280553e-08 -8.8807511652484382e-10  -1.2846369865523324e-07 -8.7918889658440720e-08 -2.4459484722997968e-08  -1.3948231165705737e-07 -7.3003714580675474e-08 -4.6570196998027005e-09  -1.0688839494851034e-07 -1.0229454686613380e-07 -2.3397085694005128e-08  -1.2956135140955857e-07 -6.3245472658568235e-08 2.1930119836685791e-08  -1.2867350260417838e-07 -6.5676897605255105e-08 9.2535976743139447e-09  -1.1888563404909296e-07 -8.0653824333725924e-08 4.9130121994561383e-09  -1.0116390169311116e-07 -9.2369002916928814e-08 -5.1359715076440311e-09  -1.2337830735619026e-07 -7.0365326058722081e-08 -3.6220696332335200e-09  -2.9874816264487621e-08 6.8199497078121962e-09 4.4032047738453056e-09  -3.7350834691202292e-08 -1.6236295581550020e-09 1.7333749336788614e-09  -2.7565197888971870e-08 -1.4783656876258725e-09 -1.1195468285704777e-12  -3.5376334157529486e-08 -5.9055142110999332e-09 -3.2413953743943923e-09  -4.1891002654700460e-08 2.9119423315012563e-09 5.0427621876916513e-09  -5.2467888880118002e-08 -3.3142271532390643e-09 5.2738919308701241e-09  -4.2893231771633830e-08 -8.7170073900912600e-09 -2.6234524705868922e-09  -3.6645413443758851e-08 -1.2371298894002477e-08 -7.8375254655611687e-09  -3.4214467407898931e-08 -9.2522500383325763e-09 -5.1731441399019866e-09  -7.5206348550967970e-08 -1.5056680434979557e-08 2.2220288792073068e-08  -7.8440041518987208e-08 -2.0994287708498778e-08 2.8245819664588088e-08  -7.1703619850434472e-08 -1.8517031971991922e-08 2.8502303999776473e-08  -8.4524563847716993e-08 -2.2370757733247694e-08 3.00