<?xml version="1.0"?>
<VTKFile type="UnstructuredGrid"  version="0.1"  >
<UnstructuredGrid>
<Piece  NumberOfPoints="8963" NumberOfCells="41187">
<Points>
<DataArray  type="Float64"  NumberOfComponents="3"  format="ascii">16.665564 -0.5 1.747051  16.64952024455 0.3805552701 2.122330667  16.288428 0.09163850000000001 1.308441  16.951354 0.0542415 1.2790435  17.237144 0.608483 0.811036  16.93531024455 0.9347967701 1.654323167  16.574218 0.64588 0.8404335000000001  15.911292 0.683277 0.869831  16.27238424455 0.9721937701000001 1.683720667  16.6334764891 1.2611105402 2.497610334  18.477964 16.0585 9.574505  18.3567417798 15.16595232485 9.093186776950001  17.93757243755 15.70584441265 9.165620032850001  18.6094612798 15.86410582485 8.92612427695  18.2252445 15.3603465 9.7415675  17.972525 14.662193 9.90863  17.68485293755 15.00769091265 9.332682532850001  18.7409585596 15.6697116497 8.277743553900001  18.06906971735 15.5114502375 8.517239309800001  17.3971808751 15.3531888253 8.756735065699999  23.963243 16.373453 6.662451  22.9760133827 17.55089587205 7.03864079025  22.9926839605 16.92289933905 6.339069196100001  23.708137825 17.2291461151 6.3155268823  23.2311185577 16.69520275695 7.38556490795  22.4989941154 17.0169525139 8.108678815899999  22.2605595182 17.244649096 7.06218310405  23.45303265 18.0848392302 5.9686027646  22.7375787855 17.77859245415 5.9921450784  22.022124921 17.4723456781 6.0156873922  21.6402906104 15.533248966 8.815999592400001  20.82398705015 15.19255699225 8.283693948649999  21.50252180945 15.4677835736 8.0740003634  20.66423922015 15.90117280395 8.043018449050001  19.6881878299 16.2690966419 7.2700373057  19.98570446085 15.6259462226 8.2527120343  20.5264704192 15.83570741155 7.30101922005  21.3647530085 15.4023181812 7.3320011344  20.2832210918 14.9827958033 9.235386762899999  23.965454 16.528221 8.529888  23.0460975577 16.45781775695 7.93622240795  23.4010825577 17.00995525695 7.77349040795  23.2322240577 16.77258675695 8.31928340795  23.7793275 16.213452 8.146827  23.948186 16.4508205 7.601034  24.1343125 16.7655895 7.984095  24.303171 17.002958 7.438302  23.593201 15.898683 7.763766  22.167379 18.631119 9.022829  21.8657876114 18.1717991567 8.2286437912  22.3331865577 17.82403575695 8.56575390795  21.7571305 18.0983165 9.050134499999999  21.346882 17.565514 9.077439999999999  21.4555391114 17.6389966567 8.2559492912  21.9229380577 17.29123325695 8.593059407949999  22.0315951691 17.36471591365 7.771568699149999  21.5641962228 17.7124793134 7.4344585824  19.910564 17.921152 7.904745  19.0087415 18.213464 7.5218825  19.4851503642 17.4553835099 7.00009764205  19.636753 18.33809 7.578965  19.2825525 17.796526 7.8476625  18.654541 17.6719 7.79058  19.2113393642 17.8723215099 6.67431764205  18.8571388642 17.3307575099 6.94301514205  19.362942 18.755028 7.253185  19.0597367284 16.9896150198 6.0954502841  20.503342 19.442648 7.881671  20.7604221912 19.6480912316 6.3855518391  20.13795822535 19.48875812525 6.865681254249999  20.62277122535 18.97756562525 7.19630425425  20.7422004507 18.5124832505 6.5109375085  18.3682512798 16.32534582485 8.500572776950001  18.8850955 16.4763995 9.082969500000001  18.236754 16.51974 9.148953500000001  19.292227 16.894299 8.591434  19.0165927798 16.28200532485 8.434588776950001  18.6438855 16.9376395 8.657418  17.995544 16.98098 8.723402  20.939278 18.377396 8.424175999999999  21.0337691114 18.5775636567 7.658064791199999  21.2517371114 18.0449376567 7.929317291199999  20.84073922535 18.44493962525 7.467556754249999  20.72131 18.910022 8.1529235  21.15319833675 18.11248128195 6.97269804545  20.4751951278 13.1460235827 6.6300124857  20.4569740179 13.5995136953 7.1316438082  19.64969504005 13.4136199298 6.8291372626  19.74861651875 13.2076629179 7.711041669350001  18.8241949523 13.6812162769 7.0282620395  19.63147393015 13.8671100424 7.3307685851  20.438752908 14.0530038079 7.6332751307  17.643213 2.955699 3.385581  18.34290545915 1.6153884038 2.92512771535  17.7496941773 1.8030178597 2.37559798285  18.25456243275 2.6503120896 2.81958331585  17.7315560264 1.9207753142 3.4911253995  17.13834474455 2.1084047701 2.941595667  17.22668777095 1.0734810843 3.0471400665  17.8198990528 0.8858516284 3.596669799  18.8659118655 2.3449251792 2.2535856317  19.1673223351 15.75597846735 6.71929838215  18.85309678435 16.1162376563 6.13200487135  18.5470223092 16.59805452165 6.65876591335  19.37396227915 16.62935583085 6.6827437949  18.03430789 16.2064940235 7.2220815426  18.34038236515 15.72467715815 6.695320500599999  18.86124785995 16.2377953327 7.246059424149999  18.6464568403 15.2428602928 6.1685594586  17.4135 2.167866 4.389713  17.3324930264 1.0142813142 4.2758608995  17.0696310264 1.4349898142 4.1087393995  17.6166995264 1.5268588142 3.9931913995  17.1292935 1.6552885 4.6723825  16.8664315 2.075997 4.505261000000001  16.319363 1.984128 4.620809  16.582225 1.5634195 4.7879305  16.845087 1.142711 4.955052  19.974854 18.006046 4.817722  19.66525649765 17.87639111905 5.8819490323  20.1185025874 17.67555992765 5.34313050105  20.35852722535 18.25926462525 5.66432975425  19.52160791025 18.2068771914 5.356540531249999  20.50217581275 17.9287785529 6.1897382553  19.9052811356 18.46009581665 6.203148285499999  19.0683618205 18.4077083828 5.8953590625  20.2621511748 17.3450738553 5.8685390021  22.452303 14.08633 7.407408  21.4011588727 14.72391940625 7.9389264272  21.90852800425 14.7443240906 7.369704567199999  22.0462968052 14.809789483 8.1117037962  21.110935 15.697334 4.392496  20.15322648365 15.73917385065 4.82937106845  20.1157225 15.729712 4.1631675  20.5665995 15.395224 4.2041765  20.60410348365 15.40468585065 4.87038006845  20.660058 16.031822 4.351487000000001  20.209181 16.36631 4.310478  20.022264 15.093114 4.015857  20.05976798365 15.10257585065 4.68206056845  20.0972719673 15.1120377013 5.3482641369  22.7513615577 16.40649875695 7.21134790795  23.483486 16.084749 6.488234  23.003729 15.796045 6.314017  22.5129269605 16.63419533905 6.1648521961  21.181969 18.452654 4.98938  21.1421380479 17.4087097667 5.94211319715  21.6020469605 17.96249983905 5.5025336961  21.2784185 17.837759 4.879497  20.7220600874 17.89886392765 5.42895950105  21.374868 17.222864 4.769614  21.6984964605 17.34760483905 5.3926506961  20.8185095874 17.28396892765 5.319076501050001  21.9930064605 16.54446733905 5.6053531961  22.032131 16.916252 4.933202  21.669378 16.4197265 4.9823165  22.689394 16.60964 5.09679  22.326641 16.1131145 5.1459045  22.3557594605 17.04099283905 5.5562386961  21.963888 15.616589 5.195019  21.03769348365 14.69516035065 5.25828906845  21.544525 14.9878085 4.780405  21.5374115 15.6569615 4.7937575  21.03057998365 15.36431335065 5.271641568450001  21.9710015 14.947436 5.1816665  21.978115 14.278283 5.168314  19.17136441495 16.97049832095 7.53030865285  19.79937591495 17.09512432095 7.58739115285  19.49020741495 16.58169782095 7.93073565285  19.6013955 17.4077255 8.248089499999999  18.973384 17.2830995 8.191006999999999  22.849384 15.101266 7.308471  22.10706850425 15.2517920906 7.3202360672  22.6508435 14.593798 7.357939500000001  22.2448373052 15.317257483 8.062235296200001  20.515181 1.822054 3.280087  20.31944875 1.2415405 3.273493  20.1991695 1.6406825 2.910151  19.45040325 1.634199 3.76502  19.330124 2.033341 3.401678  19.883158 1.459311 2.540215  20.00343725 1.060169 2.903557  20.1237165 0.661027 3.266899  20.167282 17.218779 4.604146  20.2356660874 16.85569192765 5.08950850105  19.6344588642 16.6779625099 5.20296414205  20.2147165874 17.28192642765 5.23634250105  20.1882315 16.7925445 4.457312  19.6135093642 17.1041970099 5.34979814205  19.6609439516 17.16734443755 5.9819946431  17.526657 13.023386 6.725337  18.743945 13.0884255 5.9799355  18.17542597615 13.35230113845 6.87679951975  18.2748355 12.6942625 6.546450999999999  17.9957665 13.417549 6.1588215  18.464876 13.811712 5.592306  18.64453547615 13.74646413845 6.31028401975  19.023014 12.365139 6.367565  18.92360447615 13.02317763845 6.69791351975  22.530037 19.909445 8.632197  22.2144818863 18.97494971735 8.2196661266  22.7471718863 19.21665271735 8.246374126599999  22.348708 19.270282 8.827513  21.997347 19.667742 8.605488999999999  21.464657 19.426039 8.578780999999999  21.816018 19.028579 8.800805  22.5658428863 18.57748971735 8.441690126599999  22.9643067726 18.5238604347 7.8605512532  18.77709 2.607371 4.263141  18.4724200264 1.2681898142 4.360947399500001  18.2984945264 1.7466113142 3.9299053995  18.9510155 2.1289495 4.694183000000001  19.124941 1.650528 5.125225  18.9718077764 0.7734393142 3.4317843995  19.62432875 1.1557775 4.196062  21.66432050425 15.5094535906 6.2635100672  22.18424100425 15.5991815906 6.823009067199999  22.647135 15.3028295 6.290874499999999  22.4838085 15.706317 5.754518  22.290541 14.809614 6.267732  21.82764700425 15.1059660906 6.7998665672  22.1272145 15.2131015 5.7313755  18.049858 3.45362 2.331755  18.45788493275 2.8992725896 2.29267031585  18.83553693275 2.9219670896 2.73876181585  18.93453993275 3.1457370896 2.27882031585  18.42751 3.4763145 2.7778465  18.526513 3.7000845 2.317905  20.346846 16.467657 9.569544  20.3150335459 15.72522640165 9.40246538145  20.01751691495 16.36837682095 8.419790652850001  20.9935683052 16.000452983 9.192771796200001  17.936953 13.343987 8.928293  18.0174372109 13.43847720245 7.75807900645  18.38057397615 13.51260163845 7.97827751975  17.8123677109 13.89300720245 8.29008900645  18.1420225 12.889457 8.396283  18.347092 12.434927 7.864273  18.58564347615 13.05807163845 7.44626751975  17.6877824218 14.4420274049 7.6518850129  18.25598868705 14.0616218409 7.3400735262  18.6099943138 13.87302666295 8.586132237600001  19.2830356276 14.4020663259 8.2439714752  19.05361528995 14.0416413014 7.636116757350001  18.4854090247 14.4220468654 7.947928244050001  16.5807598241 1.5564272854 4.0359578235  17.02348824455 1.7144882701 3.443661667  16.7839593505 0.9154200995999999 3.639436223  16.19074806865 1.1030495555 3.0899064905  15.7480196482 0.9449885708 3.682202647  19.
[...]
<PointData  Vectors="u"> 
<DataArray  type="Float64"  Name="u"  NumberOfComponents="3" format="ascii">-5.1670044642443719e-08 -5.7538858019664645e-09 4.1582941850425275e-09  -7.9021291701793545e-08 -6.0980620898623327e-09 -2.3061450990918953e-10  -6.5808620855112743e-08 1.0291030300647235e-08 9.5714042541949265e-09  -5.6200909858400429e-08 -2.1134427271456546e-08 5.1615239678672216e-10  -7.8322619273537167e-08 -1.1640360683868520e-08 9.8414308400223517e-09  -8.4261412406672285e-08 -9.1423877599379088e-09 -1.3032875436597952e-10  -8.1434544180787259e-08 -1.6246133831918598e-10 7.4536682754927050e-09  -8.6920382434686929e-08 8.7048767616491767e-09 3.3128892369559399e-10  -8.5558510074447990e-08 1.1629467109599597e-09 3.0477040722706297e-09  -9.6903050462009648e-08 -2.7548087465961922e-09 -6.4154031668248611e-11  -1.0790634539359899e-07 2.8151575295045418e-08 -1.8162083969916428e-08  -8.0950401963296761e-08 2.7714959635939036e-08 -9.3359133122592109e-09  -8.9517679112212802e-08 3.2445734001212329e-08 1.1009719422025997e-08  -8.3939586370286359e-08 2.0775321931756004e-08 -7.8006966230801911e-09  -1.1574807492421208e-07 4.0330823178410621e-08 -2.2731628715798181e-08  -1.0908839030220683e-07 3.9388318956321562e-08 -3.1696623834990294e-08  -8.9450307294897259e-08 3.2258916622933153e-08 1.8964181601989109e-09  -7.1730178206866415e-08 1.8641615259836613e-08 -4.3137731908764182e-09  -7.8725000427944482e-08 2.2093325323309299e-08 -7.5223904596162183e-10  -7.9666973844838380e-08 2.5189721261814929e-08 4.8483354758796334e-09  -2.0819485012284342e-08 -2.2301032206850226e-08 2.8573026603945998e-08  -2.8997010608634569e-08 -9.6917745136621097e-09 2.2318845831856436e-08  -3.5226420419507065e-08 -1.8292447541136266e-08 2.5153251498474635e-08  -3.2822183778652748e-08 -2.1188424981318878e-08 3.9985949532915224e-08  -1.9084144726265184e-08 -9.7569610917395528e-09 1.4763177046417392e-08  -2.0949601779701661e-08 -2.6876654536517839e-09 4.0994802593959529e-09  -3.2853630732386884e-08 -7.3901294780118091e-09 1.2277286156311882e-08  -4.2947189155689293e-08 -1.3325463930599241e-08 4.8349623268651291e-08  -4.6423601709380321e-08 -1.5072789488949254e-08 3.4740357328490531e-08  -4.9636445276223163e-08 -1.3470863659264091e-08 1.9457323507030002e-08  -2.6122584658582729e-08 1.1269040577280104e-08 -8.0945579498989247e-09  -3.7416495845041948e-08 1.5836604326544321e-08 -5.9095147881720184e-09  -2.8372153740068654e-08 1.0776344289906668e-08 -4.2800788037244250e-09  -4.2613399012011368e-08 9.8979692855947974e-09 -4.9287927724280460e-09  -5.8164546969637253e-08 9.7166214255408528e-09 -1.1467638595024363e-09  -5.1756396503853847e-08 1.4261750791058655e-08 -7.1483064248478403e-09  -4.4609237537225021e-08 1.1784080865128369e-08 1.0902648576646181e-10  -2.9365724914534718e-08 1.1422798657915839e-08 3.1776085902868306e-10  -4.2210634848638527e-08 1.7798537365551419e-08 -1.3314852657531353e-08  -2.5792248680270097e-09 -2.6363639343214919e-09 6.2593333647940148e-09  -1.5336315844434724e-08 -3.4915661443545802e-09 5.4323235037255900e-09  -1.5982488383430266e-08 -7.9607253802043531e-09 1.4823364764346997e-08  -1.2308048668693340e-08 -2.5076038210587725e-09 6.0867491491290380e-09  -3.8653865437362015e-09 -6.2643746815166651e-09 5.9491369954097753e-09  -8.5562425251881048e-09 -1.3414501962203722e-08 1.7505680846087478e-08  -4.7993018017456265e-09 -8.5607129464983972e-09 1.6402939057298852e-08  -1.2830326617840691e-08 -1.4594449722440878e-08 3.0164570878638322e-08  -6.8554496781478117e-09 -8.1272824878005696e-09 5.0449156539070001e-09  -1.2592092430566942e-08 -6.5904098546615976e-09 -3.0640944990125346e-09  -2.5620943939830062e-08 -4.7487950571269171e-09 -4.9114240053756934e-10  -1.9093273743432313e-08 -4.0157749178160613e-09 2.0287010448702851e-09  -1.7370684862757325e-08 -6.7198718257882535e-09 -6.4318673464414699e-09  -2.2341137012583652e-08 -6.9572698072947956e-09 -9.4959007728084401e-09  -2.9112860239622827e-08 -5.1580218122693418e-09 -4.2916548934956088e-09  -2.3449022555860892e-08 -2.3803787852233912e-09 -1.7813233175136226e-09  -2.8867590216266456e-08 -4.5283106058138015e-09 3.7283428370650612e-09  -3.6768124160979222e-08 -5.1186920702909907e-09 3.5631801298736019e-09  -5.9003462853708054e-08 -1.4773044372942754e-08 -1.6250920633746020e-08  -8.0242795959904055e-08 -1.1218784599156430e-08 -9.9199527007346773e-09  -6.3245026733229912e-08 1.3956668786623294e-10 -2.6522852379268216e-09  -6.7952523893932781e-08 -1.9562587151055149e-08 -1.8477402573074851e-08  -7.2565013383531009e-08 -9.2610185679411731e-09 -1.1122133953566486e-08  -8.6653079982570048e-08 5.1202540316972745e-09 3.1356637986848410e-09  -6.5751334952457882e-08 -3.4830332901485721e-09 -3.5355369090668713e-09  -6.8535258138155727e-08 4.4623253163744232e-09 3.9758764922545144e-10  -7.2303058230157957e-08 -1.1100644888098174e-08 -1.9196790786218843e-08  -6.4931100543820569e-08 7.7641478316806602e-09 -1.8011610862237767e-09  -3.3578686278710558e-08 -9.4905605211192819e-09 -1.9406963986541564e-08  -5.3739308616258941e-08 -8.6183967631651483e-09 4.1099119852606508e-09  -5.4490122722362740e-08 -9.7606662395650578e-09 -1.1279582275911634e-08  -4.5537151108266307e-08 -9.4542898007475740e-09 -6.9658754066520667e-09  -5.5375757835461687e-08 -7.6176104259360519e-09 1.4324565489087465e-09  -8.1791198300369779e-08 1.8056457882953110e-08 3.7384339435550954e-09  -9.0615086920752966e-08 1.2113768912591908e-08 -1.7628611348889238e-08  -1.0135450664819395e-07 3.4756410484828453e-08 2.4098150628643528e-08  -7.5710404568210894e-08 1.1864131222955721e-09 -1.2500982120443641e-08  -7.2284676511025741e-08 1.2851200727017515e-08 -5.7959022367717017e-09  -8.7909993450214514e-08 1.3221158463176931e-08 1.3339348377694177e-09  -8.9418530712785786e-08 2.4577021940339174e-08 2.0678023401566636e-08  -2.6883319412752629e-08 -1.0373569481252419e-08 -1.4817003520793634e-08  -3.7555135200617803e-08 -9.2192904347175210e-09 -5.1382584192928056e-09  -3.3138449413787370e-08 -6.1002492852672475e-09 -4.3516340158099302e-09  -4.0458852227546082e-08 -7.6231138923698277e-09 -5.5215539568826380e-09  -3.0329727656959234e-08 -1.2317834999722691e-08 -1.7066845831356320e-08  -4.5232725797713045e-08 -6.6354209856261641e-09 3.4589436178060139e-09  -3.4655743892492494e-08 3.8339450320052856e-08 1.4471021912410824e-08  -3.7182456263197861e-08 3.4250215252470318e-08 7.4531914596909069e-09  -5.4502514625746773e-08 3.9540603282278904e-08 9.6599185117970437e-09  -4.6881807528497992e-08 3.9721675689234265e-08 1.2560687624873737e-09  -7.1082083423760099e-08 3.6755365428226176e-08 3.3948659423118958e-09  -5.3726892816971616e-08 3.3753483374945682e-08 3.1568978987893425e-09  -3.9576228205547907e-08 2.8555593004054244e-08 9.7725714408610045e-10  -1.3321607679071958e-07 -2.7770732097968706e-08 -3.7722727691411983e-09  -9.1890811615603563e-08 -2.5906920577087361e-08 -1.7374199025879667e-08  -9.9363818928811216e-08 -2.1602523088170308e-08 -8.1010065218625801e-09  -1.1253088199909048e-07 -3.7835984201729079e-08 -1.0953121989513694e-08  -1.1360695702863252e-07 -1.6688455353121590e-08 -9.9918549120551858e-09  -1.1338829275740954e-07 -1.1915708804063122e-08 -1.4867686502423282e-09  -1.0008546547451874e-07 -7.1193961767204373e-09 -8.2655599846505766e-09  -1.0182957121484342e-07 -8.2655049478965024e-09 -1.8267687013371608e-08  -9.3128863545116159e-08 -4.9025562417731124e-08 -1.2285941626674017e-08  -6.3892303446836576e-08 1.6901967053974671e-08 2.4447119466126624e-09  -6.6721109572939270e-08 1.5073630424030425e-08 1.0173232177198066e-09  -6.8058846723810245e-08 1.0107919456184716e-08 9.7485287116247327e-10  -6.2183109212212346e-08 8.9184512783667595e-09 -2.9075696213374919e-10  -7.0520489817038610e-08 1.3103242051830827e-08 3.2377841777508520e-09  -6.9497131936844819e-08 1.5314276054467278e-08 5.7136734037762377e-10  -6.6955993093929107e-08 1.2646189856738203e-08 7.0159814807905973e-10  -7.2523271618752404e-08 2.1766548738615000e-08 3.2110093123241716e-09  -1.3409140123148535e-07 -9.3910342338930478e-09 -5.9184485455977203e-09  -1.1473713746804506e-07 5.4140741336402239e-09 -1.8101311345906426e-08  -1.2375691958762674e-07 1.6360919658537557e-09 -4.8381763002872964e-09  -1.1717619830784004e-07 -8.6751130020826914e-09 -1.1845860101895945e-08  -1.4418388610621833e-07 8.4490938428766029e-09 -6.8871639608643656e-09  -1.3357968485802042e-07 -3.0871854750456403e-09 1.2823618135967234e-08  -1.2821780511681878e-07 1.0081327871784972e-09 1.5450858558312792e-08  -1.4016079433619005e-07 5.7417276568477356e-09 2.4092268999293407e-08  -1.6221885525020724e-07 2.3896379393054650e-08 -7.2215363360016923e-09  -7.1093551230046698e-08 3.1873457037293074e-09 -1.6496120771783129e-08  -6.3201951645383155e-08 -7.5763798213112102e-10 -4.8342483702543604e-09  -6.5149370125074078e-08 5.1075587078742767e-10 -4.0521356229728304e-09  -6.4674169946639090e-08 -5.2886622459179722e-09 -2.5079197642626912e-09  -6.4366722213550486e-08 -2.2874310601530739e-09 -1.1027742175934201e-08  -5.8446896786729886e-08 -4.7561907344394035e-09 4.8967388843056984e-10  -6.2784646702008124e-08 -6.1843733401985145e-09 -3.5913007766825859e-09  -6.4944930942641250e-08 -5.8122648143669479e-09 -5.3510145270233966e-09  -5.9830450645844787e-08 1.7140847684507446e-09 -3.9729209424683851e-10  -2.6197854057666387e-09 1.9935029612488362e-08 -1.0378431469736159e-08  -2.7070489300180705e-08 1.8334171413949781e-08 -3.9762707705029724e-09  -1.6245661716669349e-08 1.4394536391199151e-08 -2.1397575000325468e-09  -1.8927434633471851e-08 1.5719825161114350e-08 -7.1938729762448070e-09  -2.6491515671641465e-08 6.6986399573696361e-08 3.7043753208330852e-08  -5.9011589542652661e-08 4.2042076256474394e-08 1.0245407999313397e-08  -6.3168832459921183e-08 7.6665652940947674e-08 7.6363823323010466e-10  -6.6367004251982484e-08 9.7559150916595206e-08 7.7388996323713895e-08  -4.4823617516791985e-08 4.7100122881385153e-08 2.6656603072029611e-08  -4.2878634676770933e-08 4.6670508577454280e-08 -9.3220848769435613e-11  -5.6553094151149258e-08 3.4999574323179755e-08 4.8585016755042165e-09  -6.7948215991812338e-08 8.6695666100906668e-08 1.1672925547961663e-07  -7.2919561698134511e-08 6.2036515264069671e-08 4.1870683684432267e-08  -5.6072295206611081e-08 3.8647549456017586e-08 2.8216358099102591e-08  -2.2540596112345765e-08 -7.8645776804192624e-09 1.0021709854507841e-08  -2.5061939112078129e-08 -2.2712042390560988e-08 1.9089563360764548e-08  -2.1429999882825023e-08 -2.2351724952642870e-08 8.4054025639382745e-09  -3.5313690038466686e-08 -1.5255850981910837e-08 1.6812547633776826e-08  -8.8247988451414596e-08 -1.3647020706743136e-08 1.9470225559014740e-08  -5.3310624420007963e-08 -4.4729457489309516e-09 7.3684991667591065e-09  -6.4660848982775010e-08 -1.3164823604232140e-08 2.4413984836400140e-08  -9.2925586941199031e-08 -1.8301565907268489e-08 1.9328486669890501e-08  -6.7750914340777635e-08 -4.1733930825062169e-09 4.3514609380386589e-10  -7.2511389654820421e-08 -2.5251973211567424e-08 5.9534848000353548e-09  -6.1340965314773377e-08 -1.7218432929761326e-08 1.7662970128617795e-08  -6.1016562510856617e-08 -1.7773309261900693e-09 3.7289877671186666e-10  -4.1284903674186842e-08 -1.7295674542571994e-08 6.6609106510657533e-09  -6.7745535660589770e-08 -3.8505116370567217e-08 2.5159854943785757e-08  -3.8976460286216594e-08 -9.7878388198099396e-09 -2.0335461795956577e-08  -6.1387986177573743e-08 -4.4285507128404943e-08 3.0327805249602729e-08  -2.7751701662158530e-08 -2.9066102612526085e-08 -2.6573200506739124e-09  -5.1065406230116225e-08 -2.3252518462439307e-08 2.4522875241993922e-08  -1.0753115768112245e-08 1.3594892475304543e-08 8.9058432725980988e-09  -2.6882779832998715e-08 3.5965273024561218e-08 4.2553699244446805e-08  -6.7645310725584146e-09 4.6454637609260318e-08 5.0149779906474624e-08  -1.0531146782153716e-08 4.5327468998679085e-08 1.4606583284980201e-08  -3.0490703809275858e-08 3.1310041807194477e-08 2.5197261252346439e-08  5.9123380598463002e-09 3.3129431826122827e-08 3.1589598694438047e-08  2.0200102186073754e-09 3.5501693977005905e-08 4.7171317246818477e-08  -6.8089326928949450e-08 3.9362799732573289e-09 -2.6618457890930688e-09  -5.9704888472622198e-08 6.5760847649363279e-10 -5.3346420730543835e-09  -6.3579810750045653e-08 6.1263831242318882e-09 -5.4134483532480761e-09  -6.5851656070979504e-08 -7.3703830501374349e-09 -1.2975070563912125e-08  -8.5263268808728827e-08 -1.6653738411211541e-09 -1.4014742619875674e-09  -5.5850091100229794e-09 -5.7913953062519531e-10 -5.1175724286465113e-09  -1.7237206975901235e-08 6.0551833961525381e-09 -2.0727414596001900e-09  -7.6218017742847190e-10 9.1761623790966722e-09 -1.0282255107103330e-08  -1.7914350482803810e-08 8.6833786173374383e-09 -4.7576507851463383e-09  -1.0766875037965343e-07 -6.6439147344545892e-08 -3.8221204385570431e-08  -4.6409854912272401e-08 -7.5902458331802268e-08 -5.3110275949482107e-08  -6.6621398260821667e-08 -7.4857028200842525e-08 -5.0512393978882876e-08  -8.4369375226816249e-08 -3.9647413689978567e-08 -4.0688936953167427e-08  -8.8972359840203482e-08 -4.4893968619583949e-08 -3.0358987282528190e-08  -4.7693055994678311e-08 -6.5491688482703227e-08 -4.3370821520646183e-08  -5.0034300591227210e-08 -5.4407794420540636e-08 -5.0438198733338535e-08  -3.7545313281338003e-08 -5.4402329977120547e-08 -4.9820518592733803e-08  -6.4896493635701485e-08 1.1401906565477558e-08 -6.9070410430823399e-09  -5.8101830935613196e-08 1.2581289610730804e-08 -2.8387789449035253e-09  -6.3653210339968719e-08 1.7199137872999710e-08 -1.9609645990524597e-09  -6.1945807440375333e-08 5.5611286955004599e-09 -3.6423960783949363e-09  -6.1688974534989426e-08 1.9576310459305745e-08 -4.9941170681144903e-09  -6.3734232899063019e-08 1.0163267617259048e-08 -5.0997752061164097e-09  -6.1375110701181928e-08 5.6063129169924954e-09 -2.2458227765846035e-09  -1.0482188975569932e-07 3.5380186996882091e-08 -3.7406006894506748e-09  -7.8305279355196177e-08 4.8639824776337891e-08 1.6404313968218430e-08  -8.5936552012900934e-08 4.0560386447423083e-08 3.9979425730624824e-09  -9.0695244941361704e-08 4.1762793934021423e-08 7.7265924877976031e-09  -1.0070991179815887e-07 3.9709357413026831e-08 -3.5661489525533380e-09  -9.8110132416504482e-08 3.9458757970016442e-08 7.4773791889893110e-09  -7.9074824396775189e-08 3.8472520756192067e-08 8.6779463259132420e-09  -6.4691538482784811e-08 6.9184192922448633e-08 1.3447780551788592e-08  -7.4438602632953041e-08 4.4441479876169542e-08 7.3206581463957194e-09  -1.2812755109139581e-08 -2.7061305432209234e-09 9.0089639178749192e-10  -2.2017369016792206e-08 -5.4957807076434802e-09 3.6424868297650361e-09  -1.8036304497363616e-08 -4.0600755806343136e-09 8.6270003010193795e-09  -1.6080024264186489e-08 -5.7117847200849207e-09 1.8763123508209219e-10  -1.8106534474493403e-08 -5.0151505484210625e-09 -1.8600032836078139e-09  -1.6576527062634339e-08 -7.3084475545859236e-09 -9.5863144230834725e-09  -1.6046301193245631e-08 -4.7692757397292513e-09 -4.8648037238170746e-09  -1.8722088819033220e-08 -5.3687691367627213e-09 5.3640553888977592e-09  -2.1262551248543616e-08 -4.4642765928260792e-09 1.5478301296737126e-08  -1.2822075648863836e-07 -4.1635086066877575e-08 -3.0266097816390169e-08  -1.1226899550777716e-07 -1.4871243888671915e-08 -2.5862385940693775e-08  -1.1137170529462104e-07 -1.9583923747604627e-08 -2.1159387100583772e-08  -1.3569159470139183e-07 -3.5795580454005408e-08 -4.8698061641716833e-08  -1.2376263747194625e-07 -2.4547029850409000e-08 -8.4561728774384009e-08  -7.1827581887792174e-08 -2.4343288445288143e-08 -3.0076329442584284e-08  -7.7279151917860855e-08 -3.5945665519549508e-08 -5.6111099575512056e-08  -2.3061913745972543e-08 8.1225109438859853e-09 7.4717049874508124e-09  -1.8515623693850696e-08 -3.9081625496228772e-10 2.0214718991719755e-09  -4.9838887834619483e-09 -9.3167234597786499e-09 -1.1740880726743683e-09  -1.2653045528574526e-08 -1.7794036031269259e-08 -3.5197446658032028e-09  1.0589057053772122e-09 1.0184427806414204e-08 5.8117923057322965e-09  -1.7457745423037190e-08 1.0561817843893764e-08 4.2201669069428232e-09  1.8049430909790401e-09 1.2219652935880430e-08 9.1338282507369451e-09  -1.3306841883013789e-07 -5.1828044914696447e-08 -1.9289563816967020e-09  -1.0969529664061998e-07 -4.7881238387103805e-08 -7.0399812509578540e-09  -1.0436240696502373e-07 -5.0601731799256162e-08 -1.2502094038898630e-08  -1.0150769620185223e-07 -5.6397567292963164e-08 -7.8582727337127691e-09  -1.2097971923329781e-07 -5.1837912687986572e-08 -7.0993394950407340e-09  -1.1641383658327394e-07 -5.7958813165786357e-08 -1.6323828395478372e-09  -4.3085363666520781e-08 -1.0945326503575033e-09 -1.7726867254908187e-08  -4.3957671438552943e-08 1.0207208745655584e-08 -1.5951864061554079e-08  -5.3537823023191695e-08 4.1293183360098329e-09 -1.0304338363607558e-08  -3.3243210250287029e-08 6.7794742883442589e-09 -1.1584828341842692e-08  -9.3239964954947573e-08 3.4356518797024254e-08 -1.2126647258091520e-08  -8.4335978710337905e-08 3.2636218883381651e-08 -1.7724462861276187e-09  -7.7381167728107133e-08 3.4994404198940853e-08 -4.5337395144634267e-09  -8.3845873850407418e-08 2.7618600545253202e-08 -4.3901984899630454e-09  -1.0043162002126306e-07 4.0385271576397613e-08 -7.2537195414156800e-09  -9.1079713131286213e-08 7.1998124025268972e-08 -6.9508282493897313e-09  -7.7635473294077334e-08 4.5465061595474154e-08 -1.7643608401118165e-10  -7.9906454514942014e-08 2.2605262311318821e-08 -1.9151555278680983e-09  -7.7064411779476501e-08 2.9295074814008948e-08 -7.7778567323029208e-10  -7.2780273006768010e-08 3.2799106827696497e-08 -1.0616453906506827e-08  -6.0208239012001834e-08 2.7780205196839142e-08 -5.7764405783567404e-09  -6.4061627024847942e-08 3.1659115394574416e-08 -1.1121106001454010e-09  -7.2469437566797598e-08 2.6864465745000686e-08 -3.6797020511568781e-09  -1.2310216566419708e-07 3.2825882617170425e-09 7.2838337249857266e-09  -1.1428532187478365e-07 -4.0758222759292278e-09 -1.7313048000838996e-09  -1.0977583051241090e-07 -5.4820516645110504e-10 1.0128238458261647e-09  -9.8720634502326216e-08 2.0612279915321030e-09 6.1643189523586523e-09  -1.0081087480255822e-07 4.2958825289607280e-09 1.8626745700795409e-08  -5.2646124565013619e-08 5.0779057483005466e-08 5.1394722313673172e-09  -8.2477763799766053e-08 7.4634703713680885e-08 -2.8367624282419135e-09  -4.5049184992235326e-08 1.1199128267381627e-09 3.7793341069183642e-09  -4.1883048243808522e-08 -7.8027105070382143e-09 1.1558353257997335e-08  -4.1025104190971372e-08 -3.5287325896228675e-09 3.0517855327241374e-09  -5.0583261540479393e-08 -3.6525347565704047e-09 2.3285334530848476e-09  -4.5290806700408490e-08 -5.3773420515778402e-09 8.3887261828048311e-09  -5.2234800307966231e-08 -7.9700928503401782e-09 1.1127771882737995e-08  -6.9968795424766092e-08 4.3343483749267900e-08 4.5169446876931552e-08  -4.4811600148936671e-08 3.3930181536120843e-08 2.5224757635751978e-08  -6.4158649821040705e-08 4.1025945190122446e-08 3.9085828798174421e-08  -5.6450244700779683e-08 3.5837666142465342e-08 2.2194323344613777e-08  -4.9717989448837427e-08 2.4430249714040676e-08 8.2317804786828162e-09  -5.1655745247399885e-08 2.8015975761121379e-08 1.5403683701959373e-08  -4.2883259299363791e-08 3.1913467116885533e-08 1.1872131323961847e-08  -5.8216748897158931e-08 2.2583957518506678e-08 -2.8480681998816483e-08  -6.0278888397509926e-08 1.7341438029349467e-08 -2.2252245106990477e-08  -6.8234755232465916e-08 2.1379260097348424e-08 -1.4154314343063616e-08  -7.2308983227628531e-08 2.9638452235418434e-08 -1.7329743966061416e-08  -5.1896634624928170e-08 2.3128776538750521e-08 -9.7151660162313462e-09  -6.9780685635455145e-08 4.0232239808274334e-08 1.5046941909824257e-08  -8.1163421772968402e-08 4.3445575081776119e-08 2.6733597068111346e-08  -6.7057401951902510e-08 3.2383309000049825e-08 1.3198144277710391e-08  -5.9812224595947419e-08 3.0360620898622668e-08 6.3906626836286762e-09  -5.5263438164976836e-08 1.9306376696036131e-08 5.1949360321889492e-09  -6.2956913323724943e-08 2.4346947236170146e-08 7.0096768056265065e-09  -5.3782967035429461e-08 1.6376634