<?xml version="1.0"?>
<VTKFile type="UnstructuredGrid"  version="0.1"  >
<UnstructuredGrid>
<Piece  NumberOfPoints="5743" NumberOfCells="25316">
<Points>
<DataArray  type="Float64"  NumberOfComponents="3"  format="ascii">5.8501391092 24.4455466431 34.1337480361  4.9827144316 23.70839258515 34.14328635605  4.95660982105 24.1410367884 33.39491756505  5.17098302215 24.51275516935 33.92347488595  5.44749731755 23.26946567795 33.8250021853  5.66187051865 23.6411840589 34.3535595062  5.6357659081 24.07382826215 33.6051907152  5.421392707 23.7021098812 33.0766333943  5.4736019281 22.8368214747 34.5733709763  4.4918269351 24.5799636956 33.7132017358  4.1862711582 25.3797907013 38.7368185165  4.099888778 24.6141037812 37.92093626185  3.85908789315 24.80873283665 37.46280142945  4.44826258795 25.1138118823 37.96853284435  3.5970964634 25.07471165565 38.2310871016  3.83789734825 24.8800826002 38.689221934  3.0079217686 24.76963261 37.7253556867  3.24872265345 24.57500355455 38.1834905191  3.4895235383 24.3803744991 38.6416253515  4.7102540177 24.8478330633 37.2002471722  6.0027412167 24.4911885865 38.0157921498  5.3704773416 23.4752051311 37.94930044785  5.3248365108 24.1453917814 38.10592351584999  5.99132274065 24.02115831635 38.3422266748  6.0483820475 23.8210019362 37.8591690818  5.9799042646 23.5511280462 38.6686611998  5.313418034750001 23.67536151125 38.43235804085  6.03696357145 23.35097166605 38.1856036068  6.0940228783 23.1508152859 37.7025460138  4.6469318049 23.7995949763 38.1960548819  1.5256032908 22.4908413448 36.1192737632  1.77341962075 22.68366287035 35.1997863803  2.2212668813 22.8185210325 35.83496898275  2.2654998191 22.1338913268 35.3861075003  3.0053963474 21.7769413088 34.6529412374  2.51331614905 22.32671285235 34.4666201174  2.9611634096 22.4615710145 35.10180271985  2.9169304718 23.1462007202 35.5506642023  2.46908321125 23.01134255805 34.91548159985  2.0212359507 22.8764843959 34.2802989974  3.5119213153 24.4788372802 34.7473668684  3.44326844945 25.0154381294 35.3247664645  3.5926935248 24.3312023953 35.59358763795  4.10554503125 24.73608744215 35.16601933840001  4.6991687472 24.9933376041 35.5846718084  4.036892165399999 25.27268829135 35.7434189345  4.18631724075 24.58845255725 36.01224010795001  3.6734657343 24.1835675104 36.4398084075  3.52404065895 24.8678032445 36.17098723405  3.3746155836 25.5520389786 35.9021660606  1.7065535264 19.6648751104 35.4470102454  2.1831202527 19.89547906915 34.46979661535  2.3404339037 19.98036468235 35.0202304896  2.0098758953 19.3197336821 35.08211024525  1.5492398754 19.5799894972 34.89657637115  1.3919262244 19.495103884 34.3461424969  1.8525622443 19.2348480689 34.531676371  2.3131982642 18.9745922538 34.7172102451  2.6437562726 19.63522325405 34.65533048944999  2.974314281 20.2958542543 34.5934507338  1.7242991263 20.48558325155 34.81662728885  1.5669854753 20.40069763835 34.2661934146  1.7420447262 21.3062913927 34.1862443323  2.3581795036 20.8010728235 34.38984753305  4.98787212815 24.662534996 38.2064862121  4.41660148155 24.5896928388 38.4664366992  4.7258806984 24.928513815 38.97477188425  5.2654902386 24.4772369287 39.212725252  4.956211021750001 24.1384159525 38.70439006695  4.6785929113 24.3237140198 37.69815102705  2.9077847917 20.6364973624 38.5112500604  3.59355544965 21.03845897345 37.7866668072  3.7066030133 21.03540441625 38.37110931375  3.2718535395 21.2795635438 38.3642283094  3.3425342655 20.39233823485 38.51813106475  3.22948670185 20.39539279205 37.9336885582  3.7772837393 20.1481791073 38.5250120691  3.66423617565 20.1512336645 37.94056956255  3.551188612 20.1542882217 37.356127056  3.6359222873 21.9226297252 38.2172065584  0.7115317819 20.5353666447 34.8019494304  1.22678825405 20.9208290187 34.49409688135  1.05172900315 20.01523526435 34.57404596365  1.20904265415 20.10012087755 35.1244798379  -0.6561989643999999 20.3413729464 33.8452252123  0.5429228809000001 20.82383216955 34.0157347723  0.36786363 19.9182384152 34.0956838546  0.41816630555 20.2065673412 33.5901869346  1.4925315755 20.071761736 33.3351486569  1.61728815085 20.68902656435 33.7606964946  1.44222889995 19.78343281 33.8406455769  1.6338240085 21.89856636875 35.15275904775  1.4380215835 21.70645232215 35.97344779674999  1.3504398762 20.9220632995 35.8276218303  1.5462423012 21.1141773461 35.0069330813  2.1779181118 21.34950230415 35.24028153384999  2.3737205368 21.54161635075 34.41959278485  -0.6561989643999999 21.5190129034 33.9990577842  0.003402599250000027 20.69854113065 33.56621982585  -0.6561989643999999 20.9301929249 33.92214149825  0.003402599250000027 21.28736110915 33.6431361118  0.5429228809000001 21.41265214805 34.09265105825  0.6630041629 21.0557093149 33.2872144394  1.20252444455 21.1810003538 33.73672938585  2.4632764339 20.1664210059 36.4602981034  3.12281395585 20.37587786895 36.0087949077  2.71879535745 20.2311376301 35.5268744186  2.73433639065 20.97168115735 35.5566196704  3.3938739126 21.1811380204 35.1051164747  2.9898553142 21.03639778155 34.6231959856  3.3783328794 20.44059449315 35.0753712229  3.7823514778 20.585334732 35.557291712  4.5281355741 21.4276818514 40.6433994556  4.0820289307 21.6751557883 39.430303007  4.3627075503 20.96771203565 39.912785713  4.946127265099999 21.1719429526 39.77550806825  5.3641189561 20.9162040538 38.9076166809  4.5000206217 21.4194168895 38.56241161965  4.7806992413 20.71197313685 39.04489432565  4.1972795265 20.5077422199 39.1821719704  3.9166009069 21.21518597255 38.6996892644  4.1601987696 23.99158124335 37.3179316447  3.34069375145 24.4766000602 37.0825820471  3.82742678675 24.28461379315 37.9607052843  4.191859876 24.51570028685 36.82002778985  4.4520642258 23.4739830587 40.6433994556  4.04399325655 22.69830639195 39.430303007  4.68041036775 22.9395511627 40.6433994556  3.99702329655 22.94144928725 40.6433994556  3.5419823673 22.4089155158 40.6433994556  4.2723393985 22.16387449595 39.430303007  3.5889523273 22.1657726205 39.430303007  4.2253694385 22.40701739125 40.6433994556  4.9087565097 22.4051192667 40.6433994556  1.0420056603 24.6007923208 33.2368134252  1.66889119875 23.95155123345 33.36758169945  0.937281134 23.67146957705 33.19534286475  1.06568862285 24.1326588044 32.86434214655  0.9135981714500001 24.13960309345 33.5678141434  1.6452082362 24.41968474985 33.7400529781  0.7851906826 23.6784138661 33.8988148616  1.51680074735 23.9584955225 34.0710536963  1.0893715854 23.664525288 32.4918708679  2.2484108121 24.2385771789 34.243292531  2.1851571376 22.2488398579 38.3090294978  2.9673629948 21.72970082055 38.4830973552  3.0549948678 21.58492003335 37.8956999442  2.91053971245 22.08573479155 38.2631180281  2.24198041995 21.8928058869 38.5290088249  2.32961229295 21.7480250997 37.9416114139  2.4740674483 21.2472103415 37.57419333  2.3864355753 21.3919911287 38.161590741  2.2988037023 21.5367719159 38.748988152  4.0682276716 24.0899847377 38.4188401167  5.913977907 21.3548673471 38.0312606368  4.77495009715 21.63874853615 38.1242335976  5.63904843155 21.13553570045 38.46943865885  5.83031903825 21.5646384746 38.60896320854999  5.7466601695 21.7744096021 39.1866657803  4.6912912284 21.84851966365 38.70193616935  5.5553895628 21.34530682795 39.0471412306  5.09450618745 24.9354896439 38.37630533315  5.63411572765 24.4842127576 38.6142587009  5.3564976172 24.6695108249 37.608019661  4.0018741252 24.5294004879 34.2302843021  3.18414277335 24.29317403975 33.878586461  3.769870545 25.14365922545 33.94949022015  4.0278197747 25.8084811707 33.1516135719  4.2598233549 25.19422243315 33.43240765385  3.44209200305 24.957995985 33.08070981275  2.8563642314 24.1075107993 33.0098060536  3.67409558325 24.34373724745 33.3615038947  5.9507492063 24.1101722362 35.5867002565  5.330501612 24.47900264975 36.39347371435  4.8121074703 24.1468698733 36.013254332  5.324958976750001 24.55175492015 35.58568603245  4.70471138245 24.9205853337 36.3924594903  2.0520219894 25.2922834848 36.4943351051  3.1912686761 25.1608357943 36.81376087365  2.7133187865 25.4221612317 36.19825058285  2.86274386185 24.7379254976 36.4670717563  2.529971879 25.0309580474 37.1098453959  3.022934339 21.2049796369 40.6433994556  3.16783826 20.77638769295 39.9058996389  3.61010693275 20.8563609284 39.912785713  2.96535956535 20.92073849965 39.577324758  3.11026348635 20.4921465557 38.8398249413  3.5525321591 20.57211979115 38.8467110154  3.75501085375 20.42776898445 39.1752858963  3.312742181 20.347795749 39.1683998222  4.86531291175 25.6315045103 38.7988872241  5.5443546653 25.8832183193 38.8609559317  5.773547941 25.1872034529 38.43837404075  5.40492245195 25.180227624 39.03684059184999  4.04243480065 25.19993602095 36.5512066164  3.6198366148 23.85725681385 37.4676228561  2.8095134511 24.0614594957 37.95749126135  3.86063749965 23.6626277584 37.9257576885  3.05031433595 23.86683044025 38.41562609375  2.6111051336 23.3532863814 38.189626836  3.4214282973 23.14908369955 37.69975843075  4.231751461 22.9448810177 37.2098900255  2.1444175736 22.4181973137 37.2572277058  2.5306740227 22.78219901695 36.40394595405  2.9054042428 21.98813635385 36.82739101025  3.1880845173 22.6815391657 37.23355886565  3.5743409664 23.04554086895 36.3802771139  3.9490711865 22.25147820585 36.8037221701  3.666390912 21.558075394 36.3975543147  3.2916606919 22.3521380571 35.9741092585  5.3801699452 23.1115406254 38.3135274098  5.149785184900001 23.41080786005 39.41972716875  6.04665617505 22.98730716035 38.54983056875  5.8830233252 22.72275350915 39.53719969665  5.81627141475 23.286574395 39.65603032769999  5.6526385649 23.0220207438 40.6433994556  6.1134080855 22.4234862745 38.4309999377  5.5957053663 25.44811681855 37.532550553  5.1273043415 25.3655256913 38.03060155195  6.012755690100001 25.96580944655 38.36290493275  6.4811567149 26.0484005738 37.8648539338  6.2419489658 25.26979458015 37.9403230418  5.5097520807 20.9585807944 36.6672055071  4.28626627115 20.99124479125 37.1470216958  4.73933717345 20.1865266799 37.17452366374999  5.04114239865 20.45360998285 36.5598818788
[...]
<PointData  Vectors="u"> 
<DataArray  type="Float64"  Name="u"  NumberOfComponents="3" format="ascii">4.1300763763335508e+00 5.4552582996755961e+00 2.7603503014853320e+01  5.1472015397516282e+00 2.0241442461766290e+00 2.2181314038855756e+01  5.0927784707882591e+00 -1.3434703429013086e+00 2.8017803958062022e+01  5.3115087939923775e+00 4.7727684292286723e+00 2.8808217636714907e+01  4.5337748336493444e+00 -5.3022449554220585e-01 2.1468183601618453e+01  4.7126914034451621e+00 3.8691450254364512e+00 2.1323625022798844e+01  5.2795501019360058e+00 2.8044419430921924e-01 2.8275442091354908e+01  2.8096759511467506e-01 -4.7494615716298210e+00 2.6551494702970089e+01  3.7996701183224011e+00 1.8767394399949766e+00 1.6513517992436128e+01  6.4791847775123905e+00 2.6930303469354908e+00 2.9938137556863865e+01  1.2000769669147658e+01 3.9047232678325244e+01 -3.9585812662895008e+00  9.4925229628997307e+00 2.2201030607383565e+01 4.0969749785351004e+00  1.0346397496632500e+01 2.1691136046377142e+01 9.6189483975053740e+00  1.1611037707699698e+01 3.0938436461082240e+01 5.9543837477533224e+00  1.1865842131648211e+01 2.9075018650271382e+01 2.3924683036511021e+00  1.1067236110125959e+01 2.4283147196959018e+01 -4.7326020700210218e+00  1.0496626883106243e+01 1.9279632465069447e+01 6.6958116723432415e+00  1.0768991929112376e+01 1.7123223226712916e+01 1.1191820757113182e+00  8.6445672641354587e+00 1.5721469505033543e+01 -1.5320956055294614e+00  9.6936541656196304e+00 2.5623371828546581e+01 1.1882560284654934e+01  3.1939752997708148e+00 3.4468235179207362e+01 -3.6948466918334727e-01  1.6672516488401179e+00 1.3951890543874688e+01 2.9664958670390815e+00  2.3359626032745111e+00 2.3001113528350732e+01 2.6688076716106673e-01  -3.0624108698816963e+00 1.9019783168149427e+01 -5.6171068965765754e+00  -1.0171898995653299e+00 1.8487540292436989e+01 2.0037489692692505e+00  -1.7455679524740324e+00 1.1005208188914651e+01 -3.8658791556095338e+00  1.2375729474882575e+00 1.5506376336900102e+01 -8.7181967956697404e-01  -1.0075669265461396e+00 1.3304578929131152e+01 8.8837595284943505e-01  -1.3534443541085980e-01 1.1553776315714797e+01 3.3819485791992339e+00  4.1298561192092462e+00 1.5587204079617560e+01 1.1367164547376218e+00  6.9564447858104366e+00 2.4739106309859618e+00 1.0054783570105110e+01  4.9333780966973988e+00 7.3656370688718298e-01 1.1169905359769247e+01  5.8484227056361666e+00 3.1198149014959466e+00 1.1697562370964652e+01  4.5999493062732970e+00 8.8351815475376305e-01 1.0128501466001339e+01  3.8616689207772898e+00 -1.6193832497827410e+00 1.0351629648238330e+01  3.6170957766407450e+00 -2.1865317403838254e+00 1.2679087532481962e+01  4.6134662383466587e+00 1.0304866623482334e+00 1.2336803257802954e+01  5.6633104078153913e+00 4.2977197695647833e+00 1.3688446772847495e+01  4.6673502270245173e+00 1.1808630691451087e+00 1.4571599807230760e+01  2.6255419181319959e+00 -2.5114450384417322e+00 1.5206123511619939e+01  6.7985922280124100e+00 7.3318859228005682e+00 2.3651838200385672e+01  8.7361821956726295e+00 1.2853698759051454e+01 2.2917882827558959e+01  7.4873203171128644e+00 1.0717052517416125e+01 1.8563213056691332e+01  7.8011259061370675e+00 1.2189655694541150e+01 2.3381310664548380e+01  8.6333737432385149e+00 1.7751516235160938e+01 2.3230015256374063e+01  1.0312662200616629e+01 1.8002066452889441e+01 2.2719857763889220e+01  8.3277716343786352e+00 1.5785777971925947e+01 1.8092911338621075e+01  7.8609524563607263e+00 1.3374116230144899e+01 1.3867389995677659e+01  9.6446026027466836e+00 1.6081918041105556e+01 1.7625610581516781e+01  1.1127200690669449e+01 1.8135912869693275e+01 2.1779282526167673e+01  2.9556497587891863e+00 1.9397466894437224e-01 3.2215233994334729e+00  2.6691871152573401e+00 -1.6631700815322703e+00 3.7763954190800959e+00  3.0449102478975312e+00 -3.3124673945391953e-01 4.3499247696421488e+00  2.3696224366783225e+00 -7.9689298333755113e-02 2.8968916269226423e+00  2.4973833323496151e+00 -9.4698163641305455e-01 3.4632363251642584e+00  3.2362694914022700e+00 -1.6945910338034613e+00 2.4792463869667372e+00  2.5560181790030425e+00 -1.4812363239587376e+00 2.3189878515622557e+00  2.0053263815199887e+00 -3.9335890992237232e-01 2.0158290232128357e+00  2.5876551801701262e+00 -7.0535797075745510e-01 3.4274870602418748e+00  2.8936841378576879e+00 -1.0365024989965332e+00 5.2148595353076805e+00  3.0875526351072597e+00 -1.3524420895886171e+00 4.9772008116514543e+00  2.4817791573675581e+00 -2.5346492740580491e+00 4.3237525614239836e+00  1.8387445492152819e+00 -3.7466478312147484e+00 7.4442954898613651e+00  3.0689612707712515e+00 -2.6475621557878726e+00 6.1279916022604377e+00  7.9406649500235762e+00 2.9071344782748223e+01 1.0441421068862033e+00  8.3978600261376819e+00 2.4526206504660610e+01 -2.2204953738338467e+00  1.1143491641212762e+01 3.1334649133881577e+01 -1.3396319801932917e+01  1.9276707834355697e+00 2.3978882887551084e+01 -1.3674315600613978e+01  3.2601009826575136e+00 1.9371734173540400e+01 -4.9284546231706585e+00  6.7019763092716236e+00 2.1944839856814841e+01 5.6690885155478785e+00  -3.0351453957179375e-01 3.6451364792342106e-01 4.4871326106610248e+00  1.4588890708347930e+00 2.1599797967871663e+00 7.0770927367057430e+00  1.0869322343600145e+00 2.0457062847988596e+00 5.0199629482521280e+00  8.6985573943251082e-01 2.0720731512339658e+00 5.0086425970100068e+00  -6.0481208449358968e-02 2.8738780988394874e-01 4.9367325442662784e+00  -1.4373558487814657e+00 -2.3549588110760189e-01 7.3242110199066461e+00  4.4493592312417790e-01 3.8710171733308579e-01 4.1906681760612861e+00  9.1485548704421193e-01 -1.2272052416063875e-01 7.2115378536753898e+00  2.5139219580154961e+00 2.7256020995818280e+00 9.7783600478902795e+00  2.2549973486675401e+00 4.2804968803810270e+00 4.9791313633874319e+00  3.9025366278742255e+00 -1.1033710731316397e+00 3.4182149105217610e+00  2.6415547657037082e+00 -2.3032943946667119e+00 4.9024276347521347e+00  3.9323608080355710e+00 -1.0956656938370102e+00 3.3953729089748506e+00  3.2290400629430440e+00 -1.3992719677303211e+00 4.1455518731565437e+00  1.2206354018011871e-01 -1.9570640090744443e-01 -4.3900066590301007e-01  9.8494535626389268e-01 -2.1867732033859353e+00 2.1067285418130082e+00  2.4836746135396743e+00 -4.8848046850006721e-01 5.7193356369969284e-01  1.0755307405983348e+00 -1.1469608894306726e+00 3.2794361247430182e-01  8.9777388656262369e-01 -3.6200344008423833e+00 2.1157207443872164e+00  1.3845986287718524e+00 -4.3430503456520206e+00 4.7061696623541298e+00  2.6327760729911782e+00 -2.5869289635355357e+00 2.8677799357014311e+00  4.2457001891346140e+00 -3.6060104380712399e-01 8.3508596232211278e+00  6.2533752244460574e+00 1.2158904138786517e+00 7.6026843127838362e+00  4.7877778127305692e+00 6.9091349354464993e-01 5.5757134874353245e+00  3.4548545104162613e+00 -1.1237422431409443e+00 6.3152095359794105e+00  4.0043226047076574e+00 -2.3778907451122236e-01 7.9990292804861598e+00  3.0276833727393839e+00 -2.7189015303574542e+00 9.0394487436575695e+00  -2.2851448335281660e-01 -1.7148890439288287e+00 -8.1737518890881544e-01  1.4397058235595822e-01 -1.3127625301132526e+00 -1.8957865671604521e-01  -1.0610658862112830e-01 -1.3678512274631986e+00 -4.3583383618203131e-01  -9.7220192053928634e-01 -2.6910105793052774e+00 4.1032888492238551e-01  6.0323687258388903e-01 -2.6092827066386248e+00 2.7802164191308947e+00  -2.5821442149411347e+00 -4.2376442170638695e+00 1.6462920240026633e+00  -3.2858610462707671e-01 -4.6886485469182357e+00 5.3485088160408836e+00  4.3436798335277604e+00 3.0442478703763336e+00 6.8504352269923503e+00  3.4020997759861218e+00 2.1492490773458131e+00 6.8541211392732997e+00  3.4441939676802291e+00 1.0098920442789132e+00 5.5953135766549496e+00  3.8117528160483971e+00 9.8401342723133511e-01 7.3350327239900848e+00  3.4485977734677351e+00 1.4282103064716545e-01 8.0032029965032496e+00  3.3790090679603439e+00 -1.7852493824436357e+00 7.3821806089866682e+00  2.9594551543678618e+00 1.7710263454812938e-01 5.9810534924011733e+00  2.8762340614142410e+00 1.6251918814291963e+00 6.9153690604440836e+00  8.7823269376461177e-01 1.0568807070989017e+00 4.6191956583490135e-01  1.3581350274334123e+00 2.9031403452737377e+00 2.0879146833359004e+00  1.1328481684198268e+00 1.5594310833474736e+00 2.2813570640940659e+00  7.8146429687011720e-01 2.0525146917292894e+00 1.9328832832787719e+00  1.0063379894191808e+00 2.0813327804472594e+00 2.7887037217339268e+00  1.5702291536904032e+00 3.2868529444962418e+00 3.8344809879747181e+00  1.3093947888456265e+00 1.9164277994200294e+00 3.1713074799043532e+00  9.1996145603335300e-01 1.6257507719307320e+00 3.0904811756323731e+00  1.2964088164265399e+00 2.5019901788550962e+00 4.0034208917155585e+00  6.7678729923054481e+00 1.5734675828172781e+01 8.2332418960592850e+00  9.2742412233527904e+00 1.6093272146113396e+01 1.0969557031950799e+01  8.2373362222168947e+00 1.8100970543759974e+01 3.7823624860199532e+00  8.5211429455112206e+00 1.8682184933938466e+01 1.2991023129153072e+01  1.2588878785573019e+00 2.4472206923191542e+00 -1.8430808343507252e+00  2.1276519012481994e+00 4.9102356446577771e+00 4.3065881367063674e-01  1.1121339046433092e+00 2.5747262522115486e+00 -4.6310610470431568e-01  2.1368844491230190e+00 3.0902414475303477e+00 -5.4970335583386820e-01  1.6951740926693242e+00 2.2132899365605274e+00 -9.9910441517944149e-02  1.7198008841636365e+00 4.0017415676814840e+00 1.3271678244529119e+00  1.8181607691732944e+00 3.2721135107285719e+00 1.6275017423491658e+00  1.4892170266470728e+00 2.7906149092583266e+00 -4.1417497806012005e-02  1.5515557437724536e+00 2.6818234514000938e+00 1.7600457644663503e-01  -6.8859087584888385e+00 -1.0955823046090900e+00 3.0136054573792158e+01  -1.1543255259398395e+00 -4.8401317558805461e+00 2.7428365603059447e+01  -6.1313205428571447e+00 -7.7158303677215585e+00 2.3651569195256059e+01  -8.5781873694864430e+00 -7.3218352243264455e+00 3.2606947328818521e+01  -3.5821951992317915e+00 -3.4559563595947385e+00 2.2666343727062522e+01  1.9798340305938120e-01 1.2993776469250248e-01 2.6825156018332368e+01  -4.5073519346841984e+00 -4.0869789514471613e+00 1.5357567638921708e+01  1.2091068664412323e+00 -5.8504929566312935e-01 2.0537378912250855e+01  -1.1080635202796978e+01 -1.4066740250223990e+01 3.5558000207490565e+01  3.8821461599919975e+00 2.1301474151717659e+00 2.3181111010061002e+01  7.7315324386766104e-01 1.9474327938085594e+00 4.7723402667134946e+00  1.1075058667343034e+00 2.5403225270278615e+00 4.5840603720120585e+00  1.3909944571628561e+00 2.7617979573790334e+00 6.9606289747907066e+00  1.8386902188123828e+00 3.3211173586064349e+00 5.0813036606924173e+00  1.0255489031191495e-02 1.4751368198397454e+00 3.7595658438515751e+00  -1.4752398738869139e+00 1.8906039972495949e+00 7.4313053117069314e+00  1.9186621438667488e+00 2.6647154097494163e+00 1.0437747337866027e+01  -7.3865855505432598e-01 1.1526341564853906e+00 6.1770744362320169e+00  1.6793658496579386e-01 9.4283697516708542e-01 3.5839307903899718e+00  6.4111537042131603e+00 1.6462475984501822e+01 4.0043119000421090e-01  1.4206230278328547e+00 3.1080641516349217e+00 3.7290180263745674e+00  1.9771964655644565e+00 4.2932065611910470e+00 4.4707660781385936e+00  1.2854361789880724e+00 2.2010273816029837e+00 2.9041682585987192e+00  7.7881788355819137e-01 3.7499337208604402e+00 2.8006022215951440e+00  8.1916539317454495e-01 4.0977068179802405e+00 1.8582604499759596e+00  1.6426603623478975e+00 4.4459073818930452e+00 3.0105046478859827e+00  8.7781104855109182e-01 3.2680850645797053e+00 2.2519418552182011e+00  9.1479816523858659e+00 3.4182242209988587e+01 -1.7007253322136793e+00  -4.9327299049991152e-01 3.2779792488129424e+01 -6.8130145927716361e+00  7.4901425409767874e+00 2.9683940445685707e+01 7.1054509148685616e+00  6.7504647327162814e+00 5.2718546958849597e+00 2.7157792038107296e+01  5.8035081050384800e+00 6.5791568491194308e-01 2.7450813542745802e+01  7.5295730343258809e+00 6.2675524373863327e+00 3.2869836487116636e+01  1.0269538316221983e+01 4.3396075965568492e+00 4.3812196627462981e+01  8.0803326335887196e+00 3.7576090882359727e+00 3.6061707380500629e+01  7.8019402603789452e+00 -1.7425803663353658e+00 3.8079360566284151e+01  5.3665514451769480e+00 -6.8430592776068888e+00 3.3296200857960663e+01  6.9297213948205156e+00 -2.2490793615767379e+00 3.1101717917432314e+01  3.7340226729094694e+00 1.3290686961446987e+01 1.7983440051453794e+01  5.8418062090751599e+00 2.1078108923257759e+01 1.6137682106688779e+01  6.1627623296392660e+00 1.4402134100382895e+01 1.6426563528248852e+01  5.9317779569666813e+00 1.6479707707921094e+01 2.1078876039879859e+01  9.4015003964073127e+00 2.1947612456121515e+01 1.8038435648596462e+01  1.2082320022895036e+01 1.6293307932941222e+01 1.4119079172571348e+01  1.1663858675953653e+01 1.9011840480128427e+01 1.4815365549329909e+01  1.1245104846727731e+01 1.6834458561490575e+01 1.7955998603470675e+01  1.0230655710098739e+01 1.4456589546901922e+01 1.4760862727095713e+01  1.2556235837200985e+01 1.6925541433496775e+01 1.2750789931308699e+01  3.2606288007501782e-01 2.1550122316057471e-01 5.5189588093730102e-01  -2.2756194221208159e-01 1.3907176122675970e+00 2.2455594453267347e+00  7.3260381007503361e-01 1.3699410068688982e+00 2.3109500844823576e+00  1.0413885457745443e-03 1.1126172898177975e+00 2.6333285715395545e+00  1.6268598630848480e-01 5.0297569120914799e-02 3.5246864507831313e+00  2.8908486263464200e-01 1.2109580123317876e+00 3.7021057380519613e+00  4.9009511642445036e-01 1.9324492147707868e+00 2.7619539246993665e+00  -3.1338759003829564e-01 1.0019796283720084e+00 2.5589046320521702e+00  1.5965101632831855e+01 5.1054771553397146e+01 -6.0965022310992740e+00  2.4674223533420790e+01 6.8685933616365844e+01 6.0835442606922800e+00  6.4180559963755082e+00 4.8609662798788101e+01 -5.4974546402134896e+00  8.7022261382661004e+00 4.3528965365377623e+01 -1.1680570334937022e+01  1.1360884755739189e+01 2.1474872504950664e+01 1.7586980456099564e+01  7.0075784179299188e+00 1.3386379272892654e+01 7.4926759726982093e+00  7.6649829223095010e+00 1.1272972325754164e+01 4.1322475144902766e+00  5.8900370276820349e+00 1.2779340980865079e+01 4.5546574186918809e+00  7.0524306428542509e+00 1.0480632335315610e+01 1.6757791888473283e+00  4.5827686739818390e+00 6.5400620307645472e+00 3.9000015600608497e+00  4.7308769205169217e+00 8.4003613372289969e+00 6.1380198643931303e+00  4.1480295183613105e+00 8.9833044269329658e+00 7.4599913055711937e+00  4.1458114097671750e+00 3.3623938454344628e+00 1.0782517711913432e+01  5.8441101741779562e+00 4.7192793744066295e+00 1.0802702432383287e+01  3.9216283262521761e+00 3.9068507668969286e+00 9.2864428020689296e+00  4.3381812498961914e+00 6.2611846982986368e+00 8.3682936421542315e+00  5.3758073923956138e+00 7.1228950032831078e+00 1.1130581616542131e+01  3.7283456529411829e+00 5.6425261281493269e+00 8.4181115802209909e+00  3.5398722052960259e+00 3.4441092723877711e+00 8.7137474352325448e+00  4.5662482839011718e+00 3.8240543513509673e+00 1.0812427704423669e+01  1.1079503577143335e+00 1.0831922765514641e+01 1.3291213802716675e+00  -3.3632918959738741e-03 6.7916006762547543e+00 -3.3903113741560795e+00  -6.8625775582655590e-01 8.6556780199127719e+00 6.6151853098821078e-01  2.1638223389357464e-01 3.9761706905449925e+00 1.4477574527051090e-01  -8.7855948351417701e-01 3.9970829700434845e+00 -2.2972204105592473e+00  1.4642333778775650e-02 4.4968322001496758e-01 -6.7630811617782693e-01  2.8142265546179462e-01 6.4875095168270027e+00 2.1926297838733686e+00  1.2468600178625628e+01 4.0239970072325569e+01 1.2106178912768003e+01  1.3550975648513178e+01 3.8871170653374833e+01 6.5750481739454933e+00  2.7727392904767349e+01 6.8031920675561736e+01 2.0523280057597351e+01  2.9959910985013313e+01 6.3638311167778184e+01 2.4887479223705515e+01  1.3943160370378006e+01 4.6771444741651095e+01 3.5212835054468674e+00  2.9575282201250190e+00 3.6294942667222947e+00 7.3442314632581134e+00  2.5197301839782598e+00 3.3287531392570160e+00 7.3637670227214516e+00  2.3189316373512727e+00 2.8435435535882001e+00 7.7274951233580804e+00  2.6803201306527598e+00 3.3993080448983748e+00 7.4448521351005859e+00  2.9568423688114889e+00 3.6990626058169549e+00 7.8539904731562498e+00  2.8437875573332048e+00 3.2456148590639113e+00 6.7672065322261865e+00  1.8939872225871071e+00 1.9694425615870079e+00 5.8870761701567336e+00  2.7591583215331319e+00 3.5081337701673716e+00 7.6272611928629805e+00  2.9298340069513111e+00 3.1458140045771805e+00 7.5484821153615762e+00  -4.2114834362843858e+00 -1.2145767850548367e+01 1.0166725540268093e+01  -5.6154346991664295e-01 -7.1774583054412640e+00 7.8609472021950637e+00  -4.9314422435206469e+00 -7.0316955649351192e+00 3.5033591331730554e+00  -1.1715256683830810e+00 -7.3336237418274459e+00 3.7329308797655449e+00  -5.9591118138919585e-01 -4.7340932826311386e+00 2.1609399800810416e+00  -2.2878662393929798e+00 -7.5727593234423365e+00 2.2304140957572578e+01  -2.3890034279790190e-01 -9.7755215796584150e+00 3.5948117361651200e+01  3.7637255667916527e+00 -1.9139363109072016e+00 2.8595079190900723e+01  3.2661285082867364e+00 -4.4960213673555431e+00 2.3689071411804040e+01  3.1796381482471920e+00 -6.8669784813758561e-01 1.9091394835592187e+01  2.0682607598752512e+00 -3.8051437865014450e+00 1.1293422666145348e+01  -4.3012963824315020e-02 1.1629227956240249e-02 1.0351045540634560e+00  1.9035557860409553e+00 5.4128532379614114e-01 5.4502335312924712e+00  2.3996315098147010e+00 -8.5163662057238632e-01 3.6938422346170001e+00  6.1772637641969219e-01 1.2329201463558812e+00 3.8220109711995045e+00  1.0097589305382080e+00 1.9727526989263384e+00 3.8719967313912074e+00  2.0731997954549164e+00 1.7287656862266345e+00 5.3344140272948657e+00  2.2529595649189029e+00 4.6932445552003160e-01 4.1685647437824214e+00  5.4592028051367585e+00 3.8181471302096726e+00 4.1750356464034731e+01  5.0947158762562763e+00 3.7556150899622347e+00 3.2989675485382556e+01  7.5374282896323850e+00 9.4337897593385076e+00 3.8897577487077129e+01  1.0179655660472376e+01 -2.2052535789559178e+00 4.6498817195568243e+01  7.2111322383883838e+00 -7.0990558797542738e+00 4.1831544201677389e+01  6.5683488102027887e+00 1.3879445450456455e+01 3.1115896392284142e+01  1.0294423545908156e+01 -8.4822432389712130e+00 5.1174475368740275e+01  5.9784441353316806e+00 1.0377542096354951e+01 1.6888811693600317e+01  4.8287150592416808e+00 8.8012477280368362e+00 1.4677822000372181e+01  4.4554680490056651e+00 5.1561538207858337e+00 1.2233143776266020e+01  5.7615208267581339e+00 8.9899206436329528e+00 1.3304577011290432e+01  7.2807955417781400e+00 1.6638878674523522e+01 1.9438665676009613e+01  4.3136412079151736e+00 1.0576386650724292e+01 3.0610985091968306e+01  5.5071522454781139e+00 1.4556201211050492e+01 2.5994788700922715e+01  1.6342749394880642e+00 1.7987828493170102e+01 3.0303727896717589e+01  5.8174188280855406e+00 1.0155247051249072e+01 2.5239140770675590e+01  -3.0577030896932667e+00 1.4417438559320573e+01 4.4223764286958783e+01  2.4985013124811948e+00 1.3037773420599002e+01 3.6393043527025860e+01  5.7411812944579999e-01 8.1084384528427726e+00 3.2330217929292346e+01  -2.6921840611211480e-02 5.3975957877234366e+00 2.6561641746542882e+01  1.5374496004797826e+00 2.2939755370773668e-01 1.5444829529859416e+00  2.9960175273402947e+00 -1.6321949738213959e+00 2.3872842064476458e+00  3.2085616298312454e+00 -1.3046883762350223e+00 1.0436716598985116e+00  2.0544209655601895e+00 -5.2712595803913609e-01 1.4444064652319253e+00  2.2336206365638027e+00 -1.0020179664713553e+00 2.1254634745647860e+00  2.4231423718130829e+00 -5.3418665358998774e-01 3.1556522921646710e+00  2.3524209990123319e+00 -1.7931167257307112e+00 1.6718299214381183e+00  2.7033815000751726e+00 -1.9039753846691077e+00 3.0715711901786431e+00  3.8748889452315480e+00 1.8876121326166015e-01 -2.5617699392160715e+00  3.8145552635488928e+00 3.2656100083349432e-01 4.3242579840184412e+00  3.7671775670996848e+00 -3.8182617696353655e-01 4.8764564072210090e+00  5.7509271097218466e+00 6.3743784640519268e+00 1.7345520725422539e+01  6.1144791638374647e+00 5.7681925635782099e+00 1.7975893132606963e+01  6.63281438001