<?xml version="1.0"?>
<VTKFile type="UnstructuredGrid"  version="0.1"  >
<UnstructuredGrid>
<Piece  NumberOfPoints="5666" NumberOfCells="25214">
<Points>
<DataArray  type="Float64"  NumberOfComponents="3"  format="ascii">16.8433653191 5.8591668822 18.3712891231  17.1930288764 6.52513578575 17.7497085827  17.4374681498 6.43425483605 18.28016813765  16.6893108881 6.72406365585 18.4998472714  18.0315709805 7.0093427899 18.1890471522  17.2834137188 7.2991516097 18.40872628595  17.3008718693 5.7362186853 17.4059869556  17.07126376915 6.6858225613 17.17554718595  17.6662214249 6.372780737599999 17.7975170539  17.43661332475 7.3223846136 17.56707728425  18.000439107 5.89845932155 18.30808619435  17.0721185942 5.79769278375 17.88863803935  17.4063362763 5.3233713677 18.3992071798  17.6350895514 5.261897269249999 17.91655609605  17.9693072335 4.7875758532 18.4271252365  17.671579458 5.7175414704 18.89764922925  17.1086085008 6.253336984900001 18.86973117255  17.02755256775 5.569960802100001 18.89413241055  17.2117398164 5.280754722 19.416975698  17.29279574945 5.9641309048 19.39257446  17.59052352495 5.0341652876 18.92205046725  17.3738516825 6.6475070876 19.368173222  17.7027113315 6.82842493875 18.7786101871  17.7390648423 8.6761174931 18.5573518449  17.9789895547 8.2279402708 19.0568018235  17.8853179114 7.8427301415 18.37319949855  17.3770853621 7.684361739 19.0923286109  18.1252426238 7.3945529192 18.87264947715  18.2189142671 7.7797630485 19.5562518021  17.7963829748 7.213635068049999 19.46221251205  17.29036025565 8.1557719652 17.7512296306  17.6463325354 3.9682035763 21.2327682847  18.42564963885 3.54408562945 21.6015358942  18.48010949375 3.79931047265 21.51561960685  18.18411599065 3.7473538612 21.07111674715  18.7218994459 3.5265041461 20.9094652096  19.017892949 3.57846075755 21.3539680693  20.5664143393 14.9955357516 14.2365258192  20.4336320605 14.1780301298 14.05588243835  21.00800424995 14.508614663 14.2245449504  20.2555513525 14.074264352 14.21623108085  19.99204214985 14.6649512184 14.06786330715  19.4176699604 14.3343666852 13.8992007951  19.68117916305 13.7436798188 14.0475685688  19.9446883657 13.1529929524 14.1959363425  20.69714126315 13.5873432634 14.20425021205  21.4495941606 14.0216935744 14.2125640816  20.6626779491 13.5037053771 14.8532659944  21.3706455928 13.2759032761 14.19431637265  20.97718748705 13.01690917745 14.51466732905  21.05613605485 13.76269947575 14.532915038  20.61819269535 12.8415529651 14.1860025031  20.3036831574 13.32834916475 14.52460116845  21.291697025 12.5301129778 14.1760686637  20.9512523295 14.4048536589 13.48665849095  20.50966241885 14.8917747475 13.49863935975  19.9352902294 14.5611902143 13.3299768477  20.4529104984 14.7880137434 12.7607529003  21.0996935619 14.9104856625 13.7811933691  21.04294164145 14.8067246584 13.04330690965  21.54128347255 14.4235645739 13.7692125003  21.6329727845 14.8254355734 13.325860919  20.6619813334 13.7703450965 13.4846662942  19.6460192333 13.9266816519 13.32798465095  20.1636395023 14.153505181 12.75876070355  19.8743685062 13.5189966186 12.7567685068  19.90952843595 13.3359947855 13.47635242465  20.93304063355 13.1518362919 13.7149826017  20.1805877361 12.7174859809 13.70666873215  20.14542780635 12.900487814 12.9870848143  20.4164871065 12.2819790094 13.2174011218  20.85409206575 12.4060459936 13.69673489275  21.4592809328 12.9153498231 13.3150017333  21.5382295006 13.6611401214 13.33324944225  21.02167597355 12.7912828389 12.83566796235  21.6268648406 13.3005866684 12.4539348029  21.2879740904 20.8205998419 4.4476585088  21.4400923993 20.8951455241 5.71706772145  20.93936353845 20.6546784555 5.22729124285  21.6717890749 20.53051939055 5.4407095415  21.78870295125 21.0610669105 4.9374349874  22.0556040594 20.2404389392 6.4337605742  21.32317852295 20.36459800415 6.220342275549999  22.17251793575 20.77098645915 5.9304860201  22.2894318121 21.3015339791 5.427211466  20.5907529865 20.4887570691 6.0069239769  20.2507233509 21.0716861827 7.6403788229  20.4207381687 20.7802216259 6.823651399899999  19.8555962154 21.2389887841 6.654006735799999  19.85629949635 20.85124616325 7.3820736801  19.4618756418 20.6308061438 7.1237685373  20.02631431415 20.55978160645 6.5653462571  19.46117236085 21.01854876465 6.395701593  19.4604690799 21.4062913855 5.6676346487  20.0256110332 20.9475242273 5.8372793128  20.1649227089 19.8217740976 7.6570486546  20.49533153155 19.00521068235 7.1079396885  19.9725342195 19.359194278 6.89170233815  20.5929578695 19.5088060968 7.13930626855  20.06729637095 19.31817868315 7.625682074549999  19.5444990589 19.6721622788 7.4094447242  18.9240754089 19.52255046 7.1618407938  19.44687272095 19.16856686435 7.37807814415  19.969670033 18.8145832687 7.5943154945  21.0209930301 19.195838096 6.6215638825  20.9585272529 20.4043239044 7.11021722585  20.3778378477 20.15526558335 6.831986315749999  20.2078230299 20.44673014015 7.64871373875  20.7885124351 20.6957884612 7.92694464885  20.7456121141 20.07083241865 7.9352795647  21.3263015193 20.3198907397 8.2135104748  21.15316370515 20.65606256095 7.03706969855  21.69095278935 20.28016483945 7.3236355245  18.88966788775 19.23611010495 5.91670685365  19.57840673795 19.40200887845 6.70419909105  19.0556094259 19.7559924741 6.487961740699999  18.75813387075 19.00266809085 6.59058590675  19.2809311828 18.6486844952 6.8068232571  18.5921923326 18.4827857217 6.0193310197  19.1871434429 19.9894344882 5.8140826876  20.0752200552 20.0635916811 4.6697671539  19.7803573459 19.4189055008 5.42848809655  19.2257497256 19.37220204885 5.2330807705  19.63118174905 20.02651308465 5.24192492075  19.66978803175 19.4092806453 4.66092300365  20.22439565205 19.45598409725 4.8563303297  19.2643560083 18.7549696095 4.6520788534  19.8189636286 18.80167306145 4.84748617945  20.3735712489 18.8483765134 5.0428935055  18.2926498443 18.29597895 7.5095736818  18.93325527435 18.37348011295 6.69615431255  18.7834840302 18.2800767271 7.4412756436  18.6083626266 18.909264705 7.335707237799999  19.0991968125 18.8933624821 7.267409199599999  19.2743182161 18.2641745042 7.3729776054  19.5632572755 18.14550312815 6.22750928565  19.48288179075 18.66558111755 5.531112262600001  20.2159490889 18.31330929335 4.95721851625  20.45394673365 18.328298524 5.739290528550001  20.0583269289 17.7782420733 4.871543527  19.32525963075 18.1305138975 5.44543727335  20.29632457365 17.79323130395 5.6536155393  20.5343222184 17.8082205346 6.4356875516  22.9368545105 20.76738180115 6.34385072715  22.52405868605 21.17298031205 6.60903023425  18.94044753825 17.6407489608 6.918448590600001  21.4334787957 18.75601733745 4.82102124185  21.14205231905 18.6267945383 5.5492924055  20.84250452375 18.42484226365 4.9982642425  20.96454552085 19.1795515872 4.865650504850001  21.5555197928 19.510726661 4.6884075042  21.733026591 18.9579696121 5.372049404849999  21.3114377986 18.0013080139 4.9536349795  21.6109855939 18.20326028855 5.5046631425  21.9105333892 18.4052125632 6.0556913055  20.6972821395 19.0221073047 5.832228694  21.2224278038 18.1067165489 6.24568942855  20.77765762425 18.5020293153 6.52862571705  21.46576320965 18.8005253296 6.338627594  21.1541161404 21.8602555434 6.1970346586  21.72177397625 21.58089476125 5.8121230623  21.6048600999 21.0503472413 6.3153976164  22.07331472655 21.98288861415 6.49066727645  21.0778346024 18.873404698 8.433398629499999  20.60439066175 18.54886751195 7.32630292705  21.04941381625 19.034621397 7.527481256  20.8060784104 18.3408126163 7.434543090549999  20.6328114479 18.38765081295 8.232220300550001  20.1877882934 17.9018969279 8.031041971600001  20.3610552559 17.85505873125 7.233364761600001  19.76784456755 20.7349415333 5.168700901299999  19.07737009325 20.4872753238 4.9823414421  19.3238062614 20.69786293685 5.74085866815  20.1040682365 19.5926362921 6.217823285050001  19.6760330759 19.9056042929 6.7355656711  20.85911244275 17.2313880495 5.6295376818  20.9228800085 17.90476427425 5.69466126555  20.68488236375 17.8897750436 4.91258925325  20.621114798 17.21639881885 4.8474656695  21.24767023285 17.32793178915 4.88851139575  21.1839026671 16.6545555644 4.823387812  21.9358833668 21.6305950739 7.8873892421  21.9957437131 20.93551700655 7.16057490815  22.3004751878 21.10350212015 8.027783703400001  21.63109244305 20.9752429068 8.050449858449999  21.99568426405 20.44814995305 8.190844319749999  22.6650670088 20.5764091664 8.1681781647  22.3603355341 20.4084240528 7.30096936945  21.07313638965 19.99974186505 5.347665740549999  21.28825641145 19.3532823785 5.65498569335  21.8055619261 19.8755828001 5.5610840392  21.53829854475 19.7181385176 6.52766222835  20.8058730083 19.84229758255 6.3142439297  20.46957779055 21.0259203822 5.03447781155  20.33298652085 20.2761743751 5.338345565399999  19.90432021725 18.0361975194 6.9043325785  20.2519961257 18.31140190165 7.01500152305  19.73105325475 18.08303571605 7.7020097885  20.0787291632 18.3582400983 7.81267873305  19.62199412455 18.53937888645 7.48364654995  20.4821621177 19.66856679125 5.5249087412  19.8889482147 20.23909577865 5.91050333225  20.9707605587 21.3600542476 7.9963072727  20.7807567726 20.92440565835 7.001615624799999  21.51318230905 20.8002465934 7.21503392345  20.6107419548 21.21587021515 7.8183430478  21.11026338415 20.0311065184 7.0454046144  21.148531039 20.83997249365 8.10490887375  21.1736472747 19.75786441785 7.41753717865  20.62137865565 19.3475893978 8.045223642049999  21.20206806085 19.59664771885 8.32345455215  21.06243834955 21.6101548955 7.09667096565  21.45332196275 21.49532466075 7.9418482574  21.5449997536 21.74542530865 7.04221195035  20.5237523177 18.84399398335 8.013857062  19.33245189465 17.39778274535 5.6677315514  19.5704495394 17.412771976 6.4498035637  18.6065768604 17.0173234174 6.4639195758  18.5993845965 17.75005456955 6.24162529775  19.1202741682 17.3548755902 8.028872053900001  18.8634255143 17.1860995038 7.246395814850001  19.8272981933 17.5815480624 7.23227980275  19.19729619215 17.8095250472 7.700924829650001  20.34
[...]
<PointData  Vectors="u"> 
<DataArray  type="Float64"  Name="u"  NumberOfComponents="3" format="ascii">8.1164337011721955e+01 -3.5313310357542235e+01 -1.4263438174246081e+01  7.7756596559055268e+01 -3.0399893031243355e+01 -1.1343027343298909e+01  6.8794310759561569e+01 -3.1264873735865386e+01 -1.8674911808004939e+01  6.2354497806202588e+01 -2.1131464520065091e+01 -9.2759776766468249e+00  6.6779687556375805e+01 -2.8139679262657847e+01 -2.0832205099737443e+01  6.3713867038852918e+01 -2.4335127196302700e+01 -1.4486581240717799e+01  8.5139832031820006e+01 -6.2745876334324372e+01 -2.2281932965145099e+01  8.7197630428230497e+01 -2.8743237073407208e+01 -8.7919364927259078e+00  7.1571694062672762e+01 -3.5199108435858676e+01 -1.8429369097453620e+01  7.3468547040120015e+01 -2.6029665584076298e+01 -1.2924709328319027e+01  6.2426581830985825e+01 -3.8980750900209095e+01 -2.8067950450062202e+01  8.7859236394866386e+01 -5.3790907499582296e+01 -1.4605496626629000e+01  6.0921940247779013e+01 -5.3181704816142343e+01 -3.4787865624467571e+01  5.6775774474060974e+01 -6.5331141467660160e+01 -4.1257646000712022e+01  4.8927117980524336e+01 -5.4934227674578814e+01 -4.3030722557269435e+01  6.2724583398524153e+01 -3.6572052242283824e+01 -3.4239484139254422e+01  6.5644507692736397e+01 -2.8342172710288310e+01 -2.3375135171206917e+01  7.3733569845768045e+01 -4.3544884945976271e+01 -3.8000694225147264e+01  6.7266986841293772e+01 -3.2393215109478675e+01 -4.8347864938963099e+01  6.2330741627861258e+01 -2.4560325849307755e+01 -3.4483551188272713e+01  5.8253857673956489e+01 -4.5332458421527917e+01 -4.4470407933879592e+01  5.9130000553448347e+01 -2.2116393417567615e+01 -2.7958888324682999e+01  6.3578590279173071e+01 -2.5972893783958888e+01 -2.2713359856148131e+01  5.9806152045895708e+01 -2.6930807949545123e+01 -1.7685722866682514e+01  6.0024824050180179e+01 -2.5595766553816237e+01 -2.2108198126280676e+01  6.4669692965788684e+01 -2.5239061272245195e+01 -1.8634762839748849e+01  5.5988899561915332e+01 -2.2136812587806435e+01 -1.9635556451733684e+01  6.3764030751814886e+01 -2.5081612690561936e+01 -2.2794532492876375e+01  6.1996092048129455e+01 -2.4492520319132620e+01 -2.7680535051836749e+01  6.0040227532037918e+01 -2.2114003175049259e+01 -2.7168911243674518e+01  6.7227786973814531e+01 -2.3872869200180322e+01 -1.1236554659213606e+01  8.1999188141552651e+01 -1.2324390509643148e+01 -7.6857303005549895e+01  6.8898876483238766e+01 -8.0348793486435088e+00 -7.7551709051295148e+01  7.6122333774401397e+01 -1.0913504921558429e+01 -7.2294228962152374e+01  7.6524542683961528e+01 -1.9731481322852222e+01 -6.6001019389106531e+01  7.7740483593249095e+01 -2.8677284269417100e+01 -7.5849794266824176e+01  8.8967845892776879e+01 -1.6672603662297142e+01 -7.3856543888330748e+01  1.0034880931113658e+02 -8.8145932054006337e+01 -1.6275608802430764e+02  7.7998095837931913e+01 -3.2393467480659190e+01 -1.3675669381314236e+02  1.0533715014703657e+02 -3.3865654236967714e+01 -1.5738818408611894e+02  7.7266893445956129e+01 -4.2964485029646681e+01 -1.1308319146063057e+02  1.2773486687320148e+02 -1.0332217637028968e+02 -1.3898856928123107e+02  1.3787255321892613e+02 -6.5890915048106535e+01 -1.3127468311307894e+02  1.1426227550526866e+02 -5.1533325421187804e+01 -1.7225764625142665e+02  1.1722825884343848e+02 -7.4844616871760365e+01 -1.5478510087930593e+02  8.7749489105013851e+01 -7.8901406827980807e+01 -1.0447655859501127e+02  1.2202048448053571e+02 -4.3856934322512430e+01 -9.0901933519740652e+01  9.2504332650023358e+01 -4.8636357205474766e+01 -1.4982693722516998e+02  1.1049809839013658e+02 -6.1674043983124498e+01 -5.6243470356384250e+01  8.0803070038729103e+01 -1.1492439279014795e+02 -7.7724603661750351e+01  9.8432234134861432e+01 -8.2566461525299019e+01 -1.4240132136873768e+02  7.6951722923119902e+01 -1.0146218907256927e+02 -5.8112788542628920e+01  1.4207807193814955e+02 -6.5184251919665812e+01 -1.6153157914973733e+02  5.0642151151519222e+01 -5.5261047322012224e+01 -8.1660804541403902e+00  7.3608218277379891e+01 -1.5307993456341297e+01 -8.6062770005068444e+01  5.0677115871095637e+01 5.0100387405988478e-01 -1.2102456327286527e+02  7.0623586098727429e+01 1.1628964496173584e+01 -1.3971209983512091e+02  2.1202787000139892e+01 9.5282646319150981e+00 -8.9476806313869460e+01  1.0318103289518837e+02 -5.3713669390543002e+00 -9.7284835054646564e+01  5.6817001728571782e+01 1.5630265878280580e+00 -8.6509199893237209e+01  1.0565977056826473e+02 -1.2385647639564551e+01 -5.3451988332787835e+01  6.6432394416464462e+01 1.4435386859136579e-01 -5.2074221012714425e+01  5.5045059461083284e+01 -3.9307339350672379e+01 -8.4193633186960483e+01  4.9507177908357924e+01 -6.6740580196266308e+01 -1.2859993739239133e+02  1.8926180657126295e+01 -8.7880027873925712e+00 -1.0527914830463666e+02  9.7360510382428451e+00 -2.6586015230805085e+01 -8.2307873788518407e+01  2.7323099032504828e+01 -6.4807822952457073e+01 -1.1075525031448221e+02  6.2626607318211313e+01 -5.0915794355562426e+01 -6.0521495466433663e+01  3.6791640937867477e+01 -7.1693282832864142e+01 -7.0637216576247582e+01  2.0740583454797839e+01 -4.4191562878319289e+01 -6.5680367175185822e+01  1.8342748571260525e+01 -4.4761251847515815e+01 -3.1700400029930961e+01  3.1985784162227905e+01 -6.3976027870348453e+01 -1.8800214799088995e+01  4.6363232628128657e+01 -2.7760790483155969e+01 -2.9010447241172052e+01  6.0847235802869932e+01 -2.1426607658004400e+01 -3.8462366408005465e+01  2.9023370494398776e+01 -2.4882918977479299e+01 -3.3027381568062061e+01  3.1962787319553502e+01 -1.3016984008995726e+01 -2.3336384441524622e+01  3.8725505490572885e+01 4.9727080057445562e+01 -3.4124697796330778e+01  2.5365939912305503e+01 4.0183061889993837e+01 -2.0606062074622546e+01  3.7727906809426379e+01 4.7519698232261419e+01 -2.0690968935962676e+01  2.8248777711737315e+01 3.7344575208398759e+01 -2.3272704574442347e+01  2.2496205830677063e+01 3.7564692583034756e+01 -3.0708164535315696e+01  2.0427336791650038e+01 3.1859788431322020e+01 -1.8289382595386119e+01  2.8425180205420730e+01 3.8725056871441268e+01 -1.4473871343688947e+01  1.7775224955259652e+01 3.2418663853765793e+01 -2.3116407852233138e+01  1.4040480364666603e+01 3.2805288710182815e+01 -2.7429103976863725e+01  3.8250119601816259e+01 4.6452830492564210e+01 -1.0731973205719578e+01  1.8328740874417445e+01 4.8327530404999095e+01 1.1627027404947848e+01  3.0457206819208018e+01 4.6555872280115231e+01 -1.5247441011361729e+00  3.9693157079925086e+01 5.3238706417871462e+01 9.8506233430116508e-01  2.9649092200912747e+01 5.2961186228464960e+01 1.9499757435872507e+01  5.8150836443163897e+01 5.8022027283578019e+01 1.6841218590889969e+01  4.3561621910878529e+01 4.9993385905786823e+01 -1.5260309059810240e+00  5.2337320514187596e+01 5.7496342113875563e+01 -3.8590961320609769e+00  4.9384288232015635e+01 6.4876982338012482e+01 -1.6406463531074362e+01  4.3370791927823625e+01 5.4559966694693173e+01 -1.2333802414079322e+01  3.3719318994248887e+01 4.2615812647167566e+01 1.2271456855841402e+01  3.9523772065389537e+01 3.6753624015466663e+01 2.4659211754813031e+00  4.9044890504474061e+01 4.1065120989165010e+01 6.5328787150030143e+00  3.5099139099524820e+01 3.8187999119715336e+01 1.2520687677194249e+00  3.6395304116271802e+01 3.8682218804550466e+01 1.8730854983421050e+01  5.4729247792029135e+01 4.2038580647841357e+01 1.8950667461862665e+01  8.6111429776625968e+01 4.1693605786078351e+01 -4.9950329151444715e+00  6.2150855628936171e+01 4.4341618906889096e+01 2.6232267192898846e+01  4.5730656042278724e+01 4.1232898864374469e+01 1.5882044303604848e+01  3.6394145949001235e+01 3.5212104815748766e+01 -6.5281520645326578e+00  2.4274912229548196e+01 4.0275768597201740e+01 -4.0279611524136207e+00  3.7270224448980720e+01 4.4380420384829598e+01 -2.0642464216073628e-01  2.2935017436303433e+01 4.7747810243632550e+01 1.2093035947630993e+01  1.1460363125192098e+01 4.2099184484034012e+01 3.6996497342702148e+00  1.7318640275800135e+01 4.1568982946200407e+01 3.4638793621606565e+00  8.0053367326542233e+00 3.5991686306849445e+01 -4.6318559754869586e+00  2.1234270654171578e+01 3.9625756216750261e+01 -6.8417053034466546e+00  1.5783388209837318e+01 3.4089001664235028e+01 -1.0202184668054976e+01  6.1538464941361973e+01 4.2045586468495934e+01 -3.6570375344371899e+00  5.9118081207995630e+01 4.2674854719331691e+01 3.0828113228394787e+00  6.7293511170267493e+01 4.5795533099534509e+01 -4.4854454881582999e+00  6.8535403435746701e+01 3.7284103962613443e+01 -8.8459341150916817e+00  6.5844277621997293e+01 3.6439620314744460e+01 6.2995792590983424e-01  6.1985853158502778e+01 3.1837984873597797e+01 -3.1434583000352885e+00  6.0166585305886329e+01 5.1557987711344161e+01 -4.9565717003967409e+00  6.2779926306733465e+01 6.0516172566998321e+01 -6.5173172566866446e+00  5.7532837980229033e+01 4.7128760281711585e+01 8.0093811759797306e-01  5.8955724942858751e+01 4.8414654380730489e+01 4.5872903602069632e+00  5.7413491224640438e+01 5.5976222467445176e+01 -1.8584495187870016e+00  6.0796262083908623e+01 5.4854892322711379e+01 1.2887365383742374e+01  7.4242622781783439e+01 5.1207426862619215e+01 -6.1856879737748187e+00  5.7154429135393222e+01 4.5716674227175226e+01 2.0581213874698122e+01  5.9991271829554513e+01 4.8613280352358458e+01 1.6267570115644634e+01  6.4329331406201931e+01 4.4455309194926450e+01 -4.3654786209556257e-01  7.4151531678680541e+01 2.0167336910249276e+01 -3.2970523327275892e+01  6.6035122128667780e+01 3.1207127123002213e+01 -6.1547548475049476e+00  7.8764794858545358e+01 2.8647032299299561e+01 -2.2048867694496515e+01  8.1299682097464029e+01 3.3863967756284524e+01 -2.2638647105956885e+01  9.5206720954139683e+01 4.4590402383197329e+01 -6.4267335177848783e-01  7.5663203105838761e+01 3.5949389559927063e+01 -3.6228440061043488e+00  5.5856489477674494e+01 2.8312929833069113e+01 1.2328760430772527e-01  5.6801810009413771e+01 3.7210270147843083e+01 5.5720658050839376e+00  6.3138513384363883e+01 3.4625317321725525e+01 1.5094462590185358e+01  5.2978702460505289e+01 3.2779622015989716e+01 -8.8319651176762948e-01  5.9159476351096295e+01 2.4455083582584411e+01 1.6738940122963822e+01  5.6834901650208259e+01 2.8881067990212212e+01 8.0214391653885730e+00  5.3539971228477164e+01 2.6321116943087219e+01 1.4870244105008432e+00  4.7626581342312157e+01 2.6771746572394530e+01 -2.1595865704109372e+00  9.3742355379537035e+00 2.5291182076849378e+01 -2.4321259631456670e+01  6.9884381322462605e+00 2.9269938167343788e+01 -2.1100053705165831e+01  6.4615713605496055e+01 1.9583381721605218e+01 -8.4802046689513375e+00  5.9267133828191689e+01 3.4085771532898256e+01 -2.7506406823313018e+01  4.9952689948743313e+01 3.4615508201018272e+01 -1.3039238095949699e+01  6.7741427963435939e+01 4.4926007425731370e+01 -5.0753857687563153e+00  5.6110682688366005e+01 4.0257617918349652e+01 -1.9164679112409235e+01  4.9319091390245418e+01 3.4495981126157702e+01 -3.2996362449768334e+01  4.3245484415009372e+01 3.2107584901967691e+01 -2.2584049404334380e+01  6.4343942727879735e+01 3.8017559173975627e+01 -1.4998616177897139e+01  4.7184405135985351e+01 3.1091095530746639e+01 -1.9807653729099467e+01  3.6773060299717748e+01 2.8588203060188473e+01 -1.8439814601839068e+01  4.7954962025602740e+01 3.7526507313856072e+01 -8.1338896422225009e+00  4.1980664315405022e+01 2.8440581194685254e+01 -9.0986504099008112e+00  4.2960135320937205e+01 3.2166436405129716e+01 -4.6589788949777544e+00  3.6371153980933556e+01 3.1302369515675693e+01 -1.2435722664242581e+01  1.6554509047318074e+01 4.3528425260704680e+01 -1.7289524074775382e+01  1.5111664641991702e+01 3.8400400970006345e+01 -2.2552965104809143e+01  1.8344144628618945e+01 3.7886742841116167e+01 -1.6815622087256124e+01  4.8372680176316916e+00 3.4676621051438204e+01 -1.8464765368837369e+01  1.6468951327065025e+01 3.4367260044959153e+01 -1.7591171777253214e-01  3.7593830432188724e+01 3.4243847283370428e+01 2.6974270022039124e+00  2.5942397481982923e+01 3.3845149136197954e+01 -1.1357397243900806e+00  3.5088509875885705e+01 3.1655684822353425e+01 -2.2063078268328240e-01  2.3662075319551739e+01 3.7025442149037310e+01 7.6960157058877039e+00  4.6419928106263939e+01 3.7981350577556270e+01 6.2217603195327973e+00  4.5029850009948987e+01 2.8778121347627621e+01 -6.2996507682769909e-01  5.1500262565760508e+01 6.1530700064214415e+01 -1.4076768154178765e+01  5.8976976361860395e+01 6.7181581369703949e+01 -3.1371092655959476e+00  5.6309070513342625e+01 5.8929204058533550e+01 -1.0294796358818504e+01  4.9769474199338930e+01 4.2817324464085736e+01 -3.2681789528166569e+00  5.4622582451450469e+01 4.6305733188734656e+01 3.5221597520070929e+00  4.9003059353946760e+01 2.1402414473366068e+01 -1.6437662660435857e+00  5.1349789873790712e+01 2.9407913468292840e+01 -4.4478435966015475e+00  6.2981311124118541e+01 3.1238818920927141e+01 7.2408188868099916e+00  5.8487363005752336e+01 2.3411952154786253e+01 1.6727441017215927e+01  6.3164309950320472e+01 2.9422982497206576e+01 4.5860506750810054e-01  4.9482040312940100e+01 2.1162561164023330e+01 7.8761422942211272e+00  -1.5775997812005644e+00 3.8226918175246816e+01 -9.3503961951441052e+00  9.7829026839509012e+00 3.3284695764374497e+01 -1.3500159724148423e+01  -1.4232851511276690e-01 2.7782207057768080e+01 -1.0897275015484308e+01  6.6618226640501410e+00 3.6064705948032739e+01 -8.3780666272475841e+00  7.9907532899029947e+00 3.2711535407443336e+01 -1.1692716035145690e+01  2.3054626647823797e+00 2.7880505062032501e+01 -1.3965674310393892e+01  1.0911484844556128e+01 2.9281374007138609e+01 -1.5519971726249086e+01  4.2779804053387700e+01 4.1533955319809031e+01 -1.5079003884698903e+01  4.2184315063095212e+01 3.5873553598083362e+01 -1.6322958807372345e+01  3.2608267199703782e+01 3.3670121563781358e+01 -2.2981851158433976e+01  2.8610002040591969e+01 3.4284783476434384e+01 -1.2984186156028104e+01  3.8057188701440353e+01 4.0049963502172638e+01 -7.9928486027659247e+00  3.9804690770660883e+01 5.7781137319123452e+01 -2.0447852688406819e+01  4.7667306571746131e+01 5.0404259095050875e+01 -1.3339531732248986e+01  5.3217006706327545e+01 2.9859761331363146e+01 5.5834992682907314e-01  4.7602344822846327e+01 3.2545486627833554e+01 1.3809330876790407e+00  6.0316562700029976e+01 4.4305245046194052e+01 6.1268905100454889e+00  4.2468147310401129e+01 4.2717738542122497e+01 1.4451844496229121e+01  5.8584834500181600e+01 4.4198774366471319e+01 1.7279193026034342e+01  5.0161337729223334e+01 4.3879822440258359e+01 -1.0043274422568150e+01  5.0277759676068811e+01 5.0369908776078844e+01 -6.2474420091001397e+00  3.1338858297793486e+00 4.1733038356031301e+01 -5.8346840609344508e-01  2.3266549789197406e+01 4.3824365113418096e+01 -3.4577809818676579e+00  1.4466115712978086e+01 3.6519659681861135e+01 -9.3382829448363935e+00  9.5591323439294023e+00 4.4965126755493337e+01 5.1772123063496212e+00  2.5844403347435478e+01 3.7724290053331437e+01 -5.6691735616437446e+00  4.3094472162437105e+00 3.7507826439936956e+01 -3.0915511425571367e+00  2.3254264682355647e+01 3.5908559842963541e+01 -4.1554004948268730e+00  1.8880715672028121e+01 3.4632748542785905e+01 6.8868626315138766e+00  1.4155906609901296e+01 3.3546339481959187e+01 -1.2157885328239737e+00  1.3174114919246099e+01 4.2075144588475894e+01 -6.7071290048237096e+00  3.4436916205986576e+00 3.9895612883519824e+01 -6.7562448940566160e+00  8.2135977701072704e+00 3.9151728663189743e+01 -1.1004777641407678e+01  2.1694889165189405e+01 3.9819732100601904e+01 1.1581409520288927e+01  5.6086194465464750e+01 1.7432525041260014e+01 3.7136422642300606e+00  5.5658616748928772e+01 1.9396938446731546e+01 -2.1617836983904852e+00  6.2031370524730306e+01 1.1998994502749486e+01 -5.5124303806273653e+00  6.1421251380040665e+01 2.1839314585161194e+01 -4.0603238003350857e+00  7.6270850949009429e+01 1.3052539290805122e+01 -9.9915181296379547e+00  6.5152523076303652e+01 1.1711514344370995e+01 -1.0282738658245103e+01  5.5504944132683015e+01 2.4925990851501702e+01 -1.1753298353600163e+00  8.3563193007688184e+01 2.3777078377841931e+01 -6.4754315897372772e+00  3.8439505240020189e+01 7.3781471018355631e+01 -4.2661671663162721e+01  2.5214348617353263e+01 5.3700971194770965e+01 -2.7235389564389767e+01  3.9624616406924027e+01 6.1584899293429189e+01 -4.0616466717997540e+01  2.5207521148098042e+01 4.5607446879257033e+01 -2.5240785620280487e+01  2.7234825419132658e+01 4.5475161085000046e+01 -1.4294571468747675e+01  6.2819314814005594e+01 3.0194457774491759e+01 2.3819456089532287e+00  4.5380739873991558e+01 5.6337857029691143e+01 -1.6559776311022976e+01  5.2161136074845494e+01 4.1155508866259581e+01 -1.5888830729831840e+01  5.2843307446499054e+01 4.0781611897163295e+01 -3.0503387513328171e+01  3.1239523625379981e+01 5.3452174187451106e+01 -1.6860820193559693e+01  -6.8328999104520749e+00 4.1694770640558701e+01 2.8337332703745735e+00  4.9558782839810887e+00 3.9719991198261759e+01 -1.1279943998935265e+01  -7.0518021199283956e+00 3.0068673134776486e+01 -1.1427869183863814e+01  1.3148357235933175e-01 4.0124067422276305e+01 -6.1955237411173112e+00  -3.4626901580130114e+00 3.7396626383325241e+01 -1.6680181707054604e+01  5.5358944324306528e+01 3.6780156044563341e+01 3.1527939113368320e-01  6.1444834346489117e+01 5.1531030363172370e+01 -4.5490459789593416e+00  1.9661574916223756e+01 4.5470402501261560e+01 -5.0140771102145854e+00  2.5590771551420403e+01 4.9725629992029049e+01 -4.3972063248469908e+00  2.4452145405442209e+01 5.0797115091061862e+01 2.2045949623942693e+01  5.6955966526573768e+01 3.3480902372302062e+01 2.7582050858075213e+01  3.2221431916581076e+00 4.2305145689879325e+01 -7.6129550270102095e+00  1.1877735481397643e+01 4.4203022002083102e+01 -5.3679763006928285e+00  -5.0394715729152244e+00 2.5575328572779700e+01 -1.7346451162486048e+01  -5.6533357159138486e-01 2.1038633344276967e+01 -1.7566682845581258e+01  8.3228130220075673e+00 2.9209665757355811e+01 -1.7354079077738024e+01  -4.4011805240446567e+00 2.5185061092893612e+01 -2.5557810075995643e+01  2.2473124410478524e+00 2.6595913208731240e+01 -1.5228348501089497e+01  2.8184974145666577e+00 2.6462953099140499e+01 -1.7745403434933777e+01  -2.6408408648882470e-01 2.1464298600680191e+01 -1.6640074347762933e+01  2.4576566198002933e-01 2.0817080713859031e+01 -2.0502970517063268e+01  9.1289748145194061e+00 2.5863362118947450e+01 -2.0539331014352676e+01  2.8483822870321728e+01 3.4199865031324819e+01 -2.8794870633142423e+01  4.6375917508679365e+01 5.4111636902006047e+01 1.5603785848617557e+01  -2.2107151872276782e+00 2.1900616208362948e+01 -2.2125806822569704e+01  6.8069239128426105e+01 5.5039994326042830e+01 -8.9159158946073021e+00  5.9522028052897547e+01 5.7036748548465951e+01 2.0462567050066376e+00  8.0373916413905999e-01 1.8689460751989092e+01 -2.5371618709184464e+01  -6.5008931414958449e-01 1.6352743513391101e+01 -2.7700712019520505e+01  4.9251616458056347e+01 6.6421404659252460e+01 -2.4294374535354692e+01  6.5838605932225349e+01 1.7752264182446293e+01 -1.3252679937859568e+01  7.7924511367553990e+01 8.6289180370044658e+00 -2.9019569704728752e+01  7.8558059052508739e+01 4.8654598081665625e+01 1.1196521365307726e+01  7.3133022043616549e+00 4.4907913259936009e+01 9.0194006662301049e+00  1.7590105466357651e+00 4.6582998259542741e+01 1.2888941407807613e+01  -1.0481491084272638e+00 4.2258322675715739e+01 -2.0896226768961010e-01  4.9424662927278639e+01 2.9415992805717149e+01 -1.0120883427123253e+01  2.9193430288688354e+01 3.0192204050065413e+01 -1.8524872529938403e+01  6.6091339753429352e+01 -5.5236356108721445e+00 -3.6639280319432159e+00  6.5995145395018000e+01 2.4690501348446841e+00 -6.8225205406648770e-01  6.3290437418345718e+01 -2.9578596537948942e+00 -3.7395413142391236e+00  6.2648684823049500e+01 2.4458519349632728e+00 -4.6543645829241242e+00  6.0304976790969668e+01 -2.6285803403614927e+00 -2.8972849905845615e+00  6.1447142472415294e+01 4.1491883545955970e+00 -6.8446049412695897e+00  6.6798472288208629e+01 3.7832258479259528e+00 -1.4038271298830571e+01  6.3899296299612182e+01 3.7248604672649015e+00 -6.8554176982994868e+00  6.0796866327530644e+01 -2.7752124529349271e+00 -3.98189086