<?xml version="1.0"?>
<VTKFile type="UnstructuredGrid"  version="0.1"  >
<UnstructuredGrid>
<Piece  NumberOfPoints="5866" NumberOfCells="25847">
<Points>
<DataArray  type="Float64"  NumberOfComponents="3"  format="ascii">26.1297896295 26.3785423893 2.4529972339  26.41851612395 26.16261971145 0.8969483787500001  25.93777167685 26.6758667806 0.8969483787500001  25.69526960425 26.0785408125 0.8969483787500001  25.260749579 25.7785392357 -0.6591004764  25.9839960987 25.86261813465 -0.6591004764  25.5032516516 26.3758652038 -0.6591004764  25.7457537242 26.9731911719 -0.6591004764  26.2264981713 26.45994410275 -0.6591004764  26.7072426184 25.9466970336 -0.6591004764  25.49769896245 26.2689638965 2.1282961434  25.94262665635 27.22128168095 1.01876458685  25.3056810098 26.5662882878 0.57224728825  24.8656082954 26.1593854037 1.8035950529  27.0436959372 26.9265237232 1.8882465758  26.3947248307 26.94985744755 0.6145730496999999  26.18293509075 27.5497257224 0.59672460075  26.83190619725 27.52639199805 1.87039812685  26.59159776285 27.1979479566 2.29243811295  26.58674278335 26.65253305625 2.17062190485  22.3622713058 23.536164912 6.2297478649  21.7581937231 22.6982102277 6.21339126175  22.67739230925 22.82084329845 6.5070238796  22.3930932097 22.62079707875 7.23377070275  22.9925133127 22.1055216849 6.7842998943  22.07331472655 21.98288861415 6.49066727645  21.47389462355 22.498164008 6.9401380849  21.1541161404 21.8602555434 6.1970346586  20.3484025946 21.5630836953 4.0620316462  20.9988974286 22.2327626882 4.34748114945  20.9340401584 21.66258938505 3.8091861452  20.50095425075 22.2451912313 3.52528782985  20.6535059069 22.9272987673 2.9885440135  21.15144908475 22.9148702242 3.8107373331  21.08659181455 22.34469692105 3.27244232885  21.5196777222 21.7620950748 3.5563406442  21.5845349924 22.33226837795 4.09463564845  21.6493922626 22.9024416811 4.6329306527  22.0865537314 22.34367132105 5.80059333805  22.0058317842 23.21930329655 5.4313392588  22.6906313141 23.18162600535 5.816949941200001  23.0189913224 22.8270870987 5.4041520175  22.3341917925 22.8647643899 5.0185413351  21.4017542015 22.38134861225 5.41498265565  26.8754692778 26.4366103784 0.6145730496999999  27.0615512021 27.3577387891 0.9398682951  26.40365246315 27.1654649805 0.14038390935  27.05262356965 27.14213125615 1.41405743545  26.88439691025 26.65221791135 0.14038390935  21.96941203735 22.1019878301 5.03007105935  22.65421156725 22.0643105389 5.41568174175  21.72177397625 21.58089476125 5.8121230623  22.2894318121 21.3015339791 5.427211466  23.05376838685 21.2979293211 5.84057617305  22.6409725624 21.703527832 6.105755680150001  22.52405868605 21.17298031205 6.60903023425  23.40530913715 21.699923174 6.5191203872  23.8181049616 21.2943246631 6.2539408801  22.9368545105 20.76738180115 6.34385072715  25.0781939045 26.5973945892 3.3662131382  24.97190109995 26.37838999645 2.58490409555  25.603991767 26.48796848925 2.90960518605  25.3963395944 26.0519827032 3.06478647595  25.7144852843 25.5065708172 2.7633598137  25.29004678985 25.83297811045 2.2834774333  25.9221374569 25.94255660325 2.6081785238  24.66181489605 25.6793934023 2.53093153175  24.7681077006 25.89839799505 3.3122405744  24.4580214967 25.1994014009 3.2582680106  25.0862533905 25.35298610905 3.01081391215  24.3862538675 26.6872622361 -0.6591004764  24.62593108145 26.4233238199 0.57224728825  24.82350172325 26.2329007359 -0.6591004764  25.06600379585 26.830226704 -0.6591004764  25.0631789372 25.9689623197 0.57224728825  23.00575231755 22.4663043918 6.094225955900001  21.2879740904 20.8205998419 4.4476585088  21.78870295125 21.0610669105 4.9374349874  21.4686831765 21.8615207615 4.54029458075  21.2210451154 21.34042769265 5.3223465837  22.62245974385 23.7042286876 5.49202613735  22.95081975215 23.34968978095 5.07922821365  22.8826481819 23.8722924632 4.7543044098  22.26602022225 23.38736707215 4.69361753125  20.7512593675 21.71166961935 5.129533152400001  20.8181883425 21.1918417686 4.254845077500001  23.298414877 22.0380847718 6.04036409595  23.71121070145 21.6324862609 5.77518458885  23.6043164413 21.9706478587 5.2964282976  22.9468741267 21.6360909189 5.361819881800001  22.46419833975 21.8680583794 7.335844568200001  21.4038259063 21.29134745835 4.0019995765  22.94828106065 21.75059611125 7.2086357129  23.31165388185 22.3988674787 5.350290157550001  23.29333468005 21.4520863717 7.0600796962  24.2886122283 25.9142669684 0.57224728825  24.4861828701 25.7238438844 -0.6591004764  32.2772100769 15.0815919971 4.2873423807  32.977785148 14.31473756105 4.4045886964  33.20287146184999 15.09103338805 4.49213360245  32.53353807005 14.72674002725 3.9469296214  32.72145715485 14.6695895309 4.745001455700001  33.1657042328 14.2575870647 5.2026605307  33.459199455 14.7361814182 4.15172084315  33.6471185398 14.67903092185 4.949792677450001  32.7898660632 14.3718880574 3.6065168621  34.1285328468 15.100474779 4.6969248242  34.2621227036 13.9634020813 6.2720927992  34.90626291375 14.7722618733 5.55329811995  34.1953277752 14.53193843015 5.4845088117  34.27829051115 15.0213600277 5.96084954605  34.2944583187 16.0793179741 5.6496062929  34.9224307213 15.8302198197 5.2420548668  34.21149558275 15.58989637655 5.17326555855  34.83946798535 15.34079822215 4.76571413245  35.5504031239 15.5811216653 4.8345034407  40.6758673128 10.4392728528 10.9896238935  39.4162037913 10.09402879085 10.33647389185  39.4030308389 10.3066654501 11.2074317267  39.05252996955 10.81316564175 10.7660835068  37.4291926263 11.1870584307 10.5425431201  37.79286644805 10.4679215798 10.11293350515  37.77969349565 10.68055823905 10.98389134  38.130194365 10.1740580474 11.4252395599  38.1433673174 9.961421388150001 10.55428172505  38.1565402698 9.7487847289 9.683323890200001  30.4068249156 20.341351532 4.821569375  31.4641694417 20.27441570875 4.64499311565  31.00638997435 20.4955737278 4.0020823513  30.9388590179 19.939613302 4.2444862591  31.4708931202 19.537875072 3.6674031432  32.06373450045 20.42863790455 3.82550609195  31.996203544 19.87267747875 4.06790999975  31.53842407665 20.0938354978 3.4249992354  31.6059550331 20.6497959236 3.1825953276  32.5215139678 20.2074798855 4.4684168563  35.3618320632 10.8212017099 8.7605551029  35.99544115405 10.49713023495 9.4553145024  35.81500020095 10.01502129485 8.728175917249999  36.21555283985 10.71541862525 8.855718941300001  37.0692736165 10.6096355406 8.950882779700001  36.4486092918 9.6909498199 9.422935316749999  36.8491619307 10.3913471503 9.550478340800002  36.6687209776 9.9092382102 8.82333975565  36.2681683387 9.2088408798 8.6957967316  36.6290502449 10.17305876 10.1500739019  39.2848008013 21.0757235933 4.6984508755  38.35015583535 21.2103717931 4.2207271019  38.5599976538 20.3426625844 4.34415880595  38.50316038405001 21.00461268665 5.0306793368  37.7215199668 20.93350178 5.3629077981  37.56851541810001 21.13926088645 4.5529555632  37.77835723655 20.27155167775 4.67638726725  37.8351945063 19.6096015755 3.9898667364  37.62535268785 20.4773107842 3.86643503235  37.4155108694 21.3450199929 3.7430033283  34.1778712372 7.7011374178 1.4765188345  34.43486543055 8.098350874200001 1.2057007058  33.9440054514 7.80672179015 0.40870917905  34.15680840045 8.3994319731 0.40870917905  34.1357455637 9.097726528400001 -0.6591004764  34.20099964475 8.20393524655 0.13789105035  34.4138025938 8.7966454295 0.13789105035  33.92294261465 8.505016345450001 -0.6591004764  33.7101396656 7.9123061625 -0.6591004764  34.6918596239 8.495564330600001 0.9348825771  37.53158482265 11.5129792033 11.514188918  38.1585763625 11.211109403 11.23790986165  37.1527019558 10.98242803935 11.26017039635  37.80807549315 11.71760959465 10.79656164175  38.18695836 12.2481607586 11.0505801634  35.5927975658 11.6001198421 10.715106196  36.79758194675 11.7896352944 11.044230243  35.8793844165 11.9961660001 11.13051178095  35.7607837231 11.9540770901 10.50145790295  36.51099509605 11.3935891364 10.62882465805  35.9287698804 12.3080343381 10.2878096099  36.04737057379999 12.3501232481 10.9168634879  36.67898125335 11.7475463844 10.415176365  36.1659712672 12.3922121581 11.5459173659  36.927485693 16.3066517412 8.7071237378  37.20119210245 17.40501079015 8.238603171499999  36.59422827785 16.97923497465 8.35561865315  37.0594560832 17.22881718355 8.892368620700001  37.5344495176 16.7324275567 8.59010825615  37.1914264734 18.1509826259 9.0776135036  36.72619866805 17.901400417 8.540863536050001  37.66641990780001 17.65459299905 8.775353139050001  38.1414133422 17.1582033722 8.4730927745  36.2609708627 17.6518182081 8.004113568499999  33.14943533 21.5274313115 6.4206961193  33.8604699946 21.11159512455 6.087596843549999  33.91166428795 22.1574942441 5.9957947789  33.62085428515 21.4719608117 6.768346718149999  34.0922732403 21.4164903119 7.115997317  34.33188894975 21.05612462475 6.4352474424  34.3830832431 22.1020237443 6.343445377749999  34.6738932459 22.7875571767 5.5708934385  34.62269895255 21.74165805715 5.662695503149999  34.5715046592 20.6957589376 5.7544975678  35.2727415204 17.1356132595 5.0858082497  36.54336195895 16.63688608305 5.68603751675  36.656370302 17.5099559659 5.77500728335  35.971979432 16.85097472875 4.8543350072  35.84412404734999 16.9215246138 5.91751075925  36.08498777505 17.7240446116 4.9433047738  36.4155065743 16.7074359681 6.7492132688  36.8972340297 18.3124759637 4.8008012979  36.78422568665 17.43940608085 4.7118315313  36.6712173436 16.566336198 4.6228617647  37.67705703 12.1200788635 7.6826072261  37.63813300515 11.55117266865 8.9354325963  37.9420247119 12.3063943301 8.301294819500001  37.42316445115 12.1952222209 8.75529972665  37.37316532325 11.36485720205 8.316745002899999  37.1192727444 11.44000055945 9.389437503450001  37.1692718723 12.2703655783 9.827992227199999  37.68813213305 12.3815376875 9.373987320049999  38.2069923938 12.4927097967 8.9199824129  35.274428684 9.215404057300001 1.7685309834  34.98314415395 8.855484193950002 1.35170678025  35.29821848945 9.424528742350001 0.5547152534999999  34.70
[...]
<PointData  Vectors="u"> 
<DataArray  type="Float64"  Name="u"  NumberOfComponents="3" format="ascii">1.4828657027969644e+01 -4.7887422516489195e+00 -7.2936423162535737e+00  1.9800569407323387e+01 -1.6894465637587279e+00 -7.7399565068992282e-01  1.4255127938869570e+01 -4.0354998103234845e+00 -6.4196900769297638e-01  1.4208864438264646e+01 -6.7032865212720749e-01 -9.6788460796703402e-01  1.1152388197565376e+01 6.0045206197200729e-01 8.2135796291578328e-02  1.4691773157354813e+01 -1.4757281963309068e+00 2.3292967086661973e-01  1.1091559706571836e+01 -2.7334906091251328e+00 4.2852562135569677e-01  8.9150389829220948e+00 -5.9831831045270318e+00 1.9524846667525193e+00  1.3406860354038718e+01 -8.4090454469915841e+00 3.6973865916883972e+00  2.2888457387706797e+01 -1.3388987621230066e+00 5.7813868904071219e-01  1.1328508541948020e+01 -9.7701755594279949e-01 -4.2957828348211340e+00  1.2087552363183505e+01 -6.7228053034508299e+00 -1.4512096318567591e+00  1.0703792754533495e+01 -2.2218132833124886e+00 -5.7037059688362102e-01  8.7776312921900335e+00 6.8925582029466570e-01 -2.5538566806011183e+00  3.1070003952938350e+01 -1.1557554411705812e+01 -6.6148300369415169e+00  1.6969367243661907e+01 -9.0236829499663731e+00 2.2381287735210953e+00  1.0374733004520971e+01 -9.6848211771173442e+00 2.2098746184679172e-01  7.1294032032962562e+00 -1.7938548932633992e+01 -8.2416833373245346e+00  1.1324729658233389e+01 -1.0342873558975070e+01 -9.0669558824310190e+00  1.9538279436143775e+01 -9.9071366561142007e+00 -8.8919485742555029e+00  -3.6983039691163659e+00 3.5515445681417773e+01 -2.2458909797646278e+01  2.7108968688599244e+00 3.7045546778126521e+01 -2.1735642975054894e+01  -1.0007661456804421e+01 2.9756456537465692e+01 -2.2765013204419901e+01  -7.0518021199283956e+00 3.0068673134776486e+01 -1.1427869183863814e+01  -6.9415528227562282e+00 2.7853134693337179e+01 -1.9174214502361796e+01  4.8372680176316916e+00 3.4676621051438204e+01 -1.8464765368837369e+01  4.9558782839810887e+00 3.9719991198261759e+01 -1.1279943998935265e+01  1.6554509047318074e+01 4.3528425260704680e+01 -1.7289524074775382e+01  3.8439505240020189e+01 7.3781471018355631e+01 -4.2661671663162721e+01  9.5783405113545328e+00 5.3360120493640807e+01 -4.0577066885655213e+01  1.9168060126751570e+01 4.6287022322579290e+01 -4.0968130211758627e+01  -6.3318256595440880e+00 7.2780114149425458e+01 -5.6767603575435572e+01  -2.6668484582063833e+01 5.7204074850937296e+01 -2.8750539579394744e+01  -1.7024920067879535e+01 4.8194139472164302e+01 -3.5215934590973589e+01  -3.1704676945309038e+00 4.2985770453152419e+01 -3.5747119893014471e+01  8.0073017449214472e+00 3.7167129554240262e+01 -3.8129669215395509e+01  3.9002681008988702e+00 4.1159737782177871e+01 -3.3651475926796152e+01  -4.2335274314863142e-01 3.9724037920930016e+01 -3.3056044685743863e+01  4.1932101664606041e+00 3.5376799761305179e+01 -2.5315097484483694e+01  7.8890634575018925e-01 3.5875018942149580e+01 -2.7984053900144474e+01  -6.3825628455420986e+00 3.5091200902113265e+01 -3.0579200997367145e+01  -4.0410140836154413e+00 3.1926210823948409e+01 -3.2029161241764129e+01  1.1228326852658552e+00 3.4616198618368294e+01 -2.9912288585848213e+01  9.8671011627293126e+00 4.3259809258070831e+01 -2.7542943490274286e+01  2.5748322296558875e+01 -1.9319403576299166e+00 5.9575285565265323e-01  3.5990178600852261e+01 -1.4233417319552654e+01 -4.6759595461722725e+00  1.0666584804458735e+01 -1.1076401602376746e+01 6.7731687224091175e+00  3.3741361915995505e+01 -1.6072063356739466e+01 -6.5463200416464016e+00  3.1028812283096357e+01 -5.5213113467453088e+00 1.5069499783861304e+00  8.8925203162928561e+00 3.7047427842798044e+01 -2.9616876681136574e+01  3.3536644731406757e+00 3.0301533284878033e+01 -2.9527835597684103e+01  1.5111664641991702e+01 3.8400400970006345e+01 -2.2552965104809143e+01  1.4040480364666603e+01 3.2805288710182815e+01 -2.7429103976863725e+01  5.6233426369228789e+00 2.4259073648507190e+01 -2.8530666838697140e+01  3.2159299215999386e+00 2.9032864214496556e+01 -2.4869160137888912e+01  6.9884381322462605e+00 2.9269938167343788e+01 -2.1100053705165831e+01  -4.1104723382803803e+00 1.9731730896990005e+01 -2.4772642963401296e+01  -6.5008931414958449e-01 1.6352743513391101e+01 -2.7700712019520505e+01  9.3742355379537035e+00 2.5291182076849378e+01 -2.4321259631456670e+01  5.0864593877503577e+00 1.0736719136728630e+00 -3.1138525257143956e+00  6.8410845786914427e+00 5.1151724108871954e-01 -3.3886537882365300e+00  6.0580373348238892e+00 -9.0601990484158401e-01 -6.3176439503726556e+00  7.5117405668064059e+00 -3.7206348747802265e-01 -4.2794673803714556e+00  1.3948046110487274e+01 -5.9195542413153127e-02 -5.3436757849096415e+00  1.0807592668163823e+01 9.6597162218192578e-01 -3.8509410918934619e+00  1.3906227218032772e+01 -2.4874004343461502e+00 -7.9435466913560848e+00  8.2842675553894107e+00 3.4641895791814781e+00 -3.2987062440850123e+00  7.0661870491358574e+00 2.6975639333593469e+00 -3.1096615927361366e+00  9.1670514555000615e+00 6.9002391977842494e+00 -3.9004421797965345e+00  9.9463394053590708e+00 3.8341006080390629e+00 -3.9398166282250999e+00  6.2514635883539267e+00 -1.5317404829443120e+00 6.2801818798854048e-02  7.5597706745439650e+00 -4.9491946717323143e-01 -6.6222551718605283e-01  8.4658482203764329e+00 -6.4704180986729021e-01 3.6011999865679947e-02  8.2215051928997092e+00 -3.1637954319121073e+00 1.5586340997154330e-01  1.0132093741308543e+01 5.2385418424071151e-01 -9.5050427163521778e-01  -7.1874352297412232e+00 2.7346576827188862e+01 -2.7830667733151714e+01  3.8725505490572885e+01 4.9727080057445562e+01 -3.4124697796330778e+01  2.2496205830677063e+01 3.7564692583034756e+01 -3.0708164535315696e+01  1.3801657764784739e+01 4.2942233120454624e+01 -3.5711351994162555e+01  2.5207521148098042e+01 4.5607446879257033e+01 -2.5240785620280487e+01  -1.7483314765083318e+00 3.6042461712868274e+01 -2.9721270872020511e+01  -1.8971749883307132e+00 3.5523050301704210e+01 -3.1441146958028860e+01  5.4373160998893573e+00 3.4168812902122660e+01 -2.4970748618340149e+01  -3.2860979803102506e+00 3.3561576435227536e+01 -2.9732394174481680e+01  2.5214348617353263e+01 5.3700971194770965e+01 -2.7235389564389767e+01  3.9624616406924027e+01 6.1584899293429189e+01 -4.0616466717997540e+01  -6.7727448732630187e+00 2.2701968775588711e+01 -3.0120609048778071e+01  -4.6777922135022472e+00 1.7142287716779769e+01 -3.2506651510732119e+01  -2.0235825812027390e+00 2.2286699206217598e+01 -3.5800673482923635e+01  5.3950742376572807e+00 2.6715198625984051e+01 -3.0895466481165084e+01  -3.4626901580130114e+00 3.7396626383325241e+01 -1.6680181707054604e+01  1.8661587006552391e+01 3.7925178740411816e+01 -4.5402981029076720e+01  -4.4011805240446567e+00 2.5185061092893612e+01 -2.5557810075995643e+01  -3.9473020365442952e+00 2.6428056496879265e+01 -3.4041890476159431e+01  -2.2107151872276782e+00 2.1900616208362948e+01 -2.2125806822569704e+01  6.7104402450296829e+00 1.4392476652997712e+00 -9.5445000856511564e-01  7.5654834601253746e+00 1.6394167286965193e+00 2.2502360444700234e-02  1.3429202320433771e+00 -1.4007349925756849e+00 2.0712322558546683e+00  -2.3566027559063678e+00 6.0457356456017761e+00 4.8103981833370906e+00  2.9153855721479425e+00 2.6320642671770695e+00 3.3052625329258789e+00  -1.0596668246073795e+00 1.5155551310670012e+00 2.3097898469316527e+00  -3.7868161600808986e-01 8.6563331291971524e-01 3.8073841698769737e+00  -4.8952979216207776e-01 6.0744047348959569e+00 5.3531511602184159e+00  2.2632747739322818e+00 6.0785177791587905e+00 3.4235095307810890e+00  2.9393948482158403e+00 5.7373232362502824e+00 4.6356931192800452e+00  -2.8593229041503898e+00 7.0233132126394207e+00 2.8660916160167123e+00  5.2666876030247369e+00 5.5233596823250286e+00 3.8165947305828118e+00  2.9329103688603184e+00 8.8370466146739677e+00 8.6268923607321071e+00  6.2391168942537449e+00 6.8998877777294831e+00 5.1928030645311107e+00  4.1105755703440003e+00 7.1741929222752283e+00 5.8996342117477143e+00  5.2147572943307257e+00 4.3816747017880475e+00 5.7518392159338250e+00  7.4970268461165750e+00 2.2731432766529251e+00 4.3914780990453437e+00  7.8031591698929921e+00 4.2078317846692386e+00 3.8557505616538368e+00  6.4528009849668821e+00 3.6163234031352949e+00 4.0362725140735467e+00  7.1011357537644839e+00 5.7955843371272167e+00 3.5604416706575663e+00  7.8996370461128294e+00 5.9685446299709701e+00 3.4854934232341197e+00  1.0355887311881013e+02 2.2546717227470793e+01 -2.4896968459829331e+01  5.4593105966842018e+01 2.7095585110090102e+01 -9.4077327825967689e+00  5.2978117859831272e+01 3.1439320586505520e+01 -1.9955174220987633e+01  4.9970170643268716e+01 2.0987028876551992e+01 -1.1642438815553408e+01  2.8521778520599312e+01 1.7496412986674049e+01 -1.1400659095048688e+01  3.1354064339240534e+01 2.0104415472275878e+01 -7.6898123102511562e+00  3.2140319031055469e+01 1.9128917534152119e+01 -1.3575997277231755e+01  3.5358214399839888e+01 2.1307818736878236e+01 -1.6270332950325514e+01  3.3470159403645212e+01 2.3386695391738840e+01 -1.0695805258097261e+01  3.3488520263266778e+01 2.4807721222548714e+01 -4.4681279862120684e+00  4.4239086969317448e+01 6.0201760229971208e+00 2.0118095507146734e+01  3.3334153203989885e+01 -3.0676490241411125e+00 1.3985389253556226e+01  4.0690795927013880e+01 1.8102718154061090e-01 1.4802018530843579e+01  4.4388030157810064e+01 -3.5926664615156612e+00 1.4679001399145362e+01  4.7257835905730417e+01 -1.2774320997375691e+01 1.7912729694783274e+00  3.1613813930706819e+01 -8.2413008938204264e+00 4.1683073818355929e+00  3.1662880183436901e+01 -8.9280481212758467e+00 3.5046624318454667e+00  5.0404412687473297e+01 -1.0716374514482466e+01 2.6141175483995158e+00  4.2348662659271206e+01 -7.7940506857820040e+00 4.4302459412394688e+00  2.5620784476147204e+01 -6.6444441246968120e+00 6.5040792663091507e+00  1.2897085942625356e+01 2.1297168375723494e+01 1.9174702353804070e+00  1.5872044420160728e+01 2.0963756375168479e+01 -5.0005775407995818e+00  1.6074125891298166e+01 2.1137158718124251e+01 3.5589423919968377e-01  1.7294183735319088e+01 2.0794708611911275e+01 -9.7987920560459529e-01  2.3619463195001384e+01 2.0001097239313808e+01 -1.3957739002349714e+00  1.9763802988118172e+01 2.0680681746658895e+01 -4.0959454845781806e+00  2.2566344557347644e+01 2.0023600028473059e+01 -5.1588997690393894e+00  2.0797681405000663e+01 2.0923026093511933e+01 -8.4262289422924563e-01  1.8492319258725598e+01 2.1468341211747457e+01 5.0935107850136541e-01  2.1500976086136546e+01 1.9690798233737333e+01 -9.3222469263818351e+00  1.9920658172844398e+01 -1.2296353353296675e+01 2.4251417452637667e+00  1.8241175097758941e+01 -8.1909066318674117e+00 1.4826546573116677e+00  2.1605164923342613e+01 -2.5519876898531253e+00 1.3706024389782108e+00  1.9653934006191189e+01 -6.6161267501404204e+00 5.7343056481143924e+00  1.8711832037740049e+01 -3.1821884370127913e+00 4.8119049293882830e+00  1.8037480281922246e+01 -4.7328681145233178e+00 3.3963163200358077e+00  1.8830322031853726e+01 -1.6411128443179426e+00 2.6124051639481416e+00  1.8970931883635831e+01 1.9057090616531878e+00 7.4785048496985196e-01  1.8840186463189127e+01 -3.0532220145719364e+00 1.3918147925761630e+00  1.7463242601351986e+01 -5.8942468961137591e+00 1.8974265329385414e+00  8.7590721757018279e+00 2.2350128721132428e+01 8.4440046499807775e-01  1.5492743366134899e+01 2.9750858195564856e+01 1.5071150421943038e+00  9.7703177781002779e+00 1.8594192791825641e+01 3.1662874957372287e+00  1.5813199900421738e+01 2.8203451558734951e+01 5.4653122782224859e+00  2.9780907663626664e+01 2.7935310159606082e+01 9.5570681286829007e-01  6.9594577563505817e+00 2.7807967361309629e+01 7.5953820805690899e+00  3.4612209258923741e+01 3.5841839652500653e+01 2.6630093899646576e+00  1.0747248672973566e+01 2.6599326044202812e+01 2.8891624341839393e+00  8.8377998532697397e+00 1.6882181615427058e+01 1.7142169142678763e+00  3.2443179375191932e+01 3.5010114193148667e+01 4.6014836910901280e-01  3.1620427992490118e+01 1.6165686610163370e+01 -1.7504891529625112e+01  3.5979335403021487e+01 1.8109939359857538e+01 -1.5455072730141474e+01  2.7680921877164852e+01 1.7413727817117476e+01 -1.6056067442784538e+01  3.2708355086672135e+01 1.5521757161668736e+01 -1.2572327160691152e+01  3.7158883085625682e+01 1.3093227728981059e+01 -1.2579309628165930e+01  1.6596782855853938e+01 1.7772547595743898e+01 -2.0183354112710528e+01  2.4673752738313254e+01 1.5862362212537288e+01 -1.5691635674604035e+01  1.9621061255875492e+01 1.5937754886723173e+01 -1.9367842083246490e+01  1.6017507206447871e+01 1.6728320554204551e+01 -2.0161884919230758e+01  2.1423899087913497e+01 1.7377896155081785e+01 -1.4208811665666939e+01  1.2379783438420503e+01 1.6104524843077414e+01 -2.0258836091152997e+01  1.9148047435921494e+01 1.5064617371663292e+01 -1.8733790069964591e+01  2.1539363955122852e+01 1.6769878937557930e+01 -1.2818846905727552e+01  2.1610032311225869e+01 1.4910147727267679e+01 -1.9755947786872195e+01  1.6865039051766498e+01 3.3488160032065446e+00 -1.4688243103395071e+00  1.7690940041442303e+01 3.1223216934215352e+00 2.8770904061381214e-01  1.4879957314324344e+01 3.0532514117431564e+00 -6.9365450368625692e-01  1.7720086694476390e+01 2.7354977790878974e+00 -2.6193738537208402e+00  1.9712933674556226e+01 3.1446690004616791e+00 -2.5866825163776858e-01  1.8772284510864672e+01 2.1841933735306731e+00 -4.0299955190660208e+00  1.6092702185758956e+01 2.4327122166929613e+00 -1.6206251682884685e+00  2.0781421041038094e+01 2.8499705889088043e+00 -1.7417035395729517e+00  2.3463586668692312e+01 3.2456297076569038e+00 1.2341921478168856e+00  1.3601086935961675e+01 2.5030296133762366e+00 7.8883406436695114e-02  1.5540548073616337e+01 -4.6839470980753433e+00 1.2596446183583055e+01  1.6004890056733860e+01 -4.0931588358647524e+00 9.4685304285410972e+00  1.6806650177424537e+01 -5.1721497609118385e+00 1.0223018743037182e+01  1.4901380426568410e+01 -4.0718135719128812e+00 1.1452248755115138e+01  1.2517895602852519e+01 -2.8973998797558824e+00 1.2008401917818549e+01  1.4307515631641623e+01 -3.2192868634926679e+00 8.8295895132236115e+00  1.5520212663866575e+01 -4.4541845752947937e+00 9.7782417031785105e+00  1.7177797392968134e+01 -6.1525647614963130e+00 8.9601387375273749e+00  1.6603868212896938e+01 -4.7798586857996117e+00 7.6220162487365632e+00  1.5832888029337107e+01 -3.4498455716426206e+00 6.6369145193753605e+00  1.0411219023598427e+01 2.5774782563128968e+00 2.8351344433530747e+00  9.8078361851313396e+00 5.3414972389520505e+00 4.6021295601130676e+00  1.2052288205448381e+01 4.6009458178508220e+00 4.1294807164734308e+00  9.8401640797548691e+00 4.5864147149249250e+00 2.6255585768296328e+00  1.0383821353150985e+01 3.6388710048147650e+00 3.7153671334323084e+00  1.1802448746371217e+01 3.4503315943945903e+00 2.4563134771624249e+00  1.1697683566328214e+01 4.0655396369162728e+00 4.1669484953997582e+00  1.3409670901643585e+01 4.4886596784873811e+00 2.2320311004518465e+00  1.0872624610424632e+01 5.8881734181197007e+00 2.3634552538476443e+00  8.5319609542982757e+00 6.5212061963685475e+00 2.5496656714695862e+00  2.3373308006877483e+01 1.3745972300039673e+01 6.6218977084922921e+00  2.7613286914529734e+01 1.6506648046626797e+01 -1.9825030912131633e-01  2.8116157368453031e+01 1.2630105526499701e+01 4.1711322726557540e+00  2.3401598839022292e+01 1.4054096186620153e+01 -3.2946267148920828e-02  2.3898545568078671e+01 1.7272914141191777e+01 2.3932343671296064e+00  2.3715460466147253e+01 1.7565490567195660e+01 -4.2474048940906721e+00  2.3119551523366013e+01 1.4320565996784268e+01 -7.8559720830913822e+00  2.7459655660384062e+01 1.2874438438457005e+01 -3.0992853767078499e+00  3.2074216304198053e+01 1.1305358234615211e+01 9.2641258393420134e-01  3.7047340181455944e+01 1.8992630410234199e+01 -2.2697329889427378e+00  4.1344252601407760e+01 2.0870031052667024e+01 -4.3646799892515036e+00  3.0994301214429218e+01 1.6197685236124418e+01 4.7034671529421967e-01  3.4581076619698500e+01 1.9402288090965445e+01 -2.2579560616665568e+00  3.4348159126484461e+01 1.5161365157213959e+01 -3.6451024155050158e+00  3.3259670797081782e+01 1.5837999073194743e+01 -1.2835738371707057e+00  2.9562974799949149e+01 1.4352078327729245e+01 -1.0497626543847283e+00  2.0666183975473871e+01 2.8380978322658411e+01 -1.2899809805118663e+00  2.4318050216354688e+01 2.1058548997752496e+01 8.8172607771492317e-01  2.0974357707396866e+01 1.8617495169752900e+01 1.4274366413513351e+00  2.2641738106409058e+01 2.0443457939212170e+01 1.3249459383932596e+00  1.1914411428349151e+01 2.8642390959480434e+01 -7.9344473731730314e-01  2.5956466724529481e+01 3.4681403730842582e+01 -3.2495855056104053e+00  2.7335410112540817e+01 1.7902965208558662e+01 2.4233363155105008e+00  6.6206891858160404e+00 3.7049650632548516e+00 -1.0819260219954250e+00  7.6920724674633005e+00 7.5186054846049410e+00 1.0700613682005368e-01  8.3942182058006072e+00 5.6024911873256400e+00 -2.6819739124931966e-02  9.0999245026285642e+00 5.2106022106263330e+00 -1.7399485906995310e-01  1.0140849148139283e+01 8.2731869153598172e+00 -1.7087980985155418e+00  8.6587624902364819e+00 8.0687537160121696e+00 -2.4791202209937385e-01  9.1493411316998134e+00 6.8766587058632282e+00 -6.8609769451241731e-01  8.6934629453999239e+00 6.6306525028162060e+00 2.8378905677205446e-01  8.5255403178678151e+00 7.9766158250900681e+00 4.1922664452634573e-01  8.9741320438776970e+00 9.0114441264262197e+00 3.1311257626695377e-01  3.0347105377044652e+01 -1.0399196633999248e+01 2.3092582966769912e+00  2.4128169471255124e+01 -1.0175366644042834e+01 3.1491355721355991e+00  2.6835103015199323e+01 -1.2995769888674030e+01 1.1664451013914245e+00  2.5855364669724356e+01 -1.1693207596023296e+01 1.5083456857076337e-02  2.4308227425001345e+01 -1.1564499306493554e+01 -1.7702677331268659e+00  2.2759468725073553e+01 -1.0307949305513272e+01 1.5026969845598814e+00  2.5721050302383624e+01 -1.3559466143789292e+01 -1.1914750174797053e+00  2.6873325024074752e+01 -1.4044035630409233e+01 2.0512615940718644e+00  2.4065360716256222e+01 -1.1794765718164253e+01 1.8867597171896868e+00  2.1503004325124074e+01 -1.0531276631565502e+01 3.7061474048114214e+00  9.4322554473941608e+01 5.7784392881389737e+00 -2.2332511764798728e+01  5.1425437865176534e+01 1.0469290753183584e+01 -1.8543568255246672e+01  4.3847445785909109e+01 1.4198371766654333e+01 -2.3212394074369840e+01  9.5488705307970193e+01 1.5442223895854536e+01 -2.2889707354613382e+01  9.2786465415665177e+01 1.0904085547352121e+01 -2.7970406800006621e+01  5.4751982227373425e+01 1.1259126493311433e+01 -1.6930949783112023e+01  4.5965112323008093e+01 1.5413199679046311e+01 -2.1277252781910882e+01  2.9406612025476687e+01 1.5053765888052661e+01 -2.0780297519092805e+01  3.3451383853506847e+01 1.3781538226327996e+01 -1.7354493283477630e+01  1.1762956010192040e+01 1.0985101831720023e+01 -2.1276349751914918e+01  1.1880011713294927e+01 7.2530499460846070e+00 -1.5279479584742873e+01  1.2143735875567922e+01 9.4003108710550336e+00 -1.7456122917356112e+01  1.3229834140329322e+01 8.3943858788741732e+00 -1.6448626135794527e+01  1.0271719961357448e+01 7.7047148478062581e+00 -1.9469753792255318e+01  8.0786076266704310e+00 3.8413725016607163e+00 -1.7427918084393482e+01  1.3552635586443335e+01 6.9548469965844282e+00 -1.3663356152286852e+01  1.7983643967761513e+01 7.5171868846604033e+00 -1.2380506381509084e+01  1.5313905172695458e+01 7.7999003646551994e+00 -1.3895346003892264e+01  1.3050970927249255e+01 8.5197058319417120e+00 -1.4745374321380645e+01  1.6921773840059025e+01 -5.1451536083257370e+00 1.3277933873085736e+01  1.9173336023374677e+01 -6.8599233207561747e+00 8.3171506577300569e+00  1.6471758536234518e+01 -6.7193076413323611e+00 1.0721350380973043e+01  2.0661675317474067e+01 -7.2208298984313899e+00 1.4459952205672979e+01  2.8042793198171360e+01 -1.5316852017195780e+01 1.5329404970001869e+01  1.5702835659852305e+01 -7.8797344379305496e+00 6.5522066413047133e+00  2.2666213125691044e+01 -1.1500105850878752e+01 7.4563992148133442e+00  1.7849613257451360e+01 -1.1263285024275037e+01 9.8425479998597947e+00  1.2924146804359827e+01 -7.48154