<?xml version="1.0"?>
<VTKFile type="UnstructuredGrid"  version="0.1"  >
<UnstructuredGrid>
<Piece  NumberOfPoints="5645" NumberOfCells="25535">
<Points>
<DataArray  type="Float64"  NumberOfComponents="3"  format="ascii">19.4497532798 8.8128098219 35.3792022577  19.84851307785 8.2046981598 35.78809979005  19.80652196425 8.804619099149999 36.16060136115  20.0130195981 9.03116984555 35.63983196755  20.0550107117 8.4312489062 35.26733039645  19.24325564595 8.586259075499999 35.8999716513  19.0367580121 8.3597083291 36.4207410449  20.5762859164 9.2495298692 35.9004616774  20.61827703 8.64960892985 35.5279601063  20.6602681436 8.049687990500001 35.1554585352  19.8449815669 2.03783082 40.6433994556  19.4243084942 1.9244424818 39.39133911715  20.36501077155 0.6837907912 39.3809977514  20.17432868835 1.34738777035 39.8666220142  20.5036758098 0.6569447207 39.0898445728  19.94433769885 0.570402453 38.12893741295  19.75365561565 1.23399943215 38.61456167575  20.694357893 -0.006652258450000004 38.60422031  20.8850399762 -0.6702492376 38.1185960472  19.0036354215 1.8110541436 38.1392787787  18.5716744745 4.3513886068 38.2979676604  18.9006060752 4.16656194295 37.57653537135  19.2326137176 3.62249777585 38.07062505175  19.6059391618 4.35086194875 37.98228428415  19.8935529607 2.8936069449 37.8432824431  19.5615453183 3.437671112 37.3491927627  19.9348707625 4.1660352849 37.2608519951  19.2295376759 3.9817352791 36.8551030823  20.5055947555 3.7902224084 35.2833077826  19.61383802815 4.58288199585 36.04519927574999  19.8991717748 4.13502122475 35.43826856505  20.25186656795 4.4871255605 35.25930162589999  20.15289996235 3.43811807265 35.46227472175  19.8675662157 3.88597884375 36.06920543245  19.8002051692 3.0860137369 35.6412416609  19.51487142255 3.533874508 36.2481723716  19.9981383804 5.1840287126 35.2352954692  19.72053773665 7.306329323 36.57117506855  19.85645493715 7.783906797649999 36.8058309744  19.44417837435 7.44530039865 36.1309197779  19.8515987366 6.5308924682 35.8410985109  19.4085473115 8.20464658995 35.5191747843  19.61504494535 8.431197336349999 34.9984053907  19.7803366109 8.049584850800001 34.6176085237  20.22030237725 8.04963642065 34.88653352945  17.8313840191 4.3033851351 37.5920873029  17.9773406269 2.9370785795 37.80125845895  18.3352728916 3.53110539635 37.63704742845  17.9651276639 3.5071036605 37.2841072497  17.8435969821 3.7333600541 38.10923851215  18.2015292468 4.32738687095 37.94502748165  18.2137422098 3.75736178995 38.4621786909  17.8558099451 3.1633349731 38.6263897214  18.0988713087 2.7108221859 36.9761271965  20.9594152914 6.742741982 34.6114279838  20.83736016135 6.884209649000001 36.1160366117  20.405507014 6.6368172251 35.22626324735  21.16470159415 6.2690168194 35.50240318714999  19.5418623093 2.3270661598 36.1056552931  18.9962121347 2.8022145654 37.4097048198  19.3856999926 3.15440071945 36.4803791877  19.717707635 2.61033655235 36.9744688681  18.820366809 2.51894417285 36.5408912448  18.6642044923 3.3462787325 36.9156151394  18.6842091447 0.6358987697 38.893244511  19.32590658855 0.570402453 38.1353720787  19.26510660665 1.28370755585 38.67856642895001  18.8439222831 1.22347645665 38.51626164485  19.5873777737 0.04305586524999999 38.67465972895  19.16619345015 -0.01717523394999998 38.51235494485  19.10539346825 0.6961298688999999 39.0555492951  19.5265777918 0.7563609681 39.2178540792  19.6481777556 -0.6702492376 38.1314653787  18.9139476852 3.4571805216 39.2997544519  19.8692672638 2.46571888245 39.24334094935  19.9277335975 3.3003519608 39.24334094935  19.40375032295 3.17539373325 38.5715184475  18.3676173433 6.3241767818 36.9414612486  18.56256153735 5.7722967201 36.4306884344  19.1523251027 5.81897434745 36.8386138758  19.10960803995 6.427534625 36.39127987975  19.304552234 5.875654563299999 35.88050706555  19.89431579935 5.92233219065 36.28843250695  19.9370328621 5.3137719131 36.735766503  19.34726929675 5.26709428575 36.3278410616  18.7575057314 5.2204166584 35.9199156202  20.4895060775 5.6318591962 33.9084500325  20.6298322273 4.93553007935 34.86825547885  20.7833786295 5.54083012015 34.79066077025  20.24382222895 5.4079439544 34.57187275085  20.87551607585 5.15944532115 34.2048327605  21.02906247805 5.76474536195 34.1272380519  21.5686188786 5.8976315277 34.3460260713  19.86680634885 4.24336314335 34.95726216025  20.1205345364 3.54645999125 34.98126831695  19.76783974325 3.1943556555 35.1602352561  19.7354743173 3.3026975741 34.6792288513  19.4652278307 6.7383104653 37.8674634624  18.71551689925 5.86350730875 37.4546442904  19.7011303464 6.0260411892 37.3016149827  19.26432214295 6.0705741505 37.91764539730001  18.916422587 6.53124362355 37.4044623555  19.0634164552 5.4028378357 37.9678273322  19.50022465865 5.3583048744 37.3517969176  20.0814526166 1.4835360478 37.0143342107  20.38929646845 1.11167885365 37.98093924515  19.54254401905 1.6472950957 37.5768064947  20.4832462964 0.4066434051 37.56646512895  19.98750278865 2.18857149635 37.4288083269  19.4485941911 2.35233054425 37.99128061090001  18.6291980259 2.4485211175 40.6433994556  18.8164167237 2.12978763055 39.39133911715  18.7626834386 1.9306794246 40.6433994556  19.2370897964 2.24317596875 40.6433994556  19.3705752091 1.72533427585 40.6433994556  18.8961688513 1.4128377317 40.6433994556  18.9499021364 1.61194593765 39.39133911715  20.2213138088 4.55199716075 36.0095371428  20.5728993023 4.07027884955 36.47495434525  19.583285269 4.6477535961 36.79543479265  21.02880757825 4.70885134765 36.72292242175  19.68577967935 1.39709589405 39.9306267674  19.21137332155 1.0845993499 39.9306267674  18.4297226833 2.48719455835 38.38283425005  18.8746814529 3.028470959 38.23483608225  18.5512533651 2.26093816475 37.5577029876  19.8648151861 0.4066434051 37.5728997947  20.2666088659 -0.6702492376 38.12503071295  19.65841328365 6.63460146675 36.85428098665  19.96758562125 5.24890031285 35.9855309861  20.0151268008 0.7066528444 39.153849326  20.0759267827 -0.006652258450000004 38.61065497574999  20.9377913262 4.7927570326 35.83834308655  20.68406313865 5.4896601847 35.81433692985  18.34173540215 2.045869044 39.9209684403  18.0542727784 1.6432169705 39.198537425  18.52895409995 1.72713555705 38.66890810185  18.47522081485 1.5280273511 39.9209684403  19.9248685585 5.857460590400001 35.53819699005  19.3778220559 5.2022226855 35.5776055447  20.1705077257 7.0797954335 34.2979750771  20.08432305305 6.13191207305 34.76663527315  20.01105323115 6.80534395085 35.069536794  20.56496150855 6.911268707750001 34.45470153045  20.4787768359 5.9633853473 34.9233617265  20.3300069016 6.35582731485 34.1032125548  20.72446068445 6.187300589099999 34.25993900815  20.2559334401 7.290290229350001 35.49827852305  20.8098417175 7.39621498625 34.8834432595  18.36924096155 1.1395578701 39.04589096799999  18.790188998 1.0243682507 39.7683219833  18.1699157159 5.1454933245 37.2076743985  19.14647706555 4.6922865574 37.41146520725  18.6997266959 4.5636143018 37.0313887404  18.3707950952 4.74844096565 37.75282102945  18.61666608555 5.2741655801 37.58775086535  18.81754546485 4.877113221249999 38.1328974963  18.94953823895 2.8984179614 36.3086844287  19.67103373925 2.70653994835 35.873448477  19.053474289 5.2296326188 36.97172045075  19.2727488654 2.0690601517 37.1224670359  18.9381549049 7.3084571109 37.0009437304  19.80715338355 7.25828118855 37.09593231715  19.39487682075 6.91967478955 36.42102112065  20.6682100029 7.628896628350001 36.17318971955  17.95504136175 2.4032759718 38.9124635732  18.2425039855 2.8059280453 39.6348945885  19.6471120338 9.054200998199999 36.00869850085  19.2613754933 2.6710640312 39.24334094935  19.9210178702 3.46170553085 36.60899537145  20.0771801869 2.6343709712 36.23427147685  20.20635161685 3.01384475975 36.00206466075  20.6124980645 2.9416757826 36.3628876606  19.85181015215 4.8765865632 37.81721412005  19.1848319018 4.981609297149999 38.4993428482  19.3062473484 4.5603807586 39.0308583642  18.93896091145 4.4558846827 38.6644130123  19.37946462605 2.7475056708 39.97157695375  18.77157285555 2.95285081955 39.97157695375  18.74281107985 3.9042845642 38.79886105615  19.59990015455 3.72699385175 38.43707040365  19.1100975168 4.008780640099999 39.16530640805  18.2687665296 5.73483505315 37.07456782355  18.46371072365 5.18295499145 36.56379500935  20.41538793465 7.564741712 34.72671680614999  19.81596767375 7.2902386595 35.2293535173  19.9754221683 7.564690142150001 34.4577918004  18.95879155335 2.6341173326 38.7195166153  18.38487881515 3.31025774735 38.96307208665  18.5304608475 4.1425602071 37.2235951926  19.81165746295 1.9053011038 36.5599947519  18.6528861241 6.81631694635 36.9712024895  21.2615260742 4.6870314461 34.5012154885  20.074987648 4.65939537405 34.545466544  20.32871583555 3.96249222195 34.5694727007  20.7066814949 4.4108967408 34.17842655365  20.88356041485 4.238626927249999 34.89226163555  20.1518369156 4.1347620355 33.8556376188  19.94365561645 3.7187298048 34.26743323505001  20.32067149655 4.88331061585 33.88204382565  20.55904641 3.3659490955 35.8230977216  20.6263509568 3.64600553665 37.01474428425  18.0006498675 4.7244392298 37.3998808507  18.99352170365 4.60107596875 36.38750935125  18.9874564585 7.83408272 36.71084238765  19.2788554503 4.15321519765 35.78057864055  20.34697534055 2.2126059152 36.68861093565  8.396980451499999 6.4438972585 40.6433994556  8.156601341 6.1389764719 39.46684764219999  7.61354616305 6.15764865915 39.46684764219999  7.85602027875 6.8382843512 39.49624164115  7.85392527355 6.46256944575 40.6433994556  7.9162222305 5.8340556853 38.2902958288  7.7232421494 7.4051992887 39.2928031344  8.458632447499999 7.0155021082 39.466482654  8.06011130045 6.9245482736 39.968101295  8.12176329645 7.4961531233 38.7911844934  8.5202844435 7.5871069579 38.2895658524  7.91767227475 7.4098892009 38.31932483955001  7.71700402725 5.47720334225 39.46684764219999  7.95738313775 5.78212412885 40.6433994556  8.218253337 6.710581321599999 38.2899308406  8.1117621373 7.18703634185 37.7347706721  11.2396515353 1
[...]
<PointData  Vectors="u"> 
<DataArray  type="Float64"  Name="u"  NumberOfComponents="3" format="ascii">3.5432590460120201e+02 7.7056091518770003e+01 2.8180897742163017e+02  2.4651161825994964e+02 1.2505988559836959e+02 1.8198174562234581e+02  2.1715601406804825e+02 1.9305242836792573e+02 2.2147276943555801e+02  2.7622651389520729e+02 1.5355522221401409e+02 1.7450295925565135e+02  2.9740405629467023e+02 1.4639700027116189e+02 2.1997487560572861e+02  3.7911142860840920e+02 1.0493079995449578e+02 2.4296032816172774e+02  3.0529723504789729e+02 1.2937323882015119e+02 1.9839782447325263e+02  2.1953992099500425e+02 2.3560996938713819e+02 1.4623546817474502e+02  2.3490432888083200e+02 1.5918958042062314e+02 1.5454957935263815e+02  2.5688400354775359e+02 1.0182849557359765e+02 1.5242053450186430e+02  1.2181437007039200e+02 3.3236675501638402e+01 1.8256540682197915e+01  1.2374535192039940e+02 3.2695327975927029e+01 6.2460522093494951e+01  1.0348219285269029e+02 -1.9574232486034646e+01 5.7611843784980024e+01  1.0226208582997447e+02 -2.6335498473416656e+01 8.2373751057586531e+01  1.0446907347708535e+02 -3.2966197416673317e+01 6.4328602818397798e+01  1.8795389066829711e+02 1.2987505358678231e+01 5.8400045401524459e+01  9.0847671760995894e+01 -1.8231559260582603e+01 7.7206982071237078e+01  9.7213405667596675e+01 -8.5533351930742270e+01 8.0428000405105365e+01  1.6115515613711739e+02 -1.9310519618028135e+01 2.5811475636194924e+01  1.8704782933944281e+02 4.2441656116659182e+01 9.6175398038710853e+01  1.8119599760360319e+02 1.0203351075573377e+02 1.0840304447156842e+02  1.8405199839391145e+02 8.2175463746032420e+01 8.8559240579795826e+01  1.7239145136133877e+02 7.2105137517426826e+01 8.1356252754376811e+01  1.5848066068853888e+02 8.1212364280855127e+01 7.5652533694600947e+01  1.7554020940738798e+02 5.4562711391185950e+01 5.9584651796903266e+01  1.8099424786912130e+02 6.3762600047274873e+01 7.2885088833084424e+01  1.7516660107537612e+02 6.9830158417673303e+01 6.6591549634249745e+01  1.9013747077253814e+02 7.1457565897099499e+01 8.0646647700525051e+01  2.8658956799695505e+02 5.3517815267444966e+01 1.0485046396505192e+02  1.8837190822946090e+02 6.5218655506795614e+01 7.8914485355514898e+01  2.0786136528729020e+02 7.6846939477361076e+01 1.0245682050754542e+02  2.2670113197134887e+02 6.9196825626203079e+01 1.0660227251415266e+02  2.5679200585811861e+02 9.3508402699946316e+01 1.4502076700632134e+02  2.0218594130702402e+02 7.1452518616557853e+01 8.7706104731391292e+01  2.0155545972905517e+02 1.1055027064083718e+02 1.3409514459644396e+02  2.0109528929039311e+02 7.0965644804722714e+01 8.4448757435714640e+01  2.1304371063856385e+02 5.8965587742457238e+01 1.0332552447413065e+02  1.9773175516536458e+02 1.0254406420141214e+02 1.3639437184692571e+02  1.9166259446052251e+02 1.3004257624866472e+02 1.4916702566129351e+02  2.2469683576414332e+02 8.1131535240727857e+01 1.4414370465717801e+02  2.0254402059601901e+02 6.8085142372166899e+01 1.1302282426512697e+02  2.6223290867707078e+02 5.1150196195860822e+01 1.8429373356473812e+02  2.7012076728611112e+02 -3.8292515414342780e+00 2.6518327299222210e+02  2.3593080211032228e+02 6.7517578926884774e+00 2.1489570329708013e+02  2.5927079099576633e+02 5.4032580115796620e+01 2.0242331452145797e+02  2.5679812218596931e+02 8.5638261110473394e+01 9.1772805427754776e+01  2.3403278461298032e+02 5.3127676326512848e+01 7.5510780459343124e+01  2.0841075461915878e+02 7.2835082371952424e+01 8.5554027821483629e+01  2.2234764644899556e+02 6.0675012272216627e+01 6.6853462748722549e+01  2.7124975484285915e+02 8.5403216451575190e+01 1.0460044789442350e+02  2.0469540673959426e+02 1.0567047919593166e+02 1.1914913542285464e+02  2.0127643513606338e+02 8.8975354862254775e+01 1.0508640610070201e+02  2.3806468726168447e+02 5.4854114278075336e+01 1.5401620742132297e+02  1.9842377349532018e+02 5.2712932500658184e+01 6.4449555550723673e+01  2.8845986355352113e+02 5.3428399247194193e+01 1.0782759487803600e+02  1.8847355965294466e+02 8.7803838739400391e+01 8.3050329643285536e+01  2.2524922390223659e+02 5.8685197453606250e+01 1.1878222050630144e+02  2.1494459959371778e+02 6.2972956678921662e+01 6.4095635514777314e+01  1.8211550867075172e+02 9.8065101595595678e+01 1.4182436001686108e+02  1.9157356000281791e+02 5.7341806009181319e+01 7.7873882216250067e+01  1.8975526266163217e+02 7.0434984162637974e+01 8.8500205574357494e+01  1.9792003684910776e+02 6.1754252741596112e+01 8.1555189826462325e+01  1.7332199055966527e+02 6.7438250912513169e+01 8.8351672323913377e+01  1.9282351390154250e+02 6.5327416566837584e+01 7.5612022474070315e+01  1.5839540230091143e+02 4.8553387265716026e+01 1.2652513497256528e+02  1.9865775008768202e+02 3.6575793804215948e+01 6.8580700934654971e+01  1.6771109965423994e+02 4.9020626542475235e+01 7.4747445756705645e+01  1.7283090095119550e+02 4.2502582984174332e+01 9.4113290746321752e+01  1.5582821095360896e+02 2.1776198887117893e+01 4.6140257537697565e+01  1.8463163391520285e+02 2.3926108633141240e+01 6.6969664114982777e+01  1.3332035785497163e+02 4.3039793415992484e+01 9.2975323750127288e+01  1.3479372156266527e+02 5.1216789203962868e+01 4.9550161984228779e+01  2.0917628602223780e+02 5.7999846439167344e+00 4.8304537388738709e+01  1.6094564534753769e+02 8.5328592031426226e+01 7.7051942629545863e+01  1.3894033728043675e+02 4.8651071309147476e+01 4.7769144562601078e+01  1.2328438321219383e+02 6.6470278215207713e+01 5.6123057470711430e+01  1.5272537001376864e+02 6.3962850678506726e+01 7.6983375608961694e+01  2.1484186745885722e+02 6.7292387139712218e+01 1.3429617670044911e+02  1.9807280091351939e+02 6.8502753832788216e+01 1.0152980163452875e+02  1.8331465714236327e+02 8.1469898415340666e+01 1.0966716302418364e+02  1.9763161785429895e+02 6.9527904675494639e+01 1.1566407141865594e+02  1.9328303115910055e+02 6.2565646783130553e+01 1.0131903875207765e+02  1.8767850116470879e+02 7.2794231956642392e+01 9.1459138948737589e+01  1.7852759990534958e+02 7.6503077837595967e+01 8.1918607743882902e+01  1.9124979011554348e+02 7.0901314091313097e+01 9.2174549923298059e+01  1.8921139656883892e+02 6.3460713455586578e+01 8.8110179022537650e+01  2.3715320642073755e+02 4.2176829586495657e+01 2.1925211672183863e+02  2.5742824608927299e+02 6.4530736869963675e+01 1.0503084355770602e+02  2.6545379841542905e+02 4.7317412437155077e+01 1.0718851555291033e+02  2.3242948554983650e+02 5.2558430607184064e+01 1.2878361737415850e+02  3.3482513982477201e+02 7.1420771060781391e+01 1.9104070236293236e+02  3.3736969394186445e+02 5.8904927765736041e+01 1.1996747846732357e+02  3.3198095715519446e+02 2.0359040131378151e+01 2.0384647934949909e+00  1.9881516220323130e+02 8.2498085278065219e+01 1.1529880553707670e+02  2.0646034620769942e+02 1.3723388123017818e+02 1.5837200474571355e+02  1.6507837513968056e+02 1.3264591185162575e+02 1.3288838935082964e+02  1.2503577044920030e+02 1.2641140537750455e+02 1.2638080022709769e+02  1.4902278229184267e+02 1.3856861662675064e+02 1.4740441212899370e+02  1.7252866882166975e+02 9.5041954357539979e+01 1.3204036295173745e+02  1.6455488264160641e+02 9.6376049107447230e+01 1.0243266900423886e+02  1.5588754650580697e+02 1.0882030166754285e+02 1.2870732121347197e+02  1.8122819401679965e+02 9.5896227637273384e+01 1.4380358119187528e+02  1.5824319987925549e+02 1.1106863114603074e+02 1.1377699489444211e+02  1.6818554996617073e+02 8.9804413613432118e+01 9.4248386294439626e+01  2.5211722071696173e+02 2.5516416177503856e+01 9.8724074072409351e+01  1.8004189435105826e+02 1.8151815075204297e+01 3.7962180268576184e+01  1.9842830134289605e+02 4.2409677098483662e+01 9.2943434940469473e+01  2.0192821726373555e+02 -1.1156747112004096e+01 -1.9304585569427299e+01  1.9782903092218973e+02 4.3023117390849272e+01 7.3048222285973239e+01  1.8239640161800233e+02 4.9842924013780973e+01 7.3797214893006270e+01  2.0286823760408947e+01 -2.0877150246225774e+01 2.1516911297716530e+00  1.0351498405518231e+02 3.6863314324410773e+01 9.5239778975979092e+01  2.7195024232151319e+01 8.0172719752591206e+00 1.6985910846779671e+01  1.0579769395158073e+02 5.2226441193727631e+00 -2.2450164396510598e+01  8.5564944480902966e+01 5.4709331029351041e+01 -4.1628979766404406e+00  1.6345221722683029e+01 2.0873388373247924e+01 1.9584050642925607e+01  1.0437558228434024e+02 2.9430587382145365e+01 9.4516155891779476e+01  2.0604352355490755e+02 5.9939144003810839e+01 7.2296437259799532e+01  2.0144224938604378e+02 5.0316912032503978e+01 4.7385478745684281e+01  1.8322585715047714e+02 7.3772304006276499e+01 8.1393235378656470e+01  1.7446650977914808e+02 5.3968881722692053e+01 3.1256599977427594e+01  1.4834320040790894e+02 8.0580454653029250e+01 9.4577418804103495e+00  5.4923753707712336e+01 4.6508915240005109e+01 3.9328876447032378e+01  1.9845566223527246e+02 5.1408439630010648e+01 1.0848806753896415e+02  1.8167968274223173e+02 6.0056866111401121e+01 8.9718619932533713e+01  1.9563649409471324e+02 5.0529816264860060e+01 8.3574435433120556e+01  2.6764730719952399e+02 1.6878503743740239e+01 8.4470293745700673e+01  2.2532573415689674e+02 1.6388668023515071e-01 -1.6504842952430074e+01  1.8211830187088583e+02 9.5825843543116619e+01 1.1839972735953722e+02  1.9579837372295381e+02 6.7182647156158438e+01 8.6580079370582837e+01  1.8304162709798680e+02 7.4040562272267181e+01 2.1102387953773764e+01  2.1326713439771416e+02 4.3655069943401450e+01 -1.6650405749490293e+01  2.1370217006635261e+02 4.4318013659165530e+01 4.7891377446732768e+01  2.0604636150840142e+02 6.0192903460431452e+01 7.1593020255002784e+01  3.2702763118958991e+01 2.1840447576852366e+01 9.2567883782977077e+01  1.6669626586958012e+02 4.8811303039917092e+01 2.0084468967887241e+02  1.8394891840427508e+02 4.6667579647414733e+01 1.1479582465252560e+02  3.6769958183485350e+01 -1.5859766878253410e+00 9.2568126779571472e+01  2.0266534023703261e+02 5.9482547619895264e+01 1.0310219427325723e+02  1.8739026112171385e+02 6.2992029814441103e+01 9.5775187789546777e+01  2.1471711540793206e+02 1.9910323970674693e+01 2.0101014716515908e+02  2.1193824701344374e+02 4.4199190092628264e+01 1.2876367385595972e+02  2.1842047415176077e+02 5.1700064783629983e+01 1.3335546763263406e+02  2.7348779142550814e+02 2.7865554738259370e+01 1.7413962484378138e+02  2.3590736492976609e+02 4.6187812758433878e+01 1.1023141061988228e+02  2.2634498219113118e+02 1.3422839675337542e+01 2.2847619932211100e+02  3.1285651254884368e+02 3.3739718470084703e+01 1.4882115272620550e+02  2.1858370531560470e+02 7.3166683041732639e+01 1.3627809324425320e+02  2.8645545651951528e+02 7.3958485269477308e+01 1.2781602522660414e+02  1.7877433709549322e+02 3.4801518779043946e+01 1.8469218271255119e+02  1.8363643617814262e+01 4.6668114772644103e+00 9.7296815454799599e+01  2.2052711484205429e+02 9.4583575140700020e+01 1.1098321711788533e+02  1.7861426493089903e+02 8.4281803685574729e+01 8.9007110965318830e+01  1.9428289762118797e+02 7.9893488897264731e+01 9.0081735743010938e+01  1.9111866795779650e+02 1.0370461344967141e+02 1.1475593102321139e+02  1.7580591964983913e+02 1.0667189566659609e+02 1.1897273832458789e+02  1.6816447735785044e+02 1.0312932544050393e+02 1.0811531920752812e+02  1.7292749219639637e+02 7.1898070322674769e+01 8.5967795823583273e+01  1.9749430807739898e+02 1.1876620572626312e+02 1.6525129446235857e+02  1.8412331893901259e+02 8.2221594690521030e+01 9.7925899165680590e+01  1.8752997665436243e+02 5.7983334465680748e+01 9.2501280052777147e+01  2.4054814050719699e+02 8.1201846234004151e+01 1.5933070822322253e+02  1.8117240749545672e+02 1.1977064232444089e+02 1.3556306701523047e+02  2.0536283466692723e+02 8.1023716834441174e+01 1.3115037757703124e+02  1.8794266081013404e+02 1.1504635378662452e+02 1.1154384098924760e+02  1.8401465701871231e+02 7.2367757027401169e+01 2.2123523250628418e+02  2.7818907503111966e+01 8.8061638872113317e+00 1.0635826917316778e+02  1.8832656726293442e+02 1.7607687908405518e+02 2.5657343154293454e+02  1.4279037802844974e+02 5.0444983564183623e+01 5.9799317384207114e+01  2.0411992110261500e+02 6.5711745174715119e+01 7.4960720383982817e+01  2.4322833980813505e+02 7.5369876651778469e+01 1.0533752556114696e+02  2.5698011622469028e+02 8.2286475208626982e+01 1.0282109611264518e+02  2.6388141952557640e+02 4.0446655433732538e+01 4.0187408484412380e+01  1.5304432051526283e+02 8.6796819509323555e+01 7.4399295563809517e+01  1.4370211308038961e+02 1.0881721428242894e+02 1.0192330638082234e+02  1.1828278280277318e+02 1.0713561106838780e+02 1.0179905672510051e+02  1.5275967484403333e+02 1.0147512363084574e+02 1.0691192772756078e+02  1.6713725758213235e+02 9.2744315132019977e+01 4.8458141995599952e+01  9.1726088251652158e+01 -3.6325011050928704e+00 -4.0039268288825332e+00  1.7136543429415866e+02 9.5407073931825423e+01 1.0263669047826824e+02  1.5000470977200399e+02 7.3524733719507879e+01 7.1255379461104397e+01  1.3363663207510507e+02 1.0494414709456346e+02 1.0390978925342775e+02  2.0837343269613186e+02 8.6610564867114249e+01 1.3538208457669893e+02  2.0077709838486859e+02 7.3787183233234060e+01 9.0831327261102032e+01  2.5864366380567196e+02 5.4060082007330479e+01 1.8323824443998973e+02  2.2099931275521647e+02 5.5113173674578796e+01 1.4778007667846441e+02  2.2546997101188066e+02 2.1021542676393274e+01 2.1695059235965471e+02  1.5193730216859714e+02 5.0357076712703282e+01 8.7234684101468602e+01  1.5859771378933831e+02 4.2799100806913799e+01 1.0668022053662546e+02  1.9980878565366194e+02 7.8958964915410121e+01 8.8054871247354839e+01  2.1760048274346687e+02 9.6288142237803655e+01 1.4413907504468514e+02  2.2221812144006697e+02 6.3158437922606133e+01 1.4907346683485406e+02  3.9098680600061346e+02 1.5375755245888032e+01 3.5181261139490154e+01  2.0204023774065607e+02 8.4209588515067864e+01 1.4089547281953674e+02  2.1021833292309989e+02 1.3621696965218055e+02 1.7338025846199832e+02  2.8749000157497420e+02 1.1311995035355049e+02 1.6704835466271760e+02  3.4306296824087553e+02 5.5994240354723047e+01 1.3709914579602975e+02  1.3979392055795859e+02 1.0783290002164017e+02 1.8504773226409736e+02  1.4568635052437136e+02 1.4177724387817202e+02 1.5879963804632825e+02  1.8749673146089245e+02 6.8131800120509951e+01 2.3283327549937053e+02  2.9962565914230117e+02 3.3616192888448147e+01 5.8006747632668656e+01  1.8805117257623903e+02 4.9376482832266134e+01 3.9316002639407962e+01  2.3992343758964822e+02 9.1079014850546670e+01 1.0678619205751089e+02  1.9036184247981532e+02 6.9767094991612211e+01 8.2207420909388929e+01  2.9193731262487245e+02 8.7544083640271410e+01 1.7471858223701921e+02  1.8476405563471741e+02 6.9970543945444376e+01 8.5456794861120173e+01  2.5017685726227910e+02 5.1391963291962007e+01 8.2967569457796060e+01  3.0653807135288758e+02 9.1812497679381295e+01 1.3654973488267341e+01  3.1573795886725827e+02 2.9686208738638680e+01 -2.3721656346823444e+01  3.3253254722813182e+02 2.4648149694819683e+01 -1.1375409484587479e+01  3.6461898608196975e+02 6.3290558635244594e+01 -1.9732967054530793e+01  3.7703901989352966e+02 -2.3092325868786472e+00 -3.1048914112821489e+01  3.6432286958607193e+02 4.5559013061744956e+01 -4.6155803975273621e+01  4.1254644053573907e+02 1.1845467688544093e+02 -4.9683515734487358e+00  2.6771060930953581e+02 8.4256143679135363e+01 1.2508284631546694e+01  4.2227080702182263e+02 1.9553246637048207e+02 4.5111381458334840e+01  3.0174143784084566e+02 1.3838070772537753e+02 -7.8558486685092843e+00  2.4739542983795039e+02 6.0194966538426620e+01 -4.5441089870279725e+01  3.4354375600620949e+02 9.7828131781933052e+01 -4.4617290999889171e+01  3.2584795999502649e+02 1.5923277324480344e+01 -5.3928678373295336e+00  3.1513082399846570e+02 2.1512342367607822e+01 2.8899645010079054e+00  3.2052875034803691e+02 4.8292899907201885e+01 -6.5334544732113599e+01  3.2546729639333972e+02 4.4584994595865361e+01 -1.2207416731331072e+02  1.7519783983725216e+02 5.1763929313494543e+01 2.2450081299300695e+02  1.6976526447143860e+02 1.9426398153946078e+01 1.4076586573583495e+02  1.8805022763519744e+02 3.0539344261231125e+01 1.4588993022031818e+02  1.5761222734085240e+02 2.0816821928540467e+01 1.4790905030013610e+02  1.6322366740712150e+02 1.3578822418251033e+01 1.4739492258979914e+02  1.5882461845868733e+02 2.3415622306476628e+01 1.3817814626811818e+02  1.7314669146913630e+02 1.6318045845566232e+01 1.5213176800080731e+02  1.5805556073688618e+02 1.9459289493721528e+01 1.3578328122034975e+02  1.6127336526744685e+02 2.5463205902489165e+01 1.0634504644313098e+02  1.8110380305777875e+02 1.8788483882016891e+01 1.6240606388744510e+02  2.2565504800107362e+02 -1.0609878631466709e+02 1.5614044122186803e+01  2.1816417783896330e+02 -8.7355772843058446e+01 9.3306331350545246e+00  2.0382894614489760e+02 -5.8380801451224521e+01 5.3143656848103575e+01  1.7604354100849079e+02 -6.5242319376258294e+01 2.7265512415469814e+01  2.7794363570720662e+02 -6.4697819373621101e+01 4.5777677956480858e+01  3.2544331680069877e+02 -2.7167817329601352e+01 9.5119803150593313e+01  1.4893569108280548e+02 -6.2137835900731133e+01 3.5498610275071712e+01  1.7448112375638951e+02 -7.3483775298570990e+01 4.3484477989646795e+00  1.8778175033123873e+02 4.7066601713730215e+01 1.9292313487627669e+02  1.8531009136927665e+02 2.3104770633600648e+01 1.1699098418842411e+02  1.7363837788819356e+02 1.6845824013584384e+01 1.1326295624009077e+02  1.5408157552135893e+02 1.8712337116120029e+01 1.4134627447153983e+02  1.4436237375641247e+02 1.3894039104298134e+01 1.3191769313289092e+02  1.3343510179354203e+02 1.1300709837362083e+01 1.0162330397705507e+02  1.4701294521172349e+02 1.7638073480256519e+01 1.0507481152178038e+02  1.4725639828388140e+02 1.5470415235506481e+01 1.3394061197885921e+02  1.6183556025011873e+02 1.2304989749742536e+01 1.0293704762496999e+02  2.1687358885411842e+02 4.8016957841800192e+01 1.7844179703719794e+02  2.0443964859630952e+02 1.8635862940587071e+01 1.3021194523002919e+02  1.3897935847297342e+02 4.6296065774206575e+01 1.5155920007472446e+02  1.6056353416324691e+02 1.8983005946408362e+01 1.0736756311963394e+02  1.6552816001465865e+02 4.4884533568436261e+01 1.3444560212778296e+02  1.4080008661154176e+02 8.4230436223300273e+00 1.2401480963501098e+02  1.7143534690135010e+02 -1.5823485586974886e-01 1.2801468388300813e+02  1.4564544831794254e+02 7.4300501408352764e+00 1.0658765549857809e+02  1.6715616824814995e+02 1.3136557093400924e+01 1.3949444287040507e+02  1.6066712051798248e+02 1.2479999655879901e+01 1.1118286032703556e+02  1.6463188541809092e+02 7.1333589031114615e+00 1.1323180452215007e+02  1.4163165087445199e+02 1.2208307726198345e+01 1.3782667026096127e+02  2.7608196833953980e+02 1.2013291541800844e+02 1.9128880698610371e+02  2.0546056210826981e+02 6.4604874091638052e+01 8.3312622371032106e+01  2.0037201796552472e+02 6.2452530844961693e+01 1.5055793260734109e+02  3.1007284914186283e+02 6.9831140130186895e+01 1.9706265735022569e+02  2.3849116431965621e+02 1.1377635088764983e+02 7.0532706880383614e+01  2.1978350718967712e+02 7.9559695833650196e+01 -2.1163463417243527e+01  2.8466745083243075e+02 9.6986871443741109e+01 7.2209186003282952e+01  2.7353813554014789e+02 5.6332560299251064e+01 2.0362276303741757e+02  2.1432642671070036e+02 4.9352661077864454e+01 1.4695059019500749e+02  1.6022594384847392e+02 4.1211792060935430e+01 1.3502646146505236e+02  2.9205361872004289e+02 5.9756480706383726e+01 2.6216345330786645e+01  2.0340934749725673e+02 4.7339364856020502e+01 1.2026323890532768e+02  2.7218040741560156e+02 7.9843277202302829e+01 2.0593112581537642e+02  3.1432426067552086e+02 7.2530363100740743e+01 1.3160534121587270e+02  3.4668055739934964e+01 2.4515194093141936e+01 1.2767754720181600e+02  1.1786524028732208e+02 2.2837131761377290e+01 5.6021639381056936e+01  7.6212815376449697e+01 2.7721407464011588e+01 8.1568317998984810e+01  1.1347406697925810e+02 2.8819449715084708e+01 9.7251388043343624e+01  1.0814829747575439e+02 1.5956009051691328e+01 8.7566864178391185e+01  1.4212247503918235e+02 1.8360981823259451e+01 4.9384205365308524e+01  1.4459895201151156e+02 3.1493687983849330e+01 6.3800577113967357e+01  1.4488818608535794e+02 4.5479860895399383e+01 7.