<?xml version="1.0"?>
<VTKFile type="UnstructuredGrid"  version="0.1"  >
<UnstructuredGrid>
<Piece  NumberOfPoints="13784" NumberOfCells="65482">
<Points>
<DataArray  type="Float64"  NumberOfComponents="3"  format="ascii">28.49513053894043 31.21268081665039 9.686134338378906  28.58462865837072 30.54036757800872 10.31053117582654  28.74996722908842 30.48673678099824 9.964392378219465  28.31894267769682 30.75841761290742 9.887557699569562  28.14275481645321 30.30415440916445 10.08898106076022  28.66747570037842 30.69266510009766 9.376180648803711  28.83982086181641 30.17264938354492 9.066226959228516  28.49128783913481 30.23840189635468 9.577604009994367  27.96095802817873 31.70989357540611 11.28178833485667  28.47296814059206 31.97444553858774 10.96987115084515  28.15411264889129 31.54503096069967 10.84626235500388  28.6444342034733 31.55910217093331 11.11613855972665  28.34726726960385 31.38016834599324 10.41073637515108  28.55282974243164 30.31191062927246 11.01056957244873  28.34779227944242 30.30803251921845 10.54977531660447  28.72432198637681 30.08163924838968 10.51865937673228  28.89581423032199 29.85136786750689 10.02674918101582  28.5192845233876 30.07776113833567 10.05786512088802  28.8678175460692 30.01200862552591 9.546488070122169  28.45446014404297 32.02534866333008 9.863807678222656  28.66612276130462 31.8095829238813 10.53434517099236  28.724448263403 31.46366949251566 10.2266031767418  28.40086370682341 31.70275850466166 10.13727202668687  27.74441909790039 33.7258415222168 9.108258247375488  27.79075354873399 33.37633762981156 10.12969243231638  27.75797554049581 33.13572796218879 9.687352002015187  27.95057487487793 33.26104545593262 9.288430213928223  28.15673065185547 32.79624938964844 9.468602180480957  27.96413131747335 32.67093189590461 9.867523968567921  27.77153198309124 32.54561440216078 10.26644575665489  28.5301399230957 30.9703197479248 11.48023986816406  28.50876404063966 31.71862667356731 11.66662430048498  28.24554897563722 31.34010666166546 11.38101410151037  28.24501104302853 30.84216137757884 10.24985871795565  28.45004850601775 30.84603948763285 10.71065297379991  28.4747953414917 31.61901473999023 9.774971008300781  28.42119890427214 31.29642458132182 10.04843535676499  28.43870359634978 31.17524404695902 10.94548812165757  27.86624500563499 32.12775398878345 10.77411704575578  28.37825511804831 32.39230595196507 10.46219986174426  28.05939962634755 31.96289137407701 10.33859106590298  28.1129960635671 32.28548153274543 10.06512671743877  22.6558895111084 38.3571891784668 11.68920993804932  22.953152743933 38.29830555033442 11.22884339347796  22.52943515777588 38.58775901794434 11.37172985076904  22.96317481994629 38.73246002197266 11.51911973953247  23.27046012878418 39.10773086547852 11.34902954101562  22.82669839060048 38.52887538981196 10.91136330619769  23.26043805277089 38.67357639384028 11.05875319496112  22.83672046661377 38.9630298614502 11.2016396522522  22.40298080444336 38.81832885742188 11.05424976348877  23.25041597675759 38.23942192220205 10.76847684890661  23.9061393737793 39.29104995727539 12.07773017883301  24.09701196737177 38.68619652331621 11.54553709596311  23.56970918950734 38.6807499545022 11.65391934469434  23.8875488120049 38.77240950040064 12.01826966360304  23.79776290664861 39.11317743429253 11.24064729228439  24.11560252914617 39.20483698019097 11.60499761119309  23.58829975128174 39.19939041137695 11.71337985992432  24.32506568451304 39.11862400310655 11.13226504355316  23.8689582502305 38.25376904352589 11.95880914837306  24.58787921850533 38.07642827562676 10.62305701563239  23.70746619020572 38.00089099426638 10.21744737570272  23.67125014477097 38.65621641077156 10.32174949099396  24.33998176564484 38.57471958748392 10.24903957435685  24.37619781107959 37.91939417097873 10.14473745906561  23.91914759763146 38.1579250989144 10.6957669322695  24.09208431278436 39.07301089934108 9.875022133081318  24.1283003582191 38.41768548283589 9.770720017790079  24.16451640365385 37.76236006633071 9.666417902498843  22.61515045166016 35.50107955932617 11.20059013366699  22.67543314293751 35.49170714246515 10.48784533268035  22.72846792534718 35.7224524580169 10.81753054386199  22.35649490356445 35.5734806060791 10.88590002059937  22.56211566925049 35.27033424377441 10.87090492248535  22.09783935546875 35.64588165283203 10.57120990753174  22.46981237725148 35.79485350476983 10.50284043079436  22.30346012115479 35.34273529052734 10.55621480941772  22.50908088684082 35.03958892822266 10.54121971130371  22.8417853990342 35.94382535670763 10.43447095405698  24.78731918334961 39.89572906494141 11.56844043731689  25.50031973631862 39.35510453592862 11.4205456756422  25.02918936522487 39.35510453592862 11.19595585096569  25.00310923369411 39.35510453592862 11.59763107526989  25.28452968597412 39.89572906494141 11.39135503768921  24.81339931488037 39.89572906494141 11.1667652130127  24.83947944641113 39.89572906494141 10.7650899887085  25.31060981750488 39.89572906494141 10.98967981338501  25.78174018859863 39.89572906494141 11.21426963806152  25.21889928403861 38.81448000691584 11.62682171322288  23.35778999328613 34.08066177368164 10.64970970153809  23.99163237936921 34.79201146973367 10.90674649124853  23.9233883830291 34.61266334920157 10.40893427032645  23.44608621203679 34.54028282638816 10.45531090722308  23.5143302083769 34.71963094692026 10.95312312814516  23.83509216427844 34.15304229649504 10.60333306464146  24.31239433527076 34.22542281930845 10.55695642774483  23.53438243078744 34.99990387909468 10.26091211290808  23.60262642712755 35.17925199962678 10.75872433383015  23.67087042346766 35.35860012015888 11.25653655475223  24.80827219252254 39.05613899731682 10.61416953374887  25.25518899228533 38.90406699922147 10.86144786858373  24.58227256546208 39.50717653402398 10.94867751613083  25.06547907347159 39.44469152823426 10.43058200632654  25.29147870053205 38.9936539915271 10.09607402394458  24.77198248427582 38.9665520050112 11.37954337838802  24.69597053527832 36.23794937133789 8.025081634521484  24.90709780199658 35.32660289432766 8.069497821593753  24.52711294634473 35.7186431470132 8.140502689147464  24.97532076072805 35.76152967175574 8.409667522190718  25.07595539093018 35.84590911865234 7.954076766967773  25.45594024658203 35.4538688659668 7.883071899414062  25.3553056163799 35.36948941907019 8.338662654637007  25.25467098617777 35.28510997217358 8.794253409859952  24.80646317179446 35.24222344743104 8.525088576816698  24.35825535741113 35.19933692268852 8.255923743773444  23.97150993347168 39.35107040405273 13.58145046234131  24.12838979497738 39.10166411577351 12.8392833626859  23.87271976470947 39.47661018371582 12.92828512191772  24.08994960784912 39.62339973449707 13.20568513870239  24.34561963811703 39.24845366655476 13.11668337947056  23.75428009033203 39.20428085327148 13.30405044555664  23.53705024719238 39.05749130249023 13.02665042877197  24.20838928222656 39.89572906494141 12.82991981506348  24.46405931249447 39.5207829969991 12.74091805583165  24.71972934276237 39.14583692905678 12.65191629659982  24.77161026000977 39.89572906494141 9.901179313659668  24.69178150665821 39.03333244543409 9.985548078512949  25.00052431578116 39.19426618948914 9.657566507211548  25.03154448027091 39.44469152823426 9.998626668802125  24.74059009552002 39.64530372619629 9.560119152069092  24.43184728639706 39.48436998214125 9.888100723370492  24.70956993103027 39.39487838745117 9.219058990478516  24.40082712190732 39.23394464339613 9.547040561779916  23.54253959655762 39.50172996520996 10.88217973709106  23.64828968048096 39.50172996520996 11.28592967987061  24.02611923217773 39.89572906494141 11.22282981872559  24.06984237442204 39.50717653402398 10.77379748835983  24.17559245834538 39.50717653402398 11.17754743113938  23.92036914825439 39.89572906494141 10.81907987594604  23.81461906433105 39.89572906494141 10.4153299331665  25.82659912109375 39.89572906494141 10.19933986663818  25.7386796807714 39.15472113028504 9.707988221994263  25.31903437132316 39.44469152823426 9.781558950296265  25.5590389108129 39.44469152823426 10.14770694529138  25.586594581604 39.89572906494141 9.833191871643066  26.00623989105225 39.60575866699219 9.759621143341064  25.34659004211426 39.89572906494141 9.467043876647949  25.7662353515625 39.60575866699219 9.393473148345947  26.18588066101074 39.31578826904297 9.319902420043945  24.89228057861328 39.89572906494141 12.35918998718262  25.18307920232601 39.5207829969991 12.30300320750401  24.80600496068783 39.5207829969991 12.50555314189122  25.05558993132594 39.35510453592862 11.99300585020275  25.26935482025146 39.89572906494141 12.15664005279541  25.64642906188965 39.89572906494141 11.9540901184082  25.43266417296413 39.35510453592862 11.79045591581554  24.96931431340049 38.98015846798631 12.13936900491135  26.15925453164501 34.75576917095948 9.938302252311876  26.42056044418702 35.90098610779461 9.691028021939557  26.26815718884993 35.44237241988798 10.58386912409959  25.90516966026875 35.34343297484079 9.763086137863695  26.67464531556328 35.3133223039133 9.866244136387738  27.19003609948155 35.87087543686712 9.794186020463602  26.01407231747367 36.03003622376929 10.4086530096514  26.7835479727682 35.9999255528418 10.51181100817545  25.65108478889249 35.9310967787221 9.587870023415512  26.37705984605485 36.12897566881648 11.22943599588729  27.08904075622559 34.55644989013672 9.019798278808594  27.50000560692914 35.03896814716472 9.893562564220737  26.98461482301088 34.48141501421091 9.965620680144873  27.44950793530116 34.38175537379953 9.506368693393233  26.6241476439353 34.6561095305481 9.479050265560236  27.13953842785357 35.21366266350192 9.406992149636098  27.80997511437674 34.20706085746234 9.992939107977872  25.89828982495126 34.20846583042697 9.843521048673029  25.51564666103827 34.25005255669448 10.68035867814276  25.23582443345788 34.49059599513397 10.24762934002835  25.25468195434453 33.70274921616198 10.58557
[...]
<PointData  Vectors="u"> 
<DataArray  type="Float64"  Name="u"  NumberOfComponents="3" format="ascii">3.7708311958664478e+02 -6.0197255436837615e+01 2.0680259729545435e+02  4.3188330651190978e+02 -6.5677898295422750e+01 5.3151111577629599e+01  4.2991167928528841e+02 -9.9747853452569956e+01 9.9467104673334973e+01  3.8295058922400193e+02 -6.3872556497146952e+01 1.1117857611529988e+02  4.0934944393633481e+02 -6.1379786761879515e+01 5.0509343177298568e+01  3.9692572583987140e+02 -1.5152058700588893e+02 1.9667395771812727e+02  4.9678099907990702e+02 -1.9217651074466704e+02 1.6898808825374121e+02  4.2099529885537822e+02 -1.2069831010599017e+02 1.1569110327559517e+02  3.5893749745414573e+02 5.4662430903464390e+01 -1.6415714549646239e+01  3.6660487222373018e+02 1.7035685729223648e+01 2.4584384604497828e+01  3.6770408354889446e+02 2.7360449127444113e+01 1.8706164751954386e+01  4.0049118805609652e+02 1.3279082095168042e+00 1.8869642924436324e+01  3.8002731210572870e+02 2.3528350031737983e+00 6.9429538406669607e+01  5.5382705971226756e+02 -5.5350871285857707e+01 -6.8894512221589466e+01  4.4814257159825445e+02 -5.8346976262112285e+01 -4.4569610039088863e+00  4.7236870139543998e+02 -1.0118560305493179e+02 4.2958824226741747e+01  4.6358121249445441e+02 -1.2467873939637508e+02 6.0905065891725073e+01  4.4703517083920639e+02 -1.0113012892988073e+02 6.0646733377323002e+01  4.7340825775882763e+02 -1.4102786152150327e+02 8.3954972765800406e+01  4.1639734688533844e+02 7.4873754223128344e+01 1.4516279119261765e+02  3.8071401887143116e+02 8.4757627051370559e+00 5.0243029691308379e+01  4.0412697503818964e+02 -3.9019481557660369e+00 9.9895821733767889e+01  3.7357971920897313e+02 2.5923857687840005e+01 1.1649599602247115e+02  3.4730856907524225e+02 1.4235762597436769e+02 4.6402500028459556e+01  2.9787605133376354e+02 6.2825045674504182e+01 4.0650823017785285e+01  3.1125362315800101e+02 9.1319747167315242e+01 8.4691832670455867e+01  3.8617496838465144e+02 1.4237401593647971e+02 9.1174236447340704e+01  3.7862405452783253e+02 1.2415480571094643e+02 1.0607167567933449e+02  3.2866951605190184e+02 8.4907109697150020e+01 9.4656290973475066e+01  3.0841361840309418e+02 5.8899493167221124e+01 6.6207911232750817e+01  5.1981675677368207e+02 5.4948102089244159e+01 -4.2835305203592952e+01  4.2626080586316419e+02 1.8946598087903180e+01 1.6840589011521811e+01  4.1250436602942813e+02 6.1577419963088403e+01 -4.0574796995439854e+01  3.9240330538014877e+02 -3.4179257713133573e+01 6.4164045281096051e+01  4.2167639616580834e+02 -2.0598095259276398e+01 1.0334021816334689e+01  3.8319942073952615e+02 5.9920735664609621e+00 2.4103902621315609e+02  3.8175330179737284e+02 -1.8389658203034760e+01 1.2720649163297861e+02  4.1891994324415776e+02 8.7232471444403323e+00 5.3754342361938665e+00  3.2258593839326130e+02 4.4207867248687222e+01 3.4372928239388898e+01  3.4595432233020608e+02 3.2806117114768973e+01 4.3948467921766984e+01  3.3921433170650118e+02 3.7188162871944698e+01 7.5833933207730837e+01  3.3497037042011897e+02 5.9013778136401129e+01 1.0528079786012464e+02  9.6030669065068423e+01 1.3959449133984423e+01 1.5136680036446569e+02  1.2809085500300114e+02 3.2030791057104415e+00 1.1972297073389532e+02  1.3812793846961702e+02 -2.8814743674940711e+01 1.3790556819442691e+02  1.3303710400758953e+02 1.8207227181907033e+01 1.5472792624638697e+02  1.3827586970057672e+02 2.9892272708735963e+01 1.2995283600706313e+02  1.4533235444661159e+02 -2.9799366020503939e+00 1.2168586436146241e+02  1.4105203625357140e+02 1.2113752457308369e+01 1.1177563639832630e+02  1.6290785736965583e+02 -2.8665281198665267e+00 1.1881212328138292e+02  1.6586107604835172e+02 -2.6925391910568120e+01 1.2780848846875645e+02  1.3755412978827883e+02 1.0157864497864011e+01 1.0832613238081967e+02  8.5101879220631034e+01 4.3843840159319299e+01 9.4476100003433729e+01  1.1602699019230762e+02 2.5339989963387413e+01 7.4841858251266217e+01  1.0690447462786116e+02 2.7565635477192991e+01 9.5524630281627807e+01  9.7282842363357204e+01 3.5340779327557058e+01 7.5913971233395415e+01  1.2033268724195769e+02 2.9434805870389631e+01 9.5320442130075264e+01  1.1021380457797660e+02 1.8020822494803273e+01 7.9473115628982782e+01  1.0132078828507666e+02 3.5305522092275538e+01 9.4812068796331772e+01  1.3130082460701072e+02 1.8719619572949327e+01 7.5305748726388131e+01  1.0164303240021562e+02 2.9917374631813047e+01 7.0313139302050445e+01  1.5885457450982545e+02 2.3117919170248932e+01 6.6492994200599270e+01  1.5368882947445164e+02 1.6771315033678171e+01 9.9669441342083431e+01  1.5695540854577251e+02 1.5702606853040326e+01 1.0245094780370742e+02  1.7008282951276146e+02 1.7991012484239050e+01 7.9138248626993303e+01  1.7030365549316105e+02 2.4748897778376126e+01 8.0826433462361607e+01  1.4421635478958135e+02 1.8708061828174245e+01 8.8014949784732607e+01  1.7988469754263122e+02 1.4496562502069365e+01 9.3436906369132771e+01  1.8097205073320862e+02 1.8857188162033786e+01 9.5344140661617089e+01  1.7882960895238622e+02 2.7199227507637353e+01 9.8835751883210548e+01  6.5445964506186556e+01 -1.2185405829069367e+00 1.3936359645716411e+02  9.8184509866550272e+01 1.6946341620982928e+01 1.3686588650604705e+02  8.8100107603411317e+01 1.2701410497111761e+01 1.2919635342697993e+02  8.7303596568381067e+01 1.1314175335308722e+01 1.4267204809056088e+02  8.9834267535140114e+01 6.6684132243846799e+00 1.4550380362190097e+02  9.4375825064450225e+01 2.1028075549875727e+01 1.5106261572338335e+02  9.6559328533043370e+01 1.6439541215694913e+01 1.3830691756995847e+02  1.0685051445239482e+02 2.4579202630181065e+01 1.5147428713716641e+02  1.0384175385870694e+02 1.4656095912499659e+01 1.5283022708976446e+02  1.0218489502319169e+02 1.7379764392768422e+01 1.2720873344103069e+02  1.1277435660566233e+02 1.0957221294781254e+01 7.3889836202718257e+01  1.3739379928849664e+02 6.8595666941580005e+00 3.1621646907653165e+01  1.3850239874829145e+02 9.1942598091537047e+00 4.9059521698644126e+01  1.2311663553222265e+02 1.1910264037893709e+01 4.9919835122271159e+01  1.3315905622979867e+02 -3.1078321367899286e-01 4.0159070011038054e+01  1.3584944541606438e+02 -7.3463189413275765e-01 5.9599829978837029e+01  1.5018023184932963e+02 7.9717738252445358e-01 5.7877265296188554e+01  1.4957449362184840e+02 1.4528160729721243e-01 4.0673656385704703e+01  1.4529909775242959e+02 -2.8204872765634187e-01 2.2871175118234373e+01  1.3124937722609394e+02 1.5392762657405077e+01 3.9082693130568309e+01  6.0782131064622178e+01 -7.6806364586655489e+00 1.4170819386516686e+02  9.7771807954026102e+01 2.9427984849971097e+01 8.3367621136230483e+01  1.0562994721913601e+02 2.7774351866768118e+01 1.0737871687644470e+02  9.2443947128611214e+01 1.5924767813194142e+01 1.2639774256559841e+02  7.0226654492409324e+01 1.0911011250633797e+01 1.0177269302543444e+02  7.9337057716433080e+01 1.6806932889181724e+01 1.0708689087450378e+02  1.0696714468721132e+02 3.4630219279311667e+01 9.0846237281019071e+01  1.0763318545800335e+02 2.4793951092757315e+01 1.2189163423086316e+02  9.5599514001764888e+01 2.2645238636060210e+01 1.0146085401939186e+02  8.4832856611179324e+01 2.3907493073697733e+01 7.8601060808613909e+01  1.6049897411536625e+02 1.3648815474938349e+01 5.8657804026492961e+01  1.5771882000958976e+02 1.2455172733695578e+01 4.0841836012761540e+01  1.4136069871339149e+02 8.1799829643989330e+00 6.8490869574400236e+01  1.6735991438361316e+02 6.4969454060975229e+00 4.8432506473627477e+01  1.9019902152703654e+02 1.0586294597289758e+01 3.9097515206345520e+01  1.3170565417866291e+02 1.7365192285986449e+01 5.6461825517374116e+01  1.3887382009041519e+02 8.6992627996309054e+01 2.1136509753645720e+02  1.2586646112236532e+02 4.8980783842883092e+01 2.0541390713835276e+02  1.3037725375229942e+02 5.5239991175850392e+01 1.8926761439405442e+02  1.5877217325649630e+02 7.0115518591644133e+01 1.9843790364339458e+02  1.2549394818612329e+02 5.4332114977536833e+01 2.5348667535451514e+02  1.0610526328616164e+02 6.1395461045347574e+01 2.6740899578629933e+02  1.6165371247203177e+02 6.9971990937668835e+01 2.2654970156123574e+02  1.7937728168183452e+02 6.6406095467023817e+01 1.8281617405507586e+02  1.4513703910521153e+02 5.3398614473160592e+01 1.8018129160139560e+02  1.3048020546644634e+02 4.4733261106328648e+01 1.7260998020214265e+02  5.8326151203173900e+01 4.2278020838320550e+01 2.8809040665674928e+01  6.7047808743528265e+01 4.6824476374132047e+01 3.7872528745374765e+01  3.5264547128134289e+01 6.2290591637560745e+01 1.9809522622474532e+01  4.7171800405451904e+01 2.1069843731679367e+01 1.9331673433979802e+01  7.0639185590253817e+01 2.9956806571101133e+01 2.9790690518559451e+01  6.1671195050958509e+01 4.9511148371460095e+01 2.4520497981596559e+01  5.9542345981932421e+01 5.6469311646192196e+01 3.9331077779126467e+01  3.7070549406219598e+01 1.8912368476564012e+01 1.4712041226024750e+01  6.5490044563050617e+01 2.8175126149164470e+01 2.9631022670923301e+01  8.9329314609831215e+01 2.5244445894736320e+01 3.7061341712374869e+01  2.0074190379445085e+02 6.9850795622495427e+00 4.4017163506583636e+01  1.8296273383779581e+02 1.3920221206294295e+01 6.6811874885067752e+01  2.0612014747087019e+02 2.9026008031483418e+01 4.4215613275375730e+01  1.8545045855123865e+02 1.0850850642314844e+01 4.2555856575468020e+01  2.5952667546853814e+02 3.1604594522809361e+01 4.1954519509129995e+01  1.8942702930108061e+02 1.7914963848799814e+00 8.5143926664409690e+01  2.4866339623204493e+02 1.8663619723315719e+01 7.5679162471511972e+01  1.9894444583884146e+02 1.0432066843516784e+01 8.3475163249578785e+01  1.4857819864039573e+02 5.4650061910997906e+01 1.3490073694809703e+02  9.7111164551587265e+01 5.3540245292338774e+01 9.6665115283634165e+01  7.8333695060797410e+01 1.0494381834971534e+01 7.3571429556294405e+01  1.2970143205846628e+02 2.1166438738723414e+01 9.6648844171749886e+01  1.0877486598062934e+02 1.6624976062762084e+01 7.4211274795593425e+01  7.4141515268408213e+01 3.5402299970273134e+01 1.2356679119232720e+02  1.4469694830185350e+02 1.8943862784679137e+01 1.1977951290016151e+02  1.9381677907175083e+02 -7.7916599764880425e+00 3.7844767390202456e+01  2.1173115467716798e+02 -1.6124331053914798e+01 2.3424828464320463e+01  1.8213854542618128e+02 2.5286613023134348e+00 3.4946620621739186e+01  1.8384167366769478e+02 -3.3594510113936691e+00 3.4898267803706041e+01  1.3444503118673447e+02 -4.7509102371409796e+01 7.7137431495201298e+01  2.5312818216258066e+02 -5.5716582816045303e+01 5.2686526920598624e+01  1.1513671723146363e+02 -5.2812514998391071e+00 1.1133648280677454e+01  1.7511918032528786e+02 -9.4515473850513132e+01 2.3630035153999223e+01  3.0509364142222876e+02 6.1131347962685387e+00 -3.5081459182386169e+01  6.9881827425584646e+01 1.1119168439668394e+01 3.2235703327798284e+01  1.0029500204690440e+02 1.0986217607371904e+01 3.5271292747660453e+01  8.1342818416620972e+01 2.0246021085492060e+01 3.3743312839369011e+01  1.0767647641614678e+02 1.5594195086605648e+01 4.3529366618233929e+01  1.0298146422176356e+02 -6.5007000476087240e-01 3.6540822577042739e+01  1.1915650485981182e+02 7.6638678135031790e-01 2.7414584898042989e+01  1.2360541077058474e+02 9.0732517823309546e+00 3.2399016899768569e+01  1.0945466619983279e+02 2.0640798855739163e+01 4.1806588668072770e+01  2.3048567508613363e+02 6.5130153931896132e+01 7.8840114638104922e+01  2.6751602735530906e+02 6.8970649318764529e+01 2.9206105079463708e+01  2.0824519258233082e+02 4.8815867050755422e+01 3.3837222401801661e+01  2.2552233895436180e+02 6.5925495395273728e+01 8.0653609387673285e+01  2.6155661016836660e+02 7.0301124626476323e+01 3.0303201693836076e+01  2.6266152920114155e+02 5.2849082554634585e+01 -3.7045467649771957e+01  2.0489936961588828e+02 4.7020148572533770e+01 3.9207679582777445e+01  2.1542790551148099e+02 3.8261083622517916e+01 7.7288636247499642e-01  2.2743833297251268e+02 6.7548578581386366e+01 8.8697161802496524e+01  1.8235427787025674e+02 3.1953340310017254e+01 1.3881528080984291e+01  3.7233003332311171e+02 1.1941747834177048e+02 4.7947771008824290e+01  2.7211814623495320e+02 6.1013161694189336e+01 -2.2261470608385025e+01  2.6495587869782048e+02 6.9189920540515388e+01 3.7123672925247625e+01  3.0865445909012175e+02 8.8535591252181831e+01 4.3329151100337455e+00  2.8951360724794256e+02 9.1272370962877943e+01 7.0328869145001278e+01  3.1777440539011826e+02 9.2789588552258579e+01 -1.0967694065455378e+01  2.8216967399081580e+02 6.0166096933863564e+01 3.2833784119614151e+00  2.0668659601034790e+02 6.2249647730643204e+01 9.9375298035960768e+01  1.6826789084341689e+02 5.4613721293144692e+01 5.8485351301444197e+01  1.6471655200440770e+02 5.1230043566748861e+01 8.6091770578338469e+01  1.5038407831025279e+02 5.5197717989264149e+01 6.5736940307063861e+01  1.4412067292745593e+02 4.6788586378609715e+01 9.6308229702992008e+01  1.0701831988796215e+02 4.6403666127183079e+01 5.7314906650616507e+01  1.1845608093610592e+02 6.0579991546719718e+01 2.7246155425110683e+01  1.8274947689715145e+02 5.5403214891619228e+01 1.1183615689299624e+02  1.9855263401351567e+02 5.3652817766256291e+01 3.3030759792609153e+01  1.7732375316159911e+02 5.0485953376519198e+01 6.7180496083470501e+01  1.5878172018131883e+02 4.9934826965764046e+01 3.0946196750202581e+01  1.8257963152756579e+02 3.9977344729020764e+01 1.6936817692528304e+01  1.6839301225224094e+02 4.2971239313869994e+01 3.9950018143712718e+01  1.3700737198676063e+02 4.1781420084903502e+01 6.0141991809955904e+01  1.8303689289400427e+02 5.4310871429840518e+01 7.7440875393407200e+00  2.3125450079709864e+02 4.9995629205216275e+01 2.0730794417627013e+01  2.3062533249754043e+02 3.5909152404416680e+01 -1.8890127390390241e+01  2.1611478091617170e+02 2.3853403132681049e+01 -9.5774340123965835e+00  1.1177240989261141e+02 1.9632311149700492e+01 1.5917311092019554e+02  1.0381636318105595e+02 1.6551285403893679e+01 1.4819935480090953e+02  1.1380982376011056e+02 2.7354896640037666e+01 1.4612284146323842e+02  1.2037278027247628e+02 2.3676729543888591e+01 1.6403964736167549e+02  1.1662948009948475e+02 1.7163058477229423e+01 1.6495845448376602e+02  1.0437238474146918e+02 1.7244667067497879e+01 1.4909171494750598e+02  1.1786992092653722e+02 2.8587635644779937e+01 1.4781585876597188e+02  1.2113478903404183e+02 3.2715870454213089e+01 1.4522680895040631e+02  1.1741549781435219e+02 2.8864765176001629e+01 1.4010825985160167e+02  1.0827808202053093e+02 2.4572025410922429e+01 1.3287255853379966e+02  1.8968700069887174e+02 -1.6667028828500285e+01 1.1661466923591387e+02  1.6537901458835711e+02 2.0420123095409256e+01 1.1405065671065267e+02  1.6516012578469142e+02 -5.5072218779962978e-01 1.1497155593308241e+02  1.5589671587860789e+02 4.5366831024283139e+00 1.1595693494066445e+02  1.6815082694237239e+02 7.7811839303580568e+00 1.2825872855576037e+02  1.7835740057209716e+02 1.2951650510957306e+01 1.1325401149298935e+02  1.5611210377857353e+02 8.9501236441112120e+00 1.1178023110138162e+02  2.3064184944153482e+02 5.6177884495686754e+01 1.8774072037070685e+01  2.0431995232723546e+02 3.8611473773551459e+01 7.8711487111732845e+00  2.0611638003064920e+02 5.5908003254071950e+01 1.0224923973602094e+01  2.2897376250751000e+02 4.0954281127121035e+01 9.0331531674047323e+00  2.2254602169647907e+02 5.9138871901078971e+01 4.3131869955676351e+01  1.5547689299025984e+02 4.2900792202486180e+01 1.2151489023486580e+02  1.4708205132644602e+02 3.0511347603851092e+01 7.7529210763819208e+01  1.6778618549423391e+02 3.8148962957747159e+01 1.0920934438691371e+02  1.7991640818819951e+02 4.7575078702363328e+01 9.6973504936294503e+01  1.3381021258702336e+02 2.9288834264264704e+01 9.9281283185092903e+01  1.0633705563877234e+02 2.2609339671216350e+01 8.5247557429742315e+01  1.4157093571901140e+02 2.3881839162173002e+01 9.3737844127897773e+01  1.9557747091056103e+02 4.3563969473839975e+01 6.4131595369922408e+01  1.8602626195350513e+02 3.6742990614208125e+01 8.1692832884211342e+01  3.3411835491197502e+02 9.4701668944540117e+01 5.2159540105095317e+01  2.4954195586818997e+02 6.0774532020774863e+01 3.6318902788892757e+01  2.8466750466601138e+02 5.7416596043139364e+01 3.0541848847393722e+00  2.4055339250350335e+02 6.4444866318588041e+01 6.3835607601599648e+01  2.6891899786843601e+02 8.4514136301255334e+01 8.9645086189730151e+01  2.2509135679429002e+02 4.6447319897861256e+01 3.3595117245018031e+01  2.1052599684916626e+02 5.5585272312305733e+01 7.2384490308148827e+01  2.4977284626000858e+02 4.0676882733048529e+01 -1.1312527181277380e+01  2.5570943352948061e+02 4.3188845998323671e+01 5.8195992375647499e+01  2.5152265387001825e+02 8.0181149260394463e+01 6.5166571281391953e+01  2.1833835535849681e+02 4.6292926370529131e+01 6.2767236024785134e+01  2.5315011689922838e+02 6.6040107079332046e+01 3.4848432120717732e+01  2.5086415359789990e+02 7.9393625034990180e+01 5.0112663179137819e+01  2.4260095773346183e+02 1.0438984407012369e+02 1.3132237251406349e+02  2.3317091078474590e+02 5.1342531000247796e+01 4.7384784299835701e+01  2.2072568366616252e+02 6.2818241737704625e+01 8.2487756084360427e+01  2.7863726667894889e+02 5.7415330847410587e+01 2.2136356968211089e+01  5.6628030529063771e+01 -1.2342143914252601e+01 1.6516038992955447e+02  1.1297182559235254e+02 -4.1805889558103829e-03 1.2225666334999019e+02  1.0312312893505224e+02 -2.7573220617882788e+00 1.3304228661736693e+02  8.4160520719328332e+01 1.0053844973312284e+01 1.1001042642049717e+02  1.1882367287085948e+02 1.6718122197109764e+01 9.8539571891397159e+01  1.1002077321859275e+02 1.4363884584680054e+01 1.0896211666545074e+02  1.1538118530671419e+02 7.0470979259712596e+00 1.2452431274841466e+02  1.2713447311640665e+02 6.6497126347189512e+00 1.1407307777529674e+02  6.2636373169821702e+01 4.4727707109630394e+01 8.7851493638163831e+01  8.9318993652504034e+01 3.1425324345890662e+01 9.9916265202462455e+01  8.5026333647675784e+01 3.6945152947002882e+01 8.0435018223952170e+01  7.6346785606823360e+01 4.0181956328709404e+01 1.1040779607458003e+02  1.3064450893914906e+02 -8.5978091133083834e-01 7.2960424621077209e+01  1.4543739496303704e+02 -6.6217489604097901e+00 8.4202674514156584e+01  1.5545154378426338e+02 1.8199921604727930e+01 1.0325821086301468e+02  1.6713193233892108e+02 9.5571505265227579e+00 1.2509619649638140e+02  3.6406624865733193e+02 1.2171696602299134e+02 2.0403223631149672e+02  2.9894158146066837e+02 8.9582869482435626e+01 5.4811358061852566e+01  3.2452114276092971e+02 9.8466013088221430e+01 2.4691201691625928e+01  2.7786174178948272e+02 8.7251686139233414e+01 1.0907320807278728e+02  3.8103229211209583e+02 1.1248888604984934e+02 6.3772189582360902e+01  4.1037304557801343e+02 1.4528191732126521e+02 -8.4750850530774741e+01  3.1483981462995763e+02 8.4592854407710448e+01 -5.7153290816632946e+01  1.3178347460302373e+02 3.2046823710992733e+01 3.6468842820494331e+01  9.0962443607755759e+01 2.9044661953068474e+01 6.1920689094678593e+01  1.0742220503190474e+02 3.6369712416985024e+01 3.9404047029445302e+01  1.1864650553122888e+02 2.9753611945866083e+01 5.8742358299405375e+01  3.0431133382584039e+02 9.8343918331103453e+01 2.5855273716167653e+02  2.2364142876830371e+02 6.8360861878711702e+01 1.3437514808687573e+02  2.0978873007513010e+02 7.0702042153112814e+01 2.3301388942601247e+02  2.1942918600898668e+02 6.5862306427900037e+01 1.5388598240085170e+02  2.6654953607218721e+02 8.3387884458366841e+01 1.1730847623122594e+02  1.8531054737788756e+02 5.6235207204398364e+01 1.4644885965358148e+02  1.8144265871712201e+02 5.7755918523294973e+01 1.9053063551687083e+02  2.0119855073143052e+02 3.0394801942584600e+01 1.5105436787624378e+00  4.9269083760746696e+01 -1.9084449577497034e+00 1.5685861154115932e+02  8.4545253613177110e+01 1.0396121826407157e+01 1.3114187167501117e+02  7.6237575169947917e+01 1.5098990153385431e+01 1.3944434192296615e+02  6.5894399036745057e+01 3.1318437911773183e+00 1.5044585875475775e+02  1.1720673337813069e+02 2.1792953883574160e+01 9.2893524048899735e+01  9.9512343975077712e+01 1.5565117604811135e+01 1.0267330588094312e+02  1.0692703061951205e+02 2.4566248071321951e+01 7.7515552114825141e+01  2.6586077294584231e+02 4.563668