<?xml version="1.0"?>
<VTKFile type="UnstructuredGrid"  version="0.1"  >
<UnstructuredGrid>
<Piece  NumberOfPoints="15288" NumberOfCells="68043">
<Points>
<DataArray  type="Float64"  NumberOfComponents="3"  format="ascii">3.103756 5.530081 31.822014  1.732943044644882 5.972141728906668 31.68584198965767  2.388696754369214 4.802242266125317 31.88126695557219  2.348394290275669 6.023143962781351 32.21703553408548  2.488304754369214 5.479078766125317 31.29082045557218  2.248786290275668 5.346307462781351 32.80748203408548  3.004148 4.853244500000001 32.4124605  2.90454 4.176408 33.002907  1.872853508738427 5.428076532250634 30.75962691114437  1.593032580551337 6.516206925562702 32.61205706817097  1.94901 20.12051 21.513597  2.369980015788653 19.9362400169631 22.26033695784396  2.913515903722686 19.70184654927578 21.51811063269069  2.833222935531118 20.57780666920721 21.9212188273022  3.717435871062236 21.03510333841442 22.3288406546044  3.254192951319771 20.39353668617031 22.66795878514616  3.797728839253804 20.15914321848299 21.92573245999289  3.878021807445372 19.28318309855155 21.52262426538138  3.334485919511339 19.51757656623887 22.26485059053465  2.790950031577306 19.75197003392619 23.00707691568793  2.001508 9.569331999999999 22.30386  3.100099519882342 9.096808387797147 22.91137124174672  2.185561519882342 9.183920387797148 22.94727174174673  2.7908015 8.9829975 22.5786775  2.916046 9.48222 22.2679595  3.830584 9.395108 22.232059  3.7053395 8.8958855 22.542777  3.580095 8.396663 22.853495  2.974855019882342 8.597585887797148 23.22208924174672  2.369615039764684 8.798508775594295 23.59068348349345  3.371563 1.591081 35.643356  2.675703823966311 1.099855534543216 36.12880878934259  3.056161615264284 1.10831260958222 36.22444916106676  3.267815115264284 1.54632310958222 36.24291766106676  3.1599095 1.1530705 35.6248875  2.779451708702027 1.144613424960996 35.52924712827583  2.948256 0.71506 35.606419  2.567798208702027 0.7066029249609957 35.51077862827583  2.187340417404054 0.6981458499219915 35.41513825655166  3.164067230528568 1.50156521916444 36.84247932213352  2.565544519882342 8.061722387797147 23.42049424174672  2.9865305 8.383683000000001 22.625317  3.1707845 7.860799500000001 23.0519  2.392966 8.370703000000001 22.397139  2.381290519882342 8.584605887797148 22.99391124174672  2.57722 7.8478195 22.823722  2.761474 7.324936 23.250305  3.096877 4.382407 27.281906  2.381545580665726 3.227195330501234 28.12173082680994  3.212365 2.965418 27.873295  3.1645935 3.5050355 27.11765  2.333774080665726 3.766812830501234 27.36608582680994  3.1446485 3.8427895 28.037551  3.19242 3.303172 28.793196  3.23231 2.627664 26.953394  2.401490580665726 2.889441330501235 27.20182982680994  1.570671161331452 3.151218661002469 27.45026565361989  4.438506 13.750543 20.316559  3.339746011820279 14.35398506414755 20.30764865626179  3.907847011820279 14.11290156414755 20.73575865626179  4.375663342240171 14.64024283656855 20.17104743268627  3.870405 13.9916265 19.888449  3.302304 14.23271 19.460339  3.845004354060449 15.0026014007161 20.59024708894805  3.80756234224017 14.88132633656855 19.74293743268626  4.312820684480341 15.5299426731371 20.02553586537253  3.377188023640557 14.4752601282951 21.15495831252358  7.549423 12.012113 23.769033  7.725151619345842 11.22067410330711 23.38143833053592  6.826104864208672 11.33961335384747 23.31521408413888  7.2740565 11.3687195 23.9223105  6.99869 10.725326 24.075588  7.001833483554513 10.54817445715458 22.9276194146748  7.449785119345842 10.57728060330711 23.53471583053592  6.550738364208671 10.69621985384747 23.46849158413888  6.102786728417343 10.66711370769493 22.86139516827776  7.900880238691684 10.42923520661422 22.99384366107185  3.909334 20.827328 24.91428  2.980595285356075 19.84381616628706 25.00832850757754  2.970018508798119 20.05778244007608 24.19681426440456  3.179189285356075 20.68586316628706 25.25835150757754  3.71074 19.985281 24.664257  3.168612508798119 20.89982944007608 24.44683726440456  3.512146 19.143234 24.414234  2.427891017596238 20.97233088015217 23.97939452880911  2.438467794154194 20.75836460636314 24.7909087719821  2.44904457071215 20.54439833257412 25.60242301515509  2.382906 21.858818 22.906555  2.902167935531118 21.32011716920721 21.9751218273022  2.743128935531118 20.80021016920721 22.4020568273022  3.050170935531118 21.44696066920721 22.6176978273022  2.234903 21.7319745 22.263979  2.075864 21.2120675 22.690914  1.768822 20.565317 22.475273  1.927861 21.085224 22.048338  2.0869 21.605131 21.621403  2.734245 3.858826 20.164335  3.066024387776843 3.321544608726968 19.75495951673727  3.246975339757051 3.92277521574134 19.8690583527877  3.006904 3.8589855 19.635348  3.279563 3.859145 19.106361  3.578754727533894 3.385493824468308 19.45968286952498  3.338683387776843 3.321704108726967 19.22597251673727  3.519634339757051 3.922934715741341 19.3400713527877  3.759705679514101 3.986724431482681 19.5737817055754  3.397803775553687 2.784263217453935 19.34558403347455  2.50017 40.003617 23.075459  1.707465 39.279051 22.0417405  2.481308913056843 39.07441001404398 22.38334485099543  2.3238005 40.003617 22.3041175  1.8838345 39.279051 22.813082  1.267499 38.554485 22.550705  2.147431 40.003617 21.532776  5.49693 24.761221 20.459753  5.005561587816821 23.89935545569378 19.82985238218249  5.6035585 24.0297775 19.8142415  5.191938587816821 24.15353345569378 20.44217038218249  5.310553000000001 24.507043 19.847435  5.7899355 24.2839555 20.4265595  6.082941 23.80669 20.393366  5.484944087816821 23.67626795569377 20.40897688218249  5.124176 24.252865 19.235117  4.886947175633642 23.54584591138755 20.42458776436498  1.105964 3.702955 17.237652  1.329024901615047 2.174741067282807 17.71869735626323  1.868603401615047 3.090922067282807 17.48934235626324  1.189305027304457 3.243497743057294 18.06371976037161  0.5663855 2.786774 17.467007  0.02680700000000003 1.870593 17.696362  0.6497265273044569 2.327316743057294 18.29307476037161  1.272646054608914 2.784040486114587 18.88978752074323  1.951944428919504 2.631464810340101 18.31541011663485  2.631242803230095 2.478889134565614 17.74103271252647  4.767841 36.346806 23.343134  3.861108674329074 36.6633681944281 23.29505960256451  4.435502 36.5516015 22.644  4.0025175 35.9559195 22.987978  3.237194 35.565033 22.632822  3.528769674329075 36.86816369442809 22.59592560256451  3.095785174329075 36.27248169442809 22.93990360256451  3.6701785 36.160715 22.288844  4.103163 36.756397 21.944866  2.954376348658149 36.97993038885619 23.24698520512901  8.660228999999999 15.136793 17.8834  8.059361475451013 13.96938598004292 17.95415999352965  8.335871377658945 14.4094872390231 18.65702145493307  8.756692597792068 14.31324774101983 17.74066403859659  7.962897877658945 14.7929312390231 18.09689595493307  9.129666097792068 13.92980374101982 18.30078953859659  9.0332025 14.753349 18.4435255  9.406176 14.369905 19.003651  7.265566755317891 14.44906947804619 18.31039190986613  8.853156195584134 13.48970248203965 17.59792807719317  3.648543 7.739446 30.132721  2.81183102212332 6.887603487835237 29.76348796935638  3.01658002212332 7.400496987835236 29.09406546935637  2.79806202212332 7.585488487835237 29.70082096935637  3.88083 6.8565695 29.5886325  3.662312 7.041561 30.195388  3.867061 7.5544545 29.5259655  4.085579 7.369463 28.91921  3.676081 6.343676 30.258055  1.94758104424664 7.431530975670473 29.26892093871275  16.15244133113693 10.29357145675559 18.93801194957523  17.0435322661414 9.543699302671223 18.8326444147353  16.52880701538042 9.351071575113419 18.53881540793853  16.40722653251644 9.657659003411386 19.26888941586855  17.42505279838686 10.06565205527527 18.06552194730873  17.16511274900539 9.237111874373259 18.10257040680528  16.66201173389594 9.021746550067176 19.59976688216187  16.78359221675993 8.715159121769211 18.86969287423184  16.90517269962391 8.408571693471245 18.13961886630183  0.02680700000000003 2.977616 29.962786  0.7333686638259593 2.559363881835444 28.79083154196266  0.7333686638259593 2.573752381835444 29.61345404196266  0.02680700000000003 2.3138365 29.440012  0.02680700000000003 2.9632275 29.1401635  0.02680700000000003 2.948839 28.317541  0.02680700000000003 2.299448 28.6173895  0.02680700000000003 1.650057 28.917238  0.7333686638259593 1.909972881835444 29.09068004196266  1.439930327651919 2.169888763670889 29.26412208392532  15.657637 13.950867 21.110855  14.5692108587249 13.72256474059161 20.91306614013589  15.0265458530785 13.71718733985008 21.48893673036766  14.6944635 14.638355 20.882984  14.39545470615699 13.48350767970017 21.86701846073533  14.0633723530785 14.40467533985009 21.26106573036766  0.02680700000000003 12.721975 23.610186  0.800739598426386 11.92949063412267 23.43920508089829  1.106654098426386 12.60626713412267 22.82518958089829  0.800739598426386 12.65852013412267 23.65184908089829  0.3327215 11.9406925 22.5708825  0.02680700000000003 11.9929455 23.397542  0.3327215 12.669722 22.7835265  0.638636 12.617469 21.956867  0.02680700000000003 11.263916 23.184898  1.574672196852772 12.59506526824534 23.69351216179657  1.096317 0.638 38.714272  2.07934234237197 0.7215282437965809 38.05144889378568  1.85568734237197 1.047206743796581 38.64837689378568  1.296782003679942 1.318546854924046 37.75442240357508  1.319972 0.3123215 38.117344  1.543627 -0.01335700000000001 37.520416  2.056152346051912 1.727753598720627 37.68852729736076  1.520437003679942 0.9928683549240456 37.15749440357508  1.497247007359883 1.999093709848091 36.79457280715016  2.61505768474394 1.456413487593162 38.58248178757136  4.794579 8.495347000000001 28.34724  3.739288951726977 8.060821943515602 28.70392303339211  3.726083951726977 8.321388943515601 27.99780103339211  4.093788951726977 8.623763943515602 28.41793803339211  4.072374 7.63003 28.213088  4.440079 7.932405 28.633225  4.426874 8.192972000000001 27.927103  4.059169 7.890597 27.506966  3.392998903453955 8.752180887031203 28.48863606678422  4.070892 22.35112 25.56319  2.9923150016
[...]
<PointData  Scalars="c_HbCO2"> 
<DataArray  type="Float64"  Name="c_HbCO2"  format="ascii">1.3084818709464274e-23  7.8086963642025566e-24  -3.2420234179261300e-23  -1.3093430677879804e-23  -1.5896703096423879e-23  -1.2624570122165269e-23  3.8485612630988345e-24  2.0486862715269610e-23  8.5727980378596220e-23  1.1203160477444959e-22  4.0741801298172082e-25  -3.0431796357344904e-25  3.2768644726068677e-26  -1.9204557482657574e-25  1.0533053043135061e-25  -8.5783422641814044e-26  -7.2765599586443643e-27  9.8898184745687557e-26  -8.3643333175714255e-26  5.1035607806493542e-25  3.8149292922919642e-24  -7.8662659568964475e-25  -3.6355496603829626e-24  -9.5787887123126942e-25  -6.9707435344675967e-25  3.2858485581852995e-25  1.8599251565809472e-25  8.6592248809928502e-25  -1.9114721651736433e-24  1.0146933747033269e-23  3.7102908446956599e-24  1.5100317511232521e-24  -1.1373783794641055e-24  1.2966018899874158e-24  -1.1250310446320028e-24  2.5188993083276691e-24  3.5469294549287295e-25  -1.2738074941893646e-24  4.2711849257295029e-24  4.6351812723505382e-24  -1.0546134029907198e-25  -1.6155875404717116e-25  -2.0356958395624772e-24  4.0683275944190071e-24  -1.7123032472618999e-24  -2.6547213195568402e-24  9.4080281712813293e-24  1.3908765924707111e-23  -1.5976624029983888e-23  3.2857305109672195e-24  2.4716651169683008e-24  -5.2383468986698347e-24  3.8640758125482616e-24  1.1515670261491917e-23  1.0086485996125276e-23  -1.8044593742148997e-23  9.5409183029166447e-23  4.9725249144815896e-26  -8.9661748222695012e-26  -8.6762837395126747e-28  -1.0467984331305202e-25  -2.8510827877760001e-25  1.5173279421846579e-24  -6.4496387774199848e-26  -1.1963696984052533e-25  1.5837962874020134e-25  1.6485738606145555e-25  3.4203900075646930e-28  -1.6024206487363673e-28  -9.8132645909689271e-28  9.7107632574638322e-29  1.8076203626597294e-27  -1.1230208280861151e-27  7.0020186612054589e-28  -2.5270997292659615e-27  1.0584555973384657e-26  4.4599866137011915e-28  1.3957273077524328e-25  -2.1726068620602017e-25  -7.9698462348566796e-26  -3.6551496799713592e-25  3.3729642417113191e-27  8.0642593787204634e-27  3.0087657367739039e-25  2.4642215907628638e-24  -4.1677055944337286e-24  1.6678637203620214e-24  9.5615067485922744e-25  -4.3504568875722732e-26  -2.5666920788721384e-25  -1.3865428771866605e-25  4.1901845265392577e-26  -1.4873838839890433e-24  3.0584908995400098e-24  -4.0522088798951433e-25  4.1977401353571444e-25  5.7929356419974581e-24  2.5399743497391408e-24  -1.1726947303565708e-24  -2.7864954686059397e-24  2.8744656152097570e-25  -8.5185584268912847e-25  -8.5624561385142120e-25  -2.1713966934191452e-25  5.9207718900234499e-26  2.1327524540759562e-24  3.9066935505498621e-25  -3.1435960284947017e-24  -4.2570019304562009e-25  3.1926584362848251e-25  -1.7570514053615456e-25  4.1843112206387227e-24  3.1855118045376403e-24  1.4039302836124500e-26  2.0433168061139669e-26  -2.1453334710600434e-26  -1.0671434573934421e-26  -8.5112891346186951e-26  4.6740147381942355e-27  8.4360042457112404e-27  -7.8480840213236003e-27  2.0523742552808963e-25  7.5027399213389753e-26  6.0383477390193346e-23  -2.3218744537835093e-23  -2.1707192411427633e-24  -2.6670368371631358e-23  -1.0895191087551294e-22  6.3999999999999932e-22  -3.6381572667161039e-22  8.4229382480256970e-23  -1.1166462223149615e-23  8.0685378712293811e-24  4.3301546651332406e-26  -9.6180581440953245e-26  -1.7649762395381800e-26  -6.9852951704393835e-26  4.4367975545110352e-25  9.4638847838994096e-26  -4.4171309485318515e-26  2.6021503510250305e-26  2.8720218690637367e-25  2.5404552166495950e-25  2.0295989855620509e-28  -2.9840818223416315e-28  -2.0340869824643506e-28  4.8258687131913240e-29  -2.3175660533087790e-28  -6.9454334992705601e-30  5.7170869717299763e-29  1.2685876494461763e-28  1.9646259096616204e-27  7.1013622277056521e-29  4.4823688805094409e-24  -1.2740790534118460e-24  -3.5266737483940132e-24  -5.5607206338352117e-24  -1.1463938143692806e-24  -6.4787880664611348e-25  -9.2112325016344438e-26  1.6031012066258719e-24  9.6045182047005024e-24  3.9148023213909996e-23  2.0644742047870467e-34  -3.9964057849453194e-35  8.4207014960795430e-35  -4.1276034990497066e-35  6.1596210223685553e-35  -2.5520127182784233e-35  2.0919156625662587e-35  -2.9184958275078474e-35  1.5839047998889134e-34  6.3999999999999753e-22  -3.3344508815690718e-22  -1.0249994695207577e-22  6.3999999999999932e-22  6.3999999999999932e-22  6.3999999999999932e-22  6.3999999999999932e-22  6.3999999999999875e-22  -1.2593492944682687e-23  7.6894180481411498e-23  3.8001954222533006e-35  -3.2585339286545205e-35  -6.2029946659225030e-35  -1.4674543486418528e-35  3.2361090414492439e-34  -2.0820519793356515e-34  6.3999999999999932e-22  -2.1483274387082288e-22  -1.4482431062620518e-23  -7.8367164918907222e-23  -1.3782336638875887e-22  6.3999999999999932e-22  -7.5623433169693982e-23  3.8604072223955334e-23  6.3999999999999932e-22  2.5343720745038307e-23  5.0498189667536985e-23  -1.2509017799834316e-24  1.0171029349031606e-24  -2.8806900865625235e-23  8.0216508641832124e-24  1.4692923169701382e-23  -2.8862383240030887e-24  -1.0998257654904946e-23  7.2816285684089001e-23  6.4088320018320141e-24  1.7674482377366953e-25  8.0053246297928306e-26  1.8667956386617609e-26  -1.3606678556230077e-25  -6.4590702885935194e-25  -2.0218480495240303e-25  -1.1283573009547896e-25  7.6693579780340933e-25  9.9961630021265292e-25  1.4822006166507253e-25  7.2384737644872810e-26  -1.5102824396077185e-25  -4.9824205739830723e-26  -6.6713303769960634e-25  1.5109472104519158e-27  5.1976511787325553e-25  -5.9362942168099785e-25  4.1008254638360002e-24  5.6510904758531673e-27  -4.5999660275780723e-27  -7.6897670324315726e-27  -2.2849596200996987e-27  5.2744123450436555e-26  -6.9104221857270355e-27  -1.0286733872083711e-26  1.2658139748492599e-25  -1.6457902359027422e-26  6.4092636802320177e-27  1.9702405417790396e-24  -2.4492791677548216e-24  -8.3747217585734361e-24  -2.0878836777470295e-24  3.3038375074758641e-24  -1.0009394445451347e-23  3.0203180253978933e-24  -1.8323179732056160e-23  4.7976021285587025e-23  4.6157298648836466e-24  6.9663592992772583e-29  -1.2029548304516168e-29  -1.5244736788563410e-29  -1.4650284893772030e-29  3.9297579285117239e-29  -1.6106403177869792e-29  6.5642395054388168e-29  -6.9861108628522862e-30  4.1116130095027410e-30  2.1534734453569085e-29  1.0178640168191002e-22  -6.8546475837856581e-23  2.1174481060460473e-23  -1.4397986381611793e-22  -2.1172295925121155e-22  6.3999999999999997e-22  -2.1894381450884059e-22  6.3999999999999932e-22  -7.5837759825490781e-23  3.8609417025257209e-23  6.3999999999999997e-22  -2.1359048381303023e-22  -1.5525104367409205e-22  -2.5039988638531220e-23  6.3999999999999932e-22  6.3999999999999932e-22  6.3999999999999932e-22  6.3999999999999932e-22  6.3999999999999753e-22  8.2209790389489375e-23  4.9666704884763955e-24  -5.9907347314918237e-24  -1.1251375938000050e-24  3.2936743893871674e-25  -1.4100294911390243e-23  6.4870761879808736e-23  -1.6436279253681142e-23  3.6207797110827599e-24  1.3141043421827726e-24  3.6720210647117512e-24  1.0791187330748627e-26  -1.6827935386033522e-27  1.6515286445073786e-27  -8.3364485164999538e-28  -1.2874357250199456e-27  2.3373600055829527e-27  -5.7839426403015847e-28  3.6492069482556253e-29  5.4406959245697966e-28  5.5860013707516180e-27  1.2544677935675971e-27  1.7844587694977465e-28  6.3007538240712403e-29  -2.4757914357762408e-28  -1.0040363890664454e-28  -2.5598478513664235e-29  -3.4380414677037139e-29  7.1529648662189137e-28  7.8124900498835686e-28  8.3019545997555452e-27  -2.3901697022316235e-27  -2.0432990175252938e-27  2.7973211583459623e-27  -4.1951011089341295e-28  -1.7622848384147940e-27  7.8606429354701755e-28  2.8582720792307187e-28  9.0221216709772859e-27  1.2319352562437652e-27  3.9094133414265957e-26  2.2499055712222436e-26  -1.7429344906037421e-26  -1.2783861961995804e-26  8.3752792635625271e-27  -2.3167952073842120e-26  -3.2609913951144078e-26  1.0700478204423507e-25  2.4881389899331441e-26  1.1865630331419925e-26  1.6170359075475933e-27  -6.2534981838692388e-28  -2.9290581886812343e-27  1.7396941263679814e-27  3.1801252330608746e-26  -6.1341409294008448e-27  4.8533885383508157e-24  -1.9135576796773191e-24  -1.8214432677155182e-23  3.4438644119705186e-24  -4.4285168239389939e-24  2.0135855227358295e-23  -2.2111759315630957e-24  1.2190545519802784e-23  1.5567117363819428e-23  9.1084554051507855e-23  2.5233123132902637e-25  4.5280667404094334e-25  -2.4289057242176770e-25  -4.3515233932235231e-25  -7.3829282248622051e-25  3.4337341377594583e-24  -3.8044870474215208e-24  2.8586450608483418e-25  5.9746391655140322e-24  1.1424160424048467e-30  -2.3042399618657219e-31  2.4875521443835823e-31  -3.2718727181907227e-31  -2.7330448807522628e-32  2.3574419067417451e-31  -5.4202132111733234e-31  5.7744187966899882e-33  2.2181345851952723e-31  2.3463607272559429e-30  3.1220870658870471e-25  -6.2113930043014360e-25  -1.7107238250450355e-25  1.5752790010097537e-25  2.8466870194153920e-25  4.2822500080117948e-25  1.5644345853631033e-25  2.1716223342764450e-24  6.9651967880543595e-25  1.4461881524800716e-24  1.4414306569121341e-24  1.3264366215144076e-24  -2.0161921571328158e-24  -4.0112216398850094e-24  -1.6577756901509282e-24  -1.2998516740899173e-24  -4.5936374616106718e-24  1.1460356172994520e-23  7.9777885763489582e-24  2.3573191892037479e-23  -2.2577465701855496e-25  -2.3071611104909550e-23  -2.4412662488596372e-24  1.9169270540938522e-24  -1.0964612854673725e-24  9.1927433744554498e-26  -4.1150953436483582e-24  1.6072389019286338e-23  7.9745758316525562e-25  2.5404848964171579e-26  -4.7397213433788589e-26  -9.8655135769365683e-27  -5.1522531391799692e-26  -3.8705316244116229e-26  9.4587280382453833e-27  1.4964612717029122e-26  6.0285728183245319e-30  -4.6600511624265880e-30  -9.8593147979767000e-30  -4.3458834011291837e-30  -4.4471302219693926e-31  1.6184669142475785e-30  3.3977061907658855e-30  8.8439333719878062e-30  3.3692630595177907e-30  4.1205175988875029e-29  -4.7743140655292101e-25  -1.4738416421111928e-25  -2.7149551667916224e-25  -2.3050563842112062e-25  1.7098554460656352e-24  2.3388848947547698e-25  -1.0126632229276518e-24  1.5858330982800353e-24  5.4638069744051985e-23  -1.2939147828457009e-22  -8.8580881749019677e-24  3.7672639329500299e-23  -1.5279665133039476e-23  6.3999999999999753e-22  -4.2652262449964660e-22  3.6885617936626454e-23  4.0672532273612903e-24  1.1216403854381033e-22  4.1445510939529145e-28  -1.3527819555859253e-28  6.3796736214799784e-29  -1.4095343489789773e-28  -4.0961914972196719e-29  6.5708741583677881e-29  3.1245958731297316e-29  2.4065725013216456e-28  5.2382305771887450e-29  7.4768304553645697e-28  1.5690499541810351e-25  -2.1551195469080954e-25  -8.9896997462725877e-26  -1.0632012383830326e-25  -1.9471820561771157e-26  2.2665394554424359e-25  -1.9009140387141043e-26  3.8942922102950183e-25  2.5415268197117569e-25  7.3924666607233604e-25  1.1155845649347991e-22  -2.6327782029823188e-22  -6.6857978396061335e-24  -1.4275480605305969e-22  5.4202739065692992e-23  5.9382119549734723e-23  1.6926793773963613e-23  6.3999999999999875e-22  4.7457559131602483e-23  4.4887328817017810e-28  -5.1097051078908826e-28  9.6726453446756260e-29  -6.4780884972627037e-28  1.0188932547919017e-27  -7.9895207942169106e-28  3.8101482191258794e-28  -7.5201216424559298e-29  7.9796940141240822e-28  -2.0063674699544273e-31  -2.1760306150003262e-30  -1.9104676203984454e-31  -7.4062038347769332e-31  1.5883655118888160e-30  -5.3833161032806866e-31  1.0682152319756191e-30  -2.3682476735895434e-30  1.3270294007245078e-29  -1.2495733991590252e-28  -6.4894797494958030e-28  1.6653082376149950e-26  -2.3377000422742269e-27  -2.2659749758644968e-31  8.8202086781901856e-32  4.9634398211168805e-31  5.8994868866511958e-32  -1.1058574236859787e-23  -3.2840864916482555e-23  -1.5326404917238407e-22  -4.1738276093251832e-23  -1.7834762563428610e-22  4.3105174452004359e-23  4.6189595626237355e-23  8.7586796037448781e-24  -7.5273629397167864e-24  -1.2247617624918683e-23  -1.2471063987381180e-23  2.4135429031385346e-24  -1.6901725562194988e-25  5.6969447017493819e-24  7.1118757588503831e-25  7.8177520547493576e-24  7.6675199023757076e-23  3.0173350674505150e-26  -2.6178810170259425e-27  -6.1926073402588255e-27  4.5846188987470900e-28  -5.2816219325624375e-27  2.1812363108463892e-27  -1.9336526166348694e-27  8.8551493538083533e-27  4.1979999738675931e-27  3.4303021290588816e-24  -7.1966250473285447e-24  1.0953186271550575e-24  -5.1678575131237398e-24  -5.2791804446684667e-24  1.8163288281766635e-23  2.7259282209805433e-24  -1.1183498207930231e-24  1.6920162141479727e-24  6.3999999999999932e-22  -9.4940202226771986e-23  -1.0229712961762404e-22  -1.6843005151740486e-23  -2.3234484245819030e-22  4.4994762954687508e-23  6.2901145344297545e-24  1.7712836703663642e-24  5.7229538854832543e-23  8.1849333163581097e-26  -2.5193931900750652e-26  -3.0427585783542955e-26  1.7244033833792550e-26  -5.8097610592295624e-25  1.2818038621756132e-24  -7.9154688369167874e-26  2.3093128435792804e-26  -2.0686350012834779e-26  -2.4356060520952835e-26  -1.4368210402439105e-26  4.8237736264357346e-27  7.0571787044057498e-26  -6.8510738454524396e-27  -1.1388128641086833e-26  5.8273182492093647e-27  1.6141812014785105e-25  4.5505737308548364e-26  -1.0089870655493262e-26  1.0106436614698022e-27  -1.5525523763493509e-26  2.7024890776178838e-26  1.2213481516597433e-25  2.0885626133795757e-26  2.7135161415981073e-26  -1.1442623160995456e-27  1.3741872261662382e-30  1.1887816789505351e-31  -2.1418968097868729e-31  -4.1550823503111197e-31  2.2701957022543878e-31  -9.6506018290692565e-31  -8.4668675547331674e-32  -1.7415707973554753e-30  5.8704674682747551e-30  4.2744519148551395e-31  2.3054444936217197e-30  -2.8365888670002099e-30  5.3304290792693604e-31  4.6259939489051404e-32  6.6069554660256026e-31  1.0046740824240936e-31  4.3439634419183990e-31  5.3366824243551828e-25  -2.9260560139631200e-25  1.3265547725915772e-25  -2.4352525242771495e-25  1.2153091737495420e-25  1.0647508684778982e-25  -8.7843346838242887e-29  -1.1635480902001028e-28  2.1105375872503593e-29  1.9662691727066010e-29  3.0321459703981380e-25  -2.8961562836555187e-25  -8.4961413741018195e-26  -3.4064591024896099e-25  2.6644988701341892e-24  1.1438270146455674e-24  -1.0887214453043781e-24  3.1238733075060634e-25  -1.4831282599295540e-25  6.6131825623627344e-24  5.0131679681396039e-24  -1.5507659182195160e-23  1.3870497361115096e-24  1.9951978837749685e-26  -5.1469704234574249e-27  -2.2058471227621978e-27  -3.4523055705278413e-27  -1.0746590107620826e-26  -2.9047037632368379e-27  1.4822607842729112e-27  2.7329894200671295e-28  1.2074576575334298e-27  5.0578621297673257e-23  -7.6653301435865044e-23  -1.6927336221107272e-22  -8.3142449252603247e-23  6.3999999999999932e-22  -3.7140165903191034e-22  6.3999999999999932e-22  6.3999999999999875e-22  -1.0349310095609744e-23  1.1047945214560378e-22  1.4497186592045313e-34  -6.3605955920040431e-35  -8.0863692381266518e-36  -6.1873721245522046e-35  5.7745474595554401e-30  -3.8129393430326534e-30  -5.9309857600174951e-31  -1.3156948028156463e-30  4.8313837963141641e-30  2.6024691738711385e-29  4.1633149125388179e-30  6.1669756525610494e-30  -2.2395392154703797e-30  1.1155220687128136e-29  1.4405862434944138e-30  -2.2722189091261565e-30  -1.4816387304819763e-30  7.6167806814729331e-31  9.2832218759426397e-31  1.6624503316302972e-30  -5.0111571566299503e-30  3.2937793714164471e-30  -5.4927430545132314e-30  2.3416363458351597e-29  6.3999999999999932e-22  1.9957579650091098e-24  -3.5463836345848556e-22  -2.1936398361290183e-22  -8.2612489534902672e-23  1.9791798167419551e-23  1.0277360634902275e-23  -6.1908763133317277e-24  6.3999999999999687e-22  -4.2585147627105554e-23  -3.4479550808928567e-22  2.1647020112821023e-23  6.3999999999999932e-22  6.3999999999999809e-22  -2.3733072471995265e-22  5.7863079409146228e-23  6.4601403036964681e-23  4.6964319518036370e-23  3.8059790079081171e-29  -2.3430938159507555e-29  8.0867614207088582e-30  -8.6438239786149841e-29  5.4306333438727353e-30  1.8730599787012524e-29  2.6085582713963737e-30  -3.2116729749873838e-29  1.6218609080809139e-29  7.5163495180383929e-26  -1.3309508628641025e-25  -1.3403390742605514e-25  -1.2543128210234365e-26  3.9737829063248009e-26  2.1962026900041267e-26  1.1531106003521869e-25  1.1484156825605801e-25  1.5733149863281570e-25  -1.5268617092452251e-30  5.6533319346172074e-32  -3.9073314755973757e-30  6.1270519707036757e-26  -4.5569311799672852e-25  1.9122884418456897e-25  -5.5312074534137211e-25  1.2709094416451343e-24  5.0224728953798328e-25  -3.7791633983869267e-25  -2.1097961418535637e-25  2.9673082794784140e-26  -1.4084306940650680e-25  -2.3827480881831690e-26  -6.4300888736433742e-26  -3.6675388854111554e-26  -4.7241046268032351e-26  3.3223010846203311e-25  -2.0043725307867259e-27  -3.9393352617068836e-27  -1.0058766083523975e-27  -2.0845535999560292e-27  -4.7435843508771290e-29  1.0831487340368062e-27  -1.2804636165208478e-26  1.2779741616622142e-25  -1.1220910742995634e-25  -1.0656207630611452e-25  1.8101713633832370e-26  -3.2575378382121436e-25  -1.9097636824084174e-25  1.6061559368324789e-24  -1.3187009424906632e-25  6.5054217790426195e-26  4.3535513840534309e-25  2.0676300364478880e-23  -7.4783315110076379e-23  -9.9735623224130466e-24  2.1985122596099731e-24  -1.0018514438096058e-24  1.1226718220619738e-22  -2.7358048554537524e-23  7.2051966147205315e-23  4.9600467534329374e-23  6.3999999999999809e-22  -1.2396665565733936e-22  -2.4242279781305539e-22  2.3308769486935919e-23  6.6815276932300904e-23  -1.5861804105148240e-24  -5.5394752566261747e-24  8.3554961623455628e-23  2.8498358954052662e-23  6.4993704887749456e-23  6.3999999999999753e-22  -3.1256254442226041e-22  -3.3228268632640589e-22  -3.5308429167202374e-23  6.3999999999999932e-22  6.3999999999999932e-22  6.3999999999999932e-22  6.3999999999999932e-22  6.3999999999999753e-22  1.3464141686655656e-22  2.9711557136389443e-23  -2.6952417695463859e-24  -3.4835296890405563e-24  -6.7506710949075784e-24  2.1752417685243251e-24  5.4502412158107975e-25  5.2023788329517644e-25  1.3080702491332227e-24  4.0294284005988175e-25  8.4975761317270781e-25  -1.7207187102752533e-24  -1.1173956861979411e-24  -1.1402353813222219e-24  6.7855239358377287e-24  5.4082208403430738e-24  -9.1261648279569166e-25  1.6068872482710127e-23  -6.4755054452261323e-24  2.4200060352624818e-24  -9.6944203293492527e-25  1.1069432953262022e-23  -5.0220258628274579e-23  -3.8267144420511337e-23  2.3162650723997914e-23  6.6799456630496443e-25  -1.9594150972052305e-25  2.3036053863158033e-25  6.2867617229556009e-26  -1.6465218161116705e-24  6.2488308223915166e-25  -2.0646233735462009e-25  -8.1578501893749087e-25  -3.0622794786449100e-26  5.3735626360728898e-26  1.3162698797791433e-24  2.9843148645339615e-26  -1.1083604997996590e-26  -1.8586054434582041e-27  2.8605846170917674e-27  1.6992472573849025e-26  -5.9047909604573427e-27  -6.6284974978194986e-27  7.6535204367059880e-28  2.3121666840025411e-26  8.7505534529494302e-26  6.3999999999999997e-22  -2.8497965647904910e-22  -1.2946315771334231e-22  6.3999999999999932e-22  9.3137621799856598e-24  -2.8775150802359899e-22  5.5257167417395591e-23  2.0239240186103955e-23  6.3999999999999875e-22  4.9527058410087036e-23  2.9278724507752779e-25  -1.5018442748443135e-24  3.0567788117228221e-26  -7.6193001153210738e-25  -8.2402732324479141e-25  5.4212443152261682e-24  9.4668595589995763e-25  1.9289765652761082e-24  4.5200979823274413e-24  1.7718003512560387e-24  6.2646650016009351e-25  -4.0888303405392224e-25  -5.0198178613349195e-25  -8.2270739758915768e-25  2.1471090998344963e-25  -3.3420120305473361e-25  2.3216723062240218e-23  -8.6937663840166509e-23  1.0973972289167420e-23  -2.8006285312455012e-23  -1.7679368897234029e-23  6.3999999999999932e-22  -2.6214459389222100e-22  -2.3745222499632130e-22  7.7041284102491759e-23  6.4280635880825026e-23  6.3999999999999809e-22  -8.21