<?xml version="1.0"?>
<VTKFile type="UnstructuredGrid"  version="0.1"  >
<UnstructuredGrid>
<Piece  NumberOfPoints="14765" NumberOfCells="66611">
<Points>
<DataArray  type="Float64"  NumberOfComponents="3"  format="ascii">39.95923699999999 37.144733 27.090204  39.1287545890284 36.44517042408139 26.63903279641519  39.95923699999999 36.8357675 26.2312695  39.95923699999999 36.3609465 26.9469175  39.95923699999999 35.57716 26.803631  39.1287545890284 36.13620492408139 25.78009829641519  39.1287545890284 35.66138392408139 26.49574629641519  39.95923699999999 36.051981 26.087983  39.95923699999999 36.526802 25.372335  38.2982721780568 35.74560784816278 26.18786159283038  39.09637890812455 37.09508061007556 24.71324265148164  39.09637890812455 37.70739111007555 24.97260865148164  39.09637890812455 37.01883261007555 25.40748415148164  39.95923699999999 37.2153605 24.9374595  39.95923699999999 36.60305 24.6780935  39.95923699999999 37.903919 24.502584  39.95923699999999 37.2916085 24.243218  39.95923699999999 36.679298 23.983852  38.23352081624911 37.5108632201511 25.44263330296328  37.441917 27.785189 23.891907  37.96116614261138 28.15771979040853 22.58098106088163  38.12915804260324 27.47135446921888 23.56273735667768  37.76548954260324 27.02637496921888 23.58471385667767  37.59749764261137 27.71274029040853 22.60295756088163  37.8055855 28.2301685 23.8699305  38.169254 28.675148 23.847954  38.08906208520649 26.26756093843776 23.27752071335535  16.560066 33.376274 22.544168  17.232977 32.1794605 21.7244405  17.3547505 33.022257 21.961064  17.3760535 32.6405125 22.7712735  16.4382925 32.5334775 22.3075445  16.316519 31.690681 22.070921  17.25428 31.797716 22.53465  18.192041 31.904751 22.998379  18.170738 32.2864955 22.1881695  18.149435 32.66824 21.37796  39.34024992684434 35.27203037981567 24.81075633013771  39.34024992684434 36.19388987981567 24.75225083013772  39.95923699999999 35.913147 24.617314  39.95923699999999 35.60494250000001 25.4308405  39.95923699999999 34.683083 25.489346  38.72126285368869 35.86097775963133 24.13216666027543  39.95923699999999 25.582476 21.616776  38.02081515722759 25.50486187653489 22.12803673042589  38.95590261462434 25.16231940731601 21.29766437374822  39.24629204562922 24.89199888260544 22.13517080759127  39.02414954260324 25.92501846921888 22.44714835667768  38.31120458823247 25.23454135182431 22.96554316426894  38.53334709125845 24.20152176521087 22.65356561518253  38.24295766025357 24.47184228992145 21.81605918133948  23.034388 36.681885 23.929689  23.94264466947844 36.67865714300768 23.8455833979408  23.399869 36.177254 23.454464  23.3780035 36.8499165 23.3982725  23.721619 37.017948 22.866856  24.30812566947844 36.17402614300768 23.3703583979408  24.28626016947845 36.84668864300768 23.3141668979408  23.7434845 36.3452855 22.9230475  23.76535 35.672623 22.979239  24.85090133895689 36.67542928601536 23.7614777958816  38.410343 37.618557 29.309053  38.48005491135697 37.10179431887995 28.54900929871105  38.8669165 37.5167505 29.134838  38.6740415 37.932783 28.611144  38.93774 38.247009 27.913235  38.74375341135697 37.41602031887995 27.85110029871105  39.130615 37.8309765 28.436929  39.32349 37.414944 28.960623  38.93662841135697 36.99998781887995 28.37479429871105  38.54976682271394 36.5850316377599 27.7889655974221  23.890078 34.469475 23.197296  24.53423847307758 34.12955808408688 22.14322661944179  24.77835813963883 33.99566542970917 23.00972408963137  24.52471797307758 34.69215358408688 22.39372711944179  23.8995985 33.9068795 22.9467955  23.909119 33.344284 22.696295  24.78787863963883 33.43306992970917 22.75922358963137  25.66663827927766 33.52185585941834 22.82215217926274  24.658599 33.2402115 21.5131485  24.06838725673968 37.39203560493671 24.39194761889293  23.86700799079512 37.15996935276108 25.22872197941466  23.74126540353389 36.44659089083206 24.68235775846253  23.16013058726124 37.39526346192903 24.47605322095213  23.28587317452247 38.10864192385806 25.02241744190426  24.44814280706778 36.2112967816641 25.43502651692506  24.64952207301233 36.44336303383973 24.59825215640333  23.88835075396317 37.52655741089286 24.01428498390541  23.0912325 37.54295 23.613511  23.148077 38.404015 23.297333  24.23196625396317 37.69458891089286 23.48286848390541  23.94519525396317 38.38762241089286 23.69810698390541  23.434848 37.7109815 23.0820945  24.74231350792634 38.37122982178572 24.09888096781082  39.95923699999999 25.325762 23.247728  39.24629204562922 24.76364188260543 22.95064680759126  39.95923699999999 24.7124855 22.624505  39.95923699999999 24.5793065 23.37036  39.95923699999999 23.832851 23.492992  39.24629204562922 24.01718638260543 23.07327880759127  39.95923699999999 23.96603 22.747137  39.95923699999999 24.099209 22.001282  39.24629204562922 24.15036538260543 22.32742380759127  38.28603 34.893776 27.108631  38.8291170890284 35.07156492408139 26.37881229641519  38.3538785890284 34.90651042408139 26.12637279641519  38.29215108902839 35.31969192408139 26.64824629641519  38.3477575 34.4805945 26.5867575  38.822996 34.64564900000001 26.839197  38.409485 34.067413 26.064884  38.8847235 34.2324675 26.3173235  39.359962 34.397522 26.569763  37.41230949696181 25.50909626946361 22.9655704556419  37.34406256898291 24.74639720756074 21.81608647271244  37.63445199998779 24.47607668285016 22.65359290655549  36.73555690871714 24.75063160048946 22.65362019792844  37.6398085 34.94025600000001 26.472412  27.007925 32.125744 24.766251  25.93741457115817 32.06602357917993 24.78146046801339  26.29343428317727 31.77732868363717 24.14860191089272  26.61179828317727 32.23227318363717 24.33928341089272  26.689561 31.6707995 24.5755695  26.3335412879809 31.95949439554275 25.20842805712067  26.371197 31.215855 24.384888  26.0151772879809 31.50454989554275 25.01774655712067  26.21567156635453 32.33880236727434 23.91231582178543  25.65915757596181 31.79324479108551 25.65060511424134  15.98914 28.865042 24.63018  17.0492375 28.68602 23.831627  16.980323 29.541049 23.912927  16.8993295 29.3989535 24.5499505  16.968244 28.5439245 24.4686505  16.0701335 29.0071375 23.9931565  16.151127 29.149233 23.356133  17.809519 29.932865 24.469721  17.8784335 29.077836 24.388421  17.947348 28.222807 24.307121  38.39257 27.762436 24.738298  39.02414954260324 26.43300146921888 23.89556935667768  38.42650953612991 26.71863799444276 24.80112388931699  38.24081604260324 27.01499846921888 24.00790935667768  39.1759035 27.180439 24.625958  39.95923699999999 26.598442 24.513618  39.20984303612991 26.13664099444276 24.68878388931699  38.27475557873315 25.97120046366164 24.07073524599466  38.46044907225982 25.67483998888551 24.86394977863397  35.549675 39.227276 24.075527  36.59265672130847 38.69078603421978 24.36099540024158  36.53847500000001 39.4515615 23.944196  36.0567245 39.063391 23.6560335  36.0314255 39.6154465 24.3636895  36.08560722130847 38.85467103421979 24.78048890024158  36.513176 40.003617 24.651852  36.56735772130847 39.24284153421979 25.06865140024158  36.563774 38.899506 23.23654  36.62153944261694 38.48206606843957 25.48545080048316  39.95923699999999 24.819344 25.215195  38.52174801914359 25.05676996958999 25.60522052578445  38.80784329009376 24.47964402637821 24.78846290865141  39.27114198301368 24.62902197514723 25.78084313646746  39.20984303612991 25.24709199444275 25.03957238931699  38.11974827310745 24.28932200152544 25.35411104511887  38.05844932622368 24.90739202082097 24.6128402979684  38.58304696602735 24.43869995029446 26.34649127293492  37.65644958018753 24.13994405275642 24.36173081730282  24.253477 32.079975 22.289673  25.53735863963883 33.32899742970917 21.57607708963137  25.78817513963883 32.81886742970917 22.05322508963137  24.96005763963883 32.80091542970916 22.55591258963137  35.094616 39.365406 25.749702  36.25056062758694 39.19150492322237 26.60362550319397  35.52081662758694 38.87239942322238 26.41604900319397  35.85807772130848 38.92373603421979 25.61757640024158  35.82436 39.6845115 25.9372785  36.554104 40.003617 26.124855  36.58782172130847 39.24284153421979 25.80515290024158  36.28427834889541 38.43072945744215 26.28392340343555  35.94701725517388 38.37939284644474 27.08239600638794  17.0860405 29.0462315 23.2715655  17.0886575 29.816807 23.2918495  17.9152365 29.4380475 23.8283595  17.9178535 30.208623 23.8486435  18.026188 30.484381 23.227566  18.023571 29.7138055 23.207282  18.020954 28.94323 23.186998  17.820133 34.924229 24.873173  18.2989055 34.5709515 24.319628  18.780605 34.4035495 25.071397  18.4610955 35.0967045 24.7099965  19.102058 35.26918 24.54682  19.2593775 34.050272 24.517852  18.939868 34.743427 24.1564515  19.4215675 34.576025 24.9082205  19.741077 33.88287 25.269621  18.777678 34.217674 23.766083  16.311768 30.457596 24.266424  17.168978 30.4709885 23.746995  16.2854185 30.364935 23.4383315  16.2314475 29.8034145 23.8112785  16.205098 29.7107535 22.983186  16.259069 30.272274 22.610239  17.1426285 30.3783275 22.9189025  25.10726642514144 36.94785271525515 22.76570669814476  24.47580625498656 36.34442377097481 22.88336425782022  25.22999350997311 35.67089954194962 22.89987251564043  25.040447424465 36.17316441398249 23.33067515576101  17.3731505 33.3838385 22.5780635  18.186235 33.391403 22.611959  18.167835 33.0298215 21.9949595  18.189138 32.648077 22.805169  17.1416 34.240055 23.880402  17.844121 34.763666 23.307762  17.959639 34.2288645 23.8232425  17.3710235 34.3364885 23.3082505  17.6146975 34.6672325 23.8799135  18.087795 35.09441 23.879425  18.1890625 34.325298 23.251091  18.4327365 34.656042 23.822754  17.600447 34.432922 22.736099  17.726362 33.284523 25.311506  18.2289025 32.1282235 25.0897195  18.2535695 33.008051 24.787548  17.663695 32.4443645 24.9008215  18.2915695 32.968382 25.500404  18.856777 32.652241 25.689302  18.818777 32.69191 24.976446  17.601028 31.604206 24.490137  18.1909025 32.1678925 24.3768635  18.780777 32.731579 24.26359  24.46235397307758 35.29372758408688 22.28469861944179  24.56003575498656 35.07018727097481 23.0485842578
[...]
<PointData  Scalars="p_O2"> 
<DataArray  type="Float64"  Name="p_O2"  format="ascii">1.0043455904338548e+02  1.0028826385171423e+02  1.0027935980582076e+02  1.0048770130376377e+02  1.0057424926899499e+02  1.0025849552347795e+02  1.0030314918669136e+02  1.0039578357084653e+02  1.0026556544450243e+02  1.0016823799025120e+02  1.0028436785137029e+02  1.0026500128356111e+02  1.0028499865884078e+02  1.0052997971708638e+02  1.0059241970267874e+02  1.0094374732932617e+02  1.0106582430950513e+02  1.0096331137430444e+02  1.0015949296490801e+02  1.0007724249677723e+02  1.0026861278792954e+02  1.0019458826839704e+02  1.0016123952393100e+02  1.0021273956336205e+02  1.0007282855989241e+02  1.0010554924734392e+02  1.0024761093819633e+02  9.9998319265405357e+01  9.9995067707812879e+01  9.9998737439346741e+01  9.9997232706636197e+01  9.9993249477977088e+01  9.9995289518044927e+01  9.9989796502472444e+01  1.0000323103055845e+02  1.0001222884598555e+02  1.0000940313885754e+02  1.0053460373029331e+02  1.0034949379617866e+02  1.0053776431837093e+02  1.0040612111844740e+02  1.0084226806697353e+02  1.0033155757652197e+02  1.0092711411707995e+02  1.0021393451032503e+02  1.0043860463277919e+02  1.0048130433692147e+02  1.0047360067075842e+02  1.0023925396505845e+02  1.0020754187983562e+02  1.0020323167388273e+02  9.9997331369801472e+01  9.9996418458366918e+01  1.0004472902440813e+02  1.0001231256124157e+02  9.9989737669872952e+01  9.9967419553372039e+01  9.9966253917043971e+01  9.9977639833043227e+01  9.9977655909793953e+01  1.0000253268511602e+02  1.0002869641558389e+02  1.0010472740107120e+02  1.0003861388623216e+02  1.0003782357306365e+02  1.0002505661169633e+02  1.0008941004473247e+02  1.0003171479473455e+02  1.0006068597498513e+02  1.0014198970107921e+02  1.0017520628007860e+02  9.9988499639196803e+01  1.0002461398919533e+02  1.0001344684696262e+02  1.0004287665317186e+02  9.9999727286037938e+01  9.9971170257014904e+01  9.9987026649819214e+01  9.9996033979181036e+01  9.9995851052045651e+01  9.9999201005536165e+01  9.9995754609318567e+01  1.0000352290274287e+02  9.9982237506184006e+01  9.9994860045611844e+01  9.9998072955403060e+01  1.0000574317350242e+02  1.0000763200371662e+02  1.0000997019627218e+02  1.0000433554947752e+02  9.9991310865682308e+01  1.0000219009546409e+02  1.0001314084555507e+02  1.0000304529985486e+02  1.0034870713932942e+02  1.0034243519791708e+02  1.0060870905095906e+02  1.0033569055668738e+02  1.0038997369772592e+02  1.0024444826088816e+02  1.0073611610641517e+02  1.0074154169824807e+02  1.0030821913872083e+02  1.0006592326096937e+02  1.0022666028268233e+02  1.0017578984319987e+02  1.0012724650889453e+02  1.0010074812647908e+02  1.0009784492544136e+02  1.0009146335349921e+02  1.0013733464321444e+02  1.0007857012647916e+02  1.0016217997228789e+02  1.0014625025769899e+02  1.0014424176692634e+02  1.0008929482560644e+02  1.0005213492258055e+02  1.0007510793709820e+02  9.9971954628776075e+01  1.0008230942118234e+02  1.0006051684427020e+02  1.0003924157044339e+02  9.9918081144104548e+01  9.9973186529635882e+01  9.9951770541741851e+01  9.9997218200701312e+01  9.9999819781966437e+01  9.9993494796370058e+01  1.0000488358041444e+02  1.0000346910575693e+02  9.9991040877304940e+01  1.0002485963137069e+02  9.9994190112436485e+01  9.9992141747780749e+01  1.0000298409971819e+02  9.9993585396822056e+01  1.0001497848500976e+02  1.0003884476033106e+02  1.0030471173374674e+02  1.0010180511809800e+02  1.0015682609303748e+02  1.0017295549984580e+02  1.0050814495426600e+02  1.0026748276097514e+02  1.0018998314241274e+02  1.0013709005670142e+02  1.0000211665064148e+02  1.0003929209874950e+02  1.0000443971658466e+02  1.0001541128167848e+02  1.0000632223010025e+02  1.0001929637886941e+02  1.0000416598904120e+02  1.0002483384385638e+02  1.0000678426185596e+02  1.0003455592074576e+02  1.0012383097082636e+02  1.0009505148220401e+02  1.0012826777794587e+02  1.0008953235643250e+02  1.0014327827742382e+02  1.0007912199684756e+02  1.0011658531499678e+02  1.0006472481278824e+02  1.0009119519765564e+02  9.9976614623884274e+01  9.9939532972132952e+01  1.0001752591058181e+02  1.0001794282841382e+02  1.0000438098766838e+02  1.0001463802565522e+02  1.0001609185034245e+02  1.0001431861688535e+02  1.0001540670656631e+02  1.0000642036416161e+02  1.0001987683055918e+02  1.0002875899596242e+02  1.0001560963657498e+02  1.0000393935272766e+02  1.0000559104997514e+02  9.9998754530473221e+01  9.9985511419089335e+01  1.0000437611109460e+02  9.9987082983668245e+01  1.0001059002977408e+02  9.9994748613764003e+01  1.0000007600433086e+02  9.9977965201840249e+01  9.9992984216330655e+01  9.9989534832896950e+01  1.0001210646083666e+02  9.9991493961532882e+01  9.9993632008539237e+01  9.9995907990974615e+01  1.0000565956296586e+02  1.0000383426133799e+02  9.9971839466314535e+01  1.0001364005456338e+02  1.0000658061353225e+02  1.0000095143156675e+02  9.9996785131972516e+01  9.9995924861778988e+01  9.9994438582965216e+01  1.0001144898843360e+02  9.9999612178442362e+01  9.9997080847840067e+01  9.9994000253055603e+01  1.0000158052827048e+02  9.9984943186964102e+01  1.0001083501799941e+02  1.0000426907766608e+02  9.9995189716897798e+01  9.9987452143358553e+01  1.0000573137132741e+02  9.9991813060671390e+01  9.9999292386038761e+01  9.9998563078643983e+01  9.9994561439519785e+01  9.9999851275274622e+01  1.0000754106808630e+02  9.9988607745276198e+01  9.9973342920152660e+01  9.9989438627222810e+01  9.9989859966062966e+01  9.9980133818773922e+01  9.9987555602996011e+01  1.0001100718697256e+02  9.9980261434303088e+01  9.9991534179909124e+01  1.0005292549623051e+02  9.9984694285895429e+01  9.9966605329707420e+01  9.9994940612792874e+01  1.0010561023114501e+02  1.0016621245114057e+02  1.0019528238299574e+02  1.0012275823402004e+02  1.0021341635628185e+02  1.0025052805743432e+02  1.0043919591917600e+02  1.0039116006651862e+02  1.0009682836265377e+02  1.0000160857848203e+02  1.0000281284454890e+02  1.0000867517948670e+02  1.0000331010927377e+02  9.9984883917560438e+01  1.0002365788873162e+02  1.0000364399729990e+02  1.0000331009181737e+02  9.9959254713326018e+01  9.9990582182338898e+01  9.9993003512334894e+01  1.0002375212212925e+02  9.9993628254246758e+01  1.0000961617896751e+02  1.0000335208391839e+02  1.0001321170863896e+02  9.9995706841724470e+01  1.0001911347661259e+02  9.9991458636684428e+01  9.9980459138888946e+01  1.0003917256740233e+02  1.0001150135372245e+02  1.0000770731960012e+02  9.9953293075711343e+01  1.0000039197396167e+02  9.9999751923621616e+01  1.0001917675769222e+02  1.0000880828503382e+02  9.9977864167803801e+01  1.0001453444530608e+02  1.0002172296666991e+02  9.9969543524835629e+01  1.0000597351476205e+02  1.0000945144210610e+02  1.0000808032814867e+02  1.0001417406544259e+02  1.0000018862585530e+02  1.0000834505238437e+02  9.9999145320202231e+01  9.9999311159184046e+01  1.0002011028320699e+02  9.9992314403368468e+01  9.9979060881954979e+01  9.9997187333139181e+01  9.9999357805163001e+01  9.9993989620535558e+01  1.0000541236432824e+02  1.0002413126528964e+02  1.0002944152917776e+02  1.0007327523572292e+02  1.0003032132921602e+02  1.0002793766450179e+02  1.0002753487658323e+02  1.0008656812339406e+02  1.0007876426408204e+02  1.0003608345233738e+02  1.0021132606436072e+02  1.0023450072910769e+02  1.0017801061230243e+02  1.0001134947725900e+02  1.0003795530381618e+02  1.0002628245784886e+02  1.0001519236295475e+02  1.0001501474797185e+02  1.0001555540737758e+02  1.0001942558075464e+02  1.0004161145634090e+02  1.0003490298620733e+02  1.0000200978625240e+02  9.9991205720819778e+01  1.0000503046569388e+02  1.0065457268988099e+02  1.0031434894645288e+02  1.0012134090815488e+02  1.0026183761629879e+02  1.0065815280028413e+02  1.0019959684287763e+02  9.9984628015412795e+01  1.0021846220903193e+02  1.0028181056100404e+02  1.0024430639734659e+02  1.0055941070780005e+02  1.0064585286438228e+02  1.0053373120568929e+02  1.0047072445840405e+02  1.0000463878141298e+02  9.9955152043929516e+01  1.0000816981191181e+02  1.0000523321461735e+02  1.0001893441349927e+02  1.0001294593391984e+02  1.0001590327229209e+02  1.0002810149283692e+02  1.0000527666108005e+02  1.0001544569885004e+02  1.0001383815149221e+02  1.0005023744354165e+02  1.0004808596021614e+02  1.0001393959122768e+02  1.0005459749283932e+02  1.0003088286472119e+02  1.0001835718870367e+02  1.0001292708412200e+02  1.0004805322843804e+02  1.0003250846230411e+02  1.0005723028550977e+02  1.0002861161357750e+02  1.0005832564234690e+02  9.9984078293943526e+01  9.9984950938355070e+01  1.0001706265235167e+02  9.9965934906695679e+01  9.9985762208010129e+01  1.0003221419141101e+02  1.0001365538673758e+02  1.0000102799847380e+02  1.0014922184901954e+02  1.0017871747728577e+02  1.0007763389819922e+02  1.0026656631928034e+02  1.0028835377537254e+02  1.0015871536050624e+02  1.0016453944136505e+02  1.0040195771659481e+02  9.9985940185396160e+01  9.9988531691275796e+01  1.0002321165803738e+02  1.0008219087528477e+02  1.0009740490560893e+02  1.0002893415464133e+02  1.0004106044487590e+02  1.0009786833748529e+02  1.0013260228156398e+02  1.0001246366111450e+02  1.0005109636859598e+02  1.0002990227119103e+02  1.0007129533990211e+02  1.0002455680864233e+02  1.0001631447980841e+02  1.0006806814824840e+02  1.0007740236858659e+02  9.9995497297701874e+01  1.0004092265439280e+02  1.0001157702104096e+02  9.9988210455804321e+01  1.0002734339319464e+02  1.0000490066760554e+02  1.0001415358801844e+02  9.9993703075382967e+01  1.0001503454549140e+02  9.9996078521996679e+01  1.0000594225564885e+02  1.0000100808005321e+02  9.9984612284406936e+01  1.0000101428713612e+02  9.9998029097459195e+01  9.9995388165778252e+01  9.9995922765110862e+01  9.9994168648502963e+01  9.9984348959624185e+01  1.0001622295902101e+02  9.9987931834699410e+01  1.0036262111517053e+02  1.0109257747710731e+02  1.0000141466337011e+02  1.0001469032284025e+02  1.0000240964064925e+02  1.0006156057558442e+02  1.0002465675439741e+02  1.0001574044044271e+02  1.0001360608865349e+02  1.0003183049623301e+02  1.0004551627243005e+02  1.0004544070875586e+02  1.0006257969906666e+02  1.0015781610577923e+02  1.0010994983408496e+02  1.0004995014992899e+02  9.9996510625063863e+01  1.0000722367602668e+02  1.0001041409716684e+02  9.9993283061541490e+01  9.9996931393927156e+01  9.9986123216159768e+01  1.0001191446683112e+02  1.0009496281453937e+02  1.0006615331584777e+02  1.0007475689861734e+02  1.0002454666614624e+02  1.0002119690226351e+02  1.0010658642355034e+02  1.0014638949319817e+02  1.0001651486469483e+02  1.0006504593419945e+02  1.0004461164040445e+02  1.0004782882157973e+02  1.0002241487379638e+02  1.0001320896503528e+02  1.0008678980232597e+02  1.0012902944017524e+02  1.0007881285344335e+02  9.9977628244457051e+01  9.9986264233789981e+01  9.9989850525155376e+01  1.0003530547027471e+02  9.9974986046407963e+01  9.9993727957727970e+01  1.0000830151359580e+02  9.9968733908321767e+01  9.9961824358096322e+01  1.0004505737756963e+02  1.0001033895014750e+02  1.0000409855329639e+02  1.0000663010569281e+02  1.0001263481237334e+02  1.0019859601486553e+02  1.0049428103155495e+02  1.0020370228872946e+02  1.0080015160581091e+02  1.0080472536327460e+02  1.0043736797201738e+02  9.9998846831106022e+01  9.9987811549927301e+01  1.0000263555961629e+02  9.9997011855567393e+01  1.0001293587898695e+02  1.0006133951892684e+02  1.0009075707044357e+02  1.0005650346631492e+02  1.0002688426839295e+02  1.0011911935680006e+02  1.0000400910495274e+02  9.9986799035524797e+01  1.0002969225411587e+02  1.0002574373146619e+02  1.0000189346367456e+02  9.9990805673211128e+01  1.0000934815567086e+02  1.0001732188589425e+02  1.0005838322891292e+02  1.0005118851094427e+02  1.0006026264275035e+02  1.0001718281622772e+02  1.0001089396827751e+02  1.0004666306616956e+02  1.0009551495603871e+02  1.0000947858771075e+02  9.9979088466943153e+01  1.0000275676191897e+02  1.0002455308999421e+02  1.0009937254457562e+02  1.0013115710989943e+02  1.0004133915588636e+02  1.0002330110509082e+02  1.0009743550460772e+02  1.0019609937426365e+02  1.0012582289237558e+02  1.0005142962690009e+02  1.0008455180774820e+02  1.0003963928758873e+02  1.0010132589910430e+02  9.9998423635339037e+01  1.0001891212921672e+02  1.0022458276736872e+02  1.0015387708321828e+02  9.9980007039074152e+01  1.0000075455155950e+02  9.9983746487535626e+01  9.9998362934446718e+01  9.9966990498743030e+01  1.0001521316824123e+02  9.9987928165889727e+01  1.0001026723342628e+02  1.0001464685073550e+02  1.0003176633341639e+02  1.0001698727924105e+02  1.0001582187902969e+02  1.0001535989058756e+02  1.0004205259900867e+02  1.0001855402515511e+02  1.0000737021325318e+02  9.9994232467428105e+01  1.0000029944787192e+02  9.9978730252896895e+01  1.0004606258867413e+02  1.0006502928780193e+02  1.0007791787640983e+02  1.0000933741828871e+02  1.0005687845358260e+02  1.0002365427684749e+02  1.0000959338257898e+02  1.0002560293513623e+02  1.0003324167917010e+02  1.0005274142508821e+02  1.0007003096264529e+02  1.0001246890130778e+02  1.0000819271543760e+02  1.0001224284385812e+02  1.0001449633375969e+02  1.0001560740260605e+02  1.0000717461281788e+02  1.0001764406373341e+02  9.9994460375875704e+01  9.9997254004476972e+01  9.9997094689967398e+01  1.0002872114867817e+02  1.0001210907146637e+02  9.9992684503903320e+01  9.9999817600882025e+01  1.0001728211286627e+02  1.0004212119701468e+02  1.0002310098620818e+02  1.0041038165054911e+02  1.0017627268319201e+02  1.0023733603237052e+02  1.0019780549181455e+02  1.0032346009068823e+02  1.0025843622512676e+02  9.9998448646131365e+01  9.9983989430571867e+01  9.9991646173928586e+01  1.0004206075081508e+02  9.9989195153809774e+01  9.9962932787656626e+01  1.0001691115942995e+02  1.0001278196238643e+02  9.9994223261501105e+01  1.0001669433949398e+02  1.0006159302747437e+02  1.0005596715204183e+02  1.0006937872302818e+02  1.0002693004282484e+02  1.0001889070383127e+02  1.0008796129777359e+02  1.0014466311184952e+02  1.0008247571222938e+02  1.0026754689673679e+02  1.0006871384802288e+02  1.0014632530060683e+02  9.9986581543407652e+01  9.9994357265413768e+01  9.9982723244592862e+01  1.0072573140728714e+02  1.0029071219124053e+02  1.0039394419962149e+02  1.0083676140722388e+02  1.0055026088193985e+02  1.0080444112618402e+02  1.0059153361944131e+02  1.0058959867629488e+02  1.0094884729615912e+02  1.0023200264452311e+02  1.0031609046483172e+02  1.0012545445334342e+02  1.0000213346435579e+02  9.9962997633811469e+01  9.9998767754188790e+01  1.0001177261545462e+02  1.0004128033921467e+02  9.9999621433263101e+01  1.0003734344772266e+02  9.9996395748658671e+01  1.0001215901413732e+02  1.0004965746613513e+02  9.9977534678936323e+01  1.0000437700224111e+02  1.0000242904641826e+02  1.0000212211983364e+02  9.9954920032682836e+01  9.9971686050286692e+01  9.9999239531731192e+01  1.0000651071447166e+02  9.9969455928210238e+01  1.0003964940529610e+02  1.0001014090897645e+02  1.0004595096205334e+02  1.0005775462440964e+02  1.0000046556662214e+02  9.9987914150085871e+01  1.0028631596566743e+02  1.0023941546268931e+02  1.0035367532030466e+02  1.0061422350309124e+02  1.0027035232077326e+02  1.0009638219034433e+02  1.0014214242954654e+02  1.0004431973768257e+02  1.0006780588727551e+02  1.0011992923621921e+02  1.0008645943317111e+02  1.0003886939364004e+02  1.0008616383979161e+02  1.0010379769568270e+02  9.9956688903258808e+01  1.0005292744355260e+02  1.0006857052661441e+02  1.0002314259254955e+02  1.0006207690721983e+02  1.0009921183242712e+02  1.0005612071619258e+02  9.9992552400372489e+01  1.0003485855434027e+02  9.9998915063938483e+01  9.9995497710433753e+01  1.0002962344376390e+02  1.0008110955561659e+02  1.0007243493639689e+02  1.0008955725584332e+02  1.0001883646633739e+02  1.0000719376220053e+02  9.9995108072002566e+01  1.0000022559623443e+02  1.0003196569192941e+02  1.0000611694823046e+02  9.9989371792442299e+01  1.0000052947153840e+02  1.0005021609711295e+02  1.0005883467397537e+02  1.0002226081161692e+02  1.0001616976430464e+02  1.0001594704518337e+02  1.0002163249282957e+02  1.0007209532691488e+02  1.0002718791791993e+02  1.0002779267497354e+02  1.0002539124042934e+02  9.9993453702558298e+01  1.0001231288065262e+02  1.0030793748165505e+02  1.0069251256585905e+02  1.0044486957424913e+02  1.0005488042714865e+02  1.0002713110959853e+02  1.0003037127718886e+02  1.0002270371291320e+02  1.0002404782489792e+02  1.0004417151618371e+02  1.0001621136568518e+02  1.0001303675527483e+02  1.0009771514400948e+02  1.0008808207550409e+02  1.0005073985518167e+02  1.0002978044586095e+02  1.0001693690193198e+02  1.0000137604257756e+02  1.0001533924112829e+02  1.0015166639366332e+02  1.0027263518721618e+02  1.0045992636243773e+02  1.0000552148281335e+02  1.0052126362111407e+02  1.0107298232905264e+02  1.0001530612514387e+02  1.0001413292860983e+02  1.0002889113914101e+02  1.0000815256795454e+02  1.0000630470807245e+02  1.0000437762232191e+02  1.0003075489619123e+02  9.9973273855628108e+01  1.0012474351349448e+02  1.0010912118559480e+02  1.0003019558272591e+02  1.0002790470776576e+02  1.0008936974555051e+02  1.0003472896668832e+02  1.0004884210993639e+02  1.0005361346819252e+02  1.0003462753399721e+02  1.0009764148807254e+02  1.0002718369246250e+02  1.0006802976196654e+02  1.0001776900332695e+02  1.0002478090310450e+02  1.0011652732141172e+02  1.0004460276258203e+02  1.0000335132321788e+02  1.0000518584238860e+02  9.9997439427210665e+01  9.9992703896953842e+01  9.9977905374061834e+01  1.0001272376868924e+02  9.9980667289521662e+01  1.0001934817535253e+02  1.0004129049652126e+02  9.9956117870855593e+01  9.9978450273644711e+01  1.0021362644014886e+02  1.0023126088707538e+02  1.0000383510655139e+02  9.9988998942147830e+01  1.0007489284590324e+02  1.0052511895421819e+02  1.0010266317610919e+02  1.0009088639112028e+02  1.0007021075654298e+02  1.0016114890889173e+02  1.0037801109071205e+02  1.0004686002426305e+02  1.0014310784853456e+02  1.0006388388402085e+02  1.0015552522226706e+02  1.0010109477367926e+02  1.0001083907197618e+02  9.9992762999400995e+01  1.0000212788877998e+02  9.9988854145063513e+01  1.0000426243665778e+02  9.9983947016257389e+01  1.0000799488660533e+02  9.9969343223295027e+01  9.9981571989038400e+01  9.9996303981707484e+01  1.0000601617777193e+02  9.9984899551826075e+01  9.9979273547087615e+01  1.0000071528584810e+02  1.0000030337441262e+02  9.9983438834665250e+01  9.9995692368469307e+01  9.9983253043407757e+01  9.9985083384391999e+01  9.9990867378974031e+01  1.0000138654185440e+02  1.0000417804780449e+02  1.0000736097591660e+02  1.0000657352517963e+02  9.9984892651830876e+01  9.9999181173049990e+01  9.9990162652906506e+01  9.9996023472984334e+01  1.0000736021164676e+02  1.0000057602625526e+02  9.9982781221695049e+01  1.0001319418800756e+02  1.0000785850029841e+02  9.9971406268600049e+01  1.0002086279988099e+02  1.0004599449504364e+02  1.0005619501195667e+02  1.0003078582421389e+02  9.9980789840662467e+01  9.9994411260460879e+01  1.0004050799313661e+02  1.0000822142075623e+02  9.9986095637886677e+01  9.9999879110299688e+01  1.0003857672987235e+02  1.0003699355648382e+02  1.0004458296828335e+02  9.9958610797733812e+01  1.0003481398923635e+02  1.0000844850825295e+02  1.0000148746974780e+02  9.9986990632431173e+01  1.0000454633570608e+02  1.0001965828655108e+02  1.0002174073369676e+02  1.0000119035198774e+02  9.9989941469962190e+01  1.0007868462793704e+02  9.9992808821343999e+01  1.0000118160431299e+02  1.0001543871697604e+02  1.0000835241486988e+02  1.0000261383484197e+02  9.9994729562509391e+01  9.9978509753130780e+01  1.0000167057874351e+02  9.9981488679509539e+01  1.0000127084402459e+02  9.9998908573220135e+01  9.9999684890910331e+01  1.0001508703472389e+02  9.9998874295860091e+01  9.9990583154088995e+01  9.9994598606525216e+01  1.0000856372813095e+02  1.0007991971809334e+02  1.0003842384358349e+02  9.9984457945147085e+01  9.9992343385530532e+01  9.9998372919404346e+01  1.0000488440129425e+02  1.0000487131983193e+02  1.0003200457556930e+02  1.0004605350072492e+02  1.0001636731805894e