<?xml version="1.0"?>
<VTKFile type="UnstructuredGrid"  version="0.1"  >
<UnstructuredGrid>
<Piece  NumberOfPoints="10169" NumberOfCells="46767">
<Points>
<DataArray  type="Float64"  NumberOfComponents="3"  format="ascii">27.906057 8.47893 15.616243  29.20467959627415 9.108523161936438 15.66218928646625  28.68887270564862 8.933428889374678 15.04292763329222  28.28016770564862 9.133088389374677 15.34160663329222  28.314762 8.279270499999999 15.317564  28.83056889062553 8.45436477256176 15.93682565317403  28.723467 8.079611 15.018885  29.23927389062553 8.254705272561759 15.63814665317403  29.75508078125105 8.429799545123519 16.25740830634805  28.65427841129725 9.787246778749356 15.06697026658444  34.31127962636833 7.405899387147113 16.51212949768158  35.37428853770196 7.448966432675213 15.65594510993337  35.15598462987474 7.368691563234322 16.43751885051491  35.04159950915233 8.279135293839657 16.23343887559189  36.00068963338116 7.331483739321531 16.36290820334824  35.888485 5.564236 19.455973  35.38399411464793 4.809383580866065 19.00856855322845  35.49625861464793 5.489680080866065 18.86290655322846  35.950056 5.029363500000001 18.9694225  35.7762205 4.8839395 19.601635  35.663956 4.203643 19.747297  35.83779149999999 4.349067 19.1150845  36.011627 4.494491 18.482872  35.10403222929585 5.41512416173213 18.26984010645691  31.638191 5.433876 19.467175  32.45444872784473 5.463167710932098 19.03278336785487  32.44104097919588 6.031222564796321 19.05138921967003  32.21738347952736 5.651880648267634 19.52153851356281  31.86184849966852 5.813217916528687 18.99702570610722  32.08550599933704 6.192559833057374 18.52687641221443  32.79657595905471 5.869885296535269 19.57590202712562  28.707155 2.902562 18.547003  28.76116378459941 2.273113850284335 18.01466076394535  29.218339 2.7284735 18.466924  28.9415435 2.1588895 18.712863  29.175932 1.415217 18.878723  29.4527275 1.984801 18.632784  29.729523 2.554385 18.386845  32.6978 4.654618 20.968016  33.1497027504436 4.963917415112636 19.93592913497422  32.69895367167206 4.422965261682907 20.16829492734135  32.74718797952735 5.262251648267634 20.27195901356281  33.14854907877155 5.195570153429729 20.73565020763288  33.5992981575431 5.73652230685946 20.50328441526576  33.1979370582989 5.803203801697364 20.03959322119569  32.74834165119941 5.030598909950541 19.47223794090416  32.70010734334411 4.191312523365814 19.36857385468269  32.965088 3.540709 20.935925  33.72037864974248 3.678757850312185 20.37755909999034  34.104788 3.8451755 20.9533545  33.6462155 3.35839 20.8956405  33.26180614974248 3.191972350312185 20.31984509999035  33.4236605 4.0274945 20.993639  33.882233 4.51428 21.051353  34.327343 3.176071 20.855356  33.94293364974248 3.009653350312185 20.27956059999035  33.55852429948496 2.84323570062437 19.70376519998069  33.2186375 2.8235825 20.877245  32.52295867167206 3.554076261682907 19.95668692734134  32.83259767167205 3.866010761682907 20.15224942734135  32.655449 3.2287745 20.7403625  32.34581 2.91684 20.5448  33.12931582141454 3.517274111995092 19.53616952733169  27.211771 2.221647 16.119135  28.01347178459941 1.932656350284335 16.80072676394535  27.93497856561513 2.680280577492539 16.51578865045511  27.36914054765494 2.13548753015063 17.08757240639981  27.52651009530988 2.049328060301259 18.05600981279963  28.17084133225435 1.846496880434965 17.76916417034516  28.09234811327008 2.594121107643169 17.48422605685493  28.65818613123027 3.138914154985078 16.91244230091023  28.73667935021455 2.391289927776874 17.19738041440046  28.81517256919883 1.643665700568671 17.48231852789069  34.83525660077306 6.742839803967534 16.83659146002741  34.74877745417979 6.756711675324614 16.1802280937623  28.35122104765494 1.73227253015063 18.46736640639982  28.11683254765494 2.47594503015063 18.30150640639982  28.99555228459941 1.529441350284335 18.18052076394535  36.27681 5.979208 18.180208  35.50500382737427 6.601746927356201 17.80654012689238  35.37740315443329 6.269418897828288 18.3609334689342  35.8180217875889 6.029494110393978 17.67063071118663  35.96379203978536 6.551460816962223 18.31611741570575  35.69042111464793 5.697166080866065 18.22502405322845  35.65077407957072 7.123713633924446 18.4520268314115  35.3592335751778 6.079780220787956 17.16105342237325  27.412476 3.231652 16.139803  28.03533106561513 3.185283077492539 16.52612265045511  28.12755159469285 2.505918436501904 16.10541561436243  27.3121235 2.7266495 16.129469  28.02719909469285 2.000915936501904 16.09508161436243  28.84262718938569 1.780184873003808 16.07102822872485  28.75040666030798 2.459549513994443 16.49173526481754  28.708366 7.037095 15.941552  29.32721889062552 7.794138772561759 15.55161065317403  29.23172339062553 7.73344727256176 16.09948015317403  28.7159165 7.558353 15.4802185  28.8038615 7.0977865 15.3936825  28.811412 7.619044499999999 14.932349  28.899357 7.158478 14.845813  28.68267056561513 3.020738077492539 17.72972265045512  28.698324 5.734039 16.107546  29.31097392028991 6.092267104854733 16.5670412354877  29.32396256910108 5.580098840264471 16.52997607824567  29.53191462821047 5.535400579794071 15.9533908175713  29.94960113820215 5.426158680528941 16.95240615649135  29.93661248939099 5.938326945119202 16.98947131373338  30.14456454850038 5.893628684648803 16.412886053059  29.92362384057982 6.450495209709465 17.0265364709754  31.83637119083484 8.305059142770251 16.26641967891587  30.73986047355205 7.795208976309205 16.64696022424846  30.73333782502289 8.136580983542245 15.35223217003734  30.85159149853385 8.939649711584565 15.87686776101546  31.94810221581664 9.449499878045609 15.49632721568287  31.72464016585304 7.160618407494892 17.03651214214887  31.71811751732389 7.501990414727931 15.74178408793775  27.89702 2.99404 15.079616  29.05153693550537 2.711651514114984 15.74553165426275  28.71169310626424 2.466875455970598 14.81103897712217  28.36982359469285 2.387112436501904 15.57532211436243  29.488306 6.046812 17.86935  30.11908242028991 6.088768104854733 17.4347167354877  29.70596492028991 6.248653604854733 17.4479432354877  29.71895356910107 5.736485340264471 17.41087807824567  29.9014235 5.8869265 17.8561235  30.314541 5.727041 17.842897  30.13207106910107 5.57659984026447 17.39765157824568  33.16213148455404 5.620499484859753 18.52188632456558  29.93158474158166 7.492960344666919 15.82562325294332  33.52768701005336 5.371113673184236 17.46787062200553  33.99903180130833 5.731671995834668 18.85088259876678  33.71054710645053 6.055036649095418 17.85910923065021  33.81617170491116 5.047749019923486 18.4596439901221  34.10465639976896 4.724384366662738 19.45141735823868  33.45061617941183 5.297134831599004 19.51365969268215  33.34499158095121 6.304422460770935 18.91312493321025  33.89340720284771 6.7389596250066 18.25034783929488  35.52245456730601 3.7794381865212 18.86864224615078  36.0681 3.84877 18.860297  35.8942645 3.703346 19.4925095  35.34861906730601 3.6340141865212 19.50085474615078  36.124573 3.203049 19.237722  35.069458 5.342229 20.501797  34.25124860586957 6.038009601632241 19.9930946606914  34.5039277269825 5.53194063153388 19.46716113217786  34.33437807877155 5.53937565342973 20.50254070763288  34.98632852709802 5.840862948202511 19.99235095305853  34.58705719988448 5.033306683331369 19.97660717911934  33.85197727865602 5.230453336761099 19.97735088675222  34.90319905419604 6.339496896405022 19.48290490611706  36.662254 6.975726 19.32785  36.15651403978536 7.049719816962223 18.88993841570575  36.755945 7.1024935 18.600664  36.469532 6.477467 18.754029  36.56322299999999 6.6042345 18.026843  36.849636 7.229261 17.873478  36.25020503978536 7.176487316962223 18.16275241570575  35.76962953978536 6.343974816962223 18.95399991570575  36.2753695 6.269981 19.3919115  36.0826475 5.771722 18.8180905  28.88130497459217 5.189532766028113 16.37993451709168  29.06428594918435 4.645026532056225 16.65232303418335  32.32849077011413 6.366674468287954 16.04878803230826  33.62181050037178 6.489314958114065 15.78659671007462  33.91948331821084 6.388506530165674 16.99000005984356  33.01795989611068 7.283258897321002 16.77432081991522  32.6261635879532 6.265866040339564 17.2521913820772  30.34967 6.467008 18.161438  30.13664692028991 6.458751604854733 17.5939872354877  30.3321055 6.0970245 18.0021675  29.918988 6.25691 18.015394  27.962012 8.59831 15.0796695  28.370717 8.398650499999999 14.7809905  28.017967 8.717689999999999 14.543096  32.40776197952735 5.083237648267635 19.87513301356281  32.358374 4.475604000000001 20.57119  32.018948 4.29659 20.174364  32.35952767167205 4.243951261682907 19.77146892734135  31.50101231760892 6.238906079735116 17.14418854231469  31.04507271113699 6.248690283541516 16.41787388864573  31.27738446936479 5.317193751975342 17.25186494248052  32.8065965046952 5.781836753120805 17.99737351710998  32.80902368435038 6.949789016250746 17.64342999072187  31.90507308259504 6.676589120276133 17.78169427718165  32.98945660109237 6.465759729031987 18.38861212575466  32.42674236053718 7.711587261116247 15.86254512971702  33.63885227643081 3.909274393261453 18.56753161299942  33.83159034962696 3.783810033643554 19.57759127910968  34.06806075450123 3.235235981890731 18.73512728564842  34.34112680464323 4.175810314909915 18.60895336477741  33.40238187155653 4.457848445014276 19.40999560646068  34.57759720951751 3.627236263157092 17.76648937131615  29.600214 5.588393 17.7652625  30.0133315 5.4285075 17.752036  29.712122 5.129974 17.661175  28.74808742048901 5.699773250404247 16.69750526969378  28.93106839508118 5.15526701643236 16.96989378678546  28.79785084097801 5.665507500808493 17.28746453938756  29.37372598959008 5.545833090668717 17.11993534793945  33.84988750662538 6.104691096470146 19.52940346662134  35.78272652709802 6.657611448202511 19.40537745305853  35.39584202709803 5.951866448202511 19.46943895305853  35.27698656688338 6.731605265164734 18.96746586876428  35.790222 6.716701 20.281933  35.72049803978536 6.920207316962223 19.36697991570575  35.34671052709803 6.528098
[...]
<PointData  Scalars="p"> 
<DataArray  type="Float64"  Name="p"  format="ascii">9.7745204321650050e+00  9.7140164140418968e+00  9.7379008576763564e+00  9.7640358080314211e+00  9.7417394192266720e+00  9.7287233024273867e+00  9.7126168749733104e+00  9.7032295342351347e+00  9.6856480891106376e+00  9.7526790468545919e+00  9.5061869370861025e+00  9.4467491277666440e+00  9.4790777272616982e+00  9.4664780511212339e+00  9.4540977310715864e+00  9.5469741215607922e+00  9.5539458341376609e+00  9.5448308175017704e+00  9.5483664997114168e+00  9.5560015800811975e+00  9.5627489738058564e+00  9.5572073947285325e+00  9.5499902197045667e+00  9.5422284964200923e+00  9.5926549078999717e+00  9.5862849268378341e+00  9.5859201452754181e+00  9.5871994779475465e+00  9.5954866588469088e+00  9.5943028517517366e+00  9.5801290659571379e+00  9.7932163008355619e+00  9.7696587832468520e+00  9.7503143405346488e+00  9.7812072242113093e+00  9.7700773388243825e+00  9.7364073731605369e+00  9.7108161786962608e+00  9.5796915830806828e+00  9.5778876744291690e+00  9.5824595549187457e+00  9.5802843471261809e+00  9.5773491556892640e+00  9.5730396804882982e+00  9.5758301472563527e+00  9.5822711533959737e+00  9.5860133475343368e+00  9.5819914327964746e+00  9.5778105464680667e+00  9.5754509302934707e+00  9.5793089460207970e+00  9.5825447324621233e+00  9.5782242031349636e+00  9.5744709387497213e+00  9.5765037263624038e+00  9.5786971473328695e+00  9.5822544122132900e+00  9.5831453433524416e+00  9.5876483047963834e+00  9.5834621516364979e+00  9.5849100433238430e+00  9.5879996578741356e+00  9.5838922807956859e+00  9.7779337296191944e+00  9.7690046424681309e+00  9.7628782022329332e+00  9.8124254396640413e+00  9.8379022500194839e+00  9.7943828893811062e+00  9.7902203731418229e+00  9.7433237818728777e+00  9.7476953944072147e+00  9.7518811474747515e+00  9.5051808885165538e+00  9.4913185077980806e+00  9.8091310051636391e+00  9.8176269712318831e+00  9.7610771655147381e+00  9.5218496358424662e+00  9.5150365049612429e+00  9.5309041981378257e+00  9.5145976551093909e+00  9.5198331413940398e+00  9.5318916567036567e+00  9.5203431488795012e+00  9.5087369142202096e+00  9.7709498870798992e+00  9.7594540500856155e+00  9.7381787025067279e+00  9.7737394865001317e+00  9.7411085569765241e+00  9.7111625105046944e+00  9.7267919294314176e+00  9.7111222592960136e+00  9.6923931590424157e+00  9.7041609404151465e+00  9.7062853326921950e+00  9.6898888349089827e+00  9.6947627200374029e+00  9.6807898922837126e+00  9.7660649206808170e+00  9.7096148202236954e+00  9.7019557747991865e+00  9.6999966550157719e+00  9.6782282164808553e+00  9.6779542128723470e+00  9.6793158972473012e+00  9.6631106867116543e+00  9.6810685285092557e+00  9.5877164820004115e+00  9.6409739827612473e+00  9.6313023577405019e+00  9.6275873851963443e+00  9.5627222569078612e+00  9.6032084648762073e+00  9.5914484371099267e+00  9.6993583143998521e+00  9.6950142358824625e+00  9.6800793652181039e+00  9.7106089916976774e+00  9.7190356273353995e+00  9.6731815604716225e+00  9.6975090362949317e+00  9.6955174401016606e+00  9.6853858980536867e+00  9.6569554586802209e+00  9.6711093977951315e+00  9.5736088992967066e+00  9.6684527910003428e+00  9.5607548384959973e+00  9.5608314619741410e+00  9.5555037156649476e+00  9.5652857855603468e+00  9.5685281699425460e+00  9.5733207450509408e+00  9.5693490044781289e+00  9.5513294853564812e+00  9.5606230300862354e+00  9.5588556597993843e+00  9.5638204053633107e+00  9.5658741164794989e+00  9.5641621364588296e+00  9.5622912502227955e+00  9.5633336057921721e+00  9.5598405605145960e+00  9.5670865443189523e+00  9.5567576847140572e+00  9.5648644100667362e+00  9.5705193565202151e+00  9.5501501317434681e+00  9.5242105895304654e+00  9.5224955693527065e+00  9.5124428791270859e+00  9.5237976489760090e+00  9.5072749518594417e+00  9.4947357612727288e+00  9.5068245647114225e+00  9.5341861617014754e+00  9.5350113918766191e+00  9.5363761755086660e+00  9.7148496104405240e+00  9.7154990519752147e+00  9.5761421258757320e+00  9.5247128328624324e+00  9.5363921815776003e+00  9.5541091252693562e+00  9.5771002121060071e+00  9.6571388155756797e+00  9.6737266905219386e+00  9.6565463516284566e+00  9.6863142821513541e+00  9.7696583390696379e+00  9.7374680035803021e+00  9.7691975924067140e+00  9.5840968912957276e+00  9.5825550425866801e+00  9.5865666788740018e+00  9.5872112235854772e+00  9.6134498867613019e+00  9.6270963549714992e+00  9.6228572468221838e+00  9.5784319620276950e+00  9.5715734059898470e+00  9.6002164171869850e+00  9.5733942592414500e+00  9.5617397843333141e+00  9.5755706497949475e+00  9.5760181445285681e+00  9.5745793146212872e+00  9.5651843162706669e+00  9.5770543257266549e+00  9.5606623604465835e+00  9.7075724345172443e+00  9.6755094086478266e+00  9.6969237081676614e+00  9.7326880053489830e+00  9.7313983626385632e+00  9.7489868063729777e+00  9.7110390781153235e+00  9.5653850653100392e+00  9.5365843430468153e+00  9.5474915581735047e+00  9.5367165553965929e+00  9.5448028951179253e+00  9.5347168368693715e+00  9.5474214045251529e+00  9.5341030612045827e+00  9.8235571661107883e+00  9.7880101659534713e+00  9.7762279441943587e+00  9.8000149446771303e+00  9.7735150885889119e+00  9.7669376607348148e+00  9.7516527122748276e+00  9.7324495417681405e+00  9.5884186135363425e+00  9.7961031071085056e+00  9.7559145066264623e+00  9.7711539505958882e+00  9.7899390856308965e+00  9.7563652778906498e+00  9.7162921741446748e+00  9.7833875485492090e+00  9.6662514380105389e+00  9.6497856012139884e+00  9.5310877311595519e+00  9.5320481417826244e+00  9.5111136186953829e+00  9.5341589610181536e+00  9.6155176910860192e+00  9.6157318392044679e+00  9.6225562525604253e+00  9.6270255779177933e+00  9.6472726338391670e+00  9.6359029006557648e+00  1.0009709786461414e+01  9.9896815472765166e+00  1.0000199171629328e+01  9.9787035752309432e+00  1.0021883680498822e+01  1.0029944772178085e+01  9.5784278662645814e+00  9.5765496015965734e+00  9.5772466327198735e+00  9.5723422156000790e+00  9.4471294786285913e+00  9.4486861863088976e+00  9.4242760206497955e+00  9.4478665644586624e+00  9.4462067565004517e+00  9.4081366799229080e+00  9.4303569779649923e+00  9.4084361776072214e+00  9.3564152131766622e+00  9.3924628231943750e+00  9.4237327223955916e+00  9.8088598211364282e+00  9.8305327642819975e+00  9.5318337536324425e+00  9.5217069643555057e+00  9.5207611273581776e+00  9.8163670528388405e+00  9.7854255867158422e+00  9.6072160831907176e+00  9.6047818457037142e+00  9.6056735874509407e+00  9.6175170553484790e+00  9.8096732767055368e+00  9.8040159616845237e+00  9.7672755829748201e+00  9.5837611763062718e+00  9.5805942213972397e+00  9.5892742275144780e+00  9.5945103040768149e+00  9.5882785634137999e+00  9.5782766471865326e+00  9.5590345906328178e+00  9.5874428608043676e+00  9.5918391488646115e+00  9.6015004585888466e+00  9.5907295452227430e+00  9.5965790397664481e+00  9.5911372357030089e+00  9.4856762651399880e+00  9.4679211877898108e+00  9.4495576070930110e+00  9.4799559051230275e+00  9.4764851754861734e+00  9.5445891630559956e+00  9.5736170514098529e+00  9.5692947538247015e+00  9.5463231057199298e+00  9.5576219657903110e+00  9.5574430915272082e+00  9.4391278419683218e+00  9.8090965529472438e+00  9.5754924601520788e+00  9.5685480695052743e+00  9.5690895906749827e+00  9.4826551424823560e+00  9.4912877768410606e+00  9.4971722148152526e+00  9.4639777201552509e+00  9.7577742613946672e+00  9.5363889814954188e+00  9.5774219964329443e+00  9.6488383494335430e+00  9.7340988348377238e+00  9.7122878358043305e+00  9.7501320459926166e+00  9.7128615534076381e+00  9.7337595273917259e+00  9.5576738422354790e+00  9.5640605422852936e+00  9.7758608355974985e+00  9.5498373433429826e+00  9.8027287092305571e+00  9.8949671789585238e+00  9.8625043044963547e+00  9.8548285477309836e+00  9.8375919414689701e+00  9.5372511916531391e+00  9.6323286356562132e+00  9.6387679987129946e+00  9.5320970584665545e+00  9.5488886903722729e+00  9.5515961785744459e+00  9.5621312243784775e+00  9.5553341644705139e+00  9.6371889721774089e+00  9.6318871540592301e+00  9.5351481514568661e+00  9.6098303988049256e+00  9.6018019185955232e+00  9.7394662230433262e+00  9.7373023173399869e+00  9.7214517956472193e+00  9.7102476436843776e+00  9.6317387027738626e+00  9.6395664555858236e+00  9.7386866721502283e+00  9.7377761202128941e+00  9.7079993868243886e+00  9.7133499993030039e+00  9.5721912100692617e+00  9.5661708296354959e+00  9.5697641288300996e+00  9.5687042088430498e+00  9.7282564627607488e+00  9.7083274500893122e+00  9.7099372004175741e+00  9.6316445553714161e+00  9.8502763950177759e+00  9.8416572936903890e+00  9.8131483216583071e+00  9.8725880835597160e+00  9.5069720338174957e+00  9.5013317810881581e+00  9.4931115224747682e+00  9.5013081020266039e+00  9.4866283458373335e+00  9.4746498532201571e+00  9.6524424750835482e+00  9.6824382869674324e+00  9.6663505849529656e+00  9.6301703572203614e+00  9.6784883211420034e+00  9.7014477501084428e+00  9.6800256854577640e+00  9.7077178169406100e+00  9.5125699206818801e+00  9.5041171206698944e+00  9.4937759014933558e+00  9.5024403746258912e+00  9.4799490646284053e+00  9.4720660065321578e+00  9.5252232888217829e+00  9.5961943349995131e+00  9.5882206068388438e+00  9.5972101398705796e+00  9.5934815020374131e+00  9.6856286573084862e+00  9.4757661420325672e+00  9.6653041782375464e+00  9.6928258045321574e+00  9.6685638300020269e+00  9.6521122134169843e+00  9.5450098259332812e+00  1.0090320048156784e+01  1.0056940151699584e+01  1.0053443156396456e+01  1.0070834741287369e+01  1.0052698205277268e+01  9.5545795113583640e+00  9.7316322221115943e+00  9.7372642008879993e+00  9.6041998843663752e+00  9.5749801889476078e+00  9.5732905089930647e+00  9.5734496480895963e+00  9.8320303154237649e+00  9.5785521795483586e+00  9.6181790727899230e+00  9.5544641448144958e+00  9.5604994862017421e+00  9.5560285250146801e+00  9.5833611062489652e+00  9.5829705224412045e+00  9.5862406383661369e+00  9.5876795100485204e+00  9.7409261949441230e+00  1.0023411851563083e+01  1.0036823770592473e+01  1.0011489460799407e+01  1.0042012942636243e+01  1.0050104696702435e+01  1.0042814612819290e+01  1.0040634207621959e+01  9.7128425523628970e+00  9.7362453835094200e+00  9.7346174752697827e+00  9.7307048947392509e+00  9.8102629134995372e+00  9.6290741786632807e+00  9.6094465308161432e+00  9.6197980842271864e+00  9.6425404886631974e+00  9.7262360204464660e+00  9.5996121205603160e+00  9.5664093204644658e+00  9.7047900441824346e+00  9.5671944100970485e+00  9.5696145419138769e+00  9.5735346330270001e+00  9.6086123578115146e+00  9.6039900321510459e+00  9.9385550357454928e+00  9.9590097716108303e+00  9.9432380586683866e+00  9.9781425090840354e+00  9.9885447363036342e+00  9.5794407912046875e+00  9.5808615162939326e+00  9.7266630360161752e+00  9.7406953764760775e+00  9.7107077824321699e+00  9.5833787921704428e+00  9.4739860097303090e+00  9.4618919765045941e+00  9.4479037021413639e+00  9.4743071268298973e+00  9.7259477536552055e+00  9.7293111465238944e+00  9.6234323857121673e+00  9.7117988174250236e+00  9.7496899850698462e+00  9.7934568115887739e+00  9.8056454270208793e+00  9.8397274270061050e+00  9.8047265169057987e+00  1.0276636743621166e+01  1.0219976839312436e+01  1.0250262474418236e+01  1.0230797102804724e+01  1.0266016560905484e+01  1.0287120366436488e+01  1.0297670166579225e+01  1.0316770243685651e+01  1.0253131875051476e+01  1.0190788725645053e+01  9.5696784267051243e+00  9.6121452855667879e+00  9.5722494613261322e+00  9.5923924453120204e+00  9.6161146769971850e+00  9.6231636333250261e+00  9.6339875683334490e+00  9.6029529437100720e+00  9.5772543132061720e+00  9.6579742448215864e+00  1.0162696409158892e+01  1.0125445117622311e+01  1.0158647122261701e+01  1.0146709292788472e+01  1.0179023801177262e+01  1.0141175616985592e+01  1.0186502493249405e+01  1.0151941838531108e+01  1.0131261472714417e+01  1.0120695724134512e+01  1.0143271369840070e+01  1.0135949120805485e+01  1.0142557065248541e+01  1.0138867075292469e+01  1.0137412547867692e+01  1.0132924495589828e+01  1.0132363616135086e+01  1.0131662822400049e+01  1.0136653374708562e+01  1.0140102176524914e+01  9.8447830109047541e+00  9.7931711194050628e+00  9.8291062610412787e+00  9.8247239295092879e+00  9.8045365152146431e+00  9.8466425688824497e+00  9.8090153587794919e+00  9.8790658209838789e+00  9.8765290078987729e+00  9.8851745703333975e+00  9.8859625960089392e+00  9.8931573502625447e+00  9.8845151841152123e+00  9.8918846396818143e+00  9.8875778704330646e+00  9.8809766073006724e+00  9.8762540208323522e+00  9.5916236609778291e+00  9.5702378673139989e+00  9.5709549875035815e+00  9.5845614491595565e+00  9.5726306991365249e+00  9.5585522215706522e+00  9.5550322933304557e+00  9.8978000519449498e+00  9.8735739986517679e+00  9.8804709512051136e+00  9.8817209453164505e+00  9.8932531408573201e+00  9.8552148461078826e+00  9.8598042203292735e+00  9.8717307864993913e+00  9.8853122193740806e+00  9.8643409268165918e+00  9.8925056702050664e+00  9.8813301919214549e+00  9.8729496498032905e+00  9.8946044368695460e+00  9.9069372126281348e+00  9.8885005890517448e+00  9.8674110614815245e+00  9.9010424117067188e+00  9.9147431027224684e+00  9.8484233683976417e+00  9.7152384876448430e+00  9.6780891216749030e+00  9.7016639513781779e+00  9.7114659699183346e+00  9.7109862241838787e+00  9.6723876422468678e+00  9.6995114975998060e+00  9.6878664377899550e+00  9.6621395152633234e+00  9.6403028523998024e+00  9.8912691786523705e+00  9.8840886233858978e+00  9.9011472434525896e+00  9.8925109971637823e+00  9.8997339903882189e+00  9.8833168689341679e+00  9.9094555486317972e+00  9.8907730550552717e+00  9.8737295718993501e+00  9.8931939667903226e+00  9.8622265757422820e+00  9.8668068423115329e+00  9.8532652005790684e+00  9.8577331477264423e+00  9.8761679142964489e+00  9.8518622362331918e+00  9.8481149254989901e+00  9.8687911069781649e+00  9.8888694587520298e+00  9.8436717611773279e+00  9.9570393366477106e+00  9.9847851969377679e+00  9.9755191741535647e+00  9.9726104038457901e+00  9.9706637532623752e+00  9.9874392046131746e+00  9.9877933149124303e+00  9.9840521729749305e+00  9.9868324502580688e+00  9.9882511192000951e+00  9.9016923483324355e+00  9.8873620960796504e+00  9.8904912698004708e+00  9.8937897522419362e+00  9.8782201885094771e+00  9.8754017874686433e+00  9.8716171016026610e+00  1.0310374617404573e+01  1.0278341399304740e+01  1.0316949898789009e+01  1.0336739394306502e+01  1.0295676523195361e+01  1.0294248343974802e+01  1.0359023369761202e+01  1.0320393697480233e+01  1.0279594651576019e+01  9.9982996067003800e+00  1.0016521889601247e+01  1.0000737125110474e+01  1.0004029093143101e+01  1.0015386129130036e+01  1.0034820649084152e+01  1.0023266482686305e+01  1.0009360505408136e+01  1.0006128733497654e+01  1.0002670225123968e+01  9.9149865889013480e+00  9.9131605165665668e+00  9.9294329428847856e+00  9.9419244094868784e+00  9.9623851417702287e+00  9.9319495363210510e+00  9.9475666354712562e+00  9.9382306936652540e+00  9.9210827052559871e+00  9.9025466432193952e+00  1.0166869877685789e+01  1.0154326229507902e+01  1.0153517712930558e+01  1.0168011494119645e+01  1.0170641968181720e+01  1.0172170743998162e+01  1.0171797966644371e+01  1.0166841943286194e+01  1.0151201461505952e+01  1.0130890271107154e+01  1.0106361291141749e+01  1.0110320986587398e+01  1.0116643756557112e+01  1.0099035800022916e+01  1.0088824995602875e+01  1.0092096249822886e+01  1.0088771669378447e+01  1.0082971642813257e+01  1.0078272526631881e+01  9.9994470071530781e+00  1.0001449777228668e+01  1.0010723169117789e+01  1.0000699804172184e+01  1.0002256172092496e+01  1.0009648839390838e+01  9.9979965995082907e+00  1.0029632109112264e+01  1.0015174949680972e+01  9.8111270782414532e+00  9.7920926477137318e+00  9.7961952065860594e+00  9.7956806530227585e+00  9.7826144963966346e+00  9.7748779837418898e+00  9.7769926984074704e+00  9.7813841039057898e+00  9.7812262458412551e+00  9.7719148726606431e+00  9.7328556093235878e+00  9.7162091156527808e+00  9.6938672914186714e+00  9.7271662291635792e+00  9.7184152617773609e+00  9.7066670384452856e+00  9.6843756631597078e+00  9.7199724803536007e+00  9.6903713367553710e+00  9.6622325805364699e+00  9.8441511312282053e+00  9.8493442228807382e+00  9.8474987348012952e+00  9.8452033879069383e+00  9.8470599222951876e+00  9.8509151295875874e+00  9.8502113033995435e+00  9.8547788594930843e+00  9.8544279482063661e+00  9.8538713274052920e+00  1.0067201020088097e+01  1.0042538006268387e+01  1.0035126334725593e+01  1.0056433985638970e+01  1.0043773445248776e+01  1.0051266266507268e+01  1.0021706523868435e+01  1.0027680433707733e+01  1.0043005020683069e+01  1.0033783141191915e+01  1.0000757477746319e+01  9.9730646244263461e+00  9.9908327387992895e+00  9.9718853652941633e+00  9.9362919942143009e+00  9.9407221870962843e+00  9.9582945205901545e+00  9.9781492039822943e+00  9.9644005456277380e+00  9.9471190092430994e+00  9.5049927358899247e+00  9.5385763758855031e+00  9.5262340782853787e+00  9.5359373577663451e+00  9.5214499650303885e+00  9.5549318330895865e+00  9.5452187521806646e+00  9.5332791045571437e+00  9.5505811082597010e+00  1.0033200945370252e+01  1.0013006247400256e+01  1.0052872491177670e+01  1.0041920334882951e+01  1.0045426083473302e+01  1.0006306126896547e+01  1.0058169088402307e+01  1.0015072162601319e+01  9.9763144236866896e+00  1.0048962847463045e+01  9.8700951640886245e+00  9.8601125497655158e+00  9.8837262069003877e+00  9.8694875240060629e+00  9.8658217108715114e+00  9.8765692580932285e+00  9.8619418895769222e+00  9.8842225366316097e+00  9.9002046145270857e+00  9.8528525825877900e+00  9.8555324594265006e+00  9.8511185900062763e+00  9.8511016425376496e+00  9.8493853864185752e+00  9.8447959754712375e+00  9.8459860932916090e+00  9.8446303580988950e+00  9.8433690951163619e+00  9.8451428868618009e+00  1.0225049601826139e+01  1.0157886306484849e+01  1.0167394237380025e+01  1.0192154473665196e+01  1.0183003116428567e+01  1.0196836958639725e+01  1.0175279982190586e+01  1.0155295936896062e+01  1.0144664770751938e+01  1.0157882072839005e+01  9.8451674212852982e+00  9.8534034591970681e+00  9.8463582417334692e+00  9.8388150985983227e+00  9.8587125748360460e+00  9.8734635615543578e+00  9.8500963535414670e+00  9.8371914676712908e+00  9.8400545714604615e+00  9.8457415286636643e+00  9.5128393520612686e+00  9.5150242134544278e+00  9.5224463962591948e+00  9.5079079842358283e+00  9.5034435876648509e+00  9.5113772027697809e+00  9.5199609022995180e+00  9.5250510193411912e+00  9.5177848167174783e+00  1.0367205548379241e+01  1.0398011710574584e+01  1.0404177746285265e+01  1.0365790041047873e+01  1.0376155138787908e+01  1.0401414470776515e+01  1.0411272437625577e+01  1.0451069271883773e+01  1.0440455288594352e+01  1.0423880119383947e+01  1.0080145008636576e+01  1.0042343112344618e+01  1.0031051882472914e+01  1.0057376485654384e+01  1.0065454931183499e+01  1.0044921297829626e+01  1.0016142561324296e+01  1.0025997854407079e+01  1.0036000961277979e+01  9.8411678776587959e+00  9.8410885549358031e+00  9.8502864854962837e+00  9.8527310002465835e+00  9.8357845118235741e+00  9.8274598743489445e+00  9.8437933285608068e+00  9.8599117107654859e+00  9.8573271361983927e+00  9.8581849766531509e+00  9.8760951464976898e+00  9.8755262332978564e+00  9.8572500594458745e+00  9.8829569878028369e+00  9.8479659324835644e+00  9.8503780293251051e+00  9.9669794244681551e+00  1.0013529868366163e+01  9.9894352277309810e+00  9.9914471993405289e+00  9.9872005388544114e+00  9.9688894182885424e+00  1.0006462445390058e+01  9.9682765985060602e+00  9.9942430399032141e+00  1.0020713671881119e+01  9.8629227427569433e+00  9.8611463091190306e+00  9.8795602082136362e+00  9.8908079697877440e+00  9.8540991565175293e+00  9.8731024361768203e+00  9.8719946314045615e+00  9.7789754489581782e+00  9.7750258758993525e+00  9.7737160208418228e+00  9.7750777416008390e+00  9.7738296584759734e+00  9.7705390872395697e+00  9.7736749714699105e+00  9.7710878575558784e+00  9.7662551507414967e+00  9.7728066121218617e+00  9.9757274062170218e+00  9.9592221587574912e+00  9.9860472893309051e+00  9