<?xml version="1.0"?>
<VTKFile type="UnstructuredGrid"  version="0.1"  >
<UnstructuredGrid>
<Piece  NumberOfPoints="10820" NumberOfCells="49700">
<Points>
<DataArray  type="Float64"  NumberOfComponents="3"  format="ascii">16.270271 20.941401 5.838078  16.99847963456617 20.20554280003695 5.684992471513351  16.52789413456616 19.72166130003695 5.841374971513352  16.67570663456616 20.30330630003695 6.200218971513351  16.1224585 20.359756 5.479234  16.593044 20.8436375 5.322851500000001  15.974646 19.778111 5.12039  16.4452315 20.2619925 4.9640075  16.915817 20.745874 4.807625  17.08114226913233 19.66521160007391 6.562359943026703  16.387257 1.603942 4.947607  16.8806325 1.3244825 3.756194  16.450024 1.014533 4.0677335  16.3688135 1.0306205 4.7984265  16.35037 0.457299 4.649246  16.4315805 0.4412115 3.918553  16.512791 0.425124 3.18786  17.958376 21.997988 4.541883  18.96728049650514 22.41637169144642 4.646556896745821  19.04174999650514 21.75905619144642 4.686702396745821  18.48950299650514 21.95336669144642 4.981726896745821  18.510623 21.8036775 4.2468585  18.4361535 22.460993 4.206713000000001  19.06287 21.609367 3.951834  19.02062999301027 21.90874538289284 5.421570793491642  17.28479 22.596573 6.557545  17.40427336064881 21.83007890696465 6.474220525639952  17.218295 22.2213985 6.057722500000001  16.891819 22.2419025 6.46183  16.498848 21.887232 6.366115  17.01130236064881 21.47540840696465 6.378505525639952  16.825324 21.866728 5.9620075  17.1518 21.846224 5.5579  17.33777836064881 21.45490440696465 5.974398025639951  17.52375672129761 21.06358481392931 6.390896051279904  17.541716 20.495333 7.682212  17.95474736064881 20.43166440696466 6.768368025639951  18.3865785 20.4372835 7.1210095  17.963727 20.1475385 7.414026  17.9645675 20.785078 7.3891955  17.5327363606488 20.77945890696466 7.036554025639951  18.387419 21.074823 7.096179  17.95558786064881 21.06920390696465 6.743537525639952  18.385738 19.799744 7.14584  17.9263915 22.585187 5.029460500000001  18.08621499650514 21.87748469144642 5.489735396745822  17.555088 21.922106 5.0498915  17.5231035 22.509305 5.537469  17.894407 23.172386 5.517038  18.45751849650514 22.54056569144642 5.469304396745821  17.21978686064881 20.90472940696466 5.599260525639952  16.8970138606488 21.00249290696465 6.114487025639952  17.30244949521497 20.36439820700161 6.476627997153303  17.283905 16.549591 9.817080000000001  17.27105305270437 16.51838148366831 8.702097906056078  17.57562223587899 15.97986559844905 9.16583656462258  16.94503455270436 16.32728898366831 9.17567590605608  17.6099235 16.7406835 9.343502000000001  17.935942 16.931776 8.869923999999999  16.60616410540873 16.10498696733663 8.534271812112159  17.23675178858335 15.75756358211737 8.52443247067866  17.86733947175798 15.41014019689811 8.51459312924516  18.950087 20.346851 4.22465  18.36644046129136 19.93929240563812 4.645313378359287  18.80023636348449 20.40893745263845 4.980752206528408  19.07156136348449 19.84295945263845 5.251898706528408  18.63776546129136 19.37331440563812 4.916459878359287  18.65038572696898 20.47102390527691 5.736854413056816  18.21658982477585 20.00137885827658 5.401415584887695  17.78279392258272 19.53173381127625 5.065976756718573  17.31142913456616 20.08027230003695 7.122285971513351  17.73344013456617 19.73247780003695 6.854099971513351  17.437223 18.596029 3.565305  17.6348311694939 18.76340742803538 4.449395149130619  17.61000846129136 19.06388140563812 4.315640878359287  17.2061446694939 18.43993792803538 4.227812149130619  17.8659095 18.9194985 3.786888  18.294596 19.242968 4.008471  18.03869496129136 19.38735090563812 4.537223878359287  16.9750663389878 18.28384685607076 4.890319298261238  17.37893013078526 18.9077903336735 4.978148027489905  17.7345865 15.6354555 9.784839999999999  17.8838375 16.25085 9.694435500000001  17.134654 15.9341965 9.907484500000001  16.985403 15.318802 9.997889000000001  18.48377 15.952109 9.571790999999999  16.26384288048717 16.46250832854527 7.208397195217256  17.00804624207705 16.43260415135274 7.943602548258935  16.81873988399558 15.76890262820262 7.380562847304084  15.86196074381885 16.13489114452916 7.799066459070481  15.11775738222897 16.16479532172168 7.063861106028803  16.0745365224057 15.79880680539515 6.645357494262406  17.03131566258243 15.43281828906861 6.226853882496009  17.2206220206639 16.09651981221873 6.789893583450859  17.40992837874536 16.76022133536885 7.35293328440571  17.56707073728249 18.83308702119792 5.876476312090498  17.43196809585752 19.59847270567508 5.814168349872638  17.02810430406007 18.97452922807233 5.72633962064397  17.2162449105573 18.89982591559675 6.624667905244563  17.16320694548504 18.20914354359518 5.788647582861829  17.35134755198227 18.1344402311196 6.686975867462421  17.91363658446752 18.42438955492688 5.461511268026907  17.62511542627744 17.70552335850582 5.302829152999294  15.41208184948326 16.35048654366091 4.91136716862344  15.91931267474734 16.60017390292549 6.407190158003397  16.06647490837448 16.69301951389511 5.330943189300715  16.22169875603284 15.89165241636476 5.569110525559724  15.26491961585611 16.2576409326913 5.987614137326121  16.87609181492407 16.23418538659895 5.988686546237  16.72086796726571 17.0355524841293 5.750519209977991  17.341255 21.932775 7.443075  17.8361045 21.835698 6.826862  18.4769535 21.8486965 7.0971725  17.9538715 22.2776725 7.2706205  17.3130225 22.264674 7.000310000000001  17.864337 21.503799 7.269627  18.566488 22.62257 7.098166  17.925639 22.6095715 6.8278555  16.490913 13.095447 8.181255  16.95635014833958 14.06985688930331 7.637584127942772  16.46502756050486 13.62693108543508 7.458750247557594  16.33677806050486 13.67840658543508 7.966199247557594  16.18264312100972 14.26136617087015 7.751143495115189  18.209856 16.4419425 9.220857499999999  17.477364 19.083977 7.83208  17.77465713456616 19.16964280003695 6.914578471513352  17.41435577599113 18.6092086155598 7.259527933731211  17.27925313456617 19.37459430003695 7.197219971513352  17.972768 18.8790255 7.549438500000001  18.468172 18.674074 7.266797  17.90975977599113 18.4042571155598 6.976886433731211  18.2304475 22.897478 6.307602  18.308937 23.032833 6.7831095  17.5895985 22.8844795 6.0372915  17.668088 23.0198345 6.512799  18.051386 23.443096 6.468053  16.580481 19.6436 4.01894  16.9382395 19.540632 3.7800835  16.5620375 19.1394135 3.6929405  17.008852 19.1198145 3.7921225  16.919796 19.0364455 3.454084  17.3666105 19.0168465 3.553266  16.9904085 18.615628 3.466123  16.543594 18.635227 3.366941  17.295998 19.437664 3.541227  18.4225885 21.049132 3.98163  18.4542315 21.1724195 4.3832665  17.8703415 21.2434425 4.2766545  17.782307 20.488897 4.011426  18.366197 20.417874 4.118038  19.0064785 20.978109 4.088241999999999  18.0451223606488 21.84307740696465 6.744531025639952  17.931551 19.4418605 7.488960000000001  18.426955 19.236909 7.2063185  17.53939596129136 19.48469890563813 4.303601878359286  17.795297 19.340316 3.774849  18.6223415 19.7949095 4.1165605  17.34930546129136 20.13880390563812 4.936800878359286  17.78310136348449 20.60844895263845 5.272239706528408  17.349062 20.6173855 4.4095255  17.78255046129136 20.01031540563812 4.538701378359287  18.21634636348449 20.47996045263845 4.874140206528408  18.85220682994724 18.56493225378299 6.032703237792576  18.31750037626497 19.04833303252962 5.549339997255574  18.38381896129136 18.90419140563812 4.760462378359287  17.9799551694939 18.28024792803538 4.672633649130619  16.747412 12.992496 7.166357  16.77444906050486 13.78837808543508 6.979406747557594  18.98535849650514 21.12779819144642 4.823110396745821  17.18163746129136 19.58766690563812 4.542458378359287  17.181394 20.0662485 4.015183  16.748149 20.194737 4.413282499999999  18.0384515 19.8659325 4.0099485  18.15270999650514 22.25265919144642 5.989557896745821  17.5391525 19.9632805 3.7763265  16.87871996129136 19.65492240563812 5.093183378359287  16.4748561694939 19.03097892803538 5.005354649130619  16.2775635 19.7108555 4.569665000000001  16.7777736694939 18.96372342803538 4.454629649130618  18.27219335715395 21.48616509841107 5.906233422385773  16.72950806050486 13.87715958543508 8.361969247557594  17.80414027599113 17.9418596155598 7.307309433731211  17.8671485 18.416628 7.879861500000001  17.86576399805065 20.06811775267541 6.14960717804176  18.51806186348449 20.13538395263846 6.441347206528408  18.0870712241333 20.76730435960311 6.06387523216836  16.84796715312676 17.65969967010003 5.320419254119614  17.03610775962399 17.58499635762445 6.218747538720207  17.81325603277467 17.63082004603024 6.201157437599885  17.4980162404164 17.08137617253509 5.73292910885767  17.90109286348449 21.15862395263845 5.647377206528408  18.83550785998963 21.18988464408487 5.579212603274229  17.63863392525167 16.08518076613348 7.933763206825435  17.363304 17.835831 8.387117  16.84205611113282 17.34531707003481 7.504086669339159  16.4401739744645 17.0176998860187 8.094755933192385  16.81874392176014 17.88312190235038 8.021178527136305  17.38661618937268 17.29802616768442 7.870025142202855  16.98473405270436 16.97040898366831 8.46069440605608  16.27418384352028 17.93041280470077 7.65524005427261  16.2157221694939 18.41661792803538 4.430608149130618  16.0184295 19.0964945 3.9949185  15.456378 18.549389 3.970897  15.999986 18.592308 3.668919  16.7593301694939 18.45953692803538 4.128630149130619  17.43250586064881 21.49817990696465 6.916985525639952  16.9200515 21.9100035 6.904595  19.23012986348449 20.73971745263845 4.998157706528408  19.3799805 20.677631 4.242055499999999  19.809874 21.008411 4.259461  19.41525199650514 21.45857819144642 4.840515896745821  16.485451 15.387866 4.229366  16.39830601282525 16.33655207697294 4.895121142614801  16.93499058808363 15.85524180514249 4.554120558303081  15.94876642474163 15.86917627183045 4.57036658431172  17.38453017616725 16.32261761028497 4.878875116606163  17.50954 19.789655 7.757146000000001  16.7110355 21.3938125 5.697989  16.3845595 21.4143165 6.1020965  16.40575789387996 21.2616547
[...]
<PointData  Scalars="p"> 
<DataArray  type="Float64"  Name="p"  format="ascii">1.0447141453296441e+01  1.0421615987342941e+01  1.0454656464724815e+01  1.0447754693902814e+01  1.0450585117591647e+01  1.0416564678831243e+01  1.0461411757343102e+01  1.0429484251221281e+01  1.0396113251096994e+01  1.0443740800505150e+01  1.0518591251881247e+01  1.0437098622471265e+01  1.0493012779653656e+01  1.0516105894625269e+01  1.0515109611584229e+01  1.0493146802808942e+01  1.0475794526289736e+01  1.0305459719552791e+01  1.0258703898610019e+01  1.0273920545228279e+01  1.0294228306396176e+01  1.0288107341907603e+01  1.0265837102835556e+01  1.0268402678053148e+01  1.0279904881980766e+01  1.0385121995452094e+01  1.0391884856481607e+01  1.0373169815489360e+01  1.0429635971981252e+01  1.0452562589361833e+01  1.0420593908208891e+01  1.0406966229647290e+01  1.0369175889948378e+01  1.0385901016891662e+01  1.0396141320824182e+01  1.0449977724932157e+01  1.0389842270676132e+01  1.0367619238635504e+01  1.0415164671629752e+01  1.0406117866272897e+01  1.0420813581741564e+01  1.0354732577393166e+01  1.0378407531506898e+01  1.0376399223116099e+01  1.0292932523405213e+01  1.0322086780598532e+01  1.0333623152826688e+01  1.0323161168638554e+01  1.0282703824080219e+01  1.0286231720372637e+01  1.0394293544128347e+01  1.0424111124230413e+01  1.0422014034533632e+01  1.0495239445771544e+01  1.0461664106388463e+01  1.0431634652164870e+01  1.0490667237922043e+01  1.0457846453928749e+01  1.0423164971503894e+01  1.0496997624728856e+01  1.0445652318508674e+01  1.0390083243569082e+01  1.0321794000439709e+01  1.0357861868406612e+01  1.0323855014716617e+01  1.0321720619003282e+01  1.0355427732104037e+01  1.0332482401682137e+01  1.0362771286659026e+01  1.0392756314680637e+01  1.0443449546753408e+01  1.0413895920790010e+01  1.0440904120830643e+01  1.0417386957876836e+01  1.0414216486883621e+01  1.0445163162544459e+01  1.0415094110743953e+01  1.0387546383954041e+01  1.0386862589625670e+01  1.0452902142168556e+01  1.0423123981595769e+01  1.0409734932233324e+01  1.0423689810531442e+01  1.0488009893617322e+01  1.0473114816457985e+01  1.0347431539644266e+01  1.0507292327372006e+01  1.0466696131921337e+01  1.0468268876961794e+01  1.0536516218167568e+01  1.0574636659885188e+01  1.0516830009545474e+01  1.0451178129094046e+01  1.0442091349767539e+01  1.0437587512132522e+01  1.0416480053827263e+01  1.0413141567657062e+01  1.0441139593998345e+01  1.0443861928749167e+01  1.0443115447186488e+01  1.0440037708850975e+01  1.0400943166802946e+01  1.0421814863375928e+01  1.0565679474045000e+01  1.0523464766436108e+01  1.0518120357758935e+01  1.0512276061531052e+01  1.0562958005729717e+01  1.0466032757619319e+01  1.0475141398703716e+01  1.0446876536343652e+01  1.0371096739234167e+01  1.0327688667236179e+01  1.0357131398730010e+01  1.0421784037088637e+01  1.0393040403139132e+01  1.0291139352189006e+01  1.0331949438799718e+01  1.0463900407199418e+01  1.0437839076900138e+01  1.0474245695571064e+01  1.0483342823414487e+01  1.0502080510077430e+01  1.0391567993992236e+01  1.0461333222793437e+01  1.0416665440814905e+01  1.0446516371145526e+01  1.0451243750559117e+01  1.0423968580697416e+01  1.0378163050219968e+01  1.0410904205593452e+01  1.0295862492956369e+01  1.0286620534783532e+01  1.0317585817105998e+01  1.0317490971368633e+01  1.0279347346063892e+01  1.0438785505504768e+01  1.0431141641182364e+01  1.0456959246412460e+01  1.0441005168034192e+01  1.0449133716591554e+01  1.0433875338039845e+01  1.0459468671680691e+01  1.0480557630258206e+01  1.0425234618563008e+01  1.0319397114137264e+01  1.0315343685691332e+01  1.0335738073161847e+01  1.0368220389266847e+01  1.0345615510603899e+01  1.0296997501866690e+01  1.0353126868532030e+01  1.0423946688225939e+01  1.0378667751870660e+01  1.0407677537460090e+01  1.0409303404040212e+01  1.0356763774497439e+01  1.0397795903636201e+01  1.0369090136327104e+01  1.0380159436731661e+01  1.0382296974119580e+01  1.0349514009752507e+01  1.0345725117045905e+01  1.0372909096917773e+01  1.0377082660698942e+01  1.0404840002111584e+01  1.0444320705299877e+01  1.0451950491495403e+01  1.0295244645320768e+01  1.0417914248226056e+01  1.0406382386643712e+01  1.0416417138724784e+01  1.0381423623132115e+01  1.0316857313713870e+01  1.0400531699441771e+01  1.0430335452870491e+01  1.0460820014859666e+01  1.0447426645030822e+01  1.0450082036617879e+01  1.0331901702447997e+01  1.0452077240125453e+01  1.0421122755687973e+01  1.0436592953600602e+01  1.0387603125079369e+01  1.0351250651003896e+01  1.0361225453144350e+01  1.0465118835781897e+01  1.0455309001858144e+01  1.0409767083379197e+01  1.0428620633990459e+01  1.0355039614163429e+01  1.0306413545616998e+01  1.0417849609213002e+01  1.0474704318519166e+01  1.0479486595462550e+01  1.0511085423443529e+01  1.0495634443785528e+01  1.0451380940231262e+01  1.0484659141593008e+01  1.0516076014107654e+01  1.0488896648465094e+01  1.0477251602245943e+01  1.0524289584143208e+01  1.0501859810855064e+01  1.0466460693760096e+01  1.0413425597800813e+01  1.0449205465847545e+01  1.0294325358037808e+01  1.0289440442357240e+01  1.0255762390120987e+01  1.0267257810200970e+01  1.0517813979793711e+01  1.0506917909614435e+01  1.0475325228166808e+01  1.0547615674650395e+01  1.0440281545107046e+01  1.0457277763957794e+01  1.0410810038837619e+01  1.0447739184745100e+01  1.0479865411239070e+01  1.0452743344307660e+01  1.0477149628480568e+01  1.0503829271627529e+01  1.0468216932779258e+01  1.0469644137088878e+01  1.0486964847688052e+01  1.0437471995740268e+01  1.0412652666644460e+01  1.0452501099551416e+01  1.0496801692737247e+01  1.0397352447388553e+01  1.0389420298739420e+01  1.0417396465788823e+01  1.0375548373820852e+01  1.0429128832422132e+01  1.0343045144791354e+01  1.0326112908693341e+01  1.0351505131415681e+01  1.0290364733686644e+01  1.0439396935701259e+01  1.0479143349300962e+01  1.0452248416322227e+01  1.0468671189760459e+01  1.0458542836135152e+01  1.0521672518112043e+01  1.0452753091896049e+01  1.0469907159390944e+01  1.0432955765648471e+01  1.0405147958243132e+01  1.0440962970685412e+01  1.0394605388422281e+01  1.0406761267824349e+01  1.0491545996098294e+01  1.0312832851740644e+01  1.0447130444393569e+01  1.0241876407550054e+01  1.0264405189971063e+01  1.0234291372102373e+01  1.0388564488938137e+01  1.0409962339772235e+01  1.0452999202536700e+01  1.0437019937996103e+01  1.0395166859676566e+01  1.0546079376559229e+01  1.0495740832506383e+01  1.0475662623246734e+01  1.0381192083861507e+01  1.0453483681240673e+01  1.0477757204711173e+01  1.0471938225397306e+01  1.0478259601785949e+01  1.0541736583811595e+01  1.0443418466344863e+01  1.0415063447855193e+01  1.0455252473164666e+01  1.0267911759637542e+01  1.0272573626640263e+01  1.0528221371045477e+01  1.0509840751892805e+01  1.0558878404580987e+01  1.0502112353550768e+01  1.0566175786338372e+01  1.0499829951848888e+01  1.0529764375256027e+01  1.0482365881789871e+01  1.0534926825908371e+01  1.0505441484651062e+01  1.0503834762093582e+01  1.0562839747871825e+01  1.0380344963241162e+01  1.0392114580608657e+01  1.0443570437626134e+01  1.0473764421297551e+01  1.0420583070525385e+01  1.0397409868416936e+01  1.0483491348964732e+01  1.0465549833494279e+01  1.0431449952691219e+01  1.0469637756820690e+01  1.0493195918006954e+01  1.0487759456721667e+01  1.0425882526890055e+01  1.0475724893354990e+01  1.0478171676532492e+01  1.0489256596838390e+01  1.0340541988497957e+01  1.0523697016063828e+01  1.0468625240588301e+01  1.0517487318287483e+01  1.0493057013535029e+01  1.0501497727555821e+01  1.0472734135402495e+01  1.0493746540912095e+01  1.0475934592611537e+01  1.0500854800636951e+01  1.0521003972099052e+01  1.0525675599433665e+01  1.0461782090430944e+01  1.0498820933716832e+01  1.0482300226997436e+01  1.0479718749382799e+01  1.0434647193397671e+01  1.0444430517218581e+01  1.0443369920580789e+01  1.0461383877175384e+01  1.0480400081690776e+01  1.0531995005367408e+01  1.0518912273655669e+01  1.0537828273769110e+01  1.0512567513437816e+01  1.0538524391259225e+01  1.0562420852120331e+01  1.0604329284558739e+01  1.0581458821278829e+01  1.0560893993542782e+01  1.0551378818748212e+01  1.0490878457589192e+01  1.0514287452141811e+01  1.0515139428368339e+01  1.0523087586971929e+01  1.0533013156164230e+01  1.0506911328441573e+01  1.0502101016850007e+01  1.0369971257153152e+01  1.0379459933647187e+01  1.0406046171903361e+01  1.0351209525819172e+01  1.0398968644328090e+01  1.0425012710279741e+01  1.0430626573716888e+01  1.0347142661215745e+01  1.0392106268312450e+01  1.0437029543420419e+01  1.0471425862673586e+01  1.0435454414298519e+01  1.0448317247775302e+01  1.0479567724324538e+01  1.0461451569299962e+01  1.0472615094216929e+01  1.0473356163948942e+01  1.0454594192050475e+01  1.0475663688426595e+01  1.0471036992103265e+01  1.0498415739643569e+01  1.0492654429885416e+01  1.0479914344620987e+01  1.0435923798561888e+01  1.0519407674409941e+01  1.0586660799348699e+01  1.0549266682754039e+01  1.0533171698103022e+01  1.0489087440235139e+01  1.0566267799837016e+01  1.0617900257549220e+01  1.0565499727402161e+01  1.0483479582738424e+01  1.0522389368058509e+01  1.0531065400781364e+01  1.0542387612539086e+01  1.0572690549663067e+01  1.0514173879525638e+01  1.0463508524346654e+01  1.0405333733290515e+01  1.0428761471343678e+01  1.0423741260938076e+01  1.0568417013439346e+01  1.0512874065567855e+01  1.0503510919820492e+01  1.0480143744911892e+01  1.0502559968254168e+01  1.0474323776398677e+01  1.0446906908812460e+01  1.0471699650686336e+01  1.0452049632877145e+01  1.0422235752368213e+01  1.0355986494180810e+01  1.0440751489211696e+01  1.0467370209635627e+01  1.0454640701954601e+01  1.0420026050681203e+01  1.0482841149845537e+01  1.0403592933312506e+01  1.0521221655491797e+01  1.0514468671142437e+01  1.0510765516617074e+01  1.0497530864497044e+01  1.0437244728205060e+01  1.0414627816782177e+01  1.0388555226622271e+01  1.0461761832383337e+01  1.0391607606045129e+01  1.0433373235259170e+01  1.0514136537228531e+01  1.0506769501895473e+01  1.0511352107720876e+01  1.0530631481280965e+01  1.0545308700182222e+01  1.0512331374577965e+01  1.0390625285184923e+01  1.0476065935978683e+01  1.0437062419770413e+01  1.0475802859144512e+01  1.0558596065365327e+01  1.0538495522886693e+01  1.0593906086809650e+01  1.0647269680317683e+01  1.0604363766797947e+01  1.0588383310666440e+01  1.0378285140101276e+01  1.0577082796496127e+01  1.0579213696146413e+01  1.0481551054468643e+01  1.0385263230073555e+01  1.0341081707717150e+01  1.0413743891845630e+01  1.0370159443492337e+01  1.0295733657359554e+01  1.0566409390132497e+01  1.0487820602235352e+01  1.0469491645428613e+01  1.0494339562695803e+01  1.0496778070110640e+01  1.0519311277158170e+01  1.0363157149128202e+01  1.0425080107327807e+01  1.0353765170580562e+01  1.0443858790503024e+01  1.0449280558298337e+01  1.0564956362350555e+01  1.0541790852276316e+01  1.0604152271157458e+01  1.0434906347037634e+01  1.0453946811329214e+01  1.0555404248708955e+01  1.0537863691915888e+01  1.0531305144080727e+01  1.0412237441232948e+01  1.0594623913614472e+01  1.0399513756815253e+01  1.0426073501117726e+01  1.0368925157787693e+01  1.0385313816747171e+01  1.0393676919635352e+01  1.0526183622472685e+01  1.0537594345900350e+01  1.0524549896723640e+01  1.0521205535498375e+01  1.0596892348179512e+01  1.0596215893841325e+01  1.0593021548471429e+01  1.0599573085402888e+01  1.0593722945506370e+01  1.0589912062138183e+01  1.0587512203356816e+01  1.0603863519843305e+01  1.0597820231944612e+01  1.0588677254621315e+01  1.0595580515935955e+01  1.0602626275019730e+01  1.0598351629179318e+01  1.0605613779758601e+01  1.0602004263609103e+01  1.0606757474160679e+01  1.0588998400448274e+01  1.0593524180807647e+01  1.0588447339157272e+01  1.0588130569482626e+01  1.0591146957459523e+01  1.0594533523342635e+01  1.0591602999982138e+01  1.0599094461512697e+01  1.0597860471671774e+01  1.0603027541501431e+01  1.0598431117031444e+01  1.0596071248613097e+01  1.0594072131215784e+01  1.0604445132839473e+01  1.0590326433692503e+01  1.0596115312339730e+01  1.0607413089476902e+01  1.0606446943340638e+01  1.0609182503570647e+01  1.1390501223819644e+01  1.1406047091243433e+01  1.1410984568924643e+01  1.1397870735781849e+01  1.1396758930139722e+01  1.1427515018040062e+01  1.1410066742621948e+01  1.1411094675597468e+01  1.1430570384745982e+01  1.1419449432770081e+01  1.1474578949765275e+01  1.1438732869251943e+01  1.1428103822866330e+01  1.1444417338688391e+01  1.1466888472923122e+01  1.1457127680854814e+01  1.1437812883230626e+01  1.1451480480101116e+01  1.1461682653801827e+01  1.1417522866414737e+01  1.1309233534135590e+01  1.1298251415053647e+01  1.1311566619639802e+01  1.1300959300872748e+01  1.1301720844131909e+01  1.1293407403310274e+01  1.1300045087006868e+01  1.1292369912875841e+01  1.1287665157851549e+01  1.1311980504535413e+01  1.0991340594982898e+01  1.0976138759586371e+01  1.0988494225496373e+01  1.0970760834645354e+01  1.0978043919896576e+01  1.0967359703180140e+01  1.0960313695756419e+01  1.0952349697954503e+01  1.0965415535978027e+01  1.0980929844754549e+01  1.0808264993093937e+01  1.0789612026898460e+01  1.0809149439531179e+01  1.0805689680721022e+01  1.0811925011554518e+01  1.0792534711030090e+01  1.0814774951420102e+01  1.0797453500602593e+01  1.0770843747879605e+01  1.0806593765580995e+01  1.0907077734285396e+01  1.0902108536159298e+01  1.0928771291218270e+01  1.0913116867163092e+01  1.0918429316235230e+01  1.0930000008479858e+01  1.0907436725080887e+01  1.0934625879497879e+01  1.0949441528342311e+01  1.0907156327949675e+01  1.0694336074113510e+01  1.0693579961866536e+01  1.0694753061105608e+01  1.0690901977489416e+01  1.0698397431264935e+01  1.0702981110236228e+01  1.0696088811929037e+01  1.0687239368643819e+01  1.0692197832096124e+01  1.0694561826744435e+01  1.1291143870836642e+01  1.1283374154456965e+01  1.1265817319430651e+01  1.1289869201361661e+01  1.1271542070812179e+01  1.1283829475838838e+01  1.1248560825193067e+01  1.1267610050604789e+01  1.1281017386726678e+01  1.1286651124416920e+01  1.1441308791371839e+01  1.1424116728890075e+01  1.1423846933834703e+01  1.1412157846862563e+01  1.1440634882573498e+01  1.1440450588316965e+01  1.1397956292746064e+01  1.1411304240922885e+01  1.1382576738006309e+01  1.1407485816553201e+01  1.0866927057104492e+01  1.0864001511236317e+01  1.0865202425636271e+01  1.0864269488337632e+01  1.0862468545693359e+01  1.0862441572662506e+01  1.0863574965353580e+01  1.0864361434670311e+01  1.0863413804544605e+01  1.0862397815730347e+01  1.0981559923453393e+01  1.0965771717808124e+01  1.0962506612362025e+01  1.0983067091191604e+01  1.0965712421851828e+01  1.0952812875089236e+01  1.0950339735334222e+01  1.0985410532548595e+01  1.0963749529007600e+01  1.0948206116240764e+01  1.1286692286342214e+01  1.1290181498730052e+01  1.1268869533015804e+01  1.1298199465560288e+01  1.1307538912269301e+01  1.1308911641528899e+01  1.1280659257339902e+01  1.1317562941652930e+01  1.1326842244904203e+01  1.1251792842580349e+01  1.0817271196549250e+01  1.0819929845654034e+01  1.0821867463395559e+01  1.0827836144540251e+01  1.1168440603709252e+01  1.1142198625909803e+01  1.1163778277753110e+01  1.1132031445261426e+01  1.1176888270794475e+01  1.1153431616438530e+01  1.1137757873366922e+01  1.1117684367659031e+01  1.1184056605884372e+01  1.1100158480395974e+01  1.1073294005598001e+01  1.1072194687612486e+01  1.1065275409346770e+01  1.1088969206249541e+01  1.1058273088779034e+01  1.1053085844221533e+01  1.1035566012271412e+01  1.1039852532058816e+01  1.1044992572894872e+01  1.1129427581157026e+01  1.1171474575595246e+01  1.1200133618776198e+01  1.1154186480050395e+01  1.1212170377303371e+01  1.1148830954735436e+01  1.1186881217623355e+01  1.1237317816689615e+01  1.1178345781350192e+01  1.1171039324797491e+01  1.0826814683849037e+01  1.0790991282399020e+01  1.0815011651684504e+01  1.0796176696553328e+01  1.0756988272455873e+01  1.0750286796502907e+01  1.0784136134519480e+01  1.0780462295574548e+01  1.0746677677354105e+01  1.0927777194022656e+01  1.0904700422182991e+01  1.0919900196222569e+01  1.0917533426470795e+01  1.0913164561641173e+01  1.0908297088206467e+01  1.0906258437195028e+01  1.0906156341822390e+01  1.0903349413363610e+01  1.0907908134410174e+01  1.1088166783351069e+01  1.1073794147763714e+01  1.1064240963080680e+01  1.1083654895802537e+01  1.1056907085609273e+01  1.1078198166136259e+01  1.1069527869944263e+01  1.1041937021413375e+01  1.1064166869912009e+01  1.1083878157662049e+01  1.0764868502500681e+01  1.0786359805489406e+01  1.0783544812027406e+01  1.0802012575889664e+01  1.0845887010697314e+01  1.0823441949795004e+01  1.0823406283007682e+01  1.0804596999207284e+01  1.0806080854341561e+01  1.0805611090468883e+01  1.1260464819402824e+01  1.1304171058008912e+01  1.1272476604369334e+01  1.1287228270998444e+01  1.1290307275147478e+01  1.1318234668011540e+01  1.1318283598931584e+01  1.1318129141471962e+01  1.1303374954080217e+01  1.1288489166455630e+01  1.0897628164057537e+01  1.0898295287353758e+01  1.0897228221760171e+01  1.0884454068490269e+01  1.0908405134321624e+01  1.0919148162173197e+01  1.0909051327229799e+01  1.0869298151078011e+01  1.0886750735283886e+01  1.0899400242622885e+01  1.0956404797040877e+01  1.0999005992615707e+01  1.0974993035929730e+01  1.0978035394454594e+01  1.0978988269477497e+01  1.1000633867644396e+01  1.0998351577268503e+01  1.1002706781067555e+01  1.1002823170467286e+01  1.0994695221801852e+01  1.1417776918180152e+01  1.1438352239225386e+01  1.1428348387100876e+01  1.1409902089496136e+01  1.1425706433236204e+01  1.1433256513508493e+01  1.1424605461442352e+01  1.1421679815301832e+01  1.1407900814229970e+01  1.1441115202077270e+01  1.1340517468292504e+01  1.1372101628020904e+01  1.1358197786487651e+01  1.1362274537646716e+01  1.1381933732550467e+01  1.1395229375834893e+01  1.1383389208618357e+01  1.1378352157352376e+01  1.1391606210287488e+01  1.1186253419559781e+01  1.1170433009043407e+01  1.1195084835243973e+01  1.1169073152646192e+01  1.1190669106934138e+01  1.1194736102632422e+01  1.1203896993519349e+01  1.1173993985400752e+01  1.1187004842059460e+01  1.1153329815609737e+01  1.1116361185937016e+01  1.1126071732419666e+01  1.1083566770969382e+01  1.1102616118016911e+01  1.1093179318049007e+01  1.1146523957295219e+01  1.1071406159160137e+01  1.1114973832194783e+01  1.1168261462445091e+01  1.1089000680588542e+01  1.0996586837322450e+01  1.0998193984810365e+01  1.0996937512705161e+01  1.1014404910230084e+01  1.0982476021716916e+01  1.1013460713873041e+01  1.1035372604681628e+01  1.1034395662741307e+01  1.0963244772166101e+01  1.1066434011586207e+01  1.1021202269920339e+01  1.1046180170928832e+01  1.1034909943167783e+01  1.1033558702349312e+01  1.1009369114949589e+01  1.1021841162581966e+01  1.1010719482434817e+01  1.1009052717643758e+01  1.1029669179971394e+01  1.1003248835598381e+01  1.0994854594805838e+01  1.1005863710630381e+01  1.1002600868758730e+01  1.1008573160587002e+01  1.0998232023518321e+01  1.1010381275045042e+01  1.0996730838863851e+01  1.0983369311956711e+01  1.1003341966882092e+01  1.1085677474871064e+01  1.1101625949346614e+01  1.1092457728143188e+01  1.1090222663539127e+01  1.1091481521291689e+01  1.1095587509279724e+01  1.1092983524961728e+01  1.1097281321289245e+01  1.1103383866849596e+01  1.1094620461599959e+01  1.1430212096205066e+01  1.1411166443612041e+01  1.1431430573423054e+01  1.1409208891838032e+01  1.1387343779985891e+01  1.1415178517457255e+01  1.1391102970744706e+01  1.1410431361877597e+01  1.1392840116216862e+01  1.1130010524655230e+01  1.1130277959145083e+01  1.1130816058249927e+01  1.1159591846129402e+01  1.1103344729916399e+01  1.1086427379355019e+01  1.1109760290887378e+01  1.1177155545141328e+01  1.1152595654876915e+01  1.1131974390224325e+01  1.1049269450089801e+01  1.1068610617672288e+01  1.1085218226011706e+01  1.1076703236576364e+01  1.1054700033537985e+01  1.1043681798949162e+01  1.1062719136104734e+01  1.1049798396100975e+01  1.1107510058214686e+01  1