<?xml version="1.0"?>
<VTKFile type="UnstructuredGrid"  version="0.1"  >
<UnstructuredGrid>
<Piece  NumberOfPoints="10642" NumberOfCells="47670">
<Points>
<DataArray  type="Float64"  NumberOfComponents="3"  format="ascii">24.44352871694318 20.6821797736875 25.97174949861117  23.70737684980806 20.59273712833486 27.78754175412885  24.65008326060108 20.23038117096273 27.2137903089925  24.55090253176178 21.05051473913333 27.1503472305528  23.60000303498947 20.22440216288904 26.60894402218723  22.75647735303576 19.76662455209058 27.24613854576328  25.30626968656867 20.49675231243361 26.67690368429215  22.953989 19.509655 25.47138  23.73299923990358 19.36539853424762 26.93495398607906  22.85523317651788 19.63813977604529 26.35875927288164  23.83175506338569 19.23691375820233 26.04757471319742  23.69875885847159 20.09591738684375 25.72156474930559  24.70952112677139 18.96417251640467 26.62376942639483  24.57652492185728 19.82317614504608 26.297759462503  21.20002 18.623646 26.714138  21.98095449530589 19.01207279088131 27.68201490898311  21.97824867651788 19.19513527604529 26.98013827288164  21.95808181699889 18.48092413501679 27.07841808151758  21.20272581878801 18.44058351483602 27.41601463610147  22.71614363399778 18.33820227003357 27.44269816303515  22.73631049351677 19.05241341106207 27.34441835439922  21.9607876357869 18.29786164985281 27.78029471761904  21.20543163757602 18.25752102967204 28.11789127220294  22.040182 17.956004 26.785778  21.786702 18.5493955 26.5590895  21.4535 18.0302545 26.9408265  21.70698 17.436863 27.167515  22.21156181699889 17.88753263501678 27.30510658151758  22.373384 18.475145 26.404041  22.54476381699889 18.40667363501678 26.92336958151758  26.736866 21.040951 26.089249  25.958663 20.5444355 25.3531705  25.59019735847159 20.86156538684375 26.03049924930558  26.2344445 21.163703 25.6037325  26.185303 19.802416 25.588125  25.31441585847159 20.24229788684375 25.77993724930559  25.732023 21.286455 25.118216  25.08777585847159 20.98431738684375 25.54498274930559  24.151369 19.276775 25.07011  24.03448385847159 20.55246788684375 25.17698724930559  24.3146985 20.2654455 24.571125  24.5776635 19.692455 24.9150675  24.29744885847159 19.97947738684375 25.52092974930559  23.888404 19.8497655 24.7261675  23.625439 20.422756 24.382225  25.003958 20.108135 24.760025  24.72374335847159 20.39515738684375 25.36588724930559  23.289714 19.9662055 24.9268025  23.552679 19.393215 25.270745  25.5946305 19.9552755 25.174075  25.3679905 20.697295 24.9391205  21.45620581878801 17.84719201483602 27.64270313610147  21.526005 16.40465 31.012611  20.91767030374441 16.69914996957045 30.2780968975542  21.49121780374441 16.91676946957045 30.5493138975542  21.22891206503331 16.31682835231813 30.22218521894563  20.9524575 16.1870305 30.741394  20.37891 15.969411 30.470177  20.65536456503331 16.09920885231812 29.95096821894563  20.93181913006662 16.22900670463625 29.43175943789126  21.19412486877772 16.82894782188857 29.75888811649983  21.45643060748882 17.42888893914089 30.0860167951084  24.85673956338569 19.53615375820233 25.69189721319741  21.376362 17.403259 31.38242  22.08091215387096 17.17193849827526 30.60909925216286  21.41639630374441 17.41607396957044 30.7342183975542  21.69728300129218 17.86365246919758 31.00649733144833  21.490386 19.1695975 26.3424785  21.780752 19.715549 25.970819  22.26861467651788 19.74108677604529 26.60847877288164  22.077068 19.095347 26.18743  22.56493067651788 19.12088477604529 26.82508977288164  22.47897084836976 19.52558736654446 29.22931968760057  22.61772410070276 19.64610595931752 28.23772911668193  22.59755724118377 18.93189481828902 28.33600892531786  21.84220124297289 18.89155419810825 28.67360547990176  25.98696319564174 21.62927788922477 26.30799561681008  24.84029455411333 21.44989227606852 26.24924586611566  25.48454169564174 21.75202988922478 25.82247911681007  25.23706039128348 22.21760477844955 26.52674223362015  23.07243267651788 19.06634127604529 26.56704677288164  23.7698785 18.8214165 25.4790325  23.1711885 18.9378565 25.6796675  26.501917 22.259909 25.925138  25.86948869564174 22.23875688922477 26.22594011681007  26.11697 21.773182 25.521677  26.6193915 21.65043 26.0071935  25.70303552373881 21.26446481481463 26.95440005179664  21.0233 18.343758 31.709276  22.0415154180733 18.00456442646558 31.5207773620509  21.52075200129219 18.33390196919758 31.16992533144833  21.199831 17.8735085 31.545848  22.01820400258437 18.32404593839515 30.63057466289666  22.6636865 18.9924 25.9377105  22.3673705 19.612602 25.7210995  25.254637 19.385973 24.872013  22.33609151201718 18.48086233851332 28.93871698585165  21.69932190662031 17.84682917007711 28.38300277815284  21.424265 15.811207 30.545432  20.8507175 15.5935875 30.274215  21.95009608783231 17.43650015524109 27.90781464205136  20.57072006503331 15.73678135231812 29.50683421894563  20.2942655 15.6069835 30.026043  20.209621 15.244556 29.581909  8.903791 13.766276 25.807167  9.80250945153346 12.73875345352814 25.72068285794494  9.871987008064302 13.56038974916716 25.10322536036371  9.85383095153346 13.22002145352814 26.18775335794493  8.8524695 13.285008 25.3400965  9.923308508064302 14.04165774916716 25.57029586036371  8.801148 12.80374 24.873026  10.94282601612861 14.31703949833432 25.33342472072741  10.87334845959776 13.4954032026953 25.95088221830864  10.80387090306692 12.67376690705629 26.56833971588987  13.293926 12.172877 29.086496  13.97886743393092 11.26403514287941 28.42629903184563  13.99988199158206 11.64446789105632 28.82477375864664  13.44318267333473 11.38008443158978 29.04909723606148  13.82961076059619 12.05682771128963 28.46369779578414  14.36529552119238 11.94077842257926 27.84089959156828  14.53556675217825 11.52841860234595 28.20197555443078  13.59243934666945 10.58729186317956 29.01169847212297  14.14913866491678 10.8516753226461 28.78737499470812  14.70583798316412 11.11605878211264 28.56305151729327  21.810747 24.287546 22.735807  22.45952593057848 23.54476977027515 22.43261260708679  22.08101743057848 23.70851377027515 23.02175160708678  22.474387 23.878562 22.662054  22.1892555 24.123802 22.146668  23.138027 23.469578 22.588301  22.74465743057848 23.29952977027515 22.94799860708679  22.8528955 23.714818 22.072915  22.567764 23.960058 21.557529  22.35128786115696 23.12948154055029 23.30769621417357  17.918261 28.465628 23.935816  17.49929593366764 29.2061215849661 23.76596752038591  17.942216 28.960745 23.632223  17.156211 28.54676 23.377221  16.394161 28.627892 22.818626  16.73724593366764 29.2872535849661 23.20737252038591  17.180166 29.041877 23.073628  17.966171 29.455862 23.32863  17.52325093366764 29.7012385849661 23.46237452038591  17.08033086733528 29.9466151699322 23.59611904077181  19.464651 19.332262 29.539555  19.91345502308979 18.98737446832306 28.18507015896473  19.14514627155495 19.47730016214505 28.68132739922004  19.4153177606869 18.76697487539638 28.98864227915377  19.9627882624029 19.55266159292668 28.73598287981096  20.46092552480579 19.77306118585335 27.93241075962192  19.64328353395785 19.69769975507172 27.877755279031  19.36598452137379 18.20168775079276 28.43772955830755  19.09581303224184 18.91201303754143 28.13041467837381  18.8256415431099 19.62233832429009 27.82309979844007  10.066184 28.292248 30.206795  9.866668428815512 27.98780471386584 29.22253586090213  9.794241194419563 27.48146432621342 29.50572940001743  10.47900942881551 28.17152821386584 29.56002536090214  9.453842999999999 28.1085245 29.8693055  8.841502 27.924801 29.531816  9.181900194419562 27.29774082621341 29.16823990001743  10.89183485763102 28.05080842773168 28.91325572180427  10.20706662323507 27.36074454007926 28.85895976091957  9.522298388839125 26.67068065242683 28.80466380003486  12.61123536347889 3.449115483509672 28.14039706016501  11.47754206849508 4.194765281730717 29.14333674434047  11.73921524913431 3.339614689586266 28.37014020929733  11.85440485361898 4.249643468636886 28.27839559438921  12.23437257835498 3.394237296603503 29.00533821011627  11.85750979323108 3.339359109697335 29.87027936006752  11.36235246401041 3.284736502680097 29.23508135924859  11.09757434375908 5.050171453764099 28.4163941286134  10.9823847392744 4.14014267471348 28.50813874352153  10.86719513478973 3.23011389566286 28.59988335842965  15.720938 19.419333 23.770964  14.9884767269135 19.73348933384104 24.53892307282845  15.06731521249455 19.72335565345032 23.70381167688173  15.52346785836974 19.89097577781597 24.228759151561  15.18594686854376 19.26184655602506 24.08112792126744  14.65095573708752 19.10436011205012 24.39129184253489  14.53232408103831 19.56586920947538 24.01397559814918  15.32599771673948 20.36261855563195 24.686554303122  14.86984507086429 20.19499843126629 24.16160682844274  14.4136924249891 20.02737830690064 23.63665935376347  20.894329 24.810249 23.661438  21.57381132892421 23.97048588215322 23.46768057092416  20.91051732892421 24.10765888215322 23.43619707092416  21.1156023289242 24.23183738215322 23.93049607092416  21.352538 24.5488975 23.1986225  20.689244 24.6860705 23.167139  20.484159 24.561892 22.67284  21.147453 24.424719 22.7043235  21.33687565784841 23.65342576430645 24.19955414184831  14.602909 1.700656 22.148003  13.10310440923054 1.767820187516975 22.14358401207469  13.59589529822894 1.136871268710176 22.52681367414853  14.02135179822894 1.758038768710176 22.64963067414853  14.1774525 1.0794885 22.025186  13.68466161100159 1.710437418806799 21.64195633792616  13.751996 0.458321 21.902369  13.2592051110016 1.089269918806799 21.51913933792616  12.76641422200319 1.720218837613599 21.13590967585233  13.43979459645788 1.815421537420351 23.15125834829706  7.076163 22.611851 26.891479  6.738249359676363 21.49150604760086 26.92722830021657  7.296947359676364 21.69546854760086 27.02274830021657  6.876170500000001 21.991087 26.418656  6.517465 22.4078885 26.795959  5.958767 22.203926 26.700439  6.3174725 21.7871245 26.323136  6.676178 21.370323 25.945833  7.096954859676364 21.07470454760086 26.549
[...]
<PointData  Scalars="p"> 
<DataArray  type="Float64"  Name="p"  format="ascii">1.0021138000834581e+01  1.0010900395926834e+01  9.9965473809569705e+00  1.0007234757485779e+01  1.0025288118083042e+01  1.0036548257414026e+01  9.9957934655819614e+00  1.0035407090916694e+01  1.0007561238736782e+01  1.0037898271636013e+01  1.0007552376479234e+01  1.0029170455350577e+01  9.9833568264985839e+00  1.0002019628221587e+01  1.0090839739701089e+01  1.0053846559520423e+01  1.0059912650006874e+01  1.0051834447067870e+01  1.0088882566318894e+01  1.0020025490618075e+01  1.0028599512138660e+01  1.0047922524817142e+01  1.0082674990408163e+01  1.0038509466301505e+01  1.0058683259180837e+01  1.0070249021874350e+01  1.0048366666496277e+01  1.0032763823919224e+01  1.0032702547337802e+01  1.0027330422226587e+01  9.9917263386776973e+00  1.0002933643920278e+01  1.0004183013558665e+01  1.0004467673668129e+01  9.9852292072739015e+00  1.0001904676564019e+01  1.0020211016715336e+01  1.0019936367242128e+01  1.0006538595194804e+01  1.0036542920636611e+01  1.0033922048808133e+01  1.0010349191084520e+01  1.0016685461861211e+01  1.0030281168287443e+01  1.0052310926161326e+01  1.0015396461211536e+01  1.0018737525764802e+01  1.0041136214431170e+01  1.0020755170580637e+01  9.9979515476124714e+00  1.0019929220393914e+01  1.0069232817236102e+01  9.9987708384967249e+00  1.0065082635672301e+01  1.0018096279708757e+01  1.0044919610389574e+01  1.0053764398484336e+01  1.0109488605627384e+01  1.0089793027228520e+01  1.0074915111927721e+01  1.0056500965010240e+01  1.0032626669115349e+01  9.9956238394606256e+00  9.9757274062170218e+00  9.9857025700030846e+00  1.0012244495287401e+01  9.9832078566931290e+00  1.0080834479803030e+01  1.0074772057110998e+01  1.0056911385562957e+01  1.0053711930421944e+01  1.0037567483622389e+01  1.0011763364380187e+01  1.0027464493912635e+01  1.0022172845953119e+01  1.0045894478290235e+01  1.0002728047824119e+01  1.0019513117311691e+01  1.0018320965236802e+01  1.0014930417316737e+01  1.0021678176325901e+01  1.0000110214565460e+01  1.0017179347518983e+01  1.0005807307789382e+01  1.0010201544530160e+01  1.0013221619182680e+01  9.9987979915953851e+00  9.9939941575642841e+00  9.9575158607974004e+00  9.9473304597759071e+00  9.9796971631158211e+00  9.9696544651314074e+00  9.9855968851862613e+00  1.0031672389347886e+01  1.0052165587265517e+01  9.9896297968209993e+00  1.0019630650803922e+01  1.0052037071282555e+01  1.0024938362986411e+01  1.0065098626314031e+01  1.0038512258800047e+01  1.0095110981861154e+01  1.0118527244372984e+01  1.0119217271750994e+01  1.0754565385381040e+01  1.0748271209985289e+01  1.0767273782564295e+01  1.0735790697195519e+01  1.0774459729054231e+01  1.0749658737132304e+01  1.0811769569949856e+01  1.0722680778075492e+01  1.0715681836740172e+01  1.0704148756650401e+01  1.0608447445301962e+01  1.0594126813391911e+01  1.0593513252884021e+01  1.0602327567201746e+01  1.0597527252945206e+01  1.0587070237436349e+01  1.0583627846775270e+01  1.0594671487865307e+01  1.0588952245333164e+01  1.0581250681456995e+01  1.0188278604689661e+01  1.0182158798867075e+01  1.0170168776041157e+01  1.0173097977691214e+01  1.0202876176286919e+01  1.0156680538868706e+01  1.0153220287569090e+01  1.0190439947864942e+01  1.0213476137681493e+01  1.0151123853782556e+01  1.0230384880976093e+01  1.0222022480667167e+01  1.0226659357941902e+01  1.0236123308543608e+01  1.0239520605724239e+01  1.0224675261429542e+01  1.0229668518481130e+01  1.0221553081943107e+01  1.0217226301796840e+01  1.0213565360934085e+01  1.0151590971321262e+01  1.0155909586351061e+01  1.0187232988521004e+01  1.0174082958503254e+01  1.0137461300728937e+01  1.0124874323318798e+01  1.0170520873998536e+01  1.0195532068035554e+01  1.0208161196011753e+01  1.0218864873211560e+01  1.0894550431203919e+01  1.0895646946548574e+01  1.0890699716109358e+01  1.0894645652173109e+01  1.0895560247265852e+01  1.0895159509178640e+01  1.0890368368653693e+01  1.0891493341041681e+01  1.0888040465256918e+01  1.0885179562410329e+01  1.0573086206799045e+01  1.0572499755560179e+01  1.0584091042294146e+01  1.0582552181139620e+01  1.0563507838502712e+01  1.0555505873378934e+01  1.0572450021559499e+01  1.0588415775408452e+01  1.0588281352601793e+01  1.0589864194891181e+01  1.0484510115122282e+01  1.0491867467316954e+01  1.0496308197351308e+01  1.0467004039112442e+01  1.0503894109658178e+01  1.0529194706406805e+01  1.0523103094566681e+01  1.0453100614389147e+01  1.0487943452936410e+01  1.0514254107429378e+01  1.0185661233558477e+01  1.0171143079269747e+01  1.0192718769830362e+01  1.0173452645257658e+01  1.0183527395557654e+01  1.0206855130815548e+01  1.0228730091490297e+01  1.0208342182761168e+01  1.0159667432015986e+01  1.0744851797333068e+01  1.0775499577093136e+01  1.0758156875061916e+01  1.0733071277214533e+01  1.0767672825050727e+01  1.0780387178105721e+01  1.0782271203839006e+01  1.0801111155029796e+01  1.0822187357626373e+01  1.0727831974054123e+01  1.0970223473511867e+01  1.0986260454559295e+01  1.0959185974879446e+01  1.0969958191773843e+01  1.1008098509846022e+01  1.1048439144175793e+01  1.1006838381335402e+01  1.0963320838098058e+01  1.0955584725723007e+01  1.0940630654029620e+01  1.0500083141385318e+01  1.0541303328294847e+01  1.0547370059288518e+01  1.0538194319091241e+01  1.0498838939207685e+01  1.0499523291566593e+01  1.0532763924060701e+01  1.0566241651498640e+01  1.0578098849859520e+01  1.0588230644084049e+01  1.1325557233890146e+01  1.1330662885279056e+01  1.1326877023000829e+01  1.1319395244387797e+01  1.1336607459098476e+01  1.1356568931091557e+01  1.1343539632854132e+01  1.1308206585890511e+01  1.1313027746832816e+01  1.1322157281924154e+01  1.0071828071486591e+01  1.0067235104822064e+01  1.0058322216779651e+01  1.0057677929994368e+01  1.0084002519180460e+01  1.0070577986617625e+01  1.0065963402035482e+01  1.0082614404293611e+01  1.0090291018998096e+01  1.0045555368626180e+01  1.0299593677367788e+01  1.0243710867482672e+01  1.0247898173573416e+01  1.0247369553409143e+01  1.0298169729498380e+01  1.0296335843254337e+01  1.0244488994820708e+01  1.0196100324874765e+01  1.0197740814516019e+01  1.0824427708738206e+01  1.0804395601974614e+01  1.0788190733077112e+01  1.0814857300449717e+01  1.0807739101332823e+01  1.0769087403130387e+01  1.0795888879240499e+01  1.0776534827648504e+01  1.0743725744164914e+01  1.0791909067407104e+01  1.0590320341912490e+01  1.0601732704743322e+01  1.0602105659379870e+01  1.0602350293403335e+01  1.0589821044687278e+01  1.0587638432802635e+01  1.0601858126041144e+01  1.0625089391813042e+01  1.0619772235886513e+01  1.0614145942304667e+01  1.0849989039185619e+01  1.0839739783503555e+01  1.0835530752267301e+01  1.0819153664638872e+01  1.0852699626956726e+01  1.0780588249197272e+01  1.0805306056992881e+01  1.0818861368843823e+01  1.0855893886077476e+01  1.0825963007563697e+01  1.0309155598799407e+01  1.0334465895618834e+01  1.0345886875633935e+01  1.0316621825699698e+01  1.0303428579253332e+01  1.0317319683418701e+01  1.0346547559933073e+01  1.0306345665900210e+01  1.0294901276186868e+01  1.0379556580579200e+01  1.0613032086915164e+01  1.0602551829140493e+01  1.0595158808559733e+01  1.0598020322733996e+01  1.0582638143100779e+01  1.0589891114885033e+01  1.0584593156728852e+01  1.0580167524870875e+01  1.0587998534639926e+01  1.0622165401583821e+01  1.0612758457276092e+01  1.0642024172079713e+01  1.0600416106366735e+01  1.0637231619247357e+01  1.0660906859546442e+01  1.0657027945077541e+01  1.0579898059382511e+01  1.0616828330024902e+01  1.0645984846843097e+01  1.0554664342998962e+01  1.0576914619403315e+01  1.0553191209825147e+01  1.0541554026993534e+01  1.0604639911532443e+01  1.0593605529969288e+01  1.0564575622237784e+01  1.0576033717339595e+01  1.0641544414313046e+01  1.0528782078228767e+01  1.0274539845493292e+01  1.0318339054975420e+01  1.0283816123477862e+01  1.0293589680084390e+01  1.0305444429269569e+01  1.0305004345661095e+01  1.0331289014445355e+01  1.0344869601442559e+01  1.0292994238158940e+01  1.0173482223085717e+01  1.0186190873502417e+01  1.0173008477616044e+01  1.0168772574748044e+01  1.0179307920026112e+01  1.0179003915127918e+01  1.0185656681270407e+01  1.0161737411487557e+01  1.0175075242635909e+01  1.0187173687873425e+01  1.0108597067290139e+01  1.0096593444511134e+01  1.0139211251126763e+01  1.0094683821111511e+01  1.0122114856005135e+01  1.0121277135401732e+01  1.0136942700551593e+01  1.0067426113025830e+01  1.0151308198685111e+01  1.0818500562514576e+01  1.0800852653168302e+01  1.0798045454969127e+01  1.0821776702870670e+01  1.0823565902928934e+01  1.0802231917962647e+01  1.0800481242932355e+01  1.0779192013374459e+01  1.0782093094319224e+01  1.0781857587990320e+01  1.0212709422279984e+01  1.0187919120290301e+01  1.0189500250874049e+01  1.0221384469021542e+01  1.0207624062957198e+01  1.0206372629261843e+01  1.0219326241431579e+01  1.0225965575955609e+01  1.0197865592077489e+01  1.0168152980263299e+01  1.0471790995610414e+01  1.0544008702835608e+01  1.0498806190971180e+01  1.0517107079090509e+01  1.0518710080560000e+01  1.0559745212428219e+01  1.0560692715912120e+01  1.0547966413993063e+01  1.0788361712360649e+01  1.0791607652657074e+01  1.0767395716344545e+01  1.0802134912797898e+01  1.0779385878625636e+01  1.0771283005425765e+01  1.0758887227682493e+01  1.0817787370408487e+01  1.0785943511486730e+01  1.0752809391941947e+01  1.0899161662914642e+01  1.0906257504252451e+01  1.0903704640913762e+01  1.0889359786634374e+01  1.0915042827654050e+01  1.0918649938058477e+01  1.0933125358339774e+01  1.0936412925598018e+01  1.0877524440560329e+01  1.0940093685225865e+01  1.0264726314502560e+01  1.0311115303249526e+01  1.0265170599850594e+01  1.0281384042929702e+01  1.0294390636391103e+01  1.0327069656458212e+01  1.0277332185102855e+01  1.0294916168707378e+01  1.0261008132094519e+01  1.0137491445834035e+01  1.0116421797250222e+01  1.0123072416784673e+01  1.0135649921190089e+01  1.0117905097388611e+01  1.0099470504195732e+01  1.0120204137971054e+01  1.0104407574313877e+01  1.0134314934737329e+01  1.0106602142631676e+01  1.0183946759932070e+01  1.0158454176537337e+01  1.0165614671369916e+01  1.0182611648573763e+01  1.1330352015760241e+01  1.1325027875024674e+01  1.1345082059482824e+01  1.1325965977595445e+01  1.1354195222544774e+01  1.1329321330963836e+01  1.1370191090098208e+01  1.1351270136698123e+01  1.1327820160265990e+01  1.0880823091031228e+01  1.0883773183704760e+01  1.0898146190890754e+01  1.0860587516870247e+01  1.0842914112010757e+01  1.0898934362195073e+01  1.0868702095265203e+01  1.0883177474847587e+01  1.0913543755509135e+01  1.0891930614261883e+01  1.1207498097660459e+01  1.1190295334445352e+01  1.1193609112543255e+01  1.1153368526406020e+01  1.1110194822749188e+01  1.1148909968134713e+01  1.1154193392531198e+01  1.1190986966432538e+01  1.1184740596038298e+01  1.1177851854187393e+01  1.0215940307189072e+01  1.0189944544937152e+01  1.0202380659164810e+01  1.0207809558028261e+01  1.0201269060761076e+01  1.0197432643372096e+01  1.0196124774704327e+01  1.0191991413683994e+01  1.0192037635555350e+01  1.0573349236705464e+01  1.0571862167418040e+01  1.0557040513470875e+01  1.0566478350439096e+01  1.0579124634962776e+01  1.0569261974294024e+01  1.0564530908265398e+01  1.0554345579506744e+01  1.0583694360634503e+01  1.0560347100124368e+01  1.0521293360025759e+01  1.0529866012572851e+01  1.0536117745563210e+01  1.0515188028851201e+01  1.0516585164340670e+01  1.0526297846579391e+01  1.0532115078772478e+01  1.0549851742735777e+01  1.0543632693917893e+01  1.0537604936398022e+01  1.0586113943562829e+01  1.0595618520467584e+01  1.0586421060878225e+01  1.0572162428207134e+01  1.0569970955861077e+01  1.0592120193599468e+01  1.0605582905122587e+01  1.0615272472543774e+01  1.0620010904865477e+01  1.0431183070566139e+01  1.0428053780315929e+01  1.0410032199584453e+01  1.0420662079980271e+01  1.0423521341307652e+01  1.0819969726873193e+01  1.0821022035818846e+01  1.0798968361691124e+01  1.1210965767981506e+01  1.1230040611915248e+01  1.1234430659713468e+01  1.1238037424742044e+01  1.1236950353708707e+01  1.1201222795887107e+01  1.1197466543228700e+01  1.1267595306885545e+01  1.1259320436073443e+01  1.1254785349875560e+01  1.0532528653014841e+01  1.0557898664467979e+01  1.0545700115526687e+01  1.0544095572473283e+01  1.0547337827162384e+01  1.0563156973831283e+01  1.0559936219085428e+01  1.0554044814275269e+01  1.0555328258931466e+01  1.0556809487708030e+01  1.0677401477664324e+01  1.0697781342329355e+01  1.0695122902719890e+01  1.0677640493247690e+01  1.0696007980929592e+01  1.0676213496980099e+01  1.0678502975655567e+01  1.0680244237013133e+01  1.0712166234580627e+01  1.0679307333804648e+01  1.0890677839792119e+01  1.0888817540202691e+01  1.0859682495387112e+01  1.0863707173373662e+01  1.0850623698989100e+01  1.0875988365990901e+01  1.0850814590599207e+01  1.0843581369646584e+01  1.0871026708741358e+01  1.0897824139918898e+01  1.0344456509997617e+01  1.0319799139042024e+01  1.0364900191227726e+01  1.0347786945659161e+01  1.0350046907136139e+01  1.0320629083808207e+01  1.0366140219422254e+01  1.0382890719725888e+01  1.0337551371033030e+01  1.0879027112591059e+01  1.0853068741337314e+01  1.0848241996345175e+01  1.0891247685568619e+01  1.0895928184841617e+01  1.0852845237648635e+01  1.0852935583592295e+01  1.0822876266635184e+01  1.0823929167514089e+01  1.0821668279006033e+01  1.0173503636102621e+01  1.0182794205514963e+01  1.0188484051645705e+01  1.0182110448904929e+01  1.0176193632474176e+01  1.0178178179559072e+01  1.0183992795454071e+01  1.0193842761628535e+01  1.0186792100391283e+01  1.0177988746914520e+01  1.0805628682794756e+01  1.0797674571285871e+01  1.0806953779178471e+01  1.0790278094404261e+01  1.0774090204293911e+01  1.0798585484188633e+01  1.0782356811943298e+01  1.0791274575164708e+01  1.0810678512576212e+01  1.0788834501852985e+01  1.0538371047069445e+01  1.0546505131394845e+01  1.0544809244129651e+01  1.0534998249633661e+01  1.0946371083712792e+01  1.0944818896658356e+01  1.0909790050716682e+01  1.0940030586228893e+01  1.0939903558869544e+01  1.0911922471998695e+01  1.0885987974583394e+01  1.0912342397534157e+01  1.0941982829982928e+01  1.0076770833297584e+01  1.0108085189867937e+01  1.0073073204153564e+01  1.0078703358415417e+01  1.0116426740000481e+01  1.0086362847292008e+01  1.0116778061275763e+01  1.0078852782404107e+01  1.0069788881837322e+01  1.0481130624555657e+01  1.0419090980262297e+01  1.0423967321028409e+01  1.0469339874172919e+01  1.0465793494775843e+01  1.0427524093590351e+01  1.0427092728037367e+01  1.0385721884850604e+01  1.0385202275945495e+01  1.0164772175944552e+01  1.0123913279073198e+01  1.0123776685756525e+01  1.0120868058165584e+01  1.0168259978088026e+01  1.0169600414981423e+01  1.0171209053455048e+01  1.0170986255382878e+01  1.0062541150999616e+01  1.0173233054290204e+01  1.0879133315515837e+01  1.0877075490266767e+01  1.0879069929942576e+01  1.0880495053480546e+01  1.0875760164462886e+01  1.0877821210463068e+01  1.0877928597244198e+01  1.0875339862571758e+01  1.0871386205836551e+01  1.0882038691075394e+01  1.0165733381967852e+01  1.0179854134801875e+01  1.0158740930927181e+01  1.0171650590779787e+01  1.0186836653660208e+01  1.0211418334622588e+01  1.0200826139323146e+01  1.0190325760155766e+01  1.0167092847441207e+01  1.0541364320160749e+01  1.0569357117216107e+01  1.0555896046717141e+01  1.0560425625669989e+01  1.0552298620989525e+01  1.0580644300356015e+01  1.0575342561526885e+01  1.0575358892671790e+01  1.0567646293977102e+01  1.1032850115218883e+01  1.0997315869669462e+01  1.1031244428126522e+01  1.1038679558391937e+01  1.0988283310911800e+01  1.0952920090647661e+01  1.1003627069175025e+01  1.1048475574409592e+01  1.1040595521315181e+01  1.1030379302379178e+01  1.0755598673845341e+01  1.0728109835949944e+01  1.0748313100057697e+01  1.0775969080817184e+01  1.0762612526245192e+01  1.0694570511600988e+01  1.0729903229695763e+01  1.0797290440703563e+01  1.0789989520247619e+01  1.0795226318501896e+01  1.0819770609212066e+01  1.0763750869340774e+01  1.0729769338363566e+01  1.0768702977549514e+01  1.0816719650531413e+01  1.0795991173646678e+01  1.0802464747948155e+01  1.0781710722982019e+01  1.0795197157649062e+01  1.0787165204726683e+01  1.0790786115516189e+01  1.0768416839893243e+01  1.0777851564833059e+01  1.0772694131397959e+01  1.0772806324249736e+01  1.0594954327520485e+01  1.0592822761071705e+01  1.0593178441436764e+01  1.0595552367444418e+01  1.0591092285171680e+01  1.0586094310100323e+01  1.0595655316751035e+01  1.0587255923192002e+01  1.0596871479065546e+01  1.0740124878550800e+01  1.0768150397087508e+01  1.0736397118867973e+01  1.0752925878622751e+01  1.0773190082954283e+01  1.0764889529094633e+01  1.0749104770997304e+01  1.0783929254976119e+01  1.0805957319470661e+01  1.0731442257693532e+01  1.0918138661306715e+01  1.0928424207143133e+01  1.0955848230302040e+01  1.0920133230904035e+01  1.0115085143370985e+01  1.0102220183327983e+01  1.0074995654523185e+01  1.0121193302601876e+01  1.0091689336136957e+01  1.0091530432994343e+01  1.0074842764917570e+01  1.0064156583138800e+01  1.0093814538276488e+01  1.0124352660096509e+01  1.0887226643908686e+01  1.0887053929896542e+01  1.0890158941942683e+01  1.0887076187431004e+01  1.0886533033337741e+01  1.0886527799931146e+01  1.0889619785590241e+01  1.0508165568690250e+01  1.0452109948845333e+01  1.0485971140297481e+01  1.0477341056405653e+01  1.0487627826304211e+01  1.0463670261338271e+01  1.0460808216555010e+01  1.0439291213859592e+01  1.0451450987437152e+01  1.0461530356276857e+01  1.0760001220888666e+01  1.0750386710159537e+01  1.0724719656084336e+01  1.0744182710038739e+01  1.0714485215284043e+01  1.0722523129267099e+01  1.0731225232804327e+01  1.0706173402103348e+01  1.0680922986273947e+01  1.0753209718794784e+01  1.0845209442421552e+01  1.0876923551090977e+01  1.0876183520903217e+01  1.0877559753545018e+01  1.0836532505512920e+01  1.0840180560935751e+01  1.0882764704624201e+01  1.0905695135502960e+01  1.0913185065927751e+01  1.0926344250064400e+01  1.0574096645988323e+01  1.0595328547535706e+01  1.0591379922560460e+01  1.0603788062088315e+01  1.0559534765302717e+01  1.0570973193896803e+01  1.0546508451312627e+01  1.0556254964087715e+01  1.0634963177099106e+01  1.0566620097324243e+01  1.0857190844259467e+01  1.0833379094032024e+01  1.0848907928666982e+01  1.0857265140167959e+01  1.0837653799506739e+01  1.0816424228800784e+01  1.0826899695968118e+01  1.0859364434824034e+01  1.0849356714316183e+01  1.0838759107708780e+01  1.0064025350285831e+01  1.0059973331991094e+01  1.0039970399951820e+01  1.0051155127073331e+01  1.0056092698536254e+01  1.0031123300018077e+01  1.0059722570459080e+01  1.0694596605499513e+01  1.0709573785201229e+01  1.0722323771483374e+01  1.0736767913139360e+01  1.0679421705730757e+01  1.0668303051578221e+01  1.0662068311011431e+01  1.0654383745354481e+01  1.0653556240320826e+01  1.0766738560071129e+01  1.0454454159759862e+01  1.0439996382590346e+01  1.0443778510742781e+01  1.0430703658505553e+01  1.0408154488005014e+01  1.0417477808084636e+01  1.0429410936526322e+01  1.0804287219798805e+01  1.0768189458689426e+01  1.0787906720304429e+01  1.0842323561386285e+01  1.0822819953867452e+01  1.0822888716196811e+01  1.0798476571104006e+01  1.0688730179421691e+01  1.0651630516795644e+01  1.0658822332665441e+01  1.0659167581809234e+01  1.0679066223958761e+01  1.0673028672559996e+01  1.0636334449129407e+01  1.0654229354031411e+01  1.0635110375629951e+01  1.0632655076300683e+01  1.0077420896601300e+01  1.0075328690156342e+01  1.0101932240990360e+01  1.0103220972993553e+01  1.0763962340280182e+01  1.0819774611060460e+01  1.0788229539894715e+01  1.0807067369430422e+01  1.0769724821902919e+01  1.0773372295114763e+01  1.0794332309079200e+01  1.0897011370880470e+01  1.0839220444006145e+01  1.0808739745956961e+01  1.0620383904452963e+01  1.0654583912234225e+01  1.0648804184500564e+01  1.0645803530686374e+01  1.0628927892542311e+01  1.0634867484237013e+01  1.0671812025573127e+01  1