<?xml version="1.0"?>
<VTKFile type="UnstructuredGrid"  version="0.1"  >
<UnstructuredGrid>
<Piece  NumberOfPoints="10521" NumberOfCells="48843">
<Points>
<DataArray  type="Float64"  NumberOfComponents="3"  format="ascii">19.06287 21.609367 3.951834  19.708236 22.3334305 3.869888  19.563137 22.1408415 3.641231  19.7827055 21.676115 3.9100335  18.9884005 22.2666825 3.9116885  18.913931 22.923998 3.871543  19.4886675 22.798157 3.6010855  20.502541 21.742863 3.868233  20.2829725 22.2075895 3.5994305  20.063404 22.672316 3.330628  19.76158549650514 21.82580419144642 4.644901896745822  20.09220732186056 22.56997800654221 4.324434846527384  20.73623250619532 21.78265227904537 4.464718422412684  20.96992401239064 21.82244155809073 5.061203844825367  20.32589882805588 22.60976728558758 4.920920268940067  19.68187364372111 23.39709301308443 4.780636693054769  19.35125181836569 22.65291919798863 5.101103743273205  19.02062999301027 21.90874538289284 5.421570793491642  22.961151 22.512875 6.183729  22.62965244397199 22.69769254841229 5.414048134208422  22.89416944397199 22.08285304841229 5.673427634208423  22.59462594397199 22.38042054841229 6.035311134208422  23.295721 22.5325795 5.200582499999999  22.9961775 22.830147 5.562466  23.2606945 22.2153075 5.8218455  23.560238 21.91774 5.459962  23.031204 23.147419 4.941203  22.22810088794398 22.24796609682458 5.886893268416845  21.75496325867902 21.64635914464723 6.161764442996532  21.59901245016732 22.03520382745766 5.474048556621106  21.70373966926343 21.55672377580436 5.480868963329272  22.43755532613623 21.29100599351799 5.900534081833176  22.33282810704011 21.76948604517128 5.89371367512501  21.05871041229437 21.95353659254151 6.401346957009011  20.90275960378266 22.34238127535193 5.713631070633586  20.83559519517468 22.86232099261314 6.366058296441803  21.53184804155933 22.55514354471886 6.126475782429324  18.96728049650514 22.41637169144642 4.646556896745821  18.4361535 22.460993 4.206713000000001  22.53859989223668 21.56489456917252 4.531072357963172  21.83178455824796 22.77260845335175 5.053308007842722  22.38335039009034 21.90643033299855 5.208982813190008  21.75426195231366 21.69366806363163 4.79613810139427  21.98703406039431 22.43107268952572 4.375397552615886  21.20269612047129 22.55984618398483 4.640463296046983  21.43546822855194 23.29725080987892 4.2197227472686  22.297421 22.7953 7.132683  22.26276094397199 22.52163304841229 6.509788134208423  21.78962331470703 21.92002609623495 6.784659308788109  22.32361194397199 21.98822954841229 6.812592634208423  22.358272 22.2618965 7.435487500000001  20.950863 20.734896 4.547883  21.25131550619532 21.64487677904537 4.413981922412684  20.96039350619532 21.27866877904537 4.804543422412683  21.74473144611834 21.14989528458626 4.539477678981585  21.241785 21.101104 4.1573215  21.532707 21.467312 3.76676  22.03565344611834 21.51610328458626 4.148916178981586  23.566313 22.485437 4.20123  23.21812334369635 23.19715839982278 3.415998449458384  23.40923734369635 22.56778289982277 3.380193949458385  23.06580334369635 22.70118439982277 3.722153449458385  23.718633 22.981411 3.895075  23.870953 23.477385 3.58892  22.5652936873927 22.91693179964555 3.243076898916769  21.65785359758734 23.05855149630657 6.228589148220902  21.56650809758734 22.82881049630657 6.749370648220902  22.3887665 23.025041 6.6119015  22.480112 23.254782 6.09112  22.35410644397199 22.75137404841229 5.989006634208422  20.726702 21.2388795 4.208057999999999  21.017624 21.6050875 3.8174965  19.953436 22.682364 7.59936  20.09173659758734 22.26821949630657 6.748016148220902  20.39451559758734 22.77234249630657 6.982709148220902  20.53949109758734 22.19027549630657 6.973265148220902  21.5690165 20.4658155 4.252712  22.04520744611834 20.76166878458626 4.676094678981586  22.18717 20.196735 3.957541  22.36288494611834 20.88081478458626 4.244306678981586  21.290487 22.361729 3.02377  22.28338134369635 22.70531589982277 2.608508949458384  21.75735634369635 23.22429889982277 2.736933949458384  21.92789034369635 22.63933039982278 3.133423449458385  21.645978 22.4277145 2.4988555  21.475444 23.012683 2.102366  21.119953 22.9466975 2.6272805  20.949419 23.531666 2.230791  22.001469 22.4937 1.973941  21.203203 22.580198 7.818739  21.750312 22.687749 7.475711  21.811163 22.1543455 7.7785155  22.056778 23.969984 6.793655  21.59651809758734 23.52668899630657 5.959749148220902  21.44618659758734 23.41615249630657 6.579856648220902  22.268445 23.612383 6.442387500000001  22.2071095 24.0805205 6.1735475  22.4187765 23.7229195 5.82228  22.357441 24.191057 5.55344  22.29042111427597 23.96167640493946 4.2857983736343  23.088289 23.8867605 4.6465385  22.7514075 24.4085795 4.952657  22.6943225 23.669238 5.2473215  21.89645461427597 23.74415390493946 4.8865813736343  22.23333611427597 23.22233490493946 4.5804628736343  23.145374 24.626102 4.351874  21.69420916306812 21.012950996759 5.224208540916588  21.01939909758734 22.72125949630657 7.092398648220902  20.5783195 22.631281 7.7090495  18.051386 23.443096 6.468053  17.9728965 23.307741 5.9925455  17.5895985 22.8844795 6.0372915  18.2304475 22.897478 6.307602  17.894407 23.172386 5.517038  22.55194678981469 22.24091318440903 3.88707462843997  22.78490194611834 22.35615678458626 4.736137678981586  23.2987585 22.816428 4.5712165  22.79824884369635 23.03217539982277 4.092139949458384  21.615076 23.755774 7.944578  21.22533559758734 23.30904749630657 7.155318148220902  21.835927 23.862879 7.369116500000001  21.9562485 23.275537 7.5386305  22.1770995 23.382642 6.963169000000001  21.13553171186331 23.07978590124603 5.292890521855202  21.95779011427597 23.27601640493946 5.1554213736343  20.60524 23.540501 8.101528999999999  20.72041759758734 23.20141099630657 7.233793648220901  20.279338 23.1114325 7.8504445  20.9042215 23.0603495 7.960134  18.337944 23.385012 4.56531  18.67928699650514 22.64687869144642 4.993440396745822  19.00990882186056 23.39105250654222 4.672973346527384  18.6259375 23.154505 4.2184265  19.29790232186055 23.16054550654221 4.326089846527385  23.28623766306811 21.148870496759 5.565837040916588  22.99889666306812 21.60437299675899 5.680248040916588  23.18319216306811 21.10034849675899 6.128718040916588  22.72590044397199 22.01416254841229 6.391163634208422  20.51879838089143 21.85729869282751 6.186688726955232  19.92811259409248 22.38553318775299 5.893814544966723  23.04941894611834 21.74131728458626 4.995517178981586  20.2587344194479 23.12970700284878 5.573347494748286  20.55867093613653 23.34717191148168 4.500179720161684  22.7206315 22.8838285 6.1374245  22.755658 23.2011005 5.5161615  22.629286 22.6540875 6.658206  21.8599385 20.8320235 3.8621505  22.69935316306812 21.901940496759 6.042131540916587  19.809874 21.008411 4.259461  20.38989900619532 21.41542627904537 4.660332422412683  20.1562075 21.375637 4.063847  19.26718532186056 23.78610350654222 4.398311846527385  18.883214 23.549556 3.943765  18.5952205 23.780063 4.2906485  18.852497 24.175114 4.015987  23.76925274345068 22.96227178453474 2.841591479865534  21.4091395 23.167986 7.8816585  21.24251431470703 21.81247509623495 7.127687308788109  23.2237 21.780359 6.895434  23.391969 21.8490495 6.177697999999999  23.0924255 22.146617 6.5395815  22.7605605 22.2878295 7.0140585  20.96900461427597 22.52005690493946 4.0439778736343  20.74943611427597 22.98478340493946 3.7751753736343  19.87263882186055 23.03470450654221 4.055632346527384  22.48807760918645 21.42795028134525 5.215803219898174  22.85533384369635 23.77151689982277 3.797475449458385  23.4510785 23.312402 4.2650615  23.5081635 24.0517435 3.970397  23.25324116116046 21.04701410501031 5.277578999892456  22.7424221072788 20.87059138959658 4.813134178874042  22.37047834369635 22.18374839982278 3.037999949458385  22.04900034369635 22.19212189982277 3.504918449458385  19.04174999650514 21.75905619144642 4.686702396745821  19.37237182186055 22.50323000654221 4.366235346527384  21.110158 23.6481375 8.0230535  21.48408761427597 22.38228140493946 3.9932413736343  20.896514 22.052296 3.4460015  21.411597 21.9145205 3.395265  21.36297761427597 22.82948990493946 3.6217463736343  22.00038095797232 23.10709130476224 3.731399823092684  17.9263915 22.585187 5.029460500000001  18.1161755 23.278699 5.041174  18.14816 22.6915 4.5535965  22.33441031753838 21.41830216563486 3.661930642183147  22.1814165 20.82365 3.395232  20.52036161427597 23.58957690493946 3.6447668736343  19.64356432186056 23.63949800654222 3.925223846527384  19.8343295 23.2771095 3.2002195  19.605255 23.881903 3.069811  21.19244361427597 23.41445840493946 3.2252568736343  20.6769455 22.5170225 3.177199  20.5064115 23.101991 2.7807095  20.277337 23.7067845 2.650301  19.259593 23.4029505 3.470677  19.228876 24.0285085 3.542899  13.345054 25.710527 10.186695  12.98285189838866 25.31563172105301 9.415027678243053  13.52871089838866 25.20950772105301 9.728015678243054  13.39944265717226 25.8718003902803 9.216247782301739  12.799195 25.816651 9.873707  12.253336 25.922775 9.560719000000001  12.85358365717226 25.9779243902803 8.90325978230174  13.45383131434453 26.03307378056061 8.24580056460348  13.58309955556092 25.37078111133331 8.757568460544793  13.71236779677731 24.70848844210601 9.269336356486106  15.78121263994001 27.09174507209177 9.047064785870594  15.28036972879508 25.70788330907845 9.171470168123257  15.11609843984839 26.65885909565505 9.283686203216114  15.38024242374352 26.29377071288491 8.410350008718961  15.94548392888669 26.14076928551517 8.934848750777736  16.10975521783338 25.18979349893857 8.822632715684879  15.54451371269021 25.34279492630831 8.298133973626102  14.97927220754703 25.49579635367805 7.773635231567326  14.7151282236519 25.86088473644819 8.646971426064479  14.45098423975677 26.22597311921833 9.520307620561633  14.91106150730535 24.94914097052229 9.045984536085491  14.08167601826704 25.46723078066217 9.394821988523869  14.34582000216217 25.10214239789203 8.521485794026717  14.44319 26.969254 6.658539  13.71955441119663 26.5571632476948 6
[...]
<PointData  Scalars="p"> 
<DataArray  type="Float64"  Name="p"  format="ascii">1.0268402678053148e+01  1.0221527574111681e+01  1.0226866213068009e+01  1.0234291372102373e+01  1.0248239443515594e+01  1.0233501178893787e+01  1.0214187997951568e+01  1.0197259923468330e+01  1.0194782729548312e+01  1.0190382244441553e+01  1.0241876407550054e+01  1.0211660294885624e+01  1.0196576044639148e+01  1.0197193096565021e+01  1.0213521256253900e+01  1.0223709048574950e+01  1.0248300536187758e+01  1.0279904881980766e+01  1.0167389518385180e+01  1.0155921542854529e+01  1.0151517530527292e+01  1.0169428706358630e+01  1.0134121230953745e+01  1.0154091348295921e+01  1.0150045003415606e+01  1.0129443846277917e+01  1.0136245845404249e+01  1.0173391405468371e+01  1.0188423043639117e+01  1.0181880010090071e+01  1.0177836725985918e+01  1.0162696018383075e+01  1.0168008023844040e+01  1.0211738586707497e+01  1.0207970629817375e+01  1.0217065594092743e+01  1.0196289138441958e+01  1.0258703898610019e+01  1.0265837102835556e+01  1.0121324942877305e+01  1.0167514539128666e+01  1.0150456824184612e+01  1.0160012890932716e+01  1.0142611197346541e+01  1.0177679707917708e+01  1.0160752360594596e+01  1.0197067574343148e+01  1.0186211417768076e+01  1.0196098045310052e+01  1.0185328877796360e+01  1.0192785149239512e+01  1.0196565559281137e+01  1.0171971892846049e+01  1.0196297480640677e+01  1.0151415942457968e+01  1.0166011158064148e+01  1.0137311421573175e+01  1.0127439290749765e+01  1.0084433560767700e+01  1.0074161862862072e+01  1.0056673775089250e+01  1.0084945451520769e+01  1.0070638790157169e+01  1.0055115205629948e+01  1.0090311148196975e+01  1.0197200306552670e+01  1.0204947478123882e+01  1.0191272291837333e+01  1.0181624608494246e+01  1.0176471096945658e+01  1.0198813865416472e+01  1.0169320502386206e+01  1.0241004156240582e+01  1.0241409815762896e+01  1.0231804321332614e+01  1.0228754804930103e+01  1.0147100383401298e+01  1.0140706561854431e+01  1.0099598616486348e+01  1.0111778533262040e+01  1.0129529541592708e+01  1.0078586517869244e+01  1.0109591466115264e+01  1.0107900158511562e+01  1.0095428545456478e+01  1.0099972676368060e+01  1.0129126957892929e+01  1.0129262569063631e+01  1.0065184228587722e+01  1.0216567021219614e+01  1.0207506462643918e+01  1.0203095569217652e+01  1.0207689743160238e+01  1.0196105671454509e+01  1.0208112194662215e+01  1.0196282955892649e+01  1.0195373251136234e+01  1.0180508298947951e+01  1.0177360002296616e+01  1.0140858069885617e+01  1.0129837634973146e+01  1.0152023358270602e+01  1.0157549954000705e+01  1.0166229954347195e+01  1.0145713652476264e+01  1.0124961429273780e+01  1.0172184855558468e+01  1.0218175431550973e+01  1.0227514335113932e+01  1.0279347346063892e+01  1.0283677569926823e+01  1.0317585817105998e+01  1.0295862492956369e+01  1.0282703824080219e+01  1.0104691663461873e+01  1.0127831717116912e+01  1.0113196772813295e+01  1.0111250575505014e+01  1.0218652134115125e+01  1.0217144345829357e+01  1.0215178154266098e+01  1.0211418093007211e+01  1.0203656953093331e+01  1.0193204809843099e+01  1.0169043277683352e+01  1.0230927318241580e+01  1.0226096402775781e+01  1.0234836725520344e+01  1.0224267635662232e+01  1.0250068580470449e+01  1.0267911759637542e+01  1.0238391851883474e+01  1.0242775063086816e+01  1.0228182543190542e+01  1.0129487400988875e+01  1.0144667681604515e+01  1.0148254661266119e+01  1.0171052021564376e+01  1.0227730447426749e+01  1.0241714435388030e+01  1.0122628501429032e+01  1.0222253306069955e+01  1.0193983809733126e+01  1.0174138856485982e+01  1.0160995384534289e+01  1.0183495284908190e+01  1.0118436398869569e+01  1.0163365053440625e+01  1.0255762390120987e+01  1.0220872515049722e+01  1.0226180457932498e+01  1.0222738557817225e+01  1.0223709052795044e+01  1.0233155889955547e+01  1.0218589252755731e+01  1.0027320198698778e+01  1.0218576408485895e+01  1.0210976505666800e+01  1.0169322286489882e+01  1.0153261916000938e+01  1.0168949274818255e+01  1.0182543028480199e+01  1.0172601873001424e+01  1.0173022859063746e+01  1.0208104409924857e+01  1.0144136438292106e+01  1.0107115784983842e+01  1.0100782598215554e+01  1.0094152168499944e+01  1.0119328966639696e+01  1.0117943859164615e+01  1.0081012584869510e+01  1.0110372546212613e+01  1.0273920545228279e+01  1.0238419345331883e+01  1.0223738021337832e+01  1.0150590248806378e+01  1.0163126347421240e+01  1.0133398689317245e+01  1.0146383047463049e+01  1.0127705362752108e+01  1.0292932523405213e+01  1.0265092808131943e+01  1.0272573626640263e+01  1.0095218466020055e+01  1.0080942662310049e+01  1.0176108050319545e+01  1.0205700244103664e+01  1.0187752665203652e+01  1.0186014611450878e+01  1.0144493202187054e+01  1.0163580921832020e+01  1.0157712591203635e+01  1.0160706632849088e+01  1.0207383482970798e+01  1.0203005768004269e+01  1.0551424620243790e+01  1.0589531648771738e+01  1.0564120585728864e+01  1.0570704525274587e+01  1.0580360409078649e+01  1.0603485487324964e+01  1.0595969323633154e+01  1.0586676578724111e+01  1.0580528077112266e+01  1.0575555402649830e+01  1.0466990946952892e+01  1.0503705163836520e+01  1.0495365296567233e+01  1.0498731268878297e+01  1.0471100254252557e+01  1.0483105935057974e+01  1.0508717588294894e+01  1.0538418301719268e+01  1.0531012022548277e+01  1.0521220821685223e+01  1.0532800798728395e+01  1.0547823933819345e+01  1.0559724338581519e+01  1.0562849913581909e+01  1.0602572960013211e+01  1.0604680933545044e+01  1.0586668359200644e+01  1.0607983448142464e+01  1.0622540570873308e+01  1.0625826788926792e+01  1.0641597739268063e+01  1.0638259772506787e+01  1.0636367427945032e+01  1.0657751914493485e+01  1.0650319503063210e+01  1.0645342752027060e+01  1.0637044926734733e+01  1.0661888855249494e+01  1.0476022472866836e+01  1.0491734927572079e+01  1.0501763321767887e+01  1.0476491740366299e+01  1.0485884359716803e+01  1.0505357872998319e+01  1.0526369524499817e+01  1.0515303300436631e+01  1.0505585206387664e+01  1.0556620814144491e+01  1.0546236999105284e+01  1.0522884132850862e+01  1.0543937894917674e+01  1.0505650685344834e+01  1.0506146840524286e+01  1.0524657360899655e+01  1.0577336585179115e+01  1.0603305680604731e+01  1.0610562595114120e+01  1.0617103577125729e+01  1.0638215283595947e+01  1.0622409321533164e+01  1.0644398199483019e+01  1.0631879147905281e+01  1.0472642621159196e+01  1.0467399523733883e+01  1.0453681193294154e+01  1.0497105834270650e+01  1.0642032481417207e+01  1.0615804925790295e+01  1.0601361570633998e+01  1.0621350071665265e+01  1.0592554381457330e+01  1.0625166248052723e+01  1.0600613663930682e+01  1.0606375374741225e+01  1.0563998804664367e+01  1.0583207848444413e+01  1.0621723139509143e+01  1.0609649614840286e+01  1.0673023174990728e+01  1.0595348837538351e+01  1.0548731582482471e+01  1.0576303538079390e+01  1.0569991406069878e+01  1.0634081555504780e+01  1.0630622872307267e+01  1.0610650018225254e+01  1.0658892460303370e+01  1.0638446082813507e+01  1.0664497224900462e+01  1.0632934381732452e+01  1.0633750647142644e+01  1.0656986345180441e+01  1.0684465867891120e+01  1.0618331664105114e+01  1.0662286254087023e+01  1.0667304773080618e+01  1.0695163593585121e+01  1.0561035168267946e+01  1.0535603299437295e+01  1.0507453242931565e+01  1.0450178796211203e+01  1.0490591676246693e+01  1.0494461157350575e+01  1.0463894610120549e+01  1.0408532641483824e+01  1.0435602548885564e+01  1.0498644112251839e+01  1.0537002922406508e+01  1.0536721952832298e+01  1.0475636322902577e+01  1.0664880444708514e+01  1.0631133211457248e+01  1.0547716589486610e+01  1.0523937236274463e+01  1.0529182319196446e+01  1.0567958470148172e+01  1.0492090684006799e+01  1.0484413594689634e+01  1.0461973140183961e+01  1.0499496778954446e+01  1.0600973319220358e+01  1.0547792526831334e+01  1.0553366893229503e+01  1.0645051192819430e+01  1.0523958312057632e+01  1.0556445091769294e+01  1.0523823456686362e+01  1.0529581208075674e+01  1.0037927424308039e+01  1.0022727992550818e+01  9.9918925068628095e+00  1.0008263139133454e+01  1.0008232386244932e+01  9.9439645395288849e+00  9.9236403213366700e+00  9.9677380586323423e+00  9.9317957631733336e+00  9.9173263015135706e+00  9.9598408005285286e+00  9.9919856995992937e+00  1.0064292780193236e+01  1.0010675212287405e+01  1.0031420910167395e+01  1.0023544834599075e+01  1.0052466091646608e+01  1.0043954119502725e+01  1.0021034772157611e+01  9.9775938554807979e+00  9.9926794942931512e+00  9.9786304630013642e+00  9.9585370625412128e+00  1.0000104388397638e+01  1.0013925794281842e+01  9.9975878557492273e+00  9.9786183778475728e+00  9.9817096556037939e+00  9.9914588523585266e+00  1.0012736132674490e+01  9.9715339906388465e+00  9.9066897086055121e+00  9.9276972950119191e+00  9.9603663316613709e+00  9.9267169947647744e+00  9.9149658953588453e+00  9.9560956995393308e+00  1.0062341082496502e+01  1.0042396458730495e+01  1.0050295799843436e+01  1.0031538709648473e+01  1.0041673530274625e+01  1.0020421549655170e+01  9.9842934796391543e+00  9.9941889621853708e+00  1.0051339502994789e+01  1.0015349331593558e+01  1.0016983090784773e+01  1.0002896067151200e+01  1.0004683222086008e+01  9.8697867355388862e+00  9.9198239264071280e+00  1.0038885290216539e+01  1.0037493369488137e+01  1.0009532808008721e+01  9.9950584445405219e+00  9.9503288349188672e+00  9.9916234020834462e+00  1.0042625615237155e+01  1.0016486753551622e+01  1.0057311711018743e+01  1.0048204675267135e+01  9.8833580731415456e+00  9.9067606128404595e+00  9.8736917860135609e+00  9.8999794878664069e+00  9.8919634814513717e+00  9.8642882780065495e+00  9.8998910219673899e+00  9.8533106063065397e+00  9.8852255428165687e+00  9.9129247039596446e+00  9.7579523027716615e+00  9.7797817117514558e+00  9.7630674973615257e+00  9.7417717505754933e+00  9.7253513149737412e+00  9.7624132242176227e+00  9.7463463908348817e+00  9.7671484592534732e+00  9.7803969146643510e+00  9.7961254471407830e+00  9.9230868665887382e+00  9.9185782040425376e+00  9.9168636340454448e+00  9.9199596244204926e+00  9.9202654727037380e+00  9.9232130055512879e+00  9.9106804927772369e+00  9.9166139173194665e+00  9.9144565558533433e+00  9.9072230425613039e+00  9.8430113885686179e+00  9.8314545775939610e+00  9.8093359310607848e+00  9.8339352453689788e+00  9.8189492042276303e+00  9.8410965513925195e+00  9.7905187388203139e+00  9.8171479705945313e+00  9.8394075909643934e+00  9.8284206386664312e+00  9.9176032006182115e+00  9.9112505333424270e+00  9.9138482011655000e+00  9.9179559960526369e+00  9.9164766776495874e+00  9.9204020365399632e+00  9.9155453782841221e+00  9.9145820678004259e+00  9.9104714786043395e+00  9.8812066811223129e+00  9.9025445766944777e+00  9.8855174136822352e+00  9.8868031908975649e+00  9.8938101189805927e+00  9.8921320193157953e+00  9.9030902957160407e+00  9.8902605812260411e+00  9.9151335180467708e+00  9.7900463102033459e+00  9.7438473404171049e+00  9.7804312782345484e+00  9.7688076845981513e+00  9.7664877895048097e+00  9.7746187055106706e+00  9.9085145213804768e+00  9.8971380954379313e+00  9.9099641515904544e+00  9.9132832427163304e+00  9.9199719004590445e+00  9.8985069926694482e+00  9.9019476444369872e+00  9.9165065343423517e+00  9.9131740535935133e+00  9.8840258834627175e+00  9.9107383149451369e+00  9.9188544858295309e+00  9.9271886831494758e+00  9.8960521614698500e+00  9.9118969578775111e+00  9.9344190294667847e+00  9.9269742118209354e+00  9.9159595958266120e+00  9.9157177686496834e+00  9.9216845752269212e+00  9.9202000814116271e+00  9.9064056023700964e+00  9.9019899122400190e+00  9.8896664281968221e+00  9.8932396608983275e+00  9.8953747027385788e+00  9.8427172033571733e+00  9.8586421773795792e+00  9.8658545325243967e+00  9.8343314081580306e+00  9.8658315670530321e+00  9.8879338145169324e+00  9.8847450364839560e+00  9.8574922781451271e+00  9.9422495400343394e+00  9.9594561643871327e+00  9.9423659521634402e+00  9.9488716238380217e+00  9.9602086216200654e+00  9.9810886232884020e+00  9.9643594624780540e+00  9.9477084503906141e+00  9.9453113001920546e+00  9.9392013995687396e+00  9.8937286826673834e+00  9.8652081566154113e+00  9.8797616852132482e+00  9.8860233949963394e+00  9.8814831177228921e+00  9.8804301249300241e+00  9.8705349666458826e+00  9.8718701729553011e+00  9.8653517997505560e+00  9.8651602833037106e+00  9.8375968091909627e+00  9.8223136377755580e+00  9.8249911862189165e+00  9.8482312752647303e+00  9.8367603760965139e+00  9.8370712148478479e+00  9.8481251368325342e+00  9.8405199447658394e+00  9.8136620805682959e+00  9.9153542810314939e+00  9.9127117785754351e+00  9.9111565215495698e+00  9.9121159897333513e+00  9.9170358285641544e+00  9.9104325789220500e+00  9.9039940399056121e+00  9.9050773766783546e+00  9.9080504609918947e+00  9.9278845750133247e+00  9.9196731538184189e+00  9.9257131604588764e+00  9.9291041214003375e+00  9.9265628403488346e+00  9.9343835928891195e+00  9.9277296718866594e+00  9.9203439022125561e+00  9.9062324965373509e+00  9.8997681518947331e+00  9.9093706664277459e+00  9.8892234419994054e+00  9.8996379540803900e+00  9.8886700663467906e+00  9.8800557811956775e+00  9.8895668865759987e+00  9.8916790771364269e+00  9.8706477894864264e+00  9.8464430370228353e+00  9.8535117473027309e+00  9.8531877141838802e+00  9.8292452910097996e+00  9.8744040449658481e+00  9.8624627380409908e+00  9.8694554965137424e+00  9.8865749237749760e+00  9.8712258907277910e+00  9.8892317940199579e+00  9.8599263099586256e+00  9.8616930819887365e+00  9.8284970666160731e+00  9.8669975136137893e+00  9.8928283156681438e+00  9.9076705321925669e+00  9.8885057920326513e+00  9.8984919434946317e+00  9.8787533255863309e+00  9.9007453591786856e+00  9.8675168951471814e+00  9.8900131125938611e+00  9.9030644650671746e+00  9.8973387196929021e+00  9.8691146779652321e+00  9.8856425336498788e+00  9.9087285595108074e+00  9.8947893311517898e+00  9.9102833259868799e+00  9.8959025573244119e+00  9.8878593303919597e+00  9.9059414961717209e+00  9.9522251647070359e+00  9.9289947691830314e+00  9.9267588770301689e+00  9.9372196957464531e+00  9.9603265865892041e+00  9.9370653935285773e+00  9.9570248897925620e+00  9.9813647473531795e+00  9.7796645557066419e+00  9.7826239524280183e+00  9.8018401512300368e+00  9.8089835740441504e+00  9.7920363356621625e+00  9.8686558704814811e+00  9.8677290819504790e+00  9.8817208004075674e+00  9.8511132812593925e+00  9.8488628993752751e+00  9.8423655043110525e+00  9.8474492335363610e+00  9.8681100900082050e+00  9.8916800061054140e+00  9.8762557226390513e+00  9.8813804844259625e+00  9.9013987313705467e+00  9.8949726072909687e+00  9.9111849349698637e+00  9.8977951884734168e+00  9.9150378856446917e+00  9.9347051951987044e+00  9.9139646411846218e+00  9.9417120399221126e+00  9.9284296839488970e+00  9.9347367383433749e+00  9.9134459562759840e+00  9.7655267991520791e+00  9.7443051382451351e+00  9.7762977354358025e+00  9.7585848871237371e+00  9.7524945864954233e+00  9.7690712874654544e+00  9.7859203118378524e+00  9.8286153657439268e+00  9.8387040480927972e+00  9.8149258690897661e+00  9.8467107106108003e+00  9.8527749727741512e+00  9.8874733952712681e+00  9.8765564145575322e+00  9.9004558785758263e+00  9.8982170658893818e+00  9.8556000142525555e+00  9.9118237985501043e+00  9.8702809347740672e+00  9.9091552982133280e+00  9.8261090984737205e+00  9.9231288847315504e+00  9.9181509761026874e+00  9.9266080194417707e+00  9.9208435503598409e+00  9.9226511221186140e+00  9.9213504989911261e+00  9.9250878486497580e+00  9.9203345205828768e+00  9.9271078241909443e+00  9.8801084606562277e+00  9.9001022294661798e+00  9.8711899835156629e+00  9.9220360418566784e+00  9.9036667337047923e+00  9.8958804604083248e+00  9.8662797330365599e+00  9.9283759242450511e+00  9.9052714624924771e+00  9.9171278178044382e+00  9.9231777589936634e+00  9.9173233426676237e+00  9.9176231035454290e+00  9.9209421801888436e+00  9.9213354044551743e+00  9.8717274999030895e+00  9.8624891195057156e+00  9.8656897664176419e+00  9.8632083624745732e+00  9.8659038061817252e+00  9.8580163994158898e+00  9.8587001263107243e+00  9.8574498939834516e+00  9.8142107154961007e+00  9.8366626466858023e+00  9.8077072786654558e+00  9.8460559517368260e+00  9.8011311833626440e+00  9.7706156491572926e+00  9.7378629585387575e+00  9.7798959428015237e+00  9.7631619133433709e+00  9.9289883818804636e+00  9.9101886203549814e+00  9.9287607459283596e+00  9.9017737221396196e+00  9.8662715001056700e+00  9.8963557877636035e+00  9.9188981666874945e+00  9.8973238197658180e+00  9.9168405887674016e+00  9.9168302927152165e+00  9.8879481201488435e+00  9.9261636051454527e+00  9.9280935291042738e+00  9.9148963549784330e+00  9.9182757582345289e+00  9.9172997680410013e+00  9.9194098631471341e+00  9.9236875986814361e+00  9.9155257503973679e+00  9.9261134748710322e+00  9.9184610734827690e+00  9.9262738871385512e+00  9.8083542237655887e+00  9.8386080409056245e+00  9.8264265184328945e+00  9.8194791319512387e+00  9.8288885975366060e+00  9.8065609954908677e+00  9.8476439093615511e+00  9.8072341155903029e+00  9.8181405708222051e+00  9.8310204792169884e+00  9.9025775209695599e+00  9.8993616086937415e+00  9.8971324855382026e+00  9.9062559299121435e+00  9.9121468244419457e+00  9.9006409478506701e+00  9.8878044341177862e+00  9.8914561575156945e+00  9.9564611469673228e+00  9.9777018926741867e+00  9.9577321381287422e+00  9.9801797735978184e+00  9.8548970934412274e+00  9.8491808564031160e+00  9.8682344493409460e+00  9.8506479163845864e+00  9.8320420850302028e+00  9.8526974389777919e+00  9.8860466709786063e+00  9.8860694474342665e+00  9.8900537334599576e+00  9.8966824451694499e+00  9.9274130333107564e+00  9.9224935105300460e+00  9.9238341112829271e+00  9.9269913974345840e+00  9.8859314209741900e+00  9.8884321045867143e+00  9.9050105725417801e+00  9.8085664254041998e+00  9.7846353957886656e+00  9.7722257121306679e+00  9.7775519600010128e+00  9.7470850717469162e+00  9.7535824262236037e+00  9.7582659111717884e+00  9.7443433758294109e+00  9.7433505221424443e+00  9.7666876922895405e+00  9.8884487184799124e+00  9.9016919715179306e+00  9.9060067672162351e+00  9.8949155786817009e+00  9.8990689613197027e+00  9.8213483730062485e+00  9.7950012692718076e+00  9.8353230802630751e+00  9.8052084858478388e+00  9.8182638302265683e+00  9.7854087076577585e+00  9.8254344701171590e+00  9.8598353949502240e+00  9.8717554210378218e+00  9.8776129547441442e+00  9.8701279996552014e+00  9.8786196352329032e+00  9.8723167790346125e+00  9.8646685281672220e+00  9.8555432073019809e+00  9.7985070904493163e+00  9.8300616648835746e+00  9.7945196708552427e+00  9.8327873557448378e+00  9.8297022864938306e+00  9.8570018405810931e+00  9.9203757436803528e+00  9.9352524673505016e+00  9.9344770032776442e+00  9.9233123043626392e+00  9.7450053747789429e+00  9.7741507748271239e+00  9.7740169267308232e+00  9.7550101097739077e+00  9.7712619266474601e+00  9.7694181873686254e+00  9.8134149300374887e+00  9.8188388629349568e+00  9.7896909938827648e+00  9.7793717563670590e+00  9.7830176059399996e+00  9.7822153926000617e+00  9.7738005724738919e+00  9.8708752281523875e+00  9.8503576902618679e+00  9.8692994546667432e+00  9.9999444714010028e+00  9.9617226069202331e+00  9.9574377907155700e+00  9.9786820635366702e+00  1.0030829982336149e+01  1.0002486833687428e+01  9.9794575017206029e+00  9.8539979801059605e+00  9.8881238975764099e+00  9.8590251401720845e+00  9.8441389273071263e+00  9.8694274235029393e+00  9.8990407031095060e+00  9.9087730001844587e+00  9.9276187859673986e+00  9.7302095096319245e+00  9.7355488688551564e+00  9.7590417010754322e+00  9.7519081047244836e+00  9.7773335939781347e+00  9.9209784909974754e+00  9.9231035008955146e+00  9.9021854433894170e+00  9.8898798103139463e+00  9.9280788075940052e+00  9.9195360237386776e+00  9.9229866318904296e+00  9.9238057773287043e+00  9.9295471084868101e+00  9.8221843420052046e+00  9.8030995069595814e+00  9.8975725505896737e+00  9.9240709729568408e+00  9.8935358643928701e+00  9.9186622453039952e+00  9.9052464481508480e+00  9.9069400181424569e+00  9.9107788073702636e+00  9.8420086765933430e+00  9.8414656361939379e+00  9.8244011666942441e+00  9.8533884873885977e+00  9.8208433047737813e+00  9.8005609792457893e+00  9