<?xml version="1.0"?>
<VTKFile type="UnstructuredGrid"  version="0.1"  >
<UnstructuredGrid>
<Piece  NumberOfPoints="10336" NumberOfCells="47454">
<Points>
<DataArray  type="Float64"  NumberOfComponents="3"  format="ascii">23.8144378257383 23.27456958412517 28.20769549074382  23.19280246192068 23.61909850413345 27.8618625345207  22.83153208005543 22.98232714571591 28.51478138762753  23.1984780506855 22.57266286314439 27.56239774262029  22.57116709810307 23.96362742414173 27.51602957829758  16.098158 27.922291 28.624554  16.69139982589544 27.55598773944075 28.11542131622029  16.287769 27.4404255 27.778072  16.51668682589544 28.00914073944075 28.28284681622029  16.272871 27.469138 28.4571285  16.113056 27.8935785 27.9454975  16.447584 27.015985 28.289703  16.93521565179087 28.0959904788815 27.94113963244057  22.010838 26.009146 27.34882  22.82752201064872 25.0756767147091 27.23357999253073  22.77623750790162 25.61522566746108 27.55044520373583  22.06330498588633 25.54873589938951 27.66433965450242  22.11577197177266 25.08832579877901 27.97985930900484  22.82870449378795 25.15481556685059 27.86596485823826  23.54163701580323 25.22130533492216 27.75207040747167  23.67803742077076 24.24793745952367 27.97988294910775  23.74006867779615 24.04577734225818 27.15448087947866  23.66569952985401 24.8169851003912 26.1012662682135  23.60366827282862 25.01914521765669 26.92666833784259  23.11843331397854 24.39030626226646 26.80864792325554  23.05640205695315 24.59246637953195 27.63404999288463  23.20599900790162 25.81307966746108 27.05511620373584  16.281199 28.797461 27.767994  17.19762360917714 28.54590913408833 27.36077795495878  16.93141132589544 28.81628273944075 27.99931331622028  16.60820732589544 28.44672573944075 27.85456681622028  16.604403 29.167018 27.9127405  16.927607 29.536575 28.057487  17.63623568483177 28.91597446845297 27.82300933203593  17.6400400107272 28.19568220789372 27.76483564825621  18.34486436966353 28.29537393690593 27.58853166407186  21.641386 23.467587 30.407578  21.77328001849311 23.75956385599589 29.68648063496942  21.74500616718628 23.07883585365332 29.61472264225562  21.2586565 23.460623 29.982404  20.875927 23.453659 29.55723  21.39055051849311 23.75259985599589 29.26130663496942  21.90517403698622 24.05154071199178 28.96538326993883  18.451191 35.361599 25.669935  19.1662035 35.215826 25.363758  18.8296175 34.797348 25.061527  19.024169 34.495798 25.5107305  19.881216 35.070053 25.057581  19.54463 34.651575 24.75535  19.7391815 34.350025 25.2045535  18.734198 34.979424 26.801266  19.1656725 34.3047105 26.076396  18.5926945 35.1705115 26.2356005  18.3670515 34.72055450000001 26.354026  18.6747845 35.419489 25.229988  19.389797 35.273716 24.923811  19.053211 34.855238 24.62158  18.898378 35.477379 24.790041  18.573921 33.49091 26.840971  19.085534 33.5604535 26.0962485  18.751916 33.1666605 26.314329  19.1704185 33.1800255 26.708194  19.766916 32.869141 26.575417  19.6820315 33.249569 25.9634715  19.3484135 32.855776 26.181552  18.929911 32.842411 25.787687  18.6540595 34.235167 26.8211185  21.166458 22.893216 29.798914  22.85980593136226 23.66305514805848 28.58653938034133  23.96912146437753 23.31334747999964 26.90058198052661  23.41233050000249 22.95604520816904 29.05206999999864  23.01022317426668 22.63752083221292 29.89644450925346  22.34346953493786 24.52597661146037 27.74794444365121  22.45769860562645 23.34453077210235 29.43091388959615  22.32580458713334 23.05255391610646 30.15201125462673  16.1896785 28.359876 28.196274  26.72603054505513 43.3971304891581 24.57352073534103  27.49901955601289 43.36936201644554 23.86545290120599  27.39902552349222 42.69498922182741 24.54442337684482  28.33030375096466 42.96039797724836 24.5682950091743  28.07202050192932 41.99284795449673 24.5153260183486  23.567879 36.056931 23.722052  24.25205494343727 36.3650935651886 23.64367053704513  23.7746775 36.0486375 23.193971  23.631649 36.431971 23.4604645  23.695419 36.807011 23.198877  24.45885344343726 36.3568000651886 23.11558953704513  24.31582494343726 36.7401335651886 23.38208303704513  23.8384475 36.4236775 22.9323835  23.981476 36.040344 22.66589  24.93623088687453 36.6732561303772 23.56528907409026  26.597788 33.597855 24.939968  26.6115035 34.17375 24.0597035  25.9162238591735 33.53630127436859 24.36177722010375  26.434105 34.216221 24.5690115  26.270422 34.834587 24.198055  24.917685 31.366461 24.838215  25.45637847893805 31.79929757865057 24.58694129822949  25.3603775 31.234558 24.223675  25.504368 31.175892 24.9567615  26.091051 30.985323 25.075308  23.833525 33.654762 24.000271  24.47814785173512 34.46616565808483 23.78026417374637  23.8862305 34.1169335 23.425763  23.7661 34.3625965 23.916977  23.698675 35.070431 23.833683  25.06975597893805 32.34228057865057 24.39003979822949  24.8225665 31.5566035 24.139396  24.5310625 31.909444 24.6413135  24.14444 32.452427 24.444412  27.09293866874548 42.25968963842699 23.72435958191214  24.34532485173512 35.66725015808483 23.64115467374637  23.8400755 35.55538749999999 23.2497865  23.633277 35.563681 23.7778675  14.574568 33.131779 37.823742  14.84970070269808 34.24478552688466 37.94804599392136  14.20852870269808 34.12997102688465 38.19281799392137  14.67173720269808 33.66754002688465 38.27671449392136  14.289323 34.1714555 37.411177  14.7525315 33.7090245 37.4950735  14.1113595 33.59421 37.7398455  13.648151 34.056641 37.655949  14.930495 34.28627 37.166405  14.76890640539616 34.20330105376931 38.72968698784273  11.92691781936822 37.35256158066929 38.30468033874572  11.31694220017667 36.07761360869647 38.91619823106498  11.17455968108359 37.09846212328238 38.82854749578723  11.28070826874377 36.44109002318181 37.86248492688819  12.06930033846129 36.33171306608337 38.39233107402347  10.63449871811931 35.52961846569433 37.42028951503067  10.52835013045914 36.1869905657949 38.38635208392971  11.42309078783684 35.42024150859589 37.95013566216594  12.21168285755437 35.31086455149746 38.47998180930121  10.42220154279896 36.84436266589547 39.35241465282874  12.469687 34.818157 32.039932  13.35093436476061 35.41200015988032 32.84625970241581  13.09494350481954 35.60403594531799 32.2472210244382  12.55173850481954 35.39401744531798 32.44569602443821  13.012892 35.0281755 31.841457  13.26888285994106 34.83613971456234 32.44049567797761  13.556097 35.238194 31.642982  13.81208785994106 35.04615821456233 32.24202067797761  14.06807871988213 34.85412242912466 32.84105935595522  12.63379000963909 35.96987789063597 32.8514600488764  16.006161 36.998192 39.822285  15.10554190417628 36.75066006367865 40.94821455457349  15.17381920071614 36.46557563339923 40.16672311457872  15.22122734442543 37.10520272971478 40.19334526139859  15.89047555975085 36.64364933396388 40.5771542931749  15.7747901195017 36.28910666792775 41.33202358634981  15.05813376046699 36.11103296736309 40.92159240775362  14.43629368885086 37.21221345942956 40.56440552279717  14.38888554514157 36.572586363114 40.53778337597731  14.34147740143229 35.93295926679844 40.51116122915744  16.1749 34.7589 39.695583  15.21382706808056 33.96280982988389 39.63342239949908  15.67450607365521 33.69270650266813 39.45705187920325  15.47190320269808 34.48110052688465 39.21263499392136  15.91682386538248 34.24060930299924 40.11637040557773  15.93258220827273 34.21099719966889 39.03626447362552  15.69026441654546 33.66309439933778 38.37694594725104  15.22958541097081 33.93319772655354 38.55331646754689  15.65874773076495 33.72231860599848 40.53715781115545  15.447172 45.62936 40.343998  16.204889 46.110628 39.82403  15.9162825 45.89641349999999 40.643404  16.230054 45.7079945 40.264841  17.012936 45.786629 40.185684  16.6991645 45.975048 40.564247  16.385393 46.163467 40.94281  13.550774 38.823517 41.22681  14.008498 39.37607800000001 40.8011185  14.16658768029003 38.79770598343286 40.72501570655174  13.5319235 39.1192915 40.797874  14.0273485 39.0803035 41.2300545  14.503923 39.33709 41.233299  14.14773718029003 39.09348048343286 40.29607970655174  14.64316218029003 39.05449248343287 40.72826020655175  13.513073 39.415066 40.368938  14.78240136058005 38.77189496686572 40.22322141310349  14.69537 35.605618 42.015007  14.20602170071614 36.48487963339922 41.37240361457872  14.51842370071614 35.76928863339922 41.26308411457872  14.094341 35.7424145 41.788336  14.382968 36.321209 42.1243265  13.493312 35.879211 41.561665  13.91739470071614 35.90608513339922 41.03641311457872  13.781939 36.4580055 41.8976555  14.070566 37.0368 42.233646  13.7744935154575 39.22649019176161 36.64061702410316  12.640193769338 38.5176426374771 35.80107792301658  12.94892848946829 38.93200567504311 36.63541700659869  13.11910200937071 39.65180429002302 35.90577565079982  13.46575879532721 38.81212715419561 35.80627794052104  13.15702407519691 38.3977641166296 34.97193885693893  12.12336346347908 38.6375211583246 36.63021698909422  14.404641 34.816914 34.90086  13.85426004783116 35.0296864692574 33.95564588430501  14.16564654783116 35.33877996925739 34.38993188430501  14.23635985994106 34.83551821456233 33.87095967797761  14.0932545 34.50782049999999 34.466574  13.781868 34.198727 34.032288  13.92497335994106 34.52642471456233 33.43667367797761  13.99736540777222 35.35738418381973 33.36003156228263  13.92665209566232 35.86064593851479 33.87900376861003  15.100649 37.035847 36.288673  14.32888263015287 37.45926138638811 36.44733943231336  14.62513631739795 37.32345617872212 35.91179530114512  14.38844713015287 36.9103953863881 36.46806243231336  15.0410845 37.58471299999999 36.26795  14.98152 38.133579 36.247227  14.56557181739795 37.87232217872211 35.89107230114512  13.67624526030573 36.78494377277622 36.64745186462672  13.91293444755082 37.19800456511022 36.09118473345848  14.14962363479591 37.61106535744424 35.53491760229023  13.3388825 36.9925 42.0344655  13.37415058922453 36.78772336617654 41.24835947603975  13.0502555 36.4137055 41.698475  12.607199 36.9482 41.835285  13.66277758922453 37.36651786617654 41.58434997603975  12.93109408922453
[...]
<PointData  Scalars="p"> 
<DataArray  type="Float64"  Name="p"  format="ascii">1.0015772959810196e+01  1.0037243477018738e+01  1.0031123300018077e+01  1.0039970399951820e+01  1.0059722570459080e+01  1.0171334220341858e+01  1.0172959239631279e+01  1.0177522815108427e+01  1.0171591422770920e+01  1.0171435794464571e+01  1.0174867400806457e+01  1.0172499844249645e+01  1.0171689475430522e+01  1.0058434505359827e+01  1.0054873811113355e+01  1.0046699315471308e+01  1.0060443256375375e+01  1.0058019445284282e+01  1.0043284555915241e+01  1.0030486383309452e+01  1.0024997846350407e+01  1.0038644549230552e+01  1.0056317243861752e+01  1.0043222491566883e+01  1.0058361118430094e+01  1.0044406908306041e+01  1.0043641854458404e+01  1.0173503636102621e+01  1.0174065261938125e+01  1.0168416003629700e+01  1.0173073682946942e+01  1.0169313934678414e+01  1.0163694594570345e+01  1.0161571949720624e+01  1.0166186387904736e+01  1.0157355532348699e+01  1.0010310267048261e+01  1.0030055832998297e+01  1.0033189583818698e+01  1.0035137517939852e+01  1.0063318372525138e+01  1.0052620245938572e+01  1.0045555368626180e+01  1.0115196903764412e+01  1.0111412509930698e+01  1.0122996576372506e+01  1.0117485253853250e+01  1.0103243534468412e+01  1.0118086247391796e+01  1.0111655671090338e+01  1.0107111197263226e+01  1.0110386687410809e+01  1.0111062158161175e+01  1.0114235211449842e+01  1.0116384874362275e+01  1.0111078309683068e+01  1.0125509535981296e+01  1.0117334933325026e+01  1.0108939483680047e+01  1.0114372715763450e+01  1.0118143780773231e+01  1.0103331702370683e+01  1.0094521070905676e+01  1.0107549579801521e+01  1.0110204214626442e+01  1.0128016504184153e+01  1.0108044020751857e+01  1.0047026648093595e+01  1.0030280305704139e+01  1.0037339909998282e+01  1.0005073756786764e+01  9.9920433077791362e+00  1.0060136563654041e+01  1.0019707772641112e+01  1.0002411423581380e+01  1.0171991790536838e+01  9.9235621435918695e+00  9.9100424982175017e+00  9.9176781212418241e+00  9.9085390888940790e+00  9.9134140480451833e+00  9.9631854269644755e+00  9.9501583244173375e+00  9.9438795477160209e+00  9.9576603582148557e+00  9.9520965833982391e+00  9.9348981548792104e+00  9.9452203338476846e+00  9.9390994122275114e+00  9.9283759242450511e+00  9.9382671410352881e+00  9.9332497856939419e+00  9.9007887396383456e+00  9.9219542339991555e+00  9.9274736284135940e+00  9.9209784909974754e+00  9.9485513624758699e+00  9.9298279236288653e+00  9.9172916139286613e+00  9.9455043364962847e+00  9.9435645142532785e+00  9.9466068726703512e+00  9.9387568793561663e+00  9.9348444990851785e+00  9.9512949041752830e+00  9.9554900446050141e+00  9.9317383770984193e+00  9.9239606889170222e+00  9.9447848929005627e+00  9.9460101492809034e+00  9.9172230688161349e+00  9.9444611293040488e+00  9.9407095533042682e+00  9.9592926854972390e+00  1.0534607066895664e+01  1.0570066114314789e+01  1.0597020250996591e+01  1.0553596043470421e+01  1.0602529501374120e+01  1.0551832503498009e+01  1.0584303164056344e+01  1.0632628520992846e+01  1.0581910675374896e+01  1.0565808225106833e+01  1.0740885947936492e+01  1.0776251530769198e+01  1.0780476095894910e+01  1.0774052884057413e+01  1.0735118349027031e+01  1.0810051597400996e+01  1.0815351998453828e+01  1.0770125966725143e+01  1.0726223526335364e+01  1.0824457161631745e+01  1.0642644928587947e+01  1.0592601231382272e+01  1.0603648529051553e+01  1.0647028111204017e+01  1.0593128051817388e+01  1.0579859224633271e+01  1.0550068325876444e+01  1.0538916619809944e+01  1.0528200128279929e+01  1.0651128671912273e+01  1.0538640945578551e+01  1.0544262397397086e+01  1.0562693900865442e+01  1.0560457712206533e+01  1.0518370448200299e+01  1.0500981111857442e+01  1.0545175969560121e+01  1.0589305189579452e+01  1.0592127055158024e+01  1.0592112326043452e+01  1.0511446265980904e+01  1.0528131972835773e+01  1.0500394909325927e+01  1.0537331892816354e+01  1.0499087764987676e+01  1.0511071432901865e+01  1.0500064375417413e+01  1.0534139444620939e+01  1.0489699441898825e+01  1.0457634047462504e+01  1.0466232963346895e+01  1.0444121847729559e+01  1.0436979971871635e+01  1.0422633585156326e+01  1.0427461002845348e+01  1.0437028179497942e+01  1.0617686935753717e+01  1.0592623032013817e+01  1.0591413869358128e+01  1.0625881559195408e+01  1.0584175682363471e+01  1.0551909821905589e+01  1.0600753668628093e+01  1.0560265480085965e+01  1.0635673519055931e+01  1.0569739673019232e+01  1.0526334044473025e+01  1.0582660692895857e+01  1.0562788861484819e+01  1.0574771907221608e+01  1.0547228177065723e+01  1.0627911600205739e+01  1.0606820619325086e+01  1.0598455166999022e+01  1.0567227529773149e+01  1.0660891028167292e+01  1.0696484924834333e+01  1.0690499758439918e+01  1.0674845962747005e+01  1.0661106068660054e+01  1.0662439283981398e+01  1.0725039985033160e+01  1.0564803333197849e+01  1.0574617460503239e+01  1.0573084393393898e+01  1.0539633956547799e+01  1.0556083451912109e+01  1.0556917405128324e+01  1.0542409088012956e+01  1.0556807139138987e+01  1.0583055492050876e+01  1.0618125575201530e+01  1.0641785519289995e+01  1.0619931198122622e+01  1.0637570450467649e+01  1.0624643682024310e+01  1.0628052369813888e+01  1.0624244008728359e+01  1.0661774801809935e+01  1.0646831499351531e+01  1.0627948503915160e+01  1.0628920566596911e+01  1.0641413732531335e+01  1.0660985373959576e+01  1.0693897806674656e+01  1.0613393891127515e+01  1.0669426575300101e+01  1.0651166969888004e+01  1.0543255263481839e+01  1.0565323963375723e+01  1.0531626244183665e+01  1.0502276410409536e+01  1.0512653782882365e+01  1.0530831341390293e+01  1.0561570079208160e+01  1.0540084264812242e+01  1.0521499136254199e+01  1.0529045410873021e+01  1.0562910590819742e+01  1.0513384112904264e+01  1.0579374647720588e+01  1.0618031855265597e+01  1.0653798022574991e+01  1.0630256715497197e+01  1.0609537309264155e+01  1.0629968153812294e+01  1.0653055987614984e+01  1.0632804113779244e+01  1.0609207841964102e+01  1.0632003579769835e+01  1.0650223158650071e+01  1.0613287281844313e+01  1.0624391371482753e+01  1.0628348198771702e+01  1.0594598332587250e+01  1.0621838925603891e+01  1.0623417255905030e+01  1.0652360256451457e+01  1.0651906468700190e+01  1.0688997805207434e+01  1.0667537559090549e+01  1.0660967190215095e+01  1.0653238343422959e+01  1.0636567888455250e+01  1.0644680107879969e+01  1.0587837481768862e+01  1.0589448019887259e+01  1.0556109297358997e+01  1.0617867781520973e+01  1.0559616409988090e+01  1.0581002123127385e+01  1.0539772372804279e+01  1.0570390170247689e+01  1.0608472908974980e+01  1.0641882042993863e+01  1.0471106319648738e+01  1.0493539687758226e+01  1.0489539610730803e+01  1.0465333425161493e+01  1.0497745099564703e+01  1.0459368606431887e+01  1.0454391985528952e+01  1.0459032125290008e+01  1.0531026934765961e+01  1.0461402254740978e+01  1.0639533791876397e+01  1.0616227441672679e+01  1.0620087735236273e+01  1.0627267664709754e+01  1.0643475558776213e+01  1.0668484260772296e+01  1.0661201101198094e+01  1.0717850882514316e+01  1.0693465806127186e+01  1.0683598181008463e+01  1.0685783238771014e+01  1.0728646283685102e+01  1.0737163953217969e+01  1.0697144362108885e+01  1.0658033821609298e+01  1.0655822139677605e+01  1.0653883980594403e+01  1.0678683324416335e+01  1.0648481584159081e+01  1.0670371653900725e+01  1.0669223441812106e+01  1.0677019162346417e+01  1.0655954004829283e+01  1.0681378170663203e+01  1.0660528312211593e+01  1.0678310430115870e+01  1.0693215182774891e+01  1.0663251284272308e+01  1.0647915921260365e+01  1.0590017264003992e+01  1.0543627638119652e+01  1.0534840774828115e+01  1.0581112064633334e+01  1.0546239978441413e+01  1.0508855967922514e+01  1.0501461366969027e+01  1.0527212177307700e+01  1.0486717374168046e+01  1.0535212937883967e+01  1.0562891498764232e+01  1.0535267587114836e+01  1.0497197662867078e+01  1.0560077667056701e+01  1.0463297077855065e+01  1.0500657162924659e+01  1.0524017608553914e+01  1.0585148733886220e+01  1.0536528736980571e+01  1.0666513017565890e+01  1.0608088015650564e+01  1.0643305766163369e+01  1.0647535381021441e+01  1.0537109515522667e+01  1.0578701369114444e+01  1.0552767456625952e+01  1.0534093254003590e+01  1.0582122740063928e+01  1.0627764885215363e+01  1.0592021507912879e+01  1.0536673938423238e+01  1.0565055902074043e+01  1.0557264267882896e+01  1.0545588841427557e+01  1.0475645979497896e+01  1.0487460658946922e+01  1.0476240538609199e+01  1.0457086999225679e+01  1.0506926709219940e+01  1.0504707962962440e+01  1.0435530918118893e+01  1.0454255085823251e+01  1.0473455749464861e+01  1.0715149371097116e+01  1.0681590694000336e+01  1.0727309051993901e+01  1.0737107197324086e+01  1.0756680620075560e+01  1.0724372842636559e+01  1.0765453008547592e+01  1.0742897345747206e+01  1.0798357642658500e+01  1.0775901431975457e+01  1.0753366034576414e+01  1.0723238747354944e+01  1.0674133481667244e+01  1.0651653090412131e+01  1.0626479454101787e+01  1.0661503676877906e+01  1.0641049583566980e+01  1.0604708828130224e+01  1.0636722183094006e+01  1.0600727903812302e+01  1.0634956269091637e+01  1.0485247086902760e+01  1.0553892347088912e+01  1.0534053263222201e+01  1.0531094000962300e+01  1.0506647486501116e+01  1.0530405303212564e+01  1.0576037454997333e+01  1.0549451135513523e+01  1.0566346443928783e+01  1.0589491001839267e+01  1.0535924932061951e+01  1.0590452578983871e+01  1.0557603719928542e+01  1.0560689482550634e+01  1.0566398233680649e+01  1.0619505546926000e+01  1.0638233920299049e+01  1.0619253545341643e+01  1.0676730229654016e+01  1.0634806235157823e+01  1.0662349440990637e+01  1.0585184635725808e+01  1.0630250278393790e+01  1.0600893042345062e+01  1.0582757874873977e+01  1.0597993324293155e+01  1.0637172337080445e+01  1.0605755372761067e+01  1.0585281887552759e+01  1.0641845976702077e+01  1.0576918202699838e+01  1.0598368578792661e+01  1.0524494739487055e+01  1.0548020966272800e+01  1.0568648623819762e+01  1.0394696944938119e+01  1.0400936783377695e+01  1.0409171381042739e+01  1.0373337682651551e+01  1.0421621063491784e+01  1.0432656053559789e+01  1.0349259953103944e+01  1.0381822704411213e+01  1.0410505359029575e+01  1.0534902715898983e+01  1.0504288809362066e+01  1.0544282645576398e+01  1.0496579224573043e+01  1.0507195760734637e+01  1.0469932288077468e+01  1.0465492156840735e+01  1.0456251423471532e+01  1.0472536431740762e+01  1.0440093991658150e+01  1.0485573610529535e+01  1.0488148357145358e+01  1.0416030455726286e+01  1.0440567981377145e+01  1.0472153888887298e+01  1.0576780071352474e+01  1.0556121546020512e+01  1.0791644578373342e+01  1.0833422829056303e+01  1.0804549646731910e+01  1.0361269276935861e+01  1.0395466523525208e+01  1.0390042306511329e+01  1.0414549135088871e+01  1.0629919900808645e+01  1.0621192106516004e+01  1.0616372110220485e+01  1.0619943525955936e+01  1.0649424044446222e+01  1.0634022814311262e+01  1.0650432366084480e+01  1.0623693660050973e+01  1.0732024578714730e+01  1.0779529250257708e+01  1.0711225203288318e+01  1.0734536611744295e+01  1.0498232034811208e+01  1.0537010711463541e+01  1.0527506388416777e+01  1.0560351527835584e+01  1.0623383607560957e+01  1.0561863414873713e+01  1.0593046760352683e+01  1.0590032400939224e+01  1.0676140364927782e+01  1.0656264789024226e+01  1.0633310532351107e+01  1.0609742344006145e+01  1.0655325226498940e+01  1.0757127368541877e+01  1.0724951031150455e+01  1.0739243659696498e+01  1.0733648290573521e+01  1.0741844984075311e+01  1.0718445204144043e+01  1.0714841022751319e+01  1.0715973865821034e+01  1.0721731131110735e+01  1.0725669351299974e+01  1.0631632232585224e+01  1.0608724533488409e+01  1.0642837767057291e+01  1.0612854348949575e+01  1.0592999167949694e+01  1.0379361812463081e+01  1.0427005458861348e+01  1.0457543034070637e+01  1.0415535208443758e+01  1.0437070844852780e+01  1.0391851169119880e+01  1.0423857199905170e+01  1.0406621382267279e+01  1.0414219769848330e+01  1.0399314358723851e+01  1.0703480841149295e+01  1.0728455586751204e+01  1.0684751677452862e+01  1.0666412478519725e+01  1.0713110107544157e+01  1.0443362335353001e+01  1.0482867479818632e+01  1.0466290576830040e+01  1.0424596123088836e+01  1.0493534808810196e+01  1.0455136520235687e+01  1.0411667517229606e+01  1.0481283752102623e+01  1.0499175379117977e+01  1.0460741485816277e+01  1.0478097683922954e+01  1.0501018320005118e+01  1.0460656214625311e+01  1.0442184096672630e+01  1.0481236940860089e+01  1.0520058576506178e+01  1.0474599529522989e+01  1.0799845935532723e+01  1.0754650092882400e+01  1.0811347827205118e+01  1.0769871823023577e+01  1.0730692246462686e+01  1.0722582821651359e+01  1.0784947437912221e+01  1.0826585490247021e+01  1.0771166632257160e+01  1.0447137337731098e+01  1.0474918697233514e+01  1.0479591522455465e+01  1.0504429287077786e+01  1.0447605883331724e+01  1.0423061370930819e+01  1.0468336030892088e+01  1.0444779753547182e+01  1.0682376338440212e+01  1.0698518375566254e+01  1.0682171186020721e+01  1.0692497099509135e+01  1.0685716117030875e+01  1.0675663573484618e+01  1.0675509928995741e+01  1.0690115985683548e+01  1.0621415674455605e+01  1.0636604495174685e+01  1.0690022354013857e+01  1.0707915010495537e+01  1.0669744376854595e+01  1.0650601641920183e+01  1.0686354259010391e+01  1.0511981188484796e+01  1.0533921412108297e+01  1.0526744312925510e+01  1.0540556355082447e+01  1.0497372456249877e+01  1.0505636727384923e+01  1.0477903686111159e+01  1.0489856368581711e+01  1.0576508808448454e+01  1.0440904325245009e+01  1.0490859646621370e+01  1.0472942532318948e+01  1.0440813925632039e+01  1.0487719290587195e+01  1.0516208294696581e+01  1.0444020296907896e+01  1.0475902926860071e+01  1.0610328956754564e+01  1.0646227499730614e+01  1.0623666797497636e+01  1.0610649365667168e+01  1.0663169264459079e+01  1.0568139878831218e+01  1.0566519421207721e+01  1.0537762328165055e+01  1.0565040316467101e+01  1.0572719482039062e+01  1.0540609894800054e+01  1.0519966877533721e+01  1.0521043811852929e+01  1.0505074665232375e+01  1.0502078452529936e+01  1.0447186064983432e+01  1.0467148477384679e+01  1.0427034003907414e+01  1.0444294864990598e+01  1.0451675947435627e+01  1.0413355579939742e+01  1.0428283574277604e+01  1.0434891958607221e+01  1.0614265146962390e+01  1.0637259859791522e+01  1.0645418384275022e+01  1.0646947101683949e+01  1.0602309147123453e+01  1.0724108769672513e+01  1.0761765539681646e+01  1.0755954814919134e+01  1.0787873567229411e+01  1.0607186257077338e+01  1.0580991638193309e+01  1.0617241767040383e+01  1.0627473246958417e+01  1.0526047447195866e+01  1.0531020405973070e+01  1.0498802655481128e+01  1.0546494607050404e+01  1.0459138299980276e+01  1.0501936952275523e+01  1.0480782064689235e+01  1.0510081707792629e+01  1.0447715985204770e+01  1.0440317701095276e+01  1.0467677973152055e+01  1.0549293118312773e+01  1.0574212654555019e+01  1.0576713604017295e+01  1.0536815635627237e+01  1.0549235520552795e+01  1.0546621698469774e+01  1.0536100693048985e+01  1.0566519203153840e+01  1.0600153929615512e+01  1.0568477875687329e+01  1.0610627019499123e+01  1.0594462782770796e+01  1.0598224465793267e+01  1.0621448718684078e+01  1.0682148245461731e+01  1.0676400538320982e+01  1.0690283134786108e+01  1.0688284052371623e+01  1.0669399654501779e+01  1.0682920231519173e+01  1.0703720192000278e+01  1.0451392589664053e+01  1.0436128054474159e+01  1.0433177486233509e+01  1.0473774123330733e+01  1.0451335407408589e+01  1.0472733077622189e+01  1.0446868505451217e+01  1.0700167137351388e+01  1.0690625275747733e+01  1.0701517405976055e+01  1.0733261300211701e+01  1.0502115538364217e+01  1.0528061002711155e+01  1.0517030382218655e+01  1.0493923649268993e+01  1.0480517861725186e+01  1.0505826312509837e+01  1.0493554065627455e+01  1.0468528341914723e+01  1.0441393748247974e+01  1.0392747158355327e+01  1.0398877129633219e+01  1.0424659519040588e+01  1.0407997369189149e+01  1.0426644218737817e+01  1.0376886598683141e+01  1.0411762670426771e+01  1.0403595837843280e+01  1.0677415005253879e+01  1.0698323362244636e+01  1.0655778347407514e+01  1.0637743131392497e+01  1.0675655488068697e+01  1.0719168941530441e+01  1.0707740877545513e+01  1.0746682610465433e+01  1.0739122866232160e+01  1.0751647412516244e+01  1.0394989181605027e+01  1.0366589596866341e+01  1.0347458389369988e+01  1.0344165317870193e+01  1.0680555484786963e+01  1.0605829597124654e+01  1.0666452672400309e+01  1.0651635748704567e+01  1.0611533434321579e+01  1.0550439305728881e+01  1.0587629848376336e+01  1.0626778966692916e+01  1.0641308618595364e+01  1.0684412851823588e+01  1.0700482370512406e+01  1.0664441763320406e+01  1.0650738955426020e+01  1.0690063862338837e+01  1.0608081189010720e+01  1.0635559643091463e+01  1.0612991577815233e+01  1.0736709226738736e+01  1.0707443695986569e+01  1.0768162178553926e+01  1.0759984811933155e+01  1.0795826802120915e+01  1.0782184658936155e+01  1.0643434858189432e+01  1.0647931255868082e+01  1.0636860516348818e+01  1.0641346169686516e+01  1.0590983027351758e+01  1.0589195902803235e+01  1.0621304095029632e+01  1.0591884236857329e+01  1.0589286922410190e+01  1.0558789166588157e+01  1.0562097453625229e+01  1.0624682899448903e+01  1.0619984442114639e+01  1.0646458600398766e+01  1.0644809159026723e+01  1.0639931155106899e+01  1.0648288042974780e+01  1.0652472291818654e+01  1.0643913124065438e+01  1.0649968455015632e+01  1.0652467204724344e+01  1.0654330019782561e+01  1.0642707291096363e+01  1.0486644125764091e+01  1.0495783892281370e+01  1.0444417526360244e+01  1.0458825768829909e+01  1.0502963250187092e+01  1.0507525506386406e+01  1.0479777438886195e+01  1.0475974512066280e+01  1.0521901323819728e+01  1.0553291252020214e+01  1.0467365206164269e+01  1.0529719350153307e+01  1.0650378164079696e+01  1.0613915510706592e+01  1.0620365755918776e+01  1.0636077376704025e+01  1.0572078418957892e+01  1.0561176671874264e+01  1.0683616584781371e+01  1.0664775002996334e+01  1.0660637735763926e+01  1.0701748660363116e+01  1.0464067939235484e+01  1.0455332213825560e+01  1.0481686195004983e+01  1.0460126875573089e+01  1.0395039799529206e+01  1.0402487242167998e+01  1.0407745753840237e+01  1.0428585714279494e+01  1.0386602711546001e+01  1.0421405497312925e+01  1.0378862158741120e+01  1.0711993909456879e+01  1.0686312041225797e+01  1.0398562794223453e+01  1.0348864182374843e+01  1.0353591883101510e+01  1.0354948618259989e+01  1.0773242108522940e+01  1.0733098634112331e+01  1.0748303447662089e+01  1.0766750079705877e+01  1.0738020989702411e+01  1.0703676461924129e+01  1.0716013676140756e+01  1.0632631795657801e+01  1.0614933560124026e+01  1.0635449298283641e+01  1.0775713942176965e+01  1.0790838106246420e+01  1.0790463942273497e+01  1.0821078555884030e+01  1.0824227660988052e+01  1.0769671246902941e+01  1.0483990929341468e+01  1.0490861012291225e+01  1.0488667651703613e+01  1.0430826937275960e+01  1.0565910069303834e+01  1.0599666137588404e+01  1.0598424385385155e+01  1.0561194915854450e+01  1.0562738908446899e+01  1.0568584419957675e+01  1.0566120809626716e+01  1.0623482751873039e+01  1.0562826407586254e+01  1.0576422354997128e+01  1.0559822015809827e+01  1.0605044675761491e+01  1.0508893817497480e+01  1.0524849544358334e+01  1.0547207553727752e+01  1.0533294785872766e+01  1.0728169162545246e+01  1.0690971654949621e+01  1.0713207656210026e+01  1.0674428550481972e+01  1.0686756603428016e+01  1.0489216369488259e+01  1.0502522419069994e+01  1.0459805840946254e+01  1.0480638798290078e+01  1.0510674463448320e+01  1.0488464723921904e+01  1.0468036436557572e+01  1.0448433814203547e+01  1.0687859031950666e+01  1.0656092822876690e+01  1.0662173811549408e+01  1.0725003628847904e+01  1.0700719088166789e+01  1.0733961081196687e+01  1.0733748842969272e+01  1.0589173481275980e+01  1.0581275337087268e+01  1.0656490442088625e+01  1.0647985654703744e+01  1.0643749798383091e+01  1.0646580280135863e+01  1.0541779154757508e+01  1.0523898308687317e+01  1.0523933088936165e+01  1.0716527140940100e+01  1.0682384725394925e+01  1.0616976196386350e+01  1.0624138591364535e+01  1.0643741841724857e+01  1.0705118780267979e+01  1.0628704658562608e+01  1.0639565921499198e+01  1.0675732136182983e+01  1