<?xml version="1.0"?>
<VTKFile type="UnstructuredGrid"  version="0.1"  >
<UnstructuredGrid>
<Piece  NumberOfPoints="10486" NumberOfCells="47575">
<Points>
<DataArray  type="Float64"  NumberOfComponents="3"  format="ascii">3.289311 24.742661 26.64843  2.807857133052515 23.87083499159164 27.79757536872407  3.573650349467333 23.87714666198067 27.01527121398936  3.482713103810129 24.61795585358435 27.59196380721446  3.676115207620257 24.49325070716869 28.53549761442891  3.767052453277461 23.75244151556502 27.95880502120382  4.412514 24.214981 27.204752  4.044314603810129 24.35411585358435 27.87012480721446  3.8509125 24.478821 26.926591  4.567524603810129 24.13264435358435 28.19304280721445  8.886715000000001 30.06781 29.148708  9.2960995 30.186616 28.310541  8.956982500000001 30.60779 28.5058375  8.677972 30.0678805 28.675726  8.469229 30.067951 28.202744  9.0873565 30.1866865 27.837559  8.7482395 30.6078605 28.0328555  9.02725 31.14777 27.862967  9.366367 30.726596 27.6676705  9.705484 30.305422 27.472374  9.551826500000001 30.546547 28.704046  10.216938 31.025284 28.259384  9.961211 30.665353 27.865879  9.622094000000001 31.086527 28.0611755  5.916545 24.179571 30.505249  6.095179 23.5824785 29.7020115  5.9415445 24.2191245 29.761347  6.378578 23.7875545 30.0028755  6.0701795 23.542925 30.4459135  5.966544 24.258678 29.017445  3.008800282429304 23.54409068573632 28.5725148139306  3.987321714745374 23.39564461012296 29.00205908916827  5.107536610935245 23.23880475653862 29.98693478195381  3.6286125 24.161937 26.471588  8.375935 37.079144 34.384911  8.403668052214968 37.77465846444361 34.28569306416753  7.947204 37.4397815 34.073597  8.050416999999999 37.283045 34.543871  7.724899 37.486946 34.702831  7.621686 37.6436825 34.232557  7.518473 37.800419 33.762283  3.378037 35.063007 23.422342  2.95773942553851 35.99045637542596 23.93871187324896  2.517929415431111 35.84857498275963 23.28440410714844  3.143069510107399 35.26080839266633 23.98615876610052  3.192706915431111 35.79265498275963 23.37489510714844  2.468292010107399 35.31672839266633 23.89566776610052  2.7032595 35.118927 23.331851  2.028482 35.174847 23.24136  3.007376830862222 36.52230296551927 23.32744821429689  2.908102020214798 35.45860978533265 24.54997553220103  6.941167 38.703957 26.623121  6.365693084694641 39.28268120144976 27.52842064632158  5.765802278895595 39.59975868856854 27.02425026810292  5.911194278895595 38.82072518856854 26.98446076810292  6.511085084694641 38.50364770144976 27.48863114632158  6.795775 39.4829905 26.6629105  6.650383 40.262024 26.7027  4.88122155779119 38.93749337713707 27.34580053620584  5.481112363590237 38.62041589001829 27.8499709144245  6.081003169389282 38.30333840289952 28.35414129264316  2.747546 37.350994 26.289337  2.2544365 37.273508 25.496418  3.212354376197155 37.31871724136397 25.42502063182677  2.485876 37.6563165 25.8197325  2.5161065 36.9681855 25.9660225  2.284667 36.585377 25.642708  2.980914876197155 36.93590874136397 25.10170613182677  2.224206 37.961639 25.350128  2.950684376197155 37.62403974136397 24.95541613182677  3.67716275239431 37.28644048272793 24.56070426365354  8.211751978835721 39.46732375160924 34.91108501430718  9.260330298377804 38.75170373188031 35.05888194329339  8.746848586284385 38.02011799094164 34.91220866114216  8.311506023487276 38.72259440230265 35.43347360412822  8.824987735580695 39.45418014324132 35.58014688627944  8.411260068138832 37.97786505299607 35.95586219394927  8.924741780232251 38.70945079393474 36.10253547610048  9.438223492325671 39.4410365348734 36.2492087582517  3.300073 39.075317 27.786121  3.871851540893229 39.34913065835521 26.86504503285943  3.694797878848011 38.58412704762536 26.99172827087725  4.090647278895595 39.00640518856854 27.56596076810292  4.662425819788824 39.28021884692375 26.64488480096234  4.485372157743606 38.5152152361939 26.77156803898017  4.089522757696021 38.09293709525072 26.1973355417545  4.26657641974124 38.85794070598057 26.07065230373668  4.443630081786458 39.62294431671043 25.94396906571885  7.946375 36.549541 35.285667  8.070565130915471 36.75757524611267 36.34904906839515  8.631359019388675 37.17002240890046 35.97928775311442  8.39891648531926 36.45586038240243 35.64419015613979  8.178817534069417 37.26370302649804 35.62076459697463  7.61802364559621 36.85125586371024 35.99052591225536  7.850466179665627 37.56541789020827 36.32562350923  7.289672291192422 37.15297072742047 36.69538482451073  8.851457970638521 36.36217976480487 36.00271331227957  10.791887 39.426765 40.078152  10.95522021719345 38.81556637511888 39.25816363003465  10.55915410454572 38.89487815029432 39.94701280102061  10.47621670252639 39.19513509337019 39.13597195155799  11.18795311264774 39.34745322482456 39.38930282901404  10.16054640505277 38.96350518674038 38.19379190311598  10.2434838070721 38.66324824366451 39.0048327525786  10.87228281517412 39.11582331819474 38.44712278057203  11.58401922529547 39.26814144964911 38.70045365802808  10.32642120909143 38.36299130058864 39.81587360204122  11.456358 34.378078 41.282608  10.92881361554248 35.29310216037364 40.34720478748307  11.64605281657511 35.34694385369876 40.92649220903964  11.00029929699524 35.11680403590825 41.23622349683535  11.38487231854725 34.55437612446539 40.39358929064771  11.31338663709449 34.73067424893078 39.50457058129542  11.57456713512235 35.52324197816415 40.03747349968734  10.54424059399047 35.8555300718165 41.1898389936707  11.18999411357034 36.085669889607 40.88010770587499  11.83574763315022 36.31580970739751 40.57037641807927  10.328344 38.514915 41.08633  10.73660725634042 37.84271030294174 40.38479627007221  10.89565660454572 38.51120965029432 40.35495830102062  10.32738260454572 38.43895315029432 40.45110180102061  10.896618 38.5871715 40.9901865  10.7375686517947 37.91867215264742 41.0200244690516  11.464892 38.659428 40.894043  11.3058426517947 37.99092865264741 40.9238809690516  11.1467933035894 37.32242930529483 40.9537189381032  3.632868 38.336075 28.532642  4.257044778895596 38.63678418856854 27.93922126810292  3.4664705 38.705696 28.1593815  4.539373278895595 39.07510618856854 28.25120826810292  11.82341631854725 35.18287462446539 40.4679682906477  11.894902 35.0065765 41.356987  12.333446 35.635075 41.431366  12.08459681657511 35.97544235369875 41.00087120903963  6.078641 38.192081 36.508144  6.563206192489195 38.16456022216994 36.13179182837673  6.284604975567126 37.48270175172443 36.24447474461971  6.684156645596211 37.67252586371023 36.60176441225536  6.769170168056322 37.45518097389437 35.86812257299643  7.168721838085407 37.64500508588017 36.22541224063209  6.890120621163337 36.96314661543467 36.33809515687507  6.490568951134252 36.77332250344886 35.98080548923941  7.047771384978391 38.13703944433988 35.75543965675345  5.06743537884801 38.64960054762535 25.79040677087725  5.463284778895595 39.07187868856853 26.36463926810292  9.767055229569316 37.902695849782 35.05708694078459  9.431466711423763 37.86044291183642 36.1007404735917  10.4516733547087 37.74302077067678 36.24561875323413  9.944948423517182 38.59202865277508 36.24741375574291  9.236673804393838 38.5346848939421 36.92785380048863  8.723192092300419 37.80309915300343 36.78118051833742  9.74339873558535 37.68567701184379 36.92605879797985  9.035124116462004 37.62833325301079 37.60649884272557  12.607199 36.9482 41.835285  11.8769961517947 37.13531465264742 41.3945019690516  12.357698 37.484926 41.675844  11.8609095 37.230625 41.847845  11.11462 37.51305 41.860405  11.6274951517947 37.67204065264742 41.2350609690516  11.1307066517947 37.41773965264741 41.4070619690516  11.6114085 37.76735100000001 41.688404  12.108197 38.021652 41.516403  10.86779408994673 35.78751845741313 39.42849261706208  10.48322106839472 36.34994636885598 40.27112682324972  4.305394278895595 39.56565318856853 27.86011626810292  8.847078 36.288837 33.664288  8.996722231737259 36.87773457983934 34.53638444798386  8.964757552214969 37.17560396444361 33.76642156416753  9.232293731737258 36.48258107983935 34.17607294798385  8.611506500000001 36.6839905 34.0245995  9.349973283952227 37.36934804428296 34.27820651215139  9.617509463474516 36.67632515967869 34.68785789596771  11.354563 34.93815 41.516651  11.252768 35.498222 41.750694  11.54425781657511 35.90701585369875 41.16053520903964  11.793107 35.5666485 41.59103  9.749764960906464 37.31646374621572 33.5090322952667  9.490011908691496 36.92709528177211 33.12244423109917  9.632085408691495 36.42969678177212 33.40689873109917  8.705004500000001 36.7862355 33.3798335  8.562931000000001 37.283634 33.095379  10.41709281738299 36.57055656354423 33.14950946219834  9.643752058310271 36.05087378070489 33.79082307441858  10.01730114042875 36.62344086161146 33.91868367908302  9.258536326573013 35.85712970086554 33.27903812643473  10.04354373526451 35.99798948263766 33.02164885753389  9.669994653146027 35.42542240173109 32.89378825286945  8.370694 37.125977 29.585428  7.622032095188057 37.65144881534125 29.76428073906238  8.165082 37.645422 29.1994245  8.3748985 37.7066365 29.80418  8.379103000000001 38.287296 30.022932  7.416420095188057 38.17089381534125 29.37827723906238  7.626236595188058 38.23210831534125 29.98303273906238  8.1692865 38.2260815 29.4181765  7.95947 38.164867 28.813421  6.873370190376114 38.1769206306825 29.94313347812475  6.417733692489196 38.60950122216994 35.87845982837673  6.301451500000001 38.903723 36.346861  5.933168500000001 38.637022 36.254812  6.446924 38.458782 36.600193  6.815207 38.725483 36.692242  6.931489192489195 38.43126122216994 36.22384082837672  5.787696 39.081963 36.00148  6.477186679882697 38.24012951679101 29.14863738538396  6.439357532017993 39.1388292923757 29.36453652499801  7.036043084694641 38.76500570144976 28.76427764632158  10.987673 35.571728 31.895182  11.52544141351104 36.2702172270901 33.00048475553737  11.31675990869149 36.33412528177212 32.42898923109917  11.81073150481954 35.77080294531798 32.3733210244382  10.7023829086915 36.07114228177211 32.
[...]
<PointData  Scalars="p"> 
<DataArray  type="Float64"  Name="p"  format="ascii">1.1253558672222958e+01  1.1236407578102357e+01  1.1224593578580961e+01  1.1231283056810039e+01  1.1207682302953204e+01  1.1198528635041088e+01  1.1198027207311785e+01  1.1203362094102658e+01  1.1226907147385583e+01  1.1175984828662706e+01  1.0996362682258123e+01  1.0969794904659906e+01  1.1009296315301725e+01  1.0993086803373634e+01  1.0990378600556301e+01  1.0965501348441279e+01  1.1010551677364395e+01  1.1030736878837537e+01  1.0983058883431100e+01  1.0942495833139965e+01  1.0986830584834316e+01  1.0978244803111279e+01  1.0958832221399724e+01  1.1004674233033700e+01  1.1141863305875196e+01  1.1103707454539052e+01  1.1132950618144065e+01  1.1107128393673561e+01  1.1117299013024661e+01  1.1127285847860145e+01  1.1208931932981240e+01  1.1168427569285361e+01  1.1127604577336843e+01  1.1237418325460665e+01  1.0884794270004893e+01  1.0897160329516719e+01  1.0911169934504832e+01  1.0905460257753161e+01  1.0930768569610731e+01  1.0939288403583351e+01  1.0948518850791361e+01  1.1453717480287120e+01  1.1461114941301442e+01  1.1527409516848781e+01  1.1436720240184400e+01  1.1489772397032896e+01  1.1461448927763238e+01  1.1487767201527438e+01  1.1529589633194799e+01  1.1511082014371899e+01  1.1419489641271332e+01  1.1231758634507303e+01  1.1201023387688554e+01  1.1236462047739790e+01  1.1240998104179212e+01  1.1207784482491837e+01  1.1225805924206586e+01  1.1216185790781159e+01  1.1254546539642105e+01  1.1220122819173254e+01  1.1187161302194571e+01  1.1354435782353669e+01  1.1401152136593605e+01  1.1383091187583444e+01  1.1384003891000814e+01  1.1373612472848254e+01  1.1389496675800924e+01  1.1403117586418690e+01  1.1412639041333362e+01  1.1413764672301834e+01  1.1412680696583051e+01  1.0920611515001031e+01  1.0859832045018569e+01  1.0883431513041076e+01  1.0906847348444686e+01  1.0880630407914017e+01  1.0898734737509226e+01  1.0872147495880411e+01  1.0844096903902743e+01  1.1277955914556951e+01  1.1301792970475010e+01  1.1302518103738961e+01  1.1267370131341945e+01  1.1287670632500074e+01  1.1290683923322312e+01  1.1326187433941730e+01  1.1325319930493730e+01  1.1322401569572191e+01  1.0919852661398240e+01  1.0918707545190362e+01  1.0890187143536702e+01  1.0901339032931613e+01  1.0909687460793885e+01  1.0937315366079279e+01  1.0925068882238815e+01  1.0951121109133659e+01  1.0884197759132260e+01  1.0792143905639492e+01  1.0783985606367724e+01  1.0807611568071401e+01  1.0801144579609435e+01  1.0770540358287164e+01  1.0812095497435310e+01  1.0816397163511450e+01  1.0781956770114480e+01  1.0751647412516244e+01  1.0823574466019060e+01  1.0795826802120915e+01  1.0811058026214628e+01  1.0772794363646447e+01  1.0824202806100724e+01  1.0782184658936155e+01  1.0779529250257708e+01  1.0767264546487436e+01  1.0848268168779171e+01  1.0800600822759193e+01  1.0753366034576414e+01  1.0844174693635567e+01  1.0812506553911712e+01  1.0797710707880992e+01  1.0831484065218376e+01  1.0804509292656615e+01  1.0822184112417709e+01  1.0766370266580642e+01  1.0782290022872688e+01  1.0798357642658500e+01  1.1247176527688040e+01  1.1250516997881267e+01  1.1260644864031574e+01  1.1227856897520178e+01  1.0754449391726535e+01  1.0763012434635355e+01  1.0726464207783032e+01  1.0740517199730428e+01  1.0984365753342006e+01  1.0978954222181311e+01  1.0982273263232196e+01  1.0971265137227368e+01  1.0969751814466370e+01  1.0953944752164430e+01  1.0965477056759962e+01  1.0977579007892057e+01  1.0963736985132696e+01  1.1314621322448088e+01  1.1277329532654198e+01  1.0833241542580657e+01  1.0850804289981328e+01  1.0803130500960867e+01  1.0823857956516539e+01  1.0855333577050891e+01  1.0884499723883865e+01  1.0838452450987978e+01  1.0873928111795253e+01  1.0693897806674656e+01  1.0752348785420001e+01  1.0711993909456879e+01  1.0756279993385521e+01  1.0821277042528521e+01  1.0765453008547592e+01  1.0806985898846353e+01  1.0770064719050092e+01  1.0727309051993901e+01  1.0804549646731910e+01  1.0833422829056303e+01  1.1246481610428214e+01  1.0865343994232230e+01  1.0864238890427348e+01  1.0862414599915059e+01  1.0854879710569064e+01  1.0866298411780585e+01  1.0850347130828686e+01  1.0840767016323058e+01  1.0808813832947836e+01  1.0819385388597322e+01  1.0781998213702860e+01  1.0774240128250673e+01  1.0830656062815278e+01  1.0843275930618761e+01  1.0841014730759145e+01  1.0861963966572954e+01  1.0874764231031703e+01  1.0799845935532723e+01  1.0844466387650030e+01  1.0820571559709311e+01  1.0870754817652539e+01  1.0829313728199962e+01  1.0865931559208724e+01  1.1115938115220020e+01  1.1104024946577004e+01  1.1120024392698292e+01  1.1091569532705403e+01  1.1028134309699162e+01  1.1111345107521144e+01  1.1074904128977384e+01  1.1089778873317297e+01  1.1128508433553337e+01  1.1104497843903511e+01  1.0996676933367425e+01  1.0995410872978507e+01  1.1005146519841102e+01  1.0976079084968056e+01  1.0962310987537878e+01  1.0965113237943736e+01  1.1053193087808873e+01  1.1146417470881046e+01  1.1125643038382233e+01  1.1137016794825325e+01  1.0778027949176142e+01  1.0731065214996914e+01  1.0742088180523876e+01  1.0707298718536341e+01  1.0788126381514267e+01  1.0720992790457776e+01  1.0668278645750009e+01  1.0659121273500467e+01  1.0651128671912273e+01  1.1266049544401644e+01  1.1261691581639333e+01  1.1302810754698795e+01  1.1145675074036781e+01  1.1169132735917058e+01  1.1167993678575082e+01  1.0885943900078040e+01  1.0861868665182548e+01  1.0887316260584901e+01  1.0862869435574920e+01  1.0864541609837294e+01  1.0855961230487956e+01  1.0833414061469997e+01  1.0826585490247021e+01  1.0878263569854763e+01  1.1027805497323557e+01  1.0999674190935989e+01  1.0993510692909165e+01  1.1005959374247253e+01  1.1012245300153268e+01  1.1025574023805136e+01  1.1006048588171959e+01  1.0677019162346417e+01  1.0719743561554903e+01  1.0732024578714730e+01  1.0703484792793560e+01  1.1089059455156402e+01  1.1089967898014924e+01  1.1127791143723485e+01  1.1097933469468124e+01  1.1118505620850110e+01  1.1149261122440311e+01  1.0849354485476356e+01  1.0824156852071425e+01  1.0816781739872972e+01  1.0846757614326659e+01  1.0812055240626366e+01  1.0819844532435432e+01  1.0776101258536874e+01  1.0787671120167111e+01  1.0762863179626757e+01  1.0775901431975457e+01  1.0834245033829982e+01  1.0798547415197584e+01  1.1044520598997506e+01  1.1032299386485267e+01  1.1017666004837377e+01  1.1063305175366999e+01  1.1078278155670883e+01  1.1031848622221380e+01  1.0964130039871076e+01  1.1017534399163804e+01  1.0991024657257787e+01  1.0979530623881351e+01  1.1011465459826066e+01  1.0986065995373870e+01  1.1171943731360090e+01  1.1154490172503218e+01  1.1137772702996893e+01  1.1160302368964642e+01  1.1187528179410627e+01  1.1184724310627752e+01  1.1200777637691870e+01  1.1204290670043202e+01  1.1194864686737452e+01  1.0937139451164011e+01  1.0984859921423492e+01  1.0728455586751204e+01  1.0752822148356719e+01  1.0712636091026596e+01  1.0735910641063899e+01  1.0820837976565794e+01  1.0795250027286407e+01  1.0824030838607632e+01  1.0819513129996787e+01  1.0751539336910541e+01  1.0714435355819624e+01  1.0846920785517916e+01  1.0876240215451823e+01  1.0918248771070637e+01  1.0891761655825457e+01  1.0786938671543570e+01  1.0731761569059939e+01  1.0720068107923289e+01  1.0764413028261533e+01  1.0784471933424873e+01  1.0808883308720823e+01  1.0842689415085454e+01  1.0809032658434598e+01  1.0822444182302210e+01  1.0781289474179433e+01  1.0741975170315213e+01  1.0769871823023577e+01  1.0838873426583845e+01  1.0855934784713471e+01  1.0870604360690447e+01  1.0879662445538662e+01  1.1370815727313051e+01  1.1353178428917117e+01  1.1345789510951867e+01  1.1364365369284446e+01  1.1355936631290056e+01  1.1337764428299874e+01  1.1320576963115068e+01  1.0804840498829428e+01  1.0793703749438674e+01  1.0798253352665300e+01  1.0812450438038422e+01  1.0808909643074841e+01  1.1438986018944842e+01  1.1426017147234710e+01  1.1473744347787534e+01  1.1444868418912662e+01  1.0941925718374657e+01  1.0921775633037878e+01  1.0950035128518218e+01  1.0915494175398234e+01  1.0931300066226216e+01  1.1323697361647266e+01  1.1312973960694061e+01  1.1369984722192285e+01  1.1381384725805066e+01  1.1349926275804510e+01  1.1341741873208504e+01  1.1347483540250337e+01  1.1336870583881785e+01  1.1424717986881980e+01  1.1425464362777060e+01  1.1473132634751392e+01  1.1425188402437454e+01  1.1419166209807988e+01  1.1168090466153020e+01  1.1223814795753814e+01  1.1235798005490608e+01  1.1235621072213194e+01  1.1214781397929778e+01  1.1226546132379255e+01  1.1057068153990368e+01  1.0993296045771404e+01  1.0813195108036600e+01  1.0767519390154140e+01  1.0831116528038256e+01  1.0818065824506878e+01  1.0798781825349893e+01  1.0868581909259378e+01  1.0874693432072293e+01  1.0889678310771204e+01  1.0858692583247880e+01  1.0832426544363019e+01  1.0781387938054761e+01  1.1565298380522954e+01  1.1508876480764906e+01  1.1583005412808122e+01  1.1541929626255767e+01  1.1271049267936748e+01  1.0840518797760495e+01  1.0862543513124900e+01  1.0847890532675720e+01  1.0836617381063412e+01  1.0830970324307730e+01  1.0816238322826624e+01  1.0810051597400996e+01  1.0815351998453828e+01  1.0843420758392103e+01  1.0850037881423866e+01  1.0824457161631745e+01  1.0876440285063678e+01  1.0876975157310481e+01  1.0894332948302141e+01  1.0896420443331357e+01  1.0875398956470319e+01  1.0878890621003078e+01  1.0844686837033413e+01  1.0868817621088027e+01  1.0800316605623189e+01  1.0828320832358342e+01  1.0730692246462686e+01  1.1446994724099948e+01  1.1493852691393403e+01  1.1481157684422266e+01  1.1449089844905025e+01  1.1503880101453419e+01  1.1481232259907474e+01  1.0811347827205118e+01  1.0851328503854772e+01  1.0956781836583131e+01  1.0812848598854639e+01  1.0832887353631767e+01  1.0818811166526428e+01  1.0790838106246420e+01  1.0828579433162762e+01  1.0847104036240156e+01  1.0878306551414603e+01  1.0884174430742897e+01  1.0866775008402401e+01  1.0888192148678153e+01  1.0880682029697605e+01  1.0862620608550696e+01  1.0851649382150166e+01  1.0840932444940584e+01  1.0933598282006702e+01  1.0988875570956944e+01  1.0985410512113750e+01  1.0879527932496542e+01  1.0843745400407077e+01  1.0869529154431076e+01  1.0878132944218933e+01  1.0886875341586423e+01  1.0983234408832192e+01  1.0898325268170593e+01  1.0842916347705559e+01  1.0806132157516261e+01  1.0790203362127414e+01  1.0837284775662555e+01  1.0793385630043312e+01  1.0810404607005214e+01  1.0829672800430814e+01  1.0863077922004821e+01  1.1475389748932184e+01  1.1431994827690575e+01  1.1432859082137149e+01  1.1424778099785383e+01  1.1564002533135085e+01  1.0805894998358463e+01  1.0927230519593076e+01  1.0944189430615820e+01  1.1324189675862661e+01  1.1394392086662851e+01  1.1364632310335388e+01  1.0885485990600756e+01  1.1490838776625464e+01  1.1441958505969723e+01  1.1499769769404729e+01  1.1596022547309596e+01  1.0664565418096101e+01  1.0760154465269050e+01  1.0819741701094589e+01  1.0858281517539274e+01  1.0848769010075348e+01  1.0812594619388596e+01  1.0800571743096294e+01  1.1052770050544792e+01  1.1052825592774052e+01  1.1001528456777516e+01  1.1022676497386724e+01  1.0994957368009000e+01  1.0798303977330283e+01  1.1055645716112004e+01  1.1061955833245330e+01  1.1092229683921088e+01  1.1133291275295353e+01  1.1090850831561662e+01  1.0975398377003287e+01  1.0988613890484189e+01  1.1009987803308842e+01  1.0993384369569437e+01  1.1311061532009640e+01  1.1337772787818979e+01  1.0930399323287837e+01  1.0903308430956793e+01  1.0914512761629267e+01  1.0897340102130149e+01  1.0944670750339466e+01  1.0941778318164509e+01  1.0917042912220657e+01  1.0910248727540116e+01  1.0970232472868320e+01  1.0989038089366565e+01  1.0872842486625807e+01  1.0902260374536112e+01  1.0835213155549841e+01  1.0795901031807286e+01  1.0796184028396835e+01  1.0818062315318759e+01  1.0801192151578951e+01  1.0773242108522940e+01  1.0841125417474373e+01  1.1366971198467157e+01  1.1494220200136528e+01  1.0742897345747206e+01  1.1083594409269475e+01  1.0843187657851676e+01  1.0836107807137816e+01  1.0916293890401956e+01  1.0890429592503311e+01  1.1204184219830001e+01  1.0942614348767211e+01  1.0880552892304836e+01  1.0922704897165847e+01  1.0952689197275591e+01  1.0958762535582482e+01  1.1061830881255185e+01  1.0862871677879513e+01  1.0792360270754420e+01  1.0820504640750336e+01  1.0965087070658853e+01  1.0976176435400847e+01  1.0956794887519596e+01  1.0974862407815124e+01  1.0952596795462908e+01  1.1367605474476035e+01  1.0955604076820089e+01  1.0975072646535672e+01  1.0879564450800121e+01  1.0856248173716702e+01  1.0856263131370872e+01  1.0824809456311780e+01  1.1098221292294895e+01  1.1355802914851495e+01  1.1077444819977083e+01  1.1067140736799796e+01  1.0871114256218011e+01  1.0861039311776580e+01  1.0899605231931119e+01  1.0875448056430200e+01  1.0813750228401293e+01  1.0781955757437583e+01  1.0863050060817013e+01  1.0843647755952070e+01  1.0829073128186762e+01  1.0863444806367403e+01  1.0825539116122275e+01  1.0854346104698690e+01  1.1291939404185291e+01  1.1308243139907553e+01  1.1314362667907755e+01  1.1283119899594938e+01  1.0827855488996343e+01  1.0821078555884030e+01  1.0824227660988052e+01  1.0839179557115113e+01  1.1289221432245821e+01  1.0943633643583844e+01  1.0968099752225068e+01  1.1275175734795782e+01  1.1269279954278835e+01  1.0969095517700165e+01  1.1320077122489860e+01  1.0945313808569610e+01  1.0939069941009031e+01  1.0913928168242785e+01  1.0834311500939991e+01  1.0805107116358588e+01  1.1193175738191032e+01  1.1180087669412762e+01  1.1175816170736649e+01  1.1189378901491621e+01  1.0736709226738736e+01  1.0889545865357102e+01  1.1208703142328710e+01  1.1147028752292650e+01  1.1158912377433703e+01  1.1164769317043159e+01  1.1156555217924861e+01  1.1163809292352147e+01  1.1174947181649051e+01  1.1165633279224201e+01  1.1173030668958960e+01  1.1190121794380136e+01  1.1163258304692809e+01  1.1006364124679958e+01  1.1001508525622132e+01  1.1011581880560005e+01  1.1003283468538047e+01  1.0996675174743482e+01  1.0988946463640826e+01  1.0994325701026064e+01  1.0999628830059246e+01  1.1007875753917103e+01  1.1016469204643663e+01  1.1138973777823791e+01  1.1174693446694260e+01  1.1159084091690563e+01  1.1129515545903899e+01  1.1123324321541629e+01  1.1164035981067654e+01  1.1147803187685613e+01  1.1178245880953311e+01  1.1193747598552507e+01  1.1206808647222447e+01  1.1045258095563085e+01  1.1023737247237536e+01  1.1033220543453398e+01  1.1020658254735670e+01  1.1035890653089478e+01  1.1030196944738979e+01  1.1013588279436155e+01  1.0977983826912824e+01  1.1003469488593447e+01  1.1023407611399920e+01  1.0950472819163029e+01  1.0935330166174539e+01  1.0911154950339848e+01  1.0943836899927117e+01  1.0940554265335905e+01  1.0907107966455348e+01  1.0914592700748694e+01  1.0885996104057998e+01  1.0931267965099044e+01  1.0939665381459340e+01  1.1321382055313377e+01  1.1315432574973913e+01  1.1354206784862928e+01  1.1336704767516586e+01  1.1346279001580243e+01  1.1346339102652914e+01  1.1330122421425642e+01  1.1363388827331454e+01  1.1378201686618716e+01  1.1311690688457791e+01  1.0909631437079966e+01  1.0929442692456359e+01  1.0932959855186013e+01  1.0938892463841059e+01  1.0964117152415545e+01  1.0953016429705533e+01  1.0960384967511988e+01  1.0953671968008424e+01  1.0949354103753150e+01  1.0947878260005426e+01  1.1121363688036830e+01  1.1109262741124320e+01  1.1093018498021431e+01  1.1104522169151577e+01  1.1112097297842570e+01  1.1126209458879593e+01  1.1101416954861742e+01  1.1113098565708091e+01  1.1131064489349004e+01  1.1084763652154907e+01  1.1141696394620508e+01  1.1137251955814365e+01  1.1137897316973920e+01  1.1156302252288194e+01  1.1143703115578173e+01  1.1148261951466983e+01  1.1157992303770611e+01  1.1159109529328656e+01  1.1142351468347099e+01  1.1128754552535439e+01  1.1433784795053132e+01  1.1455116143126023e+01  1.1439932027768055e+01  1.1463787072457027e+01  1.1498814046586089e+01  1.1493047635263277e+01  1.1480329553305115e+01  1.1455632269171506e+01  1.1471172646178173e+01  1.1485667946138255e+01  1.1260616440579582e+01  1.1287367848998434e+01  1.1289310414380365e+01  1.1303025984938714e+01  1.1347449921215372e+01  1.1328856392847323e+01  1.1330563157964500e+01  1.1318094550965647e+01  1.1316712199572498e+01  1.1312866955182660e+01  1.1106906313945251e+01  1.1106253240789288e+01  1.1097142996154272e+01  1.1093816560802857e+01  1.1123169231822038e+01  1.1118389145633108e+01  1.1108993623978265e+01  1.1113520492937436e+01  1.1082367124965293e+01  1.1366342172298181e+01  1.1374783921292208e+01  1.1346458559125713e+01  1.1367435809236074e+01  1.1394540540120026e+01  1.1370178445270289e+01  1.1350483432531924e+01  1.1393492161387890e+01  1.1418830636877310e+01  1.1329928585069771e+01  1.0925488122786492e+01  1.0937880376154737e+01  1.0947348377820919e+01  1.0920970794050538e+01  1.1357537005133121e+01  1.1353949585299073e+01  1.1342186416480533e+01  1.1380046979529844e+01  1.1373456816514397e+01  1.1383381131728401e+01  1.1390998810757875e+01  1.1399128795873386e+01  1.1363749783895182e+01  1.1332384376490566e+01  1.1128259065518842e+01  1.1156584873181218e+01  1.1115961646084189e+01  1.1158905725483901e+01  1.1189488339108621e+01  1.1186441581998601e+01  1.1139587850404425e+01  1.1103667987381780e+01  1.1144154637608336e+01  1.1180460740705259e+01  1.1059360628001754e+01  1.1046368075859538e+01  1.1097356897674263e+01  1.1055152027228020e+01  1.1049949619184741e+01  1.1083115502310637e+01  1.1043953906278144e+01  1.1092878486266223e+01  1.1038201462291665e+01  1.1119950953357597e+01  1.1140455827615792e+01  1.1131477709738991e+01  1.1114455091288502e+01  1.1148267177852128e+01  1.1104362512282060e+01  1.1174135824645326e+01  1.1088583348836261e+01  1.1098419046769340e+01  1.1108835475750457e+01  1.0973708795038668e+01  1.1004686034291034e+01  1.1014255264083957e+01  1.1011215628324091e+01  1.0965223108730704e+01  1.1021408422542395e+01  1.0957881048043289e+01  1.1236060268074093e+01  1.1221730325804577e+01  1.1249065948862871e+01  1.1237190277946032e+01  1.1240908960806282e+01  1.1228488545159562e+01  1.1254974790901167e+01  1.1263768293738206e+01  1.1237821542194702e+01  1.1213412929652012e+01  1.1122793871602331e+01  1.1089129060594965e+01  1.1085442388798723e+01  1.1078616271242684e+01  1.1039020353303064e+01  1.1051291396549729e+01  1.1045758594239835e+01  1.1052447822522950e+01  1.1060412282819250e+01  1.1060156254177238e+01  1.1155301294384445e+01  1.1153754435611095e+01  1.1154546701078035e+01  1.1160077299764389e+01  1.1150785265981209e+01  1.1162448942121440e+01  1.1158414067744635e+01  1.1144544422038265e+01  1.1161858507533024e+01  1.1008110111173233e+01  1.1099037804604343e+01  1.1105323971930048e+01  1.1045152106699126e+01  1.1055011845936521e+01  1.1064381936264319e+01  1.1098197583119074e+01  1.1111676570244331e+01  1.1087342870477435e+01  1.1189875592446940e+01  1.1188102119699018e+01  1.1188651687470662e+01  1.1210529989995791e+01  1.1206260462998332e+01  1.1174941279692991e+01  1.1223883136305410e+01  1.1221353209912602e+01  1.1217861220963945e+01  1.1177680770996565e+01  1.1156906692011548e+01  1.1165531329236764e+01  1.1144217870817890e+01  1.1147264223597267e+01  1.1155255565150762e+01  1.1165211461513719e+01  1.1183536400911883e+01  1.1201761588496623e+01  1.1327187934627785e+01  1.1297333543986758e+01  1.1301839154649436e+01  1.1304571516351727e+01  1.1319996878833019e+01  1.1315298432205914e+01  1.1293231045603516e+01  1.1279981659475022e+01  1.1277718096333057e+01  1.1274423550900289e+01  1.1137974702773093e+01  1.1139366102382587e+01  1.1143913476983412e+01  1.1137842716814035e+01  1.1143645632634980e+01  1.1137949508132516e+01  1.1150436952008663e+01  1.1145722437309328e+01  1.1139809081324229e+01  1.1138002499781207e+01  1.1133611819922947e+01  1.1135141079387626e+01  1.1145526770658304e+01  1.1141398307980392e+01  1.1152638295612508e+01  1.1148639809756684e+01  1.1144675504843114e+01  1.1158561320611527e+01  1.1159018230504806e+01  1