<?xml version="1.0"?>
<VTKFile type="UnstructuredGrid"  version="0.1"  >
<UnstructuredGrid>
<Piece  NumberOfPoints="10753" NumberOfCells="48581">
<Points>
<DataArray  type="Float64"  NumberOfComponents="3"  format="ascii">35.62426 8.622714 28.445824  35.90469414019357 9.867885490401937 27.71601817596822  36.23984124294849 9.28978590380216 28.18542349490531  35.95214624294849 9.77088440380216 28.40878899490531  36.85542248589698 9.956857807604321 27.92502298981062  36.649033 8.135249 27.375919  36.3177832276536 9.480057270867494 27.20075758320257  37.05225524294849 9.465919403802161 27.06629999490531  36.75222774294849 9.04605340380216 27.65047099490531  36.1366465 8.3789815 27.9108715  39.35716501151254 25.04498414457844 33.64860760887115  39.07934484604513 25.20857030367065 31.94397843636111  38.67268879234467 25.74805891806471 32.28868385337699  38.67238555862674 24.99448897199212 32.79743894462068  39.35746824523046 25.79855409065103 33.13985251762746  39.76412429893093 25.25906547625697 32.79514710061157  39.35777147894839 26.55212403672363 32.63109742638377  39.76442753264886 26.01263542232957 32.28639200936788  40.17108358634933 25.4731468079355 31.94168659235199  37.98760610574094 24.9439937994058 31.94627028037022  39.193413 22.264111 22.170202  38.66113588419552 23.10060386894043 22.09441395162234  39.50347184800951 23.05651124644511 22.28152405699633  38.86501038419551 22.68330286894043 22.49110995162234  38.98953849999999 22.681412 21.773506  38.785664 23.098713 21.37681  39.29959734800951 23.47381224644511 21.88482805699632  38.53660776839104 23.10249473788086 22.81201790324469  39.17506923220503 23.47570311538554 22.60243200861867  39.81353069601903 23.84891149289022 22.39284611399265  38.94203992253185 23.24503650405167 26.55372739824398  38.57486200067667 23.78393452362141 26.96920373020786  38.66189676002405 23.96962891837633 26.21794591721132  39.25383778102469 24.02499791539682 26.84455013379733  39.56563563951753 24.80495932674198 27.13537286935068  38.88665985916951 24.56389593496657 27.2600264657612  38.97369461851689 24.74959032972149 26.50876865276467  38.38175359751624 24.69422133270099 25.88216443617865  38.29471883816887 24.50852693794607 26.63342224917519  38.2076840788215 24.32283254319116 27.38468006217173  38.330929 23.99847 20.341179  38.44213121914052 24.50503011188376 21.31213851146794  37.91967870309882 25.11176120533347 20.91890147736775  38.63905369123708 24.47153714768926 20.6307167718417  38.13400652790344 24.03196296419449 21.02260073962625  37.61155401186175 24.6386940576442 20.62936370552605  36.8921790237235 25.27891811528841 20.9175484110521  37.41463153976519 24.6721870218387 21.3107854451523  37.93708405580688 24.06545592838898 21.7040224792525  38.94717838247416 24.94460429537853 20.92025454368339  39.58477814360303 23.82545742998073 31.84811075464803  40.56027110893783 23.56984956862148 31.90771641595902  40.25208084077222 24.03982780399929 32.16271372916356  40.25872601798337 23.18011352107194 32.28900049246096  39.89296841176863 23.35547919460293 31.59311344144349  40.93267389236371 22.53476961216315 32.72989023027388  40.92602871515257 23.3944838950905 32.60360346697648  40.56691628614897 22.71013528569413 32.03400317925642  40.20115867993423 22.88550095922512 31.33811612823895  40.91938353794142 24.25419817801784 32.47731670367908  41.994511 25.868708 25.803722  41.25515748879911 26.5921449477831 25.93189437414247  41.44517486015688 26.48830967392438 25.1395301564706  42.2058375 26.5021 25.8002555  42.417164 27.135492 25.796789  41.46648398879911 27.22553694778309 25.92842787414247  41.65650136015688 27.12170167392438 25.1360636564706  40.89583872031375 27.10791134784876 24.4753383129412  40.70582134895599 27.21174662170748 25.26770253061307  40.51580397759823 27.31558189556619 26.06006674828495  37.831463 25.569685 27.730474  38.69854931975877 25.18732216337099 27.43292343467534  38.68308204363407 25.66636985450388 27.95930945250816  38.1498755 25.9999325 27.5820605  38.468288 26.43018 27.433647  39.01696181975876 25.61756966337099 27.28450993467534  39.00149454363407 26.09661735450388 27.81089595250815  39.53470108726814 25.76305470900776 28.18814490501631  39.55016836339284 25.28400701787487 27.6617588871835  39.47011650786611 23.66275344051735 24.3338468067267  37.97196607767438 24.05580565470289 25.10771685785068  38.92593505269117 24.17848738660917 25.10800562145268  38.73516206473903 24.34758047241149 24.38516148580428  38.51614753284932 23.54007170861107 24.33355804312471  38.00020762161195 25.03240750430563 24.43647616488186  38.19098060956409 24.86331441850331 25.15932030053026  37.78119308972224 24.22489874050521 24.38487272220229  37.56217855783253 23.41738997670479 24.33326927952271  40.63612853004211 24.99215075037194 21.07983615811466  39.33615752722086 25.35455143984073 21.99444740161332  39.3803545392466 24.39675789413437 21.65655032883802  39.79165345625813 24.96837752287524 21.00004535089902  40.22482961303057 24.42053112163108 21.73634113605365  40.18063260100485 25.37832466733744 22.07423820882896  39.7693336839933 24.80670503859658 22.73074318676795  39.72513667196758 25.76449858430293 23.06864025954326  37.694981 26.436401 25.319096  38.23791020306904 26.37663654665996 24.96260581271437  37.9663585 26.976571 24.9757795  38.168608 26.946991 25.3392405  38.642235 27.457581 25.359385  38.71153720306904 26.88722654665996 24.98275031271437  38.4399855 27.487161 24.995924  38.237736 27.516741 24.632463  38.50928770306904 26.91680654665996 24.61928931271437  38.78083940613809 26.31687209331992 24.60611562542875  36.026501 23.452587 22.171204  36.02329049552228 24.29046432370199 21.45583086441358  36.14757 23.477872 21.5787195  35.7252735 23.8129875 21.250788  35.90222149552228 24.26517932370199 22.04831536441358  35.6042045 23.7877025 21.8432725  36.268639 23.503157 20.986235  39.705772 21.458681 22.882315  40.09237211489723 21.58720590859485 23.5143582183276  40.42093250000001 21.3774385 23.009428  40.12531250000001 20.77863 23.311803  40.544853 20.098579 23.741291  40.51191261489723 20.90715490859485 23.9438462183276  40.840473 20.6973875 23.438916  41.136093 21.296196 23.136541  40.80753261489723 21.50596340859485 23.6414712183276  40.47897222979445 21.7157308171897 24.1464014366552  37.237732 24.848763 27.249798  37.80974279875812 24.77149216635049 26.56598121808933  37.057215 24.8811915 26.451028  37.474102 25.299228 26.941768  37.710472 25.749693 26.633738  37.62922579875811 24.80392066635049 25.76721121808933  38.04611279875812 25.22195716635049 26.25795121808932  37.293585 25.3316565 26.142998  36.876698 24.91362 25.652258  40.98074448240207 23.96954569274459 24.87667423646322  39.9881769346438 23.7287119215193 25.0615837496869  39.94605461176023 24.47720546521755 24.83149139359889  40.46268405562439 23.90358721174264 24.14893729350302  41.45525160338266 24.14442098296793 23.96402778027933  40.9386221595185 24.71803923644284 24.6465818803752  40.42199271565435 25.29165748991775 25.32913598047107  40.46411503853792 24.5431639462195 25.55922833655909  40.50623736142149 23.79467040252126 25.78932069264711  40.466816 27.061012 32.449123  40.43462317911538 26.69759610174268 31.83825002285505  40.8246955 27.103156 31.91637  40.8399295 26.5631635 32.200058  41.213043 26.065315 31.950993  40.80773667911538 26.19974760174268 31.58918502285506  41.197809 26.6053075 31.667305  41.182575 27.1453 31.383617  40.79250267911537 26.73974010174268 31.30549702285505  40.40243035823075 26.33418020348535 31.22737704571011  36.84515 22.598154 23.084196  38.02940638419552 22.40810736894043 23.17849645162234  37.66850376286716 22.33623717598429 23.43658872608896  37.69087888419551 22.85032436894043 22.94810695162234  37.1836775 22.155937 23.3145855  37.522205 21.71372 23.544975  38.00703126286716 21.89402017598429 23.66697822608896  38.51423264706268 22.58840754492472 23.3004996777113  38.49185752573432 22.07432035196857 23.78898145217791  38.21745702496649 26.67613590763501 21.43649392868757  38.2042968850307 26.39090336131758 22.77329047378002  37.73624530172704 26.64793489664533 22.22718297832343  38.08467735398591 26.0674050634483 22.03230592411542  38.33707655601128 26.99963420550429 22.17747847835216  38.45669608705607 27.32313250337357 22.91846302801676  37.85586483277183 26.97143319451461 22.96816752798803  37.95189768300533 25.45867421926159 22.62811791954327  37.60346563074646 26.03920405245862 22.82299497375129  37.25503357848759 26.61973388565566 23.0178720279593  40.622021 24.49613 28.530874  40.29109304363407 25.40227435450388 28.51617645250816  40.940582 24.9606245 28.338436  40.72785 24.6879425 28.181769  40.07836104363407 25.12959235450388 28.35950945250816  40.834753 24.768812 28.687541  41.047485 25.041494 28.844208  40.833679 24.879755 27.832664  40.18419004363407 25.32140485450388 28.01040445250815  35.289272 24.480686 22.549236  35.71264399552228 24.96606032370199 22.67532836441357  36.17147222776895 24.60938508010018 22.98869483646828  35.99243522776895 24.42255358010017 22.55069783646828  35.53360699552228 24.77922882370199 22.23733136441358  35.468309 24.6675175 22.987233  35.647346 24.854349 23.42523  36.6955984555379 24.36442116020035 22.55215967293655  36.23677022329123 24.72109640380216 22.23879320088185  35.77794199104456 25.07777164740398 21.92542672882715  38.023685 26.161913 28.565058  38.51114255895251 25.61264927567348 29.32951000140681  38.77919304363407 25.96248385450388 28.37660145250815  38.46059560014925 25.05541809768093 28.52358136092541  38.89750620029849 23.94892319536186 28.48210472185081  39.26665060258658 25.41322013017736 29.14105345391496  38.94805315910175 24.50615437335441 29.28803336233221  39.21610364378331 24.85598895218481 28.33512481343356  38.99860011790501 25.06338555134696 30.09396200281361  39.90055867778939 21.87331222181334 27.56084860832636  39.10026932931265 22.6706090035334 28.08521576408621  39.09070083607137 22.85989152413979 27.41030343254152  39.08234160966121 22.15122435290296 27.5264919673
[...]
<PointData  Scalars="p"> 
<DataArray  type="Float64"  Name="p"  format="ascii">9.1704283041062702e+00  9.1935079541676270e+00  9.1303167681685764e+00  9.1304040577322603e+00  9.0947994154750358e+00  9.2144209821981011e+00  9.2143224720481278e+00  9.1578674705936880e+00  9.1371760541820848e+00  9.1863352628614656e+00  8.8559357153635698e+00  8.8638015759979503e+00  8.8752825647817364e+00  8.8761769684392107e+00  8.8626646724083535e+00  8.8483761472063218e+00  8.8650722623246327e+00  8.8560502680655819e+00  8.8461396541420410e+00  8.8870563023842912e+00  8.9423915552251483e+00  8.9594669578567263e+00  8.9470907433467204e+00  8.9465205859609647e+00  8.9547021081655007e+00  8.9692409269392890e+00  8.9590029326500762e+00  8.9498426411123315e+00  8.9496947051512752e+00  8.9487264730436937e+00  8.8991083541456177e+00  8.8958240275524556e+00  8.9048712653854771e+00  8.8944125053282193e+00  8.8878792493338707e+00  8.8900029119546726e+00  8.8987202391088385e+00  8.9114800573634518e+00  8.9009216654749626e+00  8.8917323763638123e+00  9.0093361929315936e+00  8.9916252691676704e+00  9.0150861036985130e+00  9.0011902596715991e+00  8.9987144817134457e+00  9.0246288591373460e+00  9.0385643758425385e+00  9.0128521850121164e+00  8.9883969806578872e+00  8.9932374151229606e+00  8.8411232011030787e+00  8.8102111117010331e+00  8.8223276005095226e+00  8.8051372257372957e+00  8.8314618952390180e+00  8.7503010372222345e+00  8.7759053747155669e+00  8.7926859010983787e+00  8.8243110165767717e+00  8.8018684723297174e+00  8.8885496554159946e+00  8.8784295253511996e+00  8.8883577876911879e+00  8.8773029163874231e+00  8.8626742604198068e+00  8.8662125852634812e+00  8.8762670132224155e+00  8.8948518713318201e+00  8.8838548659031193e+00  8.8731993234307840e+00  8.8852429786146683e+00  8.8868443505330958e+00  8.8786695736312868e+00  8.8836100701427263e+00  8.8807417554191730e+00  8.8850301041678108e+00  8.8759596950054434e+00  8.8718685691795631e+00  8.8797620900822665e+00  8.9242268935224782e+00  8.9256759348586314e+00  8.9188417940745097e+00  8.9317428260886018e+00  8.9308530171996026e+00  8.9409927004681986e+00  8.9252242505746544e+00  8.9405091541865112e+00  8.9378091854896766e+00  8.9638903635018643e+00  8.9683816646140802e+00  8.9691491987884984e+00  8.9772555672911523e+00  8.9570013956402477e+00  8.9541055343702602e+00  8.9481019435687355e+00  8.9437167191893323e+00  8.9290550336807986e+00  8.9289586830194310e+00  8.9326421487018557e+00  8.9199422464808880e+00  8.9072885820084977e+00  8.9195259572116630e+00  8.9204352514208072e+00  8.9342102347193482e+00  8.9309255647013917e+00  8.9283395732434805e+00  9.0022391876166559e+00  9.0327525101389519e+00  9.0162686558819232e+00  9.0385229582636093e+00  9.0191554791331860e+00  9.0238851904714092e+00  9.0309506588857271e+00  8.9223039640845769e+00  8.9163028888045091e+00  8.9164169980328705e+00  8.9101823334851531e+00  8.9000835274020655e+00  8.9056713674412418e+00  8.9059040040481943e+00  8.9119665858934187e+00  8.9115437808987004e+00  8.9105144466072179e+00  8.8958812693273845e+00  8.9042147382526711e+00  8.9096219835966046e+00  8.8993762039928033e+00  8.9024313961936983e+00  8.9189453371571386e+00  8.9073990316393452e+00  8.9143639662549763e+00  8.9275831537365544e+00  8.9109525262273230e+00  8.9124347668409118e+00  8.9157761005568332e+00  8.9207742668641412e+00  8.9181265497870168e+00  8.9120507911433009e+00  8.9040513848655305e+00  8.9042761177783643e+00  8.9028539492397183e+00  8.8552736473329858e+00  8.8520019631130022e+00  8.8511346571491440e+00  8.8494022795687197e+00  8.8424265450035353e+00  8.8471479583235499e+00  8.8479640784483777e+00  8.8477101375061000e+00  8.8493295013913187e+00  8.8511362756906955e+00  8.9558787930673045e+00  8.9411972688423642e+00  8.9393065496857833e+00  8.9536309717491704e+00  8.9418018801841583e+00  8.9301242164841543e+00  8.9289358936349181e+00  8.9377564375933201e+00  8.9268908809555789e+00  9.0068413992945864e+00  8.9770055221436245e+00  9.0006006810682635e+00  8.9939671576342111e+00  8.9891643483899699e+00  8.9705185138705996e+00  8.9825409894927688e+00  8.9803228507172577e+00  8.9862050714010628e+00  8.9928383895234134e+00  8.8694961055707786e+00  8.8671190104779658e+00  8.8682238728086862e+00  8.8730733425150241e+00  8.8709792474836071e+00  8.8652250669946824e+00  8.8616104534796847e+00  8.8760142375571718e+00  8.8730496883274341e+00  9.0196096906102898e+00  9.0148424787019525e+00  8.9946190979382052e+00  9.0063490264759487e+00  9.0276886792830808e+00  9.0066368633876355e+00  8.9945597863153690e+00  8.9937722164566747e+00  9.0136041937334781e+00  9.0348949527782754e+00  8.8724300118045303e+00  8.8701932163823241e+00  8.8727214433281478e+00  8.8771171476474784e+00  8.8781520966792531e+00  8.8676937042419688e+00  8.8705048012118795e+00  8.8761850581070121e+00  8.8656718351393629e+00  8.8828706914383346e+00  8.8821379158812039e+00  8.8890966136216534e+00  8.8878152981926561e+00  8.8853970035617209e+00  8.8778604266435615e+00  8.8872877568629072e+00  8.8797106558631658e+00  8.8919360308214568e+00  8.8717566906716048e+00  8.8910084539215060e+00  8.8955333545823176e+00  8.9012993665292637e+00  8.9872983791790286e+00  9.0000829912494442e+00  8.9720197006365794e+00  8.9613753613321290e+00  8.7306457235319836e+00  8.7914188466141532e+00  8.7709557761170363e+00  8.7361988300578215e+00  8.7604774450408058e+00  8.7871211940256373e+00  8.7638259880699447e+00  8.8885369850381117e+00  8.8797987442896353e+00  8.8826353835626755e+00  8.8736842294246401e+00  8.9404848307740217e+00  8.9397141097044859e+00  8.9362530658090655e+00  8.9355169881343350e+00  8.9454778931526882e+00  8.9330587713442178e+00  8.9260669532624952e+00  8.9282077578229178e+00  8.9305690435271554e+00  8.9300392263002291e+00  8.9398462625441155e+00  8.9411389993624546e+00  8.9315717601861770e+00  8.9382630573495589e+00  8.9322820214529308e+00  8.9479377906108120e+00  8.9332214670767343e+00  8.9321931840344320e+00  8.9320120122886397e+00  8.9121594335710217e+00  8.9174278910609406e+00  8.9213597646096172e+00  8.9143127238705624e+00  8.9180968894707497e+00  8.9151604509291431e+00  8.9252067339140559e+00  8.9189547334010690e+00  8.9152586956526960e+00  8.9155323540134823e+00  8.9255359914953054e+00  8.9477290275546277e+00  8.9305439929037504e+00  8.9237127533475462e+00  8.9237042173603633e+00  8.9441104912875478e+00  8.9293123864904658e+00  8.9465943553377745e+00  8.9155708956807675e+00  8.8985544297594821e+00  8.9085734672753958e+00  8.8962921350876716e+00  8.8941377781095419e+00  8.9038587099534272e+00  8.9093078558078460e+00  9.0186120522068762e+00  9.0450364268196743e+00  9.0542626073459704e+00  9.0290612099344170e+00  9.0375766364775441e+00  9.0464209320516051e+00  8.9268223320743267e+00  8.9265645567087741e+00  8.9232820771751555e+00  8.9277847428001298e+00  8.8140924732795973e+00  8.8291590410976397e+00  8.7816338583654385e+00  8.8150263221966085e+00  8.9365691969793346e+00  8.9405256910867941e+00  8.9310436983662491e+00  8.9422435738763077e+00  8.9306313904822652e+00  8.9364024080664262e+00  8.8732657985031071e+00  8.8768720641573058e+00  8.8875996900073257e+00  8.8866450988650350e+00  8.8853977353061442e+00  8.8796896757617105e+00  8.8895058513680070e+00  8.8832118949923959e+00  8.8833691267122159e+00  8.8791732957957770e+00  8.8846761378889578e+00  8.9662836113653501e+00  8.9630124698388034e+00  8.9851378360280290e+00  8.8666051749758399e+00  8.8670491193041592e+00  8.8758448227958464e+00  8.8703493070823374e+00  8.8588888979429168e+00  8.8511801685380309e+00  8.8634174783994180e+00  8.8770519915874306e+00  8.8833667917575436e+00  9.0022322492408531e+00  8.9913313088814029e+00  9.0144895974150998e+00  8.9791842071303787e+00  8.9876447107827477e+00  8.8618951555249499e+00  8.8672744353098540e+00  8.8581351431532784e+00  8.8703299566162830e+00  8.8752663018870184e+00  8.8683986433581712e+00  8.8551627034174683e+00  8.8637429073300726e+00  8.9197368884859856e+00  8.9176981160508078e+00  8.9269119035001854e+00  8.9238700613143696e+00  8.9251768478679772e+00  8.9279805915058699e+00  8.9328471706346146e+00  8.9269265687482786e+00  8.9326575327495554e+00  8.9254418517144476e+00  8.9216246605507568e+00  8.9034758690569067e+00  8.9049518697090910e+00  8.9050991786880331e+00  8.9072649636365959e+00  8.9015524416983904e+00  8.8996000741418850e+00  8.8972897622660216e+00  8.8967081956034360e+00  8.8973443642961350e+00  8.9122817509101999e+00  8.9830641900831267e+00  9.0007013324198955e+00  8.9833254063690013e+00  8.9998355914336692e+00  8.9714562279110002e+00  8.9880528667272355e+00  9.0056781652041966e+00  8.9049496639146106e+00  8.9056840883987736e+00  8.9004660787734853e+00  8.9031509362306966e+00  8.9098157687306188e+00  8.8986100111569488e+00  8.9075458900393212e+00  8.8494394508796930e+00  8.8557528072347065e+00  8.8538538395894815e+00  8.8557220308080709e+00  8.8616141685651559e+00  8.8576766827774307e+00  8.8542974095741585e+00  8.8608370708680653e+00  9.0054884421603933e+00  8.9927781520466556e+00  9.0083643964809852e+00  8.8736571125866170e+00  8.8750236388885391e+00  8.8768207512411763e+00  8.8756682939524332e+00  8.8779752286895821e+00  8.8782001815415512e+00  8.8797276071629767e+00  8.8839956535230833e+00  8.8811515124370928e+00  8.8774271687666140e+00  8.8604369619973173e+00  8.8551204757913080e+00  8.8561893673895788e+00  8.8517562862218409e+00  8.8614166155154450e+00  8.8400306780589997e+00  8.8496577282914952e+00  8.8619474720928455e+00  8.9307817185821481e+00  8.9480025233256359e+00  8.9334672761914273e+00  8.9325838958392048e+00  8.9754337870265744e+00  8.9761586537851006e+00  8.9756382791532552e+00  8.9673941362829677e+00  8.9853277015488544e+00  8.9592097615729340e+00  8.9659431981130915e+00  8.9596126790896999e+00  8.9391104405027093e+00  8.9551357557110265e+00  8.9365879623988409e+00  8.8290868476356099e+00  8.8130313884153271e+00  8.8224824951250191e+00  8.8286009008390476e+00  8.8806940349727004e+00  8.8736554539837318e+00  8.8843038929958613e+00  8.8725320081682835e+00  8.8669154831798078e+00  8.8692634614508279e+00  8.8430511640252725e+00  8.8490457761627557e+00  8.8442483440299782e+00  8.8400589360283401e+00  8.8463106451583240e+00  8.8473456088105813e+00  8.8380867439560138e+00  8.8826681169815060e+00  8.8815604175402498e+00  8.8845002947625247e+00  8.8864350179596965e+00  8.8624704308652742e+00  8.8666740999313589e+00  8.8583788798308216e+00  8.8709558637850066e+00  8.8700308833112143e+00  8.8757267386178054e+00  8.8749176090918169e+00  8.9067492313625856e+00  8.9195786795444825e+00  8.9100793093115751e+00  8.9128798925239838e+00  8.9158147303031328e+00  8.9248653358131413e+00  8.9199963346611000e+00  8.9150930638587802e+00  8.9266183306955309e+00  8.9172814817862509e+00  8.9434433520071064e+00  8.9473056846221120e+00  8.9561752679727054e+00  8.9430310003088849e+00  8.8823072022849896e+00  8.8742248757327999e+00  9.0224811491344692e+00  9.0165338821099699e+00  8.9879502148587029e+00  8.9596132543409261e+00  8.9700430311781520e+00  8.9538003075789376e+00  8.9539598181298352e+00  8.9202805517938231e+00  8.9078601262232002e+00  8.9228460047104807e+00  8.9098618999787895e+00  8.9227488089886364e+00  8.9551107023797396e+00  8.9579228379790568e+00  8.9584729186600498e+00  8.9685680514399895e+00  8.9659488553209670e+00  8.9685891939728428e+00  8.9665278728372009e+00  8.9653560732457844e+00  8.8380054706358990e+00  8.8554709241742309e+00  8.8493537175603141e+00  8.8468613457332186e+00  8.8488940488290098e+00  8.8419909918400013e+00  8.8475393351697260e+00  8.8529539790928311e+00  8.8585452701735345e+00  8.9096757023192410e+00  8.9006395921524444e+00  8.9112747559055236e+00  8.9009971011728908e+00  8.9462674845540828e+00  8.8962111191063347e+00  8.8961992570576491e+00  8.8957482502229155e+00  8.9004119530473655e+00  8.8918437453110677e+00  8.8913562858359700e+00  8.8967259742691223e+00  8.9012247280026457e+00  8.8913769197636654e+00  8.9100874575184239e+00  8.9143330441299664e+00  8.9145679961807396e+00  8.9132006708973233e+00  8.9126824282582415e+00  8.9112525848646609e+00  8.9113626067362350e+00  8.9159153560744784e+00  8.9162953868148023e+00  8.8612413919784210e+00  8.8629710858814263e+00  8.8645816908780226e+00  8.8658599546095971e+00  8.8608265620664373e+00  9.0113164994705439e+00  9.0357646399130811e+00  9.0372430957700658e+00  8.8662324229907412e+00  8.8641448425137561e+00  8.8608886219322596e+00  8.8631541667917038e+00  8.8677204766236990e+00  8.8678396643084145e+00  8.8621084777965464e+00  8.8586538562432704e+00  8.9627137867730369e+00  8.9677748303194154e+00  8.9623528638028098e+00  8.9745532534955483e+00  8.9865050370992403e+00  8.9791372612266791e+00  8.9739175246841381e+00  8.9609729125376205e+00  8.9663462616568701e+00  8.8894565665869454e+00  8.8883993799790062e+00  8.8823735475561936e+00  8.8929528223054994e+00  8.8945107241126191e+00  8.8990871126128042e+00  8.9026195500343697e+00  8.9007427653037130e+00  8.8967647564421473e+00  8.8932641042415721e+00  8.9010298566790294e+00  8.8967935231495794e+00  8.9061746416443377e+00  8.8519728909844844e+00  8.8608263358509873e+00  8.8663232369908993e+00  8.8558112295973928e+00  8.8616331371471357e+00  8.8619812156546036e+00  8.9283306456878098e+00  8.9269951056933508e+00  8.9366832618410292e+00  8.9289660679280853e+00  8.9393729496570895e+00  8.8196139120161767e+00  8.8040862525834882e+00  8.7847150939138530e+00  8.8187315851820607e+00  8.8225945314101057e+00  8.8105289277889263e+00  8.7934617742604626e+00  8.7491603612133595e+00  8.7789478750260805e+00  8.8669364183002788e+00  8.8563313015255059e+00  8.8584956770764691e+00  8.8599598032896623e+00  8.8667641969171314e+00  8.8495751601118098e+00  8.8517326441471571e+00  8.8662178348108345e+00  8.8491443610454947e+00  8.8468231346959598e+00  8.8389195972891823e+00  8.8564180590975496e+00  8.9600228415713961e+00  8.9508264400697204e+00  8.9655573677695362e+00  8.9552033125973836e+00  8.9763619504573935e+00  8.9529679515897627e+00  8.9488713381046683e+00  8.9384589195354032e+00  8.9464258739558868e+00  8.9572690502047987e+00  8.9044481788189689e+00  8.9090293918796881e+00  8.8999017063474177e+00  8.9055738905951021e+00  8.9114818535472153e+00  8.9183494720747873e+00  8.9143674222846805e+00  8.9088346472670121e+00  8.9358531178642586e+00  8.9276700735788914e+00  8.8987372933598490e+00  8.9081196602348260e+00  8.8864370137142643e+00  8.8961013257768560e+00  8.8939991220259973e+00  8.9031295226865534e+00  8.9007466963872783e+00  8.9089826700916603e+00  8.8951150933616301e+00  8.8760518022458985e+00  8.8715899346570701e+00  8.8721346417015692e+00  8.8736945869458559e+00  8.8740996486395822e+00  8.8735584210756713e+00  8.8716645281776074e+00  8.8655497621556449e+00  8.8830143122027962e+00  8.8729732372978223e+00  8.8815912279888263e+00  8.8775270010227274e+00  8.8736049724835109e+00  8.8793823283324453e+00  8.9216635841368301e+00  8.9281305378602092e+00  8.9215324043299997e+00  8.9237856399750601e+00  8.9261723997971245e+00  8.9202140846845399e+00  8.9189291410947398e+00  8.9235456315042381e+00  8.7904745908205015e+00  8.8318553084739797e+00  8.8319558337521364e+00  8.8075477019833954e+00  8.8234825259338159e+00  8.8283317325998087e+00  8.8430249052366143e+00  8.8418612808752020e+00  8.9254417880772170e+00  8.9361747016044824e+00  8.9241070554965045e+00  8.9362849388284271e+00  8.9215945120869034e+00  8.9364278627046598e+00  8.9590914795847816e+00  8.9414840747083382e+00  8.9291154667719610e+00  8.9361803535107764e+00  8.8855058853494384e+00  8.8761943364534766e+00  8.8799763023739757e+00  8.8768861722032160e+00  8.8785501560170790e+00  8.8766232639654845e+00  8.8763595783802529e+00  8.8723748332081183e+00  8.8708712704767816e+00  8.9200792937629299e+00  8.9177287957329749e+00  8.9238498456587116e+00  8.9125631128410845e+00  8.9145081447151799e+00  8.9092586271362180e+00  8.9141822106746531e+00  8.9079474009390704e+00  8.9201777757970149e+00  8.8748952421760663e+00  8.8700523807316607e+00  8.8705923842488428e+00  8.8754879860683893e+00  8.8772201284676786e+00  8.8808395567788097e+00  8.8776258638544459e+00  8.8758891812756104e+00  8.9364959847980465e+00  8.8851846354611492e+00  8.8790277089604555e+00  8.8815778209571086e+00  8.8795612261643164e+00  8.8842142722431863e+00  8.8710224022504747e+00  8.8825506081653351e+00  8.8890382557019656e+00  8.8759181403055685e+00  8.8764072824805673e+00  8.8769079732417868e+00  8.9760764858082158e+00  8.9857511339238059e+00  9.0296208152056128e+00  9.0217366995296846e+00  9.0235887294139214e+00  9.0082216290494497e+00  9.0114274932527341e+00  8.8508284112107880e+00  8.8585654639464266e+00  8.9580701035860990e+00  8.9546615337094622e+00  8.9822234216339645e+00  8.9503688836321622e+00  8.8480462610870276e+00  8.8486265527207149e+00  8.8478994233507411e+00  8.8478336486643858e+00  8.8502588245421574e+00  8.8528403588526210e+00  8.8517213668331518e+00  8.8576115521460164e+00  8.8542986046013965e+00  8.8594988903076182e+00  8.8509228222974787e+00  8.7712836879584035e+00  8.8015686089044838e+00  8.7989044753302714e+00  8.7931079343924861e+00  8.8524363910123665e+00  8.8619225090275577e+00  8.8722940533822392e+00  8.8447111102355436e+00  8.9173135417013203e+00  8.9160544719856283e+00  8.9117039714704784e+00  8.9183582849393570e+00  8.9187792654933205e+00  8.9598722297181812e+00  8.9600291355537305e+00  8.9756229129003113e+00  8.8535837041368683e+00  8.8522833516968422e+00  8.8563618392415009e+00  8.8509669728629827e+00  8.8534080784442200e+00  8.8467693270673813e+00  8.8497867844025198e+00  8.9015013662526083e+00  8.9156984856184458e+00  8.9271625429104127e+00  8.7782934802693617e+00  8.7375691139087621e+00  8.8184691865471230e+00  8.8165836380688614e+00  8.8321733463542174e+00  8.8225033181443369e+00  8.8360354090052180e+00  8.8587330824832815e+00  8.8554434742857815e+00  8.8703526327819944e+00  8.8561658265704910e+00  8.8453387434862467e+00  8.8581220826554077e+00  8.8437242085807437e+00  8.8756363255531809e+00  8.9477231383453688e+00  8.9344974312568386e+00  8.9363842895367398e+00  8.9426441668002621e+00  8.9394098652120242e+00  8.9317930926971325e+00  8.9122557431362797e+00  8.9100437222089841e+00  8.9134506223711334e+00  8.9119280256694466e+00  8.9097280416032856e+00  8.9118572476413558e+00  8.8656594377785680e+00  8.8463756738664454e+00  8.8428925677224317e+00  8.8431604128418044e+00  8.8426173274820403e+00  8.8443056149578485e+00  8.8376745182230554e+00  8.9470475012680559e+00  8.9389933412686844e+00  8.9443629731824110e+00  8.8690895013510982e+00  8.8673077368439976e+00  8.8653489000091206e+00  8.8744845933303917e+00  8.8724263295738890e+00  8.8713804594390506e+00  8.8737218238521898e+00  9.0048551860420325e+00  8.9995874611635376e+00  9.0207861025707885e+00  9.0053358575562275e+00  8.9999247573111045e+00  8.8343337561043960e+00  8.8501962399645997e+00  8.8414588519166415e+00  8.8567322820172070e+00  8.8862269404067007e+00  8.8791897508435778e+00  8.8864146780056750e+00  8.8678730794300442e+00  8.8490431011864423e+00  8.8620346203980169e+00  8.8581707117265722e+00  8.8746539234719837e+00  8.8720581419852778e+00  8.8270817053243036e+00  8.8105896779068118e+00  8.8351549794047681e+00  8.7789894552496133e+00  8.7380514794455930e+00  8.7718776274814019e+00  8.8576861529494906e+00  8.8708530877932752e+00  8.9211590797875964e+00  8.9174856885777434e+00  8.8509837533587739e+00  8.8444601846608268e+00  8.8356086106615273e+00  8.8588122691909721e+00  8.8575149825616339e+00  8.9369204670737155e+00  8.9346692713283460e+00  8.9347193366259745e+00  8.9397328491858250e+00  8.9277074506318304e+00  8.9313900194040130e+00  8.8991697763986384e+00  8.9033036171268591e+00  8.9887215261146647e+00  8.9777277814039937e+00  8.9982610020131322e+00  8.8490667831111338e+00  8.8529383545332365e+00  8.8773239453671930e+00  8.8510302216386894e+00  8.8582449450233121e+00  8.8641304753893877e+00  8.8660280480484239e+00  8.8682644911701818e+00  8.8998940487587266e+00  8.8863899872667442e+00  8.8891961809951408e+00  8.8900213833940569e+00  9.0146401234510058e+00  9.0201481707596187e+00  8