<?xml version="1.0"?>
<VTKFile type="UnstructuredGrid"  version="0.1"  >
<UnstructuredGrid>
<Piece  NumberOfPoints="10502" NumberOfCells="47566">
<Points>
<DataArray  type="Float64"  NumberOfComponents="3"  format="ascii">39.997486 29.09515 17.82592  40.79492363466336 28.31212178977664 17.28980725141349  40.78076152168703 28.93220638551043 17.62285742745358  40.28013952168702 28.69275138551043 18.07320742745358  40.498108 29.334605 17.37557  40.56279304337404 28.29035277102086 18.32049485490716  40.0098862609749 26.11290856153665 18.1917008118396  39.6992428339685 27.02721887524687 18.59624719160449  39.16978293702379 26.75694244542331 17.88208608802354  39.88509724954878 26.97934340805226 17.76588982996368  39.76030823812265 27.84577825456788 17.34007884808776  38.85913951001739 27.67125275913354 18.28663246778843  39.57445382254237 27.89365372176249 18.17043620972857  39.38859940696209 27.9415291889571 19.00079357136938  38.69787354121098 26.7990044348469 18.56839659466566  39.53797686516209 26.15497055096023 18.87801131848172  39.06606746934928 26.19703254038381 19.56432182512383  39.22733343815568 27.06928086467046 19.28255769824661  37.142925 29.971781 18.963017  36.70232505347413 29.64328395425586 18.45456977554561  36.25295355347413 30.22999695425586 18.31496227554562  36.41655055347413 29.96149395425586 18.91271777554562  37.2651025 29.922074 17.9071135  37.4286995 29.653571 18.504869  36.979328 30.240284 18.3652615  36.815731 30.508787 17.767506  37.714474 29.335361 18.046721  35.69017610694826 29.95120690851173 18.86241855109123  39.69304270348104 28.51833959447855 18.41335678568469  39.87889711906132 28.47046412728394 17.58299942404388  39.97569622516806 28.11594097998898 18.66064421313827  40.16155064074835 28.06806551279437 17.83028685149746  36.654655 31.029947 18.786224  35.90699855347413 30.93551095425586 18.48300527554562  36.17241555347413 30.49057695425586 18.82432127554561  33.613049 30.637075 21.243486  34.58397295519948 30.94719914907221 21.24348534269338  34.3177015 31.1900895 21.662527  33.7341045 31.1688385 21.3262955  34.196646 30.658326 21.5797175  34.46291745519947 30.41543564907221 21.16067584269339  34.780243 30.679577 21.915949  35.04651445519948 30.43668664907221 21.49690734269338  33.85516 31.700602 21.409105  35.31278591039896 30.19379629814442 21.07786568538677  33.866508 27.388016 21.375238  34.83377925350746 27.41165192907718 21.16562964139382  34.45050161908252 26.58446260602851 21.17940029346195  34.51104377767209 26.92727427031621 20.58742486031701  35.15557955534417 26.46653254063243 19.79961172063403  35.41777287258998 26.60809853510569 20.96979193485576  35.47831503117954 26.95091019939339 20.37781650171083  35.09503739675461 26.12372087634473 20.39158715377896  35.03449523816504 25.78090921205703 20.98356258692389  35.80105050701491 27.43528785815436 20.95602128278763  35.299328 23.930454 20.396067  35.41640959005305 24.3524069453662 19.77617007890254  35.45653859005305 24.3534594453662 20.28279157890254  35.84753600000001 23.875715 19.9878305  35.259199 23.9294015 19.8894455  35.21907 23.928349 19.382824  36.00474659005305 24.2987204453662 19.87455507890254  35.807407 23.8746625 19.481209  36.395744 23.820976 19.579594  35.6137491801061 24.7764648907324 20.16951615780508  37.280491 31.188852 19.576998  36.72076749999999 31.6879355 19.0594815  36.23206351308842 31.25192260584038 19.64462877435462  37.0336855 31.767388 19.4548685  36.967573 31.1093995 19.181611  35.98525801308841 31.83045860584038 19.52249927435462  35.91914551308842 31.17247010584038 19.24924177435462  36.78688 32.345924 19.332739  35.18363602617683 31.31499321168076 19.71225954870923  38.555515 24.625526 19.345961  39.02407123467464 25.55112527019191 18.94906241256191  38.81079123467464 25.4112792701919 19.45514141256191  39.0430145 24.650517 19.2082195  39.530514 24.675508 19.070478  39.29829073467464 25.4362702701919 19.31739991256192  34.50923266034041 29.90283765096728 20.44540157209266  34.39834251308842 30.97603410584038 20.47787277435462  33.65936420514093 30.12447700189507 20.52821172939927  33.70567941028186 29.61187900379013 19.81293745879854  34.44465771822935 30.46343610773545 19.76259850375389  35.24821096828789 30.75439475491259 20.395062617048  36.13210600988025 24.46357368319319 18.96870678451878  36.6676005 23.938057 18.9208435  35.9626065 23.774717 18.8050365  36.939457 24.055138 18.262093  41.64920185989459 27.52460214231027 17.81922820676633  41.10599745163432 27.90747745666556 18.06986153083674  41.32396592994729 28.54933107115514 17.37222410338316  33.242424 25.698317 20.387125  34.13845961908252 25.73961310602851 20.68534379346195  33.81069367384469 25.4488252834751 19.88743923797369  34.19900177767208 26.08242477031622 20.09336836031702  34.70672929292721 25.49012138950361 20.18565803143564  34.76727145151678 25.83293305379132 19.59368259829071  34.37896334768938 25.19933356695021 19.38775347594738  36.89879 30.500864 18.8746205  36.735193 30.769367 18.276865  34.96891901340236 27.7096694050425 20.28172227540028  35.92724956881968 27.53307406070536 19.72840826657941  34.64618353756699 27.22529174628153 19.70351749432348  34.13678751978981 27.98405095193063 19.60742326801294  35.4178535510425 28.29183326635446 19.63231404026887  36.69891958229519 28.59961558077829 19.65720481252481  36.24998504465505 28.01745171946633 20.30661304765622  42.516556 24.185781 18.572409  42.50970701429581 25.15128565292889 18.39623451563859  42.47627654016119 24.74428569667012 18.04085060542388  42.19479601429582 24.81934865292889 18.59497451563859  42.831467 24.517718 18.373669  43.146378 24.849655 18.174929  42.79118754016119 25.07622269667011 17.84211060542388  41.87303602859163 25.45291630585778 18.61754003127718  42.15451655445701 25.37785334959901 18.06341612106246  42.43599708032239 25.30279039334023 17.50929221084775  37.20669679114759 28.96748829038915 18.8519629062624  36.67775030880733 28.73356854534885 17.78623632714276  35.64102661761466 28.13177609069769 17.52575165428551  35.66560136228146 29.04149149960471 18.19408510268837  36.16997309995493 28.36569583573799 18.59147823340516  36.19454784462172 29.27541124464501 19.25981168180802  38.02207680653634 28.36816866465499 17.80959618210374  38.223486 29.175859 17.6189625  38.29105 29.139326 18.2770255  38.867626 28.943291 18.50733  38.59865280653634 28.17213366465499 18.03990068210374  38.800062 28.979824 17.849267  38.732498 29.016357 17.191204  36.6487747512735 25.23414321408185 18.91545683143018  36.94124350988025 24.86755318319318 18.21758128451878  37.18426924139325 24.70862653088867 18.8675935469114  37.476738 24.3420365 18.169718  38.014019 24.628935 18.077343  37.72155024139325 24.99552503088866 18.7752185469114  37.42908148278649 25.36211506177733 19.47309409382281  39.364992 29.0557535 17.508562  39.31396711906132 28.39453462728394 17.92370442404388  39.43255600000001 29.0192205 18.166625  33.982265 29.451431 21.461058  34.64752545519948 29.82261364907221 21.26946184269339  33.84397220514093 29.53165500189507 20.63699772939927  33.797657 30.044253 21.352272  33.8207535 24.879798 20.132244  33.699732 25.226438 20.5894975  34.15704 24.754559 20.79187  34.26800167384469 24.9769462834751 20.08981173797369  43.531681 25.500519 17.560986  43.8956965 26.0663 17.824232  43.31798446643523 26.07257169487091 17.84883201357566  43.738592 25.8736495 17.3890735  43.68878549999999 25.6931695 17.9961445  43.84589 25.88582 18.431303  43.52489546643523 26.44570219487091 17.67691951357566  43.47508896643522 26.26522219487091 18.28399051357566  43.945503 26.24678 17.217161  43.10428793287046 26.64462438974182 18.13667802715132  40.35553313048745 25.13990578076832 18.6743359059198  40.3574105 24.3509695 18.549081  40.115847 24.4212055 19.1137245  40.70118 24.166903 19.156971  40.28633965217448 27.20163066627875 18.25609783337338  35.50148100867361 30.07250160332807 19.970142118239  34.42500810676074 29.29418216996349 20.26823588861507  34.69792775861507 29.78154295615093 19.33767800494489  35.41725645509394 29.46384612232429 19.79297643476141  35.22856135681928 29.58514081714063 20.90070000190918  35.14433680323962 28.97648533613685 20.7235343184316  34.734335 27.5944365 22.0043475  34.173275 27.8406125 21.565188  34.427568 27.14184 21.8143975  34.988628 26.895664 22.253557  35.14054625350745 27.86424842907718 21.35557964139382  35.39483925350746 27.16547592907718 21.60478914139382  34.480042 28.293209 21.755138  35.8491111731302 30.8277534950605 19.94265491691649  35.43690606656255 30.63310006009625 19.28733904990023  36.10238121351591 30.14586034347598 19.51773441810749  35.91368611524126 30.26715503829233 20.62545798525526  36.51458632008357 30.34051377844023 20.17305028512375  40.70475504900862 27.68519019843907 17.57965352742705  33.8466 26.113567 21.273888  34.44054761908252 25.94723810602851 21.12872529346194  33.544512 25.905942 20.8305065  34.50108977767209 26.29004977031622 20.53674986031701  34.11555527767209 26.76697977031621 20.15134586031702  34.00164775989491 27.68603347596532 20.49133063400647  40.82954406043474 26.81875535192346 18.00546450930297  41.435291 23.989994 18.233227  41.44457958005519 25.34675246314367 17.87835626748143  41.93564404016119 24.64639219667012 17.87125960542387  41.65416351429582 24.72145515292889 18.42538351563859  35.82946156166159 29.65849955728854 20.44829230177767  34.51939801308842 31.50779760584038 20.56068227435461  34.50542240161981 28.18225066806843 21.0493861592158  34.8121894016198 28.63484716806843 21.2393361592158  35.47269365512727 28.20588659714561 20.83977780060962  34.59576761908252 25.26773410602851 20.88771629346194  34.88539459005305 24.7655119453662 20.48069307890254  35.32412220913557 25.27868705139471 20.57653937236449  34.99635626389774 24.9878992288413 19.77863481687623  41.9759235 24.0878875 18.402818  34.64056216151472 28.48026814403374 20.16547879322227  34.24502190161981 28.69491816806843 20.9137766592158  33.92123346503584 28.79796497786038 19.71018036340574  34.563300901619
[...]
<PointData  Scalars="p"> 
<DataArray  type="Float64"  Name="p"  format="ascii">9.0248187237773791e+00  9.0168938619405985e+00  9.0080288354278135e+00  9.0147395070759959e+00  9.0159126659206272e+00  9.0053391241606420e+00  9.0231963790804439e+00  9.0257856673917960e+00  9.0509376354454005e+00  9.0339765048687877e+00  9.0449623764553788e+00  9.0567533024939895e+00  9.0369730922623166e+00  9.0271415406299003e+00  9.0527912450091517e+00  9.0235862350509652e+00  9.0226798366515126e+00  9.0259759238413952e+00  9.1386245780936086e+00  9.1606950001163501e+00  9.1945193339405389e+00  9.1646317219396458e+00  9.1681034019844887e+00  9.1361412934741537e+00  9.1748766965589930e+00  9.2055290199186839e+00  9.1277147875514810e+00  9.1901267958871617e+00  9.0273128014339203e+00  9.0370746697557198e+00  9.0157868048484939e+00  9.0254407398793379e+00  9.1870197050967786e+00  9.2193103618794918e+00  9.1883238418725597e+00  9.2569748360380686e+00  9.1972961496279222e+00  9.2009918998864766e+00  9.2571366752494892e+00  9.2044028657332984e+00  9.1975101205639742e+00  9.1606240518132704e+00  9.1575996128061039e+00  9.2523477887929086e+00  9.1529306116441216e+00  9.1339296408376871e+00  9.1123723510386991e+00  9.1053225885254392e+00  9.1220785351738876e+00  9.1151597601746204e+00  9.0866780590048783e+00  9.1032330096331808e+00  9.0995784195194247e+00  9.0834137718959749e+00  9.0896846089486676e+00  9.0735032506909103e+00  9.0904669235109736e+00  9.0765113947881471e+00  9.0731300041875453e+00  9.0886002343999905e+00  9.1025092691366272e+00  9.0758781203316001e+00  9.0898095968625086e+00  9.0746178615526691e+00  9.0795700612275976e+00  9.1245522934453547e+00  9.1819554867295761e+00  9.1713347682804596e+00  9.1468924612989113e+00  9.1566344049497150e+00  9.1955270753383438e+00  9.1976585382594394e+00  9.1675820037791329e+00  9.2174782741581858e+00  9.0334085856203039e+00  9.0329202984300068e+00  9.0279086507915665e+00  9.0222510848757178e+00  9.0128923028334604e+00  9.0190629960106801e+00  9.2008086053027149e+00  9.2302799789464913e+00  9.2514781548135971e+00  9.2401513626780822e+00  9.2318219853972057e+00  9.1842507145638628e+00  9.0984513054205980e+00  9.0899100484926745e+00  9.1059145637609458e+00  9.1023866682523291e+00  8.9944664023881895e+00  8.9992112256813215e+00  9.0029029196970125e+00  9.1251902275940573e+00  9.1077086759432575e+00  9.1229485165922775e+00  9.1220595485103182e+00  9.1036252595777238e+00  9.1183681933768472e+00  9.1219562459506189e+00  9.1636187582730031e+00  9.2006896265088312e+00  9.1326027154020828e+00  9.1139932763934439e+00  9.1410734940339893e+00  9.1729851821373423e+00  9.1444246460843104e+00  9.1084752737575485e+00  9.0994944886989853e+00  8.9849100193885718e+00  8.9837085014343181e+00  8.9896386124353658e+00  8.9847443967708251e+00  8.9844203753552812e+00  8.9838816842655120e+00  8.9887932564583952e+00  8.9860351288545885e+00  8.9902573616049661e+00  8.9938865277484314e+00  9.1170246858554105e+00  9.1540267631352172e+00  9.1746755572544796e+00  9.1826720450968740e+00  9.1448444042402972e+00  9.1474166122604785e+00  9.1007261476142940e+00  9.1109898304129082e+00  9.0908536156777497e+00  9.0561715209854228e+00  9.0730507909478550e+00  9.0745053886542308e+00  9.0925739344285148e+00  9.0912503191831266e+00  9.1005323243605698e+00  9.0798237821443024e+00  9.0925329254897278e+00  9.0795637577695931e+00  9.0695229107426929e+00  9.0610809014336162e+00  9.0557867548473556e+00  9.0501769883105041e+00  9.0388187081029816e+00  9.1949826536949235e+00  9.1734095029965808e+00  9.2202926808589716e+00  9.2248110888528974e+00  9.1129261144246598e+00  9.1111020464545067e+00  9.0940472066453957e+00  9.1078797587538656e+00  8.9868783441883959e+00  8.9787056751667080e+00  8.9810268374437712e+00  8.9863668730518107e+00  8.9789988657031596e+00  8.9700508277221225e+00  8.9803290032114269e+00  8.9723965441406843e+00  8.9860930721855645e+00  8.9753806808075911e+00  9.0064356297835158e+00  9.0040285028046512e+00  8.9992525476624223e+00  8.9904297966080637e+00  9.0167356301256394e+00  9.1715871387423000e+00  9.1918055458416870e+00  9.2109024182936938e+00  9.1663562137036863e+00  9.1506479842105684e+00  9.1456958659846155e+00  9.1012251127559569e+00  9.1341122706502400e+00  9.1040281936910912e+00  9.0720885456788665e+00  9.1085941052465760e+00  9.0819764819189093e+00  9.1324318362997214e+00  9.1714192485193742e+00  9.2043777236431197e+00  9.1616263491467596e+00  9.1395155961424734e+00  9.1281325612540734e+00  9.0164233857578235e+00  9.1083668454981659e+00  9.0957996000358534e+00  9.1182797883259497e+00  9.1116072424444852e+00  9.1347129978132617e+00  9.1546597826846305e+00  9.0088402770465539e+00  8.9961417048394416e+00  9.0003093643892207e+00  8.9955739272339024e+00  8.9917955056733998e+00  9.1381261836438465e+00  9.2309098416024877e+00  9.1432423052216816e+00  9.1397512981283722e+00  9.1157582922323783e+00  9.0884792330594646e+00  9.0866033210414017e+00  9.0804594573712496e+00  9.1022162318509192e+00  8.9902570929783625e+00  9.1631518630424900e+00  9.1699852742624497e+00  9.2038848791850789e+00  9.1674166481439894e+00  9.0197659648911515e+00  9.0961719566624062e+00  9.1146626484537663e+00  9.1001458110788871e+00  8.9638567549734791e+00  8.9768825217049297e+00  8.9740213363295354e+00  8.9742087739715792e+00  8.9667338120011060e+00  8.9774055096731438e+00  9.0863074771389805e+00  9.0793307419939495e+00  9.1089577486717168e+00  9.0834677134506432e+00  9.1555571139690262e+00  8.9636604954088472e+00  8.9833802736975308e+00  8.9753329062335485e+00  8.9691790351813445e+00  8.9801720304586752e+00  8.9709866869865653e+00  8.9779850512599602e+00  8.9857850728196240e+00  8.9912472740387237e+00  8.9764850336222413e+00  8.9886216681803184e+00  8.9796835589933757e+00  8.9854715553904043e+00  9.0823385048935474e+00  9.1444533754670747e+00  9.0940905460500208e+00  9.1013750425375957e+00  9.1286873792766858e+00  9.1848442008070208e+00  9.2293413082204996e+00  9.2144276309745621e+00  9.0845028795334830e+00  9.0724671431663566e+00  9.0984465882052543e+00  9.0844824723180473e+00  9.0646696056817841e+00  9.0420621606824199e+00  9.0477814713039830e+00  9.0507966025006485e+00  9.0436133671935366e+00  9.0649363354023453e+00  8.9693035717114356e+00  8.9806923819853850e+00  8.9942218030490260e+00  8.9892552847992242e+00  8.9910837784977158e+00  9.1833907771921730e+00  9.1255649854967658e+00  9.0507344869406747e+00  8.9774848013093624e+00  8.9927522148147645e+00  8.9832209137111132e+00  8.9863558686572969e+00  8.9980363980832934e+00  8.9802952597610570e+00  8.9896983802128787e+00  9.1623076683647504e+00  9.1330038228363541e+00  9.1393761311171584e+00  9.1429568792650411e+00  9.1046418769448518e+00  9.0928416595165480e+00  9.1030954526866505e+00  9.0909296623711597e+00  9.0020263122786197e+00  9.0048988964963748e+00  8.9934549112577340e+00  8.9896217715299329e+00  8.9858378366545963e+00  9.1404552104438341e+00  9.1010172583993878e+00  9.1193258194486742e+00  8.9925418745051680e+00  8.9929010718495714e+00  8.9992983680394616e+00  8.9768863985112635e+00  8.9813697940777946e+00  8.9812048165202558e+00  8.9867596294669312e+00  9.0926874691763757e+00  9.1191756533944179e+00  9.0775420246046590e+00  8.9977237053602899e+00  9.0991685492884695e+00  9.1128673050616626e+00  9.1172236770362929e+00  9.0613054916802405e+00  9.0998678153121659e+00  9.0728703728987838e+00  9.0788041337132377e+00  9.0859063722971545e+00  9.1303295014735735e+00  9.0014818363970797e+00  8.9857513638017696e+00  8.9897989590366123e+00  8.9939241199476534e+00  8.9903843045824345e+00  9.1251835580035312e+00  9.1285554963532558e+00  8.9712073903670291e+00  8.9753257099248316e+00  8.9709137603217961e+00  8.9779325962778262e+00  9.1536303311778990e+00  9.1317919692400977e+00  8.9880956472008293e+00  8.9835382029442883e+00  8.9966592255042013e+00  8.9932750038955351e+00  9.0428074677356012e+00  9.0998990044271935e+00  9.1207115767360545e+00  9.1362803065591613e+00  9.0872525951734904e+00  9.0708667182890554e+00  9.0559563686456990e+00  9.0579971309278076e+00  9.0459736637897041e+00  9.0704772487996959e+00  9.0805488831199987e+00  8.9907856016522345e+00  9.1113594959282498e+00  9.0714870658175570e+00  9.0681297919677135e+00  9.0862116465620204e+00  9.1188381917838583e+00  9.1344220539492671e+00  9.1614771048040620e+00  9.1146334220778176e+00  9.1077800198230072e+00  9.1810738256649564e+00  9.0730671682402431e+00  9.0650931143065048e+00  9.1170481550454312e+00  9.1493548146895272e+00  9.0401244991429373e+00  9.0064119807015608e+00  9.1269913841128520e+00  8.9882157624834509e+00  8.9788828686426889e+00  8.9929421816687292e+00  8.9706203548026533e+00  8.9753280493401792e+00  8.9862378823962672e+00  9.0655748778154805e+00  8.9670818918164201e+00  8.9827730265382471e+00  8.9826837911018096e+00  8.9876857951811413e+00  8.9936942181878266e+00  8.9804757829081066e+00  9.1349130931738198e+00  8.9828322768250715e+00  9.0561514610777500e+00  9.0836319302922419e+00  9.9028468774776837e+00  9.9100424982175017e+00  9.9085390888940790e+00  9.9114335502927311e+00  9.9235621435918695e+00  9.9786594953618177e+00  9.9998293415836663e+00  9.9808550173520985e+00  9.9828901547157862e+00  9.9861364771752328e+00  9.9228964442045662e+00  9.9134594507523737e+00  9.9088071491524872e+00  9.9041975153578701e+00  9.8956177511920185e+00  9.9007380051478684e+00  9.8884532669654526e+00  9.9060376293958363e+00  9.8953788736756430e+00  9.2365396136154416e+00  9.3136738315151817e+00  9.2518112122536191e+00  9.2878214862863366e+00  9.2987893236188750e+00  9.3799508892810035e+00  9.3686681439515436e+00  9.3525781940858614e+00  9.3020714882182052e+00  9.2590370669840958e+00  9.9376877798801040e+00  9.9293563045211926e+00  9.9381873835042889e+00  9.9541561478330856e+00  9.9336902679177470e+00  9.8985462939695346e+00  9.9051821525318129e+00  9.9048141124348579e+00  9.9065414423833769e+00  9.8960453508293043e+00  9.9104351446902577e+00  9.9108166156910897e+00  9.8958742805338034e+00  9.8995322766300440e+00  9.9011243258381931e+00  9.9042891093405334e+00  9.9160724629723784e+00  9.9102970983881775e+00  9.1631650501633075e+00  9.2678690775976467e+00  9.2296671277683089e+00  9.1982560470862751e+00  9.2257788780695282e+00  9.3093793703328771e+00  9.2703468099528283e+00  9.2979939142227792e+00  9.2883196129028445e+00  9.3287416729828490e+00  9.3428683891484354e+00  9.9679348697341332e+00  9.9781250232162630e+00  9.9587141481435495e+00  9.9733646721806135e+00  9.9650955192955699e+00  9.9620195165954399e+00  9.9474261276562430e+00  9.1837177018498277e+00  9.2383462823931524e+00  9.2388564738880525e+00  9.1738498297889528e+00  9.2621531794016683e+00  9.2318972291809871e+00  9.2398581637509825e+00  9.2825487492038405e+00  9.2144337206624307e+00  9.2573313017462642e+00  9.2062693947834973e+00  9.9161560601084844e+00  9.9084281948239816e+00  9.2492266253146980e+00  9.2443124281732398e+00  9.2519515479099823e+00  9.2206326955879234e+00  9.1929779219232923e+00  9.2449176369023895e+00  9.2293927699855516e+00  9.2050848801116203e+00  9.9781111871906791e+00  9.2236408618147738e+00  9.2527887551260068e+00  9.2178536964537887e+00  9.2404361974111122e+00  9.2620004169132422e+00  9.2990194430759576e+00  9.2371675409844567e+00  9.2721060235656996e+00  9.2848376503192362e+00  9.9049886827957465e+00  9.9053542092507687e+00  9.9031702566866109e+00  9.8996257950876565e+00  9.8832779257317753e+00  9.8963542388485983e+00  9.8899301796287169e+00  9.9521190762773770e+00  9.9444025961376745e+00  9.9543199926942467e+00  9.9504739536385980e+00  9.9466467393691413e+00  9.9559334547127989e+00  9.9606542125447692e+00  9.9492902106501777e+00  9.9414272629439786e+00  9.1859924587008592e+00  9.8955696675528078e+00  9.8955554846174500e+00  9.9061293221006075e+00  9.9521917909851361e+00  9.9595371216246829e+00  9.9558358991902320e+00  9.9594095246358005e+00  9.9476316543739021e+00  9.9491828931365855e+00  9.9500957594468851e+00  9.9505574960563656e+00  9.2628420842960768e+00  9.3106358860156853e+00  9.2638475602809951e+00  9.3092094595372803e+00  9.3109098872967309e+00  9.3708698615359278e+00  9.2559713440045250e+00  9.2611135236032176e+00  9.2620486769427082e+00  9.2995812074205499e+00  9.9648021705174514e+00  9.9512269597726295e+00  9.9700126503946418e+00  9.2871881756943679e+00  9.3012098542299135e+00  9.2321533158997759e+00  9.2897654548063500e+00  9.2764231463251434e+00  9.2927651079458649e+00  9.2482877285798715e+00  9.2779211638647023e+00  9.2925645065344646e+00  9.9498585433229945e+00  9.9632552674542634e+00  9.9169040545788025e+00  9.9228207907000119e+00  9.9693775468126393e+00  9.8889200128417158e+00  9.9533093108388737e+00  9.9345947128715952e+00  9.9829039402498942e+00  9.6692965545600433e+00  9.6196792997608753e+00  9.5766417889071409e+00  9.6473984708365865e+00  9.5958262355950001e+00  9.6429485447245842e+00  9.5156235700839549e+00  9.5684746137606123e+00  9.6298319100056435e+00  9.6177334152335767e+00  9.9440837579902439e+00  9.9438836115490528e+00  9.9450093361541843e+00  9.9396734759424792e+00  9.9945068686055425e+00  9.9688397970394362e+00  9.9670796609865882e+00  9.9765013741148945e+00  9.9669389791066667e+00  1.0012335788723712e+01  9.9970165590521276e+00  9.9334894349444998e+00  9.9355155336350229e+00  9.9423724667319071e+00  9.9328443840879714e+00  9.9246080007328494e+00  9.2013583552512639e+00  9.9010892112061963e+00  1.0008054074470659e+01  9.9927120896932387e+00  9.9861477666986467e+00  9.3301224856498468e+00  9.9405077581272803e+00  9.3291948071416684e+00  9.2432915354629603e+00  9.9259789428614624e+00  9.1790286874582012e+00  9.2214014631857353e+00  9.9027732800487254e+00  9.9061877999475971e+00  9.8919306315500695e+00  9.9191108737891582e+00  9.2480903708701696e+00  9.2773407739511153e+00  8.1379767559264948e+00  8.0947992595399931e+00  8.1536573814164086e+00  8.1461058336485337e+00  8.1373389268747420e+00  8.0941747199204759e+00  8.1439946070779037e+00  8.1527384682763397e+00  8.1016078136836036e+00  8.0556115055619841e+00  9.1147111756137615e+00  9.1208891513747226e+00  9.1117326625828188e+00  9.0967459323029978e+00  9.1223887435550495e+00  9.1311942703855191e+00  9.0958129347400991e+00  9.1075403199142961e+00  9.0765127778442665e+00  9.1152849871418820e+00  8.9576592804850215e+00  8.9660752594429436e+00  8.9665421106506820e+00  8.9371376792554447e+00  8.9571907215994102e+00  8.9352111630883186e+00  8.9330023825881284e+00  8.6777748120886784e+00  8.6171723207763797e+00  8.5976683260325864e+00  8.6711039660839244e+00  8.6199154776839908e+00  8.6517007942144133e+00  8.5462260030007577e+00  8.6395815880694578e+00  8.6562028988130031e+00  8.6735736737586251e+00  9.0937307171379267e+00  9.1006394441638108e+00  9.1071234558879475e+00  9.0987119955614659e+00  9.0983203209562351e+00  9.1024859693360991e+00  9.1088921386476898e+00  9.1063811241994124e+00  9.0998674865816547e+00  9.1072678181714277e+00  8.9412621127859602e+00  8.8935831797965754e+00  8.9162201145563138e+00  8.8940638098860667e+00  8.9194279367095319e+00  8.8497943522888445e+00  8.8662025047332911e+00  8.8743753910326539e+00  8.8961127707947174e+00  8.8894716000579308e+00  8.8654331555710595e+00  8.8100812245733842e+00  8.8362502377752605e+00  8.8360342107692240e+00  8.8337843171571500e+00  8.8068347484456861e+00  8.8046167533959139e+00  8.8080563718742724e+00  8.8117856916237560e+00  8.7981631128376492e+00  8.7834584193026295e+00  8.7222458331056227e+00  8.7417881040850283e+00  8.7431048131865552e+00  8.7649491248913804e+00  8.6988216921150681e+00  8.6951028889125883e+00  8.7268073941612929e+00  8.7515534623011604e+00  8.6929101651390503e+00  9.0720302157750652e+00  9.0466313486091483e+00  9.0639583802021697e+00  9.0600353461827119e+00  9.1459325193399756e+00  9.1458777771043511e+00  9.1615817892556510e+00  9.1444514726893011e+00  9.1357220067936300e+00  9.1274686376337648e+00  9.1508837440047142e+00  9.1287086290830732e+00  9.1244739879765682e+00  9.1785119162141360e+00  8.1738019023879271e+00  8.2721935973228415e+00  8.2338504332621643e+00  8.2699814200147834e+00  8.1768181799136634e+00  8.2331601588709269e+00  8.1801571097431758e+00  8.2911957421479503e+00  8.3217215681057404e+00  8.3580685295807768e+00  9.0162649215631276e+00  9.0183686953465880e+00  9.0262165864934722e+00  9.0646080962321705e+00  9.0937299659461814e+00  9.0609338502934982e+00  9.0721180388491387e+00  9.0409762104093438e+00  9.0282461075543718e+00  9.0212163738857107e+00  8.7992011532767744e+00  8.7955415165307045e+00  8.7740900788953926e+00  8.8159663219331499e+00  8.8334687896191788e+00  8.7795702229328310e+00  8.8172256275436922e+00  8.7518927605747656e+00  8.8009612004234761e+00  9.1702159313582765e+00  9.1486119342120489e+00  9.1535816901406815e+00  9.1433874378250390e+00  9.1011796037588049e+00  9.1194829413003173e+00  9.1245541497646521e+00  9.1385927801996711e+00  9.1320112834404590e+00  9.1293983948499751e+00  8.9630028893177158e+00  8.9248068443092716e+00  8.9360824107373933e+00  8.9508394464152659e+00  8.9372123923048470e+00  8.9472083798454900e+00  8.9311746612868443e+00  8.9191526513660957e+00  8.9052594871112003e+00  8.9396102439106677e+00  8.8394774695458267e+00  8.8249636177750457e+00  8.8390925744672177e+00  8.8483860045146159e+00  8.8626843501085535e+00  8.8288715636897788e+00  8.8429015466523211e+00  8.7696195168974445e+00  8.7682388224646122e+00  8.7702999911656345e+00  8.7786228740041548e+00  8.7728329411454364e+00  8.7696234131335569e+00  8.7787304805392008e+00  8.7905558797461403e+00  8.7795435980086207e+00  8.7728858950082333e+00  9.0472680028906947e+00  9.0552369884837489e+00  9.0303845911977962e+00  9.0467125040448586e+00  9.0319601185954319e+00  9.0552321883424778e+00  9.0153686770103914e+00  9.0378644598329281e+00  9.0629549677491479e+00  9.0462250284634589e+00  9.0881814538895149e+00  9.0997427691927832e+00  9.1003933339375607e+00  9.0866865842270705e+00  9.0884518029074055e+00  9.0868075870187859e+00  9.0837942030039365e+00  9.0815035216754509e+00  9.0997211374928515e+00  9.1136004577127334e+00  8.6722846557300564e+00  8.6446673311417808e+00  8.6520532325643202e+00  8.6247797447282259e+00  8.6872765863967736e+00  8.5864659590302317e+00  8.6287958123281303e+00  8.5903356077065318e+00  8.7016331353893630e+00  8.5819248033681124e+00  8.8538180785780121e+00  8.8254088078227735e+00  8.8013942568847661e+00  8.8739361305850881e+00  8.8342193433065415e+00  8.8453687091065536e+00  8.8589067179950938e+00  8.7567105573195718e+00  8.7333382149694945e+00  8.7445259251155516e+00  8.7533923405015752e+00  8.7379647720537417e+00  8.7476938095646730e+00  8.7405925335070105e+00  8.7276158852884596e+00  8.7095013067810942e+00  8.7571038234405982e+00  8.9433055346326924e+00  8.9320929152201334e+00  8.9230018087513177e+00  8.9398038635396944e+00  8.9378137427852451e+00  8.9313996352908163e+00  8.9142978579336454e+00  8.9339086278139579e+00  8.9158179275981073e+00  8.8978241768970321e+00  8.7132058535803338e+00  8.7501862720009882e+00  8.7064495022887840e+00  8.7028322789344568e+00  8.7613195742044656e+00  8.7563262604903436e+00  8.7176071525597294e+00  8.7267900620333343e+00  8.7932709290688216e+00  9.1187988544931677e+00  9.1716570273181048e+00  9.1578513589050683e+00  9.1511344911491310e+00  9.1351621861445427e+00  9.1518942172073032e+00  9.1807224950545905e+00  9.1940793049226439e+00  9.2093386807833681e+00  9.1530128689929864e+00  9.1691666052671668e+00  9.1720758472186450e+00  9.1843834362715917e+00  9.2368948165758678e+00  9.1883526946543341e+00  9.2078238644029771e+00  9.2062386733947452e+00  9.1842593813920139e+00  9.1828100714096124e+00  8.9856377806542422e+00  8.9599446861857075e+00  8.9472800451664458e+00  8.9819605292602791e+00  8.9760262075568154e+00  8.9581445764674807e+00  8.9431553554285017e+00  8.9078170584510712e+00  8.9248036080299098e+00  8.6187547221810412e+00  8.5751805077162420e+00  8.5662620601883823e+00  8.5758526176645198e+00  9.0734676117495567e+00  9.0828081428339811e+00  9.0622856732103969e+00  9.0684569662506771e+00  9.0887003530208315e+00  9.0705206661897204e+00  9.0633635799307406e+00  9