<?xml version="1.0"?>
<VTKFile type="UnstructuredGrid"  version="0.1"  >
<UnstructuredGrid>
<Piece  NumberOfPoints="10579" NumberOfCells="47756">
<Points>
<DataArray  type="Float64"  NumberOfComponents="3"  format="ascii">15.870145 7.674674 14.90079  14.70727289947023 7.548327071974565 15.25871279880072  15.24865839947023 7.939431071974566 15.57361679880072  14.95575407363352 7.184775200633473 15.24980814517017  15.3287595 7.28357 14.585886  14.787374 6.892466 14.270982  14.41436857363352 6.793671200633472 14.93490414517018  14.04136314726704 6.694876401266945 15.59882629034035  14.33426747310375 7.449532272608039 15.92263494397089  14.62717179894045 8.204188143949132 16.24644359760144  13.606524 4.851923 15.448091  13.82394357363352 5.773399700633473 15.52345864517017  13.969493 5.266086 15.0632025  14.1755575 5.1834325 15.539485  14.744591 5.514942 15.630879  14.18691257363352 6.187562700633473 15.13857014517017  14.39297707363352 6.104909200633472 15.61485264517017  14.5385265 5.5975955 15.1545965  14.332462 5.680249 14.678314  14.551414 5.560408 16.707096  14.29638857363352 6.127642200633472 16.15296114517017  14.6480025 5.537675 16.1689875  14.078969 5.2061655 16.0775935  13.308163 7.347325 17.028811  14.20447675976812 7.004459945968671 16.77199819690195  13.67476307363352 7.021100700633472 16.31381864517018  13.597556 6.799341999999999 17.1071465  13.886949 6.251359 17.185482  13.96415607363352 6.473117700633472 16.39215414517017  13.608414 8.895576999999999 17.343969  13.96766739947023 7.775756571974566 16.63762729880072  14.11779289947023 8.549882571974566 16.79520629880072  14.49688039947022 7.882681071974567 17.05721229880072  13.4582885 8.121451 17.18639  13.9875015 8.2283755 17.605975  15.347757 8.994317000000001 14.728889  16.18455985230712 9.073560923427376 15.3338749145585  15.75253085230712 8.527846423427377 15.4299359145585  15.49133685230712 9.187667923427377 15.3439854145585  16.04098 8.88021 14.7187785  15.608951 8.334495500000001 14.8148395  15.63491670461424 9.381018846854753 15.95908182911699  14.573151 8.859202 18.181351  14.60016139947023 8.531695071974566 17.21389729880072  14.44131705309787 9.452419035934351 17.43391516778275  14.0907825 8.8773895 17.76266  14.46832745256809 9.124912107908919 16.46646146658347  13.95894855309787 9.470606535934351 17.01522416778275  14.30948310619573 10.0456360718687 16.68647933556551  14.01222978844211 6.519545167384786 14.35398266068331  14.3433115 6.467421 13.9742005  14.559918 6.286357499999999 14.474648  13.78477378844211 5.913436667384786 14.55764866068331  14.1158555 5.8613125 14.1778665  13.899249 6.042376 13.677419  13.5681672884421 6.094500167384787 14.05720116068331  13.23708557688421 6.146624334769573 14.43698332136663  14.989974 10.188985 14.808807  15.26645119108728 10.30562634853045 15.83553321954456  14.64972855309787 10.11731053593435 15.74764316778275  15.31244535230712 9.785001923427377 15.3839444145585  15.5889225433944 9.901643271957823 16.41067063410306  14.97219990540499 9.713327459361729 16.32278058234125  14.92620574418514 10.2339518844648 16.77436938732732  15.54292838217455 10.42226769706089 16.86225943908913  14.92269075976812 6.088268445968671 16.07303219690195  13.96369557363352 6.988833700633473 14.49915064517018  14.336701 7.087628499999999 13.8352285  13.886028 7.282791 13.399475  13.5615567884421 6.714707667384786 13.91822916068331  13.63922436207563 6.420750368018259 15.01790480585349  14.267771 9.749891999999999 18.107607  15.05803969108728 9.640734848530446 17.52180521954456  14.28862705309787 9.897764035934351 17.39704316778275  14.90534969108728 10.08607984853045 17.48493321954457  14.420461 9.304546999999999 18.144479  13.34909289832951 7.500319631361059 14.5325599087177  13.02462168677161 6.932236298745845 15.05131406940101  13.42676047196303 7.206362331994531 15.63223555388787  12.81215779665901 7.717848262722117 15.6656448174354  13.8926385 6.6625835 13.538447  15.10403385230712 9.120110423427377 17.07021641455849  15.13104425177735 8.792603495401941 16.10276271335922  13.42180478844211 5.499273667384786 14.94253716068331  12.96760662362252 5.471627696991792 15.50829399489868  13.18502619725604 6.393104397625264 15.58366164006886  12.32868924724505 6.091332393983583 15.56849698979737  12.78288741206463 6.118978364376578 15.002740155582  14.98746439947023 8.599252571974567 15.48766629880072  13.9380925 9.322734499999999 17.725788  13.54618157363352 5.880825200633472 16.07628864517017  14.2191815 5.9058835 16.946289  13.801207 5.313591 16.6304235  13.4689745 5.6590665 16.8696165  13.051 5.066774 16.553751  15.410842 6.358327 15.232437  14.72610257363352 6.526601700633472 15.41563164517017  14.871652 6.019288 14.9553755  15.099108 6.6253965 14.7517095  14.630116 8.192830000000001 14.089723  14.33573957363352 7.443853200633473 14.84427464517017  14.708745 7.542648 14.1803525  14.258072 7.7378105 13.744599  12.725071 6.114313 16.916605  12.8880355 5.5905435 16.735178  13.30601 6.182836 17.0510435  13.38321707363352 6.404594700633472 16.25771564517018  13.016617 6.730819 16.972708  15.6404935 7.0165005 15.0666135  13.328762 4.9593485 16.000921  15.1688655 9.591651000000001 14.768848  15.595264 10.015609 14.877367  12.52688012362252 6.102822696991792 16.24255099489869  12.76861439832951 6.916080631361059 16.2911249087177  12.57042352195203 6.90459032835285 15.61707090361638  13.06016039832951 7.532586631361058 16.3472279087177  13.72113689832951 7.955339131361059 14.8776839087177  14.62864389947023 8.198509071974566 15.16808329880072  15.2501305 7.933752 14.4952565  13.71966479779973 7.961018203335625 15.95604420751842  14.9889365 8.593573500000002 14.409306  12.68984462362252 5.579053196991792 16.06112399489868  13.21028589832951 8.306712631361059 16.5048069087177  0.41953 1.768298 37.799847  0.9851962418517181 1.599138884079198 37.72079066856101  0.5303655 1.2662955 37.6251735  0.8630854999999999 1.131132 38.0376265  1.306641 0.493966 38.275406  1.428751741851718 0.9619728840791981 37.95857016856101  0.973921 0.6291295 37.862953  0.641201 0.764293 37.4505  1.096031741851718 1.097136384079198 37.54611716856101  1.550862483703436 1.429979768158396 37.64173433712202  6.877057 2.844301 37.404758  6.038458715887452 2.488186328973076 37.7999199851166  6.409608657835889 1.996349056034036 38.49260740475854  6.366332215887452 3.103301328973076 37.74791398511661  6.5491835 2.229186 37.456764  6.737482157835889 2.611464056034036 38.44060140475855  6.22131 1.614071 37.50877  6.597907315671779 2.378627112068072 39.47644480951709  6.226757373723341 2.870464385007112 38.78375738987515  5.855607431774904 3.362301657946152 38.09106997023321  3.852075 6.289381 39.860661  3.009398000056908 5.677053526327272 39.51341271742983  3.704360500056909 5.674807526327273 39.69404671742983  3.226126 5.948854 39.9708405  3.1571125 6.291627 39.680027  2.46215 6.293873 39.499393  2.5311635 5.9511 39.7902065  2.600177 5.608327 40.08102  3.078411500056909 5.334280526327273 39.80422621742983  3.556646000113817 5.060234052654545 39.52743243485966  2.090655204513167 7.222718344693204 37.66447145043731  2.769720701694095 6.187797202384716 37.48741608825075  1.835768162307487 6.521948737906893 38.18357733126464  1.831571577801763 6.219634744049317 37.32297553602397  1.572487951090358 5.21655114340543 36.98147962161062  2.514833659488414 5.487027595598405 38.00652196907808  2.510637074982691 5.184713601740828 37.14592017383741  1.576684535596082 5.518865137263006 37.84208141685129  1.580881120101806 5.821179131120582 38.70268321209196  3.448786198875023 5.152876060076228 37.31036072606419  2.139206053037217 3.703994219260257 36.93880739714371  2.099033805437737 4.295041344995428 35.98865480598659  2.193544927576817 4.882218003395693 36.4712708896353  2.476903978550247 4.125939541323107 36.44993477740184  1.761335879924708 3.873096022932578 36.47752742572846  1.855847002063788 4.460272681332843 36.96014350937717  1.477976828951278 4.629374485005164 36.49886353796192  1.383465706812198 4.042197826604899 36.01624745431321  2.814601904063276 4.547884863385957 35.96106215765997  5.580463 7.643546 38.153969  6.122516 7.024236 37.7010975  5.556614273643776 6.624650953315181 38.20060358288326  5.617772 7.2997375 37.6057875  6.085207 7.3680445 38.249279  6.589951 7.092543 38.344589  6.061358273643775 6.349149453315182 38.29591358288326  5.655081 6.955929 37.057606  5.593923273643775 6.280842453315181 37.65242208288326  5.532765547287551 5.605755906630362 38.24723816576653  1.432796 8.609607 38.25589  1.582412602256583 7.496328672346602 38.27939622521865  1.761725602256583 7.916162672346602 37.96018072521866  1.0100485 8.0532675 38.196581  1.253483 8.189773000000001 38.5751055  1.07417 7.769939 38.894321  0.8307355000000001 7.6334335 38.5157965  0.587301 7.496928 38.137272  1.338978102256583 7.359823172346601 37.90087172521866  0.498004 4.73533 34.972652  1.5079082619058 4.328251010886591 34.38022942258821  0.9722564480777772 4.011235329606546 34.3231945378508  0.9692059480777773 4.123662329606546 34.8467480378508  0.5010545 4.622903 34.4490985  1.036706313828022 4.939918681280045 34.5061333847374  0.504105 4.510476 33.925545  1.039756813828022 4.827491681280045 33.9825798847374  1.440407896155554 3.511994659213092 34.72084407570161  1.575408627656045 5.14450736256009 34.03961476947481  5.623556273643775 5.690258953315182 37.30963908288327  6.081030773643775 5.772224953315181 37.50636308288326  6.1421885 6.4473115 36.911547  5.684714 6.3653455 36.714823  6.629296 5.938694 36.765488  6.1718215 5.856728 36.568764  5.714347 5.774762 36.37204  4.718066336630927 6.263948301590665 38.09034400514913  4.779224062987152 6.939034848275483 37.49552792226586  4.741915062987152 7.282843348275483 38.04370942226586  3.903367125974304 6.922140696550967 37.93344984453173  3.00801 3.976983 35.155178  2.438113549298372 3.915650037065082 34.97201489205769  2.5963305 3.488595 34.720274  2.630047549298372 3.910359037065082 35.30766239205769  2.816076 3.982274 34.8195305  2.7882645 3.4
[...]
<PointData  Vectors="u"> 
<DataArray  type="Float64"  Name="u"  NumberOfComponents="3" format="ascii">6.8675771077188108e+02 8.3907213921037041e+01 1.7536106765240211e+02  4.1644472576603539e+02 8.4474876881159659e+01 2.0009566936776369e+02  4.6493519832449033e+02 4.0434649389017252e+01 1.7625200183029884e+02  4.3142498757119029e+02 1.0707313705922088e+02 2.3958596920470936e+02  4.0338782100700826e+02 1.6601507234995179e+02 3.1816574514143787e+02  3.4861209176286252e+02 1.4903007578338494e+02 2.5703022127373305e+02  3.6262487035339308e+02 1.3519163515120925e+02 2.0985374091075030e+02  3.8548106581329483e+02 1.3199020348538667e+02 1.7886456964310020e+02  4.1412509437784382e+02 7.8734999758709918e+01 1.7875424699784051e+02  4.1111522188502897e+02 1.9476480717567210e+01 1.7358361351464163e+02  3.3173440309230989e+02 2.9856649943295065e+02 1.4850275206632639e+02  3.5964720927725460e+02 1.8522091547297381e+02 1.5461158333591047e+02  3.6420736081633197e+02 2.0609463619654503e+02 1.9507620107271890e+02  3.8663971814507079e+02 2.0080463864612037e+02 1.4165447703468138e+02  4.0671233005512579e+02 2.1705660384451329e+02 2.1421366699219175e+02  3.5612103148912388e+02 1.6304496824977159e+02 1.9493842734364242e+02  4.0317639923382808e+02 1.7122096356164809e+02 2.0653926680007962e+02  3.6097933782054554e+02 1.7374430502329295e+02 2.1369718538345873e+02  3.1956575940340844e+02 1.9734834898427695e+02 2.2518452921007872e+02  5.0978409962937627e+02 2.3841907644581224e+02 2.6944909271454992e+02  4.3468145307352052e+02 1.7344865693333031e+02 2.0315191444052675e+02  4.4775861814993493e+02 2.5089422228430439e+02 2.2626822763979277e+02  3.9183937719864667e+02 1.7668530946284889e+02 1.9357881952608500e+02  5.1697732079650609e+02 9.1924574577169608e+01 2.0088640298087182e+02  4.3400053841115789e+02 9.0383355691141062e+01 2.4552921954943557e+02  4.2093025304379245e+02 1.0992751188604340e+02 1.6280265178063027e+02  5.4703428063387230e+02 1.6765679928716267e+02 2.6203766384963092e+02  5.4046775072051048e+02 1.9809455541239211e+02 2.8001577201179686e+02  4.4148203787582258e+02 1.5547393066548418e+02 1.9303235084882391e+02  4.7179791642914080e+02 -3.4322828609142249e+01 2.0373181374162095e+02  4.1530581816997994e+02 4.2493582148844467e+01 2.0736702075550153e+02  3.9611706903780339e+02 -5.6445063762581755e+00 1.9664670320154377e+02  3.8142877215562083e+02 7.7361416164599826e+00 2.4346813939478452e+02  5.1675689544356089e+02 -2.2043386191643251e+00 2.4408469116228497e+02  3.8409970321197608e+02 -2.8956814934997798e+01 3.2706071330090680e+02  5.4895674539544291e+02 3.8968749389743877e+01 1.9067829427947044e+02  4.8740254835074188e+02 -4.8214773234747931e+01 8.1029432698229478e+00  5.0764041416677480e+02 -5.5165928134842410e+00 7.4891825840648522e+01  4.7022432187088509e+02 -1.5321402237987165e+01 8.9193367246639411e+01  5.8585600248521121e+02 -3.1802427639181040e+01 -3.2746578799943414e+01  6.4441275167245487e+02 8.4977193944581842e+01 2.0834753738663855e+02  4.0472709593956131e+02 -4.4386035458348488e+01 7.4033819155294651e+01  2.3588210312992490e+02 -1.0757954692707125e+02 2.7961351491735684e+02  3.6507227700556012e+02 -3.8025716571420276e+01 2.0803698516364264e+02  3.4652385202855328e+02 -7.0536155827457719e+01 1.8889889293838462e+02  3.4093470321444653e+02 -8.0652072060792520e+01 3.0074356531903248e+02  3.7123214993254203e+02 -1.8234245884467192e+01 1.4498866381111517e+02  3.8831771293035467e+02 -3.2119671507678653e+01 1.5664487904893701e+02  3.5100847719516793e+02 -3.1298644612469086e+01 1.2030804614044332e+02  2.7603442448359169e+02 1.5125931747392758e+02 1.8127300530853020e+02  2.3359398081953560e+02 1.6993063194790582e+02 2.0178127618247487e+02  3.3238274924264363e+02 1.7404878748535120e+02 2.6367187549110292e+02  2.7165718873220857e+02 1.7732094928150929e+02 1.6376491248642679e+02  2.2749878269005794e+02 1.8311748840943034e+02 1.8508541099067492e+02  2.0186543904770775e+02 1.5926708685201098e+02 1.2939584654378578e+02  2.3036086599387366e+02 1.5605869755943533e+02 1.2772619669762564e+02  2.5045394755880901e+02 1.5036481410331808e+02 1.1747895064689520e+02  4.4060288778652011e+02 3.5843677926393963e-01 1.5059395973982129e+02  3.6897425090382438e+02 -3.9455693000646271e+01 7.3052776430119934e+01  3.6528315304089665e+02 -1.7129815498561559e+01 1.1211713396347704e+02  4.2529714746077394e+02 -2.5831824430744895e+01 8.7772976175408459e+01  3.5096974945102193e+02 -6.4204598484253296e+01 6.6419140209210610e+01  3.6209653768040312e+02 -3.5960092093725983e+01 1.0705207624589980e+02  3.2790916424120445e+02 -5.2907467723419764e+01 9.6361543009510768e+01  3.0786132100047240e+02 -7.4808695308420326e+01 6.5029750393240946e+01  4.6514956776075553e+02 1.8970474126927633e+02 2.4885878861110510e+02  2.9708878813738238e+02 1.2042452186762338e+02 1.7991339195039205e+02  2.3983203774525509e+02 1.0485398199864748e+02 2.0710420986410952e+02  1.9684365829136368e+02 9.6686559825272212e+01 1.3049879047784481e+02  2.3546156243087515e+02 1.2752477368604940e+02 1.3026882407534413e+02  3.1674559144852418e+02 1.4412506285265601e+02 1.5054964113728349e+02  2.9660495054541991e+02 -1.2595482555635928e+02 2.3026935532145757e+02  3.0061202282454389e+02 -8.2710876356842903e+01 1.3362314723458513e+02  3.4400762222782282e+02 -6.1763514102177766e+01 1.5696488446371188e+02  2.9956172953637031e+02 -7.8868173707178585e+01 1.2186840821160598e+02  2.6868715197839083e+02 -1.2849797283089680e+02 2.8315709229163997e+02  2.7879319635669020e+02 8.8541657395740131e+01 1.2700649692362286e+02  2.9227898822519944e+02 1.1199201101455057e+02 1.0867208126286822e+02  3.5515694538063445e+02 1.0064445605140693e+02 1.3613260972959668e+02  3.2590234473624884e+02 7.7976315253572920e+01 9.0493410002018834e+01  2.0537617397170746e+02 1.2920643879836734e+02 1.3878217056244245e+02  3.4071784054570628e+02 -5.7934785492777962e+01 1.3921879214679484e+02  4.0357130624998456e+02 -1.1057385096803140e+01 1.3246916509327500e+02  2.8009979334164319e+02 2.0140347470756541e+02 1.3124372982173068e+02  2.8162139510704901e+02 1.8844933878763305e+02 8.9125346871402044e+01  3.3188744860139963e+02 1.4430236946508148e+02 1.1643079420554474e+02  2.6183638530344803e+02 1.3313464593390279e+02 5.2368769959874122e+01  2.6102814244436064e+02 1.4203695128259577e+02 9.1195956840690471e+01  4.3131460082522892e+02 2.1481607347720544e+01 1.5339008543810647e+02  4.0572354454650946e+02 -1.0335450262311031e+02 2.5935885355694558e+02  3.9085787253719207e+02 1.7563655132481910e+02 1.3480631967900626e+02  5.6318844957229135e+02 2.4663365751696875e+02 2.6366228533972219e+02  4.4027333339881255e+02 2.1255321183468308e+02 7.0176089200221995e+01  4.2480374074691542e+02 2.1756830805077885e+02 1.6644246475590165e+02  4.0266012085611044e+02 2.7548152430345124e+02 1.4874643178827929e+01  5.5655974648015660e+02 1.7409598268823837e+02 2.9381976847707006e+02  4.2441281365707732e+02 1.5963095884093940e+02 2.2936121824463066e+02  3.7484228270636896e+02 1.9189987165846352e+02 2.3980618179497827e+02  3.8143996177524735e+02 1.5552055774183643e+02 2.8363724355070707e+02  3.2575181773907769e+02 6.7926055085896408e+01 2.3751650311112940e+02  3.6304284996981556e+02 1.0018893767384137e+02 1.9659763469872675e+02  3.5370159095654680e+02 1.0595412533965009e+02 2.5898929335779445e+02  2.3478070534036820e+02 8.8320244303021397e+01 2.0704382543997906e+02  4.5619946601441785e+02 1.9346546021261651e+02 1.6579733622559168e+01  4.7298905695956887e+02 2.4478116098242447e+02 7.9117925135290390e+00  4.8322742017190035e+02 1.6408034711015503e+02 1.3608002405522848e+02  4.0187939532922098e+02 1.5265278851522788e+02 1.2142811264448856e+02  4.8895623838105104e+02 1.3342650062109172e+02 6.8040539322175562e+01  6.1014257590078307e+02 1.2828802914489168e+02 3.6011505986973481e+02  4.0112094790159796e+02 2.8367931664877943e+02 1.1597863408442819e+02  5.0094770920197050e+02 1.0855695990633881e+01 1.8296855614632551e+02  4.7140062648390023e+02 -3.3693483434317024e+01 5.1887506694216604e+01  3.2832054153389566e+02 1.5800667089984148e+02 2.8451002675197255e+01  3.7022505818149136e+02 1.1661387325553626e+02 7.2992764415498925e+01  3.0099510483532487e+02 1.0972375398383583e+02 7.2549014773850317e+01  3.9470051651334541e+02 8.4350100060345170e+01 9.4082587892748961e+01  3.2725097497095578e+02 7.1194206687570713e+01 1.5061911333061903e+02  3.8925719312799356e+02 5.2450304379296369e+01 1.9616980917476380e+02  4.2596441784639956e+02 7.1281175020830915e+01 3.0803423246146053e+02  3.8047841364598008e+02 5.6452216199759086e+01 1.4969712700608483e+02  3.8195441361120737e+02 5.7047107606695832e+01 2.6212160082495967e+02  2.9901563905763197e+02 1.8405091138504204e+02 3.7317881526744934e+01  4.0555589309580870e+02 4.0753690571009074e+01 1.1200362163290046e+02  2.0772776651178560e+02 -2.0921199854979101e+01 1.7983801616076124e+02  2.3773838381739844e+02 -3.0644602578884360e+01 1.8705629582858154e+02  2.2291019881443498e+02 -4.2640405050997927e+01 2.0007907819565162e+02  2.3578709639661656e+02 -5.8810200469173964e+01 1.5872144645967091e+02  1.8290290141579050e+02 -5.7263225163519309e+01 1.5402748604321775e+02  2.3667591727907592e+02 -4.3895141337140842e+01 1.6827983611200753e+02  1.9610190350078656e+02 -1.0560177166243449e+02 1.9631560649908502e+02  2.2456117180732588e+02 -7.1416596432019873e+01 2.3485070221502895e+02  2.3818022004322012e+02 -5.2712916806458416e+01 2.0755049562463023e+02  2.6187955706986594e+02 -2.9379784590573475e+01 1.8972078061156296e+02  5.5958698299339176e+02 1.8151207903043336e+01 2.9749135598041244e+02  5.0742549399416555e+02 3.2339770400919114e+01 2.5625810033911074e+02  5.4312253025828943e+02 1.5506641123385474e+00 2.0166304734309725e+02  5.2688489714440493e+02 3.5272747354032546e+01 2.5372233889299781e+02  5.8664337687109833e+02 3.0339586901376374e+00 3.2095621149105529e+02  5.3957352357728848e+02 1.6550839202585209e+01 2.0663883336215588e+02  5.8200680323100062e+02 5.0143887726037832e+01 3.3257692799314117e+02  5.2762767374142027e+02 -5.4168240728724015e-01 1.8173237556812714e+02  5.2506636011687749e+02 1.4055270821602496e+01 1.9075434985055202e+02  5.1163514749960319e+02 2.4821011388805328e+01 2.1003542632679765e+02  4.5025014356602196e+02 -8.5343351689382217e+01 1.4974567479585275e+02  4.0072725091172913e+02 -3.0479471197533758e+01 1.1039479972302202e+02  4.4482117771814956e+02 -3.2745601376480806e+01 1.3038362254166731e+02  4.2470088288459675e+02 -1.9138047118476720e+01 1.1568016672961616e+02  4.0391304922743353e+02 -5.8299722176006455e+01 1.4224920762836487e+02  3.7851560742417473e+02 -6.4296595721773926e+01 6.9625599985349751e+01  4.2831806669852494e+02 -4.5875758728794665e+01 6.6678609508751805e+01  4.1933431651063785e+02 -4.2644800251965073e+01 5.0237264469598081e+01  4.1578100470393599e+02 -2.3334908030222120e+01 9.1593483346064588e+01  4.3336535050932264e+02 -2.3520538563907003e+01 1.1124968376369317e+02  2.7255487369881860e+02 2.5019387748909288e+01 1.5420235625617573e+02  3.3517633241114225e+02 -1.7899833677213287e+01 1.9196560912114157e+02  2.7484304587432513e+02 -9.5377216916683150e+00 1.3191907933469727e+02  2.7732878075251466e+02 4.1406453439213331e-01 2.0256162928641209e+02  2.6903707568145774e+02 -1.1254483189426693e+01 2.3779935349532192e+02  3.3232014485466698e+02 -2.6052703337093295e+01 1.6623506631578670e+02  3.3188958417569359e+02 -1.7463440236640611e+01 2.2754937344474007e+02  2.7068298810990763e+02 -1.2808702251183437e+01 1.7237024977414973e+02  2.7444733063435706e+02 -2.4749006500232827e+01 1.0422582111603054e+02  3.9787376158648721e+02 -3.0931915865865268e+01 2.1362636473658551e+02  3.1494611267588391e+02 -1.8083425817796126e+01 2.4375558364077463e+02  3.0595826564070262e+02 -1.7491709110735187e+01 3.2353191674242521e+02  3.1217655920769761e+02 -1.6565739440017548e+01 2.8232713828618881e+02  3.4175715719061702e+02 -2.1421659817377400e+01 2.8136332838957895e+02  2.8746548810253120e+02 -1.6775091164383443e+01 2.8022741383123082e+02  2.9133442595413237e+02 -1.5971805213870827e+01 2.4204790111152138e+02  2.6184433083910244e+02 -1.2029982946845406e+01 2.7484454175907899e+02  2.5368776471054065e+02 -1.2516277635106176e+01 3.1182382727110888e+02  3.7305151040573782e+02 -2.8365448044026760e+01 3.3112754936524061e+02  5.1467713011287526e+02 -3.7625409865513296e+02 1.8316565564992470e+02  7.8859939333536499e+02 -2.8780725854201995e+02 1.8302097192420842e+02  5.8785072908428367e+02 -1.6657311971368719e+02 1.8251041526344596e+02  5.5130354743534861e+02 -3.4328431921104180e+02 2.3370888067384925e+02  7.1126853191872135e+02 -4.1146192960731059e+02 1.8486565340077635e+02  9.5556953800405950e+02 -8.2571066967417678e+01 2.0111742008672815e+02  6.6727384470660547e+02 -9.3888559780928617e+01 1.7673844926541136e+02  6.2365263060281882e+02 -2.4308682994037329e+02 2.1259924324629287e+02  6.0527102728612726e+02 -1.0271198745874329e+02 1.9405837098868545e+02  5.6815054546687259e+02 -4.0168470264849340e+01 1.8128330956497103e+02  1.4195776723842403e+02 8.9532968419138072e+01 5.2479116076197762e+01  2.3563173826235737e+02 3.6350136994813084e+01 1.0295257519709295e+02  2.2529133407536872e+02 7.0333764948583607e+01 1.1008478641818058e+02  2.4481144590252649e+02 1.6911040289430150e+02 1.5820925983343227e+02  1.1754312497953160e+02 7.5983911182096506e+01 4.5732468072906329e+01  1.4282622594936541e+02 6.8674688953347001e+01 4.5898442671135903e+01  2.3077731562870812e+02 9.0649461056592187e+01 1.8007525908156481e+02  2.4301147111338020e+02 2.1582064644762720e+01 1.2884223767595429e+02  2.4342015128862002e+02 4.2704032132461819e+01 1.4540237715921251e+02  1.9968239957803979e+02 -6.2851217296261703e+00 3.3615058384841939e+02  1.8176775269691979e+02 6.9345865530559614e+00 3.6667395151983681e+02  1.8588235853364557e+02 4.3242851270679745e+00 3.4666979765734311e+02  2.0165974609621946e+02 -1.5304267380507641e+00 3.5281625507023557e+02  2.0084456507502097e+02 -5.0233239706823554e+00 3.3492576917537139e+02  1.9422598104367452e+02 -5.5988317149685249e+00 3.4632633361765227e+02  1.9768459007026360e+02 -3.2713404852842137e-01 3.1586732326475197e+02  1.8106528106561242e+02 -2.7367163888078445e+00 3.2632469323448879e+02  2.0022328022359301e+02 3.3755438067052586e+00 3.8596282963234876e+02  1.6977525623581386e+02 -4.5968479444074832e+00 3.5306663982933043e+02  5.7760963197441026e+02 -3.4283564007794688e+01 2.0665474597840273e+02  6.4733927844529353e+02 -1.2145632717192969e+01 1.9525928029221311e+02  7.2974211805256550e+02 -9.4387900112806136e+01 2.0738884208632078e+02  6.8898805776861843e+02 -1.1120183699327171e+02 2.6039934880789355e+02  8.1080360647759699e+02 7.7144841249421489e+01 2.0520783041033158e+02  6.5664849989128982e+02 1.6434298653464911e+01 2.4543052503116837e+02  5.9963595160967509e+02 -5.4961876471011117e+01 2.4272675378248007e+02  4.8017236837385707e+02 -9.1294629767433520e+01 1.7977192720487093e+02  4.1932337633510622e+02 -1.6431063532455644e+02 1.9215062229485801e+02  4.0681872947295307e+02 -2.0105560865514383e+02 1.5993057118122343e+02  3.7341256333226579e+02 -9.4751369036901806e+01 1.5645356049721269e+02  4.7760129607370385e+02 -4.7002627283945706e+01 4.7774369851646532e+02  2.9310150116019202e+02 -5.8410626382266928e+00 4.8255664987540553e+02  2.5967745588265484e+02 1.4951279691801364e+01 6.1205016444233024e+02  3.6236103110958754e+02 -2.9555668879588918e+01 4.4676741070298181e+02  3.1939419591107298e+02 1.4360331967044824e+00 5.8664961970516833e+02  4.6184066777302274e+02 -7.0444879369971432e+01 5.4932950401236224e+02  1.5678808910855224e+02 3.1133609219722999e+01 5.8093181773697165e+02  3.6569045345209963e+02 -3.4671618372009306e+01 5.5581873102062355e+02  3.3826825476540046e+02 -2.2262459878936834e+01 4.5736644858910421e+02  3.1657338066812213e+02 -1.8623969089913370e+01 3.9374337309209233e+02  3.0525346707593178e+02 4.0085225302264440e+01 1.6713737964729208e+02  3.9907431507469960e+02 1.9173681253433969e+01 1.9126776289402096e+02  3.6756545962608317e+02 5.6944339576694396e+01 2.1579150621916520e+02  3.8277785089223244e+02 5.2675687478532296e+01 2.2592028376276272e+02  3.6405074836876406e+02 4.5314606910296211e+00 1.7713869266562338e+02  2.8438873075154760e+02 3.3879272383370020e+00 1.6644814639311664e+02  3.0269711509568646e+02 2.1209461988754555e+01 1.6263488622001208e+02  3.6735587372294378e+02 3.0248058374639428e+00 1.8458339451191867e+02  3.6974381565368969e+02 -3.5883206445086322e+00 1.8724882529527821e+02  4.3788062085718065e+02 3.9247854462393221e+01 2.2453512780101235e+02  2.0174671296495754e+02 -1.3116644308115323e+01 9.7223649454869417e+01  2.3646388994204267e+02 -1.9597826314315803e+01 1.7169564464127194e+02  2.4342133914438264e+02 -2.1950262849111510e+01 1.2781532087640748e+02  2.3657933390949498e+02 -1.5748196201669105e+01 1.3018927640378291e+02  2.0859930739255523e+02 -1.0232922121462826e+01 1.3501431875162672e+02  2.0978870416036389e+02 -2.7129403558080654e+01 9.8373633116378500e+01  2.2053932820002257e+02 -5.9404143960160418e+01 1.1020283984651115e+02  2.2429023084196729e+02 -2.2544887827082064e+01 1.4054729416446906e+02  2.7629356493138613e+02 -1.6621503849636046e+01 1.6324989488171741e+02  2.6347162743617224e+02 -5.2829515334442739e+01 1.6200804886035709e+01  2.6615935290327690e+02 -4.5235435168232733e+01 2.9651200651632394e+01  2.4189775320172512e+02 -4.5159820401974450e+01 1.8477478711611734e+01  3.0648402214430553e+02 -6.6002373856116250e+01 -1.6846541368782191e+01  3.6560640274701097e+02 -3.0572574763355497e+01 -1.0675879930041347e+01  2.9557392595540313e+02 -4.1033983133079730e+01 1.0903839226030998e+01  2.7068847001062636e+02 -5.0655212744965063e+01 -5.6003073562870085e+01  1.9034218644699186e+02 -4.0616621962191154e+01 2.4286378329129272e+00  2.4510556490583409e+02 -3.9130506121510372e+01 2.1059838672470040e+01  2.5642670463436605e+02 -3.6469825800389437e+01 4.3319306715581547e+01  3.4514863031375887e+02 -1.1115258965085840e+01 1.6423549326097171e+02  3.2909625446954112e+02 -2.3003261476460409e+01 1.9991903101115614e+02  3.1326665763521362e+02 -1.5503223472811962e+01 1.8870579685436945e+02  3.5737716649733449e+02 -4.0744051517907289e+00 1.8257689815725860e+02  3.3166147909763708e+02 -2.4349531614063352e+01 1.6586902495360189e+02  2.7084486125038842e+02 -3.6269150590178903e+01 2.3467888619851786e+02  2.6287920000184420e+02 -3.6474734947345695e+01 2.1352736418587867e+02  3.2269214485106932e+02 -1.5098141162297509e+01 1.8687686515030413e+02  4.2128023597589885e+02 -5.2625777162337233e+00 1.6011444292718627e+02  4.2578180975251030e+02 1.5570119512446354e+01 9.9774827956614871e+01  4.4211432640476636e+02 -1.2983267367999050e+00 1.1965141339353779e+02  3.8543522988667473e+02 -3.9122451860457985e-01 1.1884527339843902e+02  4.5023658153015054e+02 6.5265082250283974e+00 1.5177856926141774e+02  4.9708527588361204e+02 9.3461078227302661e+00 1.5520539357359198e+02  4.8407384744760384e+02 4.1104912243092047e+00 1.1184023382457961e+02  3.4201966509395476e+02 6.1601338912566375e+00 6.6363096575514319e+01  4.0647877878607841e+02 9.1128417733673750e+00 6.4824377823715977e+01  4.7186088993395259e+02 4.5222025777211776e+00 6.9975477627885596e+01  6.5356980960889857e+01 -1.0339574930410602e+02 1.0600245618537173e+02  1.0910822081808804e+02 -8.6087741334398572e+01 1.6719255461642015e+02  1.5692504342434395e+02 -5.9284967012534338e+01 8.0308325056848858e+01  1.5596407000248516e+02 -1.1231019757213512e+02 1.7244143028085250e+02  2.0741190164456924e+02 -1.1669696583286596e+02 2.1378176582485131e+02  1.5536528888172086e+02 -5.4624273483973276e+01 1.3344816281698473e+02  1.6559109364530332e+02 -7.1032530013596684e+01 2.1179217393248368e+02  1.9414544596106029e+02 -8.7601823737395350e+01 1.4220996895980960e+02  2.0499094408837456e+02 -5.1598990043401294e+01 6.1005978521010697e+01  1.2741269707194003e+02 -4.0054189353922844e+01 1.8947143373404566e+02  2.2099361837886181e+02 2.7904420807859271e+01 2.3913701794459902e+02  2.7356330434169274e+02 3.1714293794047940e+01 2.6257607150743667e+02  2.2600916323386039e+02 1.5726645624123682e+01 2.6985992804472079e+02  2.27546406