<?xml version="1.0"?>
<VTKFile type="UnstructuredGrid"  version="0.1"  >
<UnstructuredGrid>
<Piece  NumberOfPoints="10669" NumberOfCells="48649">
<Points>
<DataArray  type="Float64"  NumberOfComponents="3"  format="ascii">30.272741 35.596977 6.221544  31.48791608611874 35.78290796399644 5.606215336589653  31.06100958611874 36.25434346399644 5.912398836589652  31.09748058611873 35.69138196399644 6.298081836589652  30.6631765 35.688503 5.5296775  30.23627 36.1599385 5.835861  30.199799 36.7229 5.450178  30.6267055 36.2514645 5.1439945  31.053612 35.780029 4.837811  31.92222017223747 35.78578692799288 6.374619673179305  35.43228360678367 39.2613511776761 3.209841539126567  34.01840426732576 39.41615115297825 4.055832513592971  34.28015922013414 38.51784476588541 3.823021349869368  34.96178111576863 39.42307169472233 4.102180693793323  34.4889067583408 39.25443063593202 3.163493358926215  35.223536068577 38.52476530762949 3.86936953006972  35.01478853037033 37.78817943758288 4.528897521012873  34.75303357756196 38.68648582467572 4.761708684736476  33.54552990989794 39.24751009418794 3.117145178725862  34.49127862475359 39.58479221176857 4.994519848460079  30.58213 37.406975 4.39483  32.13470539817252 37.45386696306139 4.833271676791746  31.7324137058467 37.97849648707427 4.824167500659684  31.00631548956478 37.54548024682433 5.122977364138834  31.71051990860774 37.31536171623706 4.105124312652912  32.83890981721549 37.22374843247411 3.815418625305824  32.86080361445444 37.88688320331133 4.534461813312596  31.43050097912955 37.68398549364866 5.851124728277669  32.15659919541147 38.1170017338986 5.552314864798518  32.8826974116934 38.55001797414854 5.253505001319368  30.205669 38.58432 3.506366  30.71630995131871 38.09263443456652 2.625999024422383  30.93435045131871 38.28779043456652 3.249611524422383  30.2819585 37.936884 3.2605815  29.9876285 38.38916399999999 2.8827535  30.358248 37.289448 3.014797  31.01063995131871 37.64035443456652 3.003827024422383  30.063918 37.74172799999999 2.636969  29.769588 38.194008 2.259141  31.66303190263742 37.99126086913304 2.992857048844765  30.704466 34.825672 7.292387  30.934002 35.115488 6.126927  31.31334308611873 35.30572946399644 6.833503336589652  30.4886035 35.2113245 6.7569655  31.595263 34.633999 6.03231  31.75874158611874 35.20989296399644 6.203464836589653  33.21411366079567 38.89876403416824 4.185325090022616  33.19221986355672 38.23562926333102 3.466281902015843  33.94874297103186 38.16909870586571 4.89120126116612  33.92684917379291 37.50596393502849 4.172158073159348  34.230103 36.571117 6.39887  33.10158440095968 35.96907609910779 5.655904744531243  33.54159597873705 36.60039333057539 5.316990641248108  33.4897335278085 36.70531841002529 6.041762144511896  32.749364055617 36.83951982005058 5.684654289023793  31.28948791185424 37.74457203823736 2.232179447543406  30.63709596053553 37.39366560367084 2.243149423121023  30.34276596053553 37.84594560367083 1.865321423121023  30.91594392107107 37.49788320734167 1.471501846242046  33.723812 38.702522 6.435984  34.42203481237679 38.64438960588429 5.607892424230039  34.1075453123768 39.14365710588429 5.71525192423004  34.449972 38.63006 6.339291  34.0383015 38.2032545 6.3286245  34.352791 37.703987 6.221265  34.7644615 38.1307925 6.2319315  35.176132 38.557598 6.242598  34.83370531237679 39.07119510588429 5.61855892423004  29.541693 35.269943 7.507394  30.51316575368434 35.88903920116823 7.179108478330427  29.93177925368434 36.11117470116824 7.286611978330427  30.4481205 35.6474665 7.863251  30.1230795 35.0478075 7.3998905  31.354548 36.02499 8.219108  30.83820675368434 36.48869820116823 7.642468978330427  31.029507 35.425331 7.7557475  30.32186550736868 36.95240640233647 7.065829956660855  33.477489 37.408794 6.714972  33.61774420584671 38.12700248707426 5.737385000659684  33.1800932058467 37.97940598707427 5.984238500659684  33.6006505 38.055658 6.575478  33.91514 37.5563905 6.4681185  33.3032547058467 38.62626998707427 5.844744500659685  30.882971 35.236492 9.111535999999999  30.7937185 35.031082 8.201961499999999  31.428485 35.0875165 8.859491999999999  30.981312 34.607052 8.604168  31.079653 33.977612 8.0968  31.3392325 34.8821065 7.9499175  30.8920595 34.401642 7.6945935  31.526826 34.4580765 8.352124  31.973999 34.938541 8.607448  31.75496744656585 37.51732574743347 1.644816823896087  31.49998576730918 37.08417029000306 2.391102496292144  32.12851143734903 37.76401457832915 2.405494425197447  32.59399097206064 37.53676828752527 1.818131801550128  31.24205648956477 36.73200724682433 5.344467864138835  30.81514998956477 37.20344274682434 5.650651364138835  30.3909645 37.0649375 4.922504  30.817871 36.593502 4.6163205  32.261097 37.04007 7.464053  32.7469565278085 37.48249841002529 6.375945644511897  31.84579898956478 37.36202774682433 6.657588864138834  32.5052305278085 36.93979491002529 6.574353644511897  32.502823 37.5827735 7.265645  32.744549 38.125477 7.067237  32.08752498956478 37.90473124682433 6.459180864138835  32.08993251737328 37.26175265684962 5.767889508650731  31.12258095131871 37.69911793456652 3.693843524422383  30.470189 37.34821150000001 3.7048135  30.3938995 37.9956475 3.950598  32.27286465716541 38.27063942164079 4.123181025082067  32.25097085992645 37.60750465080358 3.404137837075295  32.60428090626768 38.61938548166049 3.055001113785314  31.12204283980308 36.36909666516468 6.72022481492008  31.63838408611874 35.90538846399645 7.296863836589653  30.8136445 35.81098350000001 7.220326  30.29730325368434 36.27469170116824 6.643686978330427  34.68378976518517 37.74608321879144 5.375081260506437  33.6869880182235 39.06740509295855 5.124012424889724  35.09546026518517 38.17288871879144 5.385747760506437  34.34330945092856 37.0326269205501 5.585295996736212  34.897362 37.3498345 6.015488  35.441933 36.995682 5.809711  35.22836076518517 37.39193071879144 5.169304260506436  33.5510775278085 37.27175341002529 5.952959644511896  34.29144700000001 37.137552 6.3100675  31.67636057568351 36.73488621082078 6.112872200728487  32.33579211392724 36.31265337402174 6.029636981101549  36.09822167356649 38.00619392695894 3.953924433839223  35.62257412844557 38.01048226113051 3.122554064195207  36.30696921177316 38.74277979700555 3.294396442896069  37.18165481676265 38.22420841633502 3.378951346665572  31.6657470278085 37.12324741002529 5.039742144511896  32.79413693641624 37.03163412626235 4.750036457164809  31.24715595131871 37.05189893456652 3.202186024422383  32.57679 35.716637 7.673841  32.61213958611874 36.07869596399644 6.676337836589653  32.09165858611874 36.41292846399644 6.919336336589653  32.24950508611874 35.75121196399644 7.024230336589653  32.9394245 36.044121 7.3259485  32.4189435 36.3783535 7.568947  32.781578 36.7058375 7.221054499999999  33.302059 36.371605 6.978056  31.8078225 36.53253 7.8415805  31.965669 35.8708135 7.946474500000001  31.3244375 35.207014 5.435060500000001  34.60152235115756 37.86531135944357 3.242275925418602  34.81026988936423 38.60189722949018 2.582747934475449  34.18825617194479 37.94244328130427 1.955654329824332  33.86689304092136 38.5949766877461 2.536399754275097  33.06976044097929 38.3921391908566 2.467638490137995  31.040201 37.448868 8.301062  31.03794025368434 37.68197570116823 7.406472478330428  31.29148125368434 36.99623820116824 7.264941478330428  30.68103325368434 37.20063720116823 7.683445978330427  31.650649 37.244469 7.8825575  31.397108 37.9302065 8.0240885  32.007556 37.7258075 7.605584  31.754015 38.411545 7.747115  35.8231044806811 38.97039167167147 2.437802789387801  36.21392535457852 38.67943216566685 1.665764039649035  35.20109076326165 38.31093772348556 1.810709184736683  33.60826265677525 37.45564240762437 5.101415997395896  32.8160307336552 37.69476889709956 5.469079645171581  29.469059 38.034889 1.20649  30.189081 37.776051 0.675458  30.19250146053553 37.76638610367084 1.338995923121023  29.9264105 38.230177 0.874814  30.383762 38.425465 0.543138  33.0257115278085 36.60556241002529 6.331355144511896  36.69779008567059 38.45182029100093 2.522357693157303  29.870896 37.39144349999999 1.962965  29.6193235 38.11444849999999 1.7328155  33.51358299458013 37.58309585688919 2.885536477565078  34.836018 36.7833995 6.104290499999999  32.8136232058467 38.33774748707427 6.160371000659684  35.3090325 37.77664 6.026154500000001  29.907217 35.43346 6.864469  33.853796 36.9899555 6.556921  33.766081 36.471361 6.688463  33.389774 36.8901995 6.846514  33.1134265278085 37.12415691002529 6.199813144511896  31.59225798956478 38.04776524682433 6.799119864138834  32.249282 38.268511 7.407176  30.87618324324912 37.31819594799256 6.458477342469262  35.93385476518517 37.56074421879144 4.880476260506437  35.71655626518516 37.90536421879143 5.358022260506437  36.147427 37.1644955 5.520883  35.9301285 37.5091155 5.998429  36.418324 38.022549 6.187147  36.6356225 37.677929 5.709601  36.852921 37.333309 5.232055  32.869293 37.224432 7.0895125  33.111019 37.76713549999999 6.891104500000001  35.797228 38.2900735 6.2148725  38.198154 37.273895 4.999707  38.09906890838133 38.30778470816751 4.309777173332786  39.01470007506383 37.88665335012033 4.029062984984666  37.68990440838132 37.74905170816751 4.189329173332785  38.60731850000001 37.832628 5.120155  39.016483 38.391361 5.240603  39.7915575 38.651751 4.36264  39.286562 38.898491 4.7654335  39.556641 39.405621 4.290264  39.28477907506383 38.39378335012032 3.553893484984665  39.863146 38.9574205 3.904504  40.169651 38.50922 3.518744  31.640628 35.27115449999999 7.483114  33.2341805 38.4139995 6.7516105  31.1187595 35.630741 8.665322  30.212332 35.2532175 8.309464999999999  29.609245 34.714996 8.404771  30.1568555 34.770334 7.848579  30.246108 34.975744 8.758153499999999  29.575469 34.9924695 7.9560825  32.2753945 35.327589 8.140644500000001  31.6642735 35.4817655 8.413278  30.344449 34.346304 8.250785499999999  30.357643 33.807976 8.777801  30.718648 33.89279399999999 8.437300499999999  30.620307 34.522234 8.944668499999999  29.983444 
[...]
<PointData  Vectors="u"> 
<DataArray  type="Float64"  Name="u"  NumberOfComponents="3" format="ascii">1.9186405543555048e+02 -8.1320237607876081e+01 -1.1395819190214519e+02  1.5175486244582277e+02 -1.2504764267481436e+02 -8.0985145622393603e+01  1.4563815017274280e+02 -1.1508293138236593e+02 -9.7943795424127643e+01  1.8263927574558130e+02 -1.1835582791106914e+02 -8.8889478680944976e+01  1.4584536232677672e+02 -8.6945011392714321e+01 -1.1341707183201331e+02  1.8395764248909973e+02 -9.1214118615808957e+01 -1.2640597483810676e+02  1.1633443039957565e+02 -7.7679734872385765e+01 -1.2997867396891743e+02  1.3100429567579741e+02 -1.0643445574539878e+02 -1.1364020167094691e+02  1.0727765471456865e+02 -1.2589498008406075e+02 -1.1876954463796261e+02  1.6540180455113637e+02 -1.4751906762334531e+02 -6.3776425057717638e+01  1.0779207845174003e+02 -1.1556574949578879e+02 -4.1209369248708477e+01  9.4972972915409514e+01 -1.1461235323426762e+02 -4.5639505749346739e+01  9.7910393260916550e+01 -1.1779505977264363e+02 -3.6719845096844814e+01  9.6772201231049038e+01 -1.1783585627294327e+02 -5.0531175957368177e+01  1.0034783053817219e+02 -1.1010965584398942e+02 -3.5703296989118677e+01  1.0591920521043467e+02 -1.2177303662185101e+02 -4.5128240801493881e+01  9.7892124003442220e+01 -1.2957155547183066e+02 -4.2652117717204014e+01  9.3113407592235006e+01 -1.2649602383396721e+02 -4.8299240017079192e+01  9.4143863762420892e+01 -1.1028769360441815e+02 -3.2651882371428322e+01  9.0830105711809864e+01 -1.2189902275341764e+02 -5.0364054511147920e+01  5.0376882464545751e+01 -1.1672135875202491e+02 -9.8524742234362080e+01  9.4482445747317186e+01 -1.2576441865053110e+02 -5.8905198052114315e+01  8.5583310112501607e+01 -1.2237475943257033e+02 -6.7659349753528630e+01  8.2893957866654631e+01 -1.1430133945362493e+02 -9.3851593058963147e+01  7.2732729626971604e+01 -1.2477750118071965e+02 -5.5312299177999726e+01  8.5114793262796951e+01 -1.2207158222578457e+02 -3.1780505706176662e+01  9.3250682283518188e+01 -1.2500741349438017e+02 -4.5557300974704084e+01  1.0938141294548298e+02 -1.1907654892331892e+02 -8.9151304523726793e+01  1.0374776970160200e+02 -1.2522802793742234e+02 -7.0126648647635534e+01  1.0143236744195362e+02 -1.2530257622875527e+02 -5.5705426882936685e+01  2.3561827953950374e+01 -1.3394853966061581e+02 -4.1487020208333057e+01  4.5809453618216196e+01 -1.2885992941714582e+02 -1.9552332379333016e+01  4.7689668440795081e+01 -1.2818870856929576e+02 -3.6753428819846285e+01  2.3774747814108757e+01 -1.3186888521575455e+02 -2.8103932478110341e+01  2.3843533009749581e+01 -1.3093687915312177e+02 -1.3582754829149579e+01  2.7368584016046540e+01 -1.3010060554427500e+02 -2.5890655291197238e+01  4.7195820548884335e+01 -1.2584024417154433e+02 -2.9997234357456762e+01  3.3074767310879707e+01 -1.3252682565797210e+02 -1.2281538965673835e+01  3.3896909645823968e+01 -1.3462516244900746e+02 -1.1444849500375549e+00  6.2622771240953504e+01 -1.2253088824748617e+02 -3.0791147321480285e+01  2.6089499635630006e+02 -1.2854491225331029e+02 -9.5523381260674853e+01  2.0454853874926386e+02 -1.1827596831353995e+02 -8.1270083528243731e+01  2.0516606224978000e+02 -1.4206112361180581e+02 -7.7736196191451654e+01  2.4081507831529970e+02 -1.0287832639837194e+02 -1.0961125359975132e+02  1.7114789050328008e+02 -1.8955651197475302e+02 -8.5151623936365198e+01  1.7659881547522806e+02 -1.5291456041432849e+02 -6.8583165585998728e+01  9.4093295455338350e+01 -1.1877507968736650e+02 -4.4670191224449844e+01  8.8489123071394914e+01 -1.1719429138608014e+02 -3.2026249068351042e+01  9.8714242153418695e+01 -1.2742348955924460e+02 -4.1710443229924401e+01  9.7904173476920377e+01 -1.2332391639420113e+02 -3.0967851578785574e+01  1.2712140103254491e+02 -1.8647477819320360e+02 -9.1268350933158491e+00  1.2507124470087604e+02 -1.4813885977755334e+02 -2.4820592294219409e+01  1.1052939699261680e+02 -1.4383110969603655e+02 -2.7478872728444703e+01  1.2320278687506799e+02 -1.5769331195806285e+02 -3.3841051306678921e+01  1.1883563698067837e+02 -1.4130191802314593e+02 -4.9189056248812989e+01  5.6370003476122037e+01 -1.2376869784638579e+02 -1.6991834389463705e+01  4.2499432144648637e+01 -1.2838794000090562e+02 -1.2707942399283171e+01  4.5677897308499318e+01 -1.3103214230649050e+02 -6.7225802381402469e+00  5.1677172401030816e+01 -1.2412627526684129e+02 -7.1310724032291946e+00  1.3496723650340246e+02 -1.2267438829476546e+02 -4.3109588975902042e+01  9.5057853559554829e+01 -1.2417772030508638e+02 -3.3066471938145661e+01  1.1008700462280341e+02 -1.2454204098982130e+02 -2.4433132991109261e+01  1.0635331854230527e+02 -9.3114737490942403e+01 5.1683531853041300e+00  1.1426348124904491e+02 -1.1950686241819372e+02 -3.7363979190922500e+01  9.6035070527934494e+01 -1.4085816336039426e+02 -3.8907871214983771e+01  7.6032459240366791e+01 -1.1647545330695965e+02 -3.4599787867918835e+01  4.1395029720133557e+01 -1.1932745082163871e+02 -3.2818884196817670e+01  7.5929766608039287e+01 -1.2788403198995668e+02 -3.2079913508603873e+01  2.1388317960494405e+02 -5.2286937243697203e+01 -1.1958933370237567e+02  1.9815736668813031e+02 -9.7560117882849724e+01 -1.0620344800026393e+02  1.8082621864093457e+02 -7.9308848162718149e+01 -1.2411292848932588e+02  2.2320706191929406e+02 -1.0884738445332586e+02 -1.1035438363808680e+02  2.5055770398629952e+02 -6.8064399590926854e+01 -9.1280620881756633e+01  2.3628801375778389e+02 -1.6514634709152119e+02 -9.9361304730362136e+01  1.8369271699086295e+02 -1.2058771114699074e+02 -1.1464471045303620e+02  2.3953865254750528e+02 -1.3524072629738788e+02 -8.8296408455559700e+01  1.5136657051810315e+02 -9.4942091018830865e+01 -1.2310954126173581e+02  1.2592975596784873e+02 -1.5226828865277133e+02 -5.1852567922751120e+01  1.0921118498090686e+02 -1.3124636269997953e+02 -4.5908613133502527e+01  1.1341246768100869e+02 -1.3438586485693918e+02 -5.5308598326247107e+01  1.2384829220913531e+02 -1.3467268525569449e+02 -5.3266863691395777e+01  1.1498008066295428e+02 -1.4286957291360034e+02 -4.3276344034676043e+01  1.1353291358479336e+02 -1.2884245047970560e+02 -5.3965276542843874e+01  2.8315790802661058e+02 -1.8066713645918009e+02 -1.1639422795296190e+02  2.6376542448321140e+02 -1.3387296895099212e+02 -9.2704935807330202e+01  3.1555310163097829e+02 -1.5455737232740788e+02 -6.5391976154552907e+01  2.8857523470722253e+02 -1.4075999573063740e+02 -8.3205344181105318e+01  2.8985333639943860e+02 -1.8458532294406550e+02 -1.0634455003943951e+02  2.6078574493326465e+02 -1.4666879691646184e+02 -7.2032744008340316e+01  2.8948844589212547e+02 -1.4601424593297568e+02 -8.8795181568715705e+01  2.7569111846438119e+02 -1.5153896715598589e+02 -6.9462657899610491e+01  3.1745696630318810e+02 -1.3722525950507210e+02 -1.9263608636246328e+01  6.1731622205313435e+01 -1.1831436630006648e+02 -1.0584728574928709e+01  5.4850176904467425e+01 -1.2114180709628329e+02 -1.7790713328639281e+01  6.9059742374606316e+01 -1.1786123764754498e+02 -1.9965699431757535e+01  7.2584978902724131e+01 -1.1229616020925499e+02 -1.1833597488057636e+01  1.1512031746205055e+02 -1.1562256615594603e+02 -9.0620061639185053e+01  1.0653787873147849e+02 -1.0459144796318894e+02 -1.0577556181853303e+02  8.5574591304841491e+01 -7.7902871231438226e+01 -1.0627318938860860e+02  8.1569573554684055e+01 -1.2849369175835631e+02 -1.2173433078281927e+02  1.6564161292973111e+02 -1.5986636544591175e+02 -7.9234736742711718e+01  1.2805752260931885e+02 -1.4058048956585310e+02 -6.1401467414896160e+01  1.3693842652734088e+02 -1.3252974245182332e+02 -8.4445301783287036e+01  1.4050003576155746e+02 -1.4860187466308170e+02 -6.1459713670622115e+01  1.4770507008377615e+02 -1.4665602694751612e+02 -8.3077664501511748e+01  1.3700832505897344e+02 -1.3697656637410444e+02 -7.4747651325614356e+01  1.2514375531707552e+02 -1.3024154309682368e+02 -7.9765968577555014e+01  1.1713828780766039e+02 -1.3069025623618998e+02 -6.9894467859219830e+01  4.7827656817241120e+01 -1.2653350978004644e+02 -5.0439037109772890e+01  2.1611083761952109e+01 -1.2312584850145727e+02 -5.0418439962708362e+01  1.8510386932217028e+01 -1.3383134816361610e+02 -6.6003685977342158e+01  8.2058532324066761e+01 -1.2251262903697170e+02 -4.8314325551636074e+01  7.3024329802358636e+01 -1.2116428638233165e+02 -3.3875705446486279e+01  8.2536393706137460e+01 -1.1669110848059641e+02 -3.0597632843561623e+01  1.6580083760896420e+02 -1.1959484325055051e+02 -9.3868788158402310e+01  1.9865229723640834e+02 -1.4990373939683295e+02 -7.0935543331250670e+01  2.0301417691866888e+02 -1.1566106109923015e+02 -9.8900765135653643e+01  1.6960172503165998e+02 -8.7439185391825873e+01 -1.1361902074683778e+02  9.0009830040987580e+01 -1.3625322602475396e+02 -3.9142648079559550e+01  9.8702527696673513e+01 -1.2365495089979780e+02 -4.7222903351157058e+01  7.9395187009894215e+01 -1.3035791140407036e+02 -5.2476068003571314e+01  1.0208994936775046e+02 -1.5369698309557319e+02 -2.6340284753794368e+01  7.6898679617586296e+01 -1.6173555469225136e+02 -3.9920198339323576e+01  4.9386860127450028e+01 -1.7445214823613028e+02 -3.8352321920564208e+01  8.3042017675644587e+01 -1.4186058996819753e+02 -4.8645588782813881e+01  1.1503508318126214e+02 -1.4651329074475979e+02 -4.3037579233291716e+01  1.0960197955822744e+02 -1.6458515222299576e+02 -4.0461564654449710e+01  1.3600825411356431e+02 -1.2797213887482087e+02 -7.8638270974559518e+01  1.3789310922720597e+02 -1.4425777496305602e+02 -5.5159599861078938e+01  1.3250602830579763e+02 -1.3665201013811406e+02 -5.5662402121144076e+01  1.2660378447183254e+02 -1.1748771897259945e+02 -2.9552398657899918e+01  1.2924521806028159e+02 -1.3391734242359607e+02 -4.7861228472957450e+01  1.7997365265023080e+02 -1.6579329874446250e+02 -5.8128150393438702e+01  9.8596846972700334e+01 -1.2419266779435301e+02 -7.1335064051592809e+01  9.8296632211245210e+01 -1.3013289105006206e+02 -4.3459219241000277e+01  4.9537702632376970e+01 -1.2529440731104431e+02 -3.3546579341517678e+01  2.3394780818945716e+02 -1.8949023235497705e+02 6.3448168555291664e+00  1.6076680278640472e+02 -1.6201573624868573e+02 -4.1880455805950412e+01  1.6447110557381629e+02 -1.5125296415127534e+02 -6.8054062295698046e+01  1.8548597082014444e+02 -1.6208714294808846e+02 -4.6402017968759964e+01  1.8611583223750611e+02 -2.1414627041982914e+02 -3.0632177934588878e+01  1.7794150213679387e+02 -1.7925335120374714e+02 -5.4242397233264846e+01  1.5440179141927106e+02 -1.7045441680436414e+02 -5.4016608114096769e+01  1.6118943143991848e+02 -1.9325398375448006e+02 -2.6256984777917221e+01  1.9888900464196530e+02 -1.6722383270631966e+02 -9.2322942935195968e+01  2.3504090451314448e+02 -1.8767919184825968e+02 -4.8728426956635872e+01  1.9090287498156084e+02 -1.4805111112512029e+02 -1.0487674892471938e+02  1.0409811511660591e+02 -1.1435279413681175e+02 -2.4877338261556265e+01  1.0672070502944419e+02 -1.0827473509141072e+02 -2.2938017768400847e+01  9.5591916870049602e+01 -1.0331975910243760e+02 -1.0591254658539084e+01  9.5561701236973377e+01 -1.0947367012252940e+02 -2.2394628723180613e+01  8.5525555007125334e+01 -1.1246216461841297e+02 -2.1210727361878128e+01  1.6748388937466390e+02 -1.1359098535613239e+02 -1.2607051260646278e+02  1.4456372709343950e+02 -1.1382163569245370e+02 -1.1138478987359360e+02  1.6014769484404630e+02 -1.2575290857021442e+02 -1.0267824803578114e+02  1.6159890693089059e+02 -1.0797767435428331e+02 -1.2164578218127134e+02  1.6391695634575137e+02 -1.3301496698497073e+02 -1.0647122340148442e+02  1.5408916898800589e+02 -1.1997891791815142e+02 -1.0814363580891785e+02  1.4668156252184292e+02 -1.3188141872720473e+02 -9.5672914335607118e+01  1.3665341632602690e+02 -1.2764674432982095e+02 -1.0146509330319357e+02  1.2333941384987433e+02 -1.1653645916363550e+02 -2.5532474915145567e+01  1.3828392132844712e+02 -1.1368212348091932e+02 -5.5137178169138812e+00  1.1524586713389382e+02 -1.0455676557962380e+02 -8.0155889363558437e+00  1.0214830482163052e+02 -1.3458433987619338e+02 -3.7669407517553722e+01  1.0776201678953254e+02 -1.3127181349629817e+02 -5.5068139014073239e+01  5.2035884319112100e+01 -1.5174022663443401e+02 8.6589158162533728e+00  2.4447281485465183e+01 -1.3155811656514095e+02 -2.2271059323410707e+01  4.3537715306496658e+01 -1.3136066852065679e+02 -8.5718155069672282e+00  6.9507864526241363e+01 -1.6913120385747919e+02 3.8134512167235073e+00  6.5798947386498995e+01 -1.4165960186746460e+02 4.0812033544195661e+00  1.3568279277860819e+02 -1.5935069539074331e+02 -4.1855308699963906e+01  1.5947364603840066e+02 -1.3741871707438415e+02 -2.4565934350920358e+01  3.4034617684025292e+01 -1.2945347250967936e+02 -1.6295666585658297e+00  4.4155726825337531e+01 -1.4345637201293005e+02 3.8896951582864547e+00  8.8149953351496421e+01 -1.1276046518014454e+02 -2.0293734693919770e+01  1.0416613128647940e+02 -1.8944166968828401e+02 2.0825110569889755e+00  1.1672030061222799e+02 -1.3177659528023815e+02 -6.4526296476622690e+01  6.3652506647333439e+01 -1.4342473053729771e+02 -3.5092754161121704e+01  2.0284916411097515e+02 -4.8353935847427501e+01 -1.0757258164934517e+02  1.1642052901386080e+02 -1.7066928468150292e+02 -4.7976559310638450e+01  1.4793804686948735e+02 -1.9767746548321875e+02 -1.0611486033236808e+01  1.3172824061076255e+02 -1.7083449511240642e+02 -4.8933393219458736e+01  1.2427895756350350e+02 -1.4837079884308810e+02 -4.8735556543673262e+01  1.2690132263134178e+02 -1.2110043084196994e+02 -9.5352306325519919e+01  1.4068904422217111e+02 -1.3054945242089673e+02 -8.7522647689745568e+01  1.3031270322643940e+02 -1.0886503168440829e+02 -1.0615295285461458e+02  9.4259829842624043e+01 -1.3477969177953784e+02 -7.5346077979234408e+01  7.0299163713875146e+01 -1.3245082852840812e+02 -6.7953440917864100e+01  4.6779126294503470e+01 -1.3731732158427053e+02 -1.2656182912623950e+02  -2.9245574358773370e+00 -9.8488220480044291e+01 -6.0473138196936219e+01  1.0194724362206996e+01 -1.2152086036332010e+02 -1.2270212009405638e+02  5.9595844734059284e+01 -1.1091970280393883e+02 -1.4825007540032354e+02  1.3297124180350946e+02 -1.3949941063967441e+02 -1.5351598450517355e+02  1.4179549717405652e+02 -1.5520350320585177e+02 -6.3106730455219626e+01  1.3105301168021325e+02 -1.4278437534981683e+02 -6.1764248908595015e+01  2.3321324207091656e+01 -1.5072056919981702e+02 -8.4371138890121287e+01  3.5735995249226147e+02 -3.3589366479415497e+02 -2.1846848470873755e+02  2.0284494416568901e+02 -2.4588824900273468e+02 -1.2525093448105116e+02  2.8870612067420581e+02 -3.5801098615868125e+02 -7.7873893547886752e+01  2.4479644632481640e+02 -2.2981182522857705e+02 -1.1203157842693767e+02  3.5691690379686020e+02 -3.8677614387539444e+02 -2.6525932931487557e+02  2.4732645624291177e+02 -3.7709345398493798e+02 -3.0239215561658455e+02  2.2181573899288242e+02 -4.0838865873916569e+02 -8.6246464420816011e+01  2.2378988413723448e+02 -3.9242035182479867e+02 -2.2267549489244965e+02  1.2469881334745486e+02 -3.3912209065297264e+02 -1.5615533254144768e+02  2.2482348616660357e+02 -3.5721902292255038e+02 -7.5428464350217851e+01  1.7400173431175082e+02 -3.8561265539628226e+02 -8.2311413628564324e+01  2.5795275781216577e+02 -4.8554364835411485e+02 -5.8798570539655266e+01  2.2513042338322217e+02 -1.5079721673903410e+02 -6.2163331250924877e+01  1.2706768482890023e+02 -1.3483256987387372e+02 -6.4234202933790158e+01  2.7986267433426326e+02 -1.7426364417005050e+02 -1.1685322558266783e+02  2.4792046507294330e+02 -1.0880079765165968e+02 -1.0682907310155693e+02  2.9019342604865511e+02 -6.1562999665825167e+01 -1.1263821927481932e+02  2.7329141246237219e+02 -9.9122171301809644e+01 -8.5955152993259915e+01  2.6808409887089255e+02 -1.2082492563617478e+02 -1.0439096189813137e+02  2.3642960833438707e+02 -6.4061096283089299e+01 -1.1779511007587058e+02  3.0398808678801339e+02 -1.6217314523145592e+02 1.0358942822312223e+01  2.7911222476931425e+02 -1.6509849995601354e+02 -5.8497846528586365e+01  2.9790593715211060e+02 -1.1298034050166085e+02 -8.9808481932011958e+01  3.4321640971313127e+02 -1.2291469903666204e+02 -9.4400615574452431e+01  3.1893431596263173e+02 -1.5884834523972907e+02 -9.9421268713690196e+01  2.9755911784341117e+02 -1.3729874491493536e+02 -9.0030033047353072e+01  3.3546601196312406e+02 -8.3569450247996770e+01 -9.6568073165534571e+01  1.8648364853489036e+02 -1.3099101275870606e+02 -1.2686778494878490e+02  1.3844657564113581e+02 -8.2215930483943154e+01 -1.1657207990354158e+02  2.4132629120463059e+02 -1.0935846531087351e+02 -1.6479368377578271e+02  2.1549672858664997e+02 -1.7685612415426780e+02 -2.3288681928920022e+02  5.2767436843005086e+01 -1.3644320441418404e+02 8.7919722212852092e-01  5.2570973837861466e+01 -1.3076753324322146e+02 -5.5868915299498623e+00  3.6615150845406909e+01 3.3464596536289953e+01 2.5980503410323461e+00  6.2778112443063748e+01 9.0471344328354277e+00 -9.1179630079757832e+00  6.0348166590689445e+01 8.3084994780944434e+00 -7.1461313098299497e+00  4.1868260426371648e+01 1.0484336341738423e+01 1.5660211698245433e-01  5.9362586200372832e+01 2.4145283728469334e+01 -8.1513823428276844e+00  4.0277781438323942e+01 4.6476618593156989e+00 1.5476473482262956e+00  5.1799843517274709e+01 -1.0102892291075728e+01 -7.2629689649579179e+00  5.1932437822704578e+01 -7.6554832856363371e+00 -5.9467081018573449e+00  7.2948268780437132e+01 1.4288367167868580e+01 -1.1122108416521382e+01  5.1453259576732201e+01 -4.3259894676110493e+00 -6.4521374001023739e+00  4.6772262373546695e+01 -1.5243481069196517e+02 -1.6839124147503945e+01  8.7347212068901200e+01 -1.3885025084325369e+02 -2.8687726377563756e+01  6.9174755555348327e+01 -1.5120137924283705e+02 -1.5391073326163145e+01  6.6976102114600863e+01 -1.1213525983143852e+02 -2.7155194607090472e+01  7.8468385440899667e+01 -8.1643771877851464e+01 -2.9709265475078777e+01  1.0303626312980479e+02 -1.3656779102756900e+02 -2.3401374484983997e+01  9.2449736896796722e+01 -1.0310383687136257e+02 -3.4238774292824644e+01  8.3910098637099409e+01 -1.1299341925888127e+02 -2.1604199078140585e+01  9.2083985034250844e+01 -1.4738958155528948e+02 -1.1291774729240485e+01  1.1108512011987838e+02 -1.2375326076817502e+02 -4.1548621228043039e+01  7.7673918051130840e+01 -5.7797137741017856e+01 -5.7060649567845523e+01  7.3158690833998534e+01 -4.7855202553183361e+01 -3.2619341475261841e+01  5.7824080068927032e+01 -3.8783457125247210e+01 -2.6005988987595227e+01  7.1797723569837885e+01 -3.8633853206969235e+01 -3.4989841809049203e+01  8.9373738002737412e+01 -4.3080486371659696e+01 -3.8304979719435408e+01  5.0989882157685820e+01 -6.8275923544642410e+01 -4.1395192165353855e+01  3.8424719752428544e+01 -6.1880975385196876e+01 -2.4612201930480609e+01  7.0148475071969784e+01 -2.4086802183107768e+01 -2.2083643109529266e+01  8.2403569434940550e+01 -2.7211503953883106e+01 -2.5948830287545917e+01  9.8378723192358109e+01 -3.1020007141385761e+01 -2.7706876295364403e+01  1.5548737905801883e+02 -5.5212162497198257e+01 -5.3675920231366831e+01  1.2109485248894310e+02 -2.7948732887405701e+01 -4.3882610778811028e+01  1.2612914216181187e+02 -6.1259105520164645e+01 -3.4800366528225581e+01  1.2343519441969039e+02 -5.3683381166702631e+01 -4.0917429329825367e+01  1.7331905826066031e+02 -6.8384091302170972e+01 -4.7589547915447334e+01  1.4418028758675376e+02 -2.2384567203519460e+01 -5.5922952527255269e+01  1.5580579671603212e+02 -5.8807539216889353e+01 -4.3984570783293684e+01  1.4553474858598287e+02 -3.3013789726642280e+01 -5.7542752855556706e+01  1.0770201971788677e+02 -5.0503008418771806e+01 -3.4478646465032099e+01  1.3377214226727173e+02 -2.8166005784119972e+00 -5.8874775762196691e+01  9.2317499912564585e+01 3.0084508865989900e+01 -1.3608540641053553e+01  1.0467369232118037e+02 1.5667275636545368e+01 -2.1557952490660750e+01  1.0569060496809315e+02 2.2664111601038094e+01 -1.7916619389932791e+01  9.1132531370751153e+01 1.7653732632243578e+01 -1.9106401455716753e+01  9.2721436833657464e+01 1.4282330282788234e+01 -1.6847343896525519e+01  9.2564493649609588e+01 8.0645524003644589e+00 -2.5647104667600196e+01  9.8407892150317196e+01 8.5889820142737250e+00 -2.7382013358836968e+01  9.8575413930123830e+01 1.0881134313404464e+01 -2.34