<?xml version="1.0"?>
<VTKFile type="UnstructuredGrid"  version="0.1"  >
<UnstructuredGrid>
<Piece  NumberOfPoints="10719" NumberOfCells="48667">
<Points>
<DataArray  type="Float64"  NumberOfComponents="3"  format="ascii">26.71587633084757 5.239799709806539 8.619164977263321  26.15939273313396 4.408162582195058 8.078428390061593  26.06569594760753 4.924439741804773 7.562861747008529  26.81147599123528 4.628602822358467 8.224245276021204  26.06379307274626 5.019359469643131 8.473348091303709  26.71777920570884 5.144879981968181 7.70867863296814  25.41170981464494 4.798919229479722 8.327531205344098  26.71968208057012 5.049960254129823 6.79819228867296  26.81337886609655 4.533683094520109 7.313758931726024  26.90707565162299 4.017405934910395 7.829325574779088  23.89963061477187 2.787873759250576 6.063264254363379  24.83866435431163 3.713907037244583 5.511701027810983  23.77743143534681 4.024862210348939 5.339339295978252  24.44951836076983 4.070489827018541 6.204803628143724  24.99940610676779 5.353105894786506 6.346343001924069  24.71646517488655 4.950895488342946 4.787776069425858  25.38855210030958 4.996523105012548 5.653240401591328  24.32731918134476 5.307478278116903 5.480878669758598  23.65523225592174 5.2618506614473 4.615414337593127  25.77769809385137 4.63994031523859 4.960137801258588  20.98329 2.375409 2.594271  21.48542979944687 3.26912964083002 1.998440323225744  21.6473785887669 2.66804456809115 2.46981739796025  21.0774703001782 3.408094378334825 2.903514323122456  20.82134121067997 2.97649407273887 2.122893925265493  20.65939242135994 3.577579145477741 1.651516850530987  21.7415588889451 3.700729946425975 2.779060721082707  20.91552151085817 4.009179451073695 2.432137248387949  21.1716506003564 4.440779756669651 3.212757646244913  22.3114671775338 2.9606801361823 2.345363795920501  23.621708 19.811956 8.183023  23.45152084171358 19.38943900155767 7.467637004845695  23.0979397958691 19.84871525839912 7.319436415245242  23.18508734171358 19.40149500155766 8.020297504845695  23.8881415 19.7999 7.6303625  24.154575 19.787844 7.077702  23.3643732958691 19.83665925839912 6.766775915245242  22.74846668342716 18.99103400311533 7.857572009691389  22.66131913758268 19.43825425995679 7.156710920090936  22.5741715917382 19.88547451679825 6.455849830490483  29.667229 3.71752 8.480703  30.228256 3.3434025 8.744781  30.10975177720267 3.96372034792666 9.11524568100554  30.1065665 3.7371915 8.453586999999999  29.7889185 3.323731 8.771896999999999  29.910608 2.929942 9.063091  30.23144127720267 3.56993134792666 9.406439681005541  30.545904 3.756863 8.426470999999999  30.54908927720267 3.98339184792666 9.08812968100554  30.55227455440534 4.20992069585332 9.749788362011079  28.328518 7.889812 14.102079  28.16306213147585 7.998609238193946 13.00810788762633  28.48291613147585 8.255274238193946 13.52006688762633  28.68294163653715 7.63433721471533 13.53123794566113  28.008664 7.633147 13.59012  27.68881 7.376482 13.078161  28.36308763653715 7.37767221471533 13.01927894566113  29.03736527307431 7.378862429430661 12.96039689132226  28.83733976801301 7.999799452909278 12.94922583328746  28.6373142629517 8.620736476387894 12.93805477525267  24.712618 7.687034 5.491387  25.40596479047895 6.830736376961594 5.518953603089012  25.59891075486188 7.471099324316423 5.933209774856987  25.10737775486188 7.331676824316423 5.978382774856987  25.50273803561707 7.325516052645171 4.986784828232025  25.01120503561707 7.186093552645171 5.031957828232025  25.204151 7.8264565 5.446213999999999  25.695684 7.965879 5.401041  25.30979207123414 6.685153105290342 4.57252865646405  25.50213750972376 6.976319648632847 6.465378549713974  30.474518 4.732102 17.964169  30.41839258618108 3.625219348208629 17.58986114464189  30.40277508618108 4.295293348208629 17.44622764464189  31.3418824956179 4.14679927917973 17.67473170316655  30.4901355 4.062028 18.1078025  30.505753 3.391954 18.251436  31.27013958179898 3.709990627388358 17.15679034780844  31.3574999956179 3.476725279179729 17.81836520316656  32.20924699123581 3.561496558359459 17.38529440633311  30.33103217236216 3.858484696417257 16.92828628928378  20.81576 8.407258000000001 8.443116  22.07919500383474 9.006747967036633 8.346627006674867  21.34300117822306 8.794542972275487 7.953846515591923  21.29688047663231 9.128741729672054 8.453189082363206  21.59807452720244 8.285264237364579 8.336553924311659  22.38038905440488 8.163270474729158 8.229991848623319  22.1253157054255 8.672549209640067 7.847284439903582  21.77800095326461 9.850225459344108 8.463262164726414  21.82412165485537 9.516026701947542 7.96391959795513  21.87024235644612 9.181827944550975 7.464577031183846  25.640783 11.856447 1.64327  25.2382785 12.071211 0.8479159999999999  25.461976 11.487312 1.0616795  25.757533 12.1162 1.1635425  25.1215285 11.811458 1.3276435  24.602274 11.766469 1.012017  24.9427215 11.442323 0.746053  25.874283 12.375953 0.683815  25.578726 11.747065 0.581952  25.283169 11.118177 0.480089  30.94947315971322 3.558375828689484 15.36099132932924  29.7957394269936 3.750801425821709 16.17416068454221  29.81297596902299 4.48994015740715 15.60963535747162  30.64025266603769 3.708430262553371 16.14463880930651  30.10495992066913 3.600746991957822 15.39051320456495  30.65748920806708 4.447568994138813 15.58011348223592  30.36550525642094 5.336762159588141 15.7992356351426  30.34826871439155 4.5976234280027 16.36376096221318  29.26044668162504 3.64311815522616 15.42003507980065  19.968117 10.188078 9.188407  20.81395536906522 9.703608351513896 9.373035227125554  20.87305897663231 10.01915172967205 8.825834582363207  20.255 9.628728000000001 9.237303499999999  20.541883 9.069378 9.286199999999999  21.10083836906522 9.144258351513898 9.421931727125553  21.1599419766323 9.459801729672055 8.874731082363207  21.71889734569753 9.534682081185951 9.010462809488761  21.65979373813044 9.219138703027793 9.557663454251108  19.664419 1.480976 1.310303  19.5632245 1.1275485 1.158826  19.2588795 0.9989565 1.2632625  19.641693 1.123367 1.5918855  19.618967 0.765758 1.873468  19.5404985 0.7699395 1.4404085  19.2361535 0.6413475 1.544845  18.85334 0.516937 1.216222  19.157685 0.645529 1.1117855  19.46203 0.7741209999999999 1.007349  22.327505 10.83466 7.031588  22.09887367822306 10.00824397227549 7.248082515591923  22.452133 10.2275655 6.8163915  22.58405 10.3331105 7.220367  22.840595 9.831561000000001 7.409146  22.22350167822306 9.401149472275488 7.032886015591923  22.35541867822306 9.506694472275488 7.436861515591923  22.708678 9.726016000000001 7.0051705  22.576761 9.620471 6.601195  27.483606 12.405361 12.821817  27.21496229676698 11.35690957709782 12.40628307451242  27.583969 11.885637 12.3032815  27.876833 12.0003465 12.94418  28.27006 11.595332 13.066543  27.60818929676698 10.95189507709782 12.52864607451242  27.977196 11.4806225 12.4256445  27.684332 11.365913 11.784746  27.31532529676699 10.83718557709782 11.88774757451242  26.94631859353397 10.30845815419563 11.99074914902484  32.251175 2.707376 8.476077999999999  33.26379082834286 2.692210056984353 8.986113232190263  32.88327853731937 3.219797619806468 8.349667332188943  32.826792 2.6089585 8.172960999999999  33.402409 2.510541 7.869844  33.83940782834286 2.593792556984353 8.682996232190263  33.45889553731936 3.121380119806468 8.046550332188945  33.51538207463873 3.732219239612935 8.223256664377889  33.89589436566222 3.204631676790822 8.859702564379207  34.27640665668571 2.677044113968707 9.496148464380525  22.664722 7.97551 0.467333  22.69258753127783 7.214314645978547 0.9899691966841538  22.04651370402061 7.449955123680182 0.8932503954010801  22.32019 7.417896 0.4543945  21.975658 6.860282 0.441456  22.07437923529844 6.688759769658728 1.415886592085234  22.34805553127783 6.656700645978546 0.9770306966841539  21.70198170402061 6.892341123680181 0.8803118954010801  21.42830540804122 6.924400247360363 1.31916779080216  22.72045306255566 6.453119291957093 1.512605393368308  29.289919 11.50361 14.758727  28.48039394017813 10.82417518635342 14.2154864218429  28.57456544017813 11.22181868635342 14.7572384218429  28.990881 11.592075 14.3896085  29.1957475 11.1059665 14.216975  28.691843 11.68054 14.02049  28.27552744017813 11.31028368635342 14.3881199218429  28.8967095 11.1944315 13.8478565  29.101576 10.708323 13.675223  27.85921188035626 10.94002737270683 14.75574984368579  31.71159486879474 7.843362421960971 14.44705603372662  31.56064386177093 5.978478151426599 14.55908210148997  31.43915841730007 6.517441731864639 14.0823674072332  30.95027060898069 7.113794097866577 14.25207815711946  32.32196812158498 6.708046475520994 14.75405997809714  32.93234137437523 5.572730529081016 15.06106392246765  32.04953167009032 5.382125785424662 14.38937135160372  30.18894634916664 6.384225773772182 14.05710028051229  30.67783415748602 5.787873407770245 13.88738953062603  31.1667219658054 5.191521041768307 13.71767878073978  24.317768 7.895452 7.443576  24.90995275486188 7.435885824316424 6.954477274856988  24.79623468688232 7.095438830281298 7.60786336720871  24.8701 7.9018225 7.5372865  25.422432 7.908193 7.630997  25.46228475486188 7.442256324316423 7.048187774856987  25.34856668688232 7.101809330281297 7.70157386720871  25.27470137376464 6.295425660562595 7.77215073441742  25.3884194417442 6.635872654597721 7.118764642065697  23.928829 20.909691 6.356902  23.28623766306811 21.148870496759 5.565837040916588  23.43753666116046 20.54298960501031 5.726048999892456  23.18319216306811 21.10034849675899 6.128718040916588  24.0318745 20.958213 5.794021  24.13492 21.006735 5.23114  23.54058216116046 20.59151160501031 5.163167999892456  22.43755532613623 21.29100599351799 5.900534081833176  22.69189982422857 20.73364710176931 5.497865040809044  22.94624432232092 20.17628821002063 5.095195999784912  33.078636 4.880665 2.072421  33.41564038807395 4.770593353977753 1.245424072528482  33.55295238807395 4.954116853977752 1.677934072528482  33.32143600000001 4.3764655 1.762324  32.941324 4.6971415 1.
[...]
<PointData  Vectors="u"> 
<DataArray  type="Float64"  Name="u"  NumberOfComponents="3" format="ascii">1.6321108749911249e+02 -1.5089138326835108e+01 2.8936726774876607e+01  1.5559668853139380e+02 1.3157701332439071e+01 4.6811013854924624e+01  1.6405770849323289e+02 1.2415112814115718e+01 2.9010160260387401e+01  1.6641098285140194e+02 1.2574736146759880e+01 3.8309317624810987e+01  1.5983296114431664e+02 -9.8126202243684926e+00 4.0955404844024528e+01  1.7547659287874623e+02 1.2879253423012342e+01 1.8960169509719183e+01  1.6014796504245331e+02 -1.0216599563635329e+01 4.3218131068735843e+01  1.8206372281039228e+02 4.4303726133619300e+01 1.8997512958249249e+01  1.6986131104302487e+02 4.3885347928183158e+01 3.5260517038138047e+01  1.6068372424110729e+02 4.2578103413156427e+01 5.5429763080058102e+01  1.1304071574696130e+02 1.6047511300309068e+01 5.2347992190213560e+01  1.1765416619744083e+02 3.8337425291559633e+01 4.3136885677567065e+01  1.2437349825775570e+02 2.1426870742815705e+01 3.6780963759042500e+01  1.2809585368192396e+02 1.8696489102762552e+01 3.6338672971691800e+01  1.5860599519245918e+02 1.1371620370285680e+01 1.4654064250698889e+01  1.4471067799425225e+02 3.9447326238689548e+01 2.3526561983813998e+01  1.5487955959346564e+02 3.9979653356962899e+01 2.1942928238237531e+01  1.4512409581282787e+02 1.6165163173747153e+01 1.5457499669838151e+01  1.3572045863793298e+02 2.3953014909354341e+01 1.9050264817700985e+01  1.5034824930385133e+02 7.1846372216774597e+01 3.1890112491651561e+01  4.8379425348940924e+02 9.6876063006683708e+01 -5.2558919002394546e+00  2.6353920946695416e+02 5.4662359548925167e+01 4.2634383473041009e+00  2.7730826855145199e+02 -2.8305204641060470e+01 -5.6106692446863313e+00  2.8475696335560718e+02 1.1838780791006997e+02 4.7360346660890606e+01  3.9479644212933238e+02 8.7105751663370327e+01 -9.9160953967247796e+00  3.3279753705631828e+02 1.6625993684152596e+02 -1.1516556950371479e+00  2.1049547681881705e+02 7.1797775772063204e+01 2.7124641225873496e+01  2.4305330542680554e+02 1.5189082645053855e+02 3.2903104798352956e+01  1.7476769893491115e+02 1.2155884866102724e+02 5.0245704575776948e+01  1.9354410818296091e+02 7.3611080865971479e+00 9.2594539226504011e+00  3.5953594710506408e+01 -2.6833229353008901e+00 -4.5702727596980509e+01  7.3176789513729233e+01 -4.3850751872961444e+00 -8.1173653115850243e+01  8.8089664118636975e+01 -6.4229561890876523e+00 -7.1641654002873608e+01  6.3595549889607341e+01 7.8085146000972183e-01 -4.4821787287875033e+01  4.8490697337211365e+01 -1.3028906055901437e+01 -8.8391334394910444e+01  5.1409592694646491e+01 -2.1831826708306881e+01 -1.2629683197477523e+02  1.0204828692653665e+02 -1.5276885100699522e+01 -1.1457738208969110e+02  8.5301058447291297e+01 5.3748554180609567e+00 -3.5966655996553357e+01  1.1504354454110351e+02 2.1695529311498118e+00 -6.3596644132325700e+01  1.4427367503339943e+02 -4.8471224133711504e+00 -9.5685416079475061e+01  2.4392607264143155e+02 4.1805445484262542e+01 1.9773337486191678e+00  2.4038438524939437e+02 2.0459251407308226e+01 -3.0874032830215793e+01  2.1141231567181924e+02 1.1385712071364708e+01 -2.6623598503767379e+01  2.4914256184578775e+02 2.4745608534395409e+01 -3.3765422629676294e+01  2.3921483810697666e+02 3.7968487454895829e+01 1.3527549432496457e+01  2.2554839006879769e+02 2.6573862199868039e+01 -3.4783735295644924e-01  2.0130168610086128e+02 1.3834954931381208e+01 -2.2229664641470606e+01  2.4316853107425800e+02 6.3649848248982799e-01 -7.2172161608626141e+01  2.0869676887949538e+02 9.3343921602540156e+00 -4.1466005371196481e+01  1.9314656967531323e+02 3.7663782181776946e+00 -3.1406671422735599e+01  2.0877192240705747e+02 -2.1243550800376269e+02 7.5270652520126376e+01  2.4062180379278692e+02 -1.6418433841455018e+02 3.2494736387027672e+01  2.4187403408697261e+02 -1.5201255617588836e+02 3.6849980672205611e+01  1.7405280966679163e+02 -1.5927653767846874e+02 5.9082693829196458e+01  2.6805118831098821e+02 -2.5285237084446678e+02 6.0608824575286768e+01  2.4481769145655238e+02 -2.3409394827519225e+02 6.0998417783946103e+01  1.8218717749401517e+02 -1.7414192988714819e+02 6.0902062946618130e+01  1.8318362148391688e+02 -1.1960546057644807e+02 3.5055749589781747e+01  2.1518900726517774e+02 -1.3664087127748684e+02 3.5887069716190837e+01  2.3420042637831142e+02 -1.4193797165179481e+02 3.7685669382683344e+01  2.4795589163971172e+02 1.2219013734257617e+01 -3.2515904100681240e+01  1.9855501773474904e+02 2.4211096322160301e+01 -1.3146319760147998e+01  2.0700715335675977e+02 2.6897008417942409e+01 -3.3961008206762394e+01  2.1449972861310988e+02 1.6130908674656066e+01 -3.1286036782504979e+01  2.0747534935223106e+02 4.4740101685860743e+01 -9.7015117588452178e+00  2.0504095565943510e+02 2.6711639441590098e+01 -1.4657149548833855e+01  2.1609334643743705e+02 5.0900726175326277e+01 -3.4692080265140483e+01  2.1586895369400949e+02 5.5355172736322579e+01 -3.6681286486075777e+01  1.9461811717350315e+02 3.5960980975758289e+01 -1.2700091254175032e+00  2.0268878813478221e+02 5.6158208704320876e+00 -2.2605604957514799e+01  2.1982531252214935e+02 3.6232499129412659e+01 1.0755212044331566e+02  2.2818481740962054e+02 3.6398160104476318e+01 1.4159503798956473e+01  2.3025563743639580e+02 2.5777870624342832e+01 1.7641767183587085e+01  1.5202513055182882e+02 2.9588678192636699e+01 3.4323911879312313e+01  2.2698407326164468e+02 5.5086506666773211e+01 1.1694180968719527e+02  2.3521324723797846e+02 6.2979123853171494e+01 9.1303820194506230e+01  1.6397106456205518e+02 2.7778834212140250e+01 -2.4263539910891061e+00  1.5571454068683613e+02 3.5558243565820312e+01 3.0857114166489332e+01  1.2682469795669658e+02 3.0690619737269330e+01 -3.7913651910971655e+00  2.0840191324981225e+02 2.0967784300247590e+01 -3.1629470196276213e+01  8.6189456489656280e+01 -2.0904495012737647e+02 -6.0165341319511704e+01  8.3684731726727250e+01 -1.7018102925279692e+02 -5.5918931592359314e+01  8.7059063004101418e+01 -1.8759171408562619e+02 -5.6137114132849113e+01  8.7498808836268836e+01 -1.7110834277196074e+02 -4.4933331282524726e+01  6.9958999447545821e+01 -1.7933964026847485e+02 -7.0453504054099326e+01  8.6426182617351117e+01 -1.7686685259110959e+02 -8.1344452243537006e+01  8.4294834584510042e+01 -1.8383063228109964e+02 -6.4384961088857466e+01  8.5208138414074412e+01 -1.6965425655181457e+02 -2.6636028101365195e+01  8.3431923448019262e+01 -1.8377128272415172e+02 -4.2259108372594859e+01  8.5087593986649907e+01 -1.9549188866320907e+02 -5.8320417905065518e+01  9.2940776557149860e+01 -1.4096566741607846e+01 2.9902719831724994e+01  9.3040377139840729e+01 7.5637893324617153e+01 -3.5091577857553169e+01  1.4068432134372074e+02 1.2464342208181737e+01 -3.0398014746250199e+00  2.5534061714208640e+01 -3.5983814790103331e+01 2.0434901576742060e+01  1.6727616759149791e+02 7.7459458839573131e+01 3.1287008294331528e+01  3.7172502303444833e+02 -5.3091704704583258e+01 -2.1430391643811149e+01  2.4366570758386462e+02 2.9946640742905270e+01 -1.9929765149603796e+01  1.3749237313679069e+01 -1.2168640865423824e+02 3.2391865484078650e+00  7.9815401436345383e+01 5.6048319219800966e+00 -1.5499336814446378e+01  1.8319540207797138e+02 -8.0282434120569981e+00 -1.2285235138415228e+01  1.4761804090060755e+02 2.0224856305450903e+01 -4.8111402582225487e+01  1.8235369502653430e+02 1.4615954062511742e+01 -8.2553652462567754e+01  1.5443196487699979e+02 1.2383324120640879e+01 -8.6398641194724050e+01  1.7141311668407735e+02 1.8334796485898210e+01 -5.0188164555953527e+01  1.4801795200319324e+02 1.4752187792140429e+01 -7.0838351153371434e+01  1.5868994919120922e+02 1.5750161948428799e+01 -5.5848809400687372e+01  1.7349216939422806e+02 5.5144995098047991e+00 -5.5171188969256356e+01  1.9122584680428483e+02 1.4850528432574734e+01 -4.9589902141846267e+01  1.3808998694178877e+02 1.3392034992860685e+01 -1.0965476884292404e+02  6.8532450894320462e+01 -1.5699238791428397e+02 3.0415210972835645e+01  6.7512110416828477e+01 -1.4162990803089716e+02 -1.3493417890671932e+01  8.2723428668509143e+01 -1.6354946351765255e+02 -1.0779801297084857e+01  7.0219396104664497e+01 -1.5018322746501764e+02 1.2062586133573270e+00  7.2446758353366377e+01 -1.4076336862216550e+02 -2.2191854780081982e+01  6.5911129584477280e+01 -1.3934839552017979e+02 -4.2307775930780444e+01  8.2498465763422800e+01 -1.5767837105625418e+02 -3.2075026995826569e+01  8.3347840462803475e+01 -1.5073237531717632e+02 -3.5898397033183258e+01  7.3174599152833366e+01 -1.2779375458787167e+02 -5.3040583837588777e+01  1.7280099406614892e+02 2.8784845298989893e+02 1.3152326675607600e+02  5.6860112009638954e+01 1.7705500298198140e+02 1.2745329713947099e+02  1.5482756933555393e+02 1.0450089026405639e+02 7.7474844946673016e+01  9.2372898371576667e+01 2.1543005494989492e+02 1.6483204811742470e+02  1.2625634621293932e+02 1.0346972154546756e+02 1.5007930398822356e+02  5.2944186993898562e+01 4.9024583895134079e+01 1.2211746205601422e+02  1.9761914394299717e+02 8.0915052096518977e+01 8.2438356375875529e+01  2.1466283206084600e+02 1.7210275109175512e+01 2.6316956891912444e+01  1.7968690106173983e+02 4.0078302334524501e+01 -1.3446372849591455e+01  4.5467159605315523e+01 1.9247046285709548e+01 4.1265369793798676e+01  4.5657398031943835e+01 -2.2771141539422814e+02 -1.1889110994779754e+01  7.4100694324854288e+01 -2.0683839802897702e+02 -4.2664960069700108e+01  5.9870500848961598e+01 -2.2952795207283577e+02 -4.6646333343264224e+01  6.1107641579641943e+01 -2.1712341088009552e+02 -3.0294799678314824e+01  6.1568595960952187e+01 -2.0941272661495768e+02 -3.3603686286396652e+01  7.9766336427601630e+01 -2.0940527742242281e+02 -6.5364140998208327e+01  7.5876896657938758e+01 -2.0102991581472943e+02 -5.0285973436636056e+01  5.7741966768162293e+01 -2.2328430789331668e+02 -5.4590721354876898e+01  7.2547313660217995e+01 -2.3156557837583324e+02 -7.8477677832229602e+01  1.6029243433853486e+02 -1.2536804796442050e+02 9.1123215703420115e+01  1.8891556576973980e+02 -1.3074015419211045e+02 5.2115300663075558e+01  1.6244523236763885e+02 -1.3709913821708838e+02 6.3341383252845375e+01  1.5765479126654085e+02 -1.3305325475007828e+02 9.0591440472143290e+01  1.5996646887759914e+02 -1.4322128287581984e+02 9.1704131312680317e+01  1.9150853826498266e+02 -1.3483617740155063e+02 4.6650943144442941e+01  1.6037819535807515e+02 -1.5513210905391139e+02 6.4171988119545574e+01  1.8190034644747979e+02 -1.5923312358286790e+02 1.9239071295884607e+01  2.0111235150679894e+02 -1.3948020446291815e+02 2.0483810120780642e+01  2.1790841360396175e+02 -1.2345954954944659e+02 1.4062993731223406e+01  1.2728508508615407e+02 2.8937770065401537e+01 -1.0131681575549639e+02  1.0284522520125402e+02 5.7590809509196397e+01 -6.2780580426413231e+01  1.1260263667141315e+02 3.7257451467068272e+01 -7.7858615854186326e+01  8.8131020037081527e+01 2.9647003523251136e+01 -1.0500615344343261e+02  5.9190945136166462e+01 4.1972958311498438e+01 -8.9216114892230479e+01  7.9833007299965629e+01 6.8225926304885419e+01 -5.7570211300759802e+01  8.7708945146357934e+01 4.9322682808662783e+01 -6.9497105653214902e+01  1.1171004392349987e+02 6.5253368293576841e+01 -5.2839359507201614e+01  9.6967499595654729e+01 7.8368774459661509e+01 -4.7804989731293084e+01  8.1393738059262660e+01 8.7250316484343784e+01 -3.9841378566655415e+01  1.0322376836870031e+02 -5.6414753149823600e+00 -1.5710781409779331e+00  1.1041116957370642e+02 1.8933126236223242e+01 -8.3581869073730619e-01  8.4046015021906953e+01 1.7198439776557034e+01 -4.9120965334116242e+00  8.8627709984516230e+01 2.0072974117660916e+01 -3.1500813110970869e+00  8.7338161570063320e+01 4.2364541760096451e+01 -7.9205204107222948e-01  9.6345125321210290e+01 4.0351836363556167e+01 -2.0919943335202870e-01  1.0436666496645938e+02 3.9827186179757739e+01 6.9655887626577706e-01  7.9065926389423254e+01 4.3115342331218791e+01 -2.2944250662440493e+00  6.8302676203920328e+01 4.6486950859705082e+01 -1.7429456952145557e+00  1.1708320012377844e+02 3.7758657907972861e+01 1.6170260098598923e+00  4.0579443931564947e+02 -1.1035592418440284e+02 1.7810289188238522e+02  2.5030090935835597e+02 -1.1760176590770334e+02 1.0816578226398423e+02  2.7901651292751370e+02 -1.0238741675133704e+02 1.1633827456823542e+02  2.5339269036636418e+02 -1.6661387519229885e+02 2.0488357604844055e+02  3.5646795364351698e+02 -1.5797321232282997e+02 1.7694550458427582e+02  2.0325619416796025e+02 -1.5524492191064562e+02 1.6264365498220494e+02  2.4149643117432893e+02 -1.1237700857463582e+02 1.1340258505853365e+02  2.1044366026048644e+02 -1.8307395024974866e+02 1.7796341918966311e+02  2.6484507297185701e+02 -1.5390869887336547e+02 1.7080733869351414e+02  2.4377644954758031e+02 -7.5587840728483229e+01 8.1722763864878814e+01  2.4588132604536037e+02 2.1247800448637861e+01 -3.3693166369212427e+01  1.9038638636055427e+02 1.4993281371999018e+01 -3.9658110313128574e+01  2.0732130624610144e+02 5.3471205627634291e+00 -3.0389777455558455e+01  2.1242995142342579e+02 -1.1266790987590566e+01 -2.0453881517265803e+01  2.1209999302221507e+02 3.2344981815773998e+01 -5.2985255728300878e+01  1.8660734252911766e+02 4.7076333262718336e+01 -6.3351616422322763e+01  1.8382819332120653e+02 3.1245637241132798e+01 -4.5692473444070863e+01  1.6217071810780078e+02 -2.9821006203438330e+01 -1.9306394227114996e+01  1.6665332661707373e+02 -9.0278918882799370e+00 -2.6223360404628210e+01  1.6914365619210241e+02 1.0541281520895163e+01 -3.4179664598203260e+01  3.2392146519835302e+02 -8.6818230222200697e+01 -8.3721281089822881e+01  2.2687522917093352e+02 -1.0333194027658879e+01 -2.4416413585080758e+01  2.3508148943793844e+02 -3.1852651258507688e+01 -1.4444336490728155e+01  2.8163857059154492e+02 6.3014019896788191e+00 1.0846374741541009e+01  1.8071883391601168e+02 1.9742595360100015e+01 -8.9588490738106774e+00  2.0630871772565968e+02 -1.4098856892242446e+00 -2.9209314902975613e+01  1.9133990462376215e+02 -2.0502213207087159e+01 -1.7518249573003168e+01  1.8654212795579238e+02 -2.6394054105220135e+01 2.9226199773805241e+00  1.9043425799285160e+02 -1.0241934823389000e+01 -1.2600918094816270e+01  7.2333695626120800e+01 -5.3820571274851019e+01 -1.4667305928612541e+02  1.2560250570260411e+02 -5.1859310599970520e+01 -1.6645337499581879e+02  1.3089270552331919e+02 -4.1800060431503205e+01 -1.7075839051149737e+02  1.0937846266804085e+02 -4.1977137175143618e+01 -1.3157968389002940e+02  8.1915187703333558e+01 -7.2137510496236743e+01 -1.9759446175444742e+02  1.4328230142028349e+02 -9.0303933342969771e+01 -2.4960877548216305e+02  1.6618981068686608e+02 -4.9366718894172386e+01 -2.0547557796679538e+02  1.4122847875517641e+02 -2.5762314075039022e+01 -1.1283914008160532e+02  1.6402095795928469e+02 -2.7933012493683911e+01 -1.4839895448040619e+02  1.8487694029158763e+02 -2.7757576193884244e+01 -1.8477513336550911e+02  2.6134791677171894e+01 -2.2247773422120101e+01 -2.0206658303470459e+01  1.1676894231754847e+01 -3.4512756799351423e+00 -4.2977139035074154e+00  1.7804001554503930e+01 -1.7079354590854077e+00 -7.4154367127851666e+00  7.0580009215969621e+00 -9.0067670864446949e+00 -3.5560156749076968e+00  -4.1896979228605147e-01 -1.6937445725907061e+01 -7.0366816024355003e+00  6.8351444338066025e-01 -8.9888794747027490e+00 -1.4624284613989840e+00  4.8876676164253912e+00 -6.4017963368778128e+00 -1.7476707852886038e+00  3.2522612802074651e+00 -3.8694070252997630e+00 1.6693677829199777e-01  7.3530475459203934e+00 -1.1869500635908345e+00 -1.7775156126089924e+00  9.8768104554594220e+00 7.2418043346711274e+00 -1.8323118416088322e+00  3.3885327832626979e+02 2.2157373169876513e+02 5.0028438720921837e+00  3.2117396128673624e+02 2.0501203183860417e+02 2.1044449224190229e+00  3.3828072234032976e+02 2.2217916264129477e+02 8.0552686744189508e+00  3.1770289641416554e+02 2.2180902209884636e+02 -1.7906389976274897e+00  3.1957006202712739e+02 2.0946850496895058e+02 3.1237274928770371e+00  2.9544082084982915e+02 2.0858560058804488e+02 1.7464872040272272e+00  3.0095788870041127e+02 2.2830177654559287e+02 -1.5539139495643086e+00  3.0980952157193735e+02 2.3930024435179658e+02 -1.4991355324212103e+01  3.1414679069856652e+02 2.2379214566070729e+02 -2.3737974003482494e+00  3.4200085606887393e+02 2.3238102273930352e+02 1.4216029679683686e+01  3.9308322127459667e+02 -5.4969495714607683e+00 -9.9809124330624343e+01  3.2041702881131368e+02 -2.3552120052949999e+01 -2.8687484883286338e+01  3.1422028686820033e+02 -9.7376111832286849e+00 2.5133858588482836e+00  3.1469648170754090e+02 -9.1640738566192965e+00 -8.6030400545902921e+01  3.4887068325879756e+02 -1.7585096201700232e+01 -1.8596148861091905e+01  3.0000906601923054e+02 1.6268635161448724e+01 -2.7229490797293085e+01  3.2901801288053696e+02 2.2666309605145173e+01 -1.3072643681299523e+01  3.0182238494926600e+02 2.6758714269728141e+01 1.2540223780740744e+01  3.2364689630821039e+02 -4.0570233562551181e+01 2.0649931800490107e+00  2.9001775989429450e+02 6.0622806544584122e+00 -6.1431499432487023e+01  1.1537052307714592e+02 3.8994353395895594e+01 -4.7625729347766757e+01  6.8550903914861479e+01 3.0022113623211652e+01 -1.3208345413641606e+01  9.2759078179782136e+01 3.7773409565431521e+01 -2.1743359939302564e+01  8.5571690291912006e+01 4.6347756318705137e+01 -4.5806480433338749e+01  1.1571173663884365e+02 3.4319076173490693e+01 -2.1475442012798581e+01  8.5070681887649926e+01 2.6848058681013505e+01 -8.9574637976969047e+00  9.4390535358568386e+01 2.8465378236173613e+01 1.6315213518176744e+01  6.1287983184947713e+01 4.3768065893947153e+01 -4.2076700072213249e+01  5.6823592851757525e+01 2.0614982916413751e+01 1.7366645948523441e+01  1.8891504480272519e+02 3.5064305480905581e+01 6.8460077431198485e+01  1.7724492779930895e+02 4.1949542148791366e+01 7.0090564958952115e+01  1.8205866967265140e+02 3.2510151503594535e+01 5.4746891741818366e+01  1.9359521666581549e+02 5.5555211193758907e+01 6.8239306883236623e+01  1.8411866696713071e+02 4.4116386246135370e+01 8.6527772356476675e+01  1.4422122880570760e+02 8.5299591517425199e+01 1.2889919972814218e+02  1.9285357546879223e+02 7.8079916904239084e+01 1.0897628701385922e+02  1.9971002679661262e+02 7.8925263393658398e+01 7.4977002992836660e+01  1.8982448277379800e+02 4.2837870613508223e+01 4.8916150293777378e+01  1.7819634387493028e+02 1.9673607903954352e+01 3.9120478753908962e+01  1.2582583393644667e+02 -1.4841819093901267e+00 -2.3034374092684594e+01  1.2037561235984627e+02 8.8550711980419567e+00 -3.0016569075006835e+01  1.3170463232295083e+02 8.1280466233771058e+00 -4.3087766726636382e+01  1.3724768538251789e+02 8.3323517540242964e+00 -2.7416926450661435e+01  1.2413773129688030e+02 5.9880605510620577e-01 -3.8302202008934451e+01  1.1047826485047092e+02 -1.7571730564512913e+00 -2.6701187923797040e+01  1.1621786042114549e+02 -4.8640117693530271e-02 -4.6777145643670892e+01  1.0933569046585657e+02 -1.8676087376099226e+00 -3.5985214445013476e+01  9.4627796236000535e+01 -1.1156828198980155e+00 -2.6258381905504915e+01  1.4900213049429260e+02 1.5514786174621261e+01 -3.1188630918204005e+01  4.5285433781661959e+02 1.3925580746131945e+02 1.8311752154885627e+02  4.1039431239166464e+02 2.0546535104529207e+02 1.9979781234504506e+02  3.8985123694183136e+02 1.6890373073393332e+02 2.3052200980445224e+02  3.6758510767852175e+02 2.0382847744295469e+02 2.7067690988362108e+02  4.1090706461336384e+02 2.7971462552006966e+02 2.1345309811440441e+02  3.3924921098104164e+02 1.3310546768828254e+02 3.1474249917768731e+02  4.1984624970316594e+02 1.3374089945041209e+02 2.4591750374457138e+02  3.2911677342181935e+02 2.9497020291391078e+02 3.2706110818266592e+02  3.9983486666423443e+02 3.5105627119322315e+02 2.2699656034472622e+02  4.7642459008669300e+02 1.4172919917681966e+02 2.3648995254058815e+02  2.0987130501376373e+02 -1.9057067767965592e+02 3.9730597358930389e+01  2.2026172705812715e+02 -1.4406142344174020e+02 4.4857050424914711e+01  2.4244610933774030e+02 -1.2812327399848664e+02 5.9928522014279565e+01  2.2381051243454147e+02 -1.5329458398557270e+02 4.3562017163420236e+01  2.2227311943174684e+02 -1.6396163673540872e+02 7.7077874889842874e+01  2.0968835061520582