<?xml version="1.0"?>
<VTKFile type="UnstructuredGrid"  version="0.1"  >
<UnstructuredGrid>
<Piece  NumberOfPoints="10348" NumberOfCells="46772">
<Points>
<DataArray  type="Float64"  NumberOfComponents="3"  format="ascii">23.392462 16.632574 0.459938  24.48862740340422 16.58325808977643 1.145990286833337  24.14725240340422 17.12518908977643 1.139804786833337  23.70176440340422 16.67733508977643 1.148323286833337  23.83795 17.080428 0.4514195  24.179325 16.538497 0.457605  24.283438 17.528282 0.442901  24.624813 16.986351 0.4490865  24.966188 16.44442 0.455272  24.01106680680843 16.72209617955285 1.836708573666674  26.492699 14.913875 2.091061  27.497991 15.0065705 1.2871655  27.149146 14.743427 1.263748  26.710729 15.0628325 1.2721965  27.279961 14.857613 2.10603  28.067223 14.801351 2.120999  27.936408 14.687165 1.278717  26.928759 15.21179 0.453332  27.367176 14.8923845 0.4448835  27.805593 14.572979 0.436435  29.979397 13.491265 1.237823  30.099104 13.3974655 0.9192939999999999  29.695364 13.1558025 0.9629004999999999  29.7920865 13.4791065 0.833212  29.604776 13.466948 0.428601  29.815071 13.062003 0.6443715  29.9117935 13.385307 0.514683  29.5080535 13.143644 0.5582895  29.411331 12.82034 0.687978  30.218811 13.303666 0.600765  24.082209 21.57575 4.362185  24.74485 21.652488 3.629557  24.06102469320274 21.40430636435149 3.62278263111981  24.659364 21.331046 4.051994000000001  24.167695 21.897192 3.939748  24.253181 22.218634 3.517311  24.14651069320274 21.72574836435149 3.200345631119809  25.236519 21.086342 3.741803  24.63817969320274 21.15960236435149 3.31259163111981  24.03984038640547 21.23286272870298 2.883380262239619  25.398479 19.23921 0.446828  26.17602871869407 19.61036108353133 1.543000042431766  26.26189930332818 18.86752856151235 1.457484073883985  25.50693921869407 19.66223508353133 1.524333042431766  26.0675685 19.187336 0.465495  26.736658 19.135462 0.484162  26.93098880332818 18.81565456151235 1.476151073883985  25.61539943738815 20.08526016706266 2.601838084863532  26.37035952202225 19.29055364504368 2.534989116315751  27.12531960665636 18.4958471230247 2.468140147767971  25.94207221869407 20.75533958353133 2.900836042431766  26.26553221869407 20.36460758353133 3.139689042431766  25.42595921869408 20.58580108353133 3.171820542431766  25.752632 21.2558805 3.4708185  26.076092 20.8651485 3.7096715  26.915665 20.643955 3.67754  26.592205 21.034687 3.438687  26.268745 21.425419 3.199834  24.013184 16.011293 2.486362  23.90880490340422 15.76335258977643 1.938457786833337  24.01212540340422 16.36669458977643 2.161535286833337  24.0978445 15.6274465 1.4671105  23.9098635 15.407951 2.2632845  23.806543 14.804609 2.040207  24.09678590340422 15.98284808977643 1.142283786833337  23.994524 15.0241045 1.244033  24.182505 15.2436 0.447859  23.408581 16.916254 3.58088  24.37040740340422 16.75874258977642 2.693745286833337  23.70982390340422 16.81917508977643 2.708794286833337  23.7108825 16.4637735 3.033621  24.0691645 16.8558215 3.565831  24.729748 16.795389 3.550782  24.371466 16.403341 3.018572  22.766088 15.330178 0.424277  23.7874835 15.938087 0.4538985  23.38857740340422 16.02613708977643 1.130492786833337  23.4742965 15.286889 0.436068  23.079275 15.981376 0.4421075  24.58591790340422 16.05962858977643 1.972411786833337  24.68084340340422 16.48636358977642 2.269397286833337  24.681902 16.130962 2.594224  24.5869765 15.704227 2.2972385  25.35062 16.250631 2.702086  25.2556945 15.823896 2.4051005  25.160769 15.397161 2.108115  24.790314 20.475773 4.66554  24.20168194175491 20.40781951148168 4.389199299789198  24.39183759152432 20.41176301367381 3.806380823893706  24.52188997053739 19.63368623317031 4.19783912533655  24.25346594107479 18.79159946634062 3.730138250673101  23.93325791229231 19.56573274465199 3.921498425125749  24.12341356206172 19.56967624684412 3.338679949230257  23.99336118304864 20.34775302734762 2.947221647787412  23.80320553327923 20.34380952515549 3.530040123682904  23.61304988350982 20.33986602296337 4.112858599578397  22.972946 16.635855 2.290565  23.28948590340422 16.12614608977643 1.973888286833337  22.9801835 16.081385 1.285503  23.49200640340422 16.67897558977643 2.063636786833337  22.7704255 16.0830255 2.2008165  23.182704 16.6342145 1.3752515  22.567905 15.530196 2.111068  22.992767 17.663137 2.887287  23.72264378296397 17.74528690463692 1.853817267585565  23.83501678296397 17.81546190463692 2.503379767585565  23.015536 18.216311 2.4665145  22.880394 17.592962 2.2377245  23.038305 18.769485 2.045742  23.85778578296397 18.36863590463692 2.082607267585565  22.903163 18.146136 1.816952  22.768021 17.522787 1.588162  24.67726656592794 17.96778680927383 2.119472535171129  22.01289 16.523849 1.466355  22.702676 16.5782115 0.9631465  22.389489 15.9270135 0.945316  25.162344 14.275581 1.691211  25.4282915 14.727847 1.078479  25.074584 14.0868465 1.235431  24.6724245 14.7595905 1.069535  24.938372 15.2118565 0.456803  24.5846645 14.570856 0.6137550000000001  24.986824 13.898112 0.779651  25.3405315 14.5391125 0.622699  25.694239 15.180113 0.465747  24.578238 20.024025 0.469852  24.80596964287092 19.28936631583688 1.179969082374545  24.39584914287092 19.68177381583688 1.191481082374545  24.4708055 19.3880575 0.46826  24.9883585 19.6316175 0.45834  24.363373 18.75209 0.466668  24.28841664287092 19.04580631583688 1.189889082374545  24.880926 18.99565 0.456748  24.21346028574185 19.33952263167376 1.913110164749091  23.346794 19.851292 0.875988  23.78012714287092 19.59540731583688 1.394549082374545  23.8550835 19.301691 0.671328  23.962516 19.9376585 0.67292  24.06491435641441 20.29599321790501 1.336626952059376  24.68063635641441 20.38235971790502 1.133558952059376  24.78303471282883 20.74069443581003 1.797265904118752  24.49824749928533 20.0401085337419 1.855188034433921  25.39299185641441 20.62317571790501 1.129586452059376  24.7495425 20.5596235 0.465176  25.2905935 20.264841 0.4658795  24.920847 21.095222 0.4605  24.85194085641441 20.91795821790502 1.128882952059376  25.461898 20.8004395 0.4612035  26.002949 20.505657 0.461907  27.426603 16.116575 2.660708  27.72729817931145 16.64136849563388 2.126248219675912  27.79238 15.956195 1.546668  27.03028 16.297736 1.5543895  26.633957 16.478897 0.448071  27.33097517931144 16.82252949563389 1.019929719675912  27.396057 16.137356 0.4403495  28.158157 15.795815 0.432628  28.09307517931144 16.48098849563388 1.012208219675912  28.02799335862289 17.16616199126777 1.591788439351825  28.78883 17.483583 3.043303  28.40841167931145 17.32487249563388 2.317545719675912  28.9073375 17.283408 2.3620455  28.922105 17.8747015 2.488037  29.05538 18.26582 1.932771  28.54168667931145 17.71599099563389 1.762279719675912  29.0406125 17.6745265 1.8067795  29.025845 17.083233 1.680788  28.52691917931145 17.12469749563389 1.636288219675912  23.883482 20.844456 0.48858  24.33325835641441 20.79257521790502 1.142922952059376  24.4021645 20.969839 0.47454  24.23086 20.4342405 0.479216  26.956541 17.783766 0.429321  26.94867816825423 17.05581790410908 1.653052983030321  27.49226717931145 17.47496399563389 1.010554719675912  26.795249 17.1313315 0.438696  26.41295198894278 17.3646199084752 1.071819263354409  26.25165998894278 16.7121854084752 1.081194263354409  25.86936297788556 16.9454738169504 1.714317526708817  24.94021489234699 16.83378499825162 1.775513050187746  25.51506598894278 16.1713174084752 1.911216263354409  25.60999148894278 16.5980524084752 2.208201763354409  22.717251 21.172962 1.624102  23.23450635783025 21.22130960563253 1.562611295150775  22.9576025 21.307047 1.1575215  23.0320225 20.512127 1.250045  23.54927785783025 20.56047460563253 1.188554295150775  23.272374 20.646212 0.7834645  23.197954 21.441132 0.690941  23.47485785783025 21.35539460563253 1.096030795150775  23.7517617156605 21.26965721126506 1.50112059030155  26.185057 15.96244 2.503037  26.02720998894278 16.4539569084752 2.108677263354409  26.409507 16.2206685 1.475554  25.939648 15.5712765 1.484392  25.78180098894278 16.0627934084752 1.090032263354409  26.164098 15.829505 0.456909  23.2905445 15.7707445 2.298715  23.187224 15.1674025 2.0756375  23.566313 22.485437 4.20123  23.40923734369635 22.56778289982277 3.380193949458385  24.062067 22.8480095 3.5531155  23.718633 22.981411 3.895075  23.909747 22.3520355 3.8592705  23.870953 23.477385 3.58892  24.8043803102184 20.21650659720514 2.774529866325472  24.914429861565 19.71239139936821 2.257474124806311  24.38819794793874 20.54422373157882 2.372243775953082  25.19921707510849 20.41297730143634 2.199551994491142  24.10341073439525 19.84363782951069 2.430165906268251  22.885895 19.577103 3.021005  23.54967764287093 19.45831281583688 2.467057582374546  22.939833 19.756304 2.498896  22.9621 19.173294 2.5333735  23.60361564287092 19.63751381583688 1.944948582374545  23.62588264287092 19.05450381583688 1.979426082374546  23.016038 19.352495 2.0112645  22.993771 19.935505 1.976787  23.49356609152432 20.14162901367381 2.462004323893706  23.43962809152432 19.96242801367381 2.984113323893706  25.521702 17.839159 0.452711  25.41777548894278 16.6949469084752 1.084794763354409  25.69553248894278 17.3923164084752 1.083514263354409  26.0778295 17.159028 0.450391  25.243945 17.1417895 0.4539915  25.8000725 16.4616585 0.4516715  25.01394328296397 17.10920890463692 2.410779267585565  24.34416668636818 17.34494149441334 1.978090554418901  25.27331477190675 17.45663031311211 1.916895030939973  23.35121331753838 21.92736466563485 3.879165642183148  23.60916131753838 21.47252116563485 3.959643142183148  23.31040444611834 21.57032228458626 4.446628678981586  23.824261 22.0305935 4.2817075  23.05245644611834 22.02516578458626 4.366151178981585  22.53859989223668 21.56489456917252 4.531072357963172  22.83735676365672 21.46709345022111 4.044086821164734  23.13611363507676 21.36929233126971 3.557101284366295  24.13492 21.006735 5.23114  23.87398494175491 20.67330051148168 4.671999299789198  23.54058216116046 20.59151160501031 5.163167999892456  23.336759946118
[...]
<PointData  Vectors="u"> 
<DataArray  type="Float64"  Name="u"  NumberOfComponents="3" format="ascii">7.2080100112234376e+01 1.1038183451335579e+01 -3.8488694842152493e+00  1.0905427444142960e+02 -1.4879167311609034e+01 -2.1535818289993568e+01  9.2594458041056782e+01 -1.2526007139572236e+01 -3.1201614649563968e+01  7.7593491870600147e+01 -5.9388906806499842e+00 -2.1265655221044394e+01  7.5847429446389171e+01 1.9863242299820996e+00 -4.2484600259759961e+00  9.8664686409957810e+01 -6.6706975667453392e+00 -2.4284614292470588e-01  8.8893840290540922e+01 -5.3996896135098593e+00 -6.4492473336731475e+00  1.0757908913807218e+02 -1.0100974037816382e+01 -3.0457771179858495e-01  1.1957180626000003e+02 -1.4232584339426474e+01 1.1258034950304821e-01  8.8339371705088112e+01 -2.7162418033416461e+01 -5.4717839600603440e+01  1.0019080131110991e+02 -6.6110861332640511e+01 -8.4287260811926714e+00  6.1878380678523285e+01 -4.4728653383583406e+01 -4.0781147830497693e+00  7.0968457239565069e+01 -6.1806274339075003e+01 -3.5257903543844313e+00  9.3137776876824475e+01 -5.4473824212505107e+01 -4.7775442873198086e+00  6.5845240018998453e+01 -5.6498394273601527e+01 -1.1291840199959214e+01  3.7876300900204711e+01 -4.6615680304154871e+01 -1.4014969943705598e+01  4.1324868858196517e+01 -5.0900795792049117e+01 -3.3917369060283900e+00  8.5929999840467943e+01 -4.5735695436729550e+01 -9.7887918108363525e-01  6.4047445661298667e+01 -5.2493263303098253e+01 -1.4143883948095444e+00  4.2111835509136185e+01 -5.7756077659483182e+01 2.8006650224036700e-01  -1.5682797610880856e+01 -2.0051543824583050e+01 6.2362904777080352e-01  -1.4799160183188127e+01 -1.0350283220987244e+01 -1.7695605239876151e+00  -3.3386823101217558e+01 -2.4987569644680335e+01 4.8881846787526460e+00  -1.6852910793771223e+01 -2.3058852400814331e+01 7.3638060249588577e-01  -1.8292491019253546e+01 -2.4505198832867837e+01 1.7726625510711185e+00  -2.9489127582058014e+01 -1.7144875451343875e+01 3.7618240514173302e+00  -1.5210752215501046e+01 -1.5330142477068565e+01 2.2321880456544325e+00  -3.0891843104467064e+01 -3.1184595674933647e+01 1.2885741323574807e+01  -5.0181511229050365e+01 -4.7199488538995418e+01 1.1681857002164767e+01  -1.1766177191589957e+01 -8.6629448452308413e+00 -8.7608213771292709e-01  2.2892843089511263e+02 -8.0060441376563489e+01 -2.6709980212069598e+02  3.0705323541026951e+02 -2.9621708341609732e+01 -2.1179646575885795e+02  2.3994765441778353e+02 -5.4560134682575097e+01 -2.0116966374071930e+02  2.8544283332657164e+02 -4.3762105444431789e+01 -2.1600923122073499e+02  2.6822773179496210e+02 -7.2181526244305289e+01 -2.3382307241205694e+02  2.9203146198698181e+02 -4.8477956076215484e+01 -2.0574327521878388e+02  2.5484475363343719e+02 -4.7962235398192171e+01 -1.7127785972741222e+02  3.5805885264374319e+02 -9.3032934480024903e+00 -1.8028581112296959e+02  2.7528730303776268e+02 -3.5067681834758758e+01 -1.7485158002818005e+02  2.2589077782896752e+02 -4.9647409292611762e+01 -1.5504433133715395e+02  1.6162666560337340e+02 5.0322462037683806e+00 5.6759174353555131e-01  2.2377051072986529e+02 3.2203204320570791e+01 -1.3024385132766094e+01  1.9623240654670610e+02 3.1380244133486837e+01 -7.4653082990759394e+00  2.0659031597999413e+02 7.7856134700248010e+00 -3.4326373965996822e+01  1.8205016735985274e+02 2.5451967094176148e+01 5.0543159632506782e+00  1.6363515116184894e+02 4.8407990652888088e+01 2.1137118494085183e+01  1.9852144443190127e+02 5.7211534984631626e+01 2.4787812758179907e+01  2.7338755605466673e+02 1.2284395967165411e+01 -7.6880353960812371e+01  2.7482375457460046e+02 3.8311593371615373e+01 -3.0041993880982524e+01  2.4628585662726437e+02 7.1327643009716539e+01 2.7072248244855970e+01  3.2921140994003832e+02 2.1759652231339874e+01 -7.3653240306531686e+01  3.4513146919869865e+02 2.9901902954628120e+01 -6.3696846435310405e+01  3.1111889691787280e+02 6.7441410572958844e+00 -1.1638331233901197e+02  3.6120821914325194e+02 1.4795055878234692e+01 -1.1376786800483454e+02  3.6384210054272040e+02 1.8035564353696312e+01 -9.2642814984564723e+01  4.4731381412373264e+02 4.3250788699703627e+01 -5.2570540463610094e+01  4.1084190323035898e+02 4.1494817969265924e+01 -8.0443673839494309e+01  3.8658529863466276e+02 4.4697595424257145e+01 -7.1621113305705833e+01  7.5468136198988390e+01 -5.6511373318830721e+01 -4.7406825299067961e+01  8.8539551557950674e+01 -1.7558054365984130e+01 -6.5764359230560157e+00  8.5730499074110071e+01 -4.1753961237289417e+01 -5.3644905367117559e+01  1.1125208769900981e+02 -2.5241457132847036e+00 -1.1989204102898841e+01  9.3052938199807642e+01 3.8972303879065504e+00 -2.0562901379218038e-01  1.3860144048643284e+02 3.0749135307349949e+01 -2.3042224528587809e+01  1.0582732805711970e+02 -6.1569668857295783e+00 -1.4045062087570122e+01  1.2505347924352455e+02 6.2472470073726187e+00 -1.0603895560072884e+01  1.2420875744524467e+02 2.8290795311492811e+00 5.8948982035269815e+00  1.6220527464008964e+02 -8.1468738233112404e+01 -3.7743529005248894e+02  1.1373512456810646e+02 -6.6863582580851713e+01 -1.0466203327545873e+02  5.3925009315859661e+01 -8.1810326281896678e+01 -1.2501094178346598e+02  6.7971549886476609e+01 -1.3526254998264127e+02 -1.3271673440769734e+02  1.4638548510968698e+02 -1.1640325745372449e+02 -2.9608284825059127e+02  1.9660926955512335e+02 -7.8221404671456241e+01 -2.1959133490816637e+02  1.0873153932711806e+02 -7.7958360636703134e+01 -1.1623359009548652e+02  8.5557450413456948e+01 2.6235100478314582e+01 5.0323396798578779e-01  1.0021721588608723e+02 5.0120096265670142e+00 -8.2466452234013909e-01  8.0504766911157304e+01 6.3058367906789821e+00 -5.4540526605355231e+00  1.0168056843080224e+02 1.4936737108235448e+01 2.1135185027838457e-01  8.0892715230715936e+01 2.1542954582005766e+01 -2.9068172966317434e+00  1.1825531884207811e+02 -3.3287782651533277e+01 -3.3103987568275123e+01  1.2618841370153324e+02 -4.4726033324293027e+01 -7.0774691545263835e+01  1.3104199477228565e+02 -6.7456082564648995e+01 -7.2656018084513050e+01  1.2390926065769888e+02 -3.1421848744912211e+01 -2.4953724886391310e+01  1.6193744364038443e+02 -5.6239933165931909e+01 -6.8112253096329852e+01  1.3836616401513038e+02 -5.0787566385847370e+01 -3.0264647846645680e+01  1.4744882355047307e+02 -4.0095882124029174e+01 -1.9394957115471584e+01  2.9815262677258164e+02 -4.6236207705506594e+01 -2.7178047702079124e+02  2.2569557563784059e+02 -4.7320475803904664e+01 -2.3700781976724653e+02  2.4593934643213322e+02 -3.4396811485206811e+01 -1.9928132819138861e+02  2.4611812293087954e+02 -1.6781121068860337e+01 -2.1177591963693348e+02  2.0354878789027720e+02 -1.7314234426430072e+01 -2.0857550481689105e+02  2.0770599893889167e+02 -2.6352039201880171e+01 -2.1480719846794537e+02  1.9652758387321600e+02 -2.9305250973644650e+01 -1.8410386072597407e+02  1.9585427695690854e+02 -4.4543273875822770e+01 -1.6582353489761081e+02  2.0270575196506459e+02 -4.6603033737033257e+01 -1.9969085259155196e+02  2.0404316238165922e+02 -4.5828181209863125e+01 -2.1572068508514292e+02  8.2808114751082199e-02 -3.2509445457753174e+01 -4.2219515792054516e+01  5.8710488844362345e+01 -1.2011767104875240e+01 -2.5227109153705496e+00  7.0929824006683546e+01 2.1065560368732616e+01 -3.3141770653475429e+00  5.3278563852709169e+01 -3.3553901684945707e+01 -5.2609833488470848e+01  4.0777587570657992e+01 4.1026518145081596e+01 2.8595474790664948e+01  5.5224835489074003e+01 4.1984175216499562e+00 -1.9011440336016442e+01  1.0881200346953474e+02 7.7502923698646640e+01 -3.5653189967796344e+01  4.4156063741978635e+01 -8.7434627204580650e+01 -2.6355208771933184e+02  6.6758084304774712e+01 -2.8567650789555518e+01 -8.2578419736900216e+01  9.5573106018824859e+01 -4.3270622075445736e+01 -1.4742379000329251e+02  9.4871568341003094e+00 -6.2901116689710364e+01 -1.9264946924178946e+02  -2.7597030645170918e+01 -4.5796151566786790e+01 -1.1430615687487862e+02  2.3881134409653615e+01 -5.1523496811257559e+01 -1.4597798099534265e+02  9.4821226996632205e+01 -3.3341433742649940e+01 -1.1735848127114457e+02  -1.1303300092933835e+01 -4.1264384252973905e+01 -7.8233579550198442e+01  -6.0401852342364641e+00 -1.0567464121370774e+01 -4.2449564247163785e+01  1.4390332016196032e+02 -2.0711929261969882e+01 -8.7778305254743273e+01  5.8990307386513003e+01 5.4773466026883902e+01 7.9541150626718053e+00  5.6890916110758766e+01 2.4933803178541545e+01 -3.9866478041473052e+00  6.9048799058983491e+01 3.1689499532828584e+01 -9.0691854768465916e+00  2.2466755651577429e+02 -6.3994240544888584e+01 -1.2977980004557519e+01  1.5715862677317324e+02 -6.5052741660772924e+01 -3.9114612042543144e+00  2.7585166845815581e+02 -6.9810982366134468e+01 -2.4485944864174641e+01  1.6117023843356006e+02 -3.7939692527568520e+00 -6.5244469259493654e+00  1.4429724909544288e+02 -2.4640167470226693e+01 4.3120304301172636e+00  1.7127767053459519e+02 1.1442768417787544e+01 1.5032897518455396e+01  2.8038036790766739e+02 -8.7986088997018314e+01 -1.6148856409767689e+01  1.8965579157587246e+02 -8.5172004042132642e+01 -6.0921972689345356e+00  1.3863779494639874e+02 -5.2372754454736118e+01 -9.5043531156247307e-01  1.4052545089181268e+02 -3.1104880344642236e+01 -1.4745767678338797e+01  1.4995374919613261e+02 -1.1860070491405363e+01 -4.0789104088262263e+01  1.3933048151614219e+02 -2.8209569760220766e+01 -5.4367847319078727e+01  1.1175838124090983e+02 -1.6813201409277777e+01 -1.7983708932012899e+01  1.5769052993326113e+02 -9.0462625344919143e+00 -1.5785352845584044e+00  1.0083227638056340e+02 -1.2531574405379546e+01 -1.4374828860227097e+01  1.1631887338887468e+02 -2.1396751601927914e+01 -5.3226892090219515e+01  1.3552344878450148e+02 -5.9018499694569977e+00 -2.2424283307771797e+00  1.3713919099733562e+02 -3.0691613961058057e+01 -9.7807410580697493e+01  4.5693491691329761e+01 -6.6497523747782381e+01 -4.2761644993007735e+01  9.3704751586384162e+01 -4.5319049447047618e+01 -7.9633464874640936e+01  9.2519074106133360e+01 -3.3386202210293270e+01 -3.7755813025586342e+01  1.2202101838408868e+02 -4.9670029823157471e+01 -3.5486438095918437e+01  1.4012420429596557e+02 -4.6893810643423976e+01 -6.7120283919192772e+01  1.7939710162007512e+02 -2.6847156580176478e+01 -4.0239476569728687e+01  2.1741796532446793e+02 -2.4356020240514983e+01 -7.1247431711560466e+01  1.7638109964063736e+02 -2.8355578354248792e+01 -8.4147161182457353e+01  2.2555893555822314e+02 -1.0402539160729833e+00 -2.3573772576125709e+01  1.7910813546323593e+02 -2.8254937136501521e+01 -1.6963796043388764e+00  2.0041254757163159e+02 -4.0222340108903998e+00 -1.2503065678369338e+00  2.0976104037152678e+02 -2.6797058253290412e+01 -1.5036406973955005e+00  2.0965921499362150e+02 -2.5344128823590971e+01 -3.4788003664931480e+01  2.2776595450787187e+02 -1.9140173659727018e+00 3.3240195715302706e-01  2.2493950208451818e+02 2.5688840772779301e+01 6.9475138128205796e+00  8.8044489781654804e+01 2.6228050286963743e+01 3.7495754501573844e+00  9.4138681690547614e+01 5.2837802365144071e+01 1.9347507512704365e+01  6.4396435016325114e+01 4.8686639268832348e+00 -6.6942965014504219e-01  1.0595866775470890e+02 1.2139906623318766e+00 -2.5368096804133144e-01  1.1105773946511232e+02 -4.6256341958267688e+00 -1.6043132697224864e+00  9.7165708180130864e+01 2.2068428250405564e+01 4.9254326846952212e+00  7.9906551497807584e+01 -2.5124505175082326e+00 -9.6333075868209384e-01  4.2158815504376904e+01 -8.7403085668375642e+00 3.2413594030350468e+00  5.4306236564116411e+01 2.3617672355107377e+01 1.1448026031722726e+01  8.1851253609654080e+01 7.0656015838601775e+01 4.2556661666088004e+01  2.0373625530660996e+02 2.7513834383079325e+02 2.2311728346394551e+02  7.1556022638240904e+01 1.4071312129608668e+02 9.1210087675826301e+01  -2.3095890348049718e+01 1.4758528974474638e+02 1.1457261020798627e+02  1.4521619550135173e+02 2.9328677195771172e+02 2.5848094545242242e+02  1.0696768794852240e+02 2.3124753290000854e+02 2.1924160757409550e+02  6.2300502865382185e+01 1.3038053051056170e+02 1.0984058278359844e+02  -1.1668205731733217e+01 1.5596900007491843e+02 1.0247847968510385e+02  -5.2439078946173978e-01 9.8295254221982873e+01 5.8187579449410457e+01  4.5507092654596534e+01 8.1280500034609517e+01 5.1216734209294408e+01  1.2310095157837118e+02 -5.6807812675878530e+01 -2.1078066008928904e+01  1.7088103264621782e+02 -4.3271723455511498e+01 -4.7511531192198099e+01  1.7239411869028589e+02 -4.3849483413561238e+01 -1.2648657601487769e+00  1.3869328501403089e+02 -5.1444863719043624e+01 -1.2411206997283612e+01  1.1975041242126611e+02 2.8019525932894872e+01 9.0274604913858525e+00  1.3341943779492863e+02 2.4947302545775216e+01 4.4736565554909360e+00  1.0948425981432216e+02 4.4614898867559923e+01 2.2692245310902745e+01  1.1855477205462803e+02 1.4832636057072429e+01 -1.6922865778177760e+00  1.3779991601413417e+02 1.3802733110014398e+01 -4.9230645436145810e+00  1.2602185380802761e+02 -3.4313154114155124e+00 -6.2947327283008052e+00  1.4492983564765569e+02 -9.5822188808787310e+00 -2.5686555216713085e+01  1.2854835116989869e+02 -2.3830585149459516e+01 -4.5135295956634479e+01  1.3554400258102095e+02 -3.2637645381379627e+01 -2.6258152025026309e+01  1.5218498907002817e+02 -2.9156177506847122e+01 -4.0799078355868325e+01  1.0415397315386085e+02 -1.2672038865488014e+02 -1.3730874982498764e+02  1.2458644538336137e+02 -9.5819454018386253e+01 -1.1042980134327432e+02  9.3116879863798914e+01 -1.1425177274406001e+02 -1.0879432579506954e+02  5.8179771748104123e+01 -9.0011223101680613e+01 -1.0049568881367924e+02  1.0408328187097121e+02 -6.9622380216679261e+01 -7.1949813582058411e+01  6.2267606630640422e+01 -7.4403628229406578e+01 -4.6612947552605277e+01  8.6580748948900165e+01 -1.0529753349085668e+02 -4.5127048049248053e+01  1.2656869770584349e+02 -8.6484858253172064e+01 -7.2766969252392215e+01  1.6050830062172614e+02 -7.0976316568072036e+01 -8.6149952625994430e+01  1.3642582848863046e+02 -3.6668907714666567e+01 -1.6814152988436391e+01  1.4441106639814123e+02 -1.8785605235835497e+01 -2.2655197319310989e+01  1.1945785918897302e+02 -1.3581247394159984e+01 -6.4641780223673218e+00  1.2383986040053938e+02 -3.9322262206710775e+01 -7.9586348392306192e+00  1.2515288076210325e+02 -2.3866311646329144e+01 -8.4617950789074126e+00  1.1604384389322352e+02 -2.8577263970054187e+01 -9.0465180291452696e-01  7.5450045767678034e+01 6.4868205820875202e+00 4.1404301947209824e+01  1.2164298477807749e+02 6.0938083031809448e+01 -1.5583535869749142e+01  1.7101827135744679e+02 -7.1062394661560106e+01 -2.4082961130251144e+02  2.1464144550284041e+02 -6.5125739930257993e+01 -1.8420004735324235e+02  2.8567129571120489e+02 -5.4407898056317379e+01 -2.1718368929780343e+02  1.9697458783769625e+02 -7.1339537396443248e+01 -2.4916632251674633e+02  2.2241976753637334e+02 -7.0269232252348203e+01 -2.4320644129403104e+02  2.5775705556181686e+02 -6.4411164569238764e+01 -2.0963295436371976e+02  2.3719345473876041e+02 -1.7136972948572623e+01 -1.2260678940515335e+02  2.0591541384120279e+02 -1.1463097111986023e+01 -9.1652443447149963e+01  2.0510577548032975e+02 -3.5760557224205520e+01 -1.1711495634789227e+02  2.4315123595111803e+02 -5.2588471336513036e+00 -7.6339726314685095e+01  1.6585339229001806e+02 -3.8082431914844150e+01 -1.3478604524344155e+02  1.0920085442461098e+02 -7.6440817255892028e+01 -2.6048407335414913e+02  1.0496838480235877e+02 -5.0551401692974785e+01 -1.6273466819224302e+02  3.6134383355102187e+01 -9.1968891150459200e+01 -2.0793701742018072e+02  2.9109527403897324e+01 -5.3067180020620988e+01 -2.0122139897984792e+02  9.8249444009122456e+01 -5.3176362823765977e+01 -1.2161836208431707e+02  8.4425707023530904e+01 -4.0858834558817733e+01 -1.2079030885987582e+02  2.7420741229752494e+01 -5.8343540220660557e+01 -1.3633983273627632e+02  5.1799815285239760e+01 -8.5770613517350867e+01 -1.4284731799854453e+02  1.2606124650375675e+02 -6.6225843102801534e+01 -1.6159449017266203e+02  1.4789714474725051e+02 -5.8335148848091357e+01 -1.9870217099766896e+02  1.3693154807181332e+02 7.1916562702015618e-01 -2.8305758436018444e+00  1.2730918641006150e+02 -1.3937949214205513e+01 -1.5008581473335228e+01  1.4045059254958016e+02 -4.8966318161658218e-01 -1.6097087018911708e+01  1.3374047733434560e+02 3.4162587853747950e+00 -4.4805889828695139e-01  1.2865451135115961e+02 -8.7403195340962512e+00 9.0021247372879265e-01  1.2506017530793397e+02 -1.2889341584920508e+01 4.0998569026097709e-01  1.5129625991693979e+02 -3.0238833568196974e+01 -8.1424867790437503e+01  1.1110145302535955e+02 -2.7310133303642061e+01 -7.9275017566640045e+01  1.5224309493368986e+02 -1.3026847986021254e+01 -5.4066503225321519e+01  1.9858909585531299e+02 -6.2338148339923798e+01 -2.0403085069111680e+02  2.0924845674681279e+02 -6.2946170468849544e+01 -2.1242689765418950e+02  1.6891953428933732e+02 -6.7276421015071534e+01 -2.1085017923750604e+02  1.9227025115229915e+02 -8.5669614087897486e+01 -2.7531861845775478e+02  1.6528338798400929e+02 -6.1291032234668243e+01 -1.9714507697028114e+02  1.8407280817175021e+02 -4.2814789021415251e+01 -1.7498970922742052e+02  1.9605058567728568e+02 -5.5524934185557790e+01 -1.9494796686543683e+02  1.9778715788264356e+02 -6.5900556689019481e+01 -1.9893559995449735e+02  1.4328230142028349e+02 -9.0303933342969771e+01 -2.4960877548216305e+02  1.9028139233530183e+02 -6.0982113242340503e+01 -2.3131540311263021e+02  1.6618981068686608e+02 -4.9366718894172386e+01 -2.0547557796679538e+02  1.5763518189883212e+02 -6.3403708246027968e+01 -2.0024020258418713e+02  1.8847838522158037e+02 -5.1569400211279017e+01 -2.0047808637255216e+02  1.8601238552490634e+02 -3.7529345196353148e+01 -1.7865698360780257e+02  1.8487694029158763e+02 -2.7757576193884244e+01 -1.8477513336550911e+02  1.9274451454309349e+02 -3.9515045329460186e+01 -2.0884799533203969e+02  2.2070076311395442e+02 -5.8707699592390881e+01 -2.4549224277275235e+02  1.8968318498298515e+02 -4.8323474520803558e+01 -2.2351939833458988e+02  1.9553633376567299e+02 -6.2669498799128647e+01 -2.1635195183844161e+02  2.1225288065906147e+02 -4.3688610892580186e+01 -1.9796070885936592e+02  1.9928797458483015e+02 -5.6642597883421899e+01 -2.0792398699556460e+02  2.1750445676648781e+02 1.0567874412218808e+02 -3.4881644882970448e+02  2.0832621043737936e+02 -2.7062912847952090e+00 -2.8965466795136683e+02  2.0496599014554457e+02 4.9258278144420169e+00 -2.5341926044371294e+02  2.3185988069094154e+02 -9.0150402218742034e+00 -3.4358551984516521e+02  2.2974224560902260e+02 1.9756014539907916e+01 -3.2709771951118154e+02  2.9156825686847623e+02 7.6045501062755694e+00 -3.0630478831569241e+02  1.7466482276906959e+02 -1.3289368774430326e+01 -2.4769620061355590e+02  2.3325732418932324e+02 5.5716652118166321e-01 -2.3488640599692769e+02  2.0303766257825828e+02 -4.8501306047274589e-01 -7.0184564965354326e+01  2.0440735254168240e+02 -9.4248817641124116e+00 -1.1644949818768247e+02  2.0508155113238286e+02 1.4375621071953850e+01 -4.6105746130355172e+01  2.7917360594543936e+02 3.7309126664877887e+01 -4.7195498656595113e+01  1.8125066085884015e+02 2.7693214357931890e+01 -1.2307437446977307e+01  2.8585196244942080e+02 1.1177571051080911e+01 -1.3775593392221973e+02  2.7176861353002266e+02 -3.4504604972556123e+01 -1.9080791035243556e+02  1.9888831291465681e+02 -6.5837432900998593e+01 -2.0340841134445031e+02  2.0047192664242365e+02 -5.9500468629980659e+01 -1.7421200764741454e+02  2.1072138413567711e+02 -8.5573421670685761e+01 -2.1788897716622324e+02  1.8668835869369806e+02 -1.0702191500977207e+02 -2.2262121973132128e+02  1.9849063180629392e+02 -6.5275680626590628e+01 -1.7744411487734098e+02  1.8947785358438526e+02 -7.8884886286867456e+01 -1.9960515868874879e+02  1.9753091695368659e+02 -7.4806883310717879e+01 -1.7538569591114575e+02  1.9132251336744270e+02 -6.3052141311500840e+01 -1.5932824668889901e+02  1.3543965292103076e+02 2.3270988807777041e+01 -5.9212477837293642e+00  1.5952531493835414e+02 3.6813402247679718e+01 -1.3755010979271542e+01  1.5831058932021696e+02 2.7557224126669631e+01 -4.8964071136250269e+01  9.6851055247548047e+01 3.8525362281932985e+01 -3.8969638297449620e+01  1.4215791944292576e+02 5.9939051116495115e+01 -3.6064479950