<?xml version="1.0"?>
<VTKFile type="UnstructuredGrid"  version="0.1"  >
<UnstructuredGrid>
<Piece  NumberOfPoints="10637" NumberOfCells="47659">
<Points>
<DataArray  type="Float64"  NumberOfComponents="3"  format="ascii">2.27697 21.68647 1.408137  3.21947671975733 22.11735299135291 1.218359756350984  2.739815219757331 22.19100249135291 1.555932756350984  2.457252 21.936246 0.9776199999999999  2.7566315 21.6128205 1.070564  3.236293 21.539171 0.7329909999999999  2.9369135 21.8625965 0.640047  2.637534 22.186022 0.547103  2.920097219757331 22.44077849135291 1.125415756350984  3.202660439514661 22.69553498270582 1.703728512701968  4.863046 27.687883 5.05442  4.5695155 27.548389 4.136551  5.160947 27.6735265 4.0065375  4.86325 28.1953045 4.2639025  4.863454 28.702726 3.473385  4.5697195 28.0558105 3.3460335  5.161151 28.180948 3.21602  5.458848 27.65917 2.958655  4.8674165 27.5340325 3.0886685  4.275985 27.408895 3.218682  8.929917656327074 23.58278262706959 5.293711566471465  7.592637058068934 24.1635097030362 4.742622830064297  7.937654639080694 23.30761457034748 4.358942041415315  8.486660801103051 24.29830054012986 4.81055379592109  8.035893913292957 23.44799178997593 5.225780600614674  8.388421526890788 24.1579233205014 3.94371523672173  8.831678382114811 23.44240540744114 4.426873007272107  8.733439107902548 23.30202818781268 3.560034448072748  7.141870170258842 23.31320095288228 5.157849634757882  8.043403945879028 25.01381845319013 4.327396025370713  7.218726 23.966343 0.40413  7.590720090960995 24.78063214647277 1.106760488009061  7.801427319045063 23.92704586326106 1.163803554662677  7.7700745 24.409216 0.3882345  8.321422999999999 24.852089 0.372339  8.142068590960996 25.22350514647277 1.090864988009061  8.352775819045062 24.36991886326106 1.147908054662677  8.384128638090125 23.88774872652213 1.923477109325353  8.173421410006057 24.74133500973383 1.866434042671738  7.96271418192199 25.59492129294554 1.809390976018122  13.312325 26.838032 5.801632  12.37818270954027 26.55088586445594 6.073097989976957  12.7010505 26.7364895 5.22962  13.141281 26.3190745 5.5880945  12.970237 25.800117 5.374557  12.20713870954027 26.03192836445594 5.859560489976957  12.5300065 26.217532 5.0160825  12.089776 26.634947 4.657608  11.76690820954027 26.44934336445594 5.501085989976957  11.44404041908053 26.26373972891188 6.344563979953914  10.908099 23.594612 4.126229  10.2045915 23.3870785 3.246775  9.820769053951274 23.44832009390634 3.843131724036374  10.6676725 23.859646 3.510243  10.445018 23.1220445 3.862761  9.981937 22.649477 3.599293  9.580342553951274 23.71335409390634 3.227145724036374  9.357688053951275 22.97575259390634 3.579663724036374  10.427246 24.12468 2.894257  3.489968 20.160458 2.639751  3.867425266896473 21.62006797561909 2.757180801801488  4.066185185597032 20.82554918066151 3.195905669392784  3.327745236368322 21.13401949715976 3.051710254251347  4.029648030528151 20.64650647845933 2.345221547550141  4.569328061056301 21.13255495691866 2.050692095100282  4.605865216125181 21.31159765912085 2.901376216942924  3.165522472736645 22.10758099431953 3.463669508502695  3.903962421965354 21.79911067782128 3.607864923644131  4.642402371194063 21.49064036132303 3.752060338785567  2.331883 27.096333 6.266505  2.493982463566224 26.808975099703 5.407367469271801  1.912446463566225 26.383550599703 5.784550969271802  1.938990463566225 27.007306099703 5.829276469271802  2.860331 26.2742465 5.7998705  2.886875 26.898002 5.844596  2.305339 26.4725775 6.2217795  2.278795 25.848822 6.177054  3.441867 26.699671 5.422687  1.546097927132449 26.918279199406 5.392047938543603  4.264130432466433 23.72502668473438 3.383967547248917  4.453266401830248 22.6078335230287 3.568013943017242  3.714826452601539 22.91630383952695 3.423818527875806  4.124880266805896 23.08769150943915 4.304960755356731  3.985630101145359 22.45035633414393 5.225953963464544  4.314016236169711 21.97049834773348 4.489007151125056  3.575576286941002 22.27896866423173 4.344811735983619  6.771047 22.769545 0.436224  6.761622589279025 22.04408931082408 0.9538692191522704  6.259308293731481 22.49053551812239 1.01128507927049  6.432657000000001 22.3712695 0.437766  6.094267 21.972994 0.439308  6.423232589279024 21.64581381082408 0.9554112191522705  5.92091829373148 22.09226001812239 1.01282707927049  5.747569587462961 22.21152603624478 1.586346158540979  6.249883883010505 21.76507982894647 1.52893029842276  6.752198178558049 21.31863362164815 1.471514438304541  3.685257 23.340387 6.178496  2.972357010485155 24.00210443052362 5.550039305870646  2.323592677446339 23.56535235919618 5.859852458512173  3.537012510485154 23.46089043052362 5.479213805870645  3.1206015 23.881601 6.249321500000001  2.888248177446338 23.02413835919617 5.789026958512173  2.555946 24.422815 6.320147  2.091239354892677 22.70788971839235 5.399557917024346  2.740003687931493 23.14464178971979 5.089744764382818  3.388768020970309 23.58139386104723 4.779931611741291  2.419659 23.180847 7.074113  1.753009758934767 23.519346954027 5.789474318609198  1.917219581488428 23.75582559483083 6.626751860097025  2.255449177446339 22.94436835919618 6.236835458512173  2.4878025 23.801831 6.69713  1.985363081488428 24.37680959483083 6.249768860097025  1.414780162976856 24.33080418966166 6.17939072019405  3.877145 25.804146 5.062187  3.741266199843389 25.52073080807937 4.322327278182202  3.768805842979825 26.18670495784313 4.545111217924722  4.197708124440786 25.77379380932064 4.47755551897206  4.518271248881572 25.74344161864128 3.89292403794412  3.632927042823214 25.9032897659225 3.805251496106925  4.061829324284175 25.49037861740001 3.737695797154262  4.089368967420611 26.15635276716377 3.960479736896782  3.660466685959649 26.56926391568625 4.028035435849445  3.605387399686779 25.23731561615874 3.582467556364405  0.600806 23.111803 7.597602  0.9157933488978731 23.08417436984254 7.180995063055372  0.4811255 23.53994 7.078953  0.574059 22.892193 7.054938  0.547312 22.672583 6.512274  0.8890463488978732 22.86456436984254 6.638331063055372  0.4543785 23.32033 6.536289  0.361445 23.968077 6.560304  0.7961128488978731 23.51231136984254 6.662346063055372  1.230780697795746 23.05654573968508 6.764388126110743  12.00441 24.826855 4.630059  10.82004776484579 25.51907755356078 5.53714507959007  11.10023255530553 24.80063518910484 4.679892589613113  11.23307575940137 24.56342852090299 5.357091267067398  11.72422520954027 25.54529736445594 5.487311489976957  10.46174151880274 24.30000204180598 6.084123534134795  10.95289096894164 25.28187088535893 6.214343757044355  10.3288983147069 24.53720871000783 5.40692485668051  10.19605511061105 24.77441537820967 4.729726179226225  3.732443 22.339233 0.416933  3.389700719757331 23.20270999135291 1.212964756350984  3.46755171975733 22.51738399135291 1.060330756350984  3.13158 22.693916 0.46513  3.654592 23.024559 0.5695669999999999  3.576741 23.709885 0.722201  3.053729 23.379242 0.617764  2.530717 23.048599 0.513327  2.866688719757331 22.87206699135291 1.108527756350984  5.143578 26.619108 2.776484  5.571417731727559 25.67496771830274 3.495013453793374  6.237928602648546 25.89904713522821 2.883264844347132  5.134845464349903 25.74786621841976 3.018932690094557  5.580150267377655 26.54620949988298 3.252564763698817  5.801356335270891 25.97194563534522 2.407184080648316  6.01672253475531 26.47331099976596 3.728645527397633  6.459134670541783 25.32478327069045 2.037884161296631  5.792623799620795 25.10070385376498 2.649632770742873  5.126112928699807 24.87662443683951 3.261381380189114  5.763908 26.889055 4.913335  5.875723499999999 27.744441 3.942629  5.611378 27.2741125 3.935995  5.5778225 27.7587975 4.9905115  5.313477 27.288469 4.9838775  6.0282535 27.3593835 4.919969  6.292599 27.829712 4.926603  6.277698 18.860235 0.400429  5.791972922966801 18.48144776738632 1.128617624235169  5.884666288293643 19.24695910687259 1.038272098321321  5.7457975 18.7269085 0.4527655  5.213897 18.593582 0.5051020000000001  5.352765788293643 19.11363260687259 1.090608598321321  5.491634576587287 19.63368321374518 1.676115196642643  5.930841711260444 19.00149837425892 1.71412422255649  6.370048845933602 18.36931353477265 1.752133248470338  6.185804 25.502695 0.94908  6.796925335270892 25.53588113534522 1.329883580648315  6.254333835270891 25.01734263534522 1.358188580648315  6.322469335270892 25.41373913534522 1.493482080648315  6.592124500000001 25.2284405 0.650188  6.66026 25.624837 0.7854814999999999  6.117668500000001 25.1062985 0.8137865  6.049533 24.709902 0.678493  7.134716 25.746979 0.621883  0.919887 22.811932 2.644092  1.906669517122421 22.96746519610207 2.910157085069526  1.544160073164657 23.46888866865645 3.077033455440159  1.335295073164657 22.97466516865645 3.213768455440158  1.128752 23.3061555 2.507357  1.491261443957764 22.80473202744562 2.340480629629368  1.337617 23.800379 2.370622  1.700126443957764 23.29895552744562 2.203745629629368  2.062635887915528 22.79753205489124 2.036869259258736  1.750703146329315 23.13739833731291 3.783444910880317  2.350084943957764 22.49177702744562 1.291986129629368  2.169802943957764 22.24200102744562 1.722503129629368  2.632648163715094 22.74653351879853 1.870298885980352  6.862878 26.849909 4.910339  6.154660767377655 27.15151149988298 4.327624263698817  6.439800267377655 26.66160999988298 4.319492263698816  6.313393 26.869482 4.911837  6.577738500000001 27.3398105 4.918471  5.890315267377655 26.68118299988298 4.320990263698817  1.653342 26.257917 3.431168  1.662835540014983 27.09145029578075 3.747738876112611  1.798626 27.0714495 3.203562  1.876974040014983 26.47317329578075 3.79495037611261  1.4392035 26.876194 3.3839565  2.236396540014983 26.66842879578074 3.614555876112611  2.0127645 26.4531725 3.2507735  2.372187 26.648428 3.070379  1.225065 27.494471 3.336745  2.100606080029967 26.68842959156149 4.158732752225221  0.384228 24.948618 5.636598  1.059586298562711 25.21616160774979 5.400468317877685  0.5089315 24.946767 5.015696500000001  0.4087
[...]
<PointData  Vectors="u"> 
<DataArray  type="Float64"  Name="u"  NumberOfComponents="3" format="ascii">1.2127747418511100e+02 -6.9005405690111559e+01 -2.8924452282138279e+01  1.2147546030047086e+02 -5.1469315900541780e+01 -2.4961826122933850e+01  1.2282799590569212e+02 -5.4586674924051188e+01 -4.0181721870538261e+01  1.2850365516818914e+02 -5.5343248928413630e+01 -2.3401416236509714e+01  1.1595478677320925e+02 -6.7178203098084268e+01 -3.0307837573257981e+01  1.1498115121152199e+02 -6.7162648880720141e+01 -1.5656350422285229e+01  1.0285062772980082e+02 -6.3000121441544259e+01 2.5033989214201759e+00  1.1450585428636511e+02 -4.5479054149851123e+01 -1.0404857416080787e+01  1.1902208210658455e+02 -4.3966668205945055e+01 -2.8814712494880730e+01  1.3106144973649808e+02 -4.7073408661832389e+01 -4.7574679223545800e+01  5.8857966956237328e+02 -1.1197327730631751e+02 -1.4985675011808186e+02  5.0617944128849092e+02 -1.1341228379230522e+02 -1.3065789272714326e+02  4.8490847594798220e+02 -4.1469062347257449e+01 -1.2196359782173832e+02  5.7192474194722490e+02 -7.1290610756536850e+01 -1.4698398584450041e+02  6.3969073463946324e+02 9.9757229791544102e+00 -2.3213128624295231e+02  5.8074735020544222e+02 -6.0885877316148168e+01 -1.5671622698754538e+02  5.2470994503264785e+02 5.1500346606584586e+01 -2.3141622531171714e+02  4.3391619237211717e+02 4.6497959894224209e+01 -2.0402812321244650e+02  4.9165907787593073e+02 -2.5937459201571844e+01 -1.5694282145772536e+02  5.2885422952721092e+02 -1.2162655160910330e+02 -1.0269829199283225e+02  1.9009381504612199e+02 8.0338085852312318e+01 7.8685363017928523e+01  2.0566023954223184e+02 4.9586578319614837e+01 5.2198936616814841e+01  1.7160156944415013e+02 5.4152320067605721e+01 5.1195722321887672e+01  1.9593867425998724e+02 7.2277896045837565e+01 7.2801274960455771e+01  1.9059833239018226e+02 6.2254078467515555e+01 5.8800607717013008e+01  1.7203534904027111e+02 6.6645677781156238e+01 5.9862724417361754e+01  1.6697670370471945e+02 7.3010026008354131e+01 7.4927649196058425e+01  1.3970269850439956e+02 7.0624265221104025e+01 6.6174778663912832e+01  1.9477533656662098e+02 3.7470144139429053e+01 4.4455098867924079e+01  2.0914340990843431e+02 6.3451281860642602e+01 5.6950193940150704e+01  1.1791479086086260e+02 6.6670349046971978e+01 -6.2373967790506022e+00  1.2631798687367238e+02 8.1821203572713799e+01 -1.0834010611824443e+00  1.1291249608278180e+02 6.8289501565836858e+01 6.2004533657851137e+00  1.0883382310310104e+02 7.8226901022934641e+01 -3.5683400714398497e+00  8.5754187262197419e+01 9.3598164395847519e+01 6.5842633060883635e+00  1.1398322457102809e+02 9.6519579306089511e+01 5.6635001970654670e+00  1.0024938593890582e+02 8.1658090597471428e+01 1.7462565802873311e+01  1.1158585265738144e+02 7.2288065237915475e+01 2.9337415406453278e+01  1.2770373160174758e+02 8.1439678248404761e+01 1.7798260477248999e+01  1.4260141938067468e+02 9.4613345362954988e+01 2.0187489961300131e+00  1.9037085935911708e+02 7.6556525415575052e+01 1.5243721493059559e+02  1.8363124328713079e+02 7.4120008362615152e+01 1.3514094191647598e+02  1.6737206435997848e+02 9.0364893800053167e+01 1.4837095153183893e+02  1.9094660459406290e+02 6.0227919892402902e+01 1.6348717894966308e+02  1.9214425334443141e+02 4.8787772036336854e+01 1.4558001156080752e+02  1.8775383955820402e+02 7.1265707259161303e+01 1.3732034160987160e+02  1.7692412176941232e+02 6.4820502810986511e+01 1.5066594678460822e+02  1.7210812520569795e+02 9.6217525293604908e+01 1.5581455279201677e+02  1.7859310566922767e+02 8.0845944011007049e+01 1.3773536255113123e+02  1.7846975398854696e+02 8.3834590967625999e+01 1.3408951883191358e+02  1.7807279106472598e+02 8.0738775024522099e+01 1.5612583061490136e+02  1.1945881886943457e+02 9.4599904389829760e+01 1.2721695474187939e+02  1.4509904432915832e+02 8.5098980157204323e+01 1.0562967190028183e+02  1.2311669670848228e+02 8.2899506587644808e+01 1.4249246956983714e+02  1.4717813194654772e+02 9.3899855963894979e+01 1.3526858906606623e+02  1.2661280392841655e+02 8.8062978019140402e+01 1.1534457840667642e+02  1.2299504983649243e+02 8.5628318387148596e+01 9.2163792832478862e+01  1.2969836369526701e+02 8.1040411753958182e+01 8.9053340433603523e+01  9.4520888184940262e+01 9.2228847237703079e+01 1.2579640405643102e+02  9.8848949005579172e+01 -9.7808943800454060e+01 -3.7234735116660218e+01  1.3794301813293512e+02 -6.4117592270825199e+01 -3.7628466517026766e+01  1.2593828376489071e+02 -7.2814508453324038e+01 -2.7385173957054054e+01  1.3793621715676997e+02 -8.5050000968971958e+01 -4.9247485873897979e+01  9.9506856777800849e+01 -7.0719999505996554e+01 -2.7354156803608724e+01  1.0540754829812136e+02 -4.7223261964309927e+01 -1.7121164340019931e+01  1.2586932173450933e+02 -4.9221994894537069e+01 -1.9382740932097938e+01  1.6673643252829845e+02 -8.2062024303262746e+01 -6.8271462011519006e+01  1.6421258379794071e+02 -6.9834306991876829e+01 -4.0513608503693185e+01  1.5072669847633540e+02 -5.3502779302633535e+01 -1.7271975344163867e+01  2.2609329593581455e+02 -2.8229779410070540e+02 -2.2320634460184584e+02  2.8196806351493251e+02 -2.4985139880621406e+02 -1.7405903387555102e+02  2.2859674132645793e+02 -2.6681606016831699e+02 -1.4266703380562922e+02  2.3972585357012014e+02 -2.7187308264799992e+02 -1.6139590125500729e+02  2.5508726224196286e+02 -2.4946427356161283e+02 -2.0769947469340059e+02  2.6650969725589903e+02 -2.4993059275763557e+02 -2.3096675878576386e+02  2.1522662814193512e+02 -2.7565937910974156e+02 -1.7034595052810494e+02  2.1219121891440034e+02 -2.6550673761379358e+02 -1.3973410961321002e+02  3.8206552877623596e+02 -2.1703727275654973e+02 -2.1964608281648933e+02  2.4291317307222772e+02 -2.7152456516293131e+02 -1.2663779017330911e+02  2.1035994201312084e+02 -5.9018772633894962e+01 -5.8661236124397654e+01  1.7977771733521251e+02 -5.1089821133612610e+01 -3.3737109180923142e+01  1.8594258806854876e+02 -6.9650713683008973e+01 -6.1878907524960574e+01  2.2157027299979862e+02 -7.2389037816776280e+01 -4.4871423375063017e+01  2.4483640604916678e+02 -8.4425938001225276e+01 -2.9596586090588140e+01  1.9047800071149913e+02 -6.5952659415188620e+01 -2.2599662882632789e+01  2.0264939870585974e+02 -8.4189173159361189e+01 -5.6657908779493134e+01  1.1080799907802528e+02 4.3445715864004519e+01 -2.1496693312247053e+00  9.4704576473791079e+01 3.1745777807999435e+01 5.9310949415790040e+00  1.1425909437925661e+02 2.2638344847212668e+01 -9.5042066241311562e-01  1.0535552633606142e+02 3.1579863575281532e+01 9.0536114502674636e-01  9.8025327188370795e+01 1.3221107617465771e+01 2.3003858847137959e+00  8.7609556934124271e+01 1.5995449148537997e+01 5.2776821086018693e+00  1.0803811060749896e+02 7.4510197117621138e+00 -7.1635325350505119e-01  1.1865418087448934e+02 1.4530259762799094e+00 -4.6826988591413716e+00  9.9423679523962122e+01 1.0284847074051985e+01 3.9789300691468781e+00  7.8425200315387002e+01 2.0135436988756688e+01 1.2001881128204261e+01  3.6241574985605001e+02 -1.2036004933390174e+02 -8.1545892509967103e+01  2.7898725885630495e+02 -1.4751098344356635e+02 -1.0841024739369590e+02  2.5131485880665528e+02 -1.3994859788005058e+02 -1.1321872053511008e+02  2.9464925701475767e+02 -1.1298393791107272e+02 -7.0848930085632333e+01  2.8727824793446655e+02 -1.3814024371318641e+02 -1.0823522658853463e+02  2.6270955340944755e+02 -1.2088748253199094e+02 -1.1691478102392760e+02  2.6881273119015907e+02 -1.9114114807575203e+02 -1.1706169522279049e+02  2.3359821430123006e+02 -1.2361183227467559e+02 -1.1519452255134618e+02  2.4657710124495074e+02 -1.2141069653450477e+02 -9.6339680006369434e+01  2.5785385958813600e+02 -1.1106650317534663e+02 -7.8969009104594406e+01  2.4946429925357259e+02 -9.9094998530061972e+01 -1.4651124414508891e+02  2.3242132543244517e+02 -1.4205317587127408e+02 -1.0977965619141240e+02  2.2228880252498078e+02 -1.3884436227542085e+02 -1.0740979588073439e+02  2.4443121129035578e+02 -1.2159382958421605e+02 -1.2246157768275367e+02  2.6692387144292820e+02 -1.4149671773796689e+02 -1.1889170307970888e+02  2.2612092159463461e+02 -1.7908304038503076e+02 -1.0927582041287363e+02  2.1446249834536033e+02 -1.6573966718909224e+02 -9.2661425411749846e+01  4.1672823859164441e+02 -2.0792729819213318e+02 -1.2891193938151525e+02  3.3012425560694470e+02 -1.5593786427086420e+02 -1.0234057206603073e+02  3.7892482653050911e+02 -1.8123030438362977e+02 -1.3502508180267742e+02  3.6642756604470475e+02 -1.4026268527753874e+02 -7.8235042602674767e+01  3.4028593359092929e+02 -1.0012863836838631e+02 -8.3271526329667765e+01  3.3232244592950542e+02 -1.6948858140083195e+02 -1.1502498331008746e+02  3.1230319022631625e+02 -1.2152592975913944e+02 -9.7651861312683877e+01  3.6844765955273971e+02 -1.4651096173652661e+02 -1.0541806792279564e+02  3.8355749951223123e+02 -1.8766956722304008e+02 -1.1764790913770481e+02  2.7924601988612028e+02 -1.3916115761506705e+02 -1.1385713389298199e+02  2.3348027181894781e+02 -5.5272591601857350e+01 -7.7554519853447530e+01  2.1343573015385672e+02 -7.6444343510769556e+01 -8.3427103956507636e+01  1.9349989885499545e+02 -9.2675533053620612e+01 -6.1687048787857044e+01  2.2238617205711358e+02 -7.1333602324702980e+01 -1.2001830947199518e+02  2.2900500325771969e+02 -1.3067929090166234e+02 -7.0263985670279951e+01  2.1703495287151102e+02 -1.2087716251281158e+02 -9.9499346344986478e+01  2.1821605065929978e+02 -1.1077436424780043e+02 -8.3105603926369270e+01  2.0391792569728716e+02 -1.2335910156700110e+02 -5.9866770971213448e+01  2.1027347178270682e+02 -1.1698471026548687e+02 -7.8062904389476344e+01  2.0759122778661569e+02 -1.1008416503484045e+02 -1.0360859501127037e+02  2.0862951411285005e+02 4.7244965542996177e+01 1.6361242952190054e+02  1.8595893944299235e+02 9.0879483796260999e+01 1.3054133011578125e+02  1.8626150603131697e+02 7.6117148945639471e+01 1.3958406095465995e+02  2.0195221274154454e+02 7.7303747573531979e+01 1.2847689333005047e+02  1.9162617400898932e+02 7.3498613104537498e+01 1.3732856434106344e+02  2.0759388617224172e+02 9.5546284616212631e+01 1.1086028450842517e+02  1.9485015380050996e+02 9.2174381919126986e+01 1.2623843860208021e+02  1.9520899436472931e+02 8.9845388194803817e+01 1.1583807532667755e+02  1.7948992915347355e+02 8.7001374963246207e+01 1.1808709581324582e+02  1.2178121325363048e+02 -3.7120644362271513e+01 -6.5129605386539193e+00  1.3166101823993799e+02 -2.8385459701980086e+01 -3.3331172952069707e+01  1.2684583208697060e+02 -4.1233517913403404e+01 -2.1623304144341418e+01  1.1711742870241298e+02 -3.9868806810208454e+01 -3.6255165844688095e+00  1.3660963836487872e+02 -2.9442805623361327e+01 -5.5671431550291626e+00  1.3510786830469661e+02 -1.7420567827630102e+00 -1.8216788399949884e+01  1.1141884940358732e+02 -2.0154440190053400e+01 -5.4582741484990009e+00  9.4232717010096053e+01 -1.9290882662140483e+01 -1.3565544219460520e+01  1.1680045122165926e+02 -3.3675022630686158e+01 -3.4128432792288969e+01  3.7020118467898874e+02 -9.9407735146259757e+00 -1.6330470950820074e+02  2.9140660158007285e+02 -1.6128954455826101e+01 -5.7859920073450077e+01  2.4805442526992013e+02 4.1077715993919234e+01 -5.8703807001657040e+01  2.9617941043813573e+02 -2.6333374635110594e+01 -1.0027817856064006e+02  3.3757583820466056e+02 1.7154515493753344e+00 -1.0470584883981773e+02  2.4626091360710348e+02 5.0558584630373602e+01 -9.6178107631722540e+01  3.2691939591793874e+02 7.5077053079435565e+00 -5.9399417613867804e+01  1.8885479760151767e+02 6.3510398802190863e+01 -4.0172057453503179e+01  2.2656280753104915e+02 1.9447206733398307e+01 -5.4648160659434140e+01  2.5372775258185030e+02 -3.0433117201174255e+01 -5.7868791498870664e+01  4.1877168126428279e+02 -4.5726700605672583e+01 -1.8070745930356459e+01  4.2257848247028238e+02 2.1343117561557094e+01 -9.7563879562388877e+01  4.1778229569419574e+02 -1.2683329482318964e+01 -9.0076346170999614e+01  5.1521194217647837e+02 -2.8834705612789818e+01 -4.5297482985238588e+01  4.9925062609832338e+02 -7.5814581740788611e+01 -4.0793676304439998e+01  4.4521437540749452e+02 -8.6706562404635772e+00 -2.6696985170686538e+01  4.5404201624049165e+02 3.2329870042526792e+01 -7.8536436851976212e+00  2.1388163831053706e+01 -1.5377056242002716e+00 9.6063597606389295e-01  2.0935407854839308e+01 -4.3725370420513627e+00 4.7026233193780476e+00  3.3487989751280885e+01 -9.7215399762098009e+00 3.4290324848048495e+00  2.2564772894287120e+01 -7.6398502414166058e+00 -1.6184657044947472e+00  1.6738868881536089e+01 -1.4504740593910389e+01 -2.7773563738794431e+00  3.0765334447917986e+01 -1.9241845162004562e+01 -4.0285059183670291e-01  4.7947777965785171e+01 -2.3200828441391565e+01 2.0389204813910475e+00  3.4766089275994815e+01 -8.2862400295218777e+00 9.1596937506544780e+00  2.5406822835224197e+01 4.2966307037199742e+00 1.4974400310946796e+01  1.3577420687710654e+02 7.2558788476994010e+01 -4.4430564868102955e+01  1.6132225137369699e+02 9.1355530095910396e+01 -2.9369459634207992e+01  1.6057177091470859e+02 7.3277450817982071e+01 -4.3528036931777933e+01  1.6755662215381034e+02 7.5449127398376191e+01 -4.7554815632163240e+01  1.4213604840738893e+02 8.6655598159857661e+01 -1.7856071419723733e+01  1.7285753356262080e+02 8.1005356139123904e+01 -1.7222054850742925e+01  1.2366196180043838e+02 9.5001545472604349e+01 -4.0520854952528730e+01  1.4804739834897052e+02 8.1499452361905327e+01 -2.5926949895702148e+01  1.3032722858207407e+02 1.2326100184205954e+02 -1.8786753069551970e+01  1.1295641682090191e+02 -1.0009688269609200e+02 -2.0923210864462652e+02  1.4194245469637551e+02 -8.8963142639520896e+01 -1.3209561022972019e+02  1.6560851502574511e+02 -9.3395540894281851e+01 -1.9221027304294464e+02  1.6820702823814838e+02 -1.2675565926807224e+02 -1.7448919586367367e+02  4.3468593202108657e+01 -4.3835371409268475e+01 -2.2946305264887840e+02  8.4964972060916480e+01 -5.9319353333690437e+01 -1.1201159624257758e+02  5.4283516554450109e+01 -6.7333076748893177e+01 -1.9720874063433891e+02  8.6096423862359899e+01 -4.8520763006722603e+01 -1.3095283172463843e+02  1.1071671575832438e+02 -5.3631873394199324e+01 -8.2524114872352811e+01  1.9259978938869568e+02 -1.2141956228083693e+02 -1.4589904063776081e+02  1.1402526974086857e+02 -3.7840969996796133e+01 -3.7585849492678371e+01  1.1546276795622302e+02 -5.3108443549198135e+01 -4.7902467089128628e+01  1.2402808260501538e+02 -5.1211282308663691e+01 -6.2891849239615119e+01  3.4491111152570699e+02 3.6650231492467320e+01 1.9896393237885427e+01  3.8351593233433448e+02 8.4063554979137916e+00 -4.1287660573156273e+01  3.3428427821913510e+02 1.8138201910483723e+01 -1.9236554355829025e+01  3.6879330703805584e+02 8.5802523479343922e+00 -2.3015373091426894e+00  3.8757113668872944e+02 3.7444838660266662e+01 1.1775026981938021e+01  3.6893656233132782e+02 -1.6910095815744061e+01 -3.9782276178352198e+01  2.7151876466925694e+02 -3.3781011663591465e+02 -1.4706220198224008e+02  2.8846885875121831e+02 -3.0170822450686126e+02 -8.2257745891288138e+01  3.2682999195992443e+02 -3.0507309255090649e+02 -6.4478926084844630e+01  2.8883979987340695e+02 -2.9919752771864034e+02 -1.0810901740144870e+02  2.5715824032337798e+02 -2.8934611426742197e+02 -4.3307218379362247e+01  3.0957832744112267e+02 -2.8921213716518719e+02 -1.0492728397796790e+02  2.9818158260347445e+02 -3.5277843075098804e+02 -1.5103423203590640e+02  2.9730864571807496e+02 -2.9562396438256280e+02 -8.9526475742083107e+01  2.2915089944351436e+02 -3.4446175241394934e+02 -7.4180369956883183e+01  2.9893138648564531e+02 -2.7098083603527584e+02 -1.1708655467577216e+02  2.0451072411371209e+02 -1.8807706797953128e+02 -6.7152844974953624e+01  2.2022552030897779e+02 -2.1124467498927493e+02 -9.9467002105588747e+01  2.3709886236283239e+02 -2.0909207245534958e+02 -1.0492955576755337e+02  2.0471939844466863e+02 -2.1136321629147642e+02 -5.8581689777379026e+01  2.2371813690621033e+02 -2.5753640029137165e+02 -6.3987928730052580e+01  2.4546634567318893e+02 -2.2131656074810155e+02 -1.3077263929123683e+02  2.3578932733239589e+02 -2.4362817010631434e+02 -1.0518718476596901e+02  2.4303914929251911e+02 -2.3222390095052134e+02 -9.4942053395068200e+01  2.7257779356718044e+02 -2.4526636683969136e+02 -1.1864228994011229e+02  2.4307548221830237e+02 -2.2743186119691768e+02 -1.2416373637708402e+02  5.6826734925553922e+01 6.7735461257212862e+01 1.9928304715154535e+01  8.7490900773133902e+01 7.1250395262348789e+01 2.0755765690228497e+01  9.0755431972009376e+01 6.6683936383721459e+01 1.6936321216854989e+01  8.3103676545851854e+01 7.1986359624906299e+01 3.1865599876088393e+01  6.4434941447916486e+01 5.5452599931672836e+01 9.6246130656761011e+00  8.1404124593545106e+01 6.4989730290047021e+01 -2.5175533840544837e+00  8.5248486654789900e+01 6.5855743177793215e+01 -1.7963734495467543e+00  8.3139520867488713e+01 5.6100174323254507e+01 -4.5438011129473148e+00  6.4925911082854455e+01 6.1394971864724532e+01 6.8099442618910446e+00  2.7588609392301343e+01 6.1847550719008296e+01 2.3823911623932155e+01  8.1989780019941492e+01 8.7614426479133996e+01 3.4617467246225090e+01  6.1053155032651084e+01 8.0409465777328734e+01 2.5581356355640679e+01  1.4575428801968243e+01 8.2693633055792688e+01 3.1160885866981829e+01  5.1786840775132688e+01 6.2986290964021343e+01 1.9659681213522010e+01  7.4366520058453020e+01 7.4493148062819628e+01 3.1581978177037712e+01  4.7673212785040256e+01 1.0976026060615462e+02 3.5884974603710852e+01  1.1632283742358842e+02 1.1628178532932981e+02 -9.2487697012394694e+00  8.0562174115446908e+01 1.1349068495164876e+02 6.8996071505926038e+00  1.2116788638825042e+02 1.0188586306335763e+02 -8.2578661687164008e+00  1.1746785811614352e+02 1.1286500491547504e+02 1.2756133132424849e+00  1.3558205684658162e+02 1.0553377276968222e+02 -1.4896636217202513e+01  9.8806567283433694e+01 1.3790996434197450e+02 5.4084387260192877e+00  1.4647815097082275e+02 4.8070528644330082e+01 3.1348439940197920e+01  1.6692780172788116e+02 7.5928352179956482e+00 4.0317112343956964e+01  1.8571213932974146e+02 2.5128189509478140e+00 9.2032459842784917e+01  1.5440475114084200e+02 7.1670894244001753e+00 8.5400540640123353e+01  2.5850647484024375e+02 -5.8954654860903268e+01 9.8912216755459127e+01  2.0709380382732206e+02 -1.7812720612172665e+01 3.8762543019970671e+01  1.9827805609426380e+02 -3.1995007333404988e+01 4.7989056828378523e+01  2.8542226425124642e+02 -5.0826429681523877e+01 8.0801278516015600e+01  2.8502945979869833e+02 -3.7910556700094652e+01 5.6987212873894293e+01  1.7430621155989303e+02 -1.6227875423451263e+01 2.3596957625444169e+01  5.7377508335092287e+01 1.2159943878752131e+02 7.9595062468872712e+01  5.9570827781674332e+01 1.3200176259626625e+02 4.4647730432816680e+01  1.0656131179014480e+02 1.0535155242561078e+02 4.0190166201410229e+01  5.7010905742566557e+01 1.1736037505048365e+02 5.9969786505396613e+01  5.0181032134788481e+01 1.4686054455342574e+02 6.2037367991980759e+01  9.8646192206391632e+01 1.8399426698357090e+02 2.0694696887618335e+01  1.0931586489142290e+02 1.2061281685135356e+02 2.5446558514468926e+01  1.0034969721612384e+02 1.0162481963847931e+02 2.4574020984882679e+01  8.6077593212600362e+01 9.5449332229608430e+01 5.2807612298035203e+01  1.0303306304658568e+02 -2.5628352929869759e+01 -6.7228480502364796e-01  1.2547026561273607e+02 -1.9354805350491596e+01 -1.2653085688917294e+01  1.0164080030094878e+02 -3.4883597776335790e+01 -1.0576921528882812e+01  1.1002963490601451e+02 -1.0464824027465523e+01 -4.4599894534962718e+00  1.3022475776053454e+02 -3.4928580854611312e+01 -2.2919565740351107e+01  1.3728905158671495e+02 -1.1288878053197724e+01 -1.7015717156473386e+01  1.1217568045590130e+02 -2.3004961816167928e+01 -1.0110925526967140e+01  1.5217298760675641e+02 -2.2938137774187876e+01 -3.3856872327748697e+01  1.4676864169283709e+02 8.5193228937034831e+01 1.6971512440737646e+02  1.5814941021254603e+02 8.7696811804874230e+01 1.3457454700008861e+02  1.3743635347579257e+02 9.6308629332509426e+01 1.1355718384808470e+02  1.6577674376469017e+02 8.3314725771054540e+01 1.3662599667482078e+02  1.3347092757909846e+02 8.4754237900457142e+01 1.8181566899098621e+02  1.4108668457314829e+02 9.159930062