<?xml version="1.0"?>
<VTKFile type="UnstructuredGrid"  version="0.1"  >
<UnstructuredGrid>
<Piece  NumberOfPoints="10638" NumberOfCells="49486">
<Points>
<DataArray  type="Float64"  NumberOfComponents="3"  format="ascii">19.231606 42.89283 21.546076  20.60232247109653 43.3708321365024 21.29386123349568  20.21992870961428 43.21311886941078 22.17798200519412  20.07062865634109 42.7422026553627 21.65186741625514  19.76329981475543 43.5214594811397 21.18806981724054  19.91259986802862 43.99237569518777 21.71418440617952  19.38090605327319 43.36374621404808 22.07219058893898  19.53020610654637 43.83466242809615 22.59830517787796  20.29499362951087 44.1500889622794 20.83006363448107  20.90965131268219 42.59157531072541 21.75765883251028  22.544588 48.314251 22.773796  22.23343546255667 47.13686124316561 22.65726520155403  22.91254335816181 47.13689687126968 22.33473787582047  22.1072849889084 47.71881459192656 22.40646489631252  22.78639288451355 47.71885022003065 22.08393757057897  21.6699819778168 47.12337818385313 22.03913379262504  22.34908987342194 47.12341381195721 21.71660646689148  19.5945475 42.6716155 21.116496  19.957489 42.450401 20.686916  20.43357015634109 42.5209881553627 21.22228741625514  22.22731576822739 44.79567147409392 22.5708668445434  21.56848354045479 43.69362339240966 22.16426283852684  21.26115469886913 44.47288021818666 21.70046523951224  21.91553493493527 43.68994630896722 21.5429518754956  21.2038084849998 45.47314045672561 22.53128078980589  21.72519357641189 45.4427847089658 21.52173741708175  20.18030120177221 46.1506094393573 22.49169473506837  20.23764741564154 45.15034920081835 21.66087918477472  20.7016862931843 46.12025369159748 21.48215136234424  22.51210235776196 45.97300788828601 22.9231317275132  21.94864887302209 45.95952482897353 22.30500031858422  22.62775676862724 45.9595604570776 21.98247299285067  22.79688894729654 47.15034430247809 23.27539661048301  20.87876093738688 44.31516695109504 22.58458601121068  19.85525365415929 44.99263593372672 22.54499995647317  21.957731 48.090332 21.650999  22.18452138451354 47.48419672003064 20.89308257057897  21.8138564889084 47.60685509192656 21.84506639631252  21.5054134889084 47.48416109192657 21.21560989631252  20.854872 41.435852 22.21612  21.34111815634109 41.7011546553627 21.55964691625514  21.2740155 41.2716905 21.103835  20.815159 41.5842495 21.5310775  20.88226165634109 42.01371365536271 21.98688941625514  21.3137285 41.123293 21.7888775  21.772585 40.810734 21.361635  22.49618705347918 43.32650718995269 22.40076759314364  19.309118 47.164825 21.062099  20.3903501008861 46.93260821967865 21.89584586753419  19.7447096008861 46.65771721967864 21.77689686753419  19.9547585 47.439716 21.181048  20.600399 47.714607 21.299997  19.72938030316191 45.79386699096495 21.59473258720447  19.2937887022758 46.30097477128631 20.87993471967028  19.27845940455161 45.4371245425726 20.69777043934056  19.38302881475543 44.0126189811397 20.93710381724054  19.2096425 43.0600625 20.7100705  18.851335 43.3839895 21.29511  18.471064 43.875149 21.044144  19.985571 42.05703 22.066683  20.44761115634109 42.3243026553627 21.91217091625514  20.3805085 41.8948385 21.456359  19.97153 42.2537155 21.3767995  21.1351904889084 47.41899259192657 21.66956539631252  20.9251415897945 46.63699381160521 22.26541426384671  19.40433275554899 44.63589348533438 21.64803780860926  19.00063505327319 43.85490571404807 21.82122458893898  18.8747617022758 44.6561367712863 20.87095721967028  19.78672651703124 44.793606752426 20.76391703691082  17.982704 46.402466 20.970472  18.6305817022758 45.9197952712863 20.83412121967028  18.4515525 46.523491 20.4606505  18.645911 46.7836455 21.0162855  19.1147595 46.9046705 20.506464  18.920401 46.644516 19.950829  18.029639 45.8861905 20.3053005  17.790512 45.068802 20.857243  18.53448570227581 45.2529632712863 20.77750671967028  17.886608 45.735634 20.9138575  23.32350135241095 45.48941088270011 23.00764448897962  20.4202215 41.746441 22.1414015  22.2511595 48.2022915 22.2123975  22.5250015 48.37571149999999 21.8122245  21.719465 47.849831 23.562077  22.25817697364827 47.50008765123904 23.4187368052415  21.6947234889084 47.48660459192656 22.80060539631252  22.1320265 48.082041 23.1679365  19.6085885 42.47493 21.8063795  21.202915 47.816113 22.460106  21.4364484889084 47.46974559192657 22.24961989631252  21.580323 47.9532225 22.0555525  21.8737515 48.065182 22.616951  21.279065 47.9024695 21.475498  20.901657 47.76536 21.8800515  21.46119 47.832972 23.0110915  14.40707 43.1404 36.492817  14.52744640488838 43.50363113170215 35.85763469757108  14.55224903367953 43.64796012633775 36.27423974044198  14.23157137120885 43.3360595053644 36.1484239571291  14.70294503367953 43.30797162633775 36.20202774044198  14.08087537120885 43.67604800536441 36.2206359571291  14.256374 43.4803885 36.565029  14.105678 43.820377 36.637241  14.99882006735905 43.47554325267549 35.91123848088395  14.05607274241771 43.53171901072881 35.80403091425821  8.375935 37.079144 34.384911  8.300455052214968 37.93139496444361 33.81541906416753  8.403668052214968 37.77465846444361 34.28569306416753  8.729186052214969 37.57075746444361 34.12673306416753  7.947204 37.4397815 34.073597  7.518473 37.800419 33.762283  9.082437104429937 38.06237092888722 33.86855512833506  3.300073 39.075317 27.786121  3.871851540893229 39.34913065835521 26.86504503285943  2.9888605 39.407589 27.2680145  3.0373725 38.7916485 27.148364  2.774672 38.50798 26.510607  3.609151040893229 39.06546215835522 26.22728803285943  2.72616 39.1239205 26.6302575  2.677648 39.739861 26.749908  3.560639040893229 39.68140265835521 26.34693853285943  4.443630081786458 39.62294431671043 25.94396906571885  4.258099 38.737442 19.281897  3.523703336399941 38.11480033138557 19.72131150750941  3.813810933530437 38.85873100093173 19.68673274681979  3.268391295933315 38.47618488845172 19.12321924313096  2.278683591866632 38.21492777690344 18.96454148626193  2.824103229463753 38.59747388938344 19.52805498995076  3.369522867060875 38.98002000186345 20.09156849363959  14.18835280752872 44.1797180024224 36.02272900410798  14.21315543631987 44.32404699705801 36.43933404697888  13.71091960724892 44.21410036654085 36.20903152049513  13.31616121449784 44.60782373308169 35.78082204099027  13.81839704356879 44.71777036359885 36.01112456747401  13.68611697845778 44.06977137190525 35.79242647762423  14.32063287263974 44.827716994116 36.24142709395775  2.861155182814652 40.70811983514374 34.62866031997246  4.287593881168192 41.10396719126485 33.91664985844507  3.799395385489845 40.70028775236108 34.84288285553934  4.015335056410922 41.21432404356989 34.59225905980756  3.349353678492998 41.11179927404751 33.70242732287818  3.837552174171345 41.51547871295128 32.77619432578391  4.503533552089269 41.61800348247365 33.66602606271329  5.169514930007193 41.72052825199603 34.55585779964267  4.953575259086116 41.20649196078723 34.80648159537445  4.737635588165038 40.69245566957842 35.05710539110623  12.168014 48.341743 38.388283  12.69953235170643 47.93322655771603 38.25825137832317  12.64351667719643 48.45688529346948 37.85565200428213  12.74957001889419 48.44326551303972 38.34402741319699  13.33112603778838 48.54478802607944 38.29977182639398  13.17503502890287 48.0483688511855 37.72562038260529  13.28108837060062 48.03474907075574 38.21399579152015  13.22507269609062 48.55840780650919 37.81139641747912  13.11901935439287 48.57202758693895 37.32302100856425  13.23105070341287 47.52471011543204 38.12821975664633  2.262761736112284 43.44132178109231 32.39517783852278  2.936872540603343 43.7830950378092 33.23475769952005  1.903730712275888 43.64671693928085 33.22218028480816  2.121744193575247 44.50765118308992 32.8761328432883  1.980726651038211 45.57398058508754 33.35708784805384  2.795854998066306 44.84942443980682 33.71571270428558  1.762713169738852 44.71304634127847 33.70313528957369  1.544699688439493 43.8521120974694 34.04918273109355  2.577841516766947 43.98849019599775 34.06176014580544  3.610983345094402 44.1248682945261 34.07433756051733  15.894691 49.561592 35.039181  14.87432395877837 48.94904462182085 34.88767234579686  15.47959495877837 48.99312712182085 35.26371384579686  15.69703436261649 48.66416696250906 34.74109873393716  15.28942 49.5175095 34.6631395  14.684149 49.473427 34.287098  15.09176336261649 48.62008446250907 34.36505723393716  15.49937772523299 47.76674192501813 34.44301646787432  15.28193832139486 48.09570208432991 34.96563157973402  15.06449891755674 48.4246622436417 35.48824669159372  0.474396 43.89579 25.066069  1.510803685114466 43.90658010866193 25.37501297102734  1.610211066540251 43.50676364493602 24.52932068743308  0.9713240745125632 44.20975253951308 24.83260122343312  1.013875610601903 43.59261756914884 25.60848074759422  1.113282992027688 43.19280110542294 24.76278846399996  1.752169984055375 42.48981221084589 24.45950792799993  1.652762602629591 42.8896286745718 25.30520021159418  1.553355221203806 43.28944513829769 26.15089249518844  1.468252149025126 44.52371507902615 24.59913344686624  4.222383 41.531242 21.466209  3.054366917286854 41.4180466024512 20.74073164432355  3.645250208549601 42.05200150294313 20.7042754186781  3.7778982085496 42.15096200294313 21.3635139186781  3.187014917286854 41.5170071024512 21.39997014432355  4.089735 41.4322815 20.8069705  3.957087 41.333321 20.147732  3.333413417099201 42.77068200588626 21.2608188373562  2.742530125836455 42.13672710539433 21.29727506300166  2.151646834573709 41.5027722049024 21.33373128864711  2.775365 44.08395 20.582563  3.393116626688558 44.82594162968895 21.1253345475542  2.979673126688558 44.69994212968895 21.6760890475542  3.314277126688558 44.24341812968895 21.3198780475542  2.5196005 45.1229975 20.7442305  2.8542045 44.6664735 20.3880195  2.440761 44.540474 20.938774  2.106157 44.996998 21.294985  2.933044 45.248997 20.193476  3.853189253377116 44.40288625937789 22.05719309510839  7.400355 40.918358 27.838503  7.084882274967141 41.8660494
[...]
<PointData  Vectors="u"> 
<DataArray  type="Float64"  Name="u"  NumberOfComponents="3" format="ascii">1.2464193691752203e+02 -5.2557306137694965e+01 -1.3616162329422656e+02  1.3103932281708319e+02 -3.4720629259252270e+01 -6.6540645215836065e+01  1.5342848610765441e+02 -2.4510767607407438e+01 -9.5283730469280854e+01  1.2831118516118647e+02 -5.0521729357036357e+01 -1.0342206458591777e+02  1.1889223814421962e+02 -4.1244463990466798e+01 -8.4953487227241965e+01  1.4491056053093027e+02 -2.0500897872050281e+01 -8.4543247595445038e+01  1.5200761316456340e+02 -3.0717660059245212e+01 -1.2366892826041554e+02  1.7842606155246389e+02 -1.2940248550586743e+01 -1.1167457546236542e+02  1.2685262468804967e+02 -2.4322119206837190e+01 -4.9643774289768430e+01  1.3617117187623211e+02 -3.8136337276509792e+01 -8.3990976300385697e+01  1.2430273069585856e+02 6.6786006602713471e+01 -3.1030545921113504e+00  1.3971853557045631e+02 4.6604147028662318e+01 -1.7427712467600820e+01  1.2551617230061093e+02 3.9744044228640966e+01 -1.5886447541376937e+01  1.3860020899098285e+02 5.1724448408688673e+01 -1.4495777849394662e+01  1.2202648612434280e+02 4.9181323379414707e+01 -1.4629069207730229e+01  1.4363890972521628e+02 4.3370503848891602e+01 -2.4940995682093458e+01  1.3121941328331829e+02 3.8850747568120852e+01 -2.0146163245256204e+01  1.0415292003944418e+02 -6.5915962320540956e+01 -9.3898305875968859e+01  1.0151156143031172e+02 -7.3107451034738375e+01 -6.9795458721330618e+01  1.1789893209210267e+02 -5.6439627924553690e+01 -8.1914451225394089e+01  1.4483272259591652e+02 1.1641841880034162e+01 -3.8773051935597870e+01  1.4577433510828843e+02 -1.0050447031415732e+01 -5.8743637093480572e+01  1.4220345542664037e+02 -4.1716163173721679e+00 -4.9101215070800912e+01  1.3370214727045078e+02 -1.7215121447830253e+01 -4.7075224189526921e+01  1.6031247707807933e+02 2.1312044337555893e+01 -4.8556382039361885e+01  1.3819803656261863e+02 1.3263686919056868e+01 -3.3683702958016667e+01  1.7641353838284152e+02 3.1622794699834916e+01 -6.6101126568091985e+01  1.4801772639224697e+02 4.2227764654240083e+00 -6.4087659490719943e+01  1.4711372781849286e+02 2.5242040361280026e+01 -4.3248310966241021e+01  1.4251869150152069e+02 3.1318297340637937e+01 -2.4522759758623714e+01  1.4506579202963860e+02 2.6826242181129196e+01 -3.2661944233327652e+01  1.3426705799176514e+02 2.3160532150454610e+01 -2.6475972151641102e+01  1.3052524106885932e+02 4.8369245435756362e+01 -9.6374834502224953e+00  1.6227223062924114e+02 1.0149183320132906e+00 -6.8192071321019981e+01  1.7690722515297142e+02 7.7376943581936253e+00 -8.7588272663769800e+01  1.4179016805536250e+02 5.5012618481781729e+01 -1.6926006671615493e+01  1.3056577453243369e+02 4.2180800435568180e+01 -1.9006783363712387e+01  1.4158301607310887e+02 4.5472261747863556e+01 -2.0034259368267616e+01  1.3829440609982436e+02 3.8712925010520955e+01 -2.3256728264955832e+01  1.5509333042807370e+02 -4.6904082671193329e+01 -1.2753056737763833e+02  1.1809719135809527e+02 -6.2874282282456868e+01 -8.7880274938593175e+01  1.0097268810692744e+02 -8.8430087709485974e+01 -8.9629280664977543e+01  1.2277467974613616e+02 -7.4777606288462550e+01 -1.0286314894519698e+02  1.3753975588012594e+02 -4.7856261038807673e+01 -1.0410979356737072e+02  1.0994817820806567e+02 -7.2242492494692243e+01 -1.0697779482168254e+02  9.9254982996374707e+01 -7.6967307923135252e+01 -1.0144750882393690e+02  1.3616077211945648e+02 -9.8509362055543832e+00 -5.0639100846129530e+01  1.3577073681771225e+02 4.4811847959137729e+01 -7.4806773383263959e+01  1.5614035360380032e+02 4.5387857971343884e+01 -5.0059547526011293e+01  1.6033538613653840e+02 3.6070362906645371e+01 -7.0742003793216753e+01  1.3424611936188461e+02 5.2756543117225810e+01 -4.7986070458579718e+01  1.3332186457840609e+02 4.6454022463917077e+01 -3.3761258093190122e+01  1.4964348428739532e+02 1.5758811469842971e+01 -7.3977152247563495e+01  1.2500734265829682e+02 2.5546312528740678e+01 -6.7158700195592999e+01  1.1460184979863629e+02 2.8715335738798831e+00 -5.8623019096475744e+01  1.0814440454961905e+02 -3.7760659308238203e+01 -7.6445978480692744e+01  7.0980824579052623e+01 -6.9063923151346160e+01 -7.4362000468255530e+01  1.1355436770595448e+02 -5.8193879177781433e+01 -1.3977366740292229e+02  9.6939140655955697e+01 -4.7904195357203562e+01 -1.3674155438163294e+02  1.4760904701319160e+02 -3.7002550062351290e+01 -1.3672819374393399e+02  1.3737879405087688e+02 -4.3518390215520043e+01 -1.0882420546121460e+02  1.1438445071838233e+02 -6.8524170049534206e+01 -1.0581964067672236e+02  1.0248605397771107e+02 -7.4077362958987877e+01 -1.0651846903821989e+02  1.4297315405968044e+02 4.3179307703248156e+01 -2.8223956523747802e+01  1.5821371605017814e+02 3.9469128996065002e+01 -4.2416172371103606e+01  1.4508422707976331e+02 -1.0064720842832171e+01 -9.5672898005093828e+01  1.4666572571894906e+02 -2.7814281250641976e+01 -1.2842635674286481e+02  9.9848102719557929e+01 -2.5008208366607168e+01 -8.7605990132356226e+01  1.2088657327806852e+02 -1.1679015274548034e+01 -4.9487362696192676e+01  1.1974436426728947e+02 9.5977298127877084e+00 -1.5714212378617157e+02  1.0183598863453935e+02 1.1053255213466079e+01 -9.7234305033481661e+01  8.9000748928723695e+01 2.4485506420484189e+01 -8.6889634476651736e+01  1.2357214969020495e+02 4.0658339284780368e+01 -1.1054355795537948e+02  1.0667195904245428e+02 4.1520856168078645e+01 -6.4023435397769433e+01  7.6813458505970345e+01 4.2035168740743863e+01 -3.3816875039519687e+01  3.5023467535998442e+01 3.0605526860937280e+00 -9.1860817889116404e+01  7.3184408511604786e+01 -2.4235081670181064e+01 -1.6564666534526461e+02  9.2032036462955048e+01 -7.4011909489174119e+00 -9.9906273012554806e+01  1.0479096103167424e+02 -2.3058346517363737e+00 -1.7821701803150739e+02  1.3236608525465084e+02 2.2239674506599865e+01 -2.2658521980734413e+01  1.5869734053920405e+02 -2.6938910294592979e+01 -1.3724681127704739e+02  1.3774741811366215e+02 6.1574514960437625e+01 -1.7496782213829725e+01  1.2174322151733935e+02 6.0543814516848975e+01 -1.3131731760957777e+01  1.5665882557438192e+02 7.9247683746254538e+01 2.8526126065260780e+00  1.4063174585316548e+02 6.2861699725700525e+01 -4.4441395692630437e+00  1.5127901803366990e+02 5.5038580259397335e+01 -1.6662360220505992e+01  1.3972682294433750e+02 7.1652875768801849e+01 5.7485157376376188e+00  1.4595811251864433e+02 -4.9467509585421318e+01 -1.4406786163850924e+02  1.5183340499838386e+02 5.7305203684641668e+01 -1.8419452561599304e+01  1.4802301296906128e+02 4.8540978753395109e+01 -2.2967538573246987e+01  1.4673591067485390e+02 4.9918067279277345e+01 -1.5526814358687115e+01  1.4342584313856116e+02 5.2798022210962408e+01 -9.3670769381364050e+00  1.4148755321412500e+02 3.5943989738878180e+01 -2.2274143981566759e+01  1.4177555015453586e+02 4.5143564597013452e+01 -2.8722392525413149e+01  1.5379864338434894e+02 6.4918887774981641e+01 -1.5479572670948963e+01  2.9827789208535734e+02 9.3328452265328366e+01 3.7654107607332222e+01  2.3657262429272836e+02 4.6892850308752195e+01 2.0699695120300721e+01  2.3931474121605325e+02 5.4495069361387621e+01 6.5754672926731587e+01  2.6647309218994343e+02 7.4207986740279296e+01 1.6046828062910166e+01  2.3933337503385545e+02 5.6315850035851447e+01 5.4506317159487217e+01  2.5966284882589036e+02 7.8006979334705392e+01 3.0866874439408001e+01  3.2238719657272105e+02 1.1458133459444255e+02 6.9623383488072307e+01  2.7715965547506437e+02 9.0908515046574365e+01 1.0006913114148227e+02  2.1423675811615720e+02 3.4560261157191327e+01 2.0000566626454585e+01  2.4809026110815537e+02 5.8067261021930925e+01 1.4196342238149011e+01  1.7707175251022124e+02 -1.0350087895839108e+02 -6.4855763866979814e+01  2.6829282733909173e+02 -9.5008727054077141e+01 1.0813058255625021e+01  2.3968558037240140e+02 -9.1559863207888853e+01 -1.0399510673750633e+01  2.2173064322511877e+02 -6.9744283895385124e+01 -1.4209788960213995e+01  2.4642687739069163e+02 -1.9092826793986239e+02 -2.9032677483980791e+01  3.2429115339787717e+02 -1.0387176191968099e+02 2.1430129060824420e+01  2.5405498429573231e+02 -4.4365830163333598e+01 6.2560645747551167e+00  1.1454598028563149e+02 1.1565490786766046e+00 2.0606415000956562e+02  1.4606863450293585e+02 1.3162011540782240e+01 2.1331146130410085e+02  1.3184313944096226e+02 -2.9602968066837398e+01 2.3600796351126095e+02  1.0193647042284618e+02 -1.7316188242443214e+01 2.4128582279510573e+02  1.3737574964461754e+02 -3.1840181553068554e+01 2.4371513898963994e+02  1.5041013518001552e+02 5.0089154046638296e+00 2.1728795948872835e+02  1.7033568852098784e+02 -3.3194240435687448e+01 2.5225430285664788e+02  2.2039686787204627e+02 -4.7900621836094466e+01 2.2794367175670905e+02  1.6547532071908867e+02 7.0461098929068395e+00 2.1730025421931822e+02  1.5577708949330110e+02 2.6670555618764524e+01 2.1607721585006399e+02  -3.9130055589595230e+01 1.7912041394622764e+02 1.8156065845640057e+02  2.0050331614792711e+01 1.5492717735995626e+02 2.1439828926483531e+02  -1.0084826396505393e+01 1.8401762762694986e+02 2.0697366239803958e+02  3.7147825751156162e+01 1.6707666356181352e+02 1.9078138499495509e+02  1.0613963873252820e+02 1.6592500297982559e+02 1.7952130905516100e+02  7.1032451005368358e+01 1.7748613223980860e+02 2.0588107051647634e+02  2.5448694633433185e+01 1.8850520447083468e+02 2.2930913779237983e+02  2.2544868434117598e+02 5.3519962787699342e+01 4.8505816306889500e+01  2.1619366053113484e+02 5.1476953144284508e+01 8.0852443752208728e+01  2.3685976979583563e+02 8.6294634503117962e+01 4.3596826613056606e+01  2.2950716498975521e+02 7.0089932773893949e+01 5.8574525398718293e+01  2.1225335075554059e+02 5.9211945895853930e+01 6.0751782451254080e+01  2.3949306169536544e+02 6.4617418362554190e+01 3.4371410774831681e+01  1.9082027210206121e+02 3.9353343914234650e+01 6.1900208282550409e+01  2.2867339478384918e+02 -2.1125129574312609e+01 -6.1368262748790933e+01  2.6277918894112395e+02 -4.2515495239808899e+01 -4.6408876005130104e+01  2.5623641991491411e+02 -3.3748435350369775e+01 -7.2263932302353268e+01  2.5593594012009024e+02 -3.8579145071643964e+01 -6.4742227301151985e+01  2.3722959360971009e+02 -3.1897873083882128e+01 -5.0119623374065377e+01  2.3542603048483014e+02 -4.2605083289032905e+01 -3.1760614957199859e+01  2.6111014676356371e+02 -4.4022781129524901e+01 -3.9921161214167299e+01  2.9037432354408566e+02 -5.6651357238027984e+01 -5.6329877903250406e+01  2.9742238527875071e+02 -5.6971452706486801e+01 -6.7706101146947518e+01  3.0112011104995810e+02 -5.2805582126861637e+01 -7.8380038876174979e+01  1.9770267676795878e+01 1.4893019418546523e+01 4.5011970758969511e+01  4.1753562283827186e+01 1.7506103771303966e+01 5.7833038412447195e+01  3.3983033123532266e+01 1.7001981776195286e+01 6.1511243332845552e+01  3.8310398497800200e+01 1.1056781822788901e+01 5.0813341353979460e+01  4.8597410093811789e+01 6.7822762528863407e+00 4.8580508659276298e+01  5.7202190640911724e+01 1.7579985532181780e+01 6.3000997321881123e+01  5.3317932986088394e+01 1.0769445721183489e+01 5.5513588123804929e+01  5.2105264555965988e+01 1.2056201823429635e+01 5.6220097561215965e+01  5.5105590153452205e+01 1.7358623295326645e+01 6.6973156901240856e+01  5.9566499614706743e+01 1.6698928471010380e+01 6.2627851814844881e+01  2.1402757340838744e+02 -4.4768552086181906e+01 -2.3685100848501946e+01  2.2131780635531237e+02 -3.9428120886698245e+01 -3.3508394237661825e+01  2.1085862803347484e+02 -3.8835874874831802e+01 -3.2060423276186420e+01  2.1259605733360183e+02 -3.6004028273904318e+01 -2.5052073889492121e+01  2.0856596771521950e+02 -2.9350332487992439e+01 -3.2699958705572058e+01  2.1538382442611569e+02 -3.5642153865620656e+01 -4.0894272159022776e+01  2.0662042236660417e+02 -3.4956666170841586e+01 -3.3757346692028200e+01  2.0374097561705290e+02 -3.5641566891642015e+01 -3.5430472540355446e+01  2.1179371052149031e+02 -3.7660369077112932e+01 -4.3540622313726608e+01  2.2745938301489815e+02 -4.0233292409683237e+01 -5.2402177652692366e+01  2.0796820944860369e+02 1.6111995384768742e+00 -1.9876304959555640e+01  1.8765895535787396e+02 9.6597799110068845e+00 3.4400871442502577e+01  1.8244930013710885e+02 8.6177428053335863e+00 1.1859777435488403e+00  2.1000897396219889e+02 1.4558570517064176e+01 -1.0785140053670593e-01  2.0730751870732865e+02 5.7275009234739480e+00 1.6131343622520159e+01  2.2165985376530753e+02 5.7950309681253320e-01 5.3806922424968704e+01  2.1355122940201886e+02 1.0445593739053054e+01 2.9794246825064103e+01  2.0864867715165093e+02 1.5595193315161486e+01 1.1172918578048048e+01  1.8815836827350984e+02 1.4444757663900930e+01 1.4950390305067373e+01  1.6310291865665124e+02 1.2802342274627527e+01 1.9869069063563977e+01  2.0072507483335283e+02 5.5474027943118607e+01 9.4329679236950938e+01  2.0185001159308777e+02 4.7471916108518961e+01 1.0160321531751163e+02  1.9423783033874233e+02 6.8328101263118185e+01 1.0050384427071278e+02  1.9847722540361940e+02 5.5608583493857566e+01 8.5632295882332670e+01  2.0304814728614227e+02 4.8959022535140200e+01 1.0583021488051496e+02  1.9887723500130465e+02 6.5836994292772729e+01 1.0504324714979380e+02  1.9214503867275738e+02 7.4538335779982958e+01 1.2623757704533345e+02  2.0299136727971020e+02 5.7479561299115353e+01 1.2054746408546654e+02  2.1211422693678841e+02 4.3114044051705037e+01 1.2138171384027029e+02  1.9437194205986523e+02 5.5167540517701511e+01 7.7604035530937836e+01  1.3191503437234903e+02 2.3875178264552162e+02 2.0205808141619477e+02  1.1048663107637898e+02 2.5436291567688539e+02 1.7556952035663340e+02  1.2183147663058477e+02 2.6784226326698604e+02 1.2864661513297128e+02  1.3409117235366818e+02 2.2223724903670180e+02 1.4533011696175976e+02  1.2384835072503100e+02 2.1721243657271697e+02 1.7290573324376638e+02  1.1651751587901249e+02 2.9296813718052641e+02 1.8329345878321493e+02  9.4637471983114992e+01 3.5749509016511291e+02 1.9664028215273100e+02  1.3222499362495370e+02 2.0783803436406714e+02 9.6513658884889850e+01  1.2829692196762494e+02 2.1529866976790856e+02 1.2822479563070308e+02  1.2800363502335912e+02 2.1158775883549038e+02 1.4900098795149003e+02  9.2531047654465695e+01 2.1698172678218637e+02 -2.0240870352711955e+01  8.1656686205247297e+01 1.0555026205334150e+02 8.9687404131305630e+00  1.0543666296504517e+02 1.1188264053107979e+02 1.8436539213156060e+01  1.0457398163835877e+02 1.4035493964492693e+02 2.9204068063371832e+01  2.3631646540546772e+01 1.0009277670058262e+02 -6.0819374524543775e+01  2.8324823488151079e+01 1.3468940408935848e+02 -6.0522661008422375e+01  7.5796462576282309e+01 1.7430318862549134e+02 -4.9572026875394215e+01  6.6988145639576544e+01 1.3309096434918243e+02 -4.8463823327614378e+01  1.2657971215377895e+01 7.3524656149999544e+01 -4.4233941620007130e+01  1.3624770453810962e+02 1.0579364513693893e+02 7.1313021355266955e+01  3.3681490338648541e+02 2.1378497229205226e+02 2.5192961071972778e+02  3.7908471344500015e+02 1.0649898269692980e+02 1.4739303178757734e+02  3.2749451313019404e+02 1.2522224578501161e+02 1.8309546622160136e+02  3.9264835574847348e+02 1.2867779523462332e+02 1.4234108494424754e+02  4.5313394404377772e+02 1.8817039301830442e+02 1.8539376460800366e+02  5.1959937566670317e+02 1.0712731736252424e+02 7.1307391119938458e+01  4.2241331479852403e+02 8.4700359445623150e+01 8.6777205810808795e+01  3.7274029991358822e+02 4.8754274766965978e+01 7.8744533783812841e+01  3.4751734734782815e+02 7.2109037887626997e+01 1.1989558861823690e+02  2.9580001268762578e+02 7.5549524584545381e+01 1.5554242573959559e+02  2.6692538797023434e+02 1.2827785877838261e+02 -7.6276629190315901e+01  2.3788743991152663e+02 4.1195524429734839e+01 -6.3011152586690969e+01  2.4784315572597410e+02 7.2545003462266891e+01 -1.0124092354234820e+02  2.5252657296436101e+02 7.1947181939136215e+01 -4.1685761708880868e+01  2.1868099618464490e+02 5.4002540314460305e+01 -3.9602763601525218e+01  2.5301671066471320e+02 5.4134110051035897e+01 -3.1403629081584594e+01  2.5174128410704580e+02 4.5252882666980454e+01 -6.0948465396058836e+01  2.2928168447770284e+02 4.5566244030783295e+01 -2.5715417843169671e+01  1.7780252545322028e+02 2.7685242497853469e+01 -4.7995223789873009e+01  2.5521468394302286e+02 3.6710087128592164e+01 -8.5396052319611158e+01  1.2629078087832573e+02 -1.4471042672621653e+02 4.5253179938419812e+01  1.5991337983930725e+02 -8.8751423304862556e+01 3.5944254442965004e+01  2.0213283089889256e+02 -9.5663609301034640e+01 4.0705075015533140e+01  1.6445822892287006e+02 -7.4002595590393469e+01 2.2845782336235616e+00  1.9757413446183728e+02 -2.7873904222831918e+01 -2.5198000328834674e+01  1.9859239570935770e+02 -3.9190072963540281e+01 -1.9695405250468854e+00  2.1840001748157459e+02 -5.3082402063655529e+01 5.2239172959122682e+00  2.4714862142235114e+02 -6.2692315286913612e+01 3.0065847716798828e+01  2.1728827945936604e+02 -6.0135611285504169e+01 3.1424714033415391e+01  1.9614297940614591e+02 -4.8428343647608337e+01 2.9720549499819636e+01  2.6539821716393283e+02 -2.0316740980442578e+00 -9.9158446674986720e+01  2.2225079070523645e+02 1.2857330857634597e+01 -4.4641752204766135e+01  1.9912470415683609e+02 1.6313561799661744e+00 -6.8776653335924337e+01  2.2121209714433894e+02 1.0409611424757593e+01 -9.3462013732712208e+01  2.0012989752635332e+02 2.9994325811144968e+01 -1.7509855156191851e+00  1.4829098056490949e+02 1.5873681243543714e+01 -1.3416364282942979e+01  1.1908032270623545e+02 8.0541325278936482e-01 8.5948557444457574e+00  1.7526952598394701e+02 1.7517267550568061e+01 2.1984578200476086e+01  5.7259859756655636e+01 2.1795772397519528e+01 2.9773230945789993e+02  1.3988074450198903e+02 6.0782394334869373e+01 2.6465789506748553e+02  1.5545216021446922e+02 6.5874711643091374e+01 2.2265450472526416e+02  1.3844383528862875e+02 1.0510149899051948e+01 2.1996767169668547e+02  1.7582204474835672e+02 3.3164961480363694e+01 1.7687047933500938e+02  1.5257417324344965e+02 9.4237027601510761e+01 2.1257711266451764e+02  1.5470932596930353e+02 5.3981075558844694e+01 2.1266926766163078e+02  1.7001384461089316e+02 6.9092444805943828e+01 1.7998733026492818e+02  1.6570505503440100e+02 1.1413009004544502e+02 1.6788536779282856e+02  1.4555240465031875e+02 7.2542101464632140e+01 2.4882730802499887e+02  1.5039001945727735e+01 -1.4169170206160679e+01 -4.8716541978660430e+01  3.7552926320535676e+01 -1.7265513442645592e+01 -4.5509016274859157e+01  3.1877210829140790e+01 -2.1724877282811558e+01 -4.5632030848791615e+01  2.8377226579984107e+01 -1.5093422408464743e+01 -4.6930036398150939e+01  2.4713533612502946e+01 -1.6333180040530138e+01 -4.5722626199295931e+01  2.4753044735324075e+01 -1.0041291872466061e+01 -4.7527737568064261e+01  3.7368409492706256e+01 -1.4267141131480999e+01 -4.1773650108058746e+01  2.8740873946313176e+01 -5.1877689702536864e+00 -4.3433594108763003e+01  2.6769732025587189e+01 -1.1414383650441392e+01 -4.2882801618745091e+01  5.3241555168023496e+01 -1.9318061747671443e+01 -4.2622585146573520e+01  2.5050533440511026e+02 8.9771065153356673e+01 1.6223716565576814e+02  1.9562242827196206e+02 8.1247064072232462e+01 1.3160781795828689e+02  2.2168745939664751e+02 6.4934563754622630e+01 1.4254954842665148e+02  2.0443430866283447e+02 9.9740277008297440e+01 1.6669388013755008e+02  2.1111249280588990e+02 1.0128864328381064e+02 1.5191369677634032e+02  1.7806387354928759e+02 8.9727764632065131e+01 1.7602639226800389e+02  1.9788819550016152e+02 7.2383684149957460e+01 1.4870304249182792e+02  1.7913446433405940e+02 1.1200099013264692e+02 1.5831452286076870e+02  1.8314353202308794e+02 1.1719045863866167e+02 1.3776883102725401e+02  2.0943133849945050e+02 4.8729954154423247e+01 1.2532970463164457e+02  1.7354715914083300e+02 -1.3973857559081363e+01 -5.1196558279731960e+01  1.9266525584401245e+02 5.6259807220627334e+00 -2.6856930436713871e+01  1.9474555379525881e+02 1.2786411324989485e+01 -2.1148968792666921e+01  1.8668815399918790e+02 6.7824528637090804e+00 -4.0973544753170223e+01  1.9576593755384582e+02 3.3287673607779826e+00 -1.3958894065468968e+01  1.8706319332930440e+02 -1.0788786170845729e+01 -2.3905097489494075e+01  1.7862323818475025e+02 -2.157933121047636