<?xml version="1.0"?>
<VTKFile type="UnstructuredGrid"  version="0.1"  >
<UnstructuredGrid>
<Piece  NumberOfPoints="10644" NumberOfCells="49547">
<Points>
<DataArray  type="Float64"  NumberOfComponents="3"  format="ascii">31.7616 38.832863 35.674362  32.40622180114524 39.65801246127718 35.9182534192236  31.9949971650354 39.44684416662025 36.596016200826  31.5378071650354 39.41525866662025 36.227062200826  31.94903180114524 39.62642696127718 35.5492994192236  32.21879 38.8644485 36.043316  32.67598 38.896034 36.41227  31.3140143300708 39.99765433324049 36.779762401652  31.72523896618064 40.20882262789743 36.1019996200496  32.13646360229048 40.41999092255436 35.42423683844719  30.653421 40.792316 35.105  31.39494230114524 40.60615346127718 35.26461841922359  31.2068785 41.1614205 34.813208  31.038456 41.221796 35.3409655  31.423491 41.651276 35.576931  31.94839980114524 40.97525796127718 34.97282641922359  31.77997730114524 41.03563346127719 35.5005839192236  31.5919135 41.5909005 35.0491735  31.760336 41.530525 34.521416  31.80581980114524 39.72024946127718 35.0838379192236  31.38605730114524 40.02567496127718 35.18852641922359  31.618388 38.9266855 35.2089005  31.1986255 39.232111 35.313589  30.635651 39.631359 34.952816  31.0554135 39.3259335 34.8481275  31.475176 39.020508 34.743439  32.52866180114524 39.47411546127718 35.3332234192236  32.28439719052693 39.2522536854467 34.89577186687843  32.34123 38.6805515 35.458286  32.92086 38.52824 35.24221  32.86402719052693 39.0999421854467 34.67969586687843  32.80719438105386 39.6716443708934 34.11718173375687  32.47182899167217 40.04581764672388 34.77070928610203  31.61585930114524 40.29090346127718 34.7596019192236  31.95122469052693 39.9167301854467 34.10607436687843  32.14118519052693 39.34607618544671 34.43031036687843  32.6711809034758 41.41436631413368 34.4611418065667  32.3653365 42.045437 34.4444485  32.1408055 41.767048 34.9980965  32.521275 42.003571 35.474777  31.2852155 39.591162 34.419203  30.865453 39.8965875 34.5238915  31.095255 40.161816 34.094967  32.18086296771351 40.66491754453332 34.41633335828305  30.9748326650354 39.81450666662025 35.866289200826  31.4277955 40.8461705 34.3081915  30.874338 40.477066 34.59998349999999  30.644536 40.2118375 35.028908  32.85924470462104 40.85909927541086 34.91255222579029  33.5820258069516 41.29820762826736 34.4008676131334  33.19461009400273 40.48492599958038 34.25902467344513  31.3687526650354 40.82446516662024 36.178346700826  30.9837176650354 40.39498516662024 35.942381200826  32.32886930114525 41.21178096127719 35.44950691922359  31.972383 41.8274235 35.525854  32.198018 38.77437399999999 34.9928245  38.32986797395955 25.45502081921833 37.28331652592816  37.87002954847925 25.37359292711161 36.55443596369031  38.56491660223186 26.03475612457495 36.27939893584533  38.38546591251514 25.27741778828388 35.88119837279204  37.41019112299895 25.29216503500488 35.82555540145245  31.674879 42.124878 36.582928  31.90567130114524 41.27243446127719 36.0035824192236  32.098077 42.0642245 36.0288525  31.549185 41.888077 36.07992950000001  32.08583710947617 41.55182219875238 37.33497536062687  32.50412606912001 41.38653102717691 36.84586797299114  32.0084695 42.152479 37.043444  32.34206 42.18008 37.50396  32.41942760947616 41.57942319875237 37.79549136062687  32.83771656912001 41.4141320271769 37.30638397299114  32.49679521895233 40.97876639750475 38.08702272125374  31.4944466650354 41.06126616662024 36.681345200826  38.150841 23.940868 36.601273  37.78051606149948 24.61651651750244 36.21341420072622  38.24035448697978 24.69794440960916 36.94229476296408  31.48593293481806 40.78300384858439 38.89715178020467  32.26340881682844 39.57405820565739 39.48372836050085  31.49068915066866 40.09945865722106 39.47705679805233  31.47173324511182 40.08404175517692 38.60052607999084  32.25865260097784 40.25760339702072 38.90382334265318  33.03137226713763 39.73220294545705 38.91049490510169  32.24445291127161 39.55864130361325 38.60719764243935  31.45753355540558 39.38507966176945 38.30390037977701  31.47648946096242 39.4004965638136 39.18043109783851  31.49544536651926 39.41591346585775 40.0569618159  37.52763 23.366034 35.375599  37.14528781987255 24.52664141624935 34.88287879862128  37.46891056149948 24.32909951750244 35.60057720072622  37.9004699073964 23.99133172151472 35.1558120291029  36.77244791247615 23.90134369473464 35.10266576951838  36.01726582495229 24.43665338946928 34.82973253903676  36.71372847397562 24.86440921223708 35.32764397024461  38.2733098147928 24.61662944302943 34.93602505820581  37.84175046889588 24.95439723901716 35.38079022982913  32.06101817607021 38.80930981768283 38.95206460475895  32.84793753193622 38.98287145952663 39.25536186742129  32.66450279673482 38.23353997359622 39.60022882974089  32.07997408162704 38.82472671972698 39.82859532282045  38.3342776402701 26.88990562640137 36.83620554914097  37.8429956586945 26.26877898540318 36.94443318575797  33.578159 38.33857 38.14674  33.47531192208573 38.49329983316298 39.42817644097049  33.12133089836741 38.28605498679811 38.87348441487045  33.30476563356881 39.03538647272852 38.52861745255085  32.76408374304498 40.35548467148089 38.49875881317772  33.18237270268882 40.19019349990543 38.00965142554199  32.72468910947616 39.94682619875238 37.70370186062686  32.774529 39.403599 40.750114  32.13498718325962 39.40975623292887 40.40353790795  32.71951589836741 38.81856948679811 40.17517141487045  32.90295063356881 39.56790097272852 39.83030445255085  32.521172 41.519497 39.550564  33.05039210947616 41.00858469875237 38.84508236062687  32.50898360947616 41.24913169875238 38.81879336062687  32.77627213356881 40.62584997272852 39.23052945255084  33.0625805 41.27895 39.576853  33.603989 41.038403 39.603142  33.31768063356881 40.38530297272852 39.25681845255085  32.67686680114524 41.25699446127718 35.9381184192236  32.4460745 42.109438 36.517464  32.723801 40.560837 40.160431  32.87758663356881 40.14651997272853 39.53546295255084  32.10486696740903 40.6719204242922 39.52879139010233  32.6224865 41.040167 39.8554975  32.00355246740903 41.15125042429219 39.22385789010234  32.358952 38.347813 37.431236  31.8364831650354 39.17273366662025 37.105499200826  32.517466 38.6219235 36.921753  32.6557675 38.6313495 37.3758085  32.952583 38.914886 37.320381  32.1332986650354 39.45627016662024 37.050071700826  32.8142815 38.90546000000001 36.8663255  32.32369373415541 40.32291919379715 36.94428517381714  31.90540477451157 40.48821036537262 37.43339256145287  33.163895 40.79962 39.8817865  37.293022 24.183826 37.476467  37.81144498697978 24.81942340960916 37.37989176296408  37.815094 24.139036 37.61261349999999  37.7219315 24.062347 37.03887  38.2120754073964 24.27874872151472 35.7686490291029  37.8392355 23.653451 35.988436  37.601173 26.344437 38.083817  37.96552048697978 25.89972890960916 37.68356676296408  32.10962318325963 39.98837523292887 40.10869640795001  32.749165 39.982218 40.45527250000001  33.323505 41.819283 46.474327  33.77914258805343 42.07451823778053 47.9153771095465  33.47724415999325 42.38570297188188 47.43035855587222  33.076646593373 41.84198737321586 47.31888268827751  32.829788186746 41.86469174643172 48.16343837655503  33.7870195 41.513081 46.9776095  34.250534 41.206879 47.480892  33.540161093373 41.53578537321586 47.82216518827751  32.51172739836741 38.29067648679811 38.51573241487044  32.69516213356881 39.04000797272852 38.17086545255084  32.9685555 38.3431915 37.788988  33.859249 37.211296 39.068047  33.26187589836741 37.72241798679811 39.33413791487045  33.718704 37.774933 38.6073935  31.99136407688519 40.88088512304456 38.4920872507292  33.45289088331468 40.42521431922545 38.61539301232216  36.67589200060533 24.18507802462121 34.14204801112397  36.7232098352042 25.17008370688142 34.20623688325412  37.33451817625838 23.93350265977314 33.45436348321117  33.811722 39.119183 40.469593  33.23811239836741 38.67636148679811 40.03491091487045  33.42154713356882 39.42569297272853 39.69004395255084  37.43107408812919 23.64976832988657 34.41498124160559  33.3714775 39.777239 40.47296900000001  33.49989913356882 39.94154097272853 39.55315945255084  33.3461135 40.355858 40.1781275  33.968426 40.150879 40.195824  32.9426595 41.601517 39.2187595  33.364147 41.683537 38.886955  32.93047110947617 41.33115169875238 38.48698886062687  33.18560235922203 41.0484960452493 38.20365692039818  36.90524755526337 26.19489394229951 37.08319442490651  37.39211987052842 25.38113577611465 37.42207776507669  37.02777238354865 25.82584386650549 37.82232800211261  36.45437176709729 25.30725073301098 37.56083900422523  34.0464745 37.774698 39.7581885  33.44910139836741 38.2858199867981 40.02427941487045  33.2931255 39.261391 40.6098535  33.890074 39.635031 40.3327085  32.20505827770279 39.14998283088472 37.8121406898885  31.90824277770279 38.86644633088473 37.8675681898885  32.99197763356881 39.32354447272853 38.11543795255084  33.3220805 41.829121 38.365984  33.280014 41.974705 37.845013  32.88840460947617 41.47673569875238 37.96601786062687  36.93228144504812 25.29970788400793 36.69319720283884  32.811037 42.0773925 37.6744865  33.30669356912001 41.31144452717691 37.47691047299114  31.38577394273819 39.69136699750497 37.54183139071451  31.97716438717896 40.1819230296371 38.19546155051538  34.076031 42.865578 48.703697  33.452909593373 42.36513487321587 48.43356768827751  34.1632825 42.0362285 48.09229449999999  37.01755288354865 25.08597436650549 37.93133850211261  36.87369688354865 24.74553836650549 37.51865300211261  37.436878 24.524262 37.88915249999999  37.580734 24.864698 38.301838  37.95530098697978 25.15985940960916 37.79257726296408  34.0816665567754 40.52088811879524 39.18731702006123  37.5909535 25.6045675 38.1928275  37.35160656149948 24.73799551750244 36.65101120072622  37.95895 24.479472 38.025299  33.265371 38.626728 37.7335605  19.835606 47.968571 34.181835  18.99949261876423 48.96190167857169 33.90894200231892  19.7956115 48.7259655 34.0472315  19.5342915 48.776224
[...]
<PointData  Vectors="u"> 
<DataArray  type="Float64"  Name="u"  NumberOfComponents="3" format="ascii">5.1819496145351786e+02 8.6926089244596781e+01 -3.4895614205219255e+02  4.0718778540705910e+02 -1.2970145446414145e+01 -1.9315312814435455e+02  4.2047267132684129e+02 9.0468891053010466e+01 -1.4599367625239742e+02  4.4165605399491608e+02 6.9281027286986003e+01 -1.8332291302935570e+02  4.2027462642587403e+02 -3.1564799634063895e+01 -2.6583686830499101e+02  5.5070749219906043e+02 5.3264358545870230e+01 -3.6812975587163015e+02  4.9280854307662156e+02 5.0192479599689172e+01 -2.3955271502830283e+02  4.2295871194164079e+02 -8.2338048992330659e+00 -1.0353504344956134e+02  4.3394286930265594e+02 -6.0241370064118449e+00 -1.9097643146274572e+02  3.7361034904408888e+02 -9.6396769059509619e+00 -2.2071112807096972e+02  7.3988599701274109e+02 -7.7258875612368215e+01 -3.9673360475393599e+02  4.2066926948644078e+02 8.9418846932706977e+00 -3.3386163062526890e+02  3.5410681951391638e+02 1.2382164401201415e+02 -4.3343247534309165e+02  6.2912441132886090e+02 -9.1750222252670632e-01 -4.3407218219961857e+02  5.1986652661845426e+02 7.6282863815434321e-01 -3.6709212530231184e+02  3.0520047084499566e+02 2.4383027731183084e+01 -2.5108231460195864e+02  4.1803856513976365e+02 1.1706522874405799e+01 -2.7143342572507134e+02  3.1943834354045055e+02 7.9185969618438250e+01 -3.6364421541027508e+02  1.7424265983094148e+02 1.0258480602141096e+02 -2.5308180125275362e+02  3.7323597549059883e+02 -5.2414039838621150e+01 -2.9733139173086562e+02  4.1137957736681938e+02 -6.5762359437754769e-01 -3.2776477416675948e+02  5.7514233613036276e+02 8.3143122391823105e+00 -4.4176754520508996e+02  4.8607250133430193e+02 5.0258248855423211e+01 -3.5186158805871162e+02  6.6452397162951172e+02 1.9439427636907972e+01 -4.1841388538993681e+02  5.6726999915949000e+02 4.6202089772171078e+01 -4.5837805170489560e+02  3.6980213132788117e+02 -1.6910307654705053e+02 -5.0236578331750746e+02  3.4507294457978435e+02 -8.2692710173580338e+01 -2.1668661992300525e+02  3.1415830695312457e+02 -1.2759007454900271e+02 -2.7770878173204824e+02  4.4678297637063736e+02 -1.6625931010222263e+02 -3.2015932853212058e+02  2.9585795251026917e+02 -2.0173144483019794e+02 -2.2445021683735891e+02  2.4061449820700176e+02 -1.4107397134494457e+02 -1.6795343890710976e+02  1.9451633310854501e+02 -1.0590669364379413e+02 -1.2738485050524098e+02  2.7494494179555812e+02 -5.5385578263460211e+01 -1.9180477274002740e+02  3.3769311957201796e+02 -1.9250023057440593e+01 -3.1953904160715445e+02  1.7202839003090270e+02 -9.9659016732024412e+01 -2.3378802327759314e+02  2.2382535280791234e+02 -1.4439590767659936e+02 -2.4194241117230672e+02  1.9633129050004413e+02 2.7758748208019114e+01 -8.7455290380152391e+01  9.9167437942306535e+01 1.2160147511657810e+02 -3.2837309621374921e+01  2.8504610636108521e+02 1.3250275848455783e+02 -2.5096314396902392e+02  3.3728065315191515e+02 9.6872213691351490e+01 -2.2769232886833524e+02  3.0185891334427100e+02 -1.3706812088825083e+02 -5.1964381379037241e+02  3.6532825421291864e+02 1.1756161351308866e+02 -5.1712276986227516e+02  1.2500253483648525e+02 -3.4719892427674871e+01 -4.1655999294514174e+02  2.2602234288482930e+02 -2.3395075822194922e+01 -1.8476868652944620e+02  4.9130447573130277e+02 1.1377159681594511e+00 -1.9098217110842754e+02  1.0660468434802009e+02 7.1356552809073719e+01 -3.5276573059635052e+02  2.9211452347988899e+02 -4.1828150124847149e+01 -5.9730441947580096e+02  7.2492232935544746e+02 -2.6246335800239923e+01 -4.9830874478534054e+02  2.7013971222330485e+02 -1.4235349391225020e+01 -1.1779759423510487e+02  2.0837610878012438e+02 -1.9379208364548294e+01 -2.1976716958954462e+01  2.1003993878417867e+02 -5.3071683474936265e+01 -8.0799177122653035e+01  4.8307665678353584e+02 -5.7587447401376870e+01 -1.6817376735394313e+02  5.1606315167680782e+02 -3.9291996529412920e+01 -1.8496365076305418e+02  3.4878187142322872e+02 1.4617262034574356e+01 -2.0169383630574325e+02  3.9814345364553895e+02 4.4864510110064444e+01 -3.0308955315137274e+02  3.0774303699025171e+02 -2.8435049775920089e+02 -3.5406638815770600e+02  4.1480949560111065e+02 5.1910541115062676e+00 1.0269295895420402e+02  3.8041975398694638e+02 3.1250048334189000e+01 4.1903973974830684e+01  3.1931816324810637e+02 1.5218213368340219e+01 7.7984127741609242e+01  3.1509121473871710e+02 2.6499764636561128e+01 5.3749047622632411e+01  3.4226426418646156e+02 5.8714870871883363e+01 -6.0155539514071457e+00  5.7272796907461429e+02 -1.4930859734450914e+02 -2.5526821962356482e+02  4.4775665011498523e+02 -9.0425875861905092e-01 -2.2290695092813851e+02  4.2944860794512550e+02 1.4106581780585048e+01 -2.8589532085281138e+02  5.8389510828831965e+02 -3.1246062995873103e+01 -3.0447278891970791e+02  4.7945167931887050e+02 -1.1025501260599270e+02 -1.2953936376069456e+02  4.5405851995350042e+02 -3.4784835516555738e+01 -1.3931645124691332e+02  5.8969835416230728e+02 -1.5362066739198281e+02 -2.2243146153618619e+02  5.5617172373070719e+02 -1.7629687782290026e+02 -1.7850408062582477e+02  4.9495202939943067e+02 -1.0290572283941408e+02 -1.0921283502710713e+02  4.7291559456311415e+02 -4.5690553628662521e+01 -1.1227968899575417e+02  4.5517217679756271e+02 -6.8112982434826804e+01 -7.7823234968253161e+01  4.6644141915879010e+02 -7.5895652240393702e+01 -1.4147819133450022e+02  4.2325290024506847e+02 4.5287406129436924e+01 1.2160523029188835e+02  3.8055097295219355e+02 4.8905656558996597e+01 3.7356080339285874e+01  4.1365405317792676e+02 1.7472619266852376e+00 1.1231122435297374e+02  3.6768682844325508e+02 -1.0921643782918687e+02 -5.1228057149851310e+01  3.7667214181777388e+02 -2.8206641847094822e+01 -4.4968795555726444e+01  3.2829819499131304e+02 -8.2573815077890629e+01 -4.4312677676783430e+01  3.5674998190002361e+02 -5.6125316036774727e+01 -3.0717017243085863e+01  4.0780063074597268e+02 -5.1613111482370009e+01 -5.3346525828851775e+01  4.4172357276120135e+02 6.4069360979062235e+00 -4.2635512845207607e+01  3.8935660033780749e+02 1.0890445371340003e+00 -3.3355281267215283e+01  3.4377768325860438e+02 1.0322464979387449e+00 -7.6925691288669888e+00  3.1866118957547280e+02 -3.7018575153920601e+01 -1.2475350085125282e+01  2.9279702795644954e+02 -6.6268860295285904e+01 -4.3523872071581408e+01  4.3500837180867700e+02 8.6066687507370432e+01 -7.3764826129885478e+01  3.4548978982843437e+02 7.6489432013451164e+01 -6.6044717414325817e+01  3.7245974458205012e+02 7.0685729083987994e+01 -1.7596774900931479e+01  3.4199113033237751e+02 3.7898091845721851e+01 -3.7474723325994169e+01  4.0175655664291185e+02 1.1479814459412718e+02 -8.5495628269450933e+01  3.7532885724421652e+02 1.3941619499539249e+02 -9.7323367546397932e+01  3.5100533264534317e+02 9.4507200780289352e+01 -5.6272015799331392e+01  2.8776507825765026e+02 1.7982158942954410e+01 -9.4894477049418651e+00  3.1633836802858752e+02 4.1978357787471083e+01 -3.0644590320932146e+00  3.4614175872640885e+02 2.1868341945591446e+01 2.0435958918312780e+00  4.0577743306131077e+02 2.3838857387386277e+01 -3.2420373714209958e+01  3.6119099226711813e+02 2.8195251866381231e+01 -8.8913458987279874e+00  3.2625690034483927e+02 -1.9403199002572133e+01 -3.0368100611738498e+01  3.5369463939989708e+02 2.1365101692777671e+01 7.4830327993670522e+01  3.8699355729067111e+02 2.5513141455618040e+01 3.7133365117401695e+01  5.1777461771458593e+02 1.2346848083265577e+02 -2.4268151511738171e+01  4.3056625859412452e+02 5.0143353456415717e+01 -1.9039523706964310e+01  4.1670619114405588e+02 8.2040772635651976e+01 1.9809163321686832e+01  4.4700198089837681e+02 5.9725270933858084e+01 -2.5849373697017604e+01  4.4300611219893887e+02 -2.5254280964434564e+01 -5.2407315404773769e+01  4.3915694326624902e+02 -3.5454916218353496e+00 -5.4273741262269048e+01  4.2839712850024495e+02 1.2234938437172731e+01 -7.0484933621760263e+01  3.9327178500539583e+02 -2.6712416297648854e+01 -1.3467122172594782e+02  3.3683373447072029e+02 -5.2549493946927967e+01 -7.8955130813081553e+01  3.7252321228350843e+02 -3.2662481221447708e+00 -7.0788035728219398e+01  4.2382742630129883e+02 -6.2703025130808321e+00 -6.7342493704717285e+01  4.9703782650124634e+02 -1.5668662961738508e+02 -1.0507171320701721e+02  4.9939658148717763e+02 -6.0549827800973212e+01 -6.8033698979306010e+01  4.7429846413092071e+02 -1.0256771802504382e+02 -7.7945889711069171e+01  4.6468814154625619e+02 -5.9117768408657064e+01 -6.4008592560020460e+01  5.1702102277298627e+02 -1.2081633795443486e+02 -8.7514234455668102e+01  6.2903184100676981e+02 -2.1525948931559000e+01 -3.4825573451232373e+01  4.9838186766894711e+02 -1.4686312180821675e+01 -4.4369110462393259e+01  3.8059260816533930e+02 6.1098290194717118e+00 -1.5709619769060254e+02  4.8007178755250425e+02 -1.7500358976719500e+01 -2.0667407351468344e+02  4.7875227570634001e+02 -7.9756754396944402e+01 -1.0606683198798343e+02  4.5657486400249485e+02 -2.9613477609914664e+01 -5.9262255481075577e+01  4.0154286222124080e+02 -9.9110159335239715e+01 -7.9439818284460571e+01  4.9426252004343820e+02 -1.1012973013425253e+02 -1.0841946522737439e+02  4.1462273219259896e+02 -1.3478934159324820e+02 -7.9699960511383907e+01  3.4334916605930118e+02 2.3635628120843208e+02 5.6230210207401683e+01  3.8545768709040226e+02 9.6004806723655889e+01 -7.4757026661645256e+01  3.4651364835020274e+02 3.1352342993205218e+02 -1.2011555773524928e+02  3.9072858857915156e+02 2.4335303066276535e+02 1.0645709387333243e+01  4.9067757565832596e+02 1.3256427816032820e+02 -8.9004181729020473e+01  3.9862293288164625e+02 7.4221550948449874e+01 -8.5664913853984345e+01  5.1060100239843507e+02 1.7940759864079141e+02 -1.6918542664989755e+02  4.1734960931147612e+02 -1.2908668064260796e+01 -1.0342908527740055e+02  4.2194313038064604e+02 -4.1594337872101605e+01 -8.6451650009896412e+01  5.3197193020971008e+02 -6.5557665758248007e+01 -7.8258194234415711e+01  5.5687294237555307e+02 9.3633396159344301e+01 -3.7163019638841213e+01  5.0811477291210798e+02 -4.3983171464718396e+00 9.8477753442347023e+01  6.0350446776003673e+02 -2.9389618825511196e+01 1.5846626410482048e+02  5.1804282934766775e+02 1.5297736570254823e+01 1.2484249682283546e+02  3.4427150408978429e+02 5.3976158230488430e+01 3.2033073390689886e+01  3.7321148385510446e+02 5.9991376491846928e+01 3.9470418180543895e+01  6.0161152528241303e+02 -2.0343135800767232e+01 -5.4513655539754879e+01  4.7888895543657105e+02 3.3241388332427197e+00 9.2809433558151824e+01  3.6176569982776903e+02 -7.8580703610278704e+01 -8.9127747705214745e+01  4.7060435693547055e+02 -4.9465096094816488e+01 -1.2122551139591100e+02  5.2765374775679868e+02 6.3226515791726833e+01 -1.5092975902346814e+02  5.1486191819931662e+02 6.8861561280397396e+01 -8.6267811280000217e+01  4.8459993688321413e+02 3.0691376336079919e+01 -9.1190959627844890e+01  4.5538042131641112e+02 9.8956749931357365e+01 -8.6810942765005834e+01  4.1371850870360572e+02 8.1503763701419132e+01 -7.0579869107718110e+01  6.0571544288866301e+02 1.3174951191104657e+02 -1.4826286394023052e+02  6.7230555201952427e+02 1.0192623684484822e+02 -1.7423177052904040e+02  5.0886834576444727e+02 1.5019391746409252e+02 -8.9687843071237282e+01  3.6815981243991780e+02 9.4165065622823533e+01 4.5203917469650698e+01  4.0969316022282675e+02 7.5661954801776673e+01 -1.3997769127213115e+01  4.3253814340512247e+02 2.0750026388336204e+02 8.0250117230300887e+01  4.7467275700523811e+02 1.1786962669057985e+02 3.4727081527245666e+01  4.0753726166669776e+02 6.9281848364770696e+01 2.2904998387480081e+01  5.2317974912494481e+02 1.2766744822290468e+02 3.0552095102181816e+01  4.1828892989949816e+02 -9.1046478239305387e+01 -6.8368822680211494e+01  4.7578551597562046e+02 -1.0150382252054069e+00 -3.7039982028987680e+01  3.6012056811427135e+02 7.6681578041063830e+01 -1.2723899533938172e+02  2.9941595227205488e+02 8.0492488851637361e+01 -9.4509852567338029e+01  2.9760777488697960e+02 -7.8568887064873749e-01 -1.2651925290059017e+02  5.3240627138939828e+02 4.6911265552844775e+01 -1.2435509133089772e+02  4.1766688025406296e+02 2.5281132804672151e+01 -6.9627885346459976e+01  4.6356413664597773e+02 2.1182639419250989e+01 -5.1568421853361933e+01  3.6822470083741058e+02 1.7872840850122639e+01 -1.1237811644430970e+02  4.6516909716673672e+02 4.1768922214474621e+01 -1.1175206883012476e+02  4.9874650859230280e+02 1.6394410730709566e+01 -4.5705905162221327e+01  5.2061853033398972e+02 -3.1526633724694868e+01 -9.1942903017441381e+01  6.4586969789358068e+02 7.8482507939701648e+01 2.9609865071962940e+00  5.1048246908279231e+02 -1.0828879770613044e+02 -1.0198186659227791e+02  6.1509760189319945e+02 -8.0720859424696826e+01 -7.3136944222689706e+01  4.9925582131827616e+02 -9.4771452241391444e+01 -7.9122646953348607e+01  4.8527270183854597e+02 -3.3831208550734168e+01 -5.9970856262746899e+01  3.7699737297262413e+02 3.5398686317375748e+01 -5.0989505503144038e+01  4.4492562862574493e+02 2.2543483021756298e+01 1.1810164103124958e+01  4.2366028248341934e+02 -7.2091446192659987e+00 -1.4879357287715143e+02  3.8113555061708462e+02 5.2315356053741731e+01 -2.9003472674396182e+01  4.5504860396797488e+02 7.0418602534140675e+01 -2.4458077237826441e+01  4.2357342771930911e+02 3.3711180243870317e+01 -6.4144316462399161e+01  4.2990152999386726e+02 1.0146668101047739e+01 -1.4164631731254315e+02  5.9354218344535229e+02 4.5793612772302652e+01 -1.3440829214618265e+02  3.8647637082433812e+02 7.3640085792687159e+01 -2.3008002693024988e+01  3.6157882535676475e+02 8.2741643401199454e+01 -8.4522284399078396e-01  4.2437973779941723e+02 4.6743128792864880e+01 -3.2242856727001637e+01  6.2457903195053075e+02 -8.1398031638000475e+01 -8.9153540827339882e+01  5.7401188323150893e+02 -3.4710708925318748e+01 -1.1002227633957585e+02  4.9979510120941205e+02 -7.8084408915740028e+01 -9.6088557196527347e+01  3.9033374837020267e+02 6.6228438820307119e+01 -1.8292942869222909e+01  5.3696388986677789e+02 -1.0112769624341148e+02 -1.3481080334770687e+02  4.7413391601711652e+02 -1.0015604874731300e+01 -8.0091396622767746e+01  3.8000572254383337e+02 4.5927629958125706e+00 -4.0667710965132194e+01  3.9934828600496547e+02 -3.4299155375164567e+01 -5.0714772226156207e+01  6.0680046554168041e+02 5.6685781148088665e+00 -3.7759436635377298e+01  4.9266796304384650e+02 4.1820479402881652e+01 -8.8768134088436582e+01  5.5255536521801162e+02 5.1977632974164003e+01 -6.3244049289000415e+01  4.0650807257654583e+02 4.5923012334941482e+01 -5.0162596744975147e+01  4.3735661424960250e+02 9.4717878487165052e+01 -2.6648375356197199e+01  6.7142423019777300e+02 1.5804378903374035e+02 -1.0767339816323515e+02  7.0083950742963589e+02 2.6028457508311661e+01 -7.0709634506132758e+01  5.2569929897519194e+02 -2.1117575924116284e+01 1.6577901027810728e+02  5.1406536501798951e+02 3.5032454675218446e+01 1.7929322682569815e+01  7.3734947877771117e+02 -1.6020875732648278e+01 2.0768955331656884e+00  4.2276433274539767e+02 5.6614453183752829e+01 2.3809294863198808e+01  5.9844632760368108e+02 -2.1461758961158267e+02 3.7030663893754877e+02  5.6735297108204270e+02 1.7295607687420792e+02 -6.9612091762763711e+01  1.1591926281670796e+03 2.0182175318631954e+02 1.7080169970980319e+02  5.7138443308085914e+02 7.7876629899352636e+01 9.1487109038752990e+01  8.1741600031320820e+02 6.4623419503632405e+01 1.4848792204292008e+02  7.5545732847099612e+02 8.8147230362983819e+01 8.9605636228907073e+01  7.8354408356276940e+02 -1.6898634971087958e+01 9.7652135606690393e+01  1.1437753561650686e+03 -1.5817534021689687e+02 7.3651423101304090e+01  6.5168951635369331e+02 2.3070455366187932e+02 2.0019546664170738e+02  5.1413957842981006e+02 5.1163822979716775e+02 3.0396032950953719e+02  1.1553471558385374e+03 4.7301597767860500e+01 -6.7354393820762866e+01  7.3078231170297204e+02 -2.5954681248128857e+01 1.7429434754490279e+02  6.6230038255135003e+02 3.9868449845136314e+02 8.8985209378199755e+01  9.9299197875663594e+02 1.6951787570762949e+01 1.1934835782015173e+02  3.4766484375948096e+02 1.2628097012708672e+02 1.1555280862290968e+02  3.4642603621001547e+02 5.0889522011706774e+01 1.5231852862463555e+02  3.6292951780591142e+02 8.5090802456055059e+01 7.5794337800387254e+01  4.3720728144182073e+02 1.2250869890831612e+02 1.2195756330007947e+02  4.4575751078253722e+02 7.2701319563736050e+01 1.7518707907122302e+02  3.4839395637062199e+02 1.5334104482595221e+01 1.2227954316691887e+02  3.6525536977767501e+02 3.1946861468578067e+01 1.7225867665073582e+02  4.1882236670196016e+02 5.2228069348829344e+01 8.2108157045224544e+01  3.8000105937913804e+02 3.6907454659062154e+01 5.5742047571747669e+01  3.1666530847588035e+02 7.0597822609603689e-01 1.8242004715308224e+02  5.3473300232831086e+01 -1.1103826098791359e+02 9.3339490470929061e+00  7.0114430921048481e+01 -1.1619930612906994e+02 1.3959043884727903e+01  5.3214524265840147e+01 -1.2563210914167718e+02 9.9615895507859538e+00  5.4170504057402496e+01 -1.0343956817092136e+02 1.9160261307592606e+01  6.1271788211153059e+01 -1.0840055815121836e+02 4.3354826286293388e+01  8.4086511980371256e+01 -1.1023702291892249e+02 2.4918413833995594e+01  5.8985028199957007e+01 -1.2703903454292239e+02 3.3427187997462511e+01  6.8879078617654201e+01 -1.3022207507002472e+02 2.3477816421672312e+01  7.8708497410735276e+01 -1.2046195156859150e+02 1.9599661772710117e+01  9.4973474203781890e+01 -1.1672916674363843e+02 9.3224418814981966e+00  1.1372400201757634e+02 -2.9140996640954484e+01 9.6100118100812580e+01  1.2284818473828891e+02 -4.4376220147749954e+01 1.0741649923369651e+02  1.3583953617703304e+02 -3.3285911861603225e+01 9.4545363605802550e+01  1.1139781393225033e+02 -3.8964068082021093e+01 1.1426450363495306e+02  1.0429685902723745e+02 -4.1616049436121564e+01 1.0297109499290853e+02  1.0470739967711528e+02 -3.9792659228777559e+01 1.4814887746236414e+02  1.3624519119562203e+02 -3.8433179344821433e+01 1.1932813418020304e+02  9.0529421661009806e+01 -5.0913484693049426e+01 1.2075728664873134e+02  8.9950025516031076e+01 -5.5691234008699965e+01 1.0777447773636216e+02  1.5875256221991148e+02 -3.4836869793729434e+01 9.5744261951556553e+01  1.2024987487892376e+02 2.3086795412958514e+02 8.0041854776546995e+00  2.3158220900071348e+02 3.0288208030590647e+02 -1.3738654873942327e+01  4.7745642605948507e+02 4.5671075623059522e+02 -7.2575005822869002e+01  1.2351556678965405e+02 3.9765561121611870e+02 5.2880616852642021e+01  1.8654218335043797e+02 2.9302363009086417e+02 2.4377778753984149e+01  1.9230022652461528e+02 2.0816297722967036e+02 -1.1184222581194961e+01  4.0990803971544466e+02 2.8828922401189794e+02 -7.0357273120347571e+01  2.7590504142268941e+02 2.2465537135831559e+02 -1.0198688028090272e+01  5.3805294052578950e+02 5.1524161197783371e+02 -2.2541393049877894e+02  2.2218313246121272e+02 1.6333794075070446e+02 -7.4665408009183682e+00  4.4842165438624910e+01 -2.9642569107073129e+01 1.5577764804706609e+02  8.6851049435175085e+01 -2.3815203911725337e+01 1.5192010874600911e+02  9.7660234604918102e+01 -4.9876579706233379e+01 1.4239721628406801e+02  6.8373677683838920e+01 -4.3447166431449247e+01 1.7072143435842324e+02  1.0575019614619816e+02 -5.0581202549294972e+01 1.9695040345717086e+02  1.0618093736208360e+02 -2.7806000405960972e+01 1.7183728041203773e+02  1.0081279416087951e+02 -4.3357354897479922e+01 1.9985121177213213e+02  9.8106023220544259e+01 -2.7856976957111236e+01 1.7380535480694382e+02  1.0314351559205713e+02 -1.8619505012498660e+01 1.6947470723665785e+02  1.0480699021547542e+02 -1.3407705034707945e+01 1.5497534496617530e+02  1.1524187949112624e+02 -8.2701116377971784e-01 3.3419839146736450e+01  1.1296675689393055e+02 -2.2705078426272403e+00 2.9740496956050197e+01  1.1322838584242967e+02 -1.8951640869640617e+01 2.7208446807609807e+01  1.1063441746972715e+02 2.1478586782976263e+00 2.3411516954484796e+01  1.1939216129739037e+02 4.8157875766303815e-01 3.7474522891684749e+01  1.2148145729269488e+02 -2.4877441628297156e-01 3.9542367901384495e+01  1.1532537468063667e+02 -2.0715187473711811e+01 3.0099701219857419e+01  1.0505301172635068e+02 -3.8309912215149895e+00 1.7925841066234888e+01  1.0256094813977278e+02 -2.3734162133350079e+01 1