<?xml version="1.0"?>
<VTKFile type="UnstructuredGrid"  version="0.1"  >
<UnstructuredGrid>
<Piece  NumberOfPoints="4342" NumberOfCells="19443">
<Points>
<DataArray  type="Float64"  NumberOfComponents="3"  format="ascii">9.045758253000001 19.1591231252 4.1573167684  8.24204495975 20.04339133385 3.931627851  8.808479929300001 19.22148504125 3.676758638  8.787886734800001 19.876396677 3.51559120935  8.571201605600001 19.2838469573 3.1962005076  5.0895231162 20.4483609126 7.7328139097  5.93946953205 20.4757647678 7.2926153224  5.190494149999999 20.35858836575 7.1881584582  5.4073627168 19.94547038085 7.4384092485  5.7252023174 19.4425798491 7.1440045873  6.04044056585 20.38599222095 6.7479598709  6.257309132650001 19.97287423605 6.9982106612  5.5083337506 19.855697834 6.893753797  5.2914651838 20.2688158189 6.6435030067  6.7894159479 20.503168623 6.8524167351  7.4564076057 18.9101434799 0.8719772694  5.90902222685 18.8670503465 0.5633767711  6.13415945485 18.04628598565 0.5323497981500001  6.867416234 18.2663074006 1.29788867105  6.72315082655 18.69012206495 0.1064383965  5.9898940474 18.47010065 -0.6591004764  6.2784248623 17.6224713213 1.7238000727  6.0532876343 18.44323568215 1.75482704565  4.7855014485 18.1189537902 1.9161689546  5.798144875949999 18.37042935185 2.2205865381  5.5319631554 17.87071255575 1.81998451365  6.544606582849999 18.1221881174 2.12440209715  6.8107883034 18.6219049135 2.5250041216  5.38769774795 18.2945272201 0.6285342390999999  7.89720894865 19.13148639705 3.99079025295  7.65993062495 19.1938483131 3.51023212255  6.7486596443 19.1038496689 3.8242637375  7.4990007527 19.848052987 4.543199356100001  8.647550057050001 19.87568971515 4.709725871550001  8.2493418611 20.5922563051 5.2621349747  5.6214498991 19.4617001316 5.9651636404  5.78834372155 19.56601267985 4.9377332348  5.56546774275 20.16186785315 5.21744656355  6.1539497201 19.5610784621 5.53036919615  5.25584390055 19.46663434935 5.37252767905  4.890237902 19.4715685671 4.7798917177  6.6864495411 19.6604567926 5.0955747519  6.2054329235 19.9824343773 6.40879018775  5.67332610825 19.45213999035 6.55458411385  5.45645754145 19.86525797525 6.30433332355  4.84371816125 19.9828613071 5.2900881718  2.8141130012 20.6498307793 13.4102700693  3.3606624986 19.27654453615 13.85134351185  3.7019161644 19.57310750945 13.5374386525  2.91712655825 19.83455911205 13.1877397902  3.25764894155 20.0918162034 14.07387379095  3.25838022405 20.13112208535 12.87383493085  3.7011848819 19.5338016275 14.7374775126  3.7026474469 19.6124133914 12.3373997924  3.3613937811 19.3158504181 12.65130465175  3.0201401153 19.0192874448 12.9652095111  3.9816055423 22.8713575056 10.9348504721  4.4692525655 21.8072378692 10.50090076415  4.85563702195 21.57141718595 11.0565565569  3.7990344503 22.0989985094 10.8033537099  4.6518236575 22.5795968654 10.63239752635  4.18541890675 21.86317782615 11.35900950265  5.3220417727 22.2878362252 10.3299445806  4.3892322712 20.8549981467 11.7831685332  4.00284781475 21.09081882995 11.22751274045  3.6164633583 21.3266395132 10.6718569477  3.4265748562 19.2685105816 10.7495756357  3.56461115155 19.4404619865 11.54348771405  3.01112267945 20.2814926054 11.2136025058  3.9079035637 20.06175436415 11.26637208445  3.1491589748 20.4534440103 12.00751458415  4.04593985905 20.23370576905 12.0602841628  3.49245138695 21.07473638795 11.73039895455  2.5956705027 21.2944746292 11.6776293759  4.0541333029 11.1683040128 12.6165697954  4.39474328465 10.3002033926 12.69721845545  4.63677213735 10.8788136822 12.25762237995  3.99487649625 10.59688247775 12.37008575225  4.4540000913 10.87162492765 12.9437024986  4.8538668797 10.5749458425 13.2708352018  5.03663892575 10.58213459705 12.58475508315  3.9356196896 10.0254609427 12.1236017091  4.577515330700001 10.30739214715 12.0111383368  5.2194109718 10.5893233516 11.8986749645  5.8162446487 19.1311502995 11.570288013  6.16861494105 18.3782560322 12.2848833207  5.53787529505 18.4337908758 12.54813492735  5.47870645235 18.04142338325 11.8270066288  5.141168256 16.951696467 12.0837252446  5.831076744700001 17.28852911595 12.5416019365  5.2003370987 17.34406395955 12.80485354315  5.2595059414 17.7364314521 13.5259818417  5.8902455874 17.6808966085 13.26273023505  6.5209852334 17.6253617649 12.9994786284  -0.6561989643999999 15.638888473 12.3865265205  0.7178368682000001 14.74548344315 12.55557799855  0.6046888955 15.26603254985 13.0554901064  1.2017187649 15.29197547905 12.525733124  3.0596364942 14.9450624851 12.6649397275  2.5757545975 14.3985704492 12.69478460205  2.4626066248 14.9191195559 13.1946967099  1.8655767554 14.8931766267 13.7244536923  1.9787247281 14.37262752 13.22454158445  2.0918727008 13.8520784133 12.7246294766  5.2013654867 16.1384189212 13.6778762277  4.59199230875 16.04984437105 12.8374447772  4.58422033185 16.7926914028 13.1757455449  4.11206557665 16.3109529807 13.3705185237  3.0227656666 16.4834870402 13.0631608197  3.9748471539 16.70411685265 12.3353140944  3.5026923987 16.22237843055 12.5300870732  3.4949204218 16.9652254623 12.8683878409  3.967075177 17.4469638844 12.6736148621  3.9826191308 15.9612698209 11.9970133267  3.6382480742 14.4946667409 16.2812422571  3.57909711315 14.72585746605 15.28492701215  3.95216991375 14.0829587185 15.6844051323  3.22031659995 14.10312234835 15.72715138865  2.8023851257 13.7115779558 15.1730605202  3.1611656389 14.3343130735 14.7308361437  3.5342384395 13.69141432595 15.13031426385  4.2660917533 13.6712506961 15.0875680075  3.8930189527 14.31414944365 14.68808988735  3.5199461521 14.9570481912 14.2886117672  5.4792328878 14.7648624062 9.724153879299999  6.0984555989 14.0189187541 9.462203943150001  5.65974974805 14.14980325875 9.953797071149999  6.030835054200001 14.52434340415 9.848024712400001  5.546853432500001 14.25943775615 9.33833311005  5.17576812635 13.88489761075 9.4441054688  5.10814758165 14.3903222608 9.82992623805  4.7370622755 14.0157821154 9.9356985968  5.6144739772 13.7540131061 8.9525123408  6.5824372206 14.2838244021 9.971895545500001  1.7311481528 14.4965065568 10.9499496671  1.9115104268 14.17429248505 11.83728957185  2.6375519087 14.1542910723 11.4676550972  2.1058840351 13.8560135946 11.11641033515  2.4806199174 13.2155206324 11.2828710032  2.8179141827 13.83207700055 12.35499500195  2.2862463091 13.53379952285 12.0037502399  3.012287791 13.5137981101 11.63411576525  3.5439556646 13.8120755878 11.9853605273  3.7408283901 10.3133901194 10.9792078354  4.505152536900001 10.78372737525 11.0651281082  4.58921207925 10.60095034345 10.28518261455  4.5641792233 10.2685797037 10.6589959063  4.480119680950001 10.4513567355 11.43894139995  3.76586124605 10.64576075915 10.60539454365  3.790894102 10.9781313989 10.2315812519  5.3875300565 10.223769288 10.3387839772  5.30347051415 10.4065463198 11.11872947085  3.9904116459 23.0488021852 12.5130232431  3.8607319627 22.2552511528 11.8885759826  3.3526471197 22.3644468799 12.38386617175  3.8651350145 22.3439734926 12.6776623681  3.4779237511 23.0692755725 12.21922704675  3.9860085941 22.9600798454 11.7239368576  2.9654358563 23.0897489598 11.9254308504  3.4735206993 22.9805532327 11.43014066125  3.7398583831 21.6391448 12.8423014931  1.4309572692 13.1986701111 11.5972465823  1.68461920745 13.15914706415 12.50996377615  0.7178368682000001 13.4906336771 12.3632303833  1.761414985 13.5253742622 12.16093802945  1.35416149165 12.83244291305 11.946272329  0.3873791524000001 13.163929526 11.79953893615  -0.6561989643999999 13.1291889409 12.00183129  0.3105833748500001 12.79770232795 12.14856468285  1.2773657141 12.466215715 12.2952980757  2.32502468215 19.5735226695 13.53367644955  1.9039644108 19.9439152982 13.36219992635  2.2220111251 20.38879433675 13.75620672865  2.4960662869 20.20495174075 13.016263267  2.1780195726 19.7600727022 12.6222564647  2.59907984395 19.3896800735 12.7937329879  1.629909249 20.1277578942 14.102143388  2.66554706545 19.83077976085 14.4198104503  2.5866250406 20.617629235 14.3504189048  2.35913708 20.5854276907 15.2905677403  3.03016098095 20.0596146591 15.01402262645  1.9945231645 20.35659279245 14.69635556415  2.94033350975 19.6862430468 12.47982812855  2.6936986071 19.4966453249 15.2122412347  6.60896927 17.7351485118 14.4077194781  5.9873237167 17.080930767 13.58027527785  6.5649772517 17.68025513835 13.70359905325  5.9342376057 17.73578998195 13.9668506599  6.662055381 17.08028929685 14.02114409605  6.715141492 16.4254300819 13.634568714  6.6180633627 17.0253959234 13.3170236712  5.6339399157 17.4814791852 15.3166788885  5.4756894097 16.3276808457 14.7065052798  4.97473841955 16.724580709 15.45414307245  5.4176527012 16.8099490532 14.4972775581  5.691976624200001 16.9992109777 15.5259066102  5.7500133327 16.5169427702 15.7351343319  5.03277512805 16.2423125015 15.66337079415  4.75845120505 16.053050577 14.63474174205  4.3155369234 15.9676822328 15.5916072564  2.4339328296 23.1340425191 13.1176480983  1.60887505315 22.4310780678 13.42203132675  2.190891709 22.49161410375 13.4485847685  1.6612591471 22.5444757783 13.90497809075  1.85191617375 23.07350648315 13.09109465655  1.9043002677 23.18690419365 13.57404142055  1.2698995179 23.0129704472 13.0645412148  1.9478505884 21.8491856884 13.7795214387  5.5819128827 11.8467330084 11.3471622878  5.83160640905 12.4828966052 12.3181963839  6.413136140300001 12.6283778947 11.7371678211  5.958554042799999 12.7528774866 11.1739039242  6.3351952029 13.6590219648 11.0006455606  6.20824756915 13.3890410834 12.1449380203  6.7897773004 13.5345223729 11.5639094575  7.2443593979 13.410022781 12.1271733544  6.66282966665 13.2645414915 12.7082019172  6.0812999354 13.119060202 13.28923048  7.5780940886 12.191217032 10.8265906945  6.95664464575 12.9251194984 10.91361812755  7.327819000350001 12.23120202395 10.38735342995  7.559833734050001 12.56175776515 10.28086417115  7.5415733795 12.9322984983 9.7351376478  6.7063695575 12.96510449035 10.474380863  6.9383842912 13.29566023155 10.3678916042  7.3095586458 12.6017427571 9.8416269066  7.07
[...]
<PointData  Vectors="u"> 
<DataArray  type="Float64"  Name="u"  NumberOfComponents="3" format="ascii">3.4708473688013555e+01 9.8334869422504418e+00 5.9688474898672723e+01  4.5187900750914679e+01 1.0383168182715412e+01 4.3358932470759086e+01  2.6505543071396449e+01 7.7763088377850975e+00 5.0589806090121932e+01  2.6632808711590911e+01 1.2556585637729659e+01 5.2620927201044822e+01  2.2615801018922006e+01 4.4372448137697429e+00 4.5502417126516001e+01  3.6183813865873056e+01 -1.3972295145922169e+01 -1.0146413842559929e+02  6.2813224039756975e+01 -1.5978332778998460e+01 -3.8016895078376074e+01  2.0494486260212273e+01 -3.2109970798707586e+01 -3.5969769875194167e+01  3.0422671378466909e+01 -3.5454876363698610e+01 -7.0691992658222517e+01  2.7027127323702459e+01 -4.0752086406241297e+01 -4.1495545630688632e+01  6.1953906956666337e+01 -2.0469467864812071e+01 -9.6148189556521171e+00  5.9723238255713490e+01 -1.9101179574424449e+01 -2.2655069463652733e+01  2.5249285256617714e+01 -4.4440622586926850e+01 -2.4475656385040153e+01  3.6651887491619178e+01 -4.5324896324764069e+01 4.4869136832472618e+00  8.1565782192170161e+01 -3.2695577366643103e+00 -9.8494425588323331e+00  1.1618842274598853e+01 -4.1163805812074985e+00 1.7734563807865403e+01  1.4014888593219061e+01 -1.0370722462209681e+01 6.5703334560059785e+00  9.3496784363403140e+00 -4.1203710915652358e+00 8.1178885486600443e+00  1.4983848590881669e+01 -4.1807784803671630e+00 1.6635725847278636e+01  8.3834800851556519e+00 -6.3906829569044481e+00 1.2102448217969940e+01  1.6925817623216739e+00 -9.0750105443854121e+00 2.8249664379373192e+00  1.4899855981464800e+01 -1.4810846019150889e+00 1.6590574606329660e+01  1.8825059962222479e+01 -9.5991580742763034e+00 1.3332059960818189e+01  1.1186973849007419e+01 -2.2094274293298280e+01 7.3520119531613348e+00  2.0465402084808936e+01 -1.3221580655571671e+01 1.3986809253433208e+01  1.1396322927077039e+01 -9.3320468254616333e+00 1.2449484332330130e+01  2.0081718144338890e+01 -5.7262332383072918e+00 1.8906853202666181e+01  2.4980239018395409e+01 -7.5689871937821946e+00 2.1721195816939865e+01  8.5885467505979669e+00 -1.2065990250681290e+01 3.9623909086655984e+00  3.9617650308393394e+01 1.0850243149722401e+00 3.7781772635811265e+01  3.5739968877900409e+01 -1.8700410823629878e+00 3.2562815633928487e+01  3.9728922279258633e+01 -1.0827842732775530e+01 2.4182483155687137e+01  5.6417798451011933e+01 -2.7899459231009860e-01 3.0457739193747337e+01  5.5506117294298321e+01 1.3885393963658261e+01 5.0313088365346665e+01  7.6597454412640829e+01 1.5329632171889878e+01 3.8993005817719002e+01  3.3338506402165770e+01 -4.4020306612965044e+01 2.1687951119403039e+01  5.3672634929951215e+01 -3.2849126846224109e+01 2.3067237300881438e+01  6.8536185145038232e+01 -3.7952003379623591e+01 2.1183647894110674e+01  5.1302398528369288e+01 -2.6098318336946061e+01 1.8402182787590316e+01  5.1282023525448139e+01 -5.0570408494972639e+01 3.1908045163279706e+01  6.7335750263772084e+01 -5.9330803424661951e+01 2.1463109517367002e+01  5.6071995777007366e+01 -1.3762632562946939e+01 2.2140800872651877e+01  5.6253842495771835e+01 -2.3804975130800859e+01 9.3620588637062541e-01  1.7235597441152652e+01 -4.5395544930081861e+01 -2.3623809263208511e+00  3.9040386621557182e+01 -5.1210985346265574e+01 1.6847501240549860e+01  8.6885712859751237e+01 -6.1135612074244634e+01 3.2150020736871376e+01  1.2533590468162731e+02 -4.9710048091126694e+01 -7.6233023066149428e+01  1.2466316784854232e+02 -6.3574460787723865e+01 -7.2615698643362308e+01  1.2662028094321724e+02 -6.2341760686540091e+01 -8.0567532106399995e+01  1.3251707863451924e+02 -5.3575647375524220e+01 -6.9997338263176346e+01  1.1720061293041580e+02 -6.0805842153335448e+01 -7.6172034999538255e+01  1.3366426516137227e+02 -5.0821636329672394e+01 -7.3119925616005759e+01  1.0344018911995728e+02 -7.0812424249417617e+01 -7.5742523778567701e+01  1.4556666202043050e+02 -5.6149798065401896e+01 -7.2041584956104984e+01  1.4192987296835210e+02 -5.8375210390800774e+01 -6.8213967316726666e+01  1.3903805273196312e+02 -6.1195583056486001e+01 -6.5608703075084961e+01  1.2731293892636326e+02 -3.7006394865419885e+01 -5.5427708841715734e+01  1.6108232390144346e+02 -5.7149167523351736e+01 -8.9485721514383698e+01  1.5027464144714645e+02 -5.7165152209922425e+01 -9.7458489845033071e+01  1.4449205724531666e+02 -4.0734863830215055e+01 -6.5003659809447157e+01  1.3873151666722580e+02 -7.0526550104414099e+01 -7.8607253335230709e+01  1.3980785679468201e+02 -4.2190591882483361e+01 -8.0047730575528277e+01  1.6893952177648339e+02 -7.6754326317428053e+01 -1.2895789231085624e+02  1.4497903876552738e+02 -4.8332566738837407e+01 -8.6402220474473708e+01  1.5314047403927981e+02 -4.1688907962474254e+01 -7.7740908440104107e+01  1.6387508082426839e+02 -3.5583838927666463e+01 -6.4761836746636121e+01  2.1156095099678154e+02 -3.9520106717630142e+01 -1.7727260352853150e+01  1.6376199091470426e+02 -5.2591269113645573e+01 -5.7410611841194282e+01  1.5651055216937633e+02 -2.9356484566568078e+01 -4.7337231712830530e+01  1.6474862352638576e+02 -4.4147868195559440e+01 -6.8855473798448713e+01  1.4219837178058103e+02 -4.0446514162973635e+01 -6.6187047930841231e+01  1.4632357794215883e+02 -5.0685122202107280e+01 -7.9853982642086436e+01  1.4112890160550174e+02 -3.7536357690193896e+01 -7.1446871985082737e+01  1.2999140211966576e+02 -2.5748106410719821e+01 -6.2135110198585778e+01  4.9269492356112742e+01 -4.5858698634717747e+01 2.4477864100518158e+01  4.4430748406768608e+01 1.8918495978438635e+01 5.2529005720885316e+01  5.4760222733065184e+01 -1.8812495909023568e+00 3.1003763603933955e+01  2.1689991810317817e+01 1.2654741707039539e+01 3.8047588094386647e+01  4.7656486917993206e+01 -1.5783967723757872e+01 4.5626720503449910e+01  5.3024222215723803e+01 -1.7958140256678095e+00 4.4374119577629841e+01  6.3997019098104083e+01 7.8898492731090926e+00 3.9015536595514440e+01  5.0436547373791413e+01 6.6805455464021705e+01 5.7007287463741910e+01  5.6942788158578800e+01 3.4308793641479873e+01 4.2490797651742987e+01  6.8591954083305879e+01 1.9288217224032813e+01 3.2697469748993754e+01  1.4551926503132745e+02 -5.5504690393849572e+01 -9.2297150398310450e+01  1.5105354673466402e+02 -5.8114114197967830e+01 -7.7833241372868187e+01  1.4780214033447947e+02 -6.2037557693706539e+01 -8.0794411260888708e+01  1.4205034030726813e+02 -4.9509209059538037e+01 -8.0356939215419686e+01  1.4185610563244634e+02 -4.0348860821766436e+01 -6.8189376825937927e+01  1.4980948038378384e+02 -4.8321467507931182e+01 -6.5528438213166623e+01  1.4601221407993458e+02 -5.3030475637969296e+01 -6.9140307688770022e+01  1.4947526068374736e+02 -6.7022824451020057e+01 -7.6399831936755007e+01  1.5811200511925148e+02 -6.2880505451874349e+01 -6.9126096655583424e+01  1.6370849232176900e+02 -5.7904661737865027e+01 -5.9817349247446529e+01  1.4688990351948632e+02 4.5553331204866019e+01 -6.3631559022196605e+01  1.3772319521031261e+02 -1.6771750047073049e+01 -6.0605301592668525e+01  1.3381141053758267e+02 -1.0654956434464040e+01 -7.0980095382263343e+01  1.3070884596425057e+02 -1.5483100142401810e+01 -6.4821485706921649e+01  1.3600985749435236e+02 -3.4662333763779621e+01 -5.5376120731398586e+01  1.3960558912478933e+02 -3.3660910423987552e+01 -5.3812704057479813e+01  1.3742580914224561e+02 -3.5240233075850263e+01 -5.9252073298574764e+01  1.3992430078028198e+02 -3.5854699544996926e+01 -6.2071651773552389e+01  1.3886536505050779e+02 -3.3533573542728099e+01 -5.6187386863259498e+01  1.4381630919568093e+02 -3.2606091548631426e+01 -4.9555071663369453e+01  1.5094570431862132e+02 -5.2325959748035267e+01 -5.3828590205552295e+01  1.3982439329327747e+02 -4.1458126661493964e+01 -5.8086779230458205e+01  1.4145410730276154e+02 -5.1376466788155817e+01 -6.5661702015267082e+01  1.3872358267818089e+02 -4.8445446738139168e+01 -6.2698480658403440e+01  1.2966101294836523e+02 -4.4623884626686298e+01 -7.0830533466300494e+01  1.3293342401733221e+02 -4.1660563939161577e+01 -6.8082878791263624e+01  1.3135672561350103e+02 -3.8377937780509889e+01 -6.5032365383035952e+01  1.3163755742996085e+02 -4.9953102592277716e+01 -7.2134107220057402e+01  1.3495711195211075e+02 -5.4800902683644011e+01 -7.3963046083960421e+01  1.3278085411839842e+02 -3.1397729367147935e+01 -5.8143289244751095e+01  1.5867080592012067e+02 -1.4946125968989715e+01 -1.1929313333399217e+02  1.6174653280682719e+02 -4.6743475769411162e+01 -7.2620303273617253e+01  1.8997907599758540e+02 -5.3130286021206871e+01 -1.0038179739854844e+02  1.7474578421720912e+02 -2.6967867937883426e+01 -1.0675340601966336e+02  1.5744692922316520e+02 -2.9274601828422348e+01 -8.9829496098725201e+01  1.5306451231050298e+02 -4.1664729520659307e+01 -6.9334721851392828e+01  1.7864440525220667e+02 -4.8368633357272365e+01 -7.4299107884688539e+01  1.9833085725745545e+02 -7.5889078987727913e+01 -4.3202621503255223e+01  1.6402313003034919e+02 -5.1303956280392640e+01 -5.9469267292176426e+01  1.4847844391603610e+02 -4.6809125147681002e+01 -5.9424702165470606e+01  1.1934833747374581e+02 1.5143979226823198e+01 -8.5900664987793363e+01  8.1357341651350112e+01 4.0337728674592420e+01 -5.2439026554156634e+01  9.7047177003148846e+01 1.9952254333601772e+01 -5.9870222442314372e+01  9.7218708897601800e+01 2.6315237596558802e+01 -6.2789420459361722e+01  9.3531542777254643e+01 4.2751462442304181e+01 -8.0208965713662252e+01  8.1638045122990150e+01 2.4504781155979124e+01 -6.7666905512647546e+01  1.2074131753715075e+02 -5.6548462142526379e+00 -7.1856290777408191e+01  1.0713180086705594e+02 -9.9144886649597517e+00 -6.8029371082792935e+01  6.9780224655452486e+01 5.7838246200860304e+01 -6.0904204299664485e+01  9.4594929405742107e+01 3.1397371621565433e+01 -4.2406863080338717e+01  1.4347614629147276e+02 1.6362892518282215e+00 -4.6365998349174667e+01  1.4350029911889939e+02 -2.0156433525683280e+01 -4.4619758873364354e+01  1.4137616023995645e+02 -2.9665517807495288e+01 -4.5703626118485509e+01  1.5777901760854931e+02 -2.2405847596843639e+01 -4.4444215756921821e+01  1.6801221237898105e+02 -5.6216939848738519e+01 -5.6906625551270537e+01  1.4202136992496364e+02 -3.6746440074913110e+01 -4.8131014045928204e+01  1.5248100818362383e+02 -3.2693708677245787e+01 -4.5049854453498199e+01  1.3845601657753917e+02 -4.7078438396759999e+01 -5.1038597475272567e+01  1.3362786962120492e+02 -3.9734466262918644e+01 -4.5552187971077188e+01  4.8296152252345728e+01 1.0207064993753619e+02 5.3044852285692087e+01  5.1606875216154407e+01 3.6643857529228995e+01 2.5826450834201161e+01  7.5765546549307047e+01 5.2114468455542209e+01 2.7884156140991710e+01  7.6083060651207504e+01 5.4587499598462806e+01 3.2027779782276141e+01  5.2835050145667047e+01 3.7075831760623295e+01 3.4409869838228751e+01  2.6248371470083761e+01 9.0948107681826770e+01 5.3229486475118662e+01  3.0371888091211506e+01 7.6321896676709827e+01 4.2207729176100024e+01  7.8760953775515873e+01 3.9319919710337778e+01 2.2003839577454535e+01  7.2947024879592945e+01 3.2183178545625445e+01 2.8551226128728835e+01  1.2656986964017766e+02 -1.3071294288711170e+01 -8.6125651980399269e+01  1.2902901671859991e+02 -3.0220727083433697e+01 -7.7710457566847850e+01  1.2257243973376002e+02 -2.4447468169998618e+01 -8.3712323844350422e+01  1.2507709517625644e+02 -2.6285542408072036e+01 -9.1420431085009056e+01  1.1800717512231499e+02 -1.3896047792351565e+01 -7.4955286644323380e+01  1.2742812856073691e+02 -1.7996210504165340e+01 -7.1414022916935792e+01  1.1313487963245761e+02 -1.0772899863833352e+01 -6.9813869555321617e+01  1.2520283477330979e+02 -1.9729245830820588e+01 -6.3789768054843329e+01  1.2576058433991236e+02 -3.8795037738549766e+01 -9.1375531154935999e+01  1.5886706512729947e+02 -1.7948620121807256e+01 -2.3348151975224802e+01  1.4701290439932808e+02 -2.8874333344301117e+01 -3.9915787671914543e+01  1.3437723825021973e+02 -2.5352173434527916e+01 -2.9505775009858276e+01  1.4893393038568357e+02 -2.6679282286430219e+01 -4.1511422732286761e+01  1.5604427852023531e+02 -1.9363380959836938e+01 -2.2949087110764051e+01  1.3741926981241085e+02 -6.9981232287003881e+00 -1.0554882123466856e+01  1.5443137045763831e+02 -4.0803289058708259e+01 -2.3691448774736845e+01  1.2840562798866600e+02 -3.4066314571109615e+01 4.7643124615529793e+00  1.4133327469891890e+02 -2.2493381216507949e+01 -2.2141489931887897e+01  1.3111125772057969e+02 -5.4572706762203843e+01 -6.3572221873263700e+01  1.3687812246164856e+02 -4.9066073496107443e+01 -6.2574907797940149e+01  1.2838450794513903e+02 -5.2353035283954604e+01 -6.8897383347591600e+01  1.3134437092965783e+02 -4.7293851701193510e+01 -6.7396063636889735e+01  1.3659962037655438e+02 -4.3579723782218295e+01 -5.6237422343865255e+01  1.4089385601908069e+02 -5.5014261347441121e+01 -5.9626124585422318e+01  1.3613365227141051e+02 -5.5413088150397343e+01 -6.2248999028976620e+01  1.1981329719598429e+02 -6.1108698714756450e+01 -6.3998987706734667e+01  1.1859222453750097e+02 -5.8570263167455181e+01 -7.0814873853942387e+01  1.1431468287305165e+02 -6.7929414758015866e+01 -5.0353522254833514e+01  1.0606460166425647e+02 -6.6278334231452305e+01 -5.9988531061741647e+01  1.2475219759233282e+02 -6.0233593981962073e+01 -5.8512426446886273e+01  1.4116207869155031e+02 -4.8765002984072751e+01 -6.1712221289373304e+01  1.1297955486390384e+02 -6.4100742424957275e+01 -4.9470991875392073e+01  2.0338211129004790e+02 -9.0510926146495535e+01 -6.5145350673261717e+01  1.6236158546408558e+02 -5.9105544904370490e+01 -5.9347028129761995e+01  1.7819823416267548e+02 -6.8560460552331747e+01 -5.9004100857412595e+01  1.6655223344987590e+02 -7.6292166504329003e+01 -7.5320331194570343e+01  1.8240939542659282e+02 -6.2139438034324357e+01 -4.5696373474229524e+01  1.6707119829832405e+02 -4.3779839314412619e+01 -3.8765264189007794e+01  1.6724031923344231e+02 -5.0394455933373990e+01 -4.8854699075278944e+01  1.6594388906483036e+02 -1.1595745295836291e+02 -1.1777389455203456e+02  1.6827785416671713e+02 -7.1360971361036079e+01 -5.5652222643363160e+01  1.4751546585090165e+02 -9.0857649567353448e+01 -8.8323776931469268e+01  1.6276330982114578e+02 -7.3432395802497894e+01 -6.6404189706296933e+01  2.0639647115969800e+02 -1.1887914527570943e+02 -1.1599471280698648e+02  2.2937915385350925e+02 -1.2372484426340499e+02 -7.6947550278822135e+01  1.6055644760654434e+02 -9.5224039263656138e+01 -9.4261211891365761e+01  1.5640874140331559e+02 -6.5523143152862232e+01 -6.1213743219731974e+01  1.5176733707291538e+02 -6.8332549098030455e+01 -7.2248731784993936e+01  1.0722311482911891e+02 -1.4921603477146137e+01 -1.2046367666104544e+02  1.1467261253722121e+02 -2.1635457968878505e+01 -1.0150133474947063e+02  1.1240296154277026e+02 -2.8873591460709275e+01 -1.0567428745348923e+02  1.1174388458246530e+02 -3.6258250366870001e+01 -1.0801082761369379e+02  1.0387505415534399e+02 -4.4986977864962627e+00 -1.2233273535527800e+02  1.0131602368433938e+02 -1.4489233583099585e+01 -1.2471525763183254e+02  1.0514087482485347e+02 5.6962821666218719e+00 -1.1699690053595327e+02  1.2097627712454971e+02 -3.9968138140221917e+01 -9.0473017997071196e+01  7.5810845816073765e+01 1.0517994280435691e+01 6.9711672148940291e+00  9.7525760333552540e+01 -9.5431853554239634e+00 4.3290642356097999e+00  9.1638894802456889e+01 9.6975331220250105e+00 5.7767265931823415e+00  8.7781581312253920e+01 1.2647215126283156e+01 -7.6608425975622652e+00  1.0053304681334734e+02 1.5916460434266021e+01 -2.2626812357218444e+01  1.0987586536272747e+02 -5.6451557361080917e+00 -9.1164428855579569e+00  1.0650783282732523e+02 1.4672317987656081e+01 -9.2312395093359765e+00  1.1247862293773825e+02 1.2261947463575538e+01 2.1232285255318777e+00  1.1426246888885572e+02 -7.5404857437586923e+00 3.2246657171470161e-01  1.1708269321497362e+02 -2.8399337128428449e+01 1.3043005826892087e+00  5.3671413910564198e+01 5.4486071502381598e+01 3.9478994196774586e+01  8.0193811448647324e+01 3.6695759508702665e+01 3.0129995497676973e+00  4.8888455982534047e+01 7.6786109749682566e+01 1.8346970109024479e+01  4.8942498755265376e+01 6.6227690363717102e+01 1.2649070896572414e+00  7.3314394923411925e+01 8.0627167486208407e+01 -2.0473966625700843e+01  7.8639485234387962e+01 4.0365981632776489e+01 -9.3227355522355264e+00  8.4691487661717076e+01 4.4351452533893145e+01 -1.5119038521425898e+01  5.7665378527938792e+01 7.5017294357348248e+01 -9.3588905925927470e+00  4.5990214268655592e+01 7.0870228758333482e+01 -3.9529044424265902e+00  1.6221121066040021e+02 -6.6248513973043629e+01 -2.9557684479694871e+01  1.3611798076107681e+02 -6.7824182796829177e+01 -7.2102438765348737e+01  1.3080885972924227e+02 -6.4740642241622311e+01 -6.4620707994306201e+01  1.3251500386219362e+02 -6.6843751489026076e+01 -6.3587326251001855e+01  1.4352045906202233e+02 -9.5962389627269360e+01 -1.0645324014070648e+02  1.3534850831877250e+02 -1.0195765152548196e+02 -1.0887614006639903e+02  1.7424844341142500e+02 -1.0840668160453292e+02 -2.5916617208414717e+01  1.4282868167014863e+02 -1.0103082693747955e+02 -5.7992379922749613e+01  1.1812275171498867e+02 -7.3845332669500294e+01 -1.0211982730847328e+02  1.2978606839932269e+02 -6.0641950588985054e+01 -5.9880427579352613e+01  1.3785524636765766e+02 -3.7112635322758194e+01 -4.8864045796455358e+01  1.4020407525159933e+02 -4.0990656646912910e+01 -4.7304294372355407e+01  1.3981332775339726e+02 -4.2833084022714303e+01 -5.5016551202941365e+01  1.3267537553643649e+02 -3.3064960414990196e+01 -5.6417739879199459e+01  1.4660610724104959e+02 -4.5625416826213595e+01 -4.3351880930748713e+01  1.4217755705004041e+02 -4.4348523438521958e+01 -3.3085116970523117e+01  8.0054793441669005e+01 4.8466507848187369e+01 -3.3253274421786166e+01  8.1529227843016727e+01 4.0492152872405626e+01 -2.4678394948223531e+01  6.8061790365806658e+01 5.9405538112897972e+01 -3.6079497215857124e+01  8.8324147434991886e+01 3.0122289273191505e+01 -4.0427523274000251e+01  9.9351821187620232e+01 2.3858624841773011e+01 -3.2640755857005431e+01  6.8412284956137242e+01 6.4133465763706013e+01 -2.7149600038393540e+01  1.3288632653423562e+02 -5.2198242632385657e+01 -6.3576462228311158e+01  1.2992553190375244e+02 -4.3706526756193462e+01 -5.1009876438316681e+01  1.2877434853239404e+02 -5.1976371505375404e+01 -5.4883144664786265e+01  1.3349170415240138e+02 -4.5865950516581982e+01 -6.0282480531630213e+01  1.3621764176100859e+02 -4.0404709107189326e+01 -5.7495121015142274e+01  1.3420069479175891e+02 -4.7872984893924482e+01 -4.9340426928742239e+01  1.3467655756354893e+02 -5.2791575428911891e+01 -3.9944738076185153e+01  1.4129419272942852e+02 -6.8446395815733823e+01 -7.2125990191714934e+01  1.3799626497154483e+02 -6.3093921537646693e+01 -7.1381100047348724e+01  1.2660247336264314e+02 -6.0944349915422819e+01 -6.5721255821429835e+01  1.4214135398868510e+02 -5.5988656449644367e+01 -6.2804631149162894e+01  1.5119589164626285e+02 -5.9074066535708404e+01 -6.5322136464391278e+01  1.1327777749829821e+02 -7.2468475651245797e+01 -7.3217617602594203e+01  1.3314979566772101e+02 -7.2407001324152688e+01 -8.0444298116938128e+01  1.3468511075996184e+02 -5.5554865264050747e+01 -5.3063359713903267e+01  1.1250524825934963e+02 -2.6497626997367600e+01 -3.8353305151147268e+01  1.1583371207508804e+02 -3.8756253142257243e+01 -5.0562336704625977e+01  1.0421237516305513e+02 -2.5161353044792254e+01 -4.7354805681019748e+01  1.2945690407894844e+02 -4.1398138912356664e+01 -4.7622834905019289e+01  9.8194484864447034e+01 -4.6798915282879264e+01 -6.4109292375102171e+01  7.2512754761068663e+01 -2.0010700704442808e+01 -6.1304368113603921e+01  8.5621758028120709e+01 -6.1215660305662016e+00 -4.0839746591765440e+01  9.1733032063909690e+01 -2.2294472508035090e+00 -2.7571413562369973e+01  7.8263578137674628e+01 1.8669941227749028e+01 -6.4347211536347881e+00  9.6576429736937072e+01 8.1092612800410429e+00 -2.4466190984607561e+01  7.7564276136875733e+01 2.9458571906749789e+01 -1.5445545090988537e+01  8.2409835025578317e+01 2.7427895260335855e+01 -4.2540033570511859e+00  6.5216724852464708e+01 4.3365658165606611e+01 -4.5167505453942827e+00  7.3776726601384013e+01 2.4098642106369518e+01 -1.4604984313360243e+01  6.1303583