<?xml version="1.0"?>
<VTKFile type="UnstructuredGrid"  version="0.1"  >
<UnstructuredGrid>
<Piece  NumberOfPoints="4599" NumberOfCells="19335">
<Points>
<DataArray  type="Float64"  NumberOfComponents="3"  format="ascii">26.0979961605 31.1423082753 22.9256328591  26.3531561962 32.13437291225 22.7431904101  25.88298819175 32.04932354925 23.29239674915  25.47045341975 32.24028706805 22.80930699345  25.667980223 32.9563388232 23.6591606392  26.13814822745 33.0413881862 23.10995430015  26.6083162319 33.1264375492 22.5607479611  25.9861643664 36.5237785751 24.8484220409  25.58082141755 35.91502294465 23.9460467982  25.5631256399 36.6559820852 24.0590596129  25.4415741123 36.2200055842 24.5241318983  26.12541167165 36.21879593555001 24.2703369408  26.24696319925 36.65477243655 23.8052646554  26.107715894 36.9597550761 24.3833497555  26.2292674216 37.3957315771 23.9182774701  26.2646589769 35.913813296 23.6922518407  24.8969838582 35.9162325933 24.1998417557  23.5394492474 35.7666844463 23.8669486525  24.33298202235 36.40263059500001 23.53799062715  24.2182165528 35.8414585198 24.0333952041  24.0166657752 36.765903591 24.13159295805  23.65421471695 36.3278565215 23.37154407555  23.7689801865 36.8890285967 22.8761394986  24.13143124475 37.3270756662 23.6361883811  24.493882303 37.7651227357 24.3962372636  24.6954330806 36.8406776645 24.29803950965  25.61606546165 33.54529111225 23.0513848863  25.4185386584 32.8292393571 22.20153124055  26.3568848664 34.7521274594 23.9506639978  25.2428154751 34.32248874024999 23.3179658045  25.79656977665 35.06384151090001 23.44902481545  25.63918255815 34.6314307693 24.0714932367  25.96051778335 34.44318543035 23.1971365656  24.9214802499 34.5107340792 24.1923224756  25.0788674684 34.9431448208 23.56985405435  26.6844873319 31.0621399796 24.2704365665  26.92695182235 31.2064551859 23.36859426005  27.0146608149 31.03292300745 23.5319744372  27.22019740805 31.16637103805 24.04099611375  26.3912417462 31.10222412745 23.5980347128  27.7559074842 31.2706020965 23.811555661  26.0950314259 35.1449866169 24.8228439682  25.6269343623 35.33418002635 24.07525287675  25.49600764205 35.5306096051 24.51134286195  26.1798452014 35.52939995645 24.25754790445  26.22595814615 34.94855703815 24.386753983  26.31077192165 35.3329703777 23.82145791925  24.1972568433 32.6100785974 23.2082938817  24.93261853315 32.7832087103 23.43372726045  24.8807037718 33.37216099935 22.82595150755  24.7704461675 33.2426137705 23.16830395675  26.8848676528 34.018077042 23.677965095  27.0255086319 32.96851154615 23.19600636465  26.55534062745 32.88346218315 23.7452127037  26.74659194235 33.5722572956 23.11935652805  27.16378434235 33.41433129255 23.7546149316  26.2764239379 33.4872079326 23.6685628671  27.4427010319 32.8105855431 23.8312647682  26.7703485962 31.9764469092 23.37844881365  27.0635941819 31.93636276135 24.05085066735  27.59930425805 32.04059381979999 23.8214102146  26.04059789615 35.834382596 24.83563300455  24.90923205405 35.21348333625 24.19608211565  25.74904238875 34.12977044599999 24.4338263424  25.5082558379 34.82786034805 24.5075832219  26.33581797675 34.44689671485 24.7490870887  26.5766045276 33.7488068128 24.6753302092  26.466744697 34.2504671361 24.3129971035  27.001330848 32.1113810637 24.7903510778  26.17623377745 32.0092394014 23.96479860285  27.22201593995 32.4609833034 24.310807923  26.3346555355 32.53385994345 24.2247558585  26.84290908995 31.58676052165 24.53039382215  24.4788981797 31.9296813972 22.64915389395  24.7350917299 32.06715695515 22.5838736147  24.542653593 32.12830654045 23.23227862545  24.8880503427 31.6465344835 23.2562633692  25.0804884796 31.5853848982 22.60785835845  27.3786191661 31.6909915801 24.3009533694  26.1222923753 33.352572818 24.1672454242  27.00965277975 33.27969617795 24.2532974887  26.7889676878 32.93009393825 24.7328406435  24.368569996 35.32258252555 23.7061373176  26.22450917655 34.07616022165 23.0607871142  24.4073963634 35.84372717605 23.53086055475  23.728629058 35.76895310255 23.36441400315  23.84339452755 36.33012517775001 22.8690094262  23.9178088686 35.7712217588 22.8618793538  23.6898026906 35.24780845204999 23.539690766  23.8401561338 34.7289324578 23.2124328795  23.8789825012 35.2500771083 23.03715611665  26.0124325447 33.8542331413 23.8049123185  25.5641507003 34.1342434013 22.4436091334  25.29473023645 33.7335364512 23.9257415574  25.27801528285 32.30143665335 23.4577120042  25.4930232516 31.3944213794 23.09094811415  26.7307360902 33.8834419274 24.1766476521  26.6208762596 34.3851022507 23.8143145464  26.3417311095 38.1683727341 36.3818359209  27.352622242 38.4007594475 36.4042059407  27.08964305435 38.77308942665 35.93444119255  26.9585284602 38.1991066605 36.0566235311  26.7358248913 38.3700255211 36.7294183305  26.86693948545 38.94400828725 36.60723599195  26.47284570365 38.74235550025 36.25965358235  26.6039602978 39.3163382664 36.1374712438  27.1299186731 38.5716783081 37.0770007401  27.5753258109 38.2298405869 35.7314111413  27.7375953807 39.4429121684 36.28633910255  27.757366664 39.4429121684 35.64412489575  27.27168390745 39.98616100815001 35.847154947  27.25191262415 39.98616100815001 36.4893691538  27.9394075171 40.6559837499 35.5568386502  27.219677984 37.76824576315001 36.3203722836  26.9969744151 37.93916462375 36.993167083  26.6028806333 37.73751183675 36.6455846734  26.8640301571 37.3066509394 36.9093334259  22.3081773459 33.6567008694 28.9791399759  21.3787946883 34.16255440075 29.0655752732  21.46364815995 33.47787644154999 28.61081984415  22.04881204815 34.08082904825 28.27072304795  21.7894467504 34.5049572271 27.56230612  21.11942939055 34.5866825796 28.35715834525  21.2042828622 33.9020046204 27.9024029162  20.619118974 33.2990520137 28.2424997124  20.53426550235 33.9837299729 28.69725514145  20.4494120307 34.6684079321 29.1520105705  24.2321887576 40.6559837499 33.228440404  25.05322420015 39.4717434813 33.52682654975  25.2679264611 40.6559837499 33.4444672281  24.92070721805 40.6559837499 33.00120207729999  24.7060049571 39.4717434813 33.08356139895  24.57940800065 40.6559837499 33.6717055548  24.9266272437 40.6559837499 34.1149707056  25.6092256785 40.6559837499 32.7739637506  25.39452341755 39.4717434813 32.85632307225  25.1798211566 38.2875032127 32.9386823939  26.4481218431 36.9669797103 25.917844517  25.9481191989 36.95560527185 27.04361145655  25.81118692955 37.36621141745 26.50344015805  26.686214382 37.14888658485 26.3208283423  26.58505411245 36.5563735647 26.4580158155  26.7219863818 36.1457674191 26.998187114  26.82314665135 36.73828043925 26.8609996408  26.9243069209 37.3307934594 26.7238121676  26.04927946845 37.548118292 26.90642398335  25.174252016 37.7654431246 27.0890357991  15.3368768443 36.7082779535 32.8031454619  14.3775305406 37.4703951094 32.17412798725  15.23793700205 37.40302188525 31.98537909195  15.3252306826 37.43769249785 32.96592289165  15.3135845209 38.1671070422 33.1287003214  14.3658843789 38.19980965375 32.336905417  15.22629084035 38.13243642960001 32.1481565217  15.1389971598 38.097765817 31.167612722  14.27859069835 38.16513904115 31.3563616173  13.4181842369 38.2325122653 31.5451105126  25.3094453781 36.29507593845 26.99836821355  25.1348494646 36.03204070885 26.44850713665  25.17251310875 36.70568208405 26.45819691505  26.41045819895 36.2933383351 25.9081547386  26.3727945548 35.6196969599 25.8984649602  26.5473904683 35.8827321895 26.4483260371  23.8969043744 36.4443844578 26.9985493131  21.9697587461 32.1690998624 26.9518438643  21.6025578888 32.35503715135 28.15210609595  22.32984015 32.58555274610001 27.32582439105  22.51280912955 32.08113913055 27.7195785189  23.055859513 31.9931783987 28.4873131735  22.87289053345 32.49759201425 28.09355904565  22.6899215539 33.0020056298 27.6998049178  25.9402327826 35.1511144876 34.5608033017  26.7648660419 34.58386872695 34.8012362166  26.2230750531 34.56146136904999 35.12611975735  26.2939329524 34.59726016095 34.29162823404999  26.4111658721 35.1377230536 35.07041128425  26.8820989616 35.1243316196 35.5800192668  26.6476331222 34.0434058343 34.0224531664  21.3146253992 34.0765953517 33.2225027272  21.36787038265 33.60064970259999 32.56317975415  22.12989956705 33.7384659158 32.88866900245  21.78297188475 33.04707158825 32.9936540114  22.9451737349 33.4003364799 32.5548352777  22.1831445505 33.26252026669999 32.2293460294  21.4211153661 33.1247040535 31.9038567811  24.1345461636 34.0134311389 31.7503880732  23.46388976155 33.87767092155001 31.07342712375  24.18570500085 33.70205633755 31.1782158606  24.2241386565 34.37889356655 31.05601247125  24.3137311494 34.7443559942 30.3616368693  23.55348225445 34.2431333492 30.3790515218  24.27529749375 34.0675187652 30.48384025865  24.2368638381 33.3906815362 30.606043648  23.5150485988 33.5662961202 30.50125491115  22.7932333595 33.7419107042 30.3964661743  27.30005621465 36.4933581364 36.4428254774  26.9869174072 36.8986801071 36.2005384265  27.81644015345 36.69643221815 36.78029019055001  27.1098046573 36.4907092748 35.4917434271  27.93932740355 36.28846138585 36.07149519115  24.3602050336 34.4129636855 29.2725976707  23.96881421525 34.43996546205 29.8145738274  23.84028671285 35.0508217282 29.466386288  24.70512196775 34.71735421765 29.8196607126  25.0965127861 34.6903524411 29.2776845559  24.2316775312 35.02381995165 28.9244101313  23.3668422763 35.3572874622 28.5711357067  23.4953697787 34.74643119605 28.9193232461  23.6238972811 34.1355749299 29.2675107855  21.5117276127 40.6559837499 24.9275840595  22.07307985875 40.00516583165 24.40216443975  21.74003862615 39.4200591059 24.53684837135  21.4278819501 39.96204875085 24.552209869  21.3440362875 39.2681137518 24.1768356785  22.3013908722 38.76924118765 24.0114287516  21.98923419615 39.3112308326 24.02679024925  21.65619296355 38.72612410685 24.16147418085  21.9683496396 38.1841344619 24.1461126832  22.6344321048 39.3543479134 23.87674482  22.53074781525 39.4200591059 24.56416757525  22.3024368018 40.6559837499 24.9549032634  22.86378904785 40.
[...]
<PointData  Vectors="u"> 
<DataArray  type="Float64"  Name="u"  NumberOfComponents="3" format="ascii">1.5013297453993340e+02 -1.5243501792273129e+01 -4.7096434771907418e+01  1.7557217445481822e+02 -1.2728731159746738e+01 -5.3033124662987085e+01  1.2025254553482689e+02 -1.3733646159550309e+01 -7.3626319698745476e+01  1.1034393286172288e+02 -1.0446055468792663e+01 -2.0887059336977163e+01  8.9814411799656327e+01 -1.2219262660488868e+01 -8.8259258407350913e+01  1.3481971545250917e+02 -1.1347259766797537e+01 -7.6528182299370869e+01  1.8408313895422620e+02 -1.2439870799228727e+01 -6.4643187729542277e+01  -1.3547180273683797e+00 -5.2029477609986765e+00 -1.1699924906692571e+02  5.5701248088974175e+01 -7.6097343603197141e+00 -1.1677843511369849e+02  4.8590069516848175e+01 -3.1809253473202941e+00 -1.1553470382827284e+02  3.7315528607883635e+01 -6.3991732960941654e+00 -1.0697399941110957e+02  2.7911444446875134e+01 -6.5132109116937196e+00 -1.4445951587364681e+02  8.2173025005209681e+01 1.3272341169512665e+00 -1.5871235745224462e+02  2.1633406446487175e+01 -3.7768413380403274e+00 -1.4713858190357655e+02  7.8364964858579498e+01 5.3088041402701314e-01 -1.4646633235668119e+02  9.4265954478050986e+01 -1.0098127104584847e+01 -1.4687911040701275e+02  5.0931855386229131e+01 -7.0221017618902319e+00 -9.6470786599192309e+01  7.4706004761328572e+01 -1.6775033369644405e+01 -1.0575654141771403e+02  5.9487109999137743e+01 -6.4666780681008715e+00 -9.5958865447886055e+01  5.6777029016058485e+01 -9.1202782950183803e+00 -9.4014030959021554e+01  6.5612613330320372e+01 -5.0290415268877728e+00 -8.9583579319269461e+01  7.0568657055779283e+01 -1.8055723476196732e+01 -1.1476683382955774e+02  4.9651526481017349e+01 -1.1917055831672704e+01 -1.1844014604382618e+02  6.2684976363943143e+01 -4.2580122890632195e+00 -9.8594700807684362e+01  5.7445749309458449e+01 -1.9218712686246497e+00 -8.9206649611717168e+01  5.3194086770684315e+01 -4.1018541071997827e+00 -9.4322796434449970e+01  1.0433335464109904e+02 -5.0880147116289178e+00 -6.1740372645927494e+01  1.2833387641153783e+02 1.2983511830053367e+01 8.3622215004738596e+00  8.8716308481952652e+01 -2.0402121182380686e+01 -1.5311014953995476e+02  7.8386641533851829e+01 -3.8819581114854760e+00 -7.2711878350813990e+01  8.6582785210513663e+01 -8.9603587613578632e+00 -1.0211003249985134e+02  6.0211567235265903e+01 -1.4792767640412199e+01 -1.1072014019811824e+02  1.0802418593339037e+02 -8.4742662981002841e+00 -8.9091945606962526e+01  5.3148456943569052e+01 -1.1690012171055937e+01 -9.4309754488766742e+01  6.4244724453843702e+01 -6.3508352712259271e+00 -8.7657947387848935e+01  1.5701986367995079e+02 1.5156759681447062e+01 -2.0001269121828992e+02  1.9928303858696017e+02 -3.4591251742247753e+00 -1.3775294612521247e+02  1.9086901959194148e+02 2.7330587114728363e+01 -1.6139656189426447e+02  2.1360158190838129e+02 1.0038877320421209e+00 -1.5114448565847570e+02  1.5932112547028109e+02 -6.1624552042601932e+00 -1.2993538093898349e+02  3.1738199003434448e+02 -6.6341173839726963e+01 -2.0586399273929680e+02  6.9026913216145251e+00 -2.2162351243148176e+01 -1.2235703138223424e+02  5.2808509341318768e+01 -1.1593733551594950e+01 -1.1461304370256893e+02  3.8449397565943677e+01 -1.1307913496008773e+01 -1.0765821748413853e+02  2.7729546393935394e+01 -1.8395074323029966e+01 -1.4571054913283874e+02  3.5957448459057773e+01 -2.3227456150698771e+01 -1.4342681653221018e+02  9.4078621075666646e+01 -1.7959164882426517e+01 -1.6331987836825229e+02  1.1273887500282388e+01 -1.9086232425511881e+01 -1.7327529094538061e+01  5.9602404015435582e+01 -1.3286205397750372e+01 -5.3179463582838046e+01  7.6255702240178778e+01 3.8929861172900004e+00 -2.1359706502380806e+01  5.7778216993289696e+01 -5.7727169198706108e+00 -4.2233181949815126e+01  1.4299221126002246e+02 -2.0756544955671128e+01 -1.5902287135366925e+02  1.8497705916825365e+02 -2.6706453163479303e+01 -1.1387243170571708e+02  1.2962995826205415e+02 -2.3067819721219411e+01 -1.2996808136232337e+02  1.6137606996895505e+02 -1.8271581063574938e+01 -1.0611674822015178e+02  1.6851650335123858e+02 -3.2886727955872736e+01 -1.9515374997411433e+02  1.1380617942130749e+02 -1.7756208472827097e+01 -1.1732001388287351e+02  2.0345678728728114e+02 -3.4969530913603059e+01 -1.8109029811884827e+02  1.7254961026367872e+02 -1.9815040118321935e+01 -1.1520629025996655e+02  1.6310337773261813e+02 -4.2375253502993083e+01 -1.7749854991475559e+02  2.5297338692942552e+02 -3.5842735136094149e+01 -2.1568382274430701e+02  -5.0162309463427679e+00 -1.3009352188041353e+01 -1.2591674108838433e+02  5.2528407673895558e+01 -8.9419441615059565e+00 -9.3857688084644820e+01  5.3042398645387870e+01 -1.8939640892997939e+01 -1.1230456771332038e+02  4.4079423115129181e+01 -1.3965169143332414e+01 -1.0534225954014887e+02  1.2380171861661145e+01 -3.4264355051277569e+01 -1.4100691547976666e+02  5.1085538051874508e+01 -3.3521384470270021e+01 -1.6009720196546326e+02  6.3585934591669066e+01 -3.9283466803010121e+01 -1.6445610026762975e+02  8.1393622981144276e+01 -1.0574791817464095e+00 -2.2014981498453409e+02  1.1248994627480712e+02 -9.2848761194824601e+00 -1.2606820785718503e+02  1.3682105351483304e+02 -2.4594907539801163e+01 -2.0051368113700264e+02  1.0394512066449440e+02 -1.2399553416130534e+01 -1.3716059843670413e+02  1.4287688913662058e+02 2.0342282136078598e+01 -2.4085865791659026e+02  3.1809513758144313e+01 -5.7312285165591945e+01 4.7870918461030023e+01  6.1802621227994813e+01 -2.7126755014477279e+01 3.8621621680404367e+01  2.4820810295026902e+01 -3.1964914571899715e+01 -3.0048280059407599e+01  4.3737324641925177e+01 -2.1401497402779807e+01 -4.5648524896118516e+01  7.4376353481041718e+01 -4.5529449148972624e+01 1.7599281107317402e+01  1.7885465786174848e+02 -1.0284306036446137e+02 -1.6336373854270514e+02  8.5350444443237990e+01 -1.7803007866172329e+01 -1.2386019013844277e+02  1.1008039852346842e+02 -4.1300503048674955e+01 -1.7056539003134057e+02  6.4951249803874333e+01 -2.4999725338379545e+01 -1.9235037057062317e+02  5.2111458194218102e+01 -7.7109513523313131e+00 -8.9298245267740072e+01  1.2799138824838195e+02 -9.6533680357765608e+00 -8.8018889947995305e+01  5.2808190210858626e+01 -5.4307555607629192e+00 -9.2435784069683976e+01  4.2444144007029067e+01 -1.4358406285856404e+01 -1.1156332582371448e+02  1.4612477557815016e+01 -9.0786640372051277e+00 -1.1708520829929074e+02  1.2476574627380753e+01 3.9851605024747445e+00 -8.1365035562704250e+01  4.3574073438078848e+01 -1.4383400531495639e+01 -1.0418802358324348e+02  1.4505767200124794e+01 -7.1928928715697404e+00 -7.8623946801869351e+01  1.5467806805347907e+01 -2.2696471540245908e+00 -9.0362890089867619e+01  9.0050748836858276e+01 -1.6027416543317678e+01 -1.1118433077687978e+02  1.1526867714318129e+02 8.4051331634489550e+00 -4.0590733263490307e+01  6.7071439970570779e+01 -1.0486653899637661e+01 -9.0960847974320529e+01  7.5906189042043977e+01 -1.2486956382465753e+01 -6.3083124123379825e+01  9.1808760870628461e+01 -3.2511443913401436e+01 -5.4038915536971622e+01  9.0645616773438690e+01 -3.3377802310848736e+01 -1.6323688954280121e+02  1.1791065139526499e+02 -1.4099737436647924e+01 -1.5418141021863863e+02  1.2500700871721399e+02 -5.3972064368489816e+00 8.8668156196785887e+01  9.9858796662211034e+01 7.3626685745740037e+00 9.2204775913594247e+01  1.1333612755749489e+02 3.2160076348481978e+00 9.9805369574797368e+01  1.0638720970908997e+02 4.3442934106331238e-01 9.0228312054536403e+01  1.0768755963717837e+02 1.6663543532269948e+01 1.0394560858180900e+02  9.5084681979050444e+01 2.7032271369831900e+01 1.2299851040858609e+02  1.4902042274167508e+02 -7.4838197603262904e+00 1.1845028143093742e+02  1.5267036744685879e+02 4.2335594681253372e+00 1.2662488409944665e+02  8.7879050728800465e+01 1.5808863290435298e+01 9.9829409801175615e+01  1.0530343945213183e+02 2.4183863353214443e+00 9.0692617291836115e+01  8.9829782920010913e+01 2.2742902406766881e+01 9.1366881116839053e+01  1.0830369664207210e+02 1.2420530775258559e+01 9.3693009089256847e+01  1.2677017952463670e+02 3.4888937362634358e+01 1.5995488848512082e+02  4.9296284734473204e+01 7.2361000429317968e+01 9.0772668888249228e+01  1.1398621115251747e+02 2.9706772746483981e+01 1.0736133231147181e+02  1.0048606240982070e+02 2.5539619892530543e+00 8.5923428402511334e+01  9.9483593141484945e+01 9.5489666974071579e+00 9.8794618551252711e+01  1.1248834849102377e+02 5.7506139047127069e+00 9.1830468256171656e+01  1.0369672562663534e+02 8.6894825704409424e+00 8.7117735668836744e+01  5.6166910059595693e+01 5.4267196245778926e-01 -9.7035270317927953e+00  6.4248560314532227e+01 -4.2431629476017836e+00 -1.5456802656962838e+01  5.9992629652250997e+01 6.4855475491008641e-01 -1.3813268008899938e+01  5.8635374483631274e+01 5.1973574058008687e-01 -1.7314803944951972e+01  6.3182114667734595e+01 7.9813332192626663e-01 -2.0939039736023354e+01  6.0638588076736553e+01 -3.9868314747887346e+00 -2.0334193956812602e+01  5.8620015589074079e+01 5.2820195723555463e-01 -1.7059865453114231e+01  5.1708952067277046e+01 1.4082259889420710e+00 -1.5989308744426399e+01  5.7002622047663287e+01 -5.3955389509832656e+00 -2.1999974293458109e+01  6.7310564153142749e+01 -1.2542527130270004e+01 -2.9542187912153768e+01  4.6814035946704962e+01 7.4152226062700194e-02 6.0331951550153683e+01  6.3480017952181825e+01 -8.5966522402029408e+00 7.0569843116651086e+01  5.8912144353640002e+01 -2.2195267862684787e-01 7.4520957327202368e+01  5.1087031467224641e+01 -4.0286274912611375e-01 7.1718546923933289e+01  5.5964024078622678e+01 -5.2576520057336253e+00 7.0665502193102213e+01  6.0766039183930751e+01 -1.9533405504857382e+00 5.0690637458481028e+01  7.7786121568818544e+01 -4.3480812389729007e+00 6.3274569043889286e+01  4.2987041618377887e+01 -4.0483279496781943e+00 8.8920659603138517e+01  5.3246834101187780e+01 -1.0695497730968523e+01 8.1822124959589331e+01  6.5443411812226643e+01 -1.3361230060588806e+01 8.2173698479344935e+01  -1.8965633865905485e+01 -2.2068151053201862e-01 -5.1520962681606143e+01  1.0357745660519130e+01 -1.0467977881202943e+00 -3.5289099798707291e+01  8.5836201258120131e+00 -9.7594230201523613e-01 -4.6992270459699185e+01  -1.5310723193409508e+01 1.8174058980414378e+00 -3.4631244999384521e+01  -1.0729614665542206e+01 -2.8726941562573804e+00 -3.5651596853489458e+01  -2.0665309221547781e+00 -4.7200806618428226e+00 -2.7378768253062116e+01  -4.7149093129644255e+00 3.4902288696175215e-01 -2.1250965844898925e+01  -8.3467460683020249e+00 1.2608124719289484e+00 -2.4665642261607818e+01  7.5363484935879095e+00 -2.1732719657683056e-01 -3.6548644278148643e+01  2.4416560408427912e+01 3.3881583807987680e-03 -3.7392404701088772e+01  1.6100008011668476e+02 -3.6321734248481597e+01 -7.4839982503705585e+01  1.6597477119877661e+02 -1.8167154598630834e+01 -6.4861352545555619e+01  1.6417236596791426e+02 -2.0218999433400093e+01 -6.8664418007725345e+01  1.5766730566541403e+02 -2.4311502096391479e+01 -7.9639564445255445e+01  1.5628277032716511e+02 -1.5642811398079868e+01 -8.3091436136534654e+01  1.6417066663224819e+02 -1.2419164234489923e+01 -6.9114091188762288e+01  1.6201878851864706e+02 -1.2475503043017449e+01 -7.4029906080702233e+01  1.6856651362752967e+02 -4.9117316605146426e+00 -7.0882129390514280e+01  1.7525084565335163e+02 -8.0327986034713543e+00 -6.7295568699073527e+01  1.8071370090405713e+02 -8.2747316486730362e+00 -6.0909390776728813e+01  2.3481723377308519e+01 -1.9848508313029021e+00 -4.2228450004394439e+01  2.5512042127043795e+01 -4.2407669493629756e+00 -5.3524047856539227e+01  2.4054441289101437e+01 -2.3142510665462246e+00 -5.1544789410023377e+01  -1.5309275612006413e+01 -6.2524380334830294e+00 -5.2228817507840517e+01  -1.4842518176396307e+01 -1.2096963092336031e+01 -5.8770928283989349e+01  -9.9841880533773217e+00 -6.7511456714427309e+00 -3.9188651978610039e+01  4.6463078503912840e+01 -1.2225866812566035e+00 -3.9532030411520743e+01  7.3214225155207913e+01 1.4591090322695592e+01 -1.6501329952495187e+01  5.8979479025900368e+01 6.8283022941400784e+00 -1.0436123730597668e+01  6.5576364450714294e+01 9.4280088072280446e+00 -2.3198102926561962e+01  5.8402809916917249e+01 9.6261803491111202e+00 -1.8621912797990742e+01  4.9526243860842939e+01 6.5576628589607981e+00 -1.2155483693275112e+01  5.3489138831802279e+01 6.9000481785115397e+00 -1.8779286111905776e+01  5.8169462048771166e+01 5.9191290728008594e+00 -2.4252890983592316e+01  9.6826361307602127e+01 -9.6688511957238479e+00 5.3265253031735838e+01  9.3046312195344314e+01 -9.5531963040340759e+00 5.9322718577014875e+01  9.9291286305362021e+01 -7.6744177042352950e+00 5.9970191150837586e+01  9.4182279369509729e+01 -1.0142320915534112e+01 4.8674976951745123e+01  9.6866197342593395e+01 -9.0832217522641674e+00 6.0495305980096532e+01  9.6530514019199757e+01 -8.5318597244267664e+00 6.7845243435121148e+01  8.9091342125394604e+01 -9.2977877474128672e+00 4.4274124568907844e+01  1.1341847875700815e+02 4.4011852414319534e+01 6.8428424556673761e+01  1.1191820951076426e+02 1.4832261658149047e+01 4.2710189467921360e+01  1.0133984653145626e+02 1.9572503071188525e+01 5.6060691781664715e+01  1.1162685279242120e+02 1.5374139970996406e+01 3.9320601279516069e+01  8.8290031424788907e+01 9.6764382172933150e+00 6.1598086167987404e+01  9.1774654632287834e+01 7.6093717018405052e+00 4.2899481580954792e+01  1.0045428809803424e+02 1.9061609373573657e-01 2.4408419024696158e+01  4.4726876243006743e+01 5.5323111896007859e-01 1.1345670413225696e+02  3.4560369049296547e+01 2.8049434140068179e+00 4.3628643339004967e+01  -1.2210186923135932e+01 6.2402532831818025e+00 5.4326037942731837e+01  -1.5508396197093656e+01 2.4440746757851444e+00 4.5967230099549809e+01  2.8003351540919299e+00 5.4629506309630278e+00 9.4494150987018894e+00  3.1282657950645376e+01 2.3307391343690904e+00 1.7223314055877239e+01  -3.0090748467999795e-01 2.4664689103541786e+00 1.2331029615443496e+01  4.4903284128321435e+00 -2.2670205083283528e+00 1.5520967004810114e+01  3.3279081555779875e+01 -3.4979155263525219e-01 2.0469892598301410e+01  5.3574701660395966e+01 4.3417403880320421e-02 1.6306074173435011e+01  9.8783400943648218e+01 -2.1806889465193535e+00 7.2777413456596477e+01  1.0027912104966066e+02 -3.0079782197428715e+00 7.6332740260239476e+01  9.4134025048974209e+01 1.8958128604531725e+00 7.7823643970274730e+01  9.6216980145879404e+01 -8.0605511415897393e+00 7.5080027054926035e+01  9.5799696120224866e+01 -4.6227675088102194e+00 7.1620419396349348e+01  2.7245911937198848e+01 2.6417533881480684e+00 -1.6820315396721494e+01  2.5622634667115026e+01 3.2211035710591389e+00 -2.8409182202911487e+00  3.3286704661167761e+01 3.7083662318937085e+00 -6.2588850329596273e+00  1.4387755647537903e+01 5.1784979813952328e+00 -1.9316116058199118e+01  2.1551933098082362e+01 4.1077442661599797e+00 -2.4253147656526824e+01  3.2844294226854750e+01 2.9578064578178562e+00 -1.7728533160553614e+01  4.7468891049547345e+01 8.1708995970739939e-01 -1.7340625859283254e+01  4.3288217813242596e+01 1.3114415669252459e+00 -1.3700349345758312e+01  3.7525853108285460e+01 1.7491095013724549e+00 -8.9650915993009264e+00  7.4149373901377004e+01 -7.4830348772052044e+00 -2.1977131433874728e+01  8.1279342788532261e+01 -3.2771334371950054e+01 -1.3398297187648801e+01  8.4847113663099350e+01 -8.7722309969250833e+00 -2.7947720558742070e+01  8.0329184579677928e+01 -8.0418059843801952e+00 -3.4770775720253631e+01  8.2454159348137409e+01 -6.5371551794325189e-01 -2.4385452259969039e+01  1.2686479270476075e+02 -2.0098068257368418e+01 -4.3173739333513481e+01  1.0488478693411092e+02 -7.4918963003619812e+00 -2.6801768231180489e+01  9.6692205103416143e+01 -1.1595889614871597e+01 -1.5356206541499146e+01  1.0586437225913541e+02 -7.3171048244888075e+00 -4.7750880684989987e+01  1.3037389008514828e+02 -1.7811706583570892e+01 -7.8479228259850501e+01  1.0068553518145164e+02 -1.7356479933003232e+01 -4.8347117842194614e+01  8.2201386924791294e+01 -1.2627764602363090e+01 -1.3398524627482427e+01  1.3548992121455743e+02 -1.7526662287052979e+01 -6.6951239161139924e+01  9.3581522041550144e+01 -4.8268902155376550e+00 -5.5065712615942864e+01  1.7588997043943777e+02 3.5019247295523752e+00 8.7987340421356677e+01  9.0407672010908627e+01 6.8877075540475667e+00 8.4208394968479752e+01  1.1572932869550044e+02 4.9162888803168849e+00 7.1682359009295467e+01  1.1040421230217412e+02 4.4866029539820138e+00 7.2503900736236858e+01  1.1560693137564679e+02 1.4239353892865177e+01 1.2088066222655796e+02  1.1211092013294302e+02 8.6257868242010058e+00 1.3029899098231417e+02  2.0659713192928268e+02 3.1950361022513675e-02 9.1227735224367862e+01  2.0853672083542463e+02 -1.4151374186355183e+01 5.5856774103188229e+01  7.6911114188212323e+01 1.7785953994971017e+01 1.1947496970781106e+02  8.4755368108134888e+01 3.6234592648193429e+00 5.8694461115762898e+01  9.5501485606871483e+01 4.3902563044304070e+00 -1.0301800727318833e+02  7.9321929090938994e+01 -3.8565076242048484e+00 -6.7825267501526724e+01  6.2878785508977280e+01 -1.1894114618836282e+00 -6.9447204180902105e+01  8.3897653705744389e+01 9.2670678411661866e-01 -6.4907148980226665e+01  8.5291703560079782e+01 -1.1974644899714019e-03 -4.9535268444684142e+01  7.7234645632538971e+01 -4.3936884240918950e+00 -5.0755024564724941e+01  7.4602893202911034e+01 -1.5819641157040179e-03 -5.1866244109560455e+01  6.3899777868698415e+01 8.4137806383303781e-01 -5.0186601482231133e+01  6.8047834536958234e+01 -4.0098165186085168e+00 -4.9622332629500939e+01  6.7028222003494932e+01 -1.4120954344571954e+01 -4.8063713654164523e+01  8.7297102840415121e+01 -1.5492582648339280e+01 5.4090251921497590e+01  9.1449377882875453e+01 -1.2684076037960173e+01 6.3768795229851705e+01  9.4618783932790294e+01 -1.3415352185439749e+01 6.7767436660638310e+01  8.7209405777818915e+01 -1.5464926128529664e+01 6.1017206398574714e+01  8.4751931129623131e+01 -1.2307874510339214e+01 6.2240023528299716e+01  9.6659262067523017e+01 -1.1056890990715194e+01 6.1561125673798955e+01  1.0510675056020779e+02 -8.8591755789408140e+00 6.9152385750691565e+01  8.3078115885624257e+01 -1.7496333921409516e+01 7.2234504445117352e+01  8.4632306964027478e+01 -2.0246904967003747e+01 6.8098096850010990e+01  8.9978925981684029e+01 -2.1544198933429179e+01 6.4227784369468722e+01  2.0508360272743747e+01 2.2259237570954777e+01 -5.0081971205906129e+01  6.4241164248921876e+01 -1.2426326636462437e+00 -6.2094600283629831e+01  5.4431268209818938e+01 -3.1996904336151792e+00 -6.1256742715724798e+01  3.8743576503931905e+01 5.8370981755007172e+00 -5.1307277460087356e+01  4.3054319759305791e+01 2.0300869961103745e+00 -3.7847180320791942e+01  6.0396316330788437e+01 -4.0216746488138959e+00 -4.8878297103081159e+01  5.3258549975355535e+01 -4.3363168726807606e+00 -4.6242381590364353e+01  4.8747638246712050e+01 -2.8782899569042140e+01 -3.9128490256731411e+01  5.7096557514982855e+01 -2.0836007034051008e+01 -4.6570280725528150e+01  1.4890898099005835e+02 -1.5399670219638776e+02 -5.5806878624185835e+01  1.3970061577008849e+02 -8.6687211821089335e+01 -3.7434146846794903e+01  1.4308380824101829e+02 -8.0006334551175712e+01 -6.1629853424058894e+01  1.4594765919723417e+02 -9.8716383106742143e+01 -4.5095890187958901e+01  1.3028107393958695e+02 -1.0530575212900457e+02 -5.6766551899204764e+01  1.3367664421532385e+02 -1.3267192422730051e+02 -3.7831118524292222e+01  1.4351353478244042e+02 -1.2279093260171319e+02 -8.1096320817349493e+01  1.3272826805927320e+02 -9.1550461586866234e+01 -9.3621836807381726e+01  1.3627097085529371e+02 -1.1034107493613310e+02 -1.5337190520436414e+01  1.4653638109651553e+02 -7.6437091405422350e+01 -4.5400613445968006e+01  2.0498069191399205e+02 -2.8696378371012010e+01 -1.5991360498624756e+01  1.3835991726243307e+02 -1.5645939543414565e+01 -4.6483361531423647e+01  1.3686915167697762e+02 -1.3166115288912348e+01 -2.5565371466298618e+01  1.7060699145937286e+02 -2.2273103528245620e+01 -3.5236235133554366e+01  1.4690159555980665e+02 -5.2193067497559831e+01 -5.3978467617882728e+01  1.5908779957304267e+02 -1.6976314873217472e+01 3.3468697948289217e-01  1.3680616983633817e+02 -1.0147271906