<?xml version="1.0"?>
<VTKFile type="UnstructuredGrid"  version="0.1"  >
<UnstructuredGrid>
<Piece  NumberOfPoints="4444" NumberOfCells="20454">
<Points>
<DataArray  type="Float64"  NumberOfComponents="3"  format="ascii">27.2515565101 -0.6702492376 16.7403410831  28.0339229924 0.47000078855 17.3347769698  27.9562030554 0.7454547322499999 16.81242753255  27.7645069756 -0.6702492376 16.7675061165  28.2774574411 -0.6702492376 16.7946711499  28.5468734579 0.47000078855 17.3619420032  28.4691535209 0.7454547322499999 16.83959256595  28.6608496007 2.1611587021 16.884513982  28.7385695377 1.8857047584 17.40686341925  28.8162894747 1.6102508147 17.9292128565  27.4100996481 -0.6702492376 17.7323036087  28.1131945614 0.47000078855 17.8307582326  27.8437785446 -0.6702492376 17.2634873793  27.3308280791 -0.6702492376 17.2363223459  30.3677723531 2.4583158321 18.6066933079  30.45571212235 1.6928100625 17.9393112067  29.94591813515 2.22311791955 17.69421174645  30.35470052925 2.24580035585 17.7900047003  30.0600015521 1.88264310245 18.66020686045  30.4687839462 1.90532553875 18.7559998143  29.958989959 2.4356333958 18.51090035405  29.5502075649 2.4129509595 18.4151074002  30.5697955393 1.3523352454 18.9053063207  30.3416287054 2.0332848796 16.9733160927  28.7714382664 -0.6702492376 18.1355860596  29.31350957055 0.47000078855 17.3627644113  29.54554609815 0.47000078855 18.170545226  28.79386387055 0.47000078855 18.03239945805  29.2910839664 -0.6702492376 17.46595101285  30.2748027216 -0.6702492376 18.4118775955  30.042766194 -0.6702492376 17.6040967808  29.8107296664 -0.6702492376 16.7963159661  27.9528270523 4.9988550531 16.3754094842  29.35307795155 4.6381344018 16.95481937115  28.9769876902 4.8358578742 16.13342891725  28.60781904245 4.40896422465 16.3348627532  28.6980859614 5.22802523025 16.99536610215  28.32199570005 5.42574870265 16.17397564825  28.6911643478 5.8526423522 15.9725418123  29.06725460915 5.6549188798 16.7939322662  29.4433448705 5.4571954074 17.6153227201  29.2628110326 3.8190733962 16.2943160222  28.52444785375 -0.6702492376 17.46512860475  29.04409355375 -0.6702492376 16.795493558  29.5047854117 3.3568323924 18.0509194714  29.802219869 2.9261791379 16.63381605745  29.38379822215 3.5879528943 17.1726177468  29.0828175062 2.75899554725 17.4677167267  29.92320705855 2.695058636 17.51211778205  29.50123915305 2.09722179085 16.92891503735  28.96183031665 2.99011604915 16.5894150021  28.1948897078 4.27396403265 17.05956875195  27.57990717725 4.45308072705 17.08470070285  28.4095662192 4.7190843707 17.13682973955  27.7381505409 4.55373471505 16.2981484966  27.5234740295 4.108614377 16.220887509  27.36523066585 4.007960389 17.00743971525  28.8663053861 4.4393136883 17.8982499949  28.03664634415 4.17331004465 17.8461209582  27.2069873022 3.907306401 17.7939919215  28.86079067525 3.6798850801 17.30298951285  29.06455820935 4.12919354225 17.09628300855  29.1855453989 3.89807304035 17.97458473315  28.662537852 3.99000522615 18.1049564992  28.4587703179 3.540696764 18.3116630035  28.9817778648 3.4487645782 18.18129123745  28.8010991384 2.5832168988 18.616354069  28.163765521 2.10119592615 17.79810992715  28.15617035285 2.5876789682 18.1416805334  28.73097436955 2.37218780045 17.7504340255  28.80869430655 2.09673385675 18.27278346275  28.086045584 2.37664986985 17.2757604899  27.5112415673 2.5921410376 17.6670069978  28.38702629995 3.2056072169 16.98066151  27.9850059426 3.0664189008 17.98933500065  28.5598099593 2.85092773305 17.59808849275  27.6683908899 5.9615966394 16.9240852977  29.0249851093 6.1698531957 17.0087105638  28.5558678802 5.7093960234 17.2697040089  28.17977761885 5.9071194958 16.448313555  28.137508119 6.4220538117 16.6630918526  28.6066253481 6.882510984 16.4020984075  28.64889484795 6.3675766681 16.1873201099  28.39314253105 3.9638438866 16.2576017656  27.85857934925 4.34538303345 15.668280276  28.07325586065 4.7905033715 15.7455412636  28.193684669 4.5821516899 15.115673043  28.7282478508 4.20061254305 15.7049945326  28.4424245084 5.21739702105 15.54410742765  27.5173577984 3.3503777073 16.9439472534  27.9911221737 3.8246555705 17.26627525625  27.8752396671 1.452421394 15.3299983687  28.9982050691 1.2034185196 15.1950429465  29.23077091115 0.4914516981 15.7299007482  28.6983604023 1.5527870139 15.61816747555  28.1750843339 1.1030528997 14.90687383965  28.40765017595 0.3910860782 15.44173164135  28.9400606848 -0.6702492376 15.553464914  28.70749484275 0.04171758390000002 15.0186071123  28.4749290007 0.7536844054 14.4837493106  29.5214811375 1.6531526338 15.9063365824  29.57895909005 1.82176784715 17.4512644746  29.1832485198 2.0116008871 18.17216012835  29.91250514325 0.8713508609499999 18.41349249785  30.3082157135 0.681517821 17.6925968441  26.6487508738 8.612222818099999 8.855233397499999  26.83049351025 8.13343025715 9.2518371708  27.0717368629 8.45052771295 9.6199270336  26.35752890525 8.260735347200001 9.34569147515  27.1217154788 8.48491772805 8.76137909315  27.5946800838 8.357612638000001 8.6675247888  26.0663069367 7.9092478763 9.8361495528  27.61814269015 2.7457736696 16.609365121  27.1911570413 3.07468746385 16.1200708307  27.62425892125 3.5040103393 15.8863053766  27.09037214955 3.67929150155 16.4546529631  26.6572702696 3.2499686261 16.6884184172  27.725043813 2.8994063016 15.5517232442  30.0761791859 0.681517821 16.8848160294  29.23578963355 0.7454547322499999 16.84041497405  28.8994692893 0.4914516981 16.35050386615  28.0871777307 0.007675372050000018 16.3088225328  27.8968980203 0.6855999817 15.8229739157  28.7091895789 1.16937630775 15.86465524905  28.2788738105 1.4233793419 16.35374394885  29.0911653691 1.90715566795 16.3954252822  28.0921618151 3.13488653955 16.5527007455  28.19294670685 2.53028250185 16.2181186131  29.52980161525 1.99587760215 18.6563273811  29.5093956656 1.5788042448 18.897547362  29.16284257015 1.59452752975 18.41338010925  29.8920991936 0.4542775036 18.65471247875  28.4939274228 3.3592398489 15.9230196332  27.959364241 3.74077899575 15.3336981436  29.66610540195 0.4914516981 16.35132627425  29.93155492145 1.8432187567 16.43982633755  29.39214608505 2.736113015 16.1003263023  28.267348138 5.20045516385 17.4111676463  27.8106089711 5.48022584625 16.64974739095  29.1548251283 4.94825454785 17.7567863575  29.93858400935 2.01856003845 18.75212033495  30.03959560245 1.4655697451 18.90142684135  27.8860688437 1.06901068785 15.5764861422  28.2680446339 1.80679004805 16.10725617535  28.62993472815 3.0619568314 18.46400853625  28.62326247525 2.2762794677 15.7290299133  27.80014174005 2.1759138478 15.44086080645  29.5274964883 2.88489167595 18.2330134358  29.1055285828 2.2870548308 17.6498106911  29.37316712365 6.16131641715 16.3421207671  29.3308976238 6.67625073305 16.5568990647  29.749257385 5.96359294475 17.163511221  30.0551698995 6.4699904821 16.7116997219  29.70624206985 7.2592661401 16.6294848378  29.5207141265 6.759466983899999 16.0201943315  28.98196979415 7.46552639105 16.4746841806  29.17178629685 7.548742641900001 15.9379794474  29.3573142402 8.0485417981 16.5472699537  27.0090924635 1.6224351814 16.4539738302  27.2601670154 2.1072881095 17.060490414  27.8349710321 1.89179694175 16.6692439061  27.36706813825 2.2609207415 16.0028485372  28.61135535015 6.1775381943 17.4597773875  29.5543198104 6.3934797492 17.9954694773  29.49883234045 5.925337578300001 17.8053960987  29.08047257925 6.6379953666 17.1987839424  27.6432749523 0.4760929719 16.62432249005  27.1303244868 0.4760929719 16.59715745665  25.0391776176 7.5816146546 9.715240376400001  25.78834673365 7.51059874365 9.5952008169  25.8864339187 7.468035984 10.0954120882  25.37286925915 7.30421937315 10.0349575  25.2747820741 7.3467821328 9.534746228700001  25.7065609007 7.0268240917 10.3546746236  25.60847371565 7.06938685135 9.8544633523  25.5103865306 7.111949611 9.354252081  28.41847935255 0.007675372050000018 15.68821941485  28.60875906295 -0.6702492376 16.17406803195  28.83871135065 6.45079291895 15.6506153767  25.77169656015 8.033655630550001 9.3288401171  25.4937363571 7.6350064979 9.0878913812  26.83318136655 2.43620190375 16.5711961237  29.80474485495 6.43173511565 17.3535845996  29.6176114828 4.26433575275 17.02595951575  29.73859867235 4.03321525085 17.90426124035  29.41935865955 4.5744558988 17.8279265021  29.972411933 4.7095981093 17.7576030093  29.70787840175 5.08339675835 17.6864628647  29.4558170253 7.221010773650001 17.2713697155  27.2095960558 0.4760929719 17.09313871945  26.73438363485 1.1731677035 16.88298516285  26.4596748062 0.7239002256 17.3119964955  26.85561565815 0.02682549400000001 17.0261687893  26.93488722715 0.02682549400000001 17.5221500521  27.2084968101 6.8667157749 12.1226951317  27.2288260357 7.8409407729 11.25358785575  26.85227974885 6.9132820781 11.68388573505  26.44221954075 7.3035768914 11.73755115335  26.4960626876 6.9598483813 11.2450763384  27.4421660653 1.5374282877 15.89198609945  27.4529952419 1.15401758155 16.13847387295  29.17565335165 2.49808392915 18.5157307346  29.15294227505 2.9700246456 18.3336367702  29.155247402 2.0810105718 18.7569507155  27.5742272652 0.007675372050000018 16.2816574994  30.42229913045 0.3410430039 18.6585919581  28.1859135105 0.71964219355 15.15336161315  29.9362788824 2.90757411225 18.32880638965  27.43768909605 4.9344515202 17.3590386096  28.09076895725 -0.6702492376 17.93394483415  29.3753951756 -0.6702492376 16.17489044005  30.0682697779 7.3331790245 17.27724257885  29.81784473335 7.294923658049999 17.91912745655  29.71934194825 8.122454682499999 17.19502769475  30.0813696563 8.196367566899999 17.8427854358  27.3813990387 0.9609458999999999 17.20367404045  27.4606706077 0.9609458999999999 17.69965530325  30.2314256915 9.2358355778 13.3590332947  29.84143844065 8.5592390481 14.96628016355  30.4210782305 9.15699717945 14.55026773205  30.39758497225 8.4891177213 14.0776550466  30.563744253 7.7423998648 14.7962767985  30.58723751125 8.41027932295 15.26888948395  30.6107307695 9.078158781100001 15.7415021694  35.0358036668 3.68265543
[...]
<PointData  Vectors="u"> 
<DataArray  type="Float64"  Name="u"  NumberOfComponents="3" format="ascii">3.9598117713626081e+01 -8.7861388439252526e+00 -4.2262747076516376e+01  1.3293327750512506e+02 -8.6929283494715559e+00 -9.6112143184596150e+01  1.2435455727039795e+02 -5.1961575365941943e+00 -1.0171529050781864e+02  1.0545577697881423e+02 1.1716458243071108e+01 -3.3632143299352322e+01  1.3272774270839321e+02 -2.4306709226770543e-01 -9.0951439554139682e+01  1.2967272587658954e+02 -5.6856564757621850e+00 -8.4058611297266665e+01  1.1884229572758987e+02 -4.2546066744395494e+00 -8.6484902998575862e+01  1.3434409904416916e+02 -6.8454084705494456e-01 -8.7378872267376039e+01  1.4631016765374304e+02 -1.9360488991718197e+00 -8.2241317232486793e+01  1.6269788859790003e+02 -1.4670584953255923e+00 -8.3011343924542530e+01  1.1686546373397042e+02 -1.1805604282115098e+01 -1.3113201527834426e+02  1.3761632557085892e+02 -9.2005007701137487e+00 -9.7183545079440137e+01  1.0361842397864844e+02 -1.4019162705383608e+00 -8.2601148877048857e+01  3.1834365653754368e+01 -2.9370944588613646e+01 -9.7614025197714156e+01  1.5259391103042771e+02 4.7503216093156752e+01 3.4474881953406566e+01  1.3302154338439016e+02 2.0077224061882458e+01 -1.1054851003577518e+01  1.4584048260890202e+02 2.0837868884639857e+01 -2.6971092817765246e+01  1.3783509857052593e+02 2.4373320762378885e+01 -9.5239163440826307e+00  1.7864246190070088e+02 3.4855090269042392e+01 -9.4120204869815218e+00  1.6847892234472548e+02 4.1685652962073462e+01 3.4226696312288404e+01  1.8483912597770947e+02 5.1766429022831822e+01 1.2406036129144450e+01  2.1682896468937119e+02 3.1012743927672862e+01 -2.9222494933091188e+01  1.5065896895394891e+02 2.0006661297260763e+01 2.7602767724799051e+01  1.1356855338515545e+02 1.5848738730652544e+01 -2.9374174165086028e+01  1.7764008298048017e+02 -9.2793492155074109e+00 -6.0846575331359759e+01  1.2776636092113260e+02 -2.3384711796156052e+00 -6.0066662451572874e+01  1.5302824810736689e+02 -7.8094194843442066e+00 -4.6892696783449722e+01  1.5506529455095742e+02 -9.9140727827000870e+00 -7.6802616311493537e+01  1.2793673023288292e+02 -5.0477356047486632e-01 -5.1728323932340700e+01  1.2900761815364763e+02 -4.7996900248377834e+00 -1.0233375569489985e+01  1.1770558528952273e+02 -8.3106589053421265e-01 -2.9069822270003904e+01  1.0185385261175820e+02 -4.6908715904912640e-01 -4.8739157828003798e+01  1.7205995052542605e+02 -2.3750889624074745e+00 -1.6863871877228033e+02  1.5736336535844782e+02 6.9169321999946511e+00 -5.5041718286276229e+01  1.1265491399673085e+02 1.0711081748422290e+01 -9.2661569140534553e+01  1.2953364511161718e+02 8.7393724328600264e+00 -1.1329669137985387e+02  1.6714440370006247e+02 4.5840189952401744e-01 -1.0312194829701481e+02  1.3119047985021567e+02 2.1348619413742349e+00 -1.7084452723647968e+02  9.4747149890187004e+01 1.2316196317285106e+01 -1.3519259319983757e+02  1.6103429022440164e+02 8.4120190330543376e-01 -8.7144604768834412e+01  2.2545811464822489e+02 -3.5320318325465760e+00 -6.2181202628257900e+01  1.2056687973967354e+02 1.0232774993821293e+01 -7.1914069542205169e+01  1.3189123413382339e+02 5.4920900290458396e-01 -8.0135688047197945e+01  1.1055306174952766e+02 -6.4875713612926655e-02 -7.7082264155782781e+01  2.1069932475942895e+02 2.5126551816928963e+01 -1.9668902511464214e+01  1.1975508530983733e+02 1.2763339247222346e+01 -4.6750988052313446e+01  1.5598024812302953e+02 1.1858494840144949e+01 -4.8053457751271552e+01  1.6125538170959706e+02 5.0959220832478431e+00 -6.9132262750427586e+01  1.4645441031587501e+02 2.0078512122327432e+01 -2.4715109355027625e+01  1.2723549747966800e+02 7.6020517609738061e+00 -5.7026370170755818e+01  1.2928757086898241e+02 5.1628473797811072e+00 -7.7244068837332918e+01  1.7199278893505010e+02 -7.3222782947627607e+00 -1.0960910203618823e+02  1.8670001968349575e+02 -1.8931780726777653e+01 -1.1382684606720227e+02  1.7741562370715269e+02 -4.9911061032022923e+00 -1.0892415048090658e+02  1.8878494419927171e+02 -6.9704720819496782e+00 -1.9021647342545401e+02  1.7117548464192100e+02 -7.0729027229605332e+00 -1.6978295985442276e+02  1.8564859922169859e+02 -2.1093548019013419e+01 -1.2474790751166165e+02  2.1414243805461965e+02 -1.4101705105799375e+01 -1.1323565106107722e+02  1.7024381953369058e+02 -1.1556336583364349e+01 -1.2211901809840909e+02  1.7164023325318558e+02 -1.8657969406169574e+01 -9.9635321364356088e+01  1.7120376865071583e+02 3.2591048642503773e+00 -7.7409774356372992e+01  1.6827610413507409e+02 5.6830009294235433e+00 -6.8920440786799631e+01  2.3994983888888623e+02 1.0839409569752814e+01 -4.0116570126671782e+01  2.2344577822747590e+02 -2.7437701309884705e+01 -1.2377684938177781e+02  2.0593095429458327e+02 -1.9674237988485771e+01 -1.2943212186590674e+02  2.2302492632106777e+02 6.4035782287149230e+00 -7.8434250239644683e+01  2.0549114179194004e+02 -9.2836741065020423e+00 -1.1805642376366522e+02  1.5740619822400768e+02 -8.9754721637888917e+00 -9.9485759172573296e+01  1.6523912941584851e+02 -1.4722946609269105e+01 -1.1068577129847948e+02  1.6665010030931708e+02 6.8717271186340267e-01 -8.3460773972691470e+01  1.8375817557188890e+02 -1.9062571347188071e+00 -9.3015050936199557e+01  1.5351476432127296e+02 -8.4415549014270770e+00 -1.0185643735147410e+02  1.6361467175305484e+02 -1.6679713043999481e+01 -1.0415557013368630e+02  1.5312867647130986e+02 -1.7199037745921431e+00 -9.6333730343794102e+01  1.6796400926210799e+02 -1.5317936094943985e+01 -1.1329971296393582e+02  1.6885083986522781e+02 -1.8208669258660022e+00 -8.9551821507581749e+01  2.2929226821205188e+02 -1.4633284210197511e+01 -1.0536747569011582e+02  1.6682449299683572e+02 2.9375716546619222e+00 -8.7700887777480347e+01  1.8435185515151130e+02 2.2367051113001035e+00 -1.0972184941610773e+02  1.6994896568283266e+02 -4.1064266902052688e+00 -1.5641393797230839e+02  2.0625281290257695e+02 -1.9280254387397260e+01 -1.3248351305223167e+02  1.5477116892416808e+02 -2.4730815983009787e+01 -1.2672911589928799e+02  1.1519542182253824e+02 2.5465979975120221e+00 -1.6311867725963927e+02  1.2384231602272504e+02 8.6540607482632801e+00 -1.2020730913861132e+02  7.7207690599674308e+01 3.3160355323742692e+01 -1.6704879061261047e+02  7.7641996693493581e+01 3.0748593043127329e+01 -1.5852446887823072e+02  3.4742046315057301e+01 2.9476322054563074e+01 -1.1066735615772645e+02  9.3180929176165449e+01 1.3964031020611985e+01 -9.7948488968018012e+01  4.7025207563356858e+01 4.3791583143079279e+01 -1.2742273938629404e+02  1.6839890450839127e+02 -1.6114554296074441e+01 -1.1971536760624410e+02  1.7207419567165681e+02 -1.0246532083406681e+01 -1.0984598283853570e+02  6.7303253907660746e+01 -2.3125925441674178e+00 -1.3022680881246197e+02  6.4719419058821046e+01 -2.5308355255955020e+00 -7.1195801170961545e+01  7.9155061969430477e+01 -3.8929004903143403e+00 -6.9077378054868234e+01  8.1940133798076275e+01 -2.2540315520798818e-01 -8.7557152393763232e+01  4.4931931888214493e+01 -5.1809616403157097e+00 -9.8549754042726121e+01  6.2203314851640613e+01 -1.6213033606235104e+01 -9.9981169647750590e+01  5.7272479275195437e+01 -6.0396769062414020e+00 -8.2866930694029477e+01  4.8618675976045012e+01 -1.1569441736459064e+01 -7.9695456568676292e+01  2.6552148371893921e+01 -1.2349403952629855e+01 -7.4130709349922597e+01  9.1421726210877637e+01 5.1347203463078204e+00 -6.1000739690715221e+01  1.4018365026151602e+02 9.7034389973273711e+00 -5.1046376285346078e+01  1.8366891291411898e+02 5.9700967467665409e+00 -7.2286904061373576e+01  1.7326422437525736e+02 8.2423892295926695e+00 -2.4238013734223234e+01  1.2493610713773465e+02 7.3481577503061866e+00 -2.5920710760233447e+01  1.2996733215926531e+02 -1.1762843775755532e+02 -8.4126835422513707e+01  1.2176491665001706e+02 -8.5261425763343226e+01 -5.4528796796283771e+01  1.2866567959462949e+02 -9.1673494133485008e+01 -3.7291545610698506e+01  1.3529487627558998e+02 -9.6064678043421068e+01 -5.4399940245409660e+01  1.1385760170117690e+02 -9.9989971533749625e+01 -8.0324600996210762e+01  1.1996654049476618e+02 -8.9456567439444925e+01 -7.3749551405881149e+01  1.4941348627847429e+02 -9.6827660150798962e+01 -5.7332322066449159e+01  1.4614878378124484e+02 -1.1228989375906851e+01 -1.2634861616013141e+02  1.4876864000560710e+02 -1.8454049383897939e+01 -1.5318715254832256e+02  1.4058053177464143e+02 1.2749532497002299e+01 -1.6663593505384182e+02  1.8561133642824464e+02 -2.5973822916340758e+01 -1.6511833819163510e+02  2.3265632816792353e+02 -3.8131322227924166e+01 -1.2858886166877042e+02  8.8820845865201861e+01 3.7801652991253221e+00 -1.5717648253738489e+02  1.0707379462213672e+02 4.4791678889991884e+00 -4.0743012644479442e+01  1.1536752571317025e+02 -7.2351052044565822e-01 -6.6302220609602642e+01  1.0052760898657991e+02 -6.4956919838872018e+00 -8.3362649186925168e+01  1.5862554622550840e+02 1.7163280098818714e+00 -1.1279011207649916e+02  1.0670895567101515e+02 4.4252614024088555e+00 -1.2952406066007779e+02  8.8936469602662044e+01 -4.2520170375478648e+00 -8.7395690487676816e+01  1.1099940770442659e+02 -3.9307572573795966e+00 -1.0207723821524573e+02  1.1133209908133674e+02 3.1648692519196211e+00 -7.3862758387487261e+01  1.4140696892117825e+02 -3.6594396976533039e+00 -1.1417013761952782e+02  1.2089824217764490e+02 -1.7896547165661458e+00 -1.0995167693652208e+02  2.5125601990460652e+02 3.2369115682936311e+01 -3.3182503788166898e+01  2.4231795023597260e+02 1.7772126383912592e+01 -8.2231254310780358e+01  1.8833428620079769e+02 6.4327621812393625e+00 -8.3026791847708637e+01  1.9235621400777026e+02 9.1659791964523549e+00 -5.6494309377239226e+01  1.0410111060212671e+02 7.1854596295096735e+00 -1.0666012046185075e+02  4.4552548956933990e+01 1.6416912421252462e+01 -1.4971442126575286e+02  9.6241036606427613e+01 1.1272185411074827e+00 -5.7059537642322887e+01  1.0402695843671545e+02 9.2819794614365563e+00 -4.7613295457000582e+01  1.0529214599919470e+02 8.4833336355060034e+00 -6.1835456724779689e+01  1.7890545529122195e+02 -1.3053859944114918e+00 -1.1461222328275817e+02  2.1687211881012607e+02 -4.9890624325303641e+00 -1.4237844888516642e+02  2.4598086006126596e+02 -2.2466553484715671e+01 -1.0213015007731209e+02  1.7820764287574221e+02 5.4836305433727624e+01 -7.2107919116315298e+00  1.9792171944900335e+02 6.6683349790574935e+00 3.4161896472967229e+01  8.0432737115974618e+01 -1.0280109529077247e+01 -1.3245289425737542e+02  1.0870087216629793e+02 -2.7996837138050972e+00 -1.0464554235550585e+02  2.1678595930518733e+02 -7.8879917905846897e+00 -1.3237178391615296e+02  8.8094987757762567e+01 1.9235835785262647e+00 -9.0989702182189490e+01  7.3232575876947266e+01 4.9440636958407165e+00 -1.5518779308327700e+02  2.3780515489009869e+02 2.8753067801099995e+01 -2.7807879985447581e+01  1.6416205639804818e+02 6.7555144450473481e+00 -6.6622611098814531e+01  1.2468445267969697e+02 2.8776319967813302e-01 -7.6795392586677679e+01  1.3972673747174298e+02 -7.1380430650569844e+00 -7.2116163249983572e+01  1.7282134702826403e+02 -3.0439378957311303e+00 -2.8604617200047709e+01  1.4319426082595200e+02 -8.8842009016385670e-01 -3.8769000201939441e+01  1.4818298373330589e+02 -6.8043843318836519e+00 -4.5781935376337721e+01  1.0647677582105631e+02 -1.4868534656855639e+01 -6.5010645244275125e+01  1.5286831203061058e+02 -2.2710067779942257e+01 -7.3105135730654396e+01  1.2207157781413450e+02 -4.0748783312691842e+01 -6.5018113702754746e+01  1.5962249716319818e+02 -1.1627809328020344e+01 -4.1495651454079663e+01  1.5498951959206673e+02 -2.2117183469866394e+01 -1.4209487653506110e+02  1.6333953062137584e+02 -1.7577494655336885e+01 -1.1336030703871978e+02  1.3638078304063399e+02 -9.2193697035935696e+00 -1.1288256398191007e+02  1.2374936984414116e+02 -1.0496476454970693e+01 -1.5317628361718795e+02  1.8435917456974528e+02 8.9774337270464510e+00 -9.9769934154002698e+01  2.4380735873427238e+02 9.6658161175513175e+00 -4.9030164076848479e+01  2.6249441544049802e+02 3.9107275142791122e+00 -8.1190133689396134e+01  1.8132915572753413e+02 1.7219519005783273e+00 -7.4131263730574858e+01  1.1480821967197497e+02 1.0647052280376489e+01 -8.6834833358507098e+01  1.0334746114216279e+02 -2.2414724724298086e+01 -1.0846256900847108e+02  2.2357564935318371e+02 -6.9067755108273616e+01 -6.9094806037772358e+01  1.2988364694660828e+02 -1.2405076625991515e+02 -8.1810556186290711e+01  1.6527830772663995e+02 -1.1111931028539978e+02 -7.6552054869506449e+01  2.4437717032825944e+02 -8.4922994035379034e+01 -1.2630431627473671e+02  2.0232166585040326e+02 -1.9639971545928651e+02 -1.6050343540626153e+02  2.1857323830495454e+02 -1.1837591324599187e+02 -9.6890633948550189e+01  1.3607052254836901e+02 -2.0565986122693099e+02 -1.1071278041328624e+02  5.0599997960906862e+01 -1.1683458949680842e+02 -6.3309105424512005e+01  6.4625519898425935e+01 -2.8711761436522465e+01 -1.1635969194374461e+02  7.5299589134548057e+01 -9.5223222149632267e+00 -1.1143510103285692e+02  1.3284059943268593e+01 -5.3775523081069441e+00 -1.1482689723594795e+02  1.5630576615634786e+02 -1.2173998427437056e+02 -8.9854837878419573e+01  3.5733997634538476e+01 -1.4261951124292636e+02 -1.4244640307594332e+02  1.8652893460554182e+02 -1.6018637196821849e+01 -1.5809454582224365e+02  1.7862824269065925e+02 -5.2565905679093321e+00 -2.7938357933424410e+01  1.5279053379721483e+02 1.0478858378252530e+01 -3.9179685190329963e+01  2.0588871120129596e+02 2.0747721740702346e+01 1.6638536227799431e+01  2.4138085453799198e+02 5.7805604479942261e+00 -1.7131145747079980e+01  1.7500479341405111e+02 2.0675836747434168e+01 2.6859918543533372e+01  2.2083272659968898e+02 9.4967585050018322e+00 2.8980131888515878e+01  1.7349448596100257e+02 1.8106222322113688e+00 -4.5838153247171121e+01  9.9623478837844772e+01 -4.5990237064474705e+01 -1.1053428249487675e+02  1.7521333881303627e+02 -5.3905352459725904e+01 -1.2315197225289782e+02  1.7240068874322486e+02 -5.3432160731048107e+01 -1.2057747659217252e+02  4.1575700037860329e+01 -9.3646467493628791e+01 -8.4956145778724490e+01  1.1605877061478000e+02 -4.8699401215300725e+01 -1.7364445961152589e+02  1.3022912693666910e+02 -1.4191243819918918e+02 2.4348013044181258e+01  1.4555361624788537e+02 -9.4623100552445251e+01 -7.3355518184003179e+00  1.5410837329494296e+02 -1.6529594004069503e+02 1.4428165807274986e+01  2.3929753118229644e+02 -1.1429327554623737e+02 -1.7313312376536626e+01  1.9921709284943645e+02 -1.3962060981648372e+02 -2.4098414423825336e+01  1.0563426462577871e+02 -9.3034119487531122e+00 -1.4404245710202852e+02  1.2027235682550615e+02 -1.1044915651915483e+00 -1.3140382307212289e+02  2.2586543105760163e+02 1.0286377840865704e+01 -8.3123452098407284e+01  2.2191985167739881e+02 1.6796691863536953e+01 -7.6118500110816854e+01  2.1627951259850028e+02 -3.3752000668000233e+00 -1.1375428961426645e+02  9.4426081119151306e+01 6.3036796402076732e+01 -2.8650327510056190e+01  1.4722076470357547e+02 5.7224944324797251e+00 1.9973224972788017e+01  4.4259509939726023e+01 -1.4463018094969527e+01 -1.0558247348087166e+02  1.7698340215767914e+02 4.9411171467591593e+01 3.6469749658184945e+01  1.9025247768489379e+02 -1.5610889366582866e+01 -9.9442863032947514e+01  1.3842231502788144e+02 -4.4898001708715785e-01 -1.0230623498917657e+02  8.5905623181635022e+01 -2.8015871036492977e-02 -6.8333372373829306e+01  1.5868599324978757e+02 -1.9200317486029472e+00 -2.4520090909087177e+01  1.9087324981258558e+02 -5.5824784598016830e+00 -1.0925227431857421e+01  1.6630933704533587e+02 1.5948677944900388e-01 -2.9242330917839553e+01  1.6817021093511116e+02 3.8659952083740809e+00 -1.0879950209045218e+01  1.3794493967354828e+02 -2.2775992214698963e+01 -1.1095088274503179e+02  1.4227113528866565e+02 -1.9287285951272668e+01 -1.0337339966084213e+02  2.0452040975539055e+02 -1.6559033435025057e+01 4.7413923869959426e+01  1.5905200874050831e+02 -2.2468237414139608e+01 -6.4055472245555363e+00  1.8917818498246160e+02 2.8241912793373420e+00 4.2053833004517518e+00  1.6845294911609781e+02 -1.4488518334673881e+01 1.1878029226256178e+01  1.4198019573524175e+02 -6.1172797495107627e+00 -1.4011306208023534e+01  1.5833311658925922e+02 2.2891929399379269e+00 -1.7904233478577783e+01  1.7119126506293810e+02 1.4454334758044672e+01 -2.2759276049893327e+01  1.0938194189948193e+01 1.9332976384884873e+01 -9.6702264391084913e+00  1.8690955133220413e+01 1.9297052989411089e+01 -5.6632226108073604e+00  1.7045656585009691e+01 2.2617748658813529e+01 -1.2176309164949288e+01  9.1021973794302671e+00 1.8001060899622324e+01 -7.7426615522463491e+00  1.4063352053308140e+01 1.7931683819761371e+01 -5.8815842699591752e+00  1.1393334722688305e+01 1.5340575867592875e+01 -1.3894910403589233e+00  1.4285862878622915e+01 1.7163235860497505e+01 -5.7958412252143443e+00  1.0350683909193814e+01 1.6131155267449440e+01 -7.5262258087000333e+00  1.5697169265914367e+01 2.0669408132958882e+01 -1.0224577453830113e+01  2.2808382857662345e+01 2.5983440333999475e+01 -1.3455535553432938e+01  1.2187748119167333e+02 9.3450589273907951e+01 -1.4283163612469761e+02  1.1665039010983303e+02 1.1240026005837834e+02 -1.3760487285125311e+02  1.0832113362567033e+02 1.1184931476248208e+02 -1.4224135097690123e+02  1.2345145557564786e+02 1.0200885387762966e+02 -1.4045802120007826e+02  1.1853533718582969e+02 1.0937941160076497e+02 -1.4443149586951989e+02  1.1324132852156571e+02 1.0081362467606918e+02 -1.4953917730128495e+02  1.0612922619099976e+02 1.0717855989635069e+02 -1.5723479400929790e+02  1.3082003541601827e+02 1.1249229596275617e+02 -1.4040274514798517e+02  1.1427386322238394e+02 -8.3073899751579958e+01 -7.7447614715222699e+01  1.4456231143281863e+02 -5.0439025848525723e+01 -4.9464050700591955e+01  1.3834687339734722e+02 -2.8592579760032621e+01 -4.2948172997189403e+01  1.0959233843167063e+02 -9.6991382500178162e+01 -6.0586319750738362e+01  1.4027633818835670e+02 -8.3081381588981657e+01 -2.4500886790007780e+01  1.4698247815852494e+02 -2.8467305729427071e+01 -3.2515107586458420e+01  1.3589050269011946e+02 -2.4441954654368189e+01 -3.6899297965906101e+01  1.3518685894273673e+02 -8.6154750635370583e+00 -2.6085219744189097e+01  1.3662352007239724e+02 -8.9091650705476795e+00 -2.9118313771648570e+01  1.4005814247968337e+02 -6.7048494162389787e+00 -2.9300358371241003e+01  -2.9468014615157037e+00 5.4137967230867531e+01 -3.7415828177727690e+01  1.9269400941719518e+01 5.9777941482745327e+01 -5.0188452338181030e+01  2.2247111712244230e+01 5.1570037795577505e+01 -4.4171565834607840e+01  -1.2092626059879576e+01 7.7035589675160296e+01 -5.6082502622207137e+01  -1.4432069692754188e+01 5.0725660822465585e+01 -3.8868140772095174e+01  3.7251899129791781e+01 1.1077219691427011e+02 -1.1699044772228764e+02  3.9082680332984978e+01 6.7186340645376276e+01 -7.0552754951756043e+01  -1.7465925553533356e+01 8.0240116301695707e+01 -5.4957644707460588e+01  -1.3683723595980894e+01 4.5485127631688790e+01 -3.7214899932643476e+01  4.9078185611889211e+01 4.8095252149158291e+01 -4.8370053518077654e+01  8.4794749762246468e+01 2.7554126050974574e+01 -2.5088844724074065e+01  8.8342872677081004e+01 2.5960884446938810e+01 -1.5419781086620882e+01  9.3923760130084361e+01 2.2886912105851266e+01 -2.3763780050879159e+01  8.9871419830563823e+01 2.8035128329685179e+01 -1.8522492777850104e+01  8.6967505644616423e+01 2.6727811012120227e+01 -6.3354940476899326e+00  8.5747014838437167e+01 2.7136718904192076e+01 8.5270943080342343e-01  1.0045134315128213e+02 2.4506029765259576e+01 -8.4660549151208375e+00  1.1008392557991763e+02 2.1182567158252539e+01 -1.8421275637195535e+01  1.0167785530728696e+02 2.5321869429439239e+01 -4.3803672917087164e+00  8.8010500684270312e+01 2.8433176169515583e+01 6.6423508807373253e+00  7.0997103452111639e+02 7.0614523096741209e+01 8.5762943278648038e+01  3.8769854911593995e+02 6.3253264572628723e+01 -4.9231521907333374e+01  3.4360096879855018e+02 1.1038207129009440e+02 1.8490977119349034e+02  8.4768265210080301e+02 -3.3472360411636927e+01 1.5577030514768884e+02  8.9830270559937912e+02 1.8963716717541445e+02 2.0598628453558109e+02  3.6770503180688473e+02 7.9597073566991781e+01 -4.0585583919700376e+01  2.9332451787536144e+02 3.43209