<?xml version="1.0"?>
<VTKFile type="UnstructuredGrid"  version="0.1"  >
<UnstructuredGrid>
<Piece  NumberOfPoints="4458" NumberOfCells="20079">
<Points>
<DataArray  type="Float64"  NumberOfComponents="3"  format="ascii">40.6758673128 10.4392728528 10.9896238935  39.4162037913 10.09402879085 10.33647389185  39.4030308389 10.3066654501 11.2074317267  39.05252996955 10.81316564175 10.7660835068  37.4291926263 11.1870584307 10.5425431201  37.79286644805 10.4679215798 10.11293350515  37.77969349565 10.68055823905 10.98389134  38.130194365 10.1740580474 11.4252395599  38.1433673174 9.961421388150001 10.55428172505  38.1565402698 9.7487847289 9.683323890200001  35.02493232 12.2129896914 13.8512643089  33.9874795265 12.46658218175 13.4680406917  34.2733649271 12.91604169555 14.01983098805  34.6462769451 12.6080335736 13.4386321259  34.2676215702 13.0030774558 13.0259999429  35.3618320632 10.8212017099 8.7605551029  35.99544115405 10.49713023495 9.4553145024  35.81500020095 10.01502129485 8.728175917249999  36.21555283985 10.71541862525 8.855718941300001  37.0692736165 10.6096355406 8.950882779700001  36.4486092918 9.6909498199 9.422935316749999  36.8491619307 10.3913471503 9.550478340800002  36.6687209776 9.9092382102 8.82333975565  36.2681683387 9.2088408798 8.6957967316  36.6290502449 10.17305876 10.1500739019  37.53158482265 11.5129792033 11.514188918  38.1585763625 11.211109403 11.23790986165  37.1527019558 10.98242803935 11.26017039635  37.80807549315 11.71760959465 10.79656164175  38.18695836 12.2481607586 11.0505801634  35.5927975658 11.6001198421 10.715106196  36.79758194675 11.7896352944 11.044230243  35.8793844165 11.9961660001 11.13051178095  35.7607837231 11.9540770901 10.50145790295  36.51099509605 11.3935891364 10.62882465805  35.9287698804 12.3080343381 10.2878096099  36.04737057379999 12.3501232481 10.9168634879  36.67898125335 11.7475463844 10.415176365  36.1659712672 12.3922121581 11.5459173659  37.67705703 12.1200788635 7.6826072261  37.63813300515 11.55117266865 8.9354325963  37.9420247119 12.3063943301 8.301294819500001  37.42316445115 12.1952222209 8.75529972665  37.37316532325 11.36485720205 8.316745002899999  37.1192727444 11.44000055945 9.389437503450001  37.1692718723 12.2703655783 9.827992227199999  37.68813213305 12.3815376875 9.373987320049999  38.2069923938 12.4927097967 8.9199824129  35.6661833248 7.6951849556 8.571201283200001  35.49309388055001 7.78118592835 7.612546908400001  34.87829031905 7.566471749950001 7.821240101800001  35.05078473275 7.13775172495 7.4845803689  34.0903973133 7.4377585443 7.0712789204  34.7052008748 7.652472722700001 6.862585727  35.3200044363 7.8671869011 6.6538925336  40.6758673128 13.1651982742 12.8119454978  39.4314128364 12.7066795164 11.9312628306  38.9852063276 12.68648352105 12.46982949035  40.6758673128 12.5456141074 12.43556095005  40.6758673128 11.9260299406 12.0591764023  39.4314128364 12.0870953496 11.55487828285  38.9852063276 12.06689935425 12.0934449426  37.2945453424 12.2077687679 12.1277134829  37.7407518512 12.22796476325 11.58914682315  35.253957689 12.8154248641 10.7488554061  36.176329868 13.326115952 10.3927406924  35.83892377230001 13.579811215 10.6232635905  35.58570965935 12.9067160539 10.1904499257  35.5913637847 12.5617296011 10.518332508  35.9174616297 12.9980072437 9.6320444453  36.17067574265 13.6711024048 10.0648581101  35.92311575505 12.6530207909 9.959927027599999  36.4238898556 14.3441975659 10.4976717749  37.2550257328 8.602698312699999 7.5301159011  36.9444351769 9.634432166549999 7.44897102735  37.2204051111 9.01559184185 6.984651261850001  37.640038531 9.11402902335 7.48438752925  38.0250513292 9.625359734 7.4386591574  37.3294479751 10.1457628772 7.4032426555  37.6054179093 9.5269225525 6.938922890000001  37.1857844894 9.428485371000001 6.4391866226  36.9098145552 10.0473256957 6.9035063881  36.633844621 10.6661660204 7.3678261536  34.4470905867 15.3016957706 14.4379813486  35.09071912595 14.17345057275 13.79841402855  34.4947021699 13.93482649425 14.4460403075  34.0315940917 14.5202416163 14.20976329555  34.62761104775 14.7588656948 13.5621370166  34.9101986649 14.71628064855 14.67425836055  35.3733067431 14.1308655265 14.9105353725  33.6160975967 13.738787462 13.9815452425  34.21211455275 13.9774115405 13.33391896355  34.8081315088 14.216035619 12.6862926846  35.5113050196 10.9146754069 9.9980686052  35.84438348415 10.0088492262 10.00838041905  36.07017763225 10.54386708345 10.07407125355  35.8327633806 10.40432378555 10.61406275175  35.2855108715 10.37965754965 9.9323777707  35.04809661985 10.24011425175 10.4723692689  35.27389076795 10.775132109 10.5380601034  35.0597167234 9.844639692399999 9.866686936200001  35.66394253105 9.526740286100001 9.281241833900001  35.69487837065 8.853669352099999 9.954305094550001  34.93319420855 9.3124059381 9.576764652550001  34.8066716937 8.7801721838 9.2868423689  35.5374200162 8.994506531799999 8.991319550250001  35.56835585579999 8.321435597800001 9.664382810900001  36.2991041783 8.5357699458 9.36885999225  36.5981841055 14.3786745522 14.2075194202  37.09470461945 14.06197835065 13.4106048297  37.16398713425 14.0357969599 14.1096352084  37.08928080705 14.47988295525 13.9758086214  37.5803775086 14.5810913583 13.7440978226  37.58580132100001 14.1631867537 13.1788940309  37.6550838358 14.13700536295 13.8779244096  37.729790163 13.6929193676 14.0117509966  37.6605076482 13.71910075835 13.3127206179  37.5912251334 13.7452821491 12.6136902392  32.742487865 13.212142647 12.6004664908  33.8325475346 13.532871378 12.28323459175  33.5050547176 13.1076100514 12.81323321685  33.7753096869 13.714089133 12.6433795877  33.069980682 13.6374039736 12.0704678657  33.397473499 14.0626653002 11.5404692406  34.1028025039 14.1393504596 12.1133809626  34.5378765395 13.6095565374 12.85614631375  36.7526307651 10.475428204 11.06393578725  37.37962230495 10.1735584037 10.7876567309  37.0291214356 10.68005859535 10.346308511  33.94185958345 13.3709324589 13.5037725927  34.82046415665 13.56697149115 13.9682676577  39.35168926155 12.2614182351 12.87960962435  39.35168926155 11.6418340683 12.5032250766  37.66102827635 11.78270348195 12.5374936169  38.0275112103 11.357638196 12.9472737509  36.4795451314 9.0178788859 10.0959985774  35.2316411593 11.4731012523 7.6533841519  36.07668928375 11.746220357 7.4367529407  36.02729920605 12.1929020383 7.0473939473  35.7342848817 11.5843001767 7.0417965749  35.52465548364999 12.0817031139 7.6589815243  35.57404556135 11.6350214326 8.0483405177  35.817669808 12.6903049755 7.6645788967  35.8670598857 12.2436232942 8.0539378901  35.9164499634 11.7969416129 8.4432968835  36.2369286041 11.6954991011 6.4302089979  36.4993468135 11.8379443214 12.4490488215  36.7285703049 12.6941465146 12.65392833055  36.7302583048 12.299990463 11.8368154244  35.933371776 12.3243220681 12.97526366915  36.1642832673 12.7863682097 12.36303027205  36.1625952674 13.1805242613 13.1801431782  36.29028931805 10.76215547375 9.47447569245  35.4365685414 10.8679385584 9.37931185405  37.6753794485 13.7842858649 8.9212440435  37.79269989435 12.90004559945 9.771654475750001  37.94118592115 13.1384978308 8.920613228200001  37.42232566040001 13.0273257216 9.37461813535  37.5268934217 13.54583363355 9.77228529105  37.3784073949 13.3073814022 10.6233265386  37.27383963360001 12.78887349025 10.2256593829  40.6758673128 12.1492747297 8.8442631318  40.6758673128 10.94977173925 8.370479964799999  39.5092546072 11.6343399506 8.7034866734  40.6758673128 11.83279645595 8.2576975307  40.6758673128 11.266250013 8.9570455659  40.6758673128 10.3832252963 9.069827999999999  39.5092546072 11.31786167685 8.116921072299998  39.5092546072 10.7513152339 8.816269107499998  40.6758673128 11.5163181822 7.6711319296  38.3426419016 11.1194051715 8.562710214999999  35.93274289015 11.06963363635 7.51060515275  35.48066136635 10.97912402925 6.641618422800001  35.7296815734 10.4851468062 5.6298526937  35.98330508875 11.09032295365 6.030030845800001  36.1817630972 10.5756564133 6.498839423650001  36.43538661255 11.18083256075 6.89901757575  33.2249126739 12.57111477735 13.25527396565  33.17929273085 13.4754650545 13.29100586665  33.66171753975 12.83443718485 13.9458133415  34.5745318324 11.5813232201 11.8240127005  34.9858849274 12.23559866535 12.8981920515  35.2167964187 12.69764480695 12.2859586544  34.4210767013 12.29220033795 12.4250063217  40.6758673128 11.9114528631 10.8806131082  39.4030308389 11.04275545525 11.15292633405  39.05252996955 11.5492556469 10.71157811415  40.6758673128 11.17536285795 10.93511850085  37.39279525735 9.960921744450001 9.916698896050001  37.16987898575 9.653881301149999 9.218727216400001  37.61290694314999 10.17921013475 9.317103334950001  36.94976729995 9.43559291085 9.818322777500001  37.7135123124 9.223455895299999 9.58494777165  37.270484355 8.698127061699999 9.4865716531  34.6148981273 10.4383480748 7.777171314  34.65686311475 11.1508210063 7.17068850335  35.17228985035 10.4617474405 6.70351200385  34.34849159875 10.63344441755 7.232582084400001  34.9232696433 10.95572466355 7.71527773295  34.0820850702 10.8285407603 6.6879928548  34.9058833218 10.65684378325 6.15892277425  38.25424012085 13.2913437757 9.489939354499999  37.9884336482 13.9371318098 9.4905701698  37.8399476214 13.69867957845 10.34161141735  38.3014878479 14.0899777547 10.0598962961  35.9978383421 10.74368386515 8.06419062825  35.6391410133 11.3090716614 8.6019259932  35.29673661125 11.1471514811 8.206969627399999  36.2751472922 11.23155381665 7.90556151855  40.6758673128 12.5713699336 10.1127185615  39.4414298533 11.9612398338 9.41559498965  39.4414298533 12.53203986515 9.5163504872  40.6758673128 12.36032233165 9.478490846650001  40.6758673128 12.00056990225 10.01196306395  40.6758673128 11.4297698709 9.9112075664  40.6758673128 11.7895223003 9.3777353491  39.4414298533 12.3209922632 8.88212277235  36.7328968168 15.8970608606 13.1129173714  37.2274751905 14.77102830085 12.4911567521  36.5928761096 15.02820682045 12.50652100095  36.81
[...]
<PointData  Vectors="u"> 
<DataArray  type="Float64"  Name="u"  NumberOfComponents="3" format="ascii">3.8236346732729214e+02 3.3167384827433484e+00 -4.0887944497130468e-01  2.9959657512368943e+02 5.6903777648854010e+01 1.5992540738538215e+01  3.2493525902899040e+02 3.5274233897753476e+01 -3.6293501593835138e+01  2.8248289980797648e+02 4.6788789632208747e+01 -2.6140125021197569e+01  1.8024069327439355e+02 7.3702399332534185e+01 -3.9807078520560061e+01  2.0511319435873347e+02 8.0076421700022905e+01 -8.0949753033188774e+00  2.1200688553729444e+02 6.7953112916355579e+01 -4.9841493503342718e+01  2.4615006474234599e+02 5.9374757326778820e+01 -6.0819744076530299e+01  2.3906625037503275e+02 7.3046267486233958e+01 -1.6863407055490082e+01  2.2770210977511027e+02 8.8963271878681113e+01 2.5876169337554597e+01  1.2187748119167333e+02 9.3450589273907951e+01 -1.4283163612469761e+02  1.1665039010983303e+02 1.1240026005837834e+02 -1.3760487285125311e+02  1.0832113362567033e+02 1.1184931476248208e+02 -1.4224135097690123e+02  1.1530842084429415e+02 1.0023757985948613e+02 -1.3536904392577759e+02  1.0366492057944740e+02 1.0612807073512137e+02 -1.2994147291049282e+02  9.0202716731118187e+01 1.3042721328997587e+02 5.0483214694337470e+01  1.0852078273622371e+02 1.2177428434511549e+02 4.4961270735453995e+00  1.1721956355261759e+02 1.2999320218631053e+02 3.8711427806811315e+01  1.1629524663958311e+02 1.1961653549475290e+02 2.7518973719169232e+01  1.5523518649808474e+02 1.0355316781129082e+02 2.4888823276139561e+01  1.4673534913792159e+02 1.1658732727635490e+02 1.3662327102564539e+01  1.5310892256664903e+02 1.0275411548552736e+02 3.5580706627297771e+00  1.4884732540287254e+02 1.1698858066427820e+02 3.2015415343232185e+01  1.4458371044622038e+02 1.3249386927972498e+02 4.3650103011620708e+01  1.5225024383518686e+02 1.0094073217695335e+02 -2.2828305429532044e+01  1.9161274981311158e+02 6.3059069343481241e+01 -8.1723441440468079e+01  2.2528248923832609e+02 5.5743060916875756e+01 -6.2038201591041407e+01  1.7951716602723539e+02 7.3666270084038317e+01 -7.1040726418255701e+01  1.9470180662923431e+02 5.9754820921708777e+01 -5.0514891024972741e+01  2.1042270986781821e+02 4.8112719396092452e+01 -5.3989567797216537e+01  9.1823406027893455e+01 9.6172065635788499e+01 -1.0411303125667963e+02  1.4982785256244424e+02 7.3218407970603067e+01 -7.2098182140726706e+01  1.1477447242872644e+02 7.9895535488127521e+01 -9.9801810144018020e+01  8.6872719422833995e+01 8.6536347715553518e+01 -1.0194914609690343e+02  1.3236694901632538e+02 8.6873341999975892e+01 -6.1354208754389134e+01  6.6857204437136588e+01 8.0175559639424947e+01 -9.8586277177764018e+01  1.1004746926047457e+02 7.3394938891117135e+01 -9.3936483667776216e+01  1.2929383541757599e+02 8.2042381385403132e+01 -5.3184682087538526e+01  1.2784310872883849e+02 7.1706840538897225e+01 -1.0103586819849313e+02  1.4191355673113773e+02 7.3216319332297530e+01 5.8287551086228611e+01  1.6568244327453928e+02 8.0189853964766499e+01 2.4254104594074569e+01  1.6600505959243449e+02 6.3449767004005587e+01 4.3664690272307489e+01  1.3942017243679490e+02 7.0242055922847513e+01 2.1224793280391392e+01  1.4876844212895821e+02 9.0496750646704882e+01 4.0012195128872762e+01  1.4634207411155825e+02 8.7388768968067680e+01 2.0493476914051647e+00  1.3576888970033772e+02 6.7842543380904019e+01 -2.4200578525018280e+01  1.5967033477232934e+02 6.0157999591765609e+01 2.1603952318962683e+00  1.8535794685877190e+02 5.2904818908072052e+01 2.3060252015241080e+01  1.3966014734944460e+02 1.4827474848320247e+02 4.9478476132545687e+01  1.2354051161030438e+02 1.4293882164898412e+02 4.6702884902900166e+01  1.2922772569742565e+02 1.3381163209494329e+02 3.5330646986301588e+01  1.1426421180212978e+02 1.2980222187550004e+02 3.5119924720932666e+01  1.2908073982598373e+02 1.1282371943395810e+02 1.9237819892198381e+01  1.1854218692644201e+02 1.2598108984352497e+02 2.9903701419425349e+01  1.1004964444284865e+02 1.3969758941054656e+02 3.9648249441181321e+01  4.8708055927295032e+02 2.4088082917085810e+01 -1.1569913185770613e+02  2.7371222038797771e+02 3.2589841811940957e+01 -9.1617574823818600e+01  2.3993698495542472e+02 4.8249024603008792e+01 -1.1870529176759609e+02  4.7880874903545680e+02 7.7421445967019480e+01 -1.1531419998944637e+02  4.3923889373215110e+02 1.9017383834268635e+01 -1.2732541216399379e+02  2.8503948169608628e+02 3.0534284969775268e+01 -7.5748887018642989e+01  2.5341362590911362e+02 4.3695210887145066e+01 -1.0236888962834050e+02  1.7596859995441577e+02 6.2353285815271256e+01 -1.0527129514326150e+02  1.9483595295617869e+02 5.2805438125396130e+01 -8.2711580227633732e+01  8.9127146026572177e+01 6.5622143488108904e+01 -1.2047964927521350e+02  9.0140473677958880e+01 4.3346240841936911e+01 -7.3348857468509351e+01  8.8616527165967526e+01 4.4617782509590455e+01 -8.5755144010838308e+01  5.4825028835462042e+01 3.3792325257944370e+01 -1.1731738840985714e+02  7.7916073094750814e+01 7.2226946086354573e+01 -1.2772387549616715e+02  3.1139236361615783e+01 3.7863711937612422e+01 -6.4084767886866260e+01  8.1400024080087505e+01 3.5685026910669379e+01 -6.0111006826360224e+01  3.5250758202885073e+01 4.6467236835523764e+01 -8.7498972971555645e+01  1.0239589573623282e+02 3.2612192931502840e+01 -5.7176445655747962e+01  1.6484906285006852e+02 1.6226382180980607e+02 8.8595731712914287e+01  1.4727858385622343e+02 1.3279101020646181e+02 5.6632001804049011e+01  1.4842697369132935e+02 1.6879000519658624e+02 7.5996659154510837e+01  1.7620616394640206e+02 1.3419948853929577e+02 7.5038434127855197e+01  1.7914287041327174e+02 1.2280416720555240e+02 7.5251301445941849e+01  1.5337376900268004e+02 1.1752829181744352e+02 5.8235629844485828e+01  1.6094483095380610e+02 1.3442917833790892e+02 6.0763416432205730e+01  1.3939738577223028e+02 1.5532113254207508e+02 4.7774770252459362e+01  1.3846354463023309e+02 1.2415088184239021e+02 4.9308779906756001e+01  1.3123119021534509e+02 1.1626426174526550e+02 4.8835977762665507e+01  6.0453704996723602e+01 1.3958104003466488e+02 -1.0719210249081276e+02  9.7847394612508452e+01 1.0422025152423154e+02 -1.2132896046057543e+02  8.9988766317076653e+01 1.2703358354540687e+02 -1.4413249980497784e+02  7.0137191863711081e+01 1.3485411712621772e+02 -1.2760750622368010e+02  7.5132494832510034e+01 1.0637121664595982e+02 -1.0516093153126843e+02  9.3183722265159716e+01 1.3306021827355107e+02 -1.3100557448896055e+02  1.0714481843540484e+02 1.3189022140597268e+02 -1.6510832114442911e+02  8.3499571568498297e+01 1.3897204477343044e+02 -1.3788611392356202e+02  8.3299809263934719e+01 1.1221691579266536e+02 -1.1936435216377033e+02  8.7426538400797924e+01 8.6830728817600857e+01 -1.0498610841628351e+02  6.8623742142629141e+01 1.2669507181634421e+02 -4.2760378785618258e+01  1.1199610816266116e+02 1.1727787556911255e+02 -2.2005263381311508e+01  1.1557651655498157e+02 1.1048062199485310e+02 -3.0548790235747948e+01  1.1504759018351399e+02 1.0670135923583888e+02 -6.2135416060732368e+01  6.5109293453857632e+01 1.3018123158258436e+02 -3.6081350174301839e+01  7.3351068262750232e+01 1.1534385671236168e+02 -7.3927755193339536e+01  7.8167504206524427e+01 1.1832977476354007e+02 -8.5052538383732710e+01  4.9989468118050326e+01 1.2863053881583241e+02 -2.0100840311697450e+01  1.0268596847324510e+02 1.3224797776487293e+02 2.3901199264000809e+01  1.1980570337353356e+02 1.3242904877223600e+02 -3.1966274126996259e+00  2.9585532367531567e+01 1.5368723250599820e+02 2.4306573047150788e+01  8.8636384922200079e+01 1.8060110963333997e+02 7.1320614361970726e+01  1.2193550820635355e+02 1.4559181224088417e+02 4.1661277391486522e+01  1.2672463298651283e+02 1.4502074132240310e+02 2.1743179936817210e+01  1.5936249181318237e+02 1.3086641369044207e+02 3.0274529508361390e+01  1.3617755977360144e+02 1.0072731417985753e+02 -1.1617069956636512e+02  1.4896255380666651e+02 7.2510273249654105e+01 -1.0849230691779722e+02  1.5936518645439622e+02 1.0581230846887199e+02 -1.2367804598174581e+02  1.4970922364617829e+02 8.2953640491972138e+01 -8.7168418635779332e+01  1.4460998459335710e+02 5.1976358849425949e+01 -9.4359899474811556e+01  1.6032646833832572e+02 5.2472543753940400e+01 -1.0414725865364771e+02  1.5949608873275196e+02 7.5344540518067191e+01 -1.0311051699233188e+02  1.7450995860995735e+02 8.9966601549992177e+01 -1.3144420022449268e+02  1.7054548807566343e+02 6.6411315753902045e+01 -1.1740822014681726e+02  1.7100533508253298e+02 5.0841597238697091e+01 -1.0062131809510838e+02  7.7756588192539482e+01 1.5417862755503475e+02 -1.4139752332997642e+02  8.1821879238556519e+01 1.0350960210274201e+02 -1.2027989173384469e+02  9.6145813086194465e+01 1.2357460625409183e+02 -1.3147919278886178e+02  7.8617192501168063e+01 1.1034228212902870e+02 -1.1833727074040746e+02  6.7231123741247472e+01 1.1343657962802553e+02 -1.1981859549527233e+02  6.0509519556480171e+01 8.8213657859570318e+01 -1.0926568454571019e+02  7.3337248245686553e+01 8.8501903561044699e+01 -1.0520842219761020e+02  9.5121058746291396e+01 9.8571651879601532e+01 -1.1810706418652754e+02  1.6589292136327776e+02 8.5289859980675459e+01 -6.3227164762225676e+01  1.9923705629964726e+02 7.9919021645183008e+01 -3.9353697253370846e+01  1.6649656835828611e+02 8.7893392107100894e+01 -3.1786987583204763e+01  9.5333254076446181e+01 1.1967253433253546e+02 -1.3254597638613893e+02  1.0116750861963840e+02 1.0902512949421902e+02 -1.3717108878972198e+02  2.4610567419599772e+02 7.6222026390449088e+01 -1.5540370039252110e+02  2.6084390011546208e+02 2.7820080715141952e+01 -1.5668546964888660e+02  1.9515356965948635e+02 5.9994749850335310e+01 -1.2600304398641541e+02  2.1554291731351000e+02 5.6486252363929246e+01 -1.5274720374529014e+02  1.6491421321743101e+02 1.1220513586774086e+02 -3.9697140655528265e+00  1.1192236694771726e+02 1.3346777580233163e+02 4.9686672319261334e+01  1.0247803877534172e+02 1.1149928217499178e+02 4.9830726587183968e+01  9.1929962141860187e+01 1.0470124370406518e+02 5.2107050527513671e+01  1.0770436053983087e+02 1.1928899788242741e+02 4.7732453206481658e+01  1.0448076519373654e+02 1.2718154109461517e+02 5.6568636353207019e+01  1.1317964459548699e+02 1.3419461752542259e+02 4.9443338698388736e+01  6.2851645352202389e+01 1.1040678341851866e+02 7.4690309952092093e+01  7.8793403078610268e+01 1.3613467392418636e+02 7.7819690908590829e+01  8.0776702143375218e+01 1.3453311238487052e+02 4.9664238891964736e+01  1.0316306102162966e+02 1.0323596665867528e+02 4.4689424269415888e+01  1.5346784355759820e+02 7.3026062385570754e+01 -1.1832083359417209e+02  1.5166436224565999e+02 7.0965238752891338e+01 -1.1824335094984401e+02  1.5199304289999489e+02 6.6883233945334510e+01 -9.9234324304002442e+01  1.3463894626236072e+02 8.1230060579735365e+01 -1.2965952196000535e+02  1.3313706856216356e+02 7.3109255432179324e+01 -1.1268996207868005e+02  1.3122542147407356e+02 8.1938631493888991e+01 -1.2552729224200370e+02  1.1670146355597163e+02 1.1224179221046778e+02 -1.5804715965927687e+00  5.9125756845768365e+01 1.3184230814605039e+02 1.3556186834016206e+01  1.3922882996819578e+02 3.5021147847141208e+01 1.2522083053511027e+01  1.6408543109918773e+02 4.6114186693366676e+01 -1.5168381690568253e+01  1.5956023519907779e+02 4.3755076912553932e+01 1.7883501588557102e+01  1.3538837470207812e+02 4.8956636216130114e+01 -5.6581019532066970e+00  1.4477362654543626e+02 3.7583127473612343e+01 -2.0124693490229685e+01  1.5096415131901747e+02 4.3224379488744425e+01 -5.1345720886340395e+01  1.4278866689940668e+02 5.3230062299734399e+01 -4.0081749431428342e+01  3.3534919121565741e+02 5.7678005138219435e+00 1.6711034585727841e+01  5.0005329523624903e+02 6.8157406597242101e+01 4.5043919558554279e+01  2.6666422630946516e+02 5.6511010839755059e+01 5.2352626955029024e+01  3.9552881064730605e+02 -1.0889312179109801e+01 -1.5063793614511965e+01  3.7378070269579024e+02 -1.3852599186295103e+01 -3.0558733633016693e+00  4.7325173010852234e+02 8.6396187111212086e+01 7.9789996980439639e+01  2.6433021634781005e+02 8.1507945354468887e+01 9.1778021385099919e+01  2.8024087745451806e+02 8.6141587502283429e+01 6.4792343798536052e+01  5.1756542495048257e+02 5.8946634330108466e+01 1.4107715873533965e+02  2.0622146301307671e+02 8.1662300076034754e+01 4.9513840613971475e+01  1.1726573616789081e+02 1.2213446354505915e+02 4.8048687888113761e+01  1.1661988701575477e+02 1.2639111608352937e+02 3.9695086456358261e+01  1.2200455578033693e+02 1.2476949135548135e+02 2.4174699129935544e+01  1.1298243667813367e+02 1.1415791973468271e+02 3.4367866353792344e+01  1.2263681250725287e+02 1.2170774972549918e+02 3.9655273217338255e+01  1.1769746418994897e+02 1.0946863773304071e+02 4.7355982700208486e+01  1.1608360041895760e+02 1.3224516220253119e+02 -1.4087445339285821e+02  8.4141146143709790e+01 1.3973163713768042e+02 -1.3321035703761484e+02  1.1021684237258312e+02 1.2504051821948127e+02 -1.4175838303507692e+02  1.1386524413651954e+02 8.8751063817575783e+01 -1.3175918971385144e+02  1.2134172693177761e+02 9.1421450356617086e+01 -1.3066984822986907e+02  1.1487171397728353e+02 8.3796252936044098e+01 -1.1912290268410993e+02  1.1419879838754669e+02 9.6119538613890299e+01 -1.2906277314956739e+02  3.3236720283918697e+02 3.2032644343813055e-01 -6.3839012328911657e+00  3.0221250990710331e+02 3.4576311611666476e+01 -4.3787910071857929e+01  2.6489351616314605e+02 4.1291255753044780e+01 -3.1612418559101069e+01  3.5030925666569078e+02 -1.6579372132398773e+00 -2.2195475684796504e+00  1.9091764322071452e+02 9.3413944627412107e+01 1.1292737660729300e+00  1.7500932495589254e+02 1.0897520859331200e+02 2.7270118898864474e+01  1.8881065689232409e+02 9.6574949135504141e+01 2.3187788306485988e+01  1.7629176804155756e+02 1.0544126862228630e+02 6.6975706007609768e+00  2.1086446239406953e+02 9.8645844743560019e+01 2.8709552924212733e+01  1.9784616820030561e+02 1.0975133706220275e+02 3.4251261322124556e+01  1.2925782718870624e+02 1.4279612323925494e+02 6.3596327036405199e+01  1.2477853959518934e+02 1.3672172778674405e+02 4.0755510164301739e+01  1.2502510465974174e+02 1.3447747415702801e+02 3.8168506579558134e+01  1.3330160866912937e+02 1.4411442133363860e+02 4.8591252507820087e+01  1.2350823500036938e+02 1.3066091284482997e+02 5.4275821976813447e+01  1.4257142601789616e+02 1.5254859674935923e+02 3.4962205273563804e+01  1.2344289116188608e+02 1.3699093612880182e+02 3.1644882797228949e+01  1.8188322368910582e+02 3.4892520614346466e+01 -6.0790594594706249e-01  1.5997928795069956e+02 2.7509749295090330e+01 -5.6221545818584300e+00  1.6495731572427667e+02 3.1936573729549540e+01 -3.6022767046130461e+01  1.8021791040188222e+02 2.1739264367427502e+01 -2.1322498906794891e+01  1.2158220531624920e+02 1.2160949512531421e+02 4.4371338189641683e+01  1.0053783909486106e+02 1.3518144356546412e+02 5.1624941774943245e+01  1.1818147224700813e+02 1.1959345194900339e+02 5.0965139912200847e+01  1.1723138925143105e+02 1.1366424506366396e+02 4.5623884862425435e+01  2.9398820448746841e+02 1.2140523813043673e+00 -1.9056803055757135e-01  2.6746729450693596e+02 3.8054755007141438e+01 1.8025259555168603e+01  2.5435619017078784e+02 2.8503004380439588e+01 1.2476096771515072e+01  2.9881691742165719e+02 -4.4781228414554830e-01 -2.1910659690349643e+00  3.0502879788384308e+02 -3.2693236602382542e-01 -6.6375290801579301e-01  3.3376488065146788e+02 6.3985228036815753e+00 6.3771180751084895e+00  3.2530245705600942e+02 5.2955938888238583e+00 9.1469833419741342e-01  2.6452031134387960e+02 3.3824963690376514e+01 3.2416088979138138e+01  9.7931318672364043e+01 2.3324093188475146e+01 -7.4439843026661777e+01  1.3994536158262918e+02 3.7330535300921127e+01 -8.6253469843592129e+01  1.1562416662142076e+02 4.3307022312227055e+01 -8.2973511117474075e+01  1.1116702561217765e+02 3.8529509243370612e+01 -7.9068935391698105e+01  1.2562128808352993e+02 1.3928699704752624e+01 -7.9144541675574260e+01  1.2063569571604056e+02 5.1693825750884152e+01 -7.9679407806950849e+01  1.2436350112082111e+02 5.2521986156523255e+01 -9.1246492737116199e+01  1.3370567361376769e+02 3.2864546061830090e+01 -8.4976123425100681e+01  1.5760968434599943e+02 1.4736395802713124e+01 -8.6185046713550832e+01  1.2157290767051884e+02 5.1337571909475770e+01 -8.5500027306871885e+01  1.6474488692083838e+02 1.2700454701346730e+02 5.6357922561091236e+01  1.5778169626870809e+02 1.3929852375877925e+02 6.0034640621512381e+01  1.3955059606646816e+02 1.2653160542273122e+02 4.6330257981973070e+01  2.7375307115832703e+02 3.2348866713153704e+01 -1.9006563950246882e+01  2.6313344515137999e+02 2.5363426698544586e+01 -2.8106071421493933e+01  1.9605490153322322e+02 4.9484934284260767e+01 -1.6378028393909865e+01  2.5394018606028160e+02 4.9752942313467429e+01 7.1649448180864894e+01  1.9631337261963643e+02 6.7442813531603363e+01 3.6388752082423977e+01  2.1982331375345748e+02 1.1254650309463470e+02 8.3498887056283479e+01  2.1511143033660937e+02 8.7798968356189093e+01 3.6263875703329411e+01  2.1730304374952647e+02 9.9753668142065735e+01 6.5047831092278727e+01  1.9541202164684961e+02 1.0285376771521892e+02 5.1436103297966554e+01  2.2387466064238922e+02 1.0066633235750768e+02 5.8377636380148992e+01  1.7658286641210640e+02 9.1921392894810623e+01 3.5590351637350388e+01  2.2834019949908532e+02 6.0671661375996798e+01 9.6524707243477295e+01  2.7735620579055171e+02 8.7901535184716764e+01 1.2871978331492738e+02  2.1301908983247071e+02 9.5436930956379854e+01 1.0378168608200683e+02  2.0963431274359149e+02 9.1255541828009228e+01 7.6070386617032554e+01  1.7469580944098988e+02 8.1176304699200102e+01 7.7125493372098646e+01  1.7197226392341915e+02 7.8008012358829532e+01 5.5459834996717547e+01  4.7200361155890874e+02 1.5136093041787142e+01 1.7456648584473743e+02  2.5115401787577505e+02 3.9110808395446782e+01 7.7637719150454458e+01  2.0352231557765833e+02 4.7977239080853501e+01 1.0087505573868489e+02  5.0582563901137144e+02 1.6701801583436982e+01 1.7608594148290524e+02  2.8506175917467101e+02 -5.2103684457173385e+00 -3.7676695080003042e+00  2.4708360387325496e+02 1.5138131315241862e+01 -1.0514608330358811e+01  2.3836670706524572e+02 1.2188901766303898e+01 -3.4686606851569661e+00  2.4222520897837597e+02 6.7748906023892248e+00 -1.5708512475755329e+01  2.7268741440179389e+02 6.4435276668495445e-01 -8.1890078425209123e-02  2.7733767281763329e+02 6.6558478178651470e-01 1.8517393992938387e+00  2.8347220722275284e+02 2.1445596834782266e-01 4.2536666958764986e+00  2.8244464689688118e+02 5.7357591153909959e-01 2.3580196229620645e-01  1.0912494262248092e+02 7.0682573053787735e+01 -1.0554477281998399e+02  1.0346918171719494e+02 5.3641784387713152e+01 -7.7994507727466754e+01  1.1584560775278219e+02 5.8183801605770391e+01 -6.3197132837889249e+01  1.3609152180409987e+02 5.7494437850346898e+01 -7.6955608967588148e+01  1.2915140861738666e+02 9.4904514287978941e+01 -4.2016135948560134e+01  6.0786838560443982e+01 1.1839305198060478e+02 -7.1984886602999168e+01  7.5060356250189130e+01 1.1995598129012741e+02 -7.9125674043367383e+01  6.8463552329358720e+01 1.3025916328398174e+02 -2.4093522347774421e+01  5.4753318740575295e+01 1.2902964989969237e+02 -2.1035080443841743e+01  1.2759363001250989e+02 9.0553862567936122e+01 -3.1756394472483585e+01  6.5865934815170007e+01 1.4172911595558753e+02 2.9998461433100459e+01  2.2945281466464033e+02 3.9905428855503988e+00 -1.3249745503578942e+00  2.6650574679452512e+02 1.8099714156766598e+00 2.4571010021064602e-02  2.8363649097404908e+02 -3.6668357476403823e+00 5.3998337354009704e+00  2.7723448694913509e+02 7.1033603536238632e-01 4.3958615911256667e+00  1.6564345054350611e+02 1.3493210025254675e+02 4.6714302684101810e+01  1.4462275236318527e+02 1.4264917717405922e+02 4.9082397354070856e+01  1.6717173340682618e+02 1.2317629840889313e+02 3.7081846055431839e+01  2.5982588933432800e+02 7.7859408754252257e+01 7.7664016244688128e+01  2.3371328710318463e+02 9.8838043115231173e+01 6.2875776670155858e+01  2.1899307352772189e+02 1.1208876115809170e+02 9.4122235953336158e+01  2.5341983069665099e+02 7.3284546513741830e+01 8.9210446746127474e+01  2.1850117389859480e+02 1.0672871560194783e+02 8.8965242548469448e+