<?xml version="1.0"?>
<VTKFile type="UnstructuredGrid"  version="0.1"  >
<UnstructuredGrid>
<Piece  NumberOfPoints="4635" NumberOfCells="20723">
<Points>
<DataArray  type="Float64"  NumberOfComponents="3"  format="ascii">16.7063781985 24.362441522 13.1827394144  15.5287171788 24.66884515105 12.7063610538  15.9418161735 25.18256191945 12.45923341145  16.09449917535 25.16551608145 13.14548926975  15.68140018065 24.65179931305 13.3926169121  16.55369519665 24.37948736 12.4964835561  16.4010121948 24.396533198 11.8102276978  15.4826201522 25.9685906409 13.1082391251  15.0695211575 25.4548738725 13.35536676745  14.6564221628 24.9411571041 13.6024944098  14.170279101 32.5425231936 12.6432957262  14.45371696035 31.7202524596 11.75714312455  14.69500403105 32.3892769688 11.7345511079  14.158795084 32.73605094935 12.0702157995  14.147311067 32.9295787051 11.4971358728  14.44223294335 31.91378021535 11.18406319785  14.68352001405 32.58280472455 11.1614711812  15.2197289611 32.236030744 10.8258064896  14.9784418904 31.5670062348 10.84839850625  14.7371548197 30.8979817256 10.8709905229  15.8280379915 26.824471422 9.2604283708  15.8331006002 26.82038242525 10.3962421379  16.2920577152 27.2149358592 10.07221135245  15.4965927378 26.9917328461 9.822908476449999  16.1645458539 26.65312100115 9.83376203225  16.6235029689 27.0476744351 9.509731246799999  17.4189679463 27.2708774482 9.759034122799999  16.9600108313 26.87632401425 10.08306490825  16.5010537163 26.4817705803 10.4070956937  15.1651474841 27.1589942702 10.3853885821  16.0841369849 27.3963930848 11.3424491539  15.6246422345 27.2776936775 10.863918868  15.56109986355 27.93837272655 10.9808879694  16.0446923174 28.04367410825 10.35498149935  16.0052476499 28.6909551317 9.367513844799999  15.585197567 27.92497470095 9.87645121345  15.52165519605 28.58565375 9.993420314849999  15.0380627422 28.4803523683 10.6193267849  15.10160511315 27.81967331925 10.5023576835  18.7424251014 28.7412968567 12.2421841952  17.73912127505 28.93029702365 12.25009132985  17.47183669005 28.53272940695 12.69215661035  17.68896188055 29.2653928169 12.7114266082  16.7358174487 29.1192971906 12.2579984645  15.1155485901 26.4379812214 6.9254321387  14.69658205165 25.65013487145 7.6674757852  14.07568874155 25.9744778726 7.40759959855  14.5399048786 26.22632764635 7.71155647985  14.8080096261 25.60993867275 6.577394562749999  15.27222576315 25.8617884465 6.88135144405  14.65133245305 26.18613144765 6.6214752574  14.187116316 25.9342816739 6.3175183761  15.4289029362 25.2855956716 6.8372707494  13.9642611671 26.0146740713 8.497680820999999  12.179396432 28.1343408085 10.1021393692  13.0944415724 29.4231710672 9.6443690542  13.03801443215 28.5978685684 10.12393285795  13.04045903755 28.68190252925 9.446344878350001  12.23582357225 28.9596433073 9.622575565449999  13.9015216431 29.22946425 8.7905503875  13.8990770377 29.14543028915 9.4681383671  13.0968861778 29.50720502805 8.9667810746  12.2922507125 29.7849458061 9.1430117617  13.8966324323 29.0613963283 10.1457263467  17.2689130989 30.667834896 10.922054776  16.66268071295 30.21218998035 10.6293479537  17.3691779746 30.14455913655 10.5043860942  16.9764101522 30.69335829655 10.1941713591  16.6839072055 30.7188816971 9.466287942199999  16.37017776625 30.2377133809 9.901464536799999  17.0766750279 30.1700825371 9.7765026773  17.4694428503 29.6212833771 10.0867174124  16.76294558865 29.6889142209 10.2116792719  16.056448327 29.7565450647 10.3366411314  13.6449290144 28.6364058237 12.5486577143  15.3575052281 28.74768452685 12.1360466424  14.54605602385 28.1852382089 12.6388622642  14.25580611135 28.97055067245 13.00139719545  14.45637821865 29.19885214165 12.0458420925  15.2678274229 29.7612984596 11.5430264707  15.0672553156 29.5329969904 12.49858157365  14.8666832083 29.3046955212 13.4541366766  15.1569331208 28.51938305765 13.09160174535  15.4471830333 27.7340705941 12.7290668141  16.7308218239 23.1318196735 8.277071636500001  16.5031997278 23.19232816655 7.035790309099999  16.95895641185 23.3419879951 7.3819231533  16.8917010739 22.84779253725 7.68923837645  16.79807716185 23.62601513135 7.96975641335  16.3423204778 23.4763553028 7.62362356915  16.8653324998 24.1202105892 7.6624411902  16.40957581575 23.97055076065 7.316308346  15.9538191317 23.8208909321 6.9701755018  17.0525803239 22.563765401 7.1014051164  14.39704611 27.4519166183 6.5315579996  14.31285481095 28.15149558225 6.90420772505  14.35313927985 28.03179670315 6.11717782765  14.8477409788 27.75221216965 6.468505690000001  15.2984358476 28.052507721 6.4054533804  14.2689479808 28.7313756671 6.4898275531  14.76354967975 28.4517911336 6.84115541545  14.80383414865 28.3320922545 6.05412551805  14.3092324497 28.611676788 5.7027976557  14.2286635119 28.8510745462 7.2768574505  14.99639942885 26.51721383375 10.00476160695  14.4125690297 26.831774349 9.4492362258  15.32784468255 26.34995240965 9.4422815013  14.91276233865 27.30629336135 9.2673830953  14.8276513736 25.8754333973 9.624134631800001  13.9974866858 27.7881153007 9.274337819799999  14.58131708495 27.47355478545 9.829863200949999  15.88694009545 28.79982477945 11.4386626247  15.15294508255 29.12082541395 11.0811766278  15.6759822039 28.5788457722 11.4427378123  16.0018224358 29.4402978251 11.9005124676  16.4099772168 28.2578451377 11.8002238092  16.7184455639 28.3705348261 10.3827871095  16.7578902314 27.72325380265 11.37025476405  16.7515524656 27.3336352665 10.55074163835  16.7121077981 27.98091628995 9.563273983799998  17.4316434779 28.0501145205 11.3980603742  16.9740430429 25.3459004873 12.3184109077  16.41222361865 25.6817880311 11.27386618685  16.27770389855 25.57628024375 11.88337447225  16.5290900139 26.37114678605 11.8304300308  17.108562763 25.45140827465 11.7089026223  17.2430824831 25.556916062 11.0993943369  16.663609734 26.4766545734 11.2209217454  15.83275086955 26.6015265425 11.39539359535  15.5813647542 25.8066600002 11.4483380368  15.6469061673 32.8377457282 11.7876004048  15.9530123471 31.5861993625 11.9126202324  15.3112537612 31.7458885769 11.6995838712  15.5248423643 32.046746069 12.1804808288  16.0750761501 32.3771990217 11.5197398084  15.861487547 32.0763415296 11.0388428508  15.4333175642 32.5368882361 11.3067034472  16.5032461329 31.9166523152 11.251879212  15.4027785613 31.2557464098 12.5733612528  13.0884415589 27.9612280546 9.6882385945  12.875931733 28.00078181245 10.4364582043  13.572467034 27.8672228164 10.7707770394  13.73454973315 28.46430957235 10.45825169305  13.7849768599 27.82766905855 10.0225574296  13.94705955905 28.4247558145 9.710032083249999  16.0124765147 26.52144265025 7.5642844029  15.6853172158 26.19030656045 6.95833644895  15.47455337005 26.7512560806 6.862933894799999  15.83355815 27.0645309398 6.8004356509  16.37148129465 26.83471750945 7.501786159  16.04432199575 26.50358141965 6.89583820505  16.2550858415 25.9426318995 6.9912407592  16.5822451404 26.2737679893 7.59718871315  16.9094044393 26.6049040791 8.203136667100001  14.7761608777 24.4435294672 6.3399157169  15.0274847424 23.7076550839 7.36567192635  14.4386556154 24.01897435145 7.0505420339  14.9398123056 24.4641359591 7.40532523855  15.3649900047 24.13221019965 6.65504560935  15.5286414326 24.15281669155 7.720455131  15.1034637335 24.484742451 8.470734760199999  14.6023070433 24.03958084335 8.11595155555  14.1011503531 23.5944192357 7.7611683509  13.8586384454 28.2718829162 12.15098218795  13.7679748364 28.17234893995 12.7098184171  13.8910206584 27.7082920562 12.8709791199  14.75976545485 27.8207153014 12.24118673785  14.66910184585 27.72118132515 12.800022967  13.9816842674 27.80782603245 12.31214289075  14.0723478764 27.9073600087 11.7533066616  13.70178142605 27.57089823525 7.32652039265  14.6696132208 27.529334431 7.3123110247  14.9421803316 27.6067522437 8.093064049800001  14.58542192175 28.22891339495 7.68496075015  13.97434853685 27.64831604795 8.107273417750001  13.0065167421 27.6898798522 8.1214827857  13.617590127 28.2704771992 7.6991701181  12.628849609 25.5624977728 9.7827535449  13.53791647475 24.79434371485 9.7504464757  13.2951836671 25.16421123585 10.4009405831  13.12051386555 25.61353259545 10.06117622125  12.80351941055 25.1131764132 10.12251790675  13.0462522182 24.7433088922 9.472023799350001  12.9781892121 24.6638550536 10.4622822686  13.22092201975 24.2939875326 9.811788161199999  13.6121781221 25.6645674181 10.3395988976  13.4636548274 23.9241200116 9.161294053800001  14.78652883115 31.8991348017 12.6083284895  14.90859263415 32.6901344609 12.2154480655  16.407608962 33.2030228343 12.8538966652  15.90519376165 32.22938462205 12.713628959  16.60817712715 32.93604895835 12.42700897025  16.02725756465 33.02038428125 12.320748535  16.1057619268 31.9624107461 12.28674126405  16.2278257298 32.7534104053 11.89386084005  16.8087452923 32.6690750824 12.0001212753  15.9743416397 24.87046046925 13.99428157745  15.36246261655 25.6735350287 13.9570314328  14.7354884868 32.2986576899 13.8566384091  15.26035691415 32.13141368475 12.6620063791  15.06913352405 31.77720204985 13.21499983095  14.4528837939 32.42059044174999 13.24996706765  14.9267118769 32.65286932479999 13.30364495725  14.644107184 32.77480207665 12.6969736158  15.117935267 33.0070809597 12.7506515054  16.43340796615 32.0012668494 12.64683832315  16.4857148844 31.9644933637 13.49389112605  13.9106210808 25.7393004629 12.2643441002  15.15837925715 24.777228271 11.8467429388  14.63915808035 25.4907721314 11.32807103465  14.7459929175 25.77298023155 11.8563410685  13.80378624365 25.45709236275 11.73607406635  14.32300742045 24.74354850235 12.2547459705  13.6969514065 25.1748842626 11.2078040325  14.2161725833 24.4613404022 11.72647593665  14.7353937601 23.7477965418 12.2451478408  15.7656600091 27.56523183945 12.035757984  16.091500241 28.42668389235 12.4935326393  16.1848390851 23.8503162255 10.89133668605  15.651987676 24.4775013386 10.98813456275  16.48716862335 24.39927099595 11.1502395034  16.09868265655 23.84757842755 11.55132488045  15.7963531183 
[...]
<PointData  Vectors="u"> 
<DataArray  type="Float64"  Name="u"  NumberOfComponents="3" format="ascii">4.7419098792292928e+01 6.7069470707662305e+01 6.8257209411775477e+01  4.7601686820599070e+01 6.9970908093936714e+01 7.2245362203608423e+01  5.3361296505733684e+01 6.7145411961575348e+01 6.4614171468115515e+01  4.7669565623296322e+01 6.4849664626128956e+01 6.8295172515664476e+01  4.4471239458494978e+01 6.8247579884853295e+01 7.1410126667935955e+01  5.0835742423182765e+01 7.2100197191089521e+01 6.8432410719561190e+01  5.2351120511670949e+01 8.3267662448676333e+01 6.1240226155993213e+01  4.3391886653633719e+01 5.4407392036503566e+01 7.1679335924828365e+01  3.5953088014237913e+01 6.1368052991333123e+01 7.3769011850446020e+01  2.9454706669819963e+01 6.7980182337644933e+01 7.5641955482418979e+01  1.8266951693859065e+02 6.8632974637355462e+00 1.7087551397544567e+02  1.6663192602373584e+02 -4.0121849858514778e+01 1.2978010279580815e+02  1.8666720362126696e+02 -2.8344811202180829e+00 1.4019311375893835e+02  2.1978911641220361e+02 1.3126302519922925e+01 1.9602341960639157e+02  2.6110254380807930e+02 -7.9655250884573874e+01 2.0653270867615350e+02  1.8024426218411313e+02 -6.0619244015479275e+01 1.3764601930912409e+02  2.4380045393464252e+02 -3.0163383601595115e+01 2.0102753853501554e+02  1.9709635612106601e+02 -2.3928444268221799e+01 1.5395754276827043e+02  1.5861414027483613e+02 -5.0976004139783264e+01 1.1760664853965805e+02  1.4413718937150293e+02 -5.2186337223584722e+01 1.0081939468347518e+02  1.4855866556399221e+02 1.9629407728244541e+01 3.1105789674586294e+01  1.1957591217077594e+02 2.4244005295605799e+01 4.9335243084670182e+01  1.3635402970992172e+02 8.8462260707904452e+00 3.6334660741064376e+01  1.3094303638155267e+02 1.4565060471662854e+01 4.9983280134579793e+01  1.4043257506051521e+02 2.6777638914837009e+01 3.2783958510536905e+01  1.5389028414694067e+02 9.2065742070465255e+00 1.9601325824781490e+01  1.6454500830128470e+02 -8.3379376997971768e+00 1.8477217136974787e+01  1.5653783538083519e+02 1.9443679670934266e+01 2.1286175643598508e+01  1.3316658145645670e+02 4.0068522867900342e+01 2.9204702885658325e+01  1.1429494223552953e+02 9.9460297755391966e+00 6.9264072974543268e+01  1.0451308005541442e+02 1.4377743401154254e+01 5.7153799975357785e+01  1.0720268941054346e+02 1.1830777459589770e+01 6.3790184976465632e+01  1.0819311060002029e+02 -6.3149535561834700e+00 7.0001075962806539e+01  1.2376051617061135e+02 -1.2098576972821382e+01 5.1573292398255667e+01  1.3357769472839550e+02 -3.2533782937448883e+01 3.3104673571673302e+01  1.3060443198850379e+02 -9.5591534471341362e+00 4.9902491965836575e+01  1.2708842053915298e+02 -2.4608261313599229e+01 5.4820751466570080e+01  1.1667457968376364e+02 -2.2596083172896602e+01 7.7068646390221204e+01  1.1621018179917715e+02 -7.7902258832610656e+00 7.2890324435390681e+01  1.9731198523102142e+02 -1.0658337359050009e+02 -4.1689188877972704e+01  9.4320341580591375e+01 -1.8601725231222101e+01 5.5635324072103970e+01  8.8541057122785190e+01 1.6361481951733758e+01 6.5352334709824703e+01  7.8268156755525524e+01 3.1651383849146653e+00 9.2083074110742942e+01  9.8959405457696604e+01 -8.9193250940419464e+00 8.0129931850046901e+01  2.2727349793480528e+02 6.0398918035965593e+01 5.3907873923231882e+01  1.6250753264010746e+02 4.1399414954695558e+01 6.1073948929901718e+01  1.5292659248854812e+02 3.3576846570382770e+01 7.3516885997281662e+01  1.6584471204792962e+02 3.6167034577433370e+01 6.2413097794032041e+01  1.6637175074458150e+02 3.9143690286313451e+01 1.0304565891111628e+02  2.2837073997375271e+02 7.2403683827538657e+01 7.3315124799289833e+01  1.7725208060988203e+02 4.3588341247719939e+01 1.0291129896904582e+02  1.5916678279736533e+02 3.4015440834442906e+01 9.9512722602876622e+01  1.9453457716832114e+02 7.2243383647776497e+01 7.5652162740844005e+01  1.3911130955900509e+02 2.9825227826711725e+01 6.7212789543649109e+01  1.0473785843320519e+02 -2.5576769672484460e+01 6.5352933472598082e+01  1.3633526790641017e+02 -4.8795972832302603e+01 6.4911964193707121e+01  1.3653564675846991e+02 -2.9470428451363755e+01 7.3377166554968284e+01  1.2996907535697099e+02 -3.0421350430837492e+01 6.6235594737921048e+01  1.1943370757436983e+02 -4.4820249680070056e+01 6.4160850364622164e+01  1.4400537066783281e+02 -3.4033776866733376e+01 4.9515579635645359e+01  1.3831123012158426e+02 -3.6647433527414869e+01 6.0974768933074976e+01  1.3689824814337121e+02 -4.6503277259154530e+01 5.4042601356023589e+01  1.2665289080026641e+02 -6.2122563438532481e+01 5.5125405407139191e+01  1.3538271710298821e+02 -3.8804275327413400e+01 7.7284432967271101e+01  7.8885458535686553e+01 -2.1443673466482476e+01 1.0442336497768198e+02  9.2423442758982617e+01 -3.9491545375927188e+01 8.5852286229570211e+01  7.0695042224871315e+01 -6.1881763468730107e+01 9.3804481237695157e+01  6.5738363307930143e+01 -4.3140021156007499e+01 9.4699916656853787e+01  7.4511415013788749e+01 -6.9767303099926608e+01 4.7262890661636661e+01  9.9545600580933240e+01 -5.4807303484006077e+01 6.1526103643167758e+01  6.3767128022999202e+01 -7.2397289316853985e+01 6.1504775137781955e+01  8.1256172729152809e+01 -8.2869564116344577e+01 6.6570171471585525e+01  9.7600103849680110e+01 -5.6774098061271808e+01 6.2256001303544700e+01  1.1152295985327324e+02 -4.2846522152095659e+01 6.7526386909359886e+01  5.5289993887782217e+01 -8.4833850863157849e+01 1.5070145749725936e+02  9.1741059532107030e+01 -1.4270691335813364e+01 9.1026665007230122e+01  4.4487464983971542e+01 -2.2924250079698155e+01 1.0011645279546835e+02  6.4644639392590321e+01 -4.3390720767502742e+01 1.2001571298091694e+02  1.0195372131014962e+02 -4.1509628168457660e+01 1.1314615009021280e+02  1.1376973995064725e+02 -3.2004853764265633e+01 9.6364787228927085e+01  9.6384978525235582e+01 -2.6691906386015766e+01 1.0834255217956655e+02  7.4999931746327974e+01 -1.8099640141867354e+01 1.1022262527304230e+02  6.7224341247609971e+01 -6.2887632543573719e+00 9.5304196849010964e+01  6.2588119573820940e+01 1.0840182474947307e+01 8.3031471986908883e+01  2.9497332960141605e+01 3.2149191464772038e+01 -3.1006120405743690e+01  5.3883654764576789e+01 -7.5713400192021481e+01 2.9280879810256998e+01  -3.0571057436471758e+01 -5.8493969681559541e+01 9.4098009274729879e+00  6.5395266760587143e+00 -1.1994613119613759e+02 -7.4764073183797933e+01  9.6212914172302497e+00 8.5667392677858942e+01 7.8353013607726956e+00  7.1119227965479524e+01 1.9626480799407759e+01 1.0376536227444618e+01  6.5234559338236622e+01 1.7013549197404782e+02 3.5098474775350418e+01  7.7981471239174098e+01 8.6290992957723304e+01 5.5646120706345954e+01  1.1124621677185748e+02 2.9834231339723470e+01 4.6388091054026681e+01  3.9592529972061988e+02 -8.9849038237363729e+01 -3.1427690044427317e+02  2.0869256641590661e+02 4.1485610855310028e+01 7.4239427000499347e+01  1.9040010985544581e+02 1.3765081221023198e+01 4.7671104612868731e+01  2.2443483299301622e+02 5.1783076383973544e+01 7.5081903797534522e+01  2.4794080640902465e+02 1.8096037955252616e+01 3.5061385819295623e+01  2.5380976235063468e+02 -1.3945273164424657e+01 -3.0526517175283519e+01  1.9568878780760537e+02 7.8104264781660602e+00 3.7041534958043854e+01  2.0369413213674514e+02 3.2170643459227457e+00 2.2915731192418704e+01  2.6733967770119347e+02 2.7505650042157892e+01 6.3656228929753293e+00  2.3953741311111477e+02 3.0936298697798431e+01 4.0051356022432195e+01  1.7394615308809531e+02 -1.1120475770853234e+01 3.2025157823267456e+01  1.1854183052905744e+02 2.6004846926539315e+01 6.5418098318645463e+01  1.3047685280105651e+02 1.4892792599865709e+01 6.7946622170245732e+01  1.3621180716812859e+02 3.1837538202900891e+01 4.6226536665772521e+01  1.3881925108906168e+02 5.9137628829615814e+00 5.2603800155217051e+01  1.2331362573479849e+02 3.8628882585480255e+01 6.2033209035209502e+01  1.3728946856974514e+02 -6.5767424565846708e+00 6.5279716189386789e+01  1.2923347762552066e+02 -6.7804279225982667e-01 6.9754417629205733e+01  1.0581544948652308e+02 -1.8912700410411265e+01 7.7096622132945825e+01  1.1287128001507048e+02 -3.1405102528826045e+01 8.6118446391584669e+01  1.0261483455826961e+02 -1.7158642500735358e+01 7.9609197183600855e+01  1.0225403305344223e+02 -1.9241947404666316e+01 8.9143354418457349e+01  1.0106995019824156e+02 -1.2128950699613172e+00 6.5553081833785953e+01  1.2864494273183976e+02 -2.7093014591201310e+01 4.6000176137648218e+01  1.1963574933170403e+02 5.4723142247845020e+00 4.5857584160918933e+01  1.3833990461006314e+02 7.4638696217916332e+00 3.5019830635329541e+01  1.4343579797153265e+02 -2.1167392628468640e+01 2.4863895997592429e+01  1.4306633780949076e+02 -1.2529471140680696e+01 3.7516013103355903e+01  5.0441665168796625e+01 8.0847214039216098e+01 4.7828435445382219e+01  8.8387835758155717e+01 7.3839398531556967e+01 3.4699850370651895e+01  6.8041615663604290e+01 7.0382835499233394e+01 5.0894271973775091e+01  8.7005514094191781e+01 5.4827432114867143e+01 4.2928122557018462e+01  6.3295536327001294e+01 9.8928905174559077e+01 2.2636591457545535e+01  1.1628188990838798e+02 1.0872135361902779e+02 -3.9735121381934295e+00  1.1541659540903501e+02 4.6332112575855909e+01 3.2851402212291973e+01  8.8562679752742412e+01 3.7026986690228206e+01 5.8930534991345894e+01  7.5157329773592465e+01 5.5422489001169943e+01 6.3828118198242713e+01  1.5478590892033085e+02 2.3717138575068041e+01 1.0410118377557167e+02  1.2230322010358462e+02 -6.2150389938234110e+00 1.0841958548926324e+02  1.4714744655676887e+02 -1.3781401146636165e+01 1.2029565631473689e+02  1.3303189360235450e+02 -3.4922867195642731e+00 1.1553589234622662e+02  1.4612893589042878e+02 3.1144453834686487e+01 9.6584376260491368e+01  1.5375891899245499e+02 1.3320733157600774e+01 1.0882992412612867e+02  1.6709363343017762e+02 3.4537580186945405e+01 1.1169857160989913e+02  1.1910052718801334e+02 1.5609864167710311e+01 1.0353181966776701e+02  1.1859257526928526e+02 -1.2350467678012755e+01 1.1846086609233254e+02  1.3159394513755356e+02 -1.3271873767105580e+01 6.8495820642094017e+01  1.4188809277872434e+02 -1.3154791717306155e+01 7.0259468080425208e+01  1.3667709116083626e+02 -2.9627103307190886e+01 1.2061293089469059e+02  1.3396392196666608e+02 -3.0415523611670331e+01 9.0683252362738102e+01  1.3238092200753849e+02 -1.4567534155090918e+01 8.3653519208731240e+01  1.3455098535671942e+02 -2.3350318136765779e+01 7.0462309558884130e+01  2.0763844594514606e+02 3.8741285698845068e+01 -1.3135561267702693e+01  2.4967379209095219e+02 8.5272608369178940e+01 6.1858250113440176e+00  2.5259068622119571e+02 5.1248398974085248e+01 -8.9164928973001487e+00  2.4363209681732053e+02 1.8949981897870902e+01 -5.9025904525530194e+01  1.9940800001067794e+02 1.4895111479463971e+01 -3.4459783986390228e+01  2.6592788394663370e+02 5.1464872531996775e+01 -8.9883630349663548e+01  2.6197989804992761e+02 9.8712133432376547e+01 -4.1513032256900694e+01  2.1579577940365695e+02 3.6948004338981185e+01 -3.8915044531451151e+01  1.9178468691874713e+02 1.6154939841878274e+01 -2.0289072933769411e+01  1.4691561073228374e+02 1.7935929309520031e+01 8.0821688469603529e+01  1.3212284666198917e+02 2.1471377242889155e+01 4.5210808577049725e+01  1.4236089610292487e+02 2.1095299894070937e+01 6.1547134005409447e+01  1.4195673553151755e+02 3.9346905770581856e+01 5.9421429694154661e+01  1.3167468155971378e+02 1.9675329309966564e+01 7.0840069420962138e+01  1.2667578341046401e+02 5.1976498583884677e+01 3.9921954146830728e+01  1.2756442877356596e+02 5.4343918227141103e+01 4.3495842107480769e+01  1.2713357291786032e+02 3.6732827148279682e+01 4.7907568018531023e+01  1.3626017961977567e+02 2.3576308780815097e+01 5.3074175100493513e+01  5.3800079347048104e+01 -7.5012695324243950e+01 1.4558445295298412e+02  -8.2184493102991283e+00 -7.1736558286651984e+01 1.1745418520397833e+02  -1.6816835311246798e+01 -2.7968009124056675e+01 9.0797235840346090e+01  5.0339248101119111e+01 -1.1757137674978537e+01 9.9250615320305755e+01  3.6133134800934208e+01 -4.8395522483711106e+00 9.0994966104855905e+01  -1.4407668810954497e+01 -5.2172336322292281e+01 1.1829743162046225e+02  6.1342737493181950e+01 -4.6072763653221834e+01 1.4022958279357900e+02  1.5956003384768997e+02 1.5664102051642455e+01 6.4701673652952110e+01  1.9160531701599294e+02 1.8069891673607561e+01 3.8050068244668495e+01  1.6896039933345054e+02 5.4751898818943445e+00 3.1766524165661249e+01  1.7234914657796736e+02 -3.8878864027669371e+00 3.3364620587833272e+01  1.5241702264822402e+02 5.0208988526491813e+00 5.4624397035522591e+01  1.3345868081632872e+02 2.3873963931668309e+00 6.7056947574598766e+01  1.5314377288001899e+02 -3.5996486608106499e+00 5.3833171517887031e+01  1.2045152719047488e+02 2.6300088234139320e+01 7.8662141015959861e+01  1.1772619017629859e+02 3.9575208059129544e+01 8.1620135918139496e+01  1.3700127023220244e+02 3.2533658285902959e+01 1.1666841854892039e+02  1.3652751107092456e+02 2.6457070891043646e+01 8.1507113064057080e+01  1.2299014409369212e+02 1.6102526253484516e+01 8.1084273656154991e+01  1.2185291143567642e+02 3.6708011964215054e+01 8.0979342853193160e+01  1.1610775300941590e+02 3.8231114737092284e+01 1.1073388635901796e+02  1.1434246635444613e+02 4.1838038173584401e+01 8.4272982801464948e+01  1.2064330414486193e+02 3.8051091362061975e+01 1.1433949510436801e+02  1.1994793551640286e+02 4.0631979183953085e+01 7.0559718452383294e+01  1.4354980027110662e+02 -1.2034954822533903e+01 1.4242573512396984e+02  1.5384457474581689e+02 1.0363755249221985e+01 1.4211573951242067e+02  7.5296289705844572e+01 -5.7170453992906156e-01 7.4794799671891369e+01  1.1041959399834056e+02 3.6891957342648136e+00 1.0874863728077182e+02  8.9144004186859362e+01 9.7642545885082246e+00 7.5378875487644819e+01  1.0660716406838249e+02 3.4553562059471290e+01 8.9686529413417716e+01  1.1627349208184904e+02 2.3864251822388169e+00 1.0262567064086939e+02  1.2196871304822854e+02 2.2117131747211822e+01 7.4197659051933485e+01  9.2104967020071285e+01 1.2788263630235601e+01 7.3180915570793360e+01  4.4205091782000288e+01 6.5368934052425672e+01 6.9906789186869631e+01  3.8295227777496876e+01 5.7648716118238170e+01 7.0465186291223858e+01  9.6597091646082333e+01 8.3464077234647327e+00 1.5308016879442684e+02  1.2892884711014469e+02 -3.4913916561737457e+00 1.2475208261611893e+02  1.1363359125611741e+02 -6.9553082871401308e+00 1.3194276006657728e+02  1.2372793013104614e+02 8.4371604679192487e+00 1.6314021245184867e+02  1.1628475888014586e+02 1.1355621929339296e+01 1.4196537759907815e+02  1.4651868601221389e+02 1.5864144777637057e+01 1.4790403057096972e+02  1.3492108686036480e+02 2.3834798597794624e+01 1.2957841714923430e+02  1.0525699343868985e+02 -2.1827008002965167e+00 1.0179934673507871e+02  9.7326441061367447e+01 -1.3877905945658430e+01 1.0806138125099802e+02  1.6001910733536167e+01 7.2805243082302795e+01 1.0113285153878182e+02  5.7517168501756643e+01 6.9073698987516892e+01 7.4021552659243085e+01  6.2647940890819775e+01 5.9693061995235155e+01 8.8905648334051392e+01  4.6942068723013321e+01 5.7706251917690743e+01 8.4581190599648266e+01  3.6022608137171531e+01 7.6276568149243673e+01 1.0830533091578751e+02  4.1717827584558016e+01 7.3721682091431930e+01 8.8817651202910696e+01  6.6040217914694409e+01 7.5345411752497753e+01 1.2024435119677369e+02  5.5864068554014430e+01 7.3028174498387443e+01 9.2266238832159516e+01  4.8884575002388537e+01 7.6862841667711379e+01 8.2594329927298446e+01  8.1042303859292986e+01 1.3743456743342200e+01 7.2522027241741910e+01  8.7964745015428306e+01 3.4856274176841868e+00 7.9264718663129798e+01  4.7892340864961994e+01 1.0232303477748557e+02 5.5210803064832426e+01  6.8343630761374627e+01 8.0516015229625552e+01 5.6121318426147816e+01  5.5805171897125241e+01 9.9230907733917050e+01 4.5232995658176023e+01  4.9968152500640578e+01 8.5325237088656479e+01 6.8214381787047898e+01  4.0804134451830613e+01 9.4986789938771025e+01 7.2847212363456919e+01  6.4151268302670076e+01 7.8571974343697178e+01 5.7838404570473166e+01  8.0653881292284964e+01 1.1232467339741686e+02 2.1002059769427188e+01  8.2761174497534327e+01 8.3151582657687669e+01 4.3806549868649853e+01  9.2646629025638020e+01 6.3664453105212310e+01 6.1510399468359203e+01  1.9821900846825866e+02 6.6729743122035401e+01 4.4057801427357823e+00  1.8240181201504839e+02 3.4742541060283919e+01 4.6975398316019836e+00  1.6897741544382933e+02 2.0563686594812243e+01 9.1013085157217954e+00  1.5544821897919033e+02 4.1405195641138242e+01 2.1962461973470752e+01  1.5955432849130278e+02 7.1572714126572848e+01 1.5431297373456911e+01  1.8596251624321391e+02 4.6969900124625646e+01 -3.9218507824656599e+00  6.5375308936365855e+01 1.8467956172928776e+01 1.3209875540579858e+02  9.3723122390536446e+01 3.3141526220650469e+01 6.6609897346674344e+01  9.6742245051878456e+01 1.3881903524152367e+01 9.2890381704325335e+01  8.5382531755381379e+01 1.6218892350261939e+01 8.2811834428864159e+01  6.7912074532542789e+01 4.1058176423743987e+01 8.5780810944959498e+01  9.2576521379757281e+01 8.6448274614190254e+01 3.1598548140214955e+01  7.1880657166571453e+01 7.7956524198855845e+01 4.3030128541353953e+01  4.5749538775038914e+01 1.1132910885066110e+02 3.0745513778306030e+01  1.0333187960773708e+02 1.3138623542965846e+02 1.1302013372609654e+01  3.3173770009048283e+01 9.2285793541307356e+01 1.7415803774829826e+01  4.1642604820859901e+01 1.0840512519597709e+02 1.4222648462836949e+01  8.9873634011188017e+01 1.4246738053849947e+02 1.3244781135712818e+01  2.0603444057410812e+02 1.0687234592722322e+02 -2.8577210303290174e-01  8.8581381896653809e+01 -9.9330824734933465e+00 8.7170720011570751e+01  1.3904687654438038e+02 -1.6561325424597459e+01 4.8969970489968730e+01  1.2790674789175451e+02 -1.6394123755984207e+01 7.0592730088100723e+01  1.4030202763389593e+02 -2.0675995093404563e+01 5.7072835162960459e+01  1.5194465528428773e+02 -1.3938080015603340e+01 4.3075014097724456e+01  1.4102163321783246e+02 -3.0581648663488309e+01 4.2090198498034788e+01  1.5095390535808329e+02 -1.4503649449229608e+01 2.7505916528236384e+01  1.4780376403925777e+02 -2.3400037384480460e-01 5.0609560369244207e+01  1.3726535862938172e+02 1.4575688100389263e+01 6.5342023938100965e+01  1.4740621566458839e+02 2.1223086408117855e+01 4.9372656267269740e+01  1.5492132243959125e+02 2.2076505068453599e+01 5.3849723136591940e+01  1.3384763892200758e+02 3.3867808177297086e+01 6.3674003229380240e+01  1.6314842621288139e+02 6.6485322659357067e+01 -9.5690073944397519e-02  1.6233459637243280e+02 5.4375775592067043e+01 2.0075421358764464e-01  1.3235610447110895e+02 6.5769037615014753e+01 1.6276514721840208e+01  1.6140717601306693e+02 1.2960270564961382e+02 -3.1082536721584628e+01  2.5214031503827462e+02 6.8733207647422120e+01 -3.3912462291470419e+01  1.6974804061734079e+02 1.1347244984911194e+02 -4.3218129882501159e+01  2.4229729121230437e+02 8.9502300724343343e+01 -4.1222378781964700e+01  8.5832649637718589e+01 -4.6196499724778839e+01 -2.1449849187278129e+01  1.3059050689652904e+02 -2.2692243946765149e+01 3.3644217254550846e+01  1.6821574998118666e+02 -8.3959750480076366e+01 -2.1390323634882030e+01  1.7873271793090538e+02 -1.9429913080838611e+02 -1.8270146282918194e+01  6.5594884799982495e+01 7.1034826484447763e+01 7.2728244205064897e+01  5.5229235451352423e+01 7.7808740382758359e+01 7.5170066010309057e+01  5.3248135676233836e+01 7.8713493544055467e+01 6.6324596823118043e+01  7.8402817201645178e+01 6.4931945260132480e+01 6.7918981302494061e+01  6.9609072413944844e+01 6.7047743409170963e+01 7.4369413693338544e+01  5.8890189440012847e+01 7.2933600905074314e+01 8.0614111067809844e+01  1.4041590035395922e+02 -6.7339761341499255e+01 1.8634845941884555e+02  1.1967990860573325e+02 -3.5720188269292059e+01 1.3290536694049860e+02  1.1060566164476376e+02 -4.2975562122317037e+01 1.2720960244514787e+02  8.4376401682790757e+01 -3.9496577609366639e+01 1.4076769566187062e+02  9.8199760056455446e+01 -2.4197032833899300e+01 1.4673137066030040e+02  1.5570897352296109e+02 -6.2104143089009476e+01 1.4833331052025670e+02  1.5296758527498429e+02 -6.4835988160225682e+01 1.2608936997153832e+02  8.7384525098660234e+01