<?xml version="1.0"?>
<VTKFile type="UnstructuredGrid"  version="0.1"  >
<UnstructuredGrid>
<Piece  NumberOfPoints="4578" NumberOfCells="19728">
<Points>
<DataArray  type="Float64"  NumberOfComponents="3"  format="ascii">30.4836161115 20.0012077445 38.2396885604  30.1545919975 19.4496362395 37.24873786425  30.46976280785 19.3541399978 37.92213443049999  30.0925822306 19.4388934849 38.2838215679  29.7015483497 18.8765792253 38.3279545754  30.07872892695 18.7918257382 37.966267438  30.4559095042 18.7070722511 37.6045803006  29.68023992805 19.94915660405 36.85560864185  30.71096993745 18.3112068278 36.69194924195  30.7709922003 17.7962861552 37.2334001965  31.0261407478 18.2157105861 37.3653458082  31.5963719914 17.7243489211 37.1261113158  30.8720341606 19.8781667311 36.8367963661  31.43342580855 20.7847337267 36.230150045  31.6437459593 20.0473334971 36.3554704016  31.3563399295 20.40707735585 36.97441459355  30.94912003965 20.25582310195 36.09253181755  31.0262059187 20.6334794728 35.348267269  31.72083183835 20.42498986795 35.61120585305  31.8406456984 20.9359879806 37.112032821  32.1280517282 20.57624412185 36.49308862905  32.415457758 20.2165002631 35.8741444371  33.7756857476 20.2641101581 34.0693023592  33.79058677515 21.1567250052 34.63607742035  34.1597835839 20.4699726812 34.70937888765  33.46197262915 20.78344391455 34.5644636177  34.1042998936 20.63739124875 34.14091616185  33.51745631945001 20.616025347 35.1329263435  33.8311694379 20.09669159055 34.637765085  33.8866531282 19.929273023 35.2062278108  34.4329140396 21.0106723394 34.2125299645  33.1482595107 21.302777671 35.0596248762  31.3585465729 18.4628819362 36.34618303480001  30.7883153293 18.9542436012 36.5854175272  30.14073869385 18.8025684928 36.93118373435  31.1207211544 19.2014149513 35.5662547538  30.47314451895 19.0497398429 35.91202096095  29.8255678835 18.8980647345 36.2577871681  30.5314154515 18.68017227615 34.95333907520001  30.4130061528 18.2499756919 35.74288318790001  29.90986624885 18.3497076156 35.1962398967  29.9439771822 19.32826131875 35.4682430554  30.0623864809 19.758457903 34.6786989427  31.0004444221 17.6018866493 35.2279792077  30.4258869011 19.76577210365 35.80302721855  30.59155381765 19.47993642715 35.12247684825  31.07346353655 19.91744721205 35.4572610114  30.5442961998 20.1959686879 35.01348310585  32.096031438 19.7314492257 38.1481025149  32.0330673913 19.85316413505 36.74457041965  32.255744598 19.9739747444 37.011123476  31.9683385682 20.33371860315 37.63006766795  32.16076026109999 19.2508947576 37.2626052666  32.2254890842 18.7703402895 36.3771080183  32.3204734211 19.4934202763 36.1256262277  30.451647992 20.4163833402 33.4005228813  31.10747040145 19.80899590655 33.7802852111  30.9663219518 20.29599342965 33.19677017115  30.8992511209 20.5343863361 33.6128554344  31.3468542498 20.652389332 33.8251879875  33.58131997415001 20.5887428811 35.9057582226  33.9477208505 21.13188158505 35.49849844214999  33.15105544310001 20.07288664305 35.54018612395  34.31691765925 20.44512926105 35.57179990945  34.7471821903 20.9609854991 35.9373720081  32.78185863435 20.75963896705 35.46688465665  30.0516343531 22.0645588814 34.4570214275  30.88152714505 21.5568804347 35.43793524845  30.74452508335 21.95146105505 35.54399136305  30.32714999415 21.7373450509 35.47811940385  30.606011504 21.8840942652 34.4168372721  30.4690094423 22.27867488555 34.52289338670001  30.8863845315 22.4927908897 34.5887653459  31.0233865932 22.09821026935 34.4827092313  31.1603886549 21.703629649 34.3766531167  30.6026656352 21.4101312204 36.4992173802  31.5487616224 19.3242535103 36.6069521922  31.6731051193 18.9858776204 35.97168138605  31.7680894562 19.7089576072 35.72019959545  30.9963776575 19.5397908412 36.20152555995  31.24284307295 19.0128044082 36.64319132  30.6639718324 19.2926194911 37.22068833335  30.91043724785 18.7656330581 37.6623540934  31.3649649915 18.8241938651 37.7201278862  31.11849957605 19.3511802981 37.27846212615  32.08937528445 19.709054368 35.017095989  31.3947493648 19.91754397285 34.75415740495  31.44200698265 19.2015117121 34.86315114735  31.7632928109 19.2016084729 34.1600475409  31.736583027 22.0117957169 35.7255125338  32.0760203925 21.11414799 35.79982848545  31.7886143627 21.47389184875 36.4187726774  31.38139447285 21.32263759485 35.5368899014  30.0080731225 20.36594980395 36.1418332431  30.81443577695 21.0218053466 35.9237423246  30.7373498979 20.64414897575 36.66800687315001  30.08515900155 20.7436061748 35.39756869455  29.8733888598 21.1319320486 35.97304375015  29.1441120844 20.8537328768 35.4468701201  31.9234849471 21.7197505791 34.8093779127  31.8442571016 22.4221491294 34.9379839708  31.44848584095 21.85771268295 35.05108282525  32.0311590217 22.1301039916 34.02184934970001  31.63538776105 21.56566754515 34.13494820415  31.55615991555 22.26806609545 34.26355426225  31.9519311762 22.8325025419 34.1504554078  32.1103868672 21.4277054413 33.8932432916  31.41915785385 22.6626467158 34.36961037685001  31.31148377925 22.2522933033 35.15713893985  32.55009534345 22.06764010645 34.605040142  32.4641495096 22.3883928695 33.8600142664  33.06231367685 21.62353043405 34.3145990006  32.62932318895 21.36524155615 34.4764340839  32.5433773551 21.6859943192 33.7314082083  32.976367843 21.9442831971 33.569573125  31.0932972868 21.1685545609 34.86246019284999  31.1696243311 21.71096346865 36.112364957  30.9128396459 19.48003318795 34.4193732418  30.70462036535 20.2054236175 34.2519434651  31.18653008425 20.6429344024 34.58672762825  31.55507353035 19.92699890245 33.99261776420001  30.67782513605 19.9396872378 37.53824246325  30.9242905515 19.4127008048 37.9799082233  29.4982586295 21.6289914064 36.6286548109  29.3395120285 20.9269906752 36.45015011785  30.0687888039 21.205189847 36.9763237479  30.0321354608 21.8339327798 36.1515484432  29.3028586854 21.555733608 35.62537481315  29.5349119726 21.0002484736 37.4534301156  29.4616052864 22.2577343392 35.8038795062  30.24390560255 21.445606906 35.5760733876  29.75661981975 22.1611466103 35.13045046685  30.5389201359 21.3490191771 34.90264434825  31.61296675315 18.1861134694 35.802543613  31.94196403495 17.35314009395 35.8895955396  31.29840820675 17.6631177852 36.17704526175  31.9109305378 18.2473446053 36.75160966705  32.554486366 17.93736691405 36.4641599449  32.2399278196 17.41437122985 36.83866159365  32.8834836478 17.1043935386 36.5512118715  33.3575021412 19.99922854495 36.29952560495  34.0930998263 19.8556149249 35.9655672918  34.52336435735 20.37147116295 36.33113939045  34.2995465244 19.7819568268 36.7249067728  30.34880102205 19.3881157328 36.54729176710001  33.2259187093 18.7543090361 35.1086962049  32.1131815657 18.1780978427 35.1683377063  32.4946057601 18.9779587545 34.6343718729  32.17331993185 18.9778619937 35.33747547935  31.3818686165 18.4017475611 34.6940133743  31.06058278825 18.4016508003 35.39711698075  33.2946788147 19.4109631442 34.1233784029  33.2214691627 20.3568704076 34.59150163955  33.59066597145 19.6701180836 34.66480310685  33.53518228115 19.83753665115 34.09634038105  33.12932516285 19.4982924122 36.56226777485  33.2625178043 19.27614855815 36.55100739555  34.07136954605 19.28102069405 36.9876489427  33.8431925677 18.7800845613 37.2503911126  33.03434082595 18.7752124254 36.81374956545  32.39910269475 17.8516164642 37.09484462045  32.1965661757 18.1427600624 37.39983602060001  32.79676036 18.5611712037 37.6735607254  32.71366124115 18.3746121484 36.7203429717  32.5111247221 18.6657557466 37.02533437185  32.99929687905 18.2700276055 37.36856932525  33.2018333981 17.9788840073 37.0635779251  32.70253284095 20.41933429275 34.00831084725  31.8811560039 20.43444479755 34.8496662123  32.32076653225 20.0316762381 33.9742831952  31.7286205585 21.04004738665 33.85921563955  32.2629223126 20.8221028522 34.88369386435  32.85506828635 19.81373170365 34.99876142  32.5289858128 19.30628580855 34.14171297190001  30.28574921345 18.28911811625 34.4254856255  33.6987597839 19.8113137587 37.85687658  32.96212443405 19.2908270241 37.11699229915  33.7709761758 19.29569916 37.5536338463  33.24776007195 19.1862424812 37.7652186527  33.31997646385 18.6706278825 37.461975919  32.9430363074 20.8459077997 33.9812728254  33.3760267953 21.1041966776 33.8194377421  29.2118248574 21.3963636112 33.7233668325  29.63710566915 20.5774107571 34.2010328876  29.8317364247 20.9063734757 33.5619448569  29.7917374606 21.2552086598 33.93418063564999  30.3716500638 21.1140537084 34.1449944388  30.25701723645 20.0874206216 34.039610912  30.21701827235 20.4362558057 34.41184669075  30.4116490279 20.7652185243 33.77275866005  34.59004811495 20.98582891925 35.0749509863  33.964407282 19.15343920235 36.48017925995  33.6292680396 18.5249215779 36.2354517471  32.9273785619 18.6476309337 36.3062798827  33.73623030365 18.6525030696 36.74292142985  30.17399490895 22.37526261445 35.19632242605  33.0223628988 19.3707109205 36.0547980921  33.7579605839 19.22709730045 35.72083977895  33.2563758437 17.81465755825 36.3933318093  33.41555071885 18.2519027926 36.6495148361  33.04265852295 17.54163877295 36.8073948983  32.72570389675 18.7623246628 35.7429021116  31.56829639295 21.03059245705 34.6207552803  31.25362145235 21.1780094905 34.1009205521  30.69892799125 20.8737665906 34.7466308539  29.7578810741 20.9838932926 34.79593227945  29.60324928265 20.3060953899 35.0627845314  31.16213090495 20.46859786255 37.6758606907  30.54314087335 20.70566948245 37.3694529703  31.2216556668 21.1730596005 36.8056251006  30.8592521568 20.8832215202 33.98509121315  29.48483998395 19.87589880565 35.8523286441  30.2034730666 20.43920760235 37.14511324085  32.7064437214 18.12118052875 35.9242957855  32.09392139035 17.53695370865 35.3497313802  32.0872327147 20.9681285719 35.2039460726  32.44242126885 21.65728669395 35.392568705  30.21164220845 21.5893062949 34.30100793315  30.76601935935 21.4088416787 34.26082377775  30.5990941567 22.13476502805 35.76469602  31.4840327993 19.8048079784 37.4924494405  31.28982377475 19.866
[...]
<PointData  Vectors="u"> 
<DataArray  type="Float64"  Name="u"  NumberOfComponents="3" format="ascii">1.7693956442552178e+02 4.8283874025622133e+01 -3.6321377248481205e+01  1.4032440799725217e+02 3.4626743801720785e+01 -2.7562562343471054e+01  2.0079152743625875e+02 4.6673577736576220e+01 -5.4348591617850708e+01  1.3284201918079160e+02 5.8732663176428247e+01 -7.0341096899204857e+01  1.0728542591991915e+02 5.4815705171157852e+01 -6.4809075650318292e+01  1.3562413680446372e+02 4.9940057405646407e+01 -8.5861832817640078e+01  1.7409301456686359e+02 2.2011441691214799e+01 -2.7711548615150761e+01  1.3189997222337448e+02 3.0318812211431414e+01 -1.1887863827776407e+01  1.3670099767895837e+02 7.4212868491973536e+00 -1.4275481848971376e+01  1.4908655751276368e+02 -4.9484969660856155e+00 -1.1167268288170254e+01  1.4101048780678752e+02 1.2178839840614152e+01 3.0002386169071964e+00  1.0495572275212241e+02 -9.2166190526690297e+00 -7.4194218426701557e+00  1.3584803005395153e+02 3.3191562173180493e+01 -1.0914188815353944e+01  1.3898570660026439e+02 4.6459997373298812e+01 -9.3963458616318380e+00  1.2185416994209567e+02 4.2546405237863091e+01 -1.0540433098205209e+01  1.3210900125568881e+02 4.2731380170835280e+01 -6.6353001144208932e+00  1.3733191049326427e+02 3.4490603215082267e+01 -7.7378243330411962e+00  1.5082218122322675e+02 3.5672858071318679e+01 -7.1419779327423552e+00  1.3215495052590978e+02 4.7995847412599147e+01 -1.4746779075031730e+01  1.3241304621589924e+02 5.5083402052784216e+01 -5.7438626189124014e+00  1.2287692360946674e+02 5.8259081674092229e+01 -1.1034609159305740e+01  1.1034399877286320e+02 6.1866314971690869e+01 -1.6926790661229667e+01  7.9602376270682143e+01 1.0665927549893352e+02 -2.0203855366355871e+01  1.2971626758383161e+02 1.3340294016301573e+02 -2.1033705163407934e+01  9.4392359843945812e+01 1.3634133692061948e+02 -2.2784220848502944e+01  1.1089747118873352e+02 1.1008718782827104e+02 -2.0787463559045520e+01  1.0042152951081236e+02 1.2158151095774626e+02 7.6442719436486151e+00  1.0557157749559917e+02 1.0914299061222803e+02 -2.4875506271445808e+01  8.1696347864122885e+01 1.2358438439298759e+02 -2.1883204405334030e+01  6.1934298562728131e+01 1.1736769379838891e+02 -2.2926295637470147e+01  1.3920038340704124e+02 1.8303229729962925e+02 3.0351467772538530e+00  1.3687099675616435e+02 1.0300040153001838e+02 -2.7505287572397396e+01  1.1230419452259369e+02 1.0288972396820904e+01 -1.3743275957208700e+01  1.3069559109738873e+02 1.9644210102862761e+01 -1.2788235907604790e+01  1.3885891016368939e+02 2.3546735814939954e+01 -2.7509169332362212e+01  1.2553721665815657e+02 1.9760909748940115e+01 -1.6416068450483920e+01  1.3365613219582420e+02 1.7171425265289876e+01 -1.5367629249160053e+01  1.3480560385071044e+02 1.8928072454508982e+01 -1.7527228460360899e+01  1.3759277155630804e+02 4.9864686195655983e+00 -1.8896067045298075e+01  1.3451426987138350e+02 5.4516474821681635e+00 -2.0224019480930892e+01  1.3948085029929214e+02 5.0767464748536382e+00 -1.7647560706616382e+01  1.4021597752609443e+02 1.2165749361572670e+01 -7.1387025451542403e+00  1.5239737328883507e+02 4.1050565347277992e+00 1.2184062651359278e+00  1.2923596552143763e+02 -8.3971785734614208e+00 -2.5003505063270147e+01  1.3799283014485110e+02 2.1760274838444701e+01 -7.9887072087262947e+00  1.3969116207484350e+02 1.4321310579071136e+01 -1.1070845897108649e+01  1.3655893470793640e+02 2.8326424566837453e+01 -1.1985460002624325e+01  1.5225372245788600e+02 1.9586573341644542e+01 -1.7597608503985742e+00  1.0001886241077574e+02 3.9152224053943087e+01 8.2783412060154493e+00  1.1023646466790780e+02 4.6200647944975749e+01 -8.0170756832929335e+00  1.0497752311657504e+02 5.2207723715312682e+01 -5.9973324878252168e+00  1.1830852582383159e+02 5.0059516814649086e+01 2.6080997225337987e-01  9.5000171939501769e+01 3.3369509355312026e+01 1.2157852227413448e+00  8.3414694125595943e+01 2.6168923595238486e+01 -1.0820000066619480e+01  9.5164997523703235e+01 4.5281181731822883e+01 -1.3388251308566005e+01  1.9952458949443991e+02 -4.6470176082361561e+01 1.0643152602665056e+01  1.6505477646382099e+02 5.5787995141274482e+00 -2.4899357652831064e+01  2.1083497407989515e+02 -2.5216622416550091e+01 -1.6130527782318449e+01  2.0544918281331778e+02 -1.0750000253424627e+01 7.5630833299233133e+00  1.8804803076156469e+02 3.9138473260930660e+01 -2.4394523381695006e+01  9.7311838193127727e+01 1.0565043737769821e+02 -2.4253602594740101e+01  1.2340779587399511e+02 1.3210703736451663e+02 -3.5384633876858558e+01  8.7389371598587346e+01 8.3561930437160584e+01 -2.0458050331017542e+01  8.3888593672823362e+01 1.4320024121609248e+02 -3.2764318157833713e+01  9.4527483679094701e+01 1.6629734224194783e+02 -5.6483930072963048e+01  1.2048811016358098e+02 8.1975664854328215e+01 -2.1977860073161434e+01  1.9431740847172259e+02 3.3545703336157338e+01 4.4259426834401744e+01  1.6604601437405159e+02 3.8576152360033717e+01 -2.1865679334734001e+00  1.7131283122854023e+02 3.4735487052078341e+01 1.0428598599217465e+00  1.6825448397275431e+02 3.0946245725173597e+01 7.0158922372215526e+00  2.1595392876263583e+02 4.0733547550316011e+01 1.5611598223200915e+01  2.1055591920187240e+02 3.3733012433408284e+01 2.2819456834691771e+01  2.2082060704978380e+02 3.9488395719233942e+01 -2.0246887485589337e+01  2.2383531721945729e+02 5.9125039720302603e+01 -3.6007386147760350e+01  2.0855426893548446e+02 6.2801026644261682e+01 -2.6397349491385203e+01  1.4999306200677606e+02 3.7975911991564246e+01 -1.7697641935405528e+00  1.1591382070343330e+02 2.9494023528868119e+01 -9.4261493152949960e+00  1.0809672085128291e+02 2.3638435001672569e+01 -1.5069808231998195e+01  1.1581193113951419e+02 3.8244210349327801e+01 -1.6211422967682690e+01  1.2892537221863208e+02 2.6901244333788441e+01 -1.1076781759640006e+01  1.1997221287716454e+02 2.1441379344905208e+01 -9.9117387798114258e+00  1.4371462113844061e+02 2.5034540460237299e+01 -9.5711714390456795e+00  1.4981540707747965e+02 1.3905748809272302e+01 1.0411202963218315e+01  1.2238223612231256e+02 1.3844946366529587e+01 1.0043818780058828e+01  1.3258562433793551e+02 2.7262754644988163e+01 -5.2406570311034439e+00  1.1181661460018772e+02 4.1367933392321120e+01 -2.5524510993505604e+01  1.3790596528591334e+02 2.8425179027365289e+01 -1.8182683938923681e+01  1.2268067308380955e+02 1.8914465926018263e+01 -2.5257176210219445e+01  1.2107899318483693e+02 1.6431876057878728e+01 -4.0771971876385827e+01  1.6776194907753901e+02 5.7032431672159305e+01 -1.6304186994009513e+01  1.3989372096507941e+02 6.3054802270001112e+01 -1.7272294527981014e+01  1.4787540621080521e+02 5.7525343354600260e+01 -1.0507675621564523e+01  1.5662948654503685e+02 4.8480997302553746e+01 -1.0450396904812886e+01  1.4027716592451810e+02 2.6388037022096370e+01 -1.5329051550892392e+00  1.5044703924040755e+02 3.7460631030222302e+01 -2.8463232772242817e+00  1.4104623737855636e+02 3.7597825963427994e+01 -5.7738691029384794e+00  1.5241844489767834e+02 2.2446695300073138e+01 8.2676358470657245e+00  1.4781674075040814e+02 2.6809806481881804e+01 8.6686601536303716e+00  1.4402502383126807e+02 1.3850733938679914e+01 2.1945285487112251e+01  1.6490753032523850e+02 6.9796352556485473e+01 -3.3632564431232964e+01  1.8177425150261254e+02 5.6088708193094590e+01 -3.7908754447410864e+01  1.7656180681899690e+02 5.5391609598312947e+01 -2.2888889885095612e+01  1.5407199624744271e+02 8.2033903810187141e+01 -6.8448927315421159e+01  1.7528780978263174e+02 9.0997755290372510e+01 -5.2726206823299073e+01  1.7425433851612155e+02 6.1550725486622071e+01 -8.3606860152890633e+01  2.0013490227234104e+02 4.0131432970115256e+01 -5.3325157378323183e+01  1.5022890573223893e+02 8.4984271639353878e+01 -4.1614847377559038e+01  1.9749801147356445e+02 1.7231561086578097e+01 -6.1567674293610381e+01  1.8274751896605468e+02 4.5755269043273444e+01 -1.9958313785616454e+01  1.6653606436849094e+02 8.6309565070906785e+01 -3.9927072078448290e+01  1.6112392555901189e+02 8.9160370059395433e+01 -5.8486924071498890e+01  1.4542788295590921e+02 1.0863031560552152e+02 -2.6383771782600039e+01  1.4168248684744094e+02 8.9460908949028934e+01 -2.7951757805143036e+01  1.2791649435427686e+02 1.0344227859385904e+02 -3.4140255829352334e+01  1.4595746644268254e+02 1.3067851202893146e+02 -1.6547188888766286e+01  1.7247861619166210e+02 4.2924199783811837e+01 -7.3934260681907302e+00  1.5841218248377652e+02 4.6063882626710459e+01 -6.6654973495978300e+00  1.4637207198062649e+02 7.0831609557686157e+00 -1.8365833741076365e+01  1.6837637157657983e+02 8.4663196259681683e+00 -1.4389956285893979e-01  1.6391150287661330e+02 3.6785144612469928e+01 -1.0321215285344755e+01  1.4580977712988008e+02 2.4457073674306677e+01 -3.0200248758346561e+01  1.4514559366112070e+02 3.5367020299883180e+01 -1.1605827051820372e+01  1.5721842677951847e+02 1.6379712634993542e+01 1.4245173815713452e+01  1.4059724577863588e+02 2.8632199051548952e+01 8.6786992655076531e+00  1.3554562632796060e+02 2.6382535345413654e+01 6.4514086461825082e+00  1.4171295168745345e+02 3.6246861416321472e+01 -3.0880460033281047e+00  1.5410549282389101e+02 2.9458813690971745e+01 8.9936097939272930e+00  1.5008540764670650e+02 2.0224099547483185e+01 2.2947846822344566e+01  1.3036253719846985e+02 3.8195207873179349e+01 -1.0278392252674161e+01  1.5607303343208486e+02 2.2002737507590570e+01 2.2589466220056739e+01  1.6106835980663030e+02 2.8903735801404473e+01 8.8994807036206005e+00  1.7195291653455152e+02 2.4797071987844493e+01 2.6449580306044307e+01  1.7798835597312308e+02 2.9735884201591176e+01 1.1441329481691216e+01  1.0312581243094507e+02 2.8684938525499830e+00 -2.0217125471764390e+01  9.1133932083509492e+01 -2.6575538863812788e+01 -2.0800913377790767e+01  1.1680692541685774e+02 -1.3822056877831228e+01 -1.5444817034306084e+01  9.0861315269603750e+01 9.1808875006518509e+00 -8.0322654022863507e+00  5.4243073145676959e+01 3.7744908177413414e+00 -1.4232051065835995e+01  6.9357791668061680e+01 -1.8056940786261329e+01 -2.7361423193655767e+01  2.3383839520499823e+01 -5.4453528889514736e+01 -1.9940142854562470e+01  7.7914578518545113e+01 8.3984200150123371e+01 -1.5593239553287976e+01  5.3250543516659611e+01 1.1580100264779126e+02 -1.4126236109179903e+01  5.4561386241870785e+01 1.2903625868715423e+02 -3.1960875579845101e+01  4.6318458197938760e+01 1.0842369833650768e+02 -1.2088825405934827e+01  1.3407283342250830e+02 2.5091641535519063e+01 -1.4324884910891452e+01  2.3417314227856899e+01 5.0112038847867758e+01 -2.3371065077121997e+01  8.4102113742361425e+01 2.4242573176055622e+00 -3.1714070684138921e+01  7.3206248213400812e+01 3.0078701116681763e+01 -3.9905436490846398e+01  9.0829554118081759e+01 2.7782961576648471e+01 -2.5267786668588080e+01  1.2066211895894081e+02 1.8093331293315198e+00 -3.2413911026301321e+01  1.2351115831307362e+02 4.7576272640243804e+00 -2.1908973270187047e+01  4.2343862512065911e+01 5.9828168865128205e+01 -5.5089382580724433e+01  9.5567433565024956e+01 9.3671606490482574e+01 -2.3018595788639917e+01  4.9906130363489630e+01 1.0335636594588725e+02 -2.2617825216549715e+01  5.2356536787123638e+01 8.8467176769945581e+01 -3.5665945543361310e+01  6.7842018631552932e+01 6.4347255303436029e+01 -9.7073982268767320e+00  5.7960249980288161e+01 6.1895320974490609e+01 -8.0214627583634286e+00  3.0062730574067899e+01 7.8806842188263531e+01 -1.9026657445639071e+01  2.4863125506202358e+01 4.8568530406297491e+01 -1.2501478998630875e+00  5.6158052529243385e+01 4.2035453756342520e+01 -3.8833384696144604e+00  6.8800146889670671e+01 8.4283454944916016e+00 -2.5932946176474880e+00  7.6351998467647917e+01 1.3702223994433067e+01 9.6452601796513644e+00  5.3886983053826015e+01 2.6777211605231443e+01 5.4568776962642298e+00  5.7720025884946679e+01 2.2964801963966377e+01 -5.1760338914047370e+00  7.1719353231255795e+01 2.7264191173256620e+01 -1.2465052066354130e+00  4.5304447404336386e+01 2.2415864371260522e+01 3.8398889197991686e+00  2.5109914498394243e+01 2.6617122016579724e+01 5.6988441620917119e+00  1.0820802451623997e+02 6.8041569036160283e+01 -3.2139324732552105e+01  1.3773152842101521e+02 5.0671646978579354e+01 -2.1843573172574676e+01  1.1726316732560095e+02 4.7305232535623581e+01 -4.0678158463667664e+01  1.6497257545398404e+02 6.5425713908648092e+01 -4.4466004588773302e+01  1.3632742625636683e+02 6.6512529425978983e+01 -2.4399043906301046e+01  8.5091003984121983e+01 6.8349922682737713e+01 -2.5229042362031958e+01  8.6855959641493214e+01 3.3758641514449039e+01 -4.8338810109836984e+01  1.4503695512012297e+02 -4.4865244484533502e+00 -2.2228325749668404e+01  5.0532049788434811e+01 7.8304557010644771e+01 3.9179810527415981e-01  6.9127427464031186e+01 5.2418706369198787e+01 -4.7475746554865683e+00  2.7902562213540300e+01 6.5176162122277404e+01 1.0506388298391954e-01  5.9291317523081041e+01 5.4697158731685526e+01 2.3766548836395835e+00  4.8604535849298593e+01 4.2389276426936789e+01 -1.8562755190772080e+00  1.1195777779008014e+02 8.6265125070383931e+01 -1.9567137631735985e+01  1.0529002061498447e+02 1.0616168572702502e+02 7.2849697246284573e-01  1.5409060189692664e+02 -1.6440091153649377e+01 8.1329173211505406e+01  1.6130186003504758e+02 -1.1592615525468430e+01 3.7902550867016664e+01  1.5816784596782426e+02 -5.8639283437928043e+01 7.9361331519413341e+01  1.6464872798566520e+02 -1.2287049518293019e+01 7.6700960304206646e+01  2.0003802441989490e+02 9.1846787598276620e+00 4.6998420869951808e+01  1.7035233946551429e+02 -1.0026880671969099e+01 8.6145153197961193e+00  1.6723709165323268e+02 3.5733748667702061e+00 1.7181184304856199e+01  2.0339844832506125e+02 -2.7454938724254426e+01 5.2740450913574193e+01  1.2978216880357948e+02 1.6998346022680232e+02 -3.9570541166805739e+01  3.2930818420210002e+01 7.7841399378812227e+01 -3.7298192826447640e+00  2.2132469106081665e+01 5.2671351847425186e+01 3.8371295371992553e-01  5.3792111536044700e+01 3.7259716007940675e+01 -8.4705174143544184e+00  3.2469297421375970e+01 5.1603123333664129e+01 8.6743801005901822e-01  1.7899457177658087e+02 2.7240424997355706e+01 1.8067616300652290e+01  6.7049602523868387e+01 6.0115310041524722e+01 -1.2585678223855872e+01  3.4136756595192018e+01 8.4492318110113843e+01 -7.8199196678039646e+00  7.3488353531739916e+00 2.5611761558394960e+01 -1.4362233715402073e+01  2.7941357466525371e+01 4.4093062951748344e+01 -2.6316074749921388e+00  1.2919745978548271e+01 4.2888666663726616e+00 -7.4842517310829315e+00  5.9319761671095726e+01 3.3649567746117022e+01 -1.8255565159509842e+01  1.6420048630374532e+02 5.5064689655769982e+01 -2.1129626494993772e+01  2.0895105895206552e+02 6.0428408524766922e+01 -1.8808202077899587e+01  1.7149095654623707e+02 3.0514455765072046e+01 3.0295097158862676e+00  1.6113824118289168e+02 1.0381746310422336e+01 3.0646715254338375e+01  1.4963545714151692e+02 1.0270259794764343e+01 1.3166880451818550e+01  1.4064039112680837e+02 4.0072452144813887e+01 9.3977063425625160e-02  1.4398433409971102e+02 4.0256045406785915e+01 -9.4369759440749785e+00  1.4386091443246630e+02 4.5520474899508855e+01 -5.0395861100032953e+00  2.0888106327127130e+02 2.4396517470839207e+01 2.6962105094149756e+01  1.3686126490603019e+02 1.8191703248248771e+01 1.6531994517531673e-01  1.3686589948633167e+02 3.6521809044384696e+01 -1.1051072460010971e+01  4.5008101659802904e+01 1.0925256774661280e+01 -1.8200369818201676e+01  8.5987804066669923e+01 -2.1399562995667988e+01 -3.0311415555669370e+01  1.4165301197440846e+02 6.3067389371935448e+01 -2.1439052260438327e+01  1.5425118732252110e+02 7.6767264276763413e+01 -2.4766365249520362e+01  2.0359989712245800e+02 2.0480207319888049e+01 6.6142639253258466e+01  2.1257702445840158e+02 3.7565445606250904e+01 1.1320822819935763e+01  1.6951501277887419e+02 3.4418140696229294e+01 4.4535758874563935e+00  1.2432427680772429e+02 3.4325642593575708e+01 2.5779370514747639e+00  1.3672906600142218e+02 2.7030381785027220e+01 1.2391663755082011e+01  1.1162923731960997e+02 2.3247550672118059e+01 1.4115010342229246e+01  1.1373067554908283e+02 9.1054173468697517e+00 1.0352933835706887e+01  1.2483698682938282e+02 3.9370451497815232e+01 -5.0893719132316129e+01  1.3849080178260056e+02 6.3178694994227286e+01 -4.6536038280310613e+01  9.5460019432690771e+01 4.6667627205960216e+01 -3.4935275984738382e+01  8.6561147372055714e+01 5.2734541097689196e+01 -4.5306225926626581e+01  1.6159874963415916e+02 1.6488154994605310e+01 3.5500439209644476e+01  1.0418974562614706e+02 2.0987002160861145e+01 -4.6170769869800377e-01  8.8093149493309596e+01 1.6168578337821245e+01 1.5883300153104249e+01  7.3264681646866194e+01 3.1214996438455941e+01 3.5536995946720644e+00  4.7147733626190146e+01 3.9980869594151528e+01 -2.1823457786675489e+00  8.3423938327666846e+01 5.9512796130109734e+01 3.8322522195563575e+00  1.6497441512535724e+02 -3.1478119011196295e+01 2.9801688374632839e+01  1.7676595725353934e+02 -2.3239305498204644e+01 -2.6813154750009964e+00  -1.7340305865909873e+00 1.8563376247623314e+01 -2.3102751692798504e+00  1.5592867362221523e+02 -1.5516452762248178e+00 -2.6058621945437690e+01  1.6778295835839663e+02 2.2917508852648578e+02 4.9632687532962848e+01  1.1493912018963147e+01 8.8870888830782249e+01 6.3649499400192042e+01  2.6730337315772817e-01 2.9725284436751828e+01 5.8451462017952799e+01  7.8232166898402326e+01 8.0502466334397894e+01 4.6171225204273554e+01  2.2912808980979719e+01 2.0770087442645600e+01 -4.7955043471278898e+01  7.5867473733057480e+01 5.7983535027366258e+01 -2.0645862666222079e+01  4.1906279522705439e+01 4.3121795482510457e+01 5.8429256234762734e+00  1.2062291916696567e+02 7.9177733437518029e+01 -2.7920688126720993e+01  2.1406858405298657e+01 5.8312891216968339e+01 -3.5410112908752804e+00  1.3830925504268544e+02 4.6901410943505077e+01 -2.8757152561042538e+01  8.4389407605576395e+01 7.0242852736112809e+01 -1.0228577325898730e+01  5.0956811011710045e+01 1.0088399867461139e+02 -1.4310747091683711e+01  4.1896652692803201e+01 8.8012989022783145e+01 -1.5238460455154252e+01  2.3488387392490129e+01 6.8692625228153503e+01 -3.3982692674995377e+01  1.3921126893980875e+02 1.4537521335253632e+02 -1.9893719780198096e+00  1.5200931975310692e+02 2.1532010578627929e+00 4.4283871216164769e+01  9.9146376241582573e+01 6.6099023882796516e+01 -4.3583708573326785e+00  1.4990465915658040e+01 2.6318075902491447e+01 -7.8748320616636704e+01  8.6511786712896679e+01 7.0636151652169900e+01 -2.0925809683452918e+01  1.5101796576131812e+02 1.8295125734182503e+02 2.0274629025011908e+01  1.0315781116225571e+02 9.2554684768518086e+01 5.5049463347701053e+00  6.3191088503036951e+01 1.2141195022053277e+02 4.1855738028609686e+01  1.5228111160789739e+01 8.5425075251001516e+01 6.5326912558245326e+01  1.6043022330650501e+02 2.2375854672914787e+02 4.2109638576117092e+01  6.0309550532135660e+01 7.7912468721254299e+01 -1.2380392538307452e+01  6.6262765623225803e+01 3.7397456958560191e+01 -3.3199820855805982e+01  3.7487033644274298e+01 6.4335297149456878e+01 -5.8864238856734104e+01  1.6120292406661522e+02 1.0018809378704407e+01 8.4592170604833768e+01  2.5688246199335123e+02 -5.6120419964213639e+01 7.2186631525892352e+01  2.6441204748188625e+02 -7.6286720406139395e+01 -1.7532867825142706e+01  2.3304725447368850e+02 -5.1712904237177796e+01 2.7593106407029609e+01  3.0424887979900114e+02 -4.0531860405594045e+01 3.7192998947267675e+01  3.0891917886182597e+02 -6.8796838897522747e+01 1.4617942343832661e+01  3.4860016892068091e+02 -4.8398198995149954e+01 6.1923857317275832e+00  2.5751890566512583e+02 -4.7925360882144872e+01 7.6321356403861875e+00  3.5423107380715453e+02 -1.1788427119807423e+02 -2.5665027085050536e+01  3.5916061176570861e+02 -1.1697228073811338e+02 -6.8519534112407740e+01  2.0245346078199043e+02 -4.7108032300344618e+01 9.4403162215600833e+00  9.3222073253907809e+01 2.8326727904618232e-01 4.6226389259127598e-01  8.5509801691457142e+01 2.1664609995355207e+01 -2.4029036443483630e+01  7.3980911621478640e+01 1.8273784918065296e+01 -1.6324368587498846e+01  8.5124539081478375e+01 1.0382316695535582e-01 4.2768336434227139e-01  8.0417744220362735e+01 4.0013659743688174e-01 2.7422483140236840e+00  7.