<?xml version="1.0"?>
<VTKFile type="UnstructuredGrid"  version="0.1"  >
<UnstructuredGrid>
<Piece  NumberOfPoints="4540" NumberOfCells="19637">
<Points>
<DataArray  type="Float64"  NumberOfComponents="3"  format="ascii">23.5237803798 9.9151266542 8.323087217799999  22.94728770535 8.945457231599999 8.4813915533  23.48312851815 8.958344530249999 7.92438451055  23.6876401476 9.2811889636 8.347200072349999  23.31926875035 9.592282220849999 7.900271655999999  22.78342793755 9.579394922199999 8.457278698749999  23.1147571209 9.269437787499999 7.4774560942  22.5789163081 9.256550488849999 8.03446313695  23.8514999154 8.647251273 8.3713129269  22.0430754953 9.243663190199999 8.5914701797  20.3975165218 10.7179008385 5.5144813232  21.42526187155 10.027110322 6.1555137565  21.2843457874 10.3271667416 5.574193359600001  20.5588349091 10.03524278515 5.620900758499999  21.26394348425 10.70976837535 6.0490943212  22.1303704467 10.7016359122 6.5837073192  22.15077274985 10.31903427845 6.108806357600001  20.7201532964 9.3525847318 5.7273201938  21.4456641747 9.644508688249999 5.6806127949  22.171175053 9.9364326447 5.633905396  22.6489848966 8.6499156813 7.50185539005  23.1429061627 8.9085147531 7.0623788331  23.3332282163 8.831136979 7.4476219885  23.5516993117 8.392836170500001 7.4177878828  22.6771339384 8.288992646899999 7.08677812895  22.867455992 8.2116148728 7.472021284349999  23.3613772581 8.470213944600001 7.032544727399999  23.1710552045 8.5475917187 6.647301572  22.1832126723 8.0303935751 7.5262546859  26.0664355013 9.214677073600001 9.0623903516  25.1328782219 8.574963499999999 9.6977466449  26.066371219 8.561962474950001 9.4492699522  25.42755288075 9.1032703444 9.81817648  25.77176084245 8.686370229200001 8.9419605165  25.4770861836 8.1580633848 8.821530681400001  25.77169656015 8.033655630550001 9.3288401171  24.7886702602 8.9918636152 10.5739626084  25.42748859845 8.45055574575 10.2050560806  26.0663069367 7.9092478763 9.8361495528  20.0702278228 12.3332925244 10.6701138067  20.78399572555 12.52896393215 9.83528049585  20.96267294415 12.42096008865 10.29051477415  20.1394098785 11.92083718175 10.2538596007  19.8915506042 12.4412963679 10.2148795284  19.7128733856 12.5493002114 9.7596452501  19.9607326599 12.02884102525 9.7986253224  20.2085919342 11.5083818391 9.837605394700001  21.03185499985 12.008504746 9.87426056815  21.8551180655 12.5086276529 9.9109157416  24.8241998192 10.9885570305 9.2061283661  25.2274342098 9.9828518981 9.889080781000001  25.2581973491 10.74674028505 10.0064752866  24.8064350397 9.99021032285 9.890045487249999  24.7934366799 10.22466864355 9.0887338605  24.7626735406 9.4607802566 8.9713393549  24.7756719004 9.2263219359 9.772650981649999  25.2404325696 9.7483935774 10.69039240775  25.692194879 10.5049235396 10.8068222071  21.7550665315 7.5046818624 10.3758623723  22.84905984305 8.508291081199999 10.1111460331  22.8807268363 7.961322822 10.41576692145  22.4006540867 7.86934216305 9.80736996165  22.20347228785 8.14363078055 10.67963844375  22.43232107995 7.32237390385 10.11199085  23.1095756284 7.1400659453 9.848119327699999  23.07790863515 7.6870342045 9.54349843935  22.6518780442 8.782579698699999 10.9834145152  23.0462416419 8.2340024637 9.238877551  19.0604755521 11.2465364319 8.142446812199999  20.1172540877 11.19427201305 8.38892590275  19.7350692472 11.4903964522 7.859603413849999  20.0725588737 10.8986977699 8.131501497599999  19.4426603926 10.95041199275 8.671769301099999  19.8248452331 10.6542875536 9.20109179  20.4547437142 10.60257333075 8.660823986499999  21.0846421953 10.5508591079 8.120556183  20.7471525688 11.1425577902 7.84865809925  20.4096629423 11.7342564725 7.5767600155  19.1729238616 11.2300419433 6.9701425567  20.16214476655 11.0608283899 7.011440632899999  20.1562552914 11.7237492151 6.69137715745  19.79129340195 11.4821492079 7.2734512861  19.5437752262 10.8087211253 6.7081319035  19.90873711565 11.0503211325 6.12605777485  19.53788575105 11.4716419505 6.38806842805  19.9028476405 11.7132419577 5.8059942994  19.9146265908 10.3874003073 6.4461212503  21.5182343106 15.7611199302 10.9366432694  21.8762753087 14.7592984846 9.6992851098  21.98169776265 15.7358484032 10.1758950001  22.07073090005 15.17204934195 10.5890022911  21.41281185665 14.7845700116 10.4600333791  21.3073894027 13.808020093 9.9834234888  21.9653084461 14.19549942335 10.1123924008  22.6232274895 14.5829787537 10.2413613128  22.5341943521 15.14677781495 9.828254021799999  22.4451612147 15.7105768762 9.4151467308  22.6917239567 10.3716899508 7.4689987954  22.3218442364 9.4870775217 7.342856643399999  22.1103276543 10.03820360335 7.338627993999999  22.67104070275 9.9328320121 6.98797478945  22.9032405388 9.82056386915 7.4732274448  22.88255728485 9.38170593045 6.99220343885  22.6503574488 9.4939740734 6.5069507835  22.08964440035 9.59934566465 6.85760398805  21.5289313519 9.7047172559 7.2082571926  23.8302796536 11.9568529078 8.911330680300001  23.9477564357 11.70289169825 9.79592144125  24.3272397364 11.47270496915 9.0587295232  24.28081124045 12.14410302965 9.136487981449999  24.7313428273 12.3313531515 9.3616452826  24.39828802255 11.8901418201 10.0210787424  24.77777132325 11.659955091 9.283886824349999  24.4447165185 11.2187437596 9.943320284149999  24.0652332178 11.4489304887 10.6805122022  21.0204459751 10.2963037812 11.2859119401  22.30145428005 10.3768065035 11.82842613155  22.5496806935 9.979506394249999 11.0446857224  21.5879355962 9.936741849200001 11.9184036368  21.73396465895 10.7363684355 11.19593443485  21.83616200965 9.53944173995 11.13466322765  22.40365163075 9.17987980795 11.76715492435  22.4474833428 11.1764330898 11.1059569296  22.1554252173 9.577179917200001 12.5508953335  26.2470185077 11.6862100362 10.4972341337  25.7153109096 11.04722276505 11.456837225  26.30688173065 11.30615091885 11.27578991035  25.99272272395 11.63786601335 11.3020431883  25.96960669335 11.0955667879 10.6520281704  26.5611775144 11.3544949417 10.47098085575  26.8753365211 11.0227798472 10.4447275778  26.28376570005 10.7638516934 10.62577489245  25.7384269402 11.5895219905 12.1068522429  24.0365194109 13.5191413562 13.8463116683  24.87685951575 12.8981022557 12.9721591243  24.94148531365 12.8082775577 13.63207584265  24.230395939 12.80116251305 13.0429302864  24.68298298765 13.61608109885 13.7755405062  25.3294465644 13.7130208415 13.7047693441  25.5879488904 12.90521730035 13.56130468055  24.4242724671 12.0831836699 12.2395489045  25.13536184175 12.09029871455 12.82869446075  25.8464512164 12.0974137592 13.417840017  20.96322393685 10.2113090472 6.3613692579  21.8296508993 10.20317658405 6.8959822559  21.12454232415 9.52865099385 6.467788693199999  19.95569394865 10.94005059185 7.5827128147  19.28110025355 10.69619057155 7.86555621305  19.501724955 10.1458447112 7.5886656139  20.29318357515 10.34835190955 7.85461089845  20.71873367765 9.98279711885 8.774881667799999  20.33383131425 10.28720133 8.361602556000001  19.70393283315 10.33891555285 8.9018703595  20.08883519655 10.0345113417 9.3151494713  19.5830204332 10.0235435521 8.602648929000001  19.9679227966 9.719139340950001 9.0159280408  20.35282516 9.4147351298 9.4292071526  25.948785608 10.2281070341 12.4078684954  25.14319599785 11.1201471727 12.32495600175  25.19720813595 11.37409305705 12.9804498888  25.24837533175 10.4394396945 12.475464128  25.8436062741 10.9088145123 12.25736036915  25.8976184122 11.16276039665 12.9128542562  25.7924390783 11.84346787485 12.76234612995  24.5479650555 10.6507723549 12.5430597606  25.9562364316 13.5137265217 11.6065820416  25.8473316859 12.5516242561 11.85671714225  26.3947924655 12.8069040501 11.493128115  26.4853620582 13.2108291999 12.1432770439  27.0144876848 12.9079318781 12.6799720462  26.3764573125 12.2487269343 12.39341214455  26.9239180921 12.5040067283 12.0298231173  26.8333484994 12.1000815785 11.3796741884  26.2858877198 11.8448017845 11.74326321565  26.85856954345 8.8814618774 9.84392891645  26.5987722579 8.577832803 9.71378133795  26.30761457165 8.87905993075 9.817359815  26.35759318755 8.913449945850001 8.958811874549999  26.6173904731 9.217079020250001 9.08895945305  26.6487508738 8.612222818099999 8.855233397499999  26.90854815935 8.915851892500001 8.985380976  27.1683454449 9.219480966900001 9.115528554500001  26.548793642 8.5434427879 10.5723292784  22.85619324285 11.3355143117 9.888903397650001  23.5469649534 12.2792002729 9.427613567200002  23.13950794305 11.0131669466 9.37262051075  22.4487362325 10.0694809854 9.833910341199999  23.25698472515 10.75920573705 10.2572112717  23.6644417355 12.02523906335 10.31220432815  23.2636502532 12.601547638 9.943896454100001  21.0633450188 9.028673980200001 10.5118068314  22.05479333035 8.631338221949999 9.8753421912  21.8576115315 8.905626839450001 10.7476106733  21.75604062565 9.549077482800001 10.1728585863  22.7474889372 9.15174172455 9.536393946099999  22.55030713835 9.42603034205 10.4086624282  23.2989704768 8.313419317099999 8.3283327169  23.44887077865 8.44062686835 8.805095238949999  23.01735629385 8.338822424050001 7.9487838064  23.70159961355 8.52004372175 7.894550404849999  22.6147271571 8.132198019400001 8.382566118450001  25.9731439949 8.594766960399999 14.0435734228  26.757956237 9.545513116599999 13.25460039735  25.73987888915 9.253410779899999 13.8879771269  25.96096480145 9.41143699725 13.2257209591  26.99122134275 8.886869297099999 13.41019669325  26.9790421493 9.703539333950001 12.59234422955  25.7276996957 10.07008081675 13.0701246632  28.0092986906 9.1789716338 12.7768199637  25.5066137834 9.912054599399999 13.732380831  21.0707084821 8.1803513639 9.1518839298  22.058475062 8.2071769138 9.195380740400001  21.77157360855 7.58512835985 8.7290609615  21.6269605772 8.105372469500001 8.33906930785  22.32782570365 7.510149465450001 7.91624633955  22.472438735 6.9899053558 8.3062379932  22.75934018845 7.61195390975 8.772557772100001  22.6936882788 12.8443593829 11.1351470801  23.68657169465 12.9172517814 10.6493674269  23.3663603128 13.9
[...]
<PointData  Vectors="u"> 
<DataArray  type="Float64"  Name="u"  NumberOfComponents="3" format="ascii">4.3642206563714645e+01 -8.9614510660001912e+01 5.8145099052568741e+00  4.9031654879599259e+01 -9.8078254790100232e+01 -3.3868960506078388e+01  3.1718898297009677e+01 -1.4107445900150904e+02 -3.6482195034116501e+01  2.7902840265702505e+01 -9.2822984899879643e+01 9.2736537965975305e+00  2.1119377654124374e+01 -1.0481489872526265e+02 -1.2192519429729670e+01  4.7194639924461754e+01 -9.3348278440211729e+01 -1.9487813667900038e+01  3.8079597517201286e+01 -1.2208697889167648e+02 -3.6716991901567340e+01  4.4699169377912483e+01 -1.0228309148029088e+02 -3.1281452763021779e+01  2.1592977665019216e+01 -1.1997983659486424e+02 -6.1520574045659757e+01  4.8921874194595517e+01 -9.1337779206565656e+01 -3.1369111377060744e+01  7.5406264324517309e+01 -1.1419355018853673e+02 -9.6986849186401471e+01  4.6720133715361968e+01 -1.1238733398708605e+02 -5.9526544518114413e+01  4.2619128268752895e+01 -1.1051786366888753e+02 -8.0902931543765447e+01  7.3552668858150028e+01 -1.0842102517243435e+02 -9.1663444467641000e+01  4.3670156489118007e+01 -1.1560072603284787e+02 -6.7230499994853020e+01  2.5862475543446610e+01 -1.2794579918534910e+02 -3.9398130146644760e+01  2.9424918148027650e+01 -1.3126578887272004e+02 -5.2000192180354198e+01  5.6098931324990978e+01 -1.1281124840017841e+02 -8.1086441622863759e+01  4.4542096315164734e+01 -1.0754638474463601e+02 -7.0516946356184619e+01  3.8382946129943086e+01 -1.2382377176804275e+02 -6.7973945104063574e+01  5.1757367622208477e+01 -1.0776391082261789e+02 -4.1410112384881323e+01  4.5526788932565950e+01 -1.3408185633211821e+02 -4.5060053706953873e+01  5.5712632517883243e+01 -1.3879010688705043e+02 -4.5963865923085834e+01  1.0686688872828074e+02 -1.2182661243980814e+02 -5.8410374920641154e+01  6.1467249015999464e+01 -1.0056368336768202e+02 -4.3059217188918709e+01  6.6922097369008924e+01 -1.0399643399526119e+02 -4.5447110677059555e+01  1.0322327395816504e+02 -1.2702937290250352e+02 -5.8931281482829597e+01  8.8553011421099512e+01 -1.1631779157707223e+02 -5.2405714965186291e+01  5.1714564971765462e+01 -9.5748947006571598e+01 -3.9628413687069589e+01  1.5178902083446891e+02 -1.0455837195365530e+02 -2.4324427409277789e+01  1.6693037470900518e+02 -7.8871509766586485e+01 -3.5461105247194951e+01  1.5383106834516590e+02 -1.0549024064108571e+02 -4.1898595816725262e+01  1.4531958586548396e+02 -8.3277126559357143e+01 -2.6077397661536114e+01  1.7776847572076812e+02 -1.5273267856365050e+02 -2.0266807660405028e+01  1.1564642438682144e+02 -1.4104091313513214e+02 -1.4426068830800230e+02  1.5630576615634786e+02 -1.2173998427437056e+02 -8.9854837878419573e+01  1.3343986195095042e+02 -5.0502729287050762e+01 -2.6622672481407143e+01  1.5870065280618584e+02 -7.0407653221859405e+01 -4.0419626722685379e+01  1.4941348627847429e+02 -9.6827660150798962e+01 -5.7332322066449159e+01  5.9208935546274681e+01 -9.2122255721395874e+01 1.4323000717022010e+01  7.1731877174275553e+01 -8.9189137838413842e+01 1.6060672485638698e+01  6.7772452002355948e+01 -8.1902869466457219e+01 9.6962683401181060e+00  5.1546364062428367e+01 -1.0255689074824099e+02 8.5679044386564467e+00  7.1751153467805679e+01 -1.1031284299608295e+02 2.6090651899507119e+01  1.0047491185174781e+02 -1.1848947383007167e+02 3.8968709342704983e+01  6.5688413057702377e+01 -1.1694141634362217e+02 2.2538673653648061e+01  4.5889454767292222e+01 -1.1286463806265293e+02 1.2219825881593966e+01  6.3171046712226655e+01 -8.9206937607286406e+01 9.1118192701789038e+00  6.8443306725966309e+01 -7.7156694329394412e+01 1.2733396095523073e+01  9.9698204624520542e+01 -9.1635725247325126e+01 2.5207467135477295e+01  1.2492568658987382e+02 -8.5129843755555910e+01 -9.2489119243400891e-02  1.1398615609738113e+02 -8.5078488612970276e+01 1.0407782021754111e+01  1.1747519111269924e+02 -7.6122793489473096e+01 6.1540530559904372e-01  1.0733023129383102e+02 -8.4732008151295162e+01 2.4926005059462945e+01  1.3739915467345688e+02 -8.4186101579364319e+01 2.4935997651976553e+01  1.3042274722050769e+02 -7.0560293614021717e+01 -1.1449740557035170e+01  1.2848121710302340e+02 -6.5332242959644702e+01 -1.1582991057475484e+01  1.2345755660588861e+02 -7.6350417560021668e+01 4.0939548311240923e+00  3.5079687300382361e+01 -1.1139416565152477e+01 -1.6310918810133717e+02  6.4768330986706758e+01 -4.1202231774494606e+01 -5.8577929341362506e+01  7.0938278495272399e+01 -1.2256631561259564e+01 -7.8782456597411169e+01  3.7884779148396028e+01 -6.6193484871630517e+01 -9.5064205491850018e+01  6.0742735710822323e+01 -1.1820303296194259e+01 -9.3935061920748140e+01  2.8767758297892637e+01 -3.2844734450175899e+01 -1.7961413994839700e+02  1.0318183361447224e+01 -2.0008132300166412e+01 -1.4365896238243261e+02  4.0418815288285188e+01 -6.7431977493591035e+01 -9.6829888815980226e+01  7.8845917077095422e+01 -1.9416249451323793e+01 -6.1417307082699857e+01  5.3924707718104820e+01 -7.0940493246517448e+01 -6.0845991939218919e+01  7.7497273636227916e+01 -1.6055073648100927e+02 2.3925258919396235e+01  5.8752229534364055e+01 -1.1649918705355326e+02 5.3058053051243519e+00  8.3419088191774492e+01 -1.3579316880636821e+02 -7.5351653417633957e-01  5.9351145843537481e+01 -1.1602475984526566e+02 -1.9102508994546505e+00  3.8670885688697417e+01 -1.2629040591251426e+02 2.2779864192828622e+01  3.4456664116559779e+01 -1.0331011986518553e+02 1.6756157778812412e+01  5.1004890717730248e+01 -1.0053969532605831e+02 -1.8377807784099958e+00  5.3887375247668857e+01 -1.0323203975001765e+02 -1.3299723234336199e+01  6.2608925489161827e+01 -1.1150364302051732e+02 -1.2150678996031857e+01  7.7073728740320007e+01 -1.2124453876039745e+02 -1.2883604410193106e+01  9.6979638391839359e+01 -1.5552161708013469e+02 -1.8986565388572121e+01  7.3787076400897391e+01 -1.2173272014999570e+02 -3.0669129371267850e+01  9.2556495554640804e+01 -1.3067264123716308e+02 -3.9504947366886647e+01  8.9185106581436401e+01 -1.3517640203283634e+02 -1.6650170148822728e+01  8.1343046865307301e+01 -1.2387743516679159e+02 -3.2974631883433709e+01  8.6851091501156560e+01 -1.2982364494705431e+02 -6.2619656328002812e+01  1.1179488026544475e+02 -1.4763391395763517e+02 -3.6520127707785178e+01  1.1536653130710377e+02 -1.3588694915932632e+02 -8.1203821503825878e+01  8.1407781704260842e+01 -1.1240579392052267e+02 -5.1359328228775979e+01  5.5982381916720342e+01 -2.0211838432179015e+01 4.0819445895652677e+01  6.9849195092404585e+01 -4.7700421295973548e+01 3.1323348794933764e+01  5.7508299748075501e+01 -3.1074381001660953e+01 3.1434863578562720e+01  6.2890127725913167e+01 -3.7351283483518657e+01 3.0569657751048528e+01  7.3645236491089406e+01 -3.9697180736661927e+01 2.9876117338480714e+01  7.5898559264216459e+01 -6.1816855428043176e+01 2.5253788934336310e+01  7.1624485457255531e+01 -5.5877890397136284e+01 2.6915755898740063e+01  6.4184027116225508e+01 -5.4616131802948551e+01 3.2620558081609161e+01  5.6059930981578631e+01 -4.6193127941226578e+01 3.2505802540913159e+01  4.9587559519828289e+01 -3.2864062489417023e+01 2.8529887924854691e+01  3.5142388070435388e+01 -1.1143329729384836e+02 -1.8841884772138890e+01  4.3740758169494036e+01 -1.1123116599394436e+02 -3.5768067358097994e+01  4.3900300284873431e+01 -1.1097652695219760e+02 -3.0732637002221779e+01  3.0003623759800480e+01 -1.1634021972376047e+02 -3.6861079740099200e+01  2.7840989168377654e+01 -1.1229972226247139e+02 -2.6523057128361426e+01  3.8567573278429713e+01 -1.2407941832179107e+02 -4.3175551678106586e+01  4.6933483064453483e+01 -1.1850071915685791e+02 -5.5884435302219252e+01  4.5155181369185946e+01 -1.1280710217163499e+02 -4.3949784570844393e+01  5.1517939700658268e+01 -1.0924947699297807e+02 -3.7695632192783037e+01  7.5966382250603118e+01 -8.4986313434059142e+01 3.1992580051517308e+01  8.3271041842348325e+01 -7.6933469972336837e+01 1.8673058362694103e+01  8.3824424667325374e+01 -8.4361361039688035e+01 2.4058046318338832e+01  8.0910111429665960e+01 -8.5413874660637688e+01 2.6157676093495105e+01  7.5760531421057422e+01 -8.5303937596267517e+01 3.2134876902714460e+01  8.5497241535666902e+01 -7.8419866908850153e+01 2.4671510451065242e+01  7.4057472800248320e+01 -9.1204745082037192e+01 2.9653484946990289e+01  9.3563049873089028e+01 -7.9616431786377120e+01 1.6386983849600050e+01  9.3805415327886749e+01 -6.6427085944722762e+01 1.0749826878112902e+01  1.7439238755608404e+01 -4.3270729568826191e+01 -4.9623968940971544e+01  8.0960206426598091e+01 -3.0171417818252937e+01 -3.6127270217883343e+01  7.5575793658427287e+01 -4.0223823087454498e+01 -3.3867199628837746e+01  6.0583273398049130e+01 -1.4672279398734062e+01 -6.4280140727565794e+01  5.4013857077402285e+01 -5.1375558888398324e+01 -2.8819758152394794e+01  5.4517036838680198e+01 -2.8816657577170343e+01 -5.6111584074541383e+01  8.6837275518758929e+01 -9.2497516134854791e+00 -5.7014472370648797e+01  7.3583588990601172e+01 -5.5800764804229210e+01 -1.2899082099397463e+01  9.8022294519176612e+01 -2.6306342786741208e+00 -5.6440201598986640e+01  1.1099436141593107e+02 -1.0416213859185832e+02 3.3391650066481439e+01  1.1733683693854692e+02 -6.8389273200441480e+01 1.3651814185929682e+01  1.1651652898849225e+02 -8.1486045357998208e+01 1.9336444997949616e+01  1.0996837812910313e+02 -7.8851563456604993e+01 2.5712922443479382e+01  1.1776879787726335e+02 -8.8228873126049166e+01 1.7912742042810748e+01  1.2876817152979555e+02 -1.0063983904805433e+02 1.6165105616926869e+01  1.3015976795898635e+02 -1.0040908619310147e+02 9.5835302316231261e-02  1.2478292923140386e+02 -8.9362258079281034e+01 7.1960854827201839e+00  1.1498508119336938e+02 -6.1683345660660073e+01 2.6625303416039166e+01  1.4769368289669779e+02 -4.6206697753490296e+01 4.4947711641397269e+01  1.1448937752385984e+02 -4.8330661144705743e+01 4.3301651928273529e+01  1.2157393472185029e+02 -4.1856442419566406e+01 5.0748893173069682e+01  1.1987096897483549e+02 -4.6027375467269849e+01 3.1200354411961804e+01  1.2334268049200948e+02 -3.8940568527437236e+01 5.2636560903706588e+01  1.1729340679698656e+02 -4.4250045874106242e+01 5.9503821076064440e+01  1.1668780644129902e+02 -4.6777455074708222e+01 5.4932644195202080e+01  1.1052989983342385e+02 -5.1199939803639609e+01 2.0692133797535508e+01  1.1661857991894320e+02 -4.7614681906466949e+01 3.3984817628781258e+01  1.1862611223044412e+02 -4.6334324735688696e+01 4.8768669065175381e+01  6.0379480576522745e+01 -1.1102443985430982e+02 -5.5719040690166196e+01  4.4946729816390878e+01 -1.1557677215855379e+02 -3.9263774325957243e+01  6.0196283611478698e+01 -1.0848476556006499e+02 -5.4293576553306423e+01  6.4997614454384987e+01 -1.2072639013524740e+02 -1.1427955798290922e+01  4.2765218960986367e+01 -1.2963098029329745e+02 -2.1061063217500139e-01  5.8879728288095407e+01 -9.4944485541826737e+01 -8.6728196819522978e+00  6.0229106575761946e+01 -1.0327255752854533e+02 -1.4366477858220556e+01  4.9364127407256433e+01 -9.0091575480608554e+01 -1.0059144899610617e+01  5.3759159965569758e+01 -9.6632810645873704e+01 -6.0939302734645073e+00  3.3553048697455253e+01 -9.5127749602500899e+01 1.3153062126855893e+01  3.3806168038335052e+01 -8.7314469468181954e+01 9.4939394417339908e+00  4.1119531297673603e+01 -8.1222441547065543e+01 1.1453648874537972e+01  4.9155047337413173e+01 -7.0346100999852965e+01 8.7367789353741987e+00  3.3162903563267655e+01 -7.3191475761622399e+01 -1.9279092454929647e+00  1.3555263234410964e+02 -4.7494166016110789e+01 5.4929525617929480e+00  1.1982430264535893e+02 -4.7551942039903068e+01 1.4947037225839143e+01  1.2380421043759500e+02 -3.9069256032503624e+01 2.6038014578987788e+01  1.3014941182828611e+02 -3.8778323560783413e+01 4.1375814857083526e+00  1.2459010992738884e+02 -5.5405962870671893e+01 1.6607279179092739e+01  1.2512580610184482e+02 -4.6374679335961311e+01 2.6499078393854159e+01  1.1655259948005687e+02 -5.2927703588988187e+01 3.5548264614737363e+01  1.2375773093401850e+02 -3.2621771156581126e+01 2.0654258943934063e+00  8.8321326209721946e+01 -7.0123810072672626e+01 5.2705917077694735e+01  9.9845945799050483e+01 -6.9771104534733325e+01 4.2225464743418122e+01  8.7272433482784095e+01 -8.2621856279250949e+01 4.8824965727545901e+01  9.0070973887077088e+01 -6.7570949359102912e+01 6.1708440058853874e+01  9.7426521776417999e+01 -6.9272216456384243e+01 5.9796140913276460e+01  1.0650524597979133e+02 -6.7065911683579941e+01 4.3391221969661622e+01  1.0243708921025795e+02 -8.5179318749720551e+01 5.1371589089471591e+01  1.0780129600442896e+02 -9.5163825385100722e+01 3.5742560703332700e+01  1.0924516925307009e+02 -7.6921258754966388e+01 3.2698830395178057e+01  1.3389473095921022e+02 -9.2867236289827730e+01 -3.1030696278277464e+01  1.3475096008240527e+02 -9.3057399174299505e+01 -3.9978162138931296e+01  1.4430283166140143e+02 -9.1835978837432563e+01 -3.5839142740837175e+01  1.4822417046865138e+02 -1.2226901431272117e+02 -4.0955211040950921e+01  1.3975403653109981e+02 -1.0498437264400842e+02 -3.5494522489905378e+01  1.2996733215926531e+02 -1.1762843775755532e+02 -8.4126835422513707e+01  1.3471898870495909e+02 -1.1342065713707686e+02 -5.0178393890596240e+01  1.2715202331011464e+02 -1.0637103295750194e+02 -3.8563351274941454e+01  1.4764825306803402e+02 -8.4973955810408526e+01 -2.8487911946502081e+01  7.1120260633019967e+01 -7.4216122330830785e+01 4.4315496660973377e+00  7.5545387228576146e+01 -8.0021690621693580e+01 2.6365176037617140e+01  6.8749243642208825e+01 -7.9895483605643790e+01 7.7721975851769756e+00  6.1007386545139859e+01 -6.7513226401219782e+01 -1.9779611668458205e+01  8.0762825612226436e+01 -6.4660232182607757e+01 -4.5606500774931131e+00  8.3819440494035646e+01 -7.0784278151800635e+01 1.6302134348854896e+01  7.5701885149053865e+01 -7.4126825180361536e+01 2.2571211585345957e+01  1.1551886358509122e+01 -3.8719477088775115e+01 -6.7079998017592729e+01  4.4009568603142206e+01 -6.0462611566154216e+01 -6.1247397780233086e+01  5.2645050193919602e+01 -2.6144210672326469e+01 -7.0878444207563533e+01  4.3400383006133843e+01 -5.5810801351860555e+01 -4.0374802147455725e+01  5.9431518549176225e+01 -6.5723764121266044e+01 -3.6204576142148554e+01  6.7138175630232496e+01 -4.6135059955497823e+01 -4.0182188578761277e+01  6.0081556705445728e+01 -1.0419120580740720e+02 -5.8673286348507737e+01  5.0005366348321338e+01 -8.5316807242522430e+01 -4.8737926242946585e+01  6.2883642532073544e+01 -1.0875740419081583e+02 -4.9221463160621582e+01  1.0950674292964395e+02 -1.5847421557932262e+02 -7.5068845077888568e+01  5.2123524654128566e+01 -9.5662915552241216e+01 -5.1500079527136826e+01  2.1319306349477918e+02 1.6801059522363690e+01 -3.0346973198867374e+01  1.5892320844086885e+02 -4.6195108783513511e+01 7.2278712810072854e+00  1.7052083494294288e+02 8.7492005806390178e+00 -9.0343773533868905e+00  1.6083229187343940e+02 -2.3487142919745889e+01 -5.9209334016179973e+00  1.7774557198461085e+02 -5.0981014950704541e+01 -4.3794673445631158e+00  1.4458950501740119e+02 -6.3518152676734744e+01 7.6720906826869664e+00  1.4331846327958164e+02 -2.8557518842482882e+01 5.3102708501089202e+00  1.4937207420080784e+02 -8.5877246463665855e+01 1.7723822925911609e+01  1.5143937994806720e+02 -6.8239148994801946e+00 5.7247798329237902e+00  3.6074392091238245e+01 -1.0388378182203044e+02 -4.7567602503044284e+01  4.0497557655562787e+01 -8.6420637985756017e+01 -5.6525803505809549e+01  3.1995034410936881e+01 -1.0064463371593450e+02 -5.5152307556401837e+01  3.7528136637922785e+01 -1.0398865265113309e+02 -4.4865052336254145e+01  4.9122826632522340e+01 -8.6876185604756060e+01 -4.0329979483000677e+01  4.9209044056363439e+01 -8.8271895520115038e+01 -4.0843321420784562e+01  4.7226507946826537e+01 -9.1873192628715614e+01 -6.6623908529027190e+01  8.2511751281443495e+01 -6.1830283419771284e+01 8.7086970495286256e+00  8.2926708324113960e+01 -6.8387422519034757e+01 2.4061573792604850e+01  7.7776576323203827e+01 -6.2097323726176398e+01 2.8737062135432257e+01  8.8108817453984003e+01 -6.1088522924115345e+01 1.8985505615799159e+01  7.8584339143821964e+01 -6.7525565484354345e+01 1.6435625019634180e+01  7.1555788203909117e+01 -6.6981013588238980e+01 2.6948223228679570e+01  7.4538976826466538e+01 -5.9844730574234532e+01 2.1527760277277292e+01  9.1553752474589842e+01 -6.2968749498678427e+01 2.9885974340486232e+01  3.5812126455929871e+01 -2.3181901837141833e+01 2.6810436610622190e+01  4.4524241949622585e+01 -4.1397099584927801e+01 3.1973126320424065e+01  4.5708998372560863e+01 -2.7801566175596530e+01 2.7452482540066939e+01  4.0035079918653075e+01 -3.8444983975761133e+01 2.9082742806524461e+01  5.2498743756425746e+01 -3.8983115218909141e+01 3.6562519976357734e+01  4.3403642657048074e+01 -2.2608258210070922e+01 3.2925762313182979e+01  3.8993241336526367e+01 -5.2559680937944471e+01 4.1504501394252884e+01  5.2242171883276015e+01 -9.6309572249627351e+01 4.4891131726829805e+01  5.3250124914916761e+01 -1.0336783027726825e+02 5.0460767575133829e+00  5.5275983645779412e+01 -9.5277685877571059e+01 9.5785091217995788e+00  5.7221567944313549e+01 -9.2522947614918351e+01 1.8776798859674262e+01  1.1206073668506052e+01 -1.1006790204924954e+02 1.6988868807068158e+01  3.6152882109926949e+01 -1.1009346969160310e+02 3.6120101707112639e+01  2.4991960627552679e+01 -9.7132163728345063e+01 4.1331307549567818e+01  9.0246269970902375e+00 -9.5963597443313787e+01 1.6843730641307662e+01  2.7902355796509728e+01 -1.2244249882877301e+02 6.2573856028511541e+00  7.4351680710780357e+01 -1.0014859302052280e+02 1.2434223293365104e+01  4.2225636171586700e+01 -7.1659592890020804e+01 -3.8653663821086930e+01  5.3453246562216457e+01 -7.8842961796116541e+01 -2.4893942487975927e+01  5.0033470086501765e+01 -8.3188996567359155e+01 -4.3316779638084306e+01  1.1012415114048024e+02 -9.9651540485119455e+01 -8.3254729483811243e+00  1.2480556395103829e+02 -9.6921508595632332e+01 8.6872951467348400e+00  1.1658536363516018e+02 -1.0201205074871770e+02 1.6668589406235728e+00  1.1223493819924757e+02 -9.7864194673333159e+01 -3.3692668377391235e+00  1.2260372613084593e+02 -9.3035872347398936e+01 -2.7822733846255061e+00  1.0920659429699280e+02 -1.1279963512768353e+02 6.9950649434318557e-01  9.7921970335910558e+01 -1.1745569235412488e+02 5.8940748821109441e+00  1.0360907466638527e+02 -9.6884455530262358e+01 7.3334249647793195e+00  1.1930574890870341e+02 -9.4469432580241246e+01 9.0162084430916067e-01  1.3151413333169691e+02 -8.9307231187625788e+01 -1.8612295444503053e+00  7.6575735123010190e+01 -1.1858661125404939e+02 -5.0076492218408788e+01  4.5787263355271179e+01 -1.1580398744558116e+02 -7.5173488312090456e+01  8.9202406710334358e+01 -1.2130772945142439e+02 -8.4138022043559957e+01  6.1376107958595242e+01 -1.1915592445326652e+02 -6.8676898095850376e+01  4.4518288821739489e+00 -1.2053786591813824e+02 -4.7502554930567413e+01  5.1980593700322274e+01 -1.1521785210784493e+02 -2.9683590562857884e+01  1.1629379545201878e+02 -4.3344543024615447e+01 1.2594530665327712e+01  1.1149654829784795e+02 -5.5536907949792322e+01 2.4832830440411257e+01  1.6695251501101617e+02 8.3502725442575780e+00 -2.5581203507885601e+01  1.7808965455814868e+02 -1.6276030058001528e+01 -2.7912889871295906e+01  2.2475257061051283e+02 2.6343149695572290e+01 -6.1414144145623929e+01  2.0130642925869370e+02 3.3037366283554711e+01 -6.4063644053897988e+01  1.5209333244270124e+02 -2.3764998728318478e+01 -1.2743678204906239e+01  1.7882550445822193e+02 -7.9147416382424192e+00 -4.1277882819230200e+01  1.5835876498796827e+02 -3.7704491748889971e+01 -2.8320507789123123e+01  4.9360730794024796e+01 -1.1613686472949384e+02 -3.0244693651112076e+01  4.8453710290878128e+01 -1.1226163842164398e+02 -2.6706766526710375e+01  5.0485479961227142e+01 -1.0881351707100694e+02 -1.1891294948754318e+01  5.0887336405174260e+01 -1.1206743691188332e+02 -1.2420734829909307e+01  2.9681183874273518e+01 -1.3120805659665615e+02 -1.2710429763523450e+01  5.0126966347072511e+01 -9.8698275063168964e+01 -4.0313029525382348e+01  8.6387873322707478e+01 -6.3657280084597119e+01 1.1046076360766669e+01  9.6102937208428116e+01 -5.6158966834868941e+01 1.2812211271542319e+01  9.15208657632