<?xml version="1.0"?>
<VTKFile type="UnstructuredGrid"  version="0.1"  >
<UnstructuredGrid>
<Piece  NumberOfPoints="13954" NumberOfCells="72804">
<Points>
<DataArray  type="Float64"  NumberOfComponents="3"  format="ascii">0 0 0.3  0 0 0.4  0.1 0 0.4  0.1 0.1 0.4  0 0.1 0.4  0.6 0 0.3  0.7 0 0.3  0.7 0.1 0.3  0.7 0.1 0.4  0.7 0 0.4  0.6 0 0.4  0.1 0.1 0.5  0.1 0 0.5  0 0 0.5  0 0.1 0.5  0.2 0 0.4  0.2 0 0.5  0.2 0.1 0.5  0.3 0 0.4  0.3 0 0.5  0.3 0.1 0.5  0.4 0 0.4  0.4 0 0.5  0.4 0.1 0.5  0.5 0 0.4  0.5 0 0.5  0.5 0.1 0.5  0.6 0 0.5  0.6 0.1 0.5  0.7 0.1 0.5  0.7 0 0.5  0.1 0.2 0.5  0 0.2 0.5  0.2 0.2 0.5  0.7 0.2 0.5  0.8 0.2 0.5  0.7 0.2 0.4  0.8 0.3 0.5  0.1 0.1 0.6  0.1 0 0.6  0 0 0.6  0 0.1 0.6  0.2 0.1 0.6  0.2 0 0.6  0.3 0.1 0.6  0.3 0 0.6  0.4 0.1 0.6  0.4 0 0.6  0.5 0.1 0.6  0.5 0 0.6  0.6 0.1 0.6  0.6 0 0.6  0.7 0.1 0.6  0.7 0 0.6  0.8 0 0.6  0.8 0.1 0.6  0.1 0.2 0.6  0 0.2 0.6  0.2 0.2 0.6  0.3 0.2 0.5  0.3 0.2 0.6  0.4 0.2 0.5  0.4 0.2 0.6  0.5 0.2 0.5  0.5 0.2 0.6  0.6 0.2 0.5  0.6 0.2 0.6  0.7 0.2 0.6  0.8 0.2 0.6  0.1 0.3 0.6  0 0.3 0.6  0 0.3 0.5  0.2 0.3 0.6  0.3 0.3 0.5  0.3 0.3 0.6  0.4 0.3 0.6  0.5 0.3 0.6  0.6 0.3 0.6  0.7 0.3 0.6  0.8 0.3 0.6  0.1 0.4 0.6  0 0.4 0.6  0.4 0.4 0.6  0.3 0.4 0.6  0.8 0.4 0.6  0.9 0.4 0.6  0.8 0.4 0.5  0.9 0.5 0.6  0.1 0.1 0.7  0.1 0 0.7  0 0 0.7  0 0.1 0.7  0.2 0.1 0.7  0.2 0 0.7  0.3 0.1 0.7  0.3 0 0.7  0.4 0.1 0.7  0.4 0 0.7  0.5 0.1 0.7  0.5 0 0.7  0.6 0.1 0.7  0.6 0 0.7  0.7 0.1 0.7  0.7 0 0.7  0.8 0.1 0.7  0.8 0 0.7  0.1 0.2 0.7  0 0.2 0.7  0.2 0.2 0.7  0.3 0.2 0.7  0.4 0.2 0.7  0.5 0.2 0.7  0.6 0.2 0.7  0.7 0.2 0.7  0.8 0.2 0.7  0.1 0.3 0.7  0 0.3 0.7  0.2 0.3 0.7  0.3 0.3 0.7  0.4 0.3 0.7  0.5 0.3 0.7  0.6 0.3 0.7  0.7 0.3 0.7  0.8 0.3 0.7  0.1 0.4 0.7  0 0.4 0.7  0.2 0.4 0.6  0.2 0.4 0.7  0.3 0.4 0.7  0.4 0.4 0.7  0.5 0.4 0.6  0.5 0.4 0.7  0.6 0.4 0.6  0.6 0.4 0.7  0.7 0.4 0.6  0.7 0.4 0.7  0.8 0.4 0.7  0.9 0.4 0.7  0.1 0.5 0.7  0 0.5 0.7  0 0.5 0.6  0.2 0.5 0.7  0.3 0.5 0.7  0.4 0.5 0.6  0.4 0.5 0.7  0.5 0.5 0.6  0.5 0.5 0.7  0.6 0.5 0.7  0.7 0.5 0.7  0.8 0.5 0.7  0.9 0.5 0.7  0.1 0.6 0.7  0 0.6 0.7  0.5 0.6 0.7  0.4 0.6 0.7  0.6 0.6 0.7  0.1 0.1 0.8  0.1 0 0.8  0 0 0.8  0 0.1 0.8  0.2 0.1 0.8  0.2 0 0.8  0.3 0.1 0.8  0.3 0 0.8  0.4 0.1 0.8  0.4 0 0.8  0.5 0.1 0.8  0.5 0 0.8  0.6 0.1 0.8  0.6 0 0.8  0.7 0.1 0.8  0.7 0 0.8  0.8 0.1 0.8  0.8 0 0.8  0.9 0.1 0.8  0.1 0.2 0.8  0 0.2 0.8  0.2 0.2 0.8  0.3 0.2 0.8  0.4 0.2 0.8  0.5 0.2 0.8  0.6 0.2 0.8  0.7 0.2 0.8  0.8 0.2 0.8  0.9 0.2 0.8  0.1 0.3 0.8  0 0.3 0.8  0.2 0.3 0.8  0.3 0.3 0.8  0.4 0.3 0.8  0.5 0.3 0.8  0.6 0.3 0.8  0.7 0.3 0.8  0.8 0.3 0.8  0.9 0.3 0.8  0.1 0.4 0.8  0 0.4 0.8  0.2 0.4 0.8  0.3 0.4 0.8  0.4 0.4 0.8  0.5 0.4 0.8  0.6 0.4 0.8  0.7 0.4 0.8  0.8 0.4 0.8  0.9 0.4 0.8  0.1 0.5 0.8  0 0.5 0.8  0.2 0.5 0.8  0.3 0.5 0.8  0.4 0.5 0.8  0.5 0.5 0.8  0.6 0.5 0.8  0.7 0.5 0.8  0.8 0.5 0.8  0.9 0.5 0.8  1 0.5 0.8  0.1 0.6 0.8  0 0.6 0.8  0.2 0.6 0.8  0.3 0.6 0.7  0.3 0.6 0.8  0.4 0.6 0.8  0.5 0.6 0.8  0.6 0.6 0.8  0.7 0.6 0.7  0.7 0.6 0.8  0.8 0.6 0.8  0.9 0.6 0.7  0.9 0.6 0.8  1 0.6 0.8  0.1 0.7 0.8  0 0.7 0.8  0.4 0.7 0.8  0.3 0.7 0.8  0.5 0.7 0.8  0.6 0.7 0.8  0.7 0.7 0.8  0.8 0.7 0.8  1 0.7 0.8  0.9 0.7 0.8  0.1 0.1 0.9  0.1 0 0.9  0 0 0.9  0 0.1 0.9  0.2 0.1 0.9  0.2 0 0.9  0.3 0.1 0.9  0.3 0 0.9  0.4 0.1 0.9  0.4 0 0.9  0.5 0.1 0.9  0.5 0 0.9  0.6 0.1 0.9  0.6 0 0.9  0.7 0.1 0.9  0.7 0 0.9  0.8 0.1 0.9  0.8 0 0.9  0.9 0.1 0.9  0.1 0.2 0.9  0 0.2 0.9  0.2 0.2 0.9  0.3 0.2 0.9  0.4 0.2 0.9  0.5 0.2 0.9  0.6 0.2 0.9  0.7 0.2 0.9  0.8 0.2 0.9  0.9 0.2 0.9  0.1 0.3 0.9  0 0.3 0.9  0.2 0.3 0.9  0.3 0.3 0.9  0.4 0.3 0.9  0.5 0.3 0.9  0.6 0.3 0.9  0.7 0.3 0.9  0.8 0.3 0.9  0.9 0.3 0.9  1 0.3 0.9  0.1 0.4 0.9  0 0.4 0.9  0.2 0.4 0.9  0.3 0.4 0.9  0.4 0.4 0.9  0.5 0.4 0.9  0.6 0.4 0.9  0.7 0.4 0.9  0.8 0.4 0.9  0.9 0.4 0.9  1 0.4 0.9  0.1 0.5 0.9  0 0.5 0.9  0.2 0.5 0.9  0.3 0.5 0.9  0.4 0.5 0.9  0.5 0.5 0.9  0.6 0.5 0.9  0.7 0.5 0.9  0.8 0.5 0.9  0.9 0.5 0.9  1 0.5 0.9  0.1 0.6 0.9  0 0.6 0.9  0.2 0.6 0.9  0.3 0.6 0.9  0.4 0.6 0.9  0.5 0.6 0.9  0.6 0.6 0.9  0.7 0.6 0.9  0.8 0.6 0.9  0.9 0.6 0.9  1 0.6 0.9  1.1 0.6 0.9  0.1 0.7 0.9  0 0.7 0.9  0.2 0.7 0.9  0.3 0.7 0.9  0.4 0.7 0.9  0.5 0.7 0.9  0.6 0.7 0.9  0.7 0.7 0.9  0.8 0.7 0.9  0.9 0.7 0.9  1 0.7 0.9  1.1 0.7 0.9  0.1 0.8 0.9  0 0.8 0.9  0.2 0.8 0.9  0.4 0.8 0.9  0.3 0.8 0.9  0.5 0.8 0.9  0.6 0.8 0.9  0.7 0.8 0.9  0.8 0.8 0.9  0.9 0.8 0.9  1 0.8 0.9  1.1 0.8 0.9  0.1 0.1 1  0.1 0 1  0 0 1  0 0.1 1  0.2 0.1 1  0.2 0 1  0.3 0.1 1  0.3 0 1  0.4 0.1 1  0.4 0 1  0.5 0.1 1  0.5 0 1  0.6 0.1 1  0.6 0 1  0.7 0.1 1  0.7 0 1  0.8 0.1 1  0.8 0 1  0.9 0 1  0.9 0.1 1  0.1 0.2 1  0 0.2 1  0.2 0.2 1  0.3 0.2 1  0.4 0.2 1  0.5 0.2 1  0.6 0.2 1  0.7 0.2 1  0.8 0.2 1  0.9 0.2 1  0.1 0.3 1  0 0.3 1  0.2 0.3 1  0.3 0.3 1  0.4 0.3 1  0.5 0.3 1  0.6 0.3 1  0.7 0.3 1  0.8 0.3 1  0.9 0.3 1  1 0.3 1  0.1 0.4 1  0 0.4 1  0.2 0.4 1  0.3 0.4 1  0.4 0.4 1  0.5 0.4 1  0.6 0.4 1  0.7 0.4 1  0.8 0.4 1  0.9 0.4 1  1 0.4 1  0.1 0.5 1  0 0.5 1  0.2 0.5 1  0.3 0.5 1  0.4 0.5 1  0.5 0.5 1  0.6 0.5 1  0.7 0.5 1  0.8 0.5 1  0.9 0.5 1  1 0.5 1  1.1 0.5 1  0.1 0.6 1  0 0.6 1  0.2 0.6 1  0.3 0.6 1  0.4 0.6 1  0.5 0.6 1  0.6 0.6 1  0.7 0.6 1  0.8 0.6 1  0.9 0.6 1  1 0.6 1  1.1 0.6 1  0.1 0.7 1  0 0.7 1  0.2 0.7 1  0.3 0.7 1  0.4 0.7 1  0.5 0.7 1  0.6 0.7 1  0.7 0.7 1  0.8 0.7 1  0.9 0.7 1  1 0.7 1  1.1 0.7 1  0.1 0.8 1  0 0.8 1  0.2 0.8 1  0.3 0.8 1  0.4 0.8 1  0.5 0.8 1  0.6 0.8 1  0.7 0.8 1  0.8 0.8 1  0.9 0.8 1  1 0.8 1  1.1 0.8 1  0.1 0.9 1  0 0.9 1  0.2 0.9 1  0.3 0.9 1  0.4 0.9 1  0.5 0.9 1  0.6 0.9 1  0.7 0.9 1  0.8 0.9 1  0.9 0.9 1  1 0.9 1  1.1 0.9 0.9  1.1 0.9 1  1.2 0.9 1  1.2 1 1  0.1 0.1 1.1  0.1 0 1.1  0 0 1.1  0 0.1 1.1  0.2 0.1 1.1  0.2 0 1.1  0.3 0.1 1.1  0.3 0 1.1  0.4 0.1 1.1  0.4 0 1.1  0.5 0.1 1.1  0.5 0 1.1  0.6 0.1 1.1  0.6 0 1.1  0.7 0.1 1.1  0.7 0 1.1  0.8 0.1 1.1  0.8 0 1.1  0.9 0.1 1.1  0.9 0 1.1  1 0 1.1  1 0.1 1.1  0.1 0.2 1.1  0 0.2 1.1  0.2 0.2 1.1  0.3 0.2 1.1  0.4 0.2 1.1  0.5 0.2 1.1  0.6 0.2 1.1  0.7 0.2 1.1  0.8 0.2 1.1  0.9 0.2 1.1  1 0.2 1.1  0.1 0.3 1.1  0 0.3 1.1  0.2 0.3 1.1  0.3 0.3 1.1  0.4 0.3 1.1  0.5 0.3 1.1  0.6 0.3 1.1  0.7 0.3 1.1  0.8 0.3 1.1  0.9 0.3 1.1  1 0.3 1.1  0.1 0.4 1.1  0 0.4 1.1  0.2 0.4 1.1  0.3 0.4 1.1  0.4 0.4 1.1  0.5 0.4 1.1  0.6 0.4 1.1  0.7 0.4 1.1  0.8 0.4 1.1  0.9 0.4 1.1  1 0.4 1.1  1.1 0.4 1.1  0.1 0.5 1.1  0 0.5 1.1  0.2 0.5 1.1  0.3 0.5 1.1  0.4 0.5 1.1  0.5 0.5 1.1  0.6 0.5 1.1  0.7 0.5 1.1  0.8 0.5 1.1  0.9 0.5 1.1  1 0.5 1.1  1.1 0.5 1.1  0.1 0.6 1.1  0 0.6 1.1  0.2 0.6 1.1  0.3 0.6 1.1  0.4 0.6 1.1  0.5 0.6 1.1  0.6 0.6 1.1  0.7 0.6 1.1  0.8 0.6 1.1  0.9 0.6 1.1  1 0.6 1.1  1.1 0.6 1.1  0.1 0.7 1.1  0 0.7 1.1  0.2 0.7 1.1  0.3 0.7 1.1  0.4 0.7 1.1  0.5 0.7 1.1  0.6 0.7 1.1  0.7 0.7 1.1  0.8 0.7 1.1  0.9 0.7 1.1  1 0.7 1.1  1.1 0.7 1.1  0.1 0.8 1.1  0 0.8 1.1  0.2 0.8 1.1  0.3 0.8 1.1  0.4 0.8 1.1  0.5 0.8 1.1  0.6 0.8 1.1  0.7 0.8 1.1  0.8 0.8 1.1  0.9 0.8 1.1  1 0.8 1.1  1.1 0.8 1.1  1.2 0.8 1.1  0.1 0.9 1.1  0 0.9 1.1  0.2 0.9 1.1  0.3 0.9 1.1  0.4 0.9 1.1  0.5 0.9 1.1  0.6 0.9 1.1  0.7 0.9 1.1  0.8 0.9 1.1  0.9 0.9 1.1  1 0.9 1.1  1.1 0.9 1.1  1.2 0.9 1.1  0.1 1 1.1  0 1 1.1  0.2 1 1.1  0.3 1 1.1  0.4 1 1.1  0.5 1 1.1  0.6 1 1.1  0.7 1 1.1  0.8 1 1.1  0.9 1 1.1  1 1 1.1  1.1 1 1.1  1.2 1 1.1  1.3 1 1.1  1.3 1.1 1.1  0.1 0.1 1.2  0.1 0 1.2  0 0 1.2  0 0.1 1.2  0.2 0.1 1.2  0.2 0 1.2  0.3 0.1 1.2  0.3 0 1.2  0.4 0.1 1.2  0.4 0 1.2  0.5 0.1 1.2  0.5 0 1.2  0.6 0.1 1.2  0.6 0 1.2  0.7 0.1 1.2  0.7 0 1.2  0.8 0.1 1.2  0.8 0 1.2  0.9 0.1 1.2  0.9 0 1.2  1 0.1 1.2  1 0 1.2  0.1 0.2 1.2  0 0.2 1.2  0.2 0.2 1.2  0.3 0.2 1.2  0.4 0.2 1.2  0.5 0.2 1.2  0.6 0.2 1.2  0.7 0.2 1.2  0.8 0.2 1.2  0.9 0.2 1.2  1 0.2 1.2  0.1 0.3 1.2  0 0.3 1.2  0.2 0.3 1.2  0.3 0.3 1.2  0.4 0.3 1.2  0.5 0.3 1.2  0.6 0.3 1.2  0.7 0.3 1.2  0.8 0.3 1.2  0.9 0.3 1.2  1 0.3 1.2  0.1 0.4 1.2  0 0.4 1.2  0.2 0.4 1.2  0.3 0.4 1.2  0.4 0.4 1.2  0.5 0.4 1.2  0.6 0.4 1.2  0.7 0.4 1.2  0.8 0.4 1.2  0.9 0.4 1.2  1 0.4 1.2  1.1 0.4 1.2  0.1 0.5 1.2  0 0.5 1.2  0.2 0.5 1.2  0.3 0.5 1.2  0.4 0.5 1.2  0.5 0.5 1.2  0.6 0.5 1.2  0.7 0.5 1.2  0.8 0.5 1.2  0.9 0.5 1.2  1 0.5 1.2  1.1 0.5 1.2  0.1 0.6 1.2  0 0.6 1.2  0.2 0.6 1.2  0.3 0.6 1.2  0.4 0.6 1.2  0.5 0.6 1.2  0.6 0.6 1.2  0.7 0.6 1.2  0.8 0.6 1.2  0.9 0.6 1.2  1 0.6 1.2  1.1 0.6 1.2  1.2 0.6 1.2  0.1 0.7 1.2  0 0.7 1.2  0.2 0.7 1.2  0.3 0.7 1.2  0.4 0.7 1.2  0.5 0.7 1.2  0.6 0.7 1.2  0.7 0.7 1.2  0.8 0.7 1.2  0.9 0.7 1.2  1 0.7 1.2  1.1 0.7 1.2  1.2 0.7 1.2  0.1 0.8 1.2  0 0.8 1.2  0.2 0.8 1.2  0.3 0.8 1.2  0.4 0.8 1.2  0.5 0.8 1.2  0.6 0.8 1.2  0.7 0.8 1.2  0.8 0.8 1.2  0.9 0.8 1.2  1 0.8 1.2  1.1 0.8 1.2  1.2 0.8 1.2  0.1 0.9 1.2  0 0.9 1.2  0.2 0.9 1.2  0.3 0.9 1.2  0.4 0.9 1.2  0.5 0.9 1.2  0.6 0.9 1.2  0.7 0.9 1.2  0.8 0.9 1.2  0.9 0.9 1.2  1 0.9 1.2  1.1 0.9 1.2  1.2 0.9 1.2  1.3 0.9 1.2  0.1 1 1.2  0 1 1.2  0.2 1 1.2  0.3 1 1.2  0.4 1 1.2  0.5 1 1.2  0.6 1 1.2  0.7 1 1.2  0.8 1 1.2  0.9 1 1.2  1 1 1.2  1.1 1 1.2  1.2 1 1.2  1.3 1 1.2  0.1 1.1 1.2  0 1.1 1.2  0.2 1.1 1.2  0.3 1.1 1.2  0.4 1.1 1.2  0.5 1.1 1.2  0.6 1.1 1.2  0.7 1.1 1.2  0.8 1.1 1.2  0.9 1.1 1.2  1 1.1 1.2  1.1 1.1 1.2  1.2 1.1 1.2  1.3 1.1 1.2  1.4 1.1 1.2  1.4 1.2 1.2  1.3 1.2 1.2  0.1 0.1 1.3  0.1 0 1.3  0 0 1.3  0 0.1 1.3  0.2 0.1 1.3  0.2 0 1.3  0.3 0.1 1.3  0.3 0 1.3  0.4 0.1 1.3  0.4 0 1.3  0.5 0.1 1.3  0.5 0 1.3  0.6 0.1 1.3  0.6 0 1.3  0.7 0.1 1.3  0.7 0 1.3  0.8 0.1 1.3  0.8 0 1.3  0.9 0.1 1.3  0.9 0 1.3  1 0.1 1.3  1 0 1.3  1.1 0.1 1.3  0.1 0.2 1.3  0 0.2 1.3  0.2 0.2 1.3  0.3 0.2 1.3  0.4 0.2 1.3  0.5 0.2 1.3  0.6 0.2 1.3  0.7 0.2 1.3  0.8 0.2 1.3  0.9 0.2 1.3  1 0.2 1.3  1.1 0.2 1.3  0.1 0.3 1.3  0 0.3 1.3  0.2 0.3 1.3  0.3 0.3 1.3  0.4 0.3 1.3  0.5 0.3 1.3  0.6 0.3 1.3  0.7 0.3 1.3  0.8 0.3 1.3  0.9 0.3 1.3  1 0.3 1.3  1.1 0.3 1.3  0.1 0.4 1.3  0 0.4 1.3  0.2 0.4 1.3  0.3 0.4 1.3  0.4 0.4 1.3  0.5 0.4 1.3  0.6 0.4 1.3  0.7 0.4 1.3  0.8 0.4 1.3  0.9 0.4 1.3  1 0.4 1.3  1.1 0.4 1.3  0.1 0.5 1.3  0 0.5 1.3  0.2 0.5 1.3  0.3 0.5 1.3  0.4 0.5 1.3  0.5 0.5 1.3  0.6 0.5 1.3  0.7 0.5 1.3  0.8 0.5 1.3  0.9 0.5 1.3  1 0.5 1.3
[...]
<PointData  Scalars="p"> 
<DataArray  type="Float64"  Name="p"  format="ascii">8.1742961463097128e+00  8.1748180784402589e+00  8.1738152925765597e+00  8.1743620741355958e+00  8.1766045485193182e+00  8.1591888147554172e+00  8.1558978282898380e+00  8.1559187184347017e+00  8.1560334628225437e+00  8.1560121647098960e+00  8.1593335850562489e+00  8.1747834024427881e+00  8.1742284824078730e+00  8.1752509856789111e+00  8.1770467406661762e+00  8.1715089571439012e+00  8.1718727661797210e+00  8.1720983934403399e+00  8.1687323281448183e+00  8.1690362387227733e+00  8.1691501096256225e+00  8.1657266059246787e+00  8.1659737924004574e+00  8.1660403220277740e+00  8.1625798118054576e+00  8.1627789843590577e+00  8.1628219553345751e+00  8.1594941300569506e+00  8.1595239040205723e+00  8.1561639530004815e+00  8.1561422552813436e+00  8.1758287800456344e+00  8.1794566637445314e+00  8.1726171923780289e+00  8.1562264817850387e+00  8.1528019795764433e+00  8.1560948650213874e+00  8.1528767317214577e+00  8.1751409391508716e+00  8.1745821910773415e+00  8.1756162846395206e+00  8.1774162143343574e+00  8.1724244384351934e+00  8.1721957809240617e+00  8.1694345021304766e+00  8.1693184942479622e+00  8.1662815051443438e+00  8.1662135715839987e+00  8.1630234572511373e+00  8.1629795936319081e+00  8.1596912419986047e+00  8.1596609046212798e+00  8.1563028418681682e+00  8.1562807858809450e+00  8.1528532097404334e+00  8.1528698528280046e+00  8.1761961934872751e+00  8.1798368990090200e+00  8.1729510759162576e+00  8.1694406298779185e+00  8.1697306072484945e+00  8.1662199760675360e+00  8.1664648893124703e+00  8.1629418413737138e+00  8.1631457605558406e+00  8.1596086314102543e+00  8.1597775242867829e+00  8.1563663769692880e+00  8.1529182081624949e+00  8.1770730399201703e+00  8.1808920813296666e+00  8.1804984494152020e+00  8.1735278253190788e+00  8.1698093636024236e+00  8.1701067822192748e+00  8.1667187297115600e+00  8.1633241582995311e+00  8.1599076708350839e+00  8.1564643787289022e+00  8.1529939575461032e+00  8.1777237143939754e+00  8.1816062842391659e+00  8.1669997986059535e+00  8.1704884619021492e+00  8.1530911089135092e+00  8.1495758653547892e+00  8.1529726705733925e+00  8.1496672115592830e+00  8.1754486557282267e+00  8.1748878950456270e+00  8.1759293311693675e+00  8.1777313996053120e+00  8.1727117303848047e+00  8.1724813707430091e+00  8.1696931000530721e+00  8.1695757788604482e+00  8.1665081881935855e+00  8.1664393058267475e+00  8.1632187736255570e+00  8.1631742514411805e+00  8.1598578712079579e+00  8.1598270855606128e+00  8.1564443240140427e+00  8.1564219644842098e+00  8.1529898231362861e+00  8.1529729736968442e+00  8.1765093231364840e+00  8.1801578409675262e+00  8.1732429371013851e+00  8.1699927391070144e+00  8.1666941437703198e+00  8.1633428807134152e+00  8.1599453964939279e+00  8.1565087116024628e+00  8.1530387652503151e+00  8.1773934813703466e+00  8.1812207490547344e+00  8.1738259440132843e+00  8.1703738451965187e+00  8.1669516470618184e+00  8.1635239002472026e+00  8.1600773832568461e+00  8.1566079959244941e+00  8.1531154096982128e+00  8.1780518423619224e+00  8.1819430176037731e+00  8.1740415562700548e+00  8.1743463669395222e+00  8.1707609263819521e+00  8.1672368369754782e+00  8.1635336325319052e+00  8.1637364032614279e+00  8.1600667441683079e+00  8.1602386350574267e+00  8.1565875701568498e+00  8.1567327389143731e+00  8.1532136643464490e+00  8.1496794998400386e+00  8.1785655122308967e+00  8.1824860214509911e+00  8.1821419421209711e+00  8.1747887113456859e+00  8.1711202063936721e+00  8.1672799878361637e+00  8.1675210884162883e+00  8.1637540802323141e+00  8.1639599261785722e+00  8.1604151664753992e+00  8.1568734178878461e+00  8.1533269647677908e+00  8.1497717249227009e+00  8.1789813575650516e+00  8.1829175065802655e+00  8.1641810853262236e+00  8.1677900082437684e+00  8.1605962421949378e+00  8.1757163980283973e+00  8.1751544854624072e+00  8.1762008490722913e+00  8.1780041219862447e+00  8.1729655417882459e+00  8.1727341660928730e+00  8.1699265481537608e+00  8.1698083941399329e+00  8.1667178524180528e+00  8.1666483256381852e+00  8.1634038389400416e+00  8.1633588378816597e+00  8.1600193218951063e+00  8.1599881891760315e+00  8.1565841527725755e+00  8.1565615448962063e+00  8.1531104412851896e+00  8.1530934148427097e+00  8.1496061160582816e+00  8.1767802498602240e+00  8.1804338986206506e+00  8.1734995470658482e+00  8.1702284780743533e+00  8.1669055841028442e+00  8.1635292725763549e+00  8.1601078156725659e+00  8.1566492393717915e+00  8.1531598862128920e+00  8.1496446492667598e+00  8.1776689182963676e+00  8.1815015121916073e+00  8.1740865503053062e+00  8.1706128936631455e+00  8.1671656880350074e+00  8.1637122616161495e+00  8.1602412595567220e+00  8.1567495882208281e+00  8.1532373047074085e+00  8.1497056548746993e+00  8.1783323144849636e+00  8.1822290116833152e+00  8.1746114824245897e+00  8.1710037670109710e+00  8.1674539119037917e+00  8.1639271055089218e+00  8.1604042746466590e+00  8.1568756409267440e+00  8.1533365259044306e+00  8.1497850058899601e+00  8.1788509085247760e+00  8.1827771090019450e+00  8.1750582877232141e+00  8.1713668630569867e+00  8.1677412788450692e+00  8.1641530841018977e+00  8.1605826949488485e+00  8.1570177506337185e+00  8.1534509010912828e+00  8.1498780359175900e+00  8.1462970653283335e+00  8.1792711892994596e+00  8.1832131632471725e+00  8.1754374730781425e+00  8.1714425345346235e+00  8.1716927278339444e+00  8.1680131464395522e+00  8.1643766189880758e+00  8.1607656391145049e+00  8.1570218801739269e+00  8.1571676583980075e+00  8.1535742750583999e+00  8.1498730104377106e+00  8.1499801653342878e+00  8.1463821436523460e+00  8.1796209366995392e+00  8.1835722779888691e+00  8.1682637458814629e+00  8.1719818489455687e+00  8.1645900613720297e+00  8.1609457366811622e+00  8.1573190497925623e+00  8.1537015143817246e+00  8.1464726644000738e+00  8.1500873171937602e+00  8.1759512621283594e+00  8.1753886454650431e+00  8.1764384670616312e+00  8.1782424683809047e+00  8.1731905161678444e+00  8.1729585015997550e+00  8.1701366658250780e+00  8.1700179656122973e+00  8.1669099964744660e+00  8.1668400253096340e+00  8.1635766622586186e+00  8.1635313131111378e+00  8.1601728694531062e+00  8.1601414712377540e+00  8.1567194001583285e+00  8.1566965931601150e+00  8.1532288871063283e+00  8.1532117126650707e+00  8.1497094808091610e+00  8.1770170978652423e+00  8.1806743018201207e+00  8.1737263137611613e+00  8.1704401233753110e+00  8.1670989699606071e+00  8.1637030701593805e+00  8.1602621091310521e+00  8.1567850492050749e+00  8.1532787527795900e+00  8.1497483279370488e+00  8.1779086714330074e+00  8.1817449196374312e+00  8.1743159551444862e+00  8.1708268043524779e+00  8.1673609320529632e+00  8.1638875311683439e+00  8.1603966908496677e+00  8.1568862639082766e+00  8.1533568244439163e+00  8.1498098245691590e+00  8.1462469298341791e+00  8.1785754557115720e+00  8.1824759132535139e+00  8.1748439852296872e+00  8.1712203652548414e+00  8.1676513876993759e+00  8.1641041665863074e+00  8.1605611092652559e+00  8.1570133980653630e+00  8.1534568710030086e+00  8.1498898026073334e+00  8.1463117497539734e+00  8.1790975287558307e+00  8.1830275880668797e+00  8.1752939963042586e+00  8.1715862750081936e+00  8.1679411247132094e+00  8.1643320774609869e+00  8.1607410670923706e+00  8.1571567106967802e+00  8.1535721772911884e+00  8.1499835491278212e+00  8.1463887255317573e+00  8.1795211021152028e+00  8.1834670184018510e+00  8.1756762398416569e+00  8.1719148566787219e+00  8.1682153154175339e+00  8.1645575379561848e+00  8.1609255697185610e+00  8.1573078581551339e+00  8.1536965259553664e+00  8.1500864394778318e+00  8.1464743958179646e+00  8.1428585042336348e+00  8.1798738007825662e+00  8.1838291510874690e+00  8.1760033471643254e+00  8.1722064610395950e+00  8.1684680699212162e+00  8.1647727965607082e+00  8.1611071628400769e+00  8.1574604597462770e+00  8.1538247324913282e+00  8.1501943580497311e+00  8.1465655214316541e+00  8.1429357364408510e+00  8.1801731166259746e+00  8.1841345149899265e+00  8.1762858406091095e+00  8.1686980539386873e+00  8.1724645808679242e+00  8.1649740703558749e+00  8.1612812631012233e+00  8.1576100266572862e+00  8.1539527919043255e+00  8.1503038954866991e+00  8.1466592696282270e+00  8.1430160947904486e+00  8.1761584867642991e+00  8.1755954167346090e+00  8.1766477520617169e+00  8.1784522189100723e+00  8.1733904907742030e+00  8.1731580566076030e+00  8.1703255342746957e+00  8.1702064642844672e+00  8.1670850756691760e+00  8.1670147922007530e+00  8.1637364749563766e+00  8.1636908709938218e+00  8.1603169782043636e+00  8.1602853774637314e+00  8.1568481480626538e+00  8.1568251830611427e+00  8.1533431320582839e+00  8.1533258358229048e+00  8.1497969807392554e+00  8.1498103717823192e+00  8.1772256175484195e+00  8.1808853854391437e+00  8.1739274815652099e+00  8.1706300392784232e+00  8.1672749316746494e+00  8.1638636025337785e+00  8.1604067906399855e+00  8.1569142452737022e+00  8.1533933446393814e+00  8.1498494858538848e+00  8.1781191339445893e+00  8.1819579996245704e+00  8.1745189190626082e+00  8.1710183048322218e+00  8.1675382370761103e+00  8.1640491664771186e+00  8.1605422563162158e+00  8.1570161564177219e+00  8.1534719589131921e+00  8.1499114025387858e+00  8.1463362703290674e+00  8.1787882587830261e+00  8.1826913939011554e+00  8.1750491229870725e+00  8.1714137969916347e+00  8.1678303441313833e+00  8.1642671708166503e+00  8.1607077827133807e+00  8.1571441719730284e+00  8.1535726984829839e+00  8.1499919216062455e+00  8.1464015111343766e+00  8.1793128267098894e+00  8.1832456225585943e+00  8.1755014636097822e+00  8.1717817933061063e+00  8.1681218836441225e+00  8.1644965929647704e+00  8.1608889782882841e+00  8.1572884808087149e+00  8.1536887968404521e+00  8.1500862929518139e+00  8.1464789776311015e+00  8.1428658638028075e+00  8.1797388556570674e+00  8.1836875613849731e+00  8.1758860129759512e+00  8.1721124583883125e+00  8.1683978940271142e+00  8.1647235981727331e+00  8.1610747626216789e+00  8.1574406733499973e+00  8.1538139869181236e+00  8.1501898549197023e+00  8.1465651811533508e+00  8.1429380659622392e+00  8.1800938420497822e+00  8.1840520264419840e+00  8.1762152806264883e+00  8.1724060318869434e+00  8.1686523876932728e+00  8.1649403520249191e+00  8.1612576132564776e+00  8.1575943143635090e+00  8.1539430414990459e+00  8.1502984589946710e+00  8.1466568574604938e+00  8.1430157389351496e+00  8.1803952087846898e+00  8.1843594773594432e+00  8.1764997212066888e+00  8.1726659415794138e+00  8.1688839697602518e+00  8.1651430169924968e+00  8.1614328992723006e+00  8.1577448748822459e+00  8.1540719225824727e+00  8.1504086692674065e+00  8.1467511527973766e+00  8.1430965401791813e+00  8.1806545666670178e+00  8.1846229622855446e+00  8.1767474054048801e+00  8.1728961974193872e+00  8.1690933170345215e+00  8.1653301101728957e+00  8.1615980270313102e+00  8.1578893762639062e+00  8.1541976893132055e+00  8.1505177913620628e+00  8.1468456981966071e+00  8.1430975577727480e+00  8.1431784349902738e+00  8.1395138382800507e+00  8.1395849074420195e+00  8.1763420258684665e+00  8.1757786514462705e+00  8.1768328661367580e+00  8.1786376438547421e+00  8.1735685751222142e+00  8.1733358551575339e+00  8.1704951414350564e+00  8.1703758138677145e+00  8.1672439499457159e+00  8.1671734426821452e+00  8.1638831920200552e+00  8.1638373995459599e+00  8.1604508809536132e+00  8.1604191253265661e+00  8.1569692053191059e+00  8.1569461154495251e+00  8.1534517711382009e+00  8.1534343755971950e+00  8.1499073207721207e+00  8.1498938514665173e+00  8.1463310686462957e+00  8.1463417257442465e+00  8.1774100350516754e+00  8.1810717099175978e+00  8.1741063869936710e+00  8.1708003833330718e+00  8.1674344441266040e+00  8.1640108561643547e+00  8.1605411341116962e+00  8.1570356582467483e+00  8.1535022672949200e+00  8.1499466590858951e+00  8.1463729903350206e+00  8.1783048931748166e+00  8.1821456963233032e+00  8.1746990815753335e+00  8.1711897809282217e+00  8.1676987341474483e+00  8.1641972520193651e+00  8.1606772866435975e+00  8.1571381266597136e+00  8.1535813280711213e+00  8.1500089305413415e+00  8.1464228852560474e+00  8.1789756747072015e+00  8.1828807827913987e+00  8.1752308426681584e+00  8.1715866822596208e+00  8.1679920744637826e+00  8.1644163056612342e+00  8.1608436857910434e+00  8.1572668555639574e+00  8.1536826433107077e+00  8.1500899101157476e+00  8.1464884924200032e+00  8.1428786896518499e+00  8.1795020605612550e+00  8.1834368657120127e+00  8.1756848984550032e+00  8.1719562398226540e+00  8.1682849905105162e+00  8.1646469089568239e+00  8.1610258726317149e+00  8.1574119819964110e+00  8.1537994073239339e+00  8.1501848184434404e+00  8.1465663894726781e+00  8.1429431982147875e+00  8.1799299356134263e+00  8.1838806847575185e+00  8.1760711966974355e+00  8.1722885070301245e+00  8.1685624250452946e+00  8.1648751476716672e+00  8.1612127025990500e+00  8.1575650458253648e+00  8.1539253139224375e+00  8.1502889640032823e+00  8.1466530651593825e+00  8.1430157807719841e+00  8.1802866972465722e+00  8.1842469551870636e+00  8.1764021531318516e+00  8.1725836377950767e+00  8.1688183147437012e+00  8.1650931225613590e+00  8.1613965992802981e+00  8.1577195679747270e+00  8.1540551009559277e+00  8.1503981708696021e+00  8.1467452339759525e+00  8.1430938541795204e+00  8.1805897050863834e+00  8.1845560726874229e+00  8.1766881613013638e+00  8.1728450023847916e+00  8.1690512120658170e+00  8.1652969492272618e+00  8.1615728911641465e+00  8.1578709851942541e+00  8.1541847020917473e+00  8.1505089801383761e+00  8.1468400237699150e+00  8.1431750613347642e+00  8.1395121157081824e+00  8.1808505370841402e+00  8.1848210526131915e+00  8.1769372590737621e+00  8.1730765783165502e+00  8.1692617623968520e+00  8.1654851151282131e+00  8.1617389574659089e+00  8.1580162946874744e+00  8.1543111555441037e+00  8.1506186797060103e+00  8.1469350508395149e+00  8.1432573554697907e+00  8.1395834203673836e+00  8.1810772487528975e+00  8.1850507015923686e+00  8.1771555647834209e+00  8.1732820647009738e+00  8.1694514302854806e+00  8.1656573994529786e+00  8.1618935066144136e+00  8.1581536448965615e+00  8.1544324073788843e+00  8.1507252333172939e+00  8.1470284156494941e+00  8.1433390270563617e+00  8.1396548089500804e+00  8.1359740522111252e+00  8.1360358555920147e+00  8.1765049216974557e+00  8.1759413358230191e+00  8.1769969876065183e+00  8.1788019804009160e+00  8.1737272796463891e+00  8.1734943590070994e+00  8.1706472610832641e+00  8.1705277495594100e+00  8.1673876064879920e+00  8.1673169358618232e+00  8.1640170891485901e+00  8.1639711555638588e+00  8.1605742878950824e+00  8.1605424131711040e+00  8.1570818825109068e+00  8.1570586939758982e+00  8.1535538671566226e+00  8.1535363910357912e+00  8.1499992646264694e+00  8.1499857301952865e+00  8.1464241299285725e+00  8.1464134205719105e+00  8.1775735458453322e+00  8.1812366737943947e+00  8.1742656726395744e+00  8.1709530334052332e+00  8.1675785699860821e+00  8.1641451576134916e+00  8.1606648818187626e+00  8.1571486177045127e+00  8.1536045940754978e+00  8.1500387898218936e+00  8.1464555449021141e+00  8.1784693562833528e+00  8.1823116306841346e+00  8.1748592686020487e+00  8.1713432557144827e+00  8.1678435919603309e+00  8.1643321863053639e+00  8.1608015697718255e+00  8.1572515313841443e+00  8.1536840203072209e+00  8.1501013583662072e+00  8.1465056797501560e+00  8.1791413362580681e+00  8.1830479373468012e+00  8.1753921666367173e+00  8.1717412009625399e+00  8.1681378629663630e+00  8.1645520487980576e+00  8.1609686570894802e+00  8.1573808358632967e+00  8.1537858106280883e+00  8.1501827262507760e+00  8.1465716021217123e+00  8.1429528393883643e+00  8.1796690675539061e+00  8.1836053887330227e+00  8.1758475023025277e+00  8.1721119387072143e+00  8.1684318369815507e+00  8.1647835774234210e+00  8.1611516366250960e+00  8.1575266299954645e+00  8.1539031296440907e+00  8.1502780913017325e+00  8.1466498723075187e+00  8.1430176512960948e+00  8.1800983436371162e+00  8.1840506312299901e+00  8.1762351373195798e+00  8.1724454444159456e+00  8.1687103885985088e+00  8.1650128001755462e+00  8.1613393161521266e+00  8.1576804152011331e+00  8.1540296407017880e+00  8.1503827381885117e+00  8.1467369606316300e+00  8.1430905716680577e+00  8.1394425075698607e+00  8.1804564880176507e+00  8.1844183049698902e+00  8.1765674172334197e+00  8.1727418074753491e+00  8.1689673969953702e+00  8.1652317680233750e+00  8.1615240772342688e+00  8.1578356777051226e+00  8.1541600535198615e+00  8.1504924685124145e+00  8.1468295638395070e+00  8.1431690034564408e+00  8.1395091935095873e+00  8.1807608075321330e+00  8.1847287521910719e+00  8.1768546848097063e+00  8.1730043505775569e+00  8.1692013712105087e+00  8.1654365579360295e+00  8.1617012148053512e+00  8.1579878257412766e+00  8.1542902779896984e+00  8.1506038038616886e+00  8.1469247939805687e+00  8.1432505768944132e+00  8.1395792122463622e+00  8.1810228472997810e+00  8.1849949552171797e+00  8.1771049457672778e+00  8.1732370202928291e+00  8.1694129274291249e+00  8.1656256304262715e+00  8.1618680837817905e+00  8.1581338350887176e+00  8.1544173338242398e+00  8.1507140164464005e+00  8.1470202542590773e+00  8.1433332344227054e+00  8.1396508202058300e+00  8.1359714160287755e+00  8.1812506463142078e+00  8.1852257042587713e+00  8.1773243017131598e+00  8.1734434988316558e+00  8.1696035133377460e+00  8.1657987482012757e+00  8.1620233768822494e+00  8.1582718396049270e+00  8.1545391538889778e+00  8.1508210583356373e+00  8.1471140350171218e+00  8.1434152578830652e+00  8.1397225048422843e+00  8.1360340587634266e+00  8.1814499989947667e+00  8.1854272172123697e+00  8.1775174199036904e+00  8.1736269602702265e+00  8.1697748049601930e+00  8.1659563329145666e+00  8.1621666059304943e+00  8.1584007759671682e+00  8.1546543694440370e+00  8.1509234473000660e+00  8.1472046639617002e+00  8.1434952564972285e+00  8.1397929928563304e+00  8.1360961012002377e+00  8.1324031948911237e+00  8.1324567141904947e+00  8.1361565731694299e+00  8.1766495535620169e+00  8.1760858166381443e+00  8.1771425872969541e+00  8.1789477332496698e+00  8.1738686359869366e+00  8.1736355708200961e+00  8.1707834280241762e+00  8.1706637822653132e+00  8.1675170252789808e+00  8.1674462333868352e+00  8.1641386148938881e+00  8.1640925744406445e+00  8.1606871944439643e+00  8.1606552275321285e+00  8.1571858255454952e+00  8.1571625588921268e+00  8.1536488219564092e+00  8.1536312805837863e+00  8.1500854540315348e+00  8.1500718657013920e+00  8.1465019540543455e+00  8.1464912005461514e+00  8.1429026553676565e+00  8.1777186196932714e+00  8.1813828761833260e+00  8.1744074501511861e+00  8.1710895898602125e+00  8.1677083393005656e+00  8.1642669913057890e+00  8.1607780534446839e+00  8.1572527851205958e+00  8.1536997362950903e+00  8.1501251341817369e+00  8.1465334961805329e+00  8.1429281352635634e+00  8.1786151218967174e+00  8.1824585360912057e+00  8.1750017060896454e+00  8.1714804235882585e+00  8.1679739127229762e+00  8.1644545057428566e+00  8.1609151607363515e+00  8.1573560548417419e+00  8.1537794608345333e+00  8.1501879501076449e+00  8.1465838346169193e+00  8.1429690489682702e+00  8.1792879855055585e+00  8.1831957401593041e+00  8.1755354485613463e+00  8.1718791531749506e+00  8.1682688935101382e+00  8.1646749958991371e+00  8.1610827922282834e+00  8.1574858234136123e+00  8.1538816417343725e+00  8.1502696433114412e+00  8.1466500258408932e+00  8.1430233053538839e+00  8.1798167270024056e+00  8.1837542167175350e+00  8.1759917515581861e+00  8.1722507922579801e+00  8.1685636865551174e+00  8.1649072523088062e+00  8.1612664060962103e+00  8.1576321615359149e+00  8.1539994211384297e+00  8.1503653939386087e+00  8.1467286163649284e+00  8.1430883818267450e+00  8.1802470766086053e+00  8.1842005477557631e+00  8.1763804168586187e+00  8.1725852613978365e+00  8.1688431177220018e+00  8.1651372609351061e+00  8.1614547747513395e+00  8.1577865414993571e+00  8.1541264388109109e+00  8.1504704678295106e+00  8.1468160616377361e+00  8.1431615987319024e+00  8.1395060780234321e+00  8.1806063034447156e+00  8.1845693181617865e+00  8.1767137381148665e+00  8.1728826019433569e+00  8.1691010229701337e+00  8.1653570348701869e+00  8.1616402473327252e+00  8.1579424223336066e+00  8