<?xml version="1.0"?>
<VTKFile type="UnstructuredGrid"  version="0.1"  >
<UnstructuredGrid>
<Piece  NumberOfPoints="14206" NumberOfCells="74130">
<Points>
<DataArray  type="Float64"  NumberOfComponents="3"  format="ascii">0 3.1 2.4  0 3.1 2.5  0.1 3.1 2.5  0.1 3.2 2.5  0 3.2 2.5  0 3.2 2.4  0.1 3.3 2.5  0 3.3 2.5  0 3.3 2.4  0.1 3.4 2.5  0 3.4 2.5  0 3.4 2.4  0.1 3.5 2.5  0 3.5 2.5  0 3.5 2.4  0.1 3.6 2.5  0 3.6 2.5  0 3.6 2.4  0.1 3.7 2.5  0 3.7 2.5  0 3.7 2.4  0.1 3.8 2.5  0 3.8 2.5  0 3.8 2.4  0.1 3.9 2.5  0 3.9 2.5  0 2.5 2.5  0 2.5 2.6  0 2.6 2.6  0.1 2.6 2.6  0 2.6 2.5  0.1 2.7 2.6  0 2.7 2.5  0.1 2.7 2.5  0 2.7 2.6  0.1 2.8 2.5  0.1 2.8 2.6  0 2.8 2.5  0 2.8 2.6  0.2 2.7 2.6  0.2 2.8 2.6  0.1 2.9 2.5  0.1 2.9 2.6  0 2.9 2.5  0 2.9 2.6  0.2 2.9 2.6  0.1 3 2.5  0.1 3 2.6  0 3 2.5  0 3 2.6  0.2 3 2.6  0.1 3.1 2.6  0 3.1 2.6  0.2 3.1 2.6  0.1 3.2 2.6  0 3.2 2.6  0.2 3.2 2.6  0.1 3.3 2.6  0 3.3 2.6  0.2 3.3 2.6  0.1 3.4 2.6  0 3.4 2.6  0.2 3.4 2.6  0.1 3.5 2.6  0 3.5 2.6  0.2 3.5 2.6  0.1 3.6 2.6  0 3.6 2.6  0.2 3.6 2.6  0.1 3.7 2.6  0 3.7 2.6  0.2 3.7 2.6  0.1 3.8 2.6  0 3.8 2.6  0.2 3.8 2.6  0.2 3.8 2.5  0.1 3.9 2.6  0 3.9 2.6  0.2 3.9 2.5  0.2 3.9 2.6  0.3 3.9 2.6  0.1 4 2.5  0.1 4 2.6  0 4 2.5  0 4 2.6  0.2 4 2.5  0.2 4 2.6  0.3 4 2.6  0.1 4.1 2.5  0.1 4.1 2.6  0 4.1 2.5  0 4.1 2.6  0.2 4.1 2.5  0.2 4.1 2.6  0.3 4.1 2.6  0.1 4.2 2.6  0 4.2 2.6  0 4.2 2.5  0.2 4.2 2.6  0.3 4.2 2.6  0.1 4.3 2.6  0 4.3 2.6  0 4.3 2.5  0.1 4.4 2.6  0 4.4 2.6  0 4.4 2.5  0.1 4.5 2.6  0 4.5 2.6  0.1 2.5 2.6  0.1 2.6 2.7  0.1 2.5 2.7  0 2.5 2.7  0 2.6 2.7  0.2 2.6 2.7  0.1 2.7 2.7  0 2.7 2.7  0.2 2.7 2.7  0.1 2.8 2.7  0 2.8 2.7  0.2 2.8 2.7  0.3 2.7 2.7  0.3 2.8 2.7  0.1 2.9 2.7  0 2.9 2.7  0.2 2.9 2.7  0.3 2.9 2.7  0.1 3 2.7  0 3 2.7  0.2 3 2.7  0.3 3 2.7  0.1 3.1 2.7  0 3.1 2.7  0.2 3.1 2.7  0.3 3.1 2.7  0.1 3.2 2.7  0 3.2 2.7  0.2 3.2 2.7  0.3 3.2 2.7  0.1 3.3 2.7  0 3.3 2.7  0.2 3.3 2.7  0.3 3.3 2.7  0.3 3.3 2.6  0.1 3.4 2.7  0 3.4 2.7  0.2 3.4 2.7  0.3 3.4 2.6  0.3 3.4 2.7  0.4 3.4 2.7  0.1 3.5 2.7  0 3.5 2.7  0.2 3.5 2.7  0.3 3.5 2.6  0.3 3.5 2.7  0.4 3.5 2.7  0.1 3.6 2.7  0 3.6 2.7  0.2 3.6 2.7  0.3 3.6 2.7  0.4 3.6 2.7  0.1 3.7 2.7  0 3.7 2.7  0.2 3.7 2.7  0.3 3.7 2.7  0.1 3.8 2.7  0 3.8 2.7  0.2 3.8 2.7  0.3 3.8 2.7  0.1 3.9 2.7  0 3.9 2.7  0.2 3.9 2.7  0.3 3.9 2.7  0.1 4 2.7  0 4 2.7  0.2 4 2.7  0.3 4 2.7  0.4 4 2.6  0.4 4 2.7  0.1 4.1 2.7  0 4.1 2.7  0.2 4.1 2.7  0.3 4.1 2.7  0.4 4.1 2.6  0.4 4.1 2.7  0.5 4 2.7  0.5 4.1 2.7  0.1 4.2 2.7  0 4.2 2.7  0.2 4.2 2.7  0.3 4.2 2.7  0.4 4.2 2.6  0.4 4.2 2.7  0.5 4.2 2.7  0.1 4.3 2.7  0 4.3 2.7  0.2 4.3 2.6  0.2 4.3 2.7  0.3 4.3 2.7  0.4 4.3 2.7  0.5 4.3 2.7  0.1 4.4 2.7  0 4.4 2.7  0.2 4.4 2.6  0.2 4.4 2.7  0.3 4.4 2.7  0.1 4.5 2.7  0 4.5 2.7  0.2 4.5 2.6  0.2 4.5 2.7  0.3 4.4 2.6  0.3 4.5 2.6  0.3 4.5 2.7  0.4 4.4 2.7  0.4 4.5 2.7  0.1 4.6 2.7  0 4.6 2.7  0.2 4.6 2.7  0.3 4.6 2.7  0.4 4.6 2.7  0 4.7 2.6  0 4.7 2.7  0.1 4.7 2.7  0.1 4.8 2.7  0 4.8 2.7  0 4.8 2.6  0.1 4.9 2.7  0 4.9 2.7  0 4.9 2.6  0.1 5 2.7  0 5 2.7  0 5 2.6  0 2.3 2.7  0.1 2.3 2.7  0.1 2.4 2.7  0.1 2.4 2.8  0 2.4 2.7  0 2.4 2.8  0.2 2.4 2.7  0.2 2.4 2.8  0.1 2.5 2.8  0 2.5 2.8  0.2 2.5 2.7  0.2 2.5 2.8  0.3 2.5 2.8  0.1 2.6 2.8  0 2.6 2.8  0.2 2.6 2.8  0.3 2.6 2.8  0.1 2.7 2.8  0 2.7 2.8  0.2 2.7 2.8  0.3 2.7 2.8  0.1 2.8 2.8  0 2.8 2.8  0.2 2.8 2.8  0.3 2.8 2.8  0.4 2.7 2.8  0.4 2.8 2.8  0.4 2.8 2.7  0.1 2.9 2.8  0 2.9 2.8  0.2 2.9 2.8  0.3 2.9 2.8  0.4 2.9 2.7  0.4 2.9 2.8  0.5 2.8 2.8  0.5 2.9 2.8  0.1 3 2.8  0 3 2.8  0.2 3 2.8  0.3 3 2.8  0.4 3 2.7  0.4 3 2.8  0.5 3 2.8  0.1 3.1 2.8  0 3.1 2.8  0.2 3.1 2.8  0.3 3.1 2.8  0.4 3.1 2.7  0.4 3.1 2.8  0.5 3.1 2.8  0.1 3.2 2.8  0 3.2 2.8  0.2 3.2 2.8  0.3 3.2 2.8  0.4 3.2 2.7  0.4 3.2 2.8  0.5 3.2 2.8  0.1 3.3 2.8  0 3.3 2.8  0.2 3.3 2.8  0.3 3.3 2.8  0.4 3.3 2.7  0.4 3.3 2.8  0.5 3.3 2.8  0.1 3.4 2.8  0 3.4 2.8  0.2 3.4 2.8  0.3 3.4 2.8  0.4 3.4 2.8  0.5 3.4 2.8  0.5 3.4 2.7  0.1 3.5 2.8  0 3.5 2.8  0.2 3.5 2.8  0.3 3.5 2.8  0.4 3.5 2.8  0.5 3.5 2.7  0.5 3.5 2.8  0.6 3.5 2.8  0.1 3.6 2.8  0 3.6 2.8  0.2 3.6 2.8  0.3 3.6 2.8  0.4 3.6 2.8  0.5 3.6 2.7  0.5 3.6 2.8  0.6 3.6 2.8  0.6 3.6 2.7  0.1 3.7 2.8  0 3.7 2.8  0.2 3.7 2.8  0.3 3.7 2.8  0.4 3.7 2.7  0.4 3.7 2.8  0.5 3.7 2.7  0.5 3.7 2.8  0.6 3.7 2.7  0.6 3.7 2.8  0.7 3.7 2.8  0.1 3.8 2.8  0 3.8 2.8  0.2 3.8 2.8  0.3 3.8 2.8  0.4 3.8 2.7  0.4 3.8 2.8  0.5 3.8 2.7  0.5 3.8 2.8  0.6 3.8 2.7  0.6 3.8 2.8  0.7 3.8 2.8  0.1 3.9 2.8  0 3.9 2.8  0.2 3.9 2.8  0.3 3.9 2.8  0.4 3.9 2.7  0.4 3.9 2.8  0.5 3.9 2.7  0.5 3.9 2.8  0.6 3.9 2.8  0.7 3.9 2.8  0.1 4 2.8  0 4 2.8  0.2 4 2.8  0.3 4 2.8  0.4 4 2.8  0.5 4 2.8  0.6 4 2.8  0.1 4.1 2.8  0 4.1 2.8  0.2 4.1 2.8  0.3 4.1 2.8  0.4 4.1 2.8  0.5 4.1 2.8  0.6 4.1 2.8  0.1 4.2 2.8  0 4.2 2.8  0.2 4.2 2.8  0.3 4.2 2.8  0.4 4.2 2.8  0.5 4.2 2.8  0.6 4.2 2.8  0.1 4.3 2.8  0 4.3 2.8  0.2 4.3 2.8  0.3 4.3 2.8  0.4 4.3 2.8  0.5 4.3 2.8  0.6 4.3 2.8  0.1 4.4 2.8  0 4.4 2.8  0.2 4.4 2.8  0.3 4.4 2.8  0.4 4.4 2.8  0.5 4.4 2.7  0.5 4.4 2.8  0.6 4.4 2.8  0.1 4.5 2.8  0 4.5 2.8  0.2 4.5 2.8  0.3 4.5 2.8  0.4 4.5 2.8  0.5 4.5 2.8  0.6 4.5 2.8  0.1 4.6 2.8  0 4.6 2.8  0.2 4.6 2.8  0.3 4.6 2.8  0.4 4.6 2.8  0.5 4.6 2.8  0.1 4.7 2.8  0 4.7 2.8  0.2 4.7 2.7  0.2 4.7 2.8  0.3 4.7 2.8  0.4 4.7 2.8  0.5 4.7 2.8  0.1 4.8 2.8  0 4.8 2.8  0.2 4.8 2.7  0.2 4.8 2.8  0.3 4.8 2.8  0.1 4.9 2.8  0 4.9 2.8  0.2 4.9 2.7  0.2 4.9 2.8  0.3 4.9 2.8  0.1 5 2.8  0 5 2.8  0.2 5 2.7  0.2 5 2.8  0.3 5 2.8  0.1 2.5 2.9  0.1 2.4 2.9  0 2.4 2.9  0 2.5 2.9  0.2 2.5 2.9  0.2 2.4 2.9  0.3 2.5 2.9  0.1 2.6 2.9  0 2.6 2.9  0.2 2.6 2.9  0.3 2.6 2.9  0.4 2.5 2.9  0.4 2.6 2.9  0.1 2.7 2.9  0 2.7 2.9  0.2 2.7 2.9  0.3 2.7 2.9  0.4 2.6 2.8  0.4 2.7 2.9  0.5 2.7 2.9  0.1 2.8 2.9  0 2.8 2.9  0.2 2.8 2.9  0.3 2.8 2.9  0.4 2.8 2.9  0.5 2.7 2.8  0.5 2.8 2.9  0.6 2.7 2.9  0.6 2.8 2.9  0.6 2.8 2.8  0.1 2.9 2.9  0 2.9 2.9  0.2 2.9 2.9  0.3 2.9 2.9  0.4 2.9 2.9  0.5 2.9 2.9  0.6 2.9 2.8  0.6 2.9 2.9  0.7 2.8 2.9  0.7 2.9 2.9  0.1 3 2.9  0 3 2.9  0.2 3 2.9  0.3 3 2.9  0.4 3 2.9  0.5 3 2.9  0.6 3 2.8  0.6 3 2.9  0.7 3 2.9  0.1 3.1 2.9  0 3.1 2.9  0.2 3.1 2.9  0.3 3.1 2.9  0.4 3.1 2.9  0.5 3.1 2.9  0.6 3.1 2.8  0.6 3.1 2.9  0.7 3 2.8  0.7 3.1 2.8  0.7 3.1 2.9  0.8 3 2.9  0.8 3.1 2.9  0.8 3.1 2.8  0.1 3.2 2.9  0 3.2 2.9  0.2 3.2 2.9  0.3 3.2 2.9  0.4 3.2 2.9  0.5 3.2 2.9  0.6 3.2 2.8  0.6 3.2 2.9  0.7 3.2 2.8  0.7 3.2 2.9  0.8 3.2 2.8  0.8 3.2 2.9  0.9 3.2 2.9  0.1 3.3 2.9  0 3.3 2.9  0.2 3.3 2.9  0.3 3.3 2.9  0.4 3.3 2.9  0.5 3.3 2.9  0.6 3.3 2.8  0.6 3.3 2.9  0.7 3.3 2.8  0.7 3.3 2.9  0.8 3.3 2.9  0.9 3.3 2.9  0.1 3.4 2.9  0 3.4 2.9  0.2 3.4 2.9  0.3 3.4 2.9  0.4 3.4 2.9  0.5 3.4 2.9  0.6 3.4 2.8  0.6 3.4 2.9  0.7 3.4 2.8  0.7 3.4 2.9  0.8 3.4 2.9  0.1 3.5 2.9  0 3.5 2.9  0.2 3.5 2.9  0.3 3.5 2.9  0.4 3.5 2.9  0.5 3.5 2.9  0.6 3.5 2.9  0.7 3.5 2.8  0.7 3.5 2.9  0.8 3.4 2.8  0.8 3.5 2.8  0.8 3.5 2.9  0.9 3.5 2.8  0.9 3.5 2.9  0.1 3.6 2.9  0 3.6 2.9  0.2 3.6 2.9  0.3 3.6 2.9  0.4 3.6 2.9  0.5 3.6 2.9  0.6 3.6 2.9  0.7 3.6 2.8  0.7 3.6 2.9  0.8 3.6 2.8  0.8 3.6 2.9  0.9 3.6 2.8  0.9 3.6 2.9  1 3.5 2.8  1 3.6 2.8  1 3.6 2.9  1 3.5 2.9  1.1 3.6 2.9  0.1 3.7 2.9  0 3.7 2.9  0.2 3.7 2.9  0.3 3.7 2.9  0.4 3.7 2.9  0.5 3.7 2.9  0.6 3.7 2.9  0.7 3.7 2.9  0.8 3.7 2.8  0.8 3.7 2.9  0.9 3.7 2.8  0.9 3.7 2.9  1 3.7 2.8  1 3.7 2.9  1.1 3.7 2.9  0.1 3.8 2.9  0 3.8 2.9  0.2 3.8 2.9  0.3 3.8 2.9  0.4 3.8 2.9  0.5 3.8 2.9  0.6 3.8 2.9  0.7 3.8 2.9  0.8 3.8 2.8  0.8 3.8 2.9  0.9 3.8 2.8  0.9 3.8 2.9  1 3.8 2.9  1.1 3.8 2.9  0.1 3.9 2.9  0 3.9 2.9  0.2 3.9 2.9  0.3 3.9 2.9  0.4 3.9 2.9  0.5 3.9 2.9  0.6 3.9 2.9  0.7 3.9 2.9  0.8 3.9 2.8  0.8 3.9 2.9  0.9 3.9 2.8  0.9 3.9 2.9  1 3.9 2.9  0.1 4 2.9  0 4 2.9  0.2 4 2.9  0.3 4 2.9  0.4 4 2.9  0.5 4 2.9  0.6 4 2.9  0.7 4 2.8  0.7 4 2.9  0.8 4 2.8  0.8 4 2.9  0.9 4 2.9  1 4 2.9  0.1 4.1 2.9  0 4.1 2.9  0.2 4.1 2.9  0.3 4.1 2.9  0.4 4.1 2.9  0.5 4.1 2.9  0.6 4.1 2.9  0.7 4.1 2.8  0.7 4.1 2.9  0.8 4.1 2.8  0.8 4.1 2.9  0.9 4.1 2.9  0.1 4.2 2.9  0 4.2 2.9  0.2 4.2 2.9  0.3 4.2 2.9  0.4 4.2 2.9  0.5 4.2 2.9  0.6 4.2 2.9  0.7 4.2 2.8  0.7 4.2 2.9  0.8 4.2 2.8  0.8 4.2 2.9  0.9 4.2 2.9  0.1 4.3 2.9  0 4.3 2.9  0.2 4.3 2.9  0.3 4.3 2.9  0.4 4.3 2.9  0.5 4.3 2.9  0.6 4.3 2.9  0.7 4.3 2.8  0.7 4.3 2.9  0.8 4.3 2.8  0.8 4.3 2.9  0.9 4.3 2.9  0.1 4.4 2.9  0 4.4 2.9  0.2 4.4 2.9  0.3 4.4 2.9  0.4 4.4 2.9  0.5 4.4 2.9  0.6 4.4 2.9  0.7 4.4 2.8  0.7 4.4 2.9  0.8 4.4 2.9  0.9 4.4 2.9  0.1 4.5 2.9  0 4.5 2.9  0.2 4.5 2.9  0.3 4.5 2.9  0.4 4.5 2.9  0.5 4.5 2.9  0.6 4.5 2.9  0.7 4.5 2.8  0.7 4.5 2.9  0.8 4.5 2.9  0.1 4.6 2.9  0 4.6 2.9  0.2 4.6 2.9  0.3 4.6 2.9  0.4 4.6 2.9  0.5 4.6 2.9  0.6 4.6 2.8  0.6 4.6 2.9  0.7 4.6 2.8  0.7 4.6 2.9  0.8 4.6 2.9  0.1 4.7 2.9  0 4.7 2.9  0.2 4.7 2.9  0.3 4.7 2.9  0.4 4.7 2.9  0.5 4.7 2.9  0.6 4.7 2.8  0.6 4.7 2.9  0.7 4.7 2.9  0.8 4.7 2.9  0.1 4.8 2.9  0 4.8 2.9  0.2 4.8 2.9  0.3 4.8 2.9  0.4 4.8 2.8  0.4 4.8 2.9  0.5 4.8 2.8  0.5 4.8 2.9  0.6 4.8 2.9  0.7 4.8 2.9  0.1 4.9 2.9  0 4.9 2.9  0.2 4.9 2.9  0.3 4.9 2.9  0.4 4.9 2.8  0.4 4.9 2.9  0.5 4.9 2.9  0.6 4.9 2.9  0.1 5 2.9  0 5 2.9  0.2 5 2.9  0.3 5 2.9  0.4 5 2.8  0.4 5 2.9  0.5 5 2.9  0.1 2.5 3  0 2.5 3  0.2 2.5 3  0.3 2.5 3  0.1 2.6 3  0 2.6 3  0.2 2.6 3  0.3 2.6 3  0.4 2.6 3  0.5 2.5 2.9  0.5 2.6 2.9  0.5 2.6 3  0.6 2.6 3  0.1 2.7 3  0 2.7 3  0.2 2.7 3  0.3 2.7 3  0.4 2.7 3  0.5 2.7 3  0.6 2.7 3  0.1 2.8 3  0 2.8 3  0.2 2.8 3  0.3 2.8 3  0.4 2.8 3  0.5 2.8 3  0.6 2.8 3  0.7 2.8 3  0.1 2.9 3  0 2.9 3  0.2 2.9 3  0.3 2.9 3  0.4 2.9 3  0.5 2.9 3  0.6 2.9 3  0.7 2.9 3  0.8 2.8 3  0.8 2.9 3  0.1 3 3  0 3 3  0.2 3 3  0.3 3 3  0.4 3 3  0.5 3 3  0.6 3 3  0.7 3 3  0.8 2.9 2.9  0.8 3 3  0.9 3 3  0.1 3.1 3  0 3.1 3  0.2 3.1 3  0.3 3.1 3  0.4 3.1 3  0.5 3.1 3  0.6 3.1 3  0.7 3.1 3  0.8 3.1 3  0.9 3.1 3  0.1 3.2 3  0 3.2 3  0.2 3.2 3  0.3 3.2 3  0.4 3.2 3  0.5 3.2 3  0.6 3.2 3  0.7 3.2 3  0.8 3.2 3  0.9 3.2 3  0.1 3.3 3  0 3.3 3  0.2 3.3 3  0.3 3.3 3  0.4 3.3 3  0.5 3.3 3  0.6 3.3 3  0.7 3.3 3  0.8 3.3 3  0.9 3.3 3  1 3.3 3  0.1 3.4 3  0 3.4 3  0.2 3.4 3  0.3 3.4 3  0.4 3.4 3  0.5 3.4 3  0.6 3.4 3  0.7 3.4 3  0.8 3.4 3  0.9 3.4 2.9  0.9 3.4 3  1 3.4 3 
[...]
<PointData  Scalars="p"> 
<DataArray  type="Float64"  Name="p"  format="ascii">8.1873059435243167e+00  8.1873108782548289e+00  8.1833215644747828e+00  8.1832534348707053e+00  8.1872424261756578e+00  8.1872375001436417e+00  8.1831731807417594e+00  8.1871617686206211e+00  8.1871568526467460e+00  8.1830799866346737e+00  8.1870680719521989e+00  8.1870631673748271e+00  8.1829728404702262e+00  8.1869602992239816e+00  8.1869554073372743e+00  8.1828504857765409e+00  8.1868371595151199e+00  8.1868322815393029e+00  8.1827113558868074e+00  8.1866970375883081e+00  8.1866921746327623e+00  8.1825534817807082e+00  8.1865378944100531e+00  8.1865330474299061e+00  8.1823743603280494e+00  8.1863571231703869e+00  8.1874938912597095e+00  8.1874889296705824e+00  8.1874839687427308e+00  8.1834939146094321e+00  8.1874889296705593e+00  8.1834790534626585e+00  8.1874740070585901e+00  8.1834839929040601e+00  8.1874690481079515e+00  8.1834590868104922e+00  8.1834541506560754e+00  8.1874489995358122e+00  8.1874440438857956e+00  8.1795089894283315e+00  8.1794843879913959e+00  8.1834239302508109e+00  8.1834189987121881e+00  8.1874136961983925e+00  8.1874087451835251e+00  8.1794496718201195e+00  8.1833782234793482e+00  8.1833732978977025e+00  8.1873677921814583e+00  8.1873628471488598e+00  8.1794045561804776e+00  8.1833166462019253e+00  8.1873059405625579e+00  8.1793486601476459e+00  8.1832485252635170e+00  8.1872374971870592e+00  8.1792814941884409e+00  8.1831682811516107e+00  8.1871568496938085e+00  8.1792024433781432e+00  8.1830750983911678e+00  8.1870631644237086e+00  8.1791107450142508e+00  8.1829679648584346e+00  8.1869554043859551e+00  8.1790054588585015e+00  8.1828456240074434e+00  8.1868322785855216e+00  8.1788854274705134e+00  8.1827065090606599e+00  8.1866921716741530e+00  8.1787492229717973e+00  8.1825486508439766e+00  8.1865330444640367e+00  8.1785950749160659e+00  8.1785998490190437e+00  8.1823695460249315e+00  8.1863522899420804e+00  8.1784255292059687e+00  8.1784207714810133e+00  8.1745043530663111e+00  8.1821707612060752e+00  8.1821659640266287e+00  8.1861513349378772e+00  8.1861465189215963e+00  8.1782282634864156e+00  8.1782235226159390e+00  8.1743169189460172e+00  8.1819384355618521e+00  8.1819336556897539e+00  8.1859160284996282e+00  8.1859112298816950e+00  8.1780044927002766e+00  8.1779997688589976e+00  8.1741062208601214e+00  8.1816668983549832e+00  8.1856402789136311e+00  8.1856450603043331e+00  8.1777449139402112e+00  8.1738691545417694e+00  8.1813577564591196e+00  8.1853249841982834e+00  8.1853297489321228e+00  8.1809948225505593e+00  8.1849525127117353e+00  8.1849572617875772e+00  8.1805609585152013e+00  8.1845027223010742e+00  8.1834988560199804e+00  8.1834790534626691e+00  8.1834839929040832e+00  8.1874740070586078e+00  8.1874690481079586e+00  8.1795089894283493e+00  8.1834641982223157e+00  8.1874541334041151e+00  8.1794943111035927e+00  8.1834393052833061e+00  8.1874291390908276e+00  8.1794697194116619e+00  8.1755442242311158e+00  8.1755201236952626e+00  8.1834041672036957e+00  8.1873938543115070e+00  8.1794350169305527e+00  8.1754861308575268e+00  8.1833584842909630e+00  8.1873479742553918e+00  8.1793899189647821e+00  8.1754419848082005e+00  8.1833018545712193e+00  8.1872910897409117e+00  8.1793340446236424e+00  8.1753873379913671e+00  8.1832337597039349e+00  8.1872226725522683e+00  8.1792669043919428e+00  8.1753217462837178e+00  8.1831535457482154e+00  8.1871420553518028e+00  8.1791878833321743e+00  8.1752446558544598e+00  8.1752589298466756e+00  8.1830603971708609e+00  8.1870484044230061e+00  8.1790962186812699e+00  8.1751696271389225e+00  8.1751553860934241e+00  8.1712371314220302e+00  8.1829533017220033e+00  8.1869406826494675e+00  8.1789909700733325e+00  8.1750673120437902e+00  8.1750531076728006e+00  8.1711387983658774e+00  8.1828310026405280e+00  8.1868175988210456e+00  8.1788709798525510e+00  8.1749368145557764e+00  8.1710273857068039e+00  8.1826919328230563e+00  8.1866775372630247e+00  8.1787348198161887e+00  8.1748052885218385e+00  8.1825341226385735e+00  8.1865184583292994e+00  8.1785807190651543e+00  8.1746570546648787e+00  8.1823550681496986e+00  8.1863377543994567e+00  8.1784064651792097e+00  8.1744903266611377e+00  8.1821515380154519e+00  8.1861320355191456e+00  8.1782092673540419e+00  8.1743029422425622e+00  8.1704428112760041e+00  8.1704292122986892e+00  8.1819192821508224e+00  8.1858967992368967e+00  8.1779855652164137e+00  8.1740922943918992e+00  8.1702482389503039e+00  8.1702346883467705e+00  8.1665841437013373e+00  8.1664073598635838e+00  8.1816525768181272e+00  8.1856259005595273e+00  8.1777307614361305e+00  8.1738552778116009e+00  8.1700325429143650e+00  8.1700190401671318e+00  8.1662144932962288e+00  8.1813434852458489e+00  8.1853106564522466e+00  8.1774529576679083e+00  8.1774388546350014e+00  8.1735883075684725e+00  8.1697809129329233e+00  8.1660058684642465e+00  8.1809805986815505e+00  8.1849382325820486e+00  8.1771160288329110e+00  8.1771019723278098e+00  8.1732875653781107e+00  8.1805467776700720e+00  8.1844884854460123e+00  8.1767239523502226e+00  8.1767099381152235e+00  8.1733013488135082e+00  8.1729636304585416e+00  8.1729498880726901e+00  8.1695198109209901e+00  8.1692373715895439e+00  8.1800148789963441e+00  8.1839270573136353e+00  8.1762506148363148e+00  8.1725753734817435e+00  8.1689398805826396e+00  8.1832020011650588e+00  8.1831878326281178e+00  8.1793394046204533e+00  8.1784435189324256e+00  8.1821122326411171e+00  8.1821263784200369e+00  8.1773657025654458e+00  8.1796576330149069e+00  8.1796717648269830e+00  8.1768146900913532e+00  8.1778759852460770e+00  8.1778901125138432e+00  8.1874541393678442e+00  8.1834642047976462e+00  8.1834790567567168e+00  8.1834541539411294e+00  8.1874690511008410e+00  8.1874440468698477e+00  8.1795089927593807e+00  8.1794843913128794e+00  8.1834590868105028e+00  8.1874489995358299e+00  8.1795138705350805e+00  8.1794892658515970e+00  8.1755392866114409e+00  8.1834541506560932e+00  8.1874440438858027e+00  8.1794843879914065e+00  8.1755345038782146e+00  8.1834393052833025e+00  8.1874291390908294e+00  8.1794697194116690e+00  8.1755201236952768e+00  8.1834144288373150e+00  8.1874041613401864e+00  8.1794451440061735e+00  8.1754960391083973e+00  8.1715900995903894e+00  8.1715666799865208e+00  8.1715900995903770e+00  8.1833793139439415e+00  8.1873688998461009e+00  8.1794104644176819e+00  8.1754620686837089e+00  8.1715570671156872e+00  8.1715336692734386e+00  8.1676564805096916e+00  8.1676246497567995e+00  8.1833336609905967e+00  8.1873230498791063e+00  8.1793653960265704e+00  8.1754179515809007e+00  8.1715142072705582e+00  8.1714908375219828e+00  8.1675833951515742e+00  8.1832770680800540e+00  8.1872662023359304e+00  8.1793095580140065e+00  8.1753633403082091e+00  8.1714612156337942e+00  8.1714378803649730e+00  8.1675324622747443e+00  8.1832090169251046e+00  8.1871978290558527e+00  8.1792424609128496e+00  8.1752977907819933e+00  8.1713977064703833e+00  8.1713744120961156e+00  8.1674715325141420e+00  8.1831288535897819e+00  8.1871172627078845e+00  8.1791634897852425e+00  8.1752207491628095e+00  8.1713232039650023e+00  8.1712999568806346e+00  8.1674002188198251e+00  8.1830357624676555e+00  8.1870236695038887e+00  8.1790718817902537e+00  8.1751315347552929e+00  8.1712139379283215e+00  8.1673180612504552e+00  8.1673404447496463e+00  8.1829287311237060e+00  8.1869160121433495e+00  8.1789666963734646e+00  8.1750293180379412e+00  8.1711156645634464e+00  8.1672468492565038e+00  8.1672245229778753e+00  8.1633544727769500e+00  8.1828065024626380e+00  8.1867929990823374e+00  8.1788467755437200e+00  8.1749130926369169e+00  8.1710043173576512e+00  8.1671412515887045e+00  8.1671189879884576e+00  8.1632554186308077e+00  8.1632767497109970e+00  8.1826675088597920e+00  8.1866530141241629e+00  8.1787106905789404e+00  8.1747816398158193e+00  8.1709019296716878e+00  8.1708789320271507e+00  8.1670229587107173e+00  8.1670007627433918e+00  8.1631663570063715e+00  8.1631450900241109e+00  8.1593097688925109e+00  8.1825097799390445e+00  8.1864940168754980e+00  8.1785566698409600e+00  8.1746334839396795e+00  8.1707613063522597e+00  8.1707383839491889e+00  8.1668912099664048e+00  8.1668690858905517e+00  8.1630442650177564e+00  8.1630230660783472e+00  8.1591977441723991e+00  8.1823308107624051e+00  8.1863133987114285e+00  8.1783824999202697e+00  8.1744668377140908e+00  8.1706042211373262e+00  8.1705813775675100e+00  8.1667452022331481e+00  8.1667231533943507e+00  8.1628889845915023e+00  8.1590757267768481e+00  8.1821273687107769e+00  8.1861077683934873e+00  8.1781853887518867e+00  8.1742795376387942e+00  8.1704064499605469e+00  8.1665621722998800e+00  8.1627426236573335e+00  8.1818952021360207e+00  8.1858726218988505e+00  8.1779617744237090e+00  8.1740689751972315e+00  8.1702120081927276e+00  8.1663854667191433e+00  8.1625840366720315e+00  8.1816285854647397e+00  8.1856018123880041e+00  8.1777070578011823e+00  8.1738320433382956e+00  8.1699964414644413e+00  8.1661926776266096e+00  8.1624137710919982e+00  8.1813195798534615e+00  8.1852866547413292e+00  8.1774152354722531e+00  8.1735651551565596e+00  8.1697583930591087e+00  8.1659841276975911e+00  8.1622332131030007e+00  8.1809567743049421e+00  8.1849143123662245e+00  8.1770784327506529e+00  8.1732644902372691e+00  8.1694973652176124e+00  8.1657831357595505e+00  8.1657614654019977e+00  8.1620451065242783e+00  8.1805230270363900e+00  8.1844646394161842e+00  8.1766864709570832e+00  8.1729268832093833e+00  8.1692149932971851e+00  8.1655287441662203e+00  8.1618542726628718e+00  8.1799911925359048e+00  8.1839032758474612e+00  8.1762272106827076e+00  8.1725524297332175e+00  8.1689175608771620e+00  8.1652940583168174e+00  8.1793157706270030e+00  8.1831641039508991e+00  8.1757144377334061e+00  8.1756910850802491e+00  8.1721513375180912e+00  8.1686203576523084e+00  8.1650715295666476e+00  8.1784199238569517e+00  8.1820885431204839e+00  8.1751182646751044e+00  8.1750949502173107e+00  8.1717586518408325e+00  8.1773421314198167e+00  8.1796339675576739e+00  8.1745775991438556e+00  8.1745543081699115e+00  8.1714512911464201e+00  8.1767911267496327e+00  8.1778523277217694e+00  8.1743466360176598e+00  8.1743233526889600e+00  8.1713320442060891e+00  8.1834239302508198e+00  8.1834190019886996e+00  8.1874087481593012e+00  8.1874136961984103e+00  8.1794545451220522e+00  8.1794496751325010e+00  8.1755052759036566e+00  8.1834189987122041e+00  8.1874087451835376e+00  8.1794496718201408e+00  8.1755004976347436e+00  8.1715756926285152e+00  8.1715710432567725e+00  8.1834041672037010e+00  8.1873938543114981e+00  8.1794350169305687e+00  8.1754861308575428e+00  8.1716040887507173e+00  8.1715570671156978e+00  8.1676472296140883e+00  8.1833793139439432e+00  8.1873688998461045e+00  8.1794104644176873e+00  8.1754620686837161e+00  8.1715336692734351e+00  8.1676790813238433e+00  8.1676246497567977e+00  8.1637558883491934e+00  8.1637342563239628e+00  8.1637647221822949e+00  8.1833442316715477e+00  8.1873336711139189e+00  8.1793758170323496e+00  8.1754281297798830e+00  8.1715006891547617e+00  8.1675928484545057e+00  8.1637342563239734e+00  8.1637038185868178e+00  8.1598616226407508e+00  8.1598326950556004e+00  8.1832986209110441e+00  8.1872878635247854e+00  8.1793307902856611e+00  8.1753840534263578e+00  8.1714578969377758e+00  8.1675516318849635e+00  8.1636948216821725e+00  8.1636644202402575e+00  8.1597953049524587e+00  8.1832420799051917e+00  8.1872310681180025e+00  8.1792750034911617e+00  8.1753294922514979e+00  8.1714049883594040e+00  8.1675007457140705e+00  8.1636462174567797e+00  8.1636158605484805e+00  8.1598241981778070e+00  8.1597781569595433e+00  8.1597493058551205e+00  8.1559432413907178e+00  8.1558999669092547e+00  8.1559272049155851e+00  8.1831740904811756e+00  8.1871627568501122e+00  8.1792079672876490e+00  8.1752640022641572e+00  8.1713415777881391e+00  8.1674398713837029e+00  8.1635881963909540e+00  8.1635578922860237e+00  8.1597233231863147e+00  8.1596945219719572e+00  8.1558757464845328e+00  8.1558485552443916e+00  8.1520187390688985e+00  8.1830939987561724e+00  8.1870822624462285e+00  8.1791290667817496e+00  8.1751870296556035e+00  8.1712671894020268e+00  8.1673686218358714e+00  8.1635204647537112e+00  8.1634902216913794e+00  8.1596594953124661e+00  8.1596307517040376e+00  8.1557888912203644e+00  8.1519632808971085e+00  8.1830009890728412e+00  8.1869887510699471e+00  8.1790375390735690e+00  8.1750978936587781e+00  8.1711812463228242e+00  8.1672865370224468e+00  8.1634426836442522e+00  8.1634125097371815e+00  8.1595864520049215e+00  8.1595577735721623e+00  8.1557208614999972e+00  8.1828940487914021e+00  8.1868811852181942e+00  8.1789324433975139e+00  8.1749957645310918e+00  8.1710830576411997e+00  8.1671930798678041e+00  8.1633243758763445e+00  8.1595039619090528e+00  8.1594753559474853e+00  8.1557479378877744e+00  8.1556713770239391e+00  8.1556443682734709e+00  8.1518551029227595e+00  8.1518297602303118e+00  8.1827719204029954e+00  8.1867582729346147e+00  8.1788126213454131e+00  8.1748796354765254e+00  8.1709718035006773e+00  8.1670876339244973e+00  8.1632254061497136e+00  8.1594117993167590e+00  8.1593832726816764e+00  8.1555862841899103e+00  8.1555593493500957e+00  8.1517770617308614e+00  8.1517517873494523e+00  8.1480535688937810e+00  8.1479824053661165e+00  8.1479588253233928e+00  8.1480299261947131e+00  8.1441788228928989e+00  8.1826330356024464e+00  8.1866183973415882e+00  8.1786766435156277e+00  8.1747482870811972e+00  8.1708465189437920e+00  8.1669695049863229e+00  8.1631151687176597e+00  8.1592813277945382e+00  8.1554926626949769e+00  8.1554658074117903e+00  8.1516917249395942e+00  8.1516665239476005e+00  8.1479050520062817e+00  8.1478815391424266e+00  8.1441090892654078e+00  8.1824754230086736e+00  8.1864595170384185e+00  8.1785227372720524e+00  8.1746002427241411e+00  8.1707060783788670e+00  8.1668379307546850e+00  8.1629932417831235e+00  8.1591693939369776e+00  8.1553906231518969e+00  8.1553638522245979e+00  8.1515993812898557e+00  8.1515742579618991e+00  8.1477984796340266e+00  8.1440346309938771e+00  8.1822965763029085e+00  8.1862790220142720e+00  8.1783486878392271e+00  8.1744337137694529e+00  8.1705491849420362e+00  8.1666921059291777e+00  8.1628592619302349e+00  8.1590474715737376e+00  8.1552804437196880e+00  8.1552537608562030e+00  8.1515005024449341e+00  8.1514754600333976e+00  8.1477102397860985e+00  8.1820932610705768e+00  8.1860735192269711e+00  8.1781517013808891e+00  8.1742465349852171e+00  8.1703743740340720e+00  8.1665312359441558e+00  8.1627130057201853e+00  8.1589439362783018e+00  8.1589157788320446e+00  8.1551626546653857e+00  8.1551360622225832e+00  8.1513708554326740e+00  8.1476176503860707e+00  8.1818612234354067e+00  8.1858385024136808e+00  8.1779282137915921e+00  8.1740360957182130e+00  8.1701800506593045e+00  8.1663546429455316e+00  8.1625545246913305e+00  8.1588029442706773e+00  8.1587748855673166e+00  8.1550381542966601e+00  8.1550116530198284e+00  8.1512615152416110e+00  8.1815947351739524e+00  8.1855678220691050e+00  8.1776736233328631e+00  8.1737992863881370e+00  8.1699646015893634e+00  8.1661619656012245e+00  8.1623843641332723e+00  8.1586538693728112e+00  8.1586259083838346e+00  8.1549083621878555e+00  8.1548819509678747e+00  8.1511489660805623e+00  8.1812858544184852e+00  8.1852527900300238e+00  8.1773819236254948e+00  8.1735325172147437e+00  8.1697266673563345e+00  8.1659535239847401e+00  8.1622039077994728e+00  8.1584986495823575e+00  8.1584707830304417e+00  8.1547754099957963e+00  8.1547490856660811e+00  8.1510353111954910e+00  8.1809231668627369e+00  8.1848805663722413e+00  8.1770452367409501e+00  8.1732319646485792e+00  8.1694657472097969e+00  8.1657309637474054e+00  8.1620158968854906e+00  8.1583403972759214e+00  8.1583126194696423e+00  8.1546161128230761e+00  8.1509233438684099e+00  8.1804895272630329e+00  8.1844310017635120e+00  8.1766533806126063e+00  8.1728944600497169e+00  8.1691834733953783e+00  8.1654983353928241e+00  8.1618251499876173e+00  8.1581838063275356e+00  8.1581561090914256e+00  8.1544872087049107e+00  8.1799577866662876e+00  8.1838697326932586e+00  8.1761942124668714e+00  8.1725200958363917e+00  8.1688861264129677e+00  8.1652637303626339e+00  8.1616684581859662e+00  8.1616394111057122e+00  8.1580355016945028e+00  8.1580078744174305e+00  8.1543677562683694e+00  8.1792824416741681e+00  8.1831306382055118e+00  8.1756581623088209e+00  8.1721190766890253e+00  8.1685889930854128e+00  8.1650412676850692e+00  8.1614989869924841e+00  8.1614700016629360e+00  8.1578765246051592e+00  8.1542641851388655e+00  8.1783866520409383e+00  8.1820551348777943e+00  8.1750620834792169e+00  8.1717264452632552e+00  8.1683530829785145e+00  8.1683217702867505e+00  8.1648824694758844e+00  8.1648522566044566e+00  8.1613315512484412e+00  8.1577720638759370e+00  8.1773088947768287e+00  8.1796005946983801e+00  8.1745214759224680e+00  8.1714191179558266e+00  8.1681607186209586e+00  8.1681294378449270e+00  8.1647229563055035e+00  8.1612398612552806e+00  8.1767579016795260e+00  8.1778189665944350e+00  8.1742905317695769e+00  8.1712998819719846e+00  8.1680898835177462e+00  8.1680586132150204e+00  8.1646767503380939e+00  8.1833782234793713e+00  8.1873677921814743e+00  8.1794094236007417e+00  8.1754611067939518e+00  8.1833732978977096e+00  8.1873628471488669e+00  8.1794045561805060e+00  8.1754563342837283e+00  8.1715281666154116e+00  8.1676652147477320e+00  8.1676607243107586e+00  8.1676194264927275e+00  8.1637293486386611e+00  8.1833584842909719e+00  8.1873479742553990e+00  8.1793899189647927e+00  8.1754419848082094e+00  8.1715142072705689e+00  8.1676059479680276e+00  8.1637164278900514e+00  8.1833336609905896e+00  8.1873230498791010e+00  8.1793653960265829e+00  8.1754179515809220e+00  8.1714908375219864e+00  8.1675833951515688e+00  8.1636948216821548e+00  8.1598241981778017e+00  8.1832986209110370e+00  8.1872878635247908e+00  8.1793307902856522e+00  8.1753840534263489e+00  8.1714578969377794e+00  8.1675516318849510e+00  8.1636644202402486e+00  8.1597953049524587e+00  8.1559705189266314e+00  8.1559432413907071e+00  8.1832530647968387e+00  8.1872421108254709e+00  8.1792858174638532e+00  8.1753400298206209e+00  8.1714151558721504e+00  8.1675104644987062e+00  8.1636250687937864e+00  8.1597579592132323e+00  8.1559784864541722e+00  8.1559080379667943e+00  8.1520741524272857e+00  8.1831965911275280e+00  8.1871853830610526e+00  8.1792300971000618e+00  8.1752855335993182e+00  8.1713623102453941e+00  8.1674596388138578e+00  8.1635765667310043e+00  8.1597120145756161e+00  8.1558648145458079e+00  8.1520337473192583e+00  8.1831286819471067e+00  8.1871171524093036e+00  8.1791631400371081e+00  8.1752201209548208e+00  8.1712989745826796e+00  8.1673988363974050e+00  8.1635186669171205e+00  8.1596572953030719e+00  8.1558134633824437e+00  8.1519858670442300e+00  8.1830486835230687e+00  8.1870367517502309e+00  8.1790843315183537e+00  8.1751432381935967e+00  8.1712246731492648e+00  8.1673276702458395e+00  8.1634510756097374e+00  8.1595935997797948e+00  8.1557538692492617e+00  8.1519304737183944e+00  8.1481220066150861e+00  8.1829557802246562e+00  8.1869433472785307e+00  8.1789929086573476e+00  8.1750542045412669e+00  8.1711388290326941e+00  8.1672456802459212e+00  8.1633734536834623e+00  8.1595207063957726e+00  8.1556859186475599e+00  8.1519002824843199e+00  8.1518675485876546e+00  8.1480640772909663e+00  8.1828489592477371e+00  8.1868359013305732e+00  8.1788879305127313e+00  8.1749521900616351e+00  8.1710407511074585e+00  8.1671523290803858e+00  8.1632854203233940e+00  8.1594383832294834e+00  8.1556095134530029e+00  8.1517971077198190e+00  8.1480945645098810e+00  8.1479995136491716e+00  8.1442433417655966e+00  8.1442151653818851e+00  8.1827269626516692e+00  8.1867131215208602e+00  8.1787682382367244e+00  8.1748361875071538e+00  8.1709296190509519e+00  8.1670469998202986e+00  8.1631865610746583e+00  8.1593464036254879e+00  8.1555245909606686e+00  8.1517192238131866e+00  8.1479284942423895e+00  8.1441507205631058e+00  8.1404685857712398e+00  8