<?xml version="1.0"?>
<VTKFile type="UnstructuredGrid"  version="0.1"  >
<UnstructuredGrid>
<Piece  NumberOfPoints="14456" NumberOfCells="75367">
<Points>
<DataArray  type="Float64"  NumberOfComponents="3"  format="ascii">0 0 2.4  0 0 2.5  0.1 0 2.5  0.1 0.1 2.5  0 0.1 2.5  0.1 0.1 2.6  0.1 0 2.6  0 0 2.6  0 0.1 2.6  0.2 0 2.5  0.2 0.1 2.5  0.2 0.1 2.6  0.2 0 2.6  0.3 0 2.5  0.3 0.1 2.5  0.3 0.1 2.6  0.3 0 2.6  0.4 0 2.5  0.4 0 2.6  0.4 0.1 2.6  0.5 0 2.5  0.5 0 2.6  0.5 0.1 2.6  0.6 0 2.5  0.6 0 2.6  0.6 0.1 2.6  0.7 0 2.5  0.7 0 2.6  0.7 0.1 2.6  0.8 0 2.5  0.8 0 2.6  0.8 0.1 2.6  0.9 0 2.5  0.9 0 2.6  0.9 0.1 2.6  1 0 2.5  1 0 2.6  1 0.1 2.6  1.1 0 2.5  1.1 0 2.6  1.1 0.1 2.6  1.2 0 2.5  1.2 0 2.6  1.2 0.1 2.6  1.3 0 2.6  1.3 0.1 2.6  0.1 0.2 2.5  0.1 0.2 2.6  0 0.2 2.5  0 0.2 2.6  0.2 0.2 2.6  0.3 0.2 2.6  0.4 0.2 2.6  0.1 0.3 2.6  0 0.3 2.6  0.2 0.3 2.6  0.1 0.1 2.7  0.1 0 2.7  0 0 2.7  0 0.1 2.7  0.2 0.1 2.7  0.2 0 2.7  0.3 0.1 2.7  0.3 0 2.7  0.4 0.1 2.7  0.4 0 2.7  0.5 0.1 2.7  0.5 0 2.7  0.6 0.1 2.7  0.6 0 2.7  0.7 0.1 2.7  0.7 0 2.7  0.8 0.1 2.7  0.8 0 2.7  0.9 0.1 2.7  0.9 0 2.7  1 0.1 2.7  1 0 2.7  1.1 0.1 2.7  1.1 0 2.7  1.2 0.1 2.7  1.2 0 2.7  1.3 0.1 2.7  1.3 0 2.7  1.4 0 2.6  1.4 0.1 2.6  1.4 0.1 2.7  1.4 0 2.7  1.5 0 2.6  1.5 0.1 2.6  1.5 0.1 2.7  1.5 0 2.7  1.6 0.1 2.7  0.1 0.2 2.7  0 0.2 2.7  0.2 0.2 2.7  0.3 0.2 2.7  0.4 0.2 2.7  0.5 0.2 2.7  0.6 0.2 2.7  0.7 0.2 2.7  0.8 0.2 2.6  0.8 0.2 2.7  0.7 0.2 2.6  0.9 0.2 2.6  0.9 0.2 2.7  1 0.2 2.6  1 0.2 2.7  1.1 0.2 2.6  1.1 0.2 2.7  1.2 0.2 2.6  1.2 0.2 2.7  1.3 0.2 2.6  1.3 0.2 2.7  1.4 0.2 2.7  1.5 0.2 2.7  1.6 0.2 2.7  0.1 0.3 2.7  0 0.3 2.7  0.2 0.3 2.7  0.3 0.3 2.6  0.3 0.3 2.7  0.4 0.3 2.7  0.5 0.3 2.7  0.8 0.3 2.7  0.7 0.3 2.7  0.9 0.3 2.7  1 0.3 2.7  1.1 0.3 2.7  1.2 0.3 2.7  1.3 0.3 2.7  1.4 0.3 2.7  0.1 0.4 2.6  0.1 0.4 2.7  0 0.4 2.6  0 0.4 2.7  0.2 0.4 2.7  0.3 0.4 2.7  0.4 0.4 2.7  0.1 0.5 2.7  0 0.5 2.7  0.2 0.5 2.7  0.1 0.1 2.8  0.1 0 2.8  0 0 2.8  0 0.1 2.8  0.2 0.1 2.8  0.2 0 2.8  0.3 0.1 2.8  0.3 0 2.8  0.4 0.1 2.8  0.4 0 2.8  0.5 0.1 2.8  0.5 0 2.8  0.6 0.1 2.8  0.6 0 2.8  0.7 0.1 2.8  0.7 0 2.8  0.8 0.1 2.8  0.8 0 2.8  0.9 0.1 2.8  0.9 0 2.8  1 0.1 2.8  1 0 2.8  1.1 0.1 2.8  1.1 0 2.8  1.2 0.1 2.8  1.2 0 2.8  1.3 0.1 2.8  1.3 0 2.8  1.4 0.1 2.8  1.4 0 2.8  1.5 0.1 2.8  1.5 0 2.8  1.6 0.1 2.8  0.1 0.2 2.8  0 0.2 2.8  0.2 0.2 2.8  0.3 0.2 2.8  0.4 0.2 2.8  0.5 0.2 2.8  0.6 0.2 2.8  0.7 0.2 2.8  0.8 0.2 2.8  0.9 0.2 2.8  1 0.2 2.8  1.1 0.2 2.8  1.2 0.2 2.8  1.3 0.2 2.8  1.4 0.2 2.8  1.5 0.2 2.8  1.6 0.2 2.8  0.1 0.3 2.8  0 0.3 2.8  0.2 0.3 2.8  0.3 0.3 2.8  0.4 0.3 2.8  0.5 0.3 2.8  0.6 0.3 2.7  0.6 0.3 2.8  0.7 0.3 2.8  0.8 0.3 2.8  0.9 0.3 2.8  1 0.3 2.8  1.1 0.3 2.8  1.2 0.3 2.8  1.3 0.3 2.8  1.4 0.3 2.8  1.5 0.3 2.7  1.5 0.3 2.8  1.6 0.3 2.7  1.6 0.3 2.8  1.7 0.3 2.8  0.1 0.4 2.8  0 0.4 2.8  0.2 0.4 2.8  0.3 0.4 2.8  0.4 0.4 2.8  0.5 0.4 2.8  0.6 0.4 2.8  0.7 0.4 2.8  0.8 0.4 2.8  0.9 0.4 2.8  1 0.4 2.8  1.1 0.4 2.8  1.2 0.4 2.8  1.3 0.4 2.8  1.4 0.4 2.8  1.5 0.4 2.8  1.6 0.4 2.8  1.7 0.4 2.8  0.1 0.5 2.8  0 0.5 2.8  0.2 0.5 2.8  0.3 0.5 2.8  0.4 0.5 2.8  0.5 0.5 2.8  0.1 0.6 2.7  0.1 0.6 2.8  0 0.6 2.7  0 0.6 2.8  0.2 0.6 2.8  0.3 0.6 2.8  0.1 0.7 2.8  0 0.7 2.8  0 0.7 2.7  0.2 0.7 2.8  0.1 0.8 2.8  0 0.8 2.8  0.1 0.1 2.9  0.1 0 2.9  0 0 2.9  0 0.1 2.9  0.2 0.1 2.9  0.2 0 2.9  0.3 0.1 2.9  0.3 0 2.9  0.4 0.1 2.9  0.4 0 2.9  0.5 0.1 2.9  0.5 0 2.9  0.6 0.1 2.9  0.6 0 2.9  0.7 0.1 2.9  0.7 0 2.9  0.8 0.1 2.9  0.8 0 2.9  0.9 0.1 2.9  0.9 0 2.9  1 0.1 2.9  1 0 2.9  1.1 0.1 2.9  1.1 0 2.9  1.2 0.1 2.9  1.2 0 2.9  1.3 0.1 2.9  1.3 0 2.9  1.4 0.1 2.9  1.4 0 2.9  1.5 0.1 2.9  1.5 0 2.9  1.6 0 2.9  1.6 0.1 2.9  0.1 0.2 2.9  0 0.2 2.9  0.2 0.2 2.9  0.3 0.2 2.9  0.4 0.2 2.9  0.5 0.2 2.9  0.6 0.2 2.9  0.7 0.2 2.9  0.8 0.2 2.9  0.9 0.2 2.9  1 0.2 2.9  1.1 0.2 2.9  1.2 0.2 2.9  1.3 0.2 2.9  1.4 0.2 2.9  1.5 0.2 2.9  1.6 0.2 2.9  1.7 0.2 2.9  0.1 0.3 2.9  0 0.3 2.9  0.2 0.3 2.9  0.3 0.3 2.9  0.4 0.3 2.9  0.5 0.3 2.9  0.6 0.3 2.9  0.7 0.3 2.9  0.8 0.3 2.9  0.9 0.3 2.9  1 0.3 2.9  1.1 0.3 2.9  1.2 0.3 2.9  1.3 0.3 2.9  1.4 0.3 2.9  1.5 0.3 2.9  1.6 0.3 2.9  1.7 0.3 2.9  0.1 0.4 2.9  0 0.4 2.9  0.2 0.4 2.9  0.3 0.4 2.9  0.4 0.4 2.9  0.5 0.4 2.9  0.6 0.4 2.9  0.7 0.4 2.9  0.8 0.4 2.9  0.9 0.4 2.9  1 0.4 2.9  1.1 0.4 2.9  1.2 0.4 2.9  1.3 0.4 2.9  1.4 0.4 2.9  1.5 0.4 2.9  1.6 0.4 2.9  1.7 0.4 2.9  1.8 0.4 2.9  0.1 0.5 2.9  0 0.5 2.9  0.2 0.5 2.9  0.3 0.5 2.9  0.4 0.5 2.9  0.5 0.5 2.9  0.6 0.5 2.9  0.7 0.5 2.9  0.8 0.5 2.9  0.9 0.5 2.8  0.9 0.5 2.9  0.8 0.5 2.8  1 0.5 2.8  1 0.5 2.9  1.1 0.5 2.8  1.1 0.5 2.9  1.2 0.5 2.8  1.2 0.5 2.9  1.3 0.5 2.9  1.4 0.5 2.9  1.5 0.5 2.9  1.6 0.5 2.9  1.7 0.5 2.9  1.8 0.5 2.9  0.1 0.6 2.9  0 0.6 2.9  0.2 0.6 2.9  0.3 0.6 2.9  0.4 0.6 2.9  0.5 0.6 2.9  0.9 0.6 2.9  0.8 0.6 2.9  1 0.6 2.9  1.1 0.6 2.9  1.2 0.6 2.9  1.3 0.6 2.9  0.1 0.7 2.9  0 0.7 2.9  0.2 0.7 2.9  0.3 0.7 2.8  0.3 0.7 2.9  0.4 0.7 2.9  0.1 0.8 2.9  0 0.8 2.9  0.2 0.8 2.8  0.2 0.8 2.9  0.3 0.8 2.9  0.4 0.8 2.9  0.1 0.9 2.9  0 0.9 2.9  0.2 0.9 2.9  0.3 0.9 2.9  0.1 0.1 3  0.1 0 3  0 0 3  0 0.1 3  0.2 0.1 3  0.2 0 3  0.3 0.1 3  0.3 0 3  0.4 0.1 3  0.4 0 3  0.5 0.1 3  0.5 0 3  0.6 0.1 3  0.6 0 3  0.7 0.1 3  0.7 0 3  0.8 0.1 3  0.8 0 3  0.9 0.1 3  0.9 0 3  1 0.1 3  1 0 3  1.1 0.1 3  1.1 0 3  1.2 0.1 3  1.2 0 3  1.3 0.1 3  1.3 0 3  1.4 0.1 3  1.4 0 3  1.5 0.1 3  1.5 0 3  1.6 0.1 3  1.6 0 3  1.7 0 3  1.7 0.1 3  0.1 0.2 3  0 0.2 3  0.2 0.2 3  0.3 0.2 3  0.4 0.2 3  0.5 0.2 3  0.6 0.2 3  0.7 0.2 3  0.8 0.2 3  0.9 0.2 3  1 0.2 3  1.1 0.2 3  1.2 0.2 3  1.3 0.2 3  1.4 0.2 3  1.5 0.2 3  1.6 0.2 3  1.7 0.2 3  0.1 0.3 3  0 0.3 3  0.2 0.3 3  0.3 0.3 3  0.4 0.3 3  0.5 0.3 3  0.6 0.3 3  0.7 0.3 3  0.8 0.3 3  0.9 0.3 3  1 0.3 3  1.1 0.3 3  1.2 0.3 3  1.3 0.3 3  1.4 0.3 3  1.5 0.3 3  1.6 0.3 3  1.7 0.3 3  1.8 0.3 3  0.1 0.4 3  0 0.4 3  0.2 0.4 3  0.3 0.4 3  0.4 0.4 3  0.5 0.4 3  0.6 0.4 3  0.7 0.4 3  0.8 0.4 3  0.9 0.4 3  1 0.4 3  1.1 0.4 3  1.2 0.4 3  1.3 0.4 3  1.4 0.4 3  1.5 0.4 3  1.6 0.4 3  1.7 0.4 3  1.8 0.4 3  0.1 0.5 3  0 0.5 3  0.2 0.5 3  0.3 0.5 3  0.4 0.5 3  0.5 0.5 3  0.6 0.5 3  0.7 0.5 3  0.8 0.5 3  0.9 0.5 3  1 0.5 3  1.1 0.5 3  1.2 0.5 3  1.3 0.5 3  1.4 0.5 3  1.5 0.5 3  1.6 0.5 3  1.7 0.5 3  1.8 0.5 3  0.1 0.6 3  0 0.6 3  0.2 0.6 3  0.3 0.6 3  0.4 0.6 3  0.5 0.6 3  0.6 0.6 3  0.7 0.6 3  0.8 0.6 3  0.9 0.6 3  1 0.6 3  1.1 0.6 3  1.2 0.6 3  1.3 0.6 3  1.4 0.6 2.9  1.4 0.6 3  1.5 0.6 2.9  1.5 0.6 3  1.6 0.6 2.9  1.6 0.6 3  1.7 0.6 2.9  1.7 0.6 3  1.8 0.6 2.9  1.8 0.6 3  1.9 0.6 3  0.1 0.7 3  0 0.7 3  0.2 0.7 3  0.3 0.7 3  0.4 0.7 3  0.5 0.7 3  0.6 0.7 3  0.9 0.7 3  1 0.7 3  1.1 0.7 3  1.2 0.7 3  1.3 0.7 3  1.4 0.7 3  1.5 0.7 3  1.6 0.7 3  1.7 0.7 3  1.8 0.7 2.9  1.8 0.7 3  1.9 0.7 3  0.1 0.8 3  0 0.8 3  0.2 0.8 3  0.3 0.8 3  0.4 0.8 3  0.5 0.8 3  1.9 0.8 3  1.8 0.8 3  0.1 0.9 3  0 0.9 3  0.2 0.9 3  0.3 0.9 3  0.4 0.9 2.9  0.4 0.9 3  0.5 0.9 3  0.1 1 3  0 1 3  0 1 2.9  0.2 1 3  0.3 1 3  0.4 1 3  0.5 1 3  0.1 1.1 3  0 1.1 3  0.1 0.1 3.1  0.1 0 3.1  0 0 3.1  0 0.1 3.1  0.2 0.1 3.1  0.2 0 3.1  0.3 0.1 3.1  0.3 0 3.1  0.4 0.1 3.1  0.4 0 3.1  0.5 0.1 3.1  0.5 0 3.1  0.6 0.1 3.1  0.6 0 3.1  0.7 0.1 3.1  0.7 0 3.1  0.8 0.1 3.1  0.8 0 3.1  0.9 0.1 3.1  0.9 0 3.1  1 0.1 3.1  1 0 3.1  1.1 0.1 3.1  1.1 0 3.1  1.2 0.1 3.1  1.2 0 3.1  1.3 0.1 3.1  1.3 0 3.1  1.4 0.1 3.1  1.4 0 3.1  1.5 0.1 3.1  1.5 0 3.1  1.6 0.1 3.1  1.6 0 3.1  1.7 0.1 3.1  1.7 0 3.1  0.1 0.2 3.1  0 0.2 3.1  0.2 0.2 3.1  0.3 0.2 3.1  0.4 0.2 3.1  0.5 0.2 3.1  0.6 0.2 3.1  0.7 0.2 3.1  0.8 0.2 3.1  0.9 0.2 3.1  1 0.2 3.1  1.1 0.2 3.1  1.2 0.2 3.1  1.3 0.2 3.1  1.4 0.2 3.1  1.5 0.2 3.1  1.6 0.2 3.1  1.7 0.2 3.1  1.8 0.2 3.1  0.1 0.3 3.1  0 0.3 3.1  0.2 0.3 3.1  0.3 0.3 3.1  0.4 0.3 3.1  0.5 0.3 3.1  0.6 0.3 3.1  0.7 0.3 3.1  0.8 0.3 3.1  0.9 0.3 3.1  1 0.3 3.1  1.1 0.3 3.1  1.2 0.3 3.1  1.3 0.3 3.1  1.4 0.3 3.1  1.5 0.3 3.1  1.6 0.3 3.1  1.7 0.3 3.1  1.8 0.3 3.1  0.1 0.4 3.1  0 0.4 3.1  0.2 0.4 3.1  0.3 0.4 3.1  0.4 0.4 3.1  0.5 0.4 3.1  0.6 0.4 3.1  0.7 0.4 3.1  0.8 0.4 3.1  0.9 0.4 3.1  1 0.4 3.1  1.1 0.4 3.1  1.2 0.4 3.1  1.3 0.4 3.1  1.4 0.4 3.1  1.5 0.4 3.1  1.6 0.4 3.1  1.7 0.4 3.1  1.8 0.4 3.1  0.1 0.5 3.1  0 0.5 3.1  0.2 0.5 3.1  0.3 0.5 3.1  0.4 0.5 3.1  0.5 0.5 3.1  0.6 0.5 3.1  0.7 0.5 3.1  0.8 0.5 3.1  0.9 0.5 3.1  1 0.5 3.1  1.1 0.5 3.1  1.2 0.5 3.1  1.3 0.5 3.1  1.4 0.5 3.1  1.5 0.5 3.1  1.6 0.5 3.1  1.7 0.5 3.1  1.8 0.5 3.1  1.9 0.5 3.1  0.1 0.6 3.1  0 0.6 3.1  0.2 0.6 3.1  0.3 0.6 3.1  0.4 0.6 3.1  0.5 0.6 3.1  0.6 0.6 3.1  0.7 0.6 3.1  0.8 0.6 3.1  0.9 0.6 3.1  1 0.6 3.1  1.1 0.6 3.1  1.2 0.6 3.1  1.3 0.6 3.1  1.4 0.6 3.1  1.5 0.6 3.1  1.6 0.6 3.1  1.7 0.6 3.1  1.8 0.6 3.1  1.9 0.6 3.1  0.1 0.7 3.1  0 0.7 3.1  0.2 0.7 3.1  0.3 0.7 3.1  0.4 0.7 3.1  0.5 0.7 3.1  0.6 0.7 3.1  0.7 0.7 3  0.7 0.7 3.1  0.8 0.7 3  0.8 0.7 3.1  0.9 0.7 3.1  1 0.7 3.1  1.1 0.7 3.1  1.2 0.7 3.1  1.3 0.7 3.1  1.4 0.7 3.1  1.5 0.7 3.1  1.6 0.7 3.1  1.7 0.7 3.1  1.8 0.7 3.1  1.9 0.7 3.1  0.1 0.8 3.1  0 0.8 3.1  0.2 0.8 3.1  0.3 0.8 3.1  0.4 0.8 3.1  0.5 0.8 3.1  0.6 0.8 3.1  0.7 0.8 3.1  0.8 0.8 3.1  0.9 0.8 3.1  1 0.8 3  1 0.8 3.1  0.9 0.8 3  1.1 0.8 3  1.1 0.8 3.1  1.2 0.8 3  1.2 0.8 3.1  1.3 0.8 3  1.3 0.8 3.1  1.4 0.8 3.1  1.5 0.8 3.1  1.6 0.8 3.1  1.7 0.8 3.1  1.8 0.8 3.1  1.9 0.8 3.1  2 0.8 3.1  0.1 0.9 3.1  0 0.9 3.1  0.2 0.9 3.1  0.3 0.9 3.1  0.4 0.9 3.1  0.5 0.9 3.1  0.6 0.9 3.1  1 0.9 3.1  1.1 0.9 3.1  1.2 0.9 3.1  1.3 0.9 3.1  1.4 0.9 3.1  1.9 0.9 3.1  2 0.9 3.1  0.1 1 3.1  0 1 3.1  0.2 1 3.1  0.3 1 3.1  0.4 1 3.1  0.5 1 3.1  0.6 1 3.1  0.1 1.1 3.1  0 1.1 3.1  0.2 1.1 3  0.2 1.1 3.1  0.3 1.1 3  0.3 1.1 3.1  0.4 1.1 3  0.4 1.1 3.1  0.5 1.1 3.1  0.6 1.1 3.1  0.1 1.2 3  0.1 1.2 3.1  0 1.2 3  0 1.2 3.1  0.2 1.2 3  0.2 1.2 3.1  0.3 1.2 3  0.3 1.2 3.1  0.4 1.2 3.1  0.5 1.2 3.1  0.1 1.3 3  0.1 1.3 3.1  0 1.3 3  0 1.3 3.1  0.2 1.3 3.1  0.3 1.3 3.1  0.4 1.3 3.1  0.1 1.4 3  0.1 1.4 3.1  0 1.4 3  0 1.4 3.1  0.2 1.4 3.1  0.1 1.5 3  0.1 1.5 3.1  0 1.5 3  0 1.5 3.1  0.2 1.5 3.1  0.1 1.6 3.1  0 1.6 3.1  0 1.6 3  0.2 1.6 3.1  0.1 1.7 3.1  0 1.7 3.1  0.1 0.1 3.2  0.1 0 3.2  0 0 3.2  0 0.1 3.2  0.2 0.1 3.2  0.2 0 3.2
[...]
<PointData  Vectors="u"> 
<DataArray  type="Float64"  Name="u"  NumberOfComponents="3" format="ascii">-1.7736377918444955e+01 -1.9035545622202761e+01 -4.6986505513727778e-01  -1.7736025586949925e+01 -1.9035564315669937e+01 1.7396328853169706e-04  1.0579949869421267e+02 -4.5349559857585149e+00 3.7628995819294049e-04  1.2978844434289854e+02 -5.2466596430747096e+01 3.3395057070965050e-04  1.1998313704117631e+02 -1.5580176766728329e+02 1.9704630656656075e-04  1.2978691366256885e+02 -5.2466470001741286e+01 4.6866105234444516e-01  1.0579797256952880e+02 -4.5349808009357098e+00 4.6854824780245996e-01  -1.7735671596830777e+01 -1.9035582839008857e+01 4.7021499705433434e-01  1.1998344522820858e+02 -1.5580163324337212e+02 4.7035724570631993e-01  1.4022736097867170e+02 -1.4613853784307549e+00 6.7439856990033319e-04  1.4916247553942861e+02 -2.2583871300280038e+01 6.6482793160724523e-04  1.4915917140201614e+02 -2.2583744453739399e+01 4.6355240981630985e-01  1.4022405793540986e+02 -1.4614106281396320e+00 4.6340769551597338e-01  1.5741939289218760e+02 -5.5002853246316852e-01 9.5245724201163499e-04  1.6102716599775457e+02 -1.1957203463671910e+01 9.3791266382116086e-04  1.6102217879428775e+02 -1.1957080140129616e+01 4.5493324768772209e-01  1.5741441017591154e+02 -5.5005256283883008e-01 4.5479860333265187e-01  1.6636001413445155e+02 -2.7062459556161400e-01 1.2034049422913766e-03  1.6635350135733864e+02 -2.7064746779847942e-01 4.4298901095928478e-01  1.6803618647744463e+02 -7.1498306513291636e+00 4.4312007721490715e-01  1.7175384574110973e+02 -1.4543149480537348e-01 1.4232789640696000e-03  1.7174599100269825e+02 -1.4545298425640382e-01 4.2832824643889500e-01  1.7267885738319967e+02 -4.6809209176085815e+00 4.2845364997582563e-01  1.7524870846972215e+02 -8.7331883786388190e-02 1.6074086440223333e-03  1.7523972711592765e+02 -8.7351862123963911e-02 4.1122755575157988e-01  1.7579502966448806e+02 -3.2638289133436489e+00 4.1134615930878654e-01  1.7762891514210077e+02 -5.6163148750944233e-02 1.7535087207426220e-03  1.7761903823600309e+02 -5.6181534673246200e-02 3.9213988529376570e-01  1.7797561079776824e+02 -2.3821569326976242e+00 3.9225087156699240e-01  1.7930949495103320e+02 -3.8122464595367125e-02 1.8611236759574230e-03  1.7929895785353511e+02 -3.8139223519368250e-02 3.7153593994663420e-01  1.7954036486178475e+02 -1.7998106433744796e+00 3.7163871917278812e-01  1.8052645112617594e+02 -2.6997703015805268e-02 1.9314362488539857e-03  1.8051548330078575e+02 -2.7012845748476115e-02 3.4988260490006001e-01  1.8068592300538879e+02 -1.3964562201298019e+00 3.4997685117412053e-01  1.8142427014232720e+02 -1.9768803031395797e-02 1.9669750743670222e-03  1.8141308670575199e+02 -1.9782372577750749e-02 3.2762445659456618e-01  1.8153755392715740e+02 -1.1064513926301913e+00 3.2771008388666484e-01  1.8209590976361909e+02 -1.4873291578554704e-02 1.9712666972080592e-03  1.8208470514562640e+02 -1.4885362731254258e-02 3.0516926188894844e-01  1.8217811558445334e+02 -8.9155448076839994e-01 3.0524639366685269e-01  1.8260366243911062e+02 -1.1441248937364883e-02 1.9484825929967841e-03  1.8259260620243248e+02 -1.1451914321426341e-02 2.8287783645319997e-01  1.8266430232021148e+02 -7.2833508721646478e-01 2.8294677109064859e-01  1.8297987003680529e+02 -8.9737196772001690e-03 2.6105812986606902e-01  1.8303593541154595e+02 -6.0181169467648754e-01 2.6111929903771086e-01  1.7494078414502820e+02 -4.4923588490249870e+01 2.9991995075717129e-04  1.7493926039303733e+02 -4.4923310615879601e+01 4.6909105424632058e-01  2.0323159441627456e+02 -6.7267806585280383e+01 1.6440578272780998e-04  2.0323190285563399e+02 -6.7267527919793679e+01 4.7079038171916704e-01  1.6669315044148146e+02 -2.9699425845795385e+01 4.6397943167506861e-01  1.6906249740988636e+02 -1.8264864162058377e+01 4.5534233285464926e-01  1.7228446343078011e+02 -1.1966284223693116e+01 4.4351491593160958e-01  1.8314309450231121e+02 -3.8912288194952410e+01 4.6981637081838989e-01  1.9876130116138910e+02 -4.2463010037011500e+01 4.7151818493669401e-01  1.7781199793660716e+02 -2.8703924151211705e+01 4.6469151131963721e-01  1.2978168320297678e+02 -5.2466029695281037e+01 9.4032172911500123e-01  1.0579274909173529e+02 -4.5350068875663005e+00 9.4004762630526695e-01  -1.7735304994068919e+01 -1.9035602324267590e+01 9.4363473057924996e-01  1.1998376479504795e+02 -1.5580118295339730e+02 9.4390320399779448e-01  1.4914857620885917e+02 -2.2583309125441779e+01 9.2961802038660002e-01  1.4021346762712341e+02 -1.4614367877366854e+00 9.2931198639748902e-01  1.6100653626944691e+02 -1.1956657356046970e+01 9.1185011083233292e-01  1.5739877771669106e+02 -5.5007711878012155e-01 9.1155975553389390e-01  1.6801597197964236e+02 -7.1494247434248672e+00 8.8763201318186935e-01  1.6633329901748243e+02 -2.7067049116797470e-01 8.8735074354556254e-01  1.7265465676248601e+02 -4.6805356274879433e+00 8.5767656031560102e-01  1.7172180457753825e+02 -1.4547427773581659e-01 8.5740840753470948e-01  1.7576750811588951e+02 -3.2634672308543937e+00 8.2283557221645309e-01  1.7521222116079130e+02 -8.7371335047042656e-02 8.2258286529176716e-01  1.7794547625293168e+02 -2.3818209699187607e+00 7.8404087156998170e-01  1.7758892009892890e+02 -5.6199158204247673e-02 7.8380533815237430e-01  1.7950833328948468e+02 -1.7995016678443556e+00 7.4225615703413339e-01  1.7926694296136355e+02 -3.8155021189067079e-02 7.4203895852791402e-01  1.8065268771068602e+02 -1.3961747067941539e+00 6.9843269672047215e-01  1.8048226448329976e+02 -2.7026882487611304e-02 6.9823440312812723e-01  1.8150376057843945e+02 -1.1061971178340444e+00 6.5347169801091054e-01  1.8137930924175390e+02 -1.9794749654144461e-02 6.5329235158412235e-01  1.8214434384796095e+02 -8.9132664074541312e-01 6.0819534022104593e-01  1.8205094840084280e+02 -1.4896200894998945e-02 6.0803452962734439e-01  1.8263105417598092e+02 -7.2813241821814323e-01 5.6332696883399780e-01  1.8255937194891453e+02 -1.1461350371599522e-02 5.6318391789179134e-01  1.8300362963505265e+02 -6.0163260236611960e-01 5.1948006943452896e-01  1.8294757692205891e+02 -8.9818957549424126e-03 5.1935372678685354e-01  1.8327706869133385e+02 -7.1402443755121964e-03 2.3996307663232527e-01  1.8332159942808127e+02 -5.0205289953011323e-01 2.4001700709678184e-01  1.8329057128543357e+02 -5.0189557012965735e-01 4.7715494549838672e-01  1.8324605192272548e+02 -7.1472986803286310e-03 4.7704407148525813e-01  1.8350634221671240e+02 -5.7545330323946981e-03 2.1979154953798027e-01  1.8354217636884104e+02 -4.2226944689710288e-01 2.1983883106089963e-01  1.8351268138775279e+02 -4.2213194692825734e-01 4.3674161931533179e-01  1.8347685731966510e+02 -5.7606020113645864e-03 4.3664486667292812e-01  1.8368536002834944e+02 -3.5757565999528129e-01 3.9852734640794035e-01  1.7493403151444821e+02 -4.4922415784849328e+01 9.4123678928115873e-01  2.0323222293513965e+02 -6.7266628648038278e+01 9.4482343584233641e-01  1.6668253924737380e+02 -2.9698545284936561e+01 9.3051446457868714e-01  1.6904683274952839e+02 -1.8264009515182611e+01 9.1271541592607996e-01  1.7226422086000034e+02 -1.1965463837278493e+01 8.8846400855578977e-01  1.7509723452544804e+02 -8.2465791497047825e+00 8.5846500568983841e-01  1.7727668363455527e+02 -5.9321236228505603e+00 8.2357499304540127e-01  1.7893700945082401e+02 -4.4199332388004624e+00 7.8472700094208081e-01  1.8022209180954400e+02 -3.3873333732516606e+00 3.7193969138619060e-01  1.8019001950814359e+02 -3.3867095800369262e+00 7.4288654609771976e-01  1.7896718344650645e+02 -4.4206116420062092e+00 3.9257788146562933e-01  1.8117277825734703e+02 -2.6547319748556331e+00 3.5025131447137420e-01  1.8113950206072957e+02 -2.6541637001691858e+00 6.9900652280383302e-01  1.8189605891330663e+02 -2.1190218549209328e+00 3.2795823096369964e-01  1.8186222544039359e+02 -2.1185086089241478e+00 6.5398955949263271e-01  1.8244886983042673e+02 -1.7170211935842883e+00 3.0546897771002324e-01  1.8241505951460110e+02 -1.7165613187064981e+00 6.0865901205008699e-01  1.8287313054745084e+02 -1.4087465806581263e+00 2.8314498433726182e-01  1.8283984595416447e+02 -1.4083375084608867e+00 5.6373914186050200e-01  1.8319986101571789e+02 -1.1679880705501320e+00 2.6129465768299731e-01  1.8316752132832997e+02 -1.1676265662219383e+00 5.1984409256946562e-01  1.8342113704433265e+02 -9.7671620014186777e-01 4.7747459289778277e-01  1.8361800317205945e+02 -8.2331181802684172e-01 4.3702088820417340e-01  1.8377121438815385e+02 -6.9867586954712591e-01 3.9877029072132714e-01  1.8313785187787190e+02 -3.8910972373846498e+01 9.4274034384987915e-01  1.9876162308738245e+02 -4.2461687237349501e+01 9.4633569628735392e-01  1.7780136011207026e+02 -2.8702630947055876e+01 9.3199181981735058e-01  1.7670925840060926e+02 -2.0005141198592316e+01 4.5603410485908052e-01  1.7669355679426164e+02 -2.0003885310180383e+01 9.1415025969082553e-01  1.7707153591150717e+02 -1.4408686639851421e+01 8.8984108183786415e-01  1.7817718164626956e+02 -1.0496688252657643e+01 8.5977052045519375e-01  1.8118960641962838e+02 -4.6864195951807126e+00 7.4393089515850519e-01  1.8034418238270661e+02 -6.0035846476197241e+00 7.8586349784752441e-01  1.8187032746695024e+02 -3.7227933372030280e+00 6.9995731194646371e-01  1.8240980989520745e+02 -3.0016154276054632e+00 6.5484773273308583e-01  1.8283411033393534e+02 -2.4509139233500252e+00 6.0942746726880637e-01  1.8316637194432255e+02 -2.0229039926003476e+00 5.6442229616008388e-01  1.8342590778117699e+02 -1.6851072435585543e+00 5.2044746512187667e-01  1.8362831671919488e+02 -1.4149467290772566e+00 4.7800441470062349e-01  1.9153915657409911e+02 -2.9523172842578955e+01 4.7080263014020468e-01  1.9153389719063856e+02 -2.9521483207035860e+01 9.4477896196001832e-01  1.9963591606892606e+02 -3.1755321264014555e+01 4.7251046303498018e-01  1.9963623941802692e+02 -3.1753622422282916e+01 9.4838643897512265e-01  1.8586137253365462e+02 -2.4299355617093138e+01 9.3399520964279681e-01  1.8256156954879162e+02 -1.9354592613907670e+01 9.1609534062166742e-01  1.8141541800529188e+02 -1.4987577081984712e+01 8.9170715627514319e-01  1.9407447974717724e+02 -2.3768577159800220e+01 9.4728283570223915e-01  1.9985126811555827e+02 -2.4849769943394687e+01 9.5090474788172807e-01  1.8949561085306652e+02 -2.1081339708718151e+01 9.3645615161426587e-01  1.2977259115632955e+02 -5.2465253591105274e+01 1.4187389524060376e+00  1.0578366685565561e+02 -4.5350355912643412e+00 1.4182891659604202e+00  -1.7734913984370454e+01 -1.9035624003787049e+01 1.4239086086364932e+00  1.1998410607959931e+02 -1.5580039442644122e+02 1.4243176717763821e+00  1.4913036769655099e+02 -2.2582544010541135e+01 1.4021092313263386e+00  1.4019526830276610e+02 -1.4614651387147173e+00 1.4016267341308501e+00  1.6097977669077713e+02 -1.1955914930181823e+01 1.3746561331378104e+00  1.5737203459945718e+02 -5.5010335323993642e-01 1.3741958880902017e+00  1.6798148915553679e+02 -7.1487128603621981e+00 1.3373284282120341e+00  1.6629883637390915e+02 -2.7069468054124413e-01 1.3368837137590766e+00  1.7261346880821657e+02 -4.6798609614762068e+00 1.2912547126126164e+00  1.7168064012399637e+02 -1.4549624419142942e-01 1.2908317624245451e+00  1.7572076556836564e+02 -3.2628350162634798e+00 1.2377746385429855e+00  1.7516550441136465e+02 -8.7391031780408038e-02 1.2373771145936308e+00  1.7789439787728821e+02 -2.3812348460489119e+00 1.1783464835010800e+00  1.7753786885650410e+02 -5.6216613823938687e-02 1.1779770931490647e+00  1.7945414554010725e+02 -1.7989637305290893e+00 1.1144704511836314e+00  1.7921278279358708e+02 -3.8170327894639061e-02 1.1141309214990169e+00  1.8059657185471880e+02 -1.3956856245287637e+00 1.0476186583751259e+00  1.8042617588172698e+02 -2.7040180757592923e-02 1.0473097450990883e+00  1.8144681037700633e+02 -1.1057563145012692e+00 9.7917678526905927e-01  1.8132238533523721e+02 -1.9806210913979563e-02 9.7889838037390620e-01  1.8208753512947931e+02 -8.9093251640070559e-01 9.1040013322934787e-01  1.8199416453559226e+02 -1.4906012993906873e-02 9.1015140421257645e-01  1.8257522621844259e+02 -7.2778258321361999e-01 8.4238461587549496e-01  1.8250356706555894e+02 -1.1469705151212086e-02 8.4216415752755869e-01  1.8294947723645006e+02 -6.0132410221182842e-01 7.7605174500002283e-01  1.8289344561410763e+02 -8.9889806656226028e-03 7.7585773585751605e-01  1.8323864570819626e+02 -5.0162509354018137e-01 7.1214563481603066e-01  1.8319414535778580e+02 -7.1532916761257318e-03 7.1197598233907067e-01  1.8346339808639900e+02 -4.2189600331749999e-01 6.5123947702383667e-01  1.8342759094860182e+02 -5.7656630269048558e-03 6.5109194206205467e-01  1.8363901104610935e+02 -3.5737072149515131e-01 5.9374882302634946e-01  1.7492493530200784e+02 -4.4920860191242028e+01 1.4201844875506926e+00  2.0323256507303091e+02 -6.7265064533952284e+01 1.4257709787608461e+00  1.6666430245641024e+02 -2.9697016240520199e+01 1.4035189811301969e+00  1.6902003309220720e+02 -1.8262526623669761e+01 1.3760190050241095e+00  1.7222968723784956e+02 -1.1964042327303027e+01 1.3386358607354862e+00  1.7505598680240803e+02 -8.2452324501035115e+00 1.2924916595884910e+00  1.7722987479460400e+02 -5.9308620174789404e+00 1.2389322668950495e+00  1.7888586055949384e+02 -4.4187638797527882e+00 1.1794182283430963e+00  1.8013575923810865e+02 -3.3856365460282101e+00 1.1154527249026229e+00  1.8108331366399716e+02 -2.6531882387997494e+00 1.0485105161955883e+00  1.8180520435916586e+02 -2.1176295026155643e+00 9.7997956237795414e-01  1.8235818291887318e+02 -1.7157753260809507e+00 9.1111702419189711e-01  1.8278395412118903e+02 -1.4076398263232903e+00 8.4302023054673703e-01  1.8311330973319673e+02 -1.1670112815297096e+00 7.7661168583775941e-01  1.8336915734299097e+02 -9.7617669830745402e-01 7.1263611597138410e-01  1.8356867097333102e+02 -8.2284113313837925e-01 6.5166699995516431e-01  1.8372482170545922e+02 -6.9826696999117122e-01 5.9411991805697717e-01  1.8312873175398096e+02 -3.8908696114994157e+01 1.4225396122428617e+00  1.9876196758576535e+02 -4.2459398030866510e+01 1.4281418178238652e+00  1.7778307642261544e+02 -2.8700395251689976e+01 1.4058325779658079e+00  1.7666669084416657e+02 -2.0001716281289855e+01 1.3782640369654766e+00  1.7703691741996289e+02 -1.4406607246115160e+01 1.3407866548182674e+00  1.7813583449633995e+02 -1.0494717937797303e+01 1.2945273220300275e+00  1.7932249462942963e+02 -7.8487159120425485e+00 8.2479957484538924e-01  1.7927557560564404e+02 -7.8468696072427422e+00 1.2408377474976271e+00  1.8029291640253720e+02 -6.0018727787991057e+00 1.1811826536903818e+00  1.8113522583510712e+02 -4.6848481299028712e+00 1.1170701612489888e+00  1.8181401881136023e+02 -3.7213641372294703e+00 1.0499793272545495e+00  1.8235267138979438e+02 -3.0003267798950133e+00 9.8130187243555933e-01  1.8277712136170967e+02 -2.4497611683633447e+00 9.1229801992361104e-01  1.8311037442714431e+02 -2.0218801977579384e+00 8.4406744129088196e-01  1.8337159830460774e+02 -1.6842038499895917e+00 7.7753428678373016e-01  1.8357624757828648e+02 -1.4141541463922087e+00 7.1344430183031116e-01  1.8378600195432276e+02 -1.1963949070129112e+00 4.3748376688257840e-01  1.8373658900640626e+02 -1.1957030203223029e+00 6.5237145250944928e-01  1.8390874718217387e+02 -1.0178529016211415e+00 3.9917293617952843e-01  1.8386228237925928e+02 -1.0172514846362439e+00 5.9473137729833181e-01  1.8396090510848126e+02 -8.7025792546021663e-01 5.4079913672896129e-01  1.9152474663146239e+02 -2.9518569091514198e+01 1.4257269936779093e+00  1.9963658580916504e+02 -3.1750691493106977e+01 1.4313485007952063e+00  1.8584302776932947e+02 -2.4296492884359385e+01 1.4089626379984006e+00  1.8253461397769598e+02 -1.9351814553260450e+01 1.3812992501821020e+00  1.8138068542528936e+02 -1.4984913075871562e+01 1.3436944497735688e+00  1.8123987630074976e+02 -1.1537491286120906e+01 1.2972808344322622e+00  1.8149724200767486e+02 -8.9841266519921632e+00 1.2434161093342844e+00  1.8190446428696779e+02 -7.0732265442872038e+00 1.1835713552603524e+00  1.8232553432790760e+02 -5.6411037979923249e+00 1.1192611350041455e+00  1.8270962353719250e+02 -4.5536944573100024e+00 1.0519702563833362e+00  1.8303848688571171e+02 -3.7168323993953858e+00 9.8309547993367674e-01  1.8331082887651098e+02 -3.0639173323224389e+00 9.1390114185969396e-01  1.8353173242556983e+02 -2.5478793671757360e+00 8.4549006987593001e-01  1.8370851872797141e+02 -2.1351624777660914e+00 7.7878864463703035e-01  1.8384866943036491e+02 -1.8015485127813875e+00 7.1454400616300229e-01  1.8395900090961936e+02 -1.5293241262706443e+00 6.5333080213474737e-01  1.8404538145952867e+02 -1.3053571187465405e+00 5.9556477861408696e-01  1.8411270618428114e+02 -1.1197831020940687e+00 5.4152066180768910e-01  1.9406529194592460e+02 -2.3765124977299021e+01 1.4296315925608252e+00  1.9985161666892893e+02 -2.4846298018035348e+01 1.4352766674922479e+00  1.8947719118798474e+02 -2.1077947862195536e+01 1.4127974430657810e+00  1.8652017007318000e+02 -1.7767391347981736e+01 1.3850192164175512e+00  1.8485265107031077e+02 -1.4495965562083278e+01 1.3472601548441656e+00  1.8397832805645464e+02 -1.1730741399668524e+01 1.3006592768202820e+00  1.9571976379371534e+02 -1.9712281591899330e+01 9.5016908709946424e-01  1.9571053350807404e+02 -1.9708403180843483e+01 1.4341215462414412e+00  1.9989971142159132e+02 -2.0323992840642326e+01 9.5380752594965745e-01  1.9990006215782174e+02 -2.0320092451240615e+01 1.4397933874605513e+00  1.9213844453880438e+02 -1.8045016476432306e+01 1.4172080282991477e+00  1.8939838192866236e+02 -1.5852025663527233e+01 1.3892994067091839e+00  1.9667537772686316e+02 -1.6659578896219820e+01 1.4390551641366240e+00  1.9994073378906367e+02 -1.7046761333180630e+01 1.4447559373539387e+00  1.9994038089772158e+02 -1.7050972690339652e+01 9.5700493096554229e-01  1.9373500056898413e+02 -1.5596168968215107e+01 1.4220557121037338e+00  1.9729790717107483e+02 -1.4300303146673505e+01 1.4442890104509682e+00  1.9996057768760281e+02 -1.4556642590746707e+01 1.4500199101592317e+00  1.2975935013559882e+02 -5.2464102111474261e+01 1.9075330894025515e+00  1.0577043913741896e+02 -4.5350685011728125e+00 1.9068836379965586e+00  -1.7734485120858089e+01 -1.9035649345578044e+01 1.9147156016805955e+00  1.1998448090849588e+02 -1.5579922740777675e+02 1.9152883049985390e+00  1.4910398027940349e+02 -2.2581410743755118e+01 1.8844491744921867e+00  1.4016889531236305e+02 -1.4614971563613104e+00 1.8837655798631356e+00  1.6094109442286376e+02 -1.1954816605671477e+01 1.8464603072541044e+00  1.5733337661477088e+02 -5.5013254917260068e-01 1.8458070773186968e+00  1.6793174507580062e+02 -7.1476615191161867e+00 1.7949103754886893e+00  1.6624912221898256e+02 -2.7072112831040845e-01 1.7942807497930648e+00  1.7255417423490584e+02 -4.6788666948390425e+00 1.7314150100134089e+00  1.7162138026855069e+02 -1.4551978265640675e-01 1.7308178292371925e+00  1.7565361948260400e+02 -3.2619055890808926e+00 1.6578795410943552e+00  1.7509839631096943e+02 -8.7411665678908068e-02 1.6573200262605734e+00  1.7782118953328776e+02 -2.3803755142862513e+00 1.5763652128865522e+00  1.7746470032495628e+02 -5.6234450924600603e-02 1.5758471416377335e+00  1.7937666370279632e+02 -1.7981773424651253e+00 1.4889776498039109e+00  1.7913534127890952e+02 -3.8185552272855645e-02 1.4885032920340429e+00  1.8051652691139364e+02 -1.3949728329910485e+00 1.3977667103949154e+00  1.8034617064059714e+02 -2.7053030011684097e-02 1.3973368796024193e+00  1.8136577343339238e+02 -1.1051158879456158e+00 1.3046450186276062e+00  1.8124138656424253e+02 -1.9816952566174641e-02 1.3042592634707064e+00  1.8200689567655701e+02 -8.9036170128821956e-01 1.2113285705206818e+00  1.8191356104712429e+02 -1.4914923351967637e-02 1.2109853990126089e+00  1.8249616778807189e+02 -7.2727748128661796e-01 1.1192995562085828e+00  1.8242454193129694e+02 -1.1477052460441060e-02 1.1189966794152928e+00  1.8287296889749479e+02 -6.0088002632991100e-01 1.0297894189597394e+00  1.8281696763535149e+02 -8.9950141534347536e-03 1.0295239919441952e+00  1.8316544639045236e+02 -5.0123688494654706e-01 9.4377875295302616e-01  1.8312097335710379e+02 -7.1582361668846997e-03 9.4354759046714665e-01  1.8339407036383838e+02 -4.2155829810835754e-01 8.6201003761213879e-01  1.833582875