<?xml version="1.0"?>
<VTKFile type="UnstructuredGrid"  version="0.1"  >
<UnstructuredGrid>
<Piece  NumberOfPoints="14521" NumberOfCells="75917">
<Points>
<DataArray  type="Float64"  NumberOfComponents="3"  format="ascii">1 1 0  1.1 1 0  1.1 1.1 0  1.1 1.1 0.1  1.1 1 0.1  1.2 1 0  1.2 1.1 0  1.2 1.1 0.1  1.3 1 0  1.3 1.1 0  1.3 1.1 0.1  1.4 1 0  1.4 1.1 0  1.4 1.1 0.1  1.5 1 0  1.5 1.1 0  1.5 1.1 0.1  1.6 1 0  1.6 1.1 0  1.6 1.1 0.1  1.7 1 0  1.7 1.1 0  1.7 1.1 0.1  1.8 1 0  1.8 1.1 0  1.8 1.1 0.1  1.9 1 0  1.9 1.1 0  1.9 1.1 0.1  2 1 0  2 1.1 0  2 1.1 0.1  2.1 1.1 0  2.1 1.1 0.1  1.2 1.2 0  1.2 1.2 0.1  1.1 1.2 0  1.3 1.2 0  1.3 1.2 0.1  1.4 1.2 0  1.4 1.2 0.1  1.5 1.2 0  1.5 1.2 0.1  1.6 1.2 0  1.6 1.2 0.1  1.7 1.2 0  1.7 1.2 0.1  1.8 1.2 0  1.8 1.2 0.1  1.9 1.2 0  1.9 1.2 0.1  2 1.2 0  2 1.2 0.1  2.1 1.2 0  2.1 1.2 0.1  2.2 1.1 0  2.2 1.2 0  2.2 1.2 0.1  2.3 1.1 0  2.3 1.2 0  2.3 1.2 0.1  2.4 1.1 0  2.4 1.2 0  2.4 1.2 0.1  2.5 1.1 0  2.5 1.2 0  2.5 1.2 0.1  2.6 1.1 0  2.6 1.2 0  2.6 1.2 0.1  2.7 1.1 0  2.7 1.2 0  2.7 1.2 0.1  1.2 1.3 0  1.2 1.3 0.1  1.3 1.3 0  1.3 1.3 0.1  1.4 1.3 0  1.4 1.3 0.1  1.5 1.3 0  1.5 1.3 0.1  1.6 1.3 0  1.6 1.3 0.1  1.7 1.3 0  1.7 1.3 0.1  1.8 1.3 0  1.8 1.3 0.1  1.9 1.3 0  1.9 1.3 0.1  2 1.3 0  2 1.3 0.1  2.1 1.3 0  2.1 1.3 0.1  2.2 1.3 0  2.2 1.3 0.1  2.3 1.3 0  2.3 1.3 0.1  2.4 1.3 0  2.4 1.3 0.1  2.5 1.3 0  2.5 1.3 0.1  2.6 1.3 0  2.6 1.3 0.1  2.7 1.3 0  2.7 1.3 0.1  1.3 1.4 0  1.3 1.4 0.1  1.4 1.4 0  1.4 1.4 0.1  1.5 1.4 0  1.5 1.4 0.1  1.6 1.4 0  1.6 1.4 0.1  1.7 1.4 0  1.7 1.4 0.1  1.8 1.4 0  1.8 1.4 0.1  1.9 1.4 0  1.9 1.4 0.1  2 1.4 0  2 1.4 0.1  2.1 1.4 0  2.1 1.4 0.1  2.2 1.4 0  2.2 1.4 0.1  2.3 1.4 0  2.3 1.4 0.1  2.4 1.4 0  2.4 1.4 0.1  2.5 1.4 0  2.5 1.4 0.1  2.6 1.4 0  2.6 1.4 0.1  2.7 1.4 0  2.7 1.4 0.1  2.8 1.4 0.1  1.4 1.5 0  1.4 1.5 0.1  1.3 1.5 0  1.5 1.5 0  1.5 1.5 0.1  1.6 1.5 0  1.6 1.5 0.1  1.7 1.5 0  1.7 1.5 0.1  1.8 1.5 0  1.8 1.5 0.1  1.9 1.5 0  1.9 1.5 0.1  2 1.5 0  2 1.5 0.1  2.1 1.5 0  2.1 1.5 0.1  2.2 1.5 0  2.2 1.5 0.1  2.3 1.5 0  2.3 1.5 0.1  2.4 1.5 0  2.4 1.5 0.1  2.5 1.5 0  2.5 1.5 0.1  2.6 1.5 0  2.6 1.5 0.1  2.7 1.5 0  2.7 1.5 0.1  2.8 1.5 0.1  1.4 1.6 0  1.4 1.6 0.1  1.5 1.6 0  1.5 1.6 0.1  1.6 1.6 0  1.6 1.6 0.1  1.7 1.6 0  1.7 1.6 0.1  1.8 1.6 0  1.8 1.6 0.1  1.9 1.6 0  1.9 1.6 0.1  2 1.6 0  2 1.6 0.1  2.1 1.6 0  2.1 1.6 0.1  2.2 1.6 0  2.2 1.6 0.1  2.3 1.6 0  2.3 1.6 0.1  2.4 1.6 0  2.4 1.6 0.1  2.5 1.6 0  2.5 1.6 0.1  2.6 1.6 0  2.6 1.6 0.1  2.7 1.6 0  2.7 1.6 0.1  2.8 1.6 0.1  2.8 1.6 0  1.5 1.7 0  1.5 1.7 0.1  1.4 1.7 0  1.4 1.7 0.1  1.6 1.7 0  1.6 1.7 0.1  1.7 1.7 0  1.7 1.7 0.1  1.8 1.7 0  1.8 1.7 0.1  1.9 1.7 0  1.9 1.7 0.1  2 1.7 0  2 1.7 0.1  2.1 1.7 0  2.1 1.7 0.1  2.2 1.7 0  2.2 1.7 0.1  2.3 1.7 0  2.3 1.7 0.1  2.4 1.7 0  2.4 1.7 0.1  2.5 1.7 0  2.5 1.7 0.1  2.6 1.7 0  2.6 1.7 0.1  2.7 1.7 0  2.7 1.7 0.1  2.8 1.7 0  2.8 1.7 0.1  1.5 1.8 0  1.5 1.8 0.1  1.4 1.8 0  1.4 1.8 0.1  1.6 1.8 0  1.6 1.8 0.1  1.7 1.8 0  1.7 1.8 0.1  1.8 1.8 0  1.8 1.8 0.1  1.9 1.8 0  1.9 1.8 0.1  2 1.8 0  2 1.8 0.1  2.1 1.8 0  2.1 1.8 0.1  2.2 1.8 0  2.2 1.8 0.1  2.3 1.8 0  2.3 1.8 0.1  2.4 1.8 0  2.4 1.8 0.1  2.5 1.8 0  2.5 1.8 0.1  2.6 1.8 0  2.6 1.8 0.1  2.7 1.8 0  2.7 1.8 0.1  2.8 1.8 0  2.8 1.8 0.1  1.5 1.9 0  1.5 1.9 0.1  1.4 1.9 0  1.6 1.9 0  1.6 1.9 0.1  1.7 1.9 0  1.7 1.9 0.1  1.8 1.9 0  1.8 1.9 0.1  1.9 1.9 0  1.9 1.9 0.1  2 1.9 0  2 1.9 0.1  2.1 1.9 0  2.1 1.9 0.1  2.2 1.9 0  2.2 1.9 0.1  2.3 1.9 0  2.3 1.9 0.1  2.4 1.9 0  2.4 1.9 0.1  2.5 1.9 0  2.5 1.9 0.1  2.6 1.9 0  2.6 1.9 0.1  2.7 1.9 0  2.7 1.9 0.1  2.8 1.9 0  2.8 1.9 0.1  1.5 2 0  1.5 2 0.1  1.4 2 0  1.6 2 0  1.6 2 0.1  1.7 2 0  1.7 2 0.1  1.8 2 0  1.8 2 0.1  1.9 2 0  1.9 2 0.1  2 2 0  2 2 0.1  2.1 2 0  2.1 2 0.1  2.2 2 0  2.2 2 0.1  2.3 2 0  2.3 2 0.1  2.4 2 0  2.4 2 0.1  2.5 2 0  2.5 2 0.1  2.6 2 0  2.6 2 0.1  2.7 2 0  2.7 2 0.1  2.8 2 0  2.8 2 0.1  2.9 2 0.1  1.5 2.1 0  1.5 2.1 0.1  1.6 2.1 0  1.6 2.1 0.1  1.7 2.1 0  1.7 2.1 0.1  1.8 2.1 0  1.8 2.1 0.1  1.9 2.1 0  1.9 2.1 0.1  2 2.1 0  2 2.1 0.1  2.1 2.1 0  2.1 2.1 0.1  2.2 2.1 0  2.2 2.1 0.1  2.3 2.1 0  2.3 2.1 0.1  2.4 2.1 0  2.4 2.1 0.1  2.5 2.1 0  2.5 2.1 0.1  2.6 2.1 0  2.6 2.1 0.1  2.7 2.1 0  2.7 2.1 0.1  2.8 2.1 0  2.8 2.1 0.1  2.9 2.1 0.1  1.6 2.2 0  1.6 2.2 0.1  1.5 2.2 0  1.5 2.2 0.1  1.7 2.2 0  1.7 2.2 0.1  1.8 2.2 0  1.8 2.2 0.1  1.9 2.2 0  1.9 2.2 0.1  2 2.2 0  2 2.2 0.1  2.1 2.2 0  2.1 2.2 0.1  2.2 2.2 0  2.2 2.2 0.1  2.3 2.2 0  2.3 2.2 0.1  2.4 2.2 0  2.4 2.2 0.1  2.5 2.2 0  2.5 2.2 0.1  2.6 2.2 0  2.6 2.2 0.1  2.7 2.2 0  2.7 2.2 0.1  2.8 2.2 0  2.8 2.2 0.1  2.9 2.2 0.1  1.6 2.3 0  1.6 2.3 0.1  1.5 2.3 0  1.5 2.3 0.1  1.7 2.3 0  1.7 2.3 0.1  1.8 2.3 0  1.8 2.3 0.1  1.9 2.3 0  1.9 2.3 0.1  2 2.3 0  2 2.3 0.1  2.1 2.3 0  2.1 2.3 0.1  2.2 2.3 0  2.2 2.3 0.1  2.3 2.3 0  2.3 2.3 0.1  2.4 2.3 0  2.4 2.3 0.1  2.5 2.3 0  2.5 2.3 0.1  2.6 2.3 0  2.6 2.3 0.1  2.7 2.3 0  2.7 2.3 0.1  2.8 2.3 0  2.8 2.3 0.1  2.9 2.3 0.1  1.6 2.4 0  1.6 2.4 0.1  1.5 2.4 0  1.7 2.4 0  1.7 2.4 0.1  1.8 2.4 0  1.8 2.4 0.1  1.9 2.4 0  1.9 2.4 0.1  2 2.4 0  2 2.4 0.1  2.1 2.4 0  2.1 2.4 0.1  2.2 2.4 0  2.2 2.4 0.1  2.3 2.4 0  2.3 2.4 0.1  2.4 2.4 0  2.4 2.4 0.1  2.5 2.4 0  2.5 2.4 0.1  2.6 2.4 0  2.6 2.4 0.1  2.7 2.4 0  2.7 2.4 0.1  2.8 2.4 0  2.8 2.4 0.1  2.9 2.4 0.1  1.6 2.5 0  1.6 2.5 0.1  1.7 2.5 0  1.7 2.5 0.1  1.8 2.5 0  1.8 2.5 0.1  1.9 2.5 0  1.9 2.5 0.1  2 2.5 0  2 2.5 0.1  2.1 2.5 0  2.1 2.5 0.1  2.2 2.5 0  2.2 2.5 0.1  2.3 2.5 0  2.3 2.5 0.1  2.4 2.5 0  2.4 2.5 0.1  2.5 2.5 0  2.5 2.5 0.1  2.6 2.5 0  2.6 2.5 0.1  2.7 2.5 0  2.7 2.5 0.1  2.8 2.5 0.1  1.7 2.6 0  1.7 2.6 0.1  1.8 2.6 0  1.8 2.6 0.1  1.9 2.6 0  1.9 2.6 0.1  2 2.6 0  2 2.6 0.1  2.1 2.6 0  2.1 2.6 0.1  2.2 2.6 0  2.2 2.6 0.1  2.3 2.6 0  2.3 2.6 0.1  2.4 2.6 0  2.4 2.6 0.1  2.5 2.6 0  2.5 2.6 0.1  2.6 2.6 0  2.6 2.6 0.1  2.7 2.6 0  2.7 2.6 0.1  2.8 2.6 0.1  1.8 2.7 0  1.8 2.7 0.1  1.7 2.7 0  1.9 2.7 0  1.9 2.7 0.1  2 2.7 0  2 2.7 0.1  2.1 2.7 0  2.1 2.7 0.1  2.2 2.7 0  2.2 2.7 0.1  2.3 2.7 0  2.3 2.7 0.1  2.4 2.7 0  2.4 2.7 0.1  2.5 2.7 0  2.5 2.7 0.1  2.6 2.7 0  2.6 2.7 0.1  2.7 2.7 0  2.7 2.7 0.1  2.8 2.7 0.1  1.8 2.8 0  1.8 2.8 0.1  1.9 2.8 0  1.9 2.8 0.1  2 2.8 0  2 2.8 0.1  2.1 2.8 0  2.1 2.8 0.1  2.2 2.8 0  2.2 2.8 0.1  2.3 2.8 0  2.3 2.8 0.1  2.4 2.8 0  2.4 2.8 0.1  2.5 2.8 0  2.5 2.8 0.1  2.6 2.8 0  2.6 2.8 0.1  2.7 2.8 0  2.7 2.8 0.1  2.8 2.8 0.1  1.9 2.9 0  1.9 2.9 0.1  1.8 2.9 0  1.8 2.9 0.1  2 2.9 0  2 2.9 0.1  2.1 2.9 0  2.1 2.9 0.1  2.2 2.9 0  2.2 2.9 0.1  2.3 2.9 0  2.3 2.9 0.1  2.4 2.9 0  2.4 2.9 0.1  2.5 2.9 0  2.5 2.9 0.1  2.6 2.9 0  2.6 2.9 0.1  2.7 2.9 0.1  2.8 2.9 0.1  1.9 3 0  1.9 3 0.1  2 3 0  2 3 0.1  2.1 3 0  2.1 3 0.1  2.2 3 0  2.2 3 0.1  2.3 3 0  2.3 3 0.1  2.4 3 0  2.4 3 0.1  2.5 3 0  2.5 3 0.1  2.6 3 0  2.6 3 0.1  2.7 3 0.1  2 3.1 0  2 3.1 0.1  1.9 3.1 0  1.9 3.1 0.1  2.1 3.1 0  2.1 3.1 0.1  2.2 3.1 0  2.2 3.1 0.1  2.3 3.1 0  2.3 3.1 0.1  2.4 3.1 0  2.4 3.1 0.1  2.5 3.1 0  2.5 3.1 0.1  2.6 3.1 0.1  2 3.2 0  2 3.2 0.1  2.1 3.2 0  2.1 3.2 0.1  2.2 3.2 0  2.2 3.2 0.1  2.3 3.2 0.1  2.4 3.2 0.1  2.5 3.2 0.1  2.6 3.2 0.1  2.1 3.3 0.1  2 3.3 0.1  2.2 3.3 0.1  1.2 1.2 0.2  1.3 1.2 0.2  1.4 1.2 0.2  1.5 1.2 0.2  1.6 1.2 0.2  1.7 1.2 0.2  1.8 1.2 0.2  1.9 1.2 0.2  2 1.2 0.2  2.1 1.2 0.2  2.2 1.2 0.2  1.3 1.3 0.2  1.2 1.3 0.2  1.4 1.3 0.2  1.5 1.3 0.2  1.6 1.3 0.2  1.7 1.3 0.2  1.8 1.3 0.2  1.9 1.3 0.2  2 1.3 0.2  2.1 1.3 0.2  2.2 1.3 0.2  2.3 1.3 0.2  2.3 1.2 0.2  2.4 1.3 0.2  2.5 1.3 0.2  2.6 1.3 0.2  2.7 1.3 0.2  2.8 1.3 0.2  1.3 1.4 0.2  1.4 1.4 0.2  1.5 1.4 0.2  1.6 1.4 0.2  1.7 1.4 0.2  1.8 1.4 0.2  1.9 1.4 0.2  2 1.4 0.2  2.1 1.4 0.2  2.2 1.4 0.2  2.3 1.4 0.2  2.4 1.4 0.2  2.5 1.4 0.2  2.6 1.4 0.2  2.7 1.4 0.2  2.8 1.4 0.2  1.4 1.5 0.2  1.5 1.5 0.2  1.6 1.5 0.2  1.7 1.5 0.2  1.8 1.5 0.2  1.9 1.5 0.2  2 1.5 0.2  2.1 1.5 0.2  2.2 1.5 0.2  2.3 1.5 0.2  2.4 1.5 0.2  2.5 1.5 0.2  2.6 1.5 0.2  2.7 1.5 0.2  2.8 1.5 0.2  1.5 1.6 0.2  1.4 1.6 0.2  1.6 1.6 0.2  1.7 1.6 0.2  1.8 1.6 0.2  1.9 1.6 0.2  2 1.6 0.2  2.1 1.6 0.2  2.2 1.6 0.2  2.3 1.6 0.2  2.4 1.6 0.2  2.5 1.6 0.2  2.6 1.6 0.2  2.7 1.6 0.2  2.8 1.6 0.2  2.9 1.6 0.2  1.5 1.7 0.2  1.4 1.7 0.2  1.6 1.7 0.2  1.7 1.7 0.2  1.8 1.7 0.2  1.9 1.7 0.2  2 1.7 0.2  2.1 1.7 0.2  2.2 1.7 0.2  2.3 1.7 0.2  2.4 1.7 0.2  2.5 1.7 0.2  2.6 1.7 0.2  2.7 1.7 0.2  2.8 1.7 0.2  2.9 1.7 0.2  1.5 1.8 0.2  1.6 1.8 0.2  1.7 1.8 0.2  1.8 1.8 0.2  1.9 1.8 0.2  2 1.8 0.2  2.1 1.8 0.2  2.2 1.8 0.2  2.3 1.8 0.2  2.4 1.8 0.2  2.5 1.8 0.2  2.6 1.8 0.2  2.7 1.8 0.2  2.8 1.8 0.2  2.9 1.8 0.2  1.5 1.9 0.2  1.6 1.9 0.2  1.7 1.9 0.2  1.8 1.9 0.2  1.9 1.9 0.2  2 1.9 0.2  2.1 1.9 0.2  2.2 1.9 0.2  2.3 1.9 0.2  2.4 1.9 0.2  2.5 1.9 0.2  2.6 1.9 0.2  2.7 1.9 0.2  2.8 1.9 0.2  2.9 1.9 0.2  1.6 2 0.2  1.5 2 0.2  1.7 2 0.2  1.8 2 0.2  1.9 2 0.2  2 2 0.2  2.1 2 0.2  2.2 2 0.2  2.3 2 0.2  2.4 2 0.2  2.5 2 0.2  2.6 2 0.2  2.7 2 0.2  2.8 2 0.2  2.9 2 0.2  1.6 2.1 0.2  1.5 2.1 0.2  1.7 2.1 0.2  1.8 2.1 0.2  1.9 2.1 0.2  2 2.1 0.2  2.1 2.1 0.2  2.2 2.1 0.2  2.3 2.1 0.2  2.4 2.1 0.2  2.5 2.1 0.2  2.6 2.1 0.2  2.7 2.1 0.2  2.8 2.1 0.2  2.9 2.1 0.2  1.6 2.2 0.2  1.5 2.2 0.2  1.7 2.2 0.2  1.8 2.2 0.2  1.9 2.2 0.2  2 2.2 0.2  2.1 2.2 0.2  2.2 2.2 0.2  2.3 2.2 0.2  2.4 2.2 0.2  2.5 2.2 0.2  2.6 2.2 0.2  2.7 2.2 0.2  2.8 2.2 0.2  2.9 2.2 0.2  1.6 2.3 0.2  1.7 2.3 0.2  1.8 2.3 0.2  1.9 2.3 0.2  2 2.3 0.2  2.1 2.3 0.2  2.2 2.3 0.2  2.3 2.3 0.2  2.4 2.3 0.2  2.5 2.3 0.2  2.6 2.3 0.2  2.7 2.3 0.2  2.8 2.3 0.2  2.9 2.3 0.2  1.6 2.4 0.2  1.7 2.4 0.2  1.8 2.4 0.2  1.9 2.4 0.2  2 2.4 0.2  2.1 2.4 0.2  2.2 2.4 0.2  2.3 2.4 0.2  2.4 2.4 0.2  2.5 2.4 0.2  2.6 2.4 0.2  2.7 2.4 0.2  2.8 2.4 0.2  2.9 2.4 0.2  1.7 2.5 0.2  1.8 2.5 0.2  1.9 2.5 0.2  2 2.5 0.2  2.1 2.5 0.2  2.2 2.5 0.2  2.3 2.5 0.2  2.4 2.5 0.2  2.5 2.5 0.2  2.6 2.5 0.2  2.7 2.5 0.2  2.8 2.5 0.2  2.9 2.5 0.2  1.7 2.6 0.2  1.8 2.6 0.2  1.9 2.6 0.2  2 2.6 0.2  2.1 2.6 0.2  2.2 2.6 0.2  2.3 2.6 0.2  2.4 2.6 0.2  2.5 2.6 0.2  2.6 2.6 0.2  2.7 2.6 0.2  2.8 2.6 0.2  2.9 2.6 0.2  1.8 2.7 0.2  1.9 2.7 0.2  2 2.7 0.2  2.1 2.7 0.2  2.2 2.7 0.2  2.3 2.7 0.2  2.4 2.7 0.2  2.5 2.7 0.2  2.6 2.7 0.2  2.7 2.7 0.2  2.8 2.7 0.2  2.9 
[...]
<PointData  Vectors="u"> 
<DataArray  type="Float64"  Name="u"  NumberOfComponents="3" format="ascii">1.7810696989012465e+02 -4.3768540706705892e+00 -1.8737449233694876e-02  1.7895451195764218e+02 -3.8630990986374871e+00 -1.4038416525360208e-02  1.7941920108984630e+02 -3.7501888399775591e+00 -1.4182310940661223e-02  1.7951055423010544e+02 -3.7524239989150550e+00 -8.6823092939440072e-01  1.7904526286420298e+02 -3.8656457219522702e+00 -8.6341068255277531e-01  1.7966308434595553e+02 -3.4040240053603830e+00 -1.0767714522219576e-02  1.8007970008845737e+02 -3.3287220930608616e+00 -1.0874100792360864e-02  1.8014963606101469e+02 -3.3304805225741836e+00 -7.0883219752322524e-01  1.8026404582302760e+02 -2.9966931153036662e+00 -8.4219087101254850e-03  1.8063505833837735e+02 -2.9495485383342666e+00 -8.5005464462800055e-03  1.8068963088113685e+02 -2.9509327678682928e+00 -5.8554464646073201e-01  1.8077914163455264e+02 -2.6370951980565618e+00 -6.6954229535470342e-03  1.8110790165278686e+02 -2.6106650791864259e+00 -6.7536513395921741e-03  1.8115117461822507e+02 -2.6117567293154051e+00 -4.8850673092775670e-01  1.8122409627583093e+02 -2.3207839049130961e+00 -5.3958518629670582e-03  1.8151433296444469e+02 -2.3093119459274805e+00 -5.4391013431358106e-03  1.8154911274051298e+02 -2.3101752086512306e+00 -4.1099873394789654e-01  1.8161072495377056e+02 -2.0432786138076806e+00 -4.3981262783577722e-03  1.8186622348641231e+02 -2.0423777830833991e+00 -4.4303759749967789e-03  1.8189449632049775e+02 -2.0430627820804146e+00 -3.4831957540234637e-01  1.8194820896897849e+02 -1.8002988294332007e+00 -3.6186132216281509e-03  1.8217261548753211e+02 -1.8066675390384770e+00 -3.6427615357716423e-03  1.8219581772762501e+02 -1.8072132744495275e+00 -2.9710395644217219e-01  1.8224388816906506e+02 -1.5878884306338552e+00 -2.9999455117826011e-03  1.8244060110954433e+02 -1.5990705549035196e+00 -3.0181017849949510e-03  1.8245979120008124e+02 -1.5995073497790542e+00 -2.5489381788258419e-01  1.8250376836664071e+02 -1.4024700882871908e+00 -2.5018545493628330e-03  1.8267588610082274e+02 -1.4166590946868816e+00 -2.5155515349088763e-03  1.8269185692913791e+02 -1.4170105620301645e+00 -2.1986185944731096e-01  1.8273285687783761e+02 -1.2408573973049586e+00 -2.0954589391470502e-03  1.8288316063027341e+02 -1.2567401372835476e+00 -2.1058111455713067e-03  1.8289651459612696e+02 -1.2570247292046943e+00 -1.9062878037811670e-01  1.8306634988928468e+02 -1.1168768540361547e+00 -1.7674306288508765e-03  1.8307755006442255e+02 -1.1171090700427757e+00 -1.6613988543849151e-01  1.8046244457165190e+02 -3.2074384549109398e+00 -1.0967680302921043e-02  1.8053276580937111e+02 -3.2089920383365378e+00 -7.1217267305090481e-01  1.7984017745340287e+02 -3.5895870334610009e+00 -1.4305293665725362e-02  1.8098021122797692e+02 -2.8592430269982665e+00 -8.5715615523829659e-03  1.8103509223029135e+02 -2.8604861394667451e+00 -5.8821144929367486e-01  1.8141718778526717e+02 -2.5444675620977693e+00 -6.8075088151256314e-03  1.8146070657846207e+02 -2.5454623458159644e+00 -4.9063768452001472e-01  1.8179010337429861e+02 -2.2616731939315629e+00 -5.4799832929114658e-03  1.8182507853860892e+02 -2.2624701471533943e+00 -4.1270463295143678e-01  1.8211113197768566e+02 -2.0088824109333889e+00 -4.4614687760927219e-03  1.8213955990691343e+02 -2.0095221236763017e+00 -3.4968870815192693e-01  1.8238940033982820e+02 -1.7838433292372462e+00 -3.6664666555206657e-03  1.8241272563679806e+02 -1.7843582041526458e+00 -2.9820631902094580e-01  1.8263194452851374e+02 -1.5842122800980682e+00 -3.0362216288659953e-03  1.8265123225091727e+02 -1.5846280929032923e+00 -2.5578478179748160e-01  1.8284432892990017e+02 -1.4076747014245936e+00 -2.5294337011630666e-03  1.8286037720646058e+02 -1.4080119348582298e+00 -2.2058523070205582e-01  1.8303105504423795e+02 -1.2520211493931852e+00 -2.1164603794077172e-03  1.8304447039593455e+02 -1.2522961003984008e+00 -1.9121929215872260e-01  1.8319583738204287e+02 -1.1151916981173333e+00 -1.7755966869266941e-03  1.8320708609977399e+02 -1.1154173797357736e+00 -1.6662519281154747e-01  1.8322878847968707e+02 -9.9489120491072824e-01 -1.4843855263741664e-03  1.8334179412545453e+02 -9.9529870523419228e-01 -1.4906285108911828e-03  1.8335123789693657e+02 -9.9548556822075474e-01 -1.4598251174711979e-01  1.8337334558600702e+02 -8.8885536426759826e-01 -1.2444507251113909e-03  1.8347158236379835e+02 -8.9063517010339210e-01 -1.2491858394932383e-03  1.8347950328624509e+02 -8.9079168187247137e-01 -1.2865265022122530e-01  1.8350251786333189e+02 -7.9707705449496913e-01 -1.0380683642740784e-03  1.8358749685966973e+02 -7.9967380931500132e-01 -1.0416065851467397e-03  1.8359411513679458e+02 -7.9980692020318500e-01 -1.1413683637022390e-01  1.8361850083970236e+02 -7.1808200452078319e-01 -8.5755044690128085e-04  1.8369154462418371e+02 -7.2106035087550346e-01 -8.6011917080874097e-04  1.8369703105617617e+02 -7.2117586566993208e-01 -1.0204639973766487e-01  1.8372324593104048e+02 -6.5059549149885154e-01 -6.9648192247987676e-04  1.8378550344536481e+02 -6.5360334254026087e-01 -6.9824861643764090e-04  1.8378998808185574e+02 -6.5370622959363223e-01 -9.2081905064660574e-02  1.8381850800687519e+02 -5.9352402502338009e-01 -5.4924719836749116e-04  1.8387097005514281e+02 -5.9626190835432447e-01 -5.5033109199863759e-04  1.8387454786584141e+02 -5.9635655913229502e-01 -8.4018991241862892e-02  1.8080983999938977e+02 -3.0489192894382349e+00 -1.1048675942514219e-02  1.8088047205856091e+02 -3.0502772225193420e+00 -7.1509332660933078e-01  1.8129711894933789e+02 -2.7329120514623466e+00 -8.6345366697090295e-03  1.8135225466454031e+02 -2.7340150698956451e+00 -5.9057948324475618e-01  1.8170413153898332e+02 -2.4442231575687128e+00 -6.8563488322679732e-03  1.8174785767821345e+02 -2.4451179192132506e+00 -4.9255660161257475e-01  1.8204835003289531e+02 -2.1823922852968445e+00 -5.5178238232011425e-03  1.8208349320226429e+02 -2.1831179269928440e+00 -4.1426029461420188e-01  1.8234239777098509e+02 -1.9463334713558136e+00 -4.4907907924876291e-03  1.8237096139695632e+02 -1.9469223500753026e+00 -3.5095147864060483e-01  1.8259563651917946e+02 -1.7345739633126194e+00 -3.6892100488751158e-03  1.8261907117970796e+02 -1.7350525687827227e+00 -2.9923339801584187e-01  1.8281518684005576e+02 -1.5454313639902695e+00 -3.0538833054499534e-03  1.8283456255740967e+02 -1.5458212457283544e+00 -2.5662244405538531e-01  1.8300659595391224e+02 -1.3771403799679061e+00 -2.5431657225509527e-03  1.8302271491831456e+02 -1.3774590093733077e+00 -2.2127083107673387e-01  1.8317428266653087e+02 -1.2279402669368049e+00 -2.1271432471400508e-03  1.8318775468317162e+02 -1.2282017970503885e+00 -1.9178298609754663e-01  1.8332183920682567e+02 -1.0961326565822982e+00 -1.7839028188767236e-03  1.8333313319450372e+02 -1.0963485684803458e+00 -1.6709138369428320e-01  1.8345224003615260e+02 -9.8011765171960930e-01 -1.4970709889508551e-03  1.8346171976563221e+02 -9.8029729737361182e-01 -1.4637103955413217e-01  1.8356798949564092e+02 -8.7841436640938353e-01 -1.2541548251223434e-03  1.8357593869861904e+02 -8.7856541505141561e-01 -1.2897976910379674e-01  1.8367122885508593e+02 -7.8967052091694268e-01 -1.0453969405797257e-03  1.8367786899905005e+02 -7.8979932864436919e-01 -1.1441601610413077e-01  1.8376381631518865e+02 -7.1266446532844974e-01 -8.6295680111627185e-04  1.8376931915407565e+02 -7.1277638041149871e-01 -1.0228898155593333e-01  1.8384738906954365e+02 -6.4630199702561486e-01 -7.0030064741695799e-04  1.8385188534270694e+02 -6.4640161296620846e-01 -9.2297654717925906e-02  1.8392341383407179e+02 -5.8960953881575928e-01 -5.5172432072118666e-04  1.8392699897543298e+02 -5.8970091492950139e-01 -8.4216570757180656e-02  1.8158470723600294e+02 -2.5769370916607532e+00 -8.6896380897555706e-03  1.8164005123143116e+02 -2.5779055448415704e+00 -5.9265991681120544e-01  1.8196702357247540e+02 -2.3152464909458952e+00 -6.8999744314726776e-03  1.8201092261705307e+02 -2.3160419787061959e+00 -4.9426436146475816e-01  1.8228700353687159e+02 -2.0758309916735560e+00 -5.5522771952472554e-03  1.8232228934621290e+02 -2.0764834873457652e+00 -4.1566111414160956e-01  1.8255778894898023e+02 -1.8582714551951431e+00 -4.5179652646134480e-03  1.8258646968775651e+02 -1.8588064257547345e+00 -3.5210070135692001e-01  1.8278906584093511e+02 -1.6617099073465667e+00 -3.7106316024658795e-03  1.8281259629996191e+02 -1.6621487161929418e+00 -3.0017711976095451e-01  1.8298813346435588e+02 -1.4850094887835610e+00 -3.0707720147713528e-03  1.8300758730609809e+02 -1.4853699007305083e+00 -2.5739878007957584e-01  1.8316061222042285e+02 -1.3268759310808951e+00 -2.5564802203056204e-03  1.8317679471087231e+02 -1.3271726338251153e+00 -2.2191115952852533e-01  1.8331092021055801e+02 -1.1859468808898936e+00 -2.1376398503317726e-03  1.8332444371304840e+02 -1.1861919840541282e+00 -1.9231309331566146e-01  1.8344259924608701e+02 -1.0608554530723735e+00 -1.7921710754792313e-03  1.8345393477917278e+02 -1.0610589352440760e+00 -1.6753246871502445e-01  1.8355854168842450e+02 -9.5027374488404737e-01 -1.5035701372370482e-03  1.8356805472410960e+02 -9.5044384660776571e-01 -1.4674058519080868e-01  1.8366115125636500e+02 -8.5294112841616221e-01 -1.2592403250342378e-03  1.8366912689044051e+02 -8.5308468819738448e-01 -1.2929227804934321e-01  1.8375245956498057e+02 -7.6768118455597190e-01 -1.0493472615865523e-03  1.8375912033617064e+02 -7.6780392675293740e-01 -1.1468363078641274e-01  1.8383421288703303e+02 -6.9341024959428754e-01 -8.6598430246878112e-04  1.8383973137728680e+02 -6.9351702516627400e-01 -1.0252201129644553e-01  1.8390793907706811e+02 -6.2913977684424294e-01 -7.0257233446939223e-04  1.8391244664148877e+02 -6.2923477071419753e-01 -9.2505020365220847e-02  1.8397500168752066e+02 -5.7397408232421276e-01 -5.5336961811660028e-04  1.8397859418633865e+02 -5.7406098987207599e-01 -8.4406191273503961e-02  1.8403938762377319e+02 -5.2718667538589170e-01 -7.8066123187219380e-02  1.8220503416124447e+02 -2.1623199837978802e+00 -6.9385055244436493e-03  1.8224907604475635e+02 -2.1630195312323242e+00 -4.9576805989570094e-01  1.8184283479768951e+02 -2.3968630986668695e+00 -8.7373871141030717e-03  1.8250478422457545e+02 -1.9460475090365075e+00 -5.5832524470464115e-03  1.8254018984168920e+02 -1.9466273091221449e+00 -4.1690791782303688e-01  1.8275575916031889e+02 -1.7480986005964816e+00 -4.5428015990269001e-03  1.8278453977793762e+02 -1.7485784858354960e+00 -3.5313368204625833e-01  1.8296801088760489e+02 -1.5680785379891882e+00 -3.7305131525312016e-03  1.8299162419678711e+02 -1.5684755430389794e+00 -3.0103299975199554e-01  1.8314907280055948e+02 -1.4052822457265710e+00 -3.0866697079334512e-03  1.8316859507157844e+02 -1.4056108378045182e+00 -2.5810857009933319e-01  1.8330469857322925e+02 -1.2588039153809634e+00 -2.5691830677170529e-03  1.8332093735410700e+02 -1.2590762862998488e+00 -2.2250088137858082e-01  1.8343936470185108e+02 -1.1276217749699526e+00 -2.1477810760174546e-03  1.8345293430866229e+02 -1.1278481468763728e+00 -1.9280450038058256e-01  1.8355661756655917e+02 -1.0106616771766175e+00 -1.8002587091587039e-03  1.8356799066347213e+02 -1.0108506048411918e+00 -1.6794372457009168e-01  1.8365931685096226e+02 -9.0684330765693089e-01 -1.5100060004147211e-03  1.8366886027426972e+02 -9.0700194963637926e-01 -1.4708687690365146e-01  1.8374980912886849e+02 -8.1511248381348322e-01 -1.2643451260923994e-03  1.8375780908860582e+02 -8.1524685209150616e-01 -1.2958635716707112e-01  1.8383005411527847e+02 -7.3446256559625156e-01 -1.0533739719661662e-03  1.8383673404658578e+02 -7.3457773923162450e-01 -1.1493628384570641e-01  1.8390171876422755e+02 -6.6394741201757557e-01 -8.6913439427675938e-04  1.8390725195273706e+02 -6.6404772651390043e-01 -1.0274246825515577e-01  1.8396624975046029e+02 -6.0268781491194812e-01 -7.0500413423942195e-04  1.8397076808943086e+02 -6.0277702643508069e-01 -9.2701308770822347e-02  1.8402493189277416e+02 -5.4987283915138796e-01 -5.5521023650155227e-04  1.8402853163025893e+02 -5.4995426498349131e-01 -8.4585445417092384e-02  1.8408168325840697e+02 -5.0483374057702302e-01 -7.8234860641738332e-02  1.8241796769893614e+02 -1.9896466588023460e+00 -6.9722565869721675e-03  1.8246212661534031e+02 -1.9902551313314565e+00 -4.9707849032338558e-01  1.8270101583481247e+02 -1.7967210442582653e+00 -5.6108316112102258e-03  1.8273652111529157e+02 -1.7972301242806701e+00 -4.1800515823535167e-01  1.8293531113429822e+02 -1.6189923080897233e+00 -4.5652563142122588e-03  1.8296417601499007e+02 -1.6194173052023242e+00 -3.5405096453176027e-01  1.8313127846813617e+02 -1.4563970081460862e+00 -3.7487463134198208e-03  1.8315496258566949e+02 -1.4567513698743282e+00 -3.0179929526197979e-01  1.8329671049999030e+02 -1.3085574416612229e+00 -3.1014443128581618e-03  1.8331629195469782e+02 -1.3088528214500306e+00 -2.5874884324974284e-01  1.8343752901302250e+02 -1.1748763032153633e+00 -2.5811380488982450e-03  1.8345381701138714e+02 -1.1751227033244216e+00 -2.2303646434501623e-01  1.8355830772779348e+02 -1.0546130756764940e+00 -2.1574403635927987e-03  1.8357191805176805e+02 -1.0548190211010844e+00 -1.9325352337987822e-01  1.8366263676212350e+02 -9.4694381867603317e-01 -1.8080506393281777e-03  1.8367404334008143e+02 -9.4711654666960821e-01 -1.6832155323770767e-01  1.8375338045323505e+02 -8.5100658250160854e-01 -1.5162801120460227e-03  1.8376295119663195e+02 -8.5115222967859605e-01 -1.4740653072505092e-01  1.8383286260056468e+02 -7.6593476846688702e-01 -1.2693843417870888e-03  1.8384088461585779e+02 -7.6605854474179003e-01 -1.2985889464106118e-01  1.8390300197400998e+02 -6.9088061076288720e-01 -1.0574044310096575e-03  1.8390969943314693e+02 -6.9098695914358121e-01 -1.1517115240557013e-01  1.8396541371721634e+02 -6.2503068634215841e-01 -8.7234110312846226e-04  1.8397096049576925e+02 -6.2512342546508093e-01 -1.0294781207671216e-01  1.8402148757441515e+02 -5.6761502680612885e-01 -7.0753695508265970e-04  1.8402601602622298e+02 -5.6769747885306587e-01 -9.2884246918518598e-02  1.8407245092013036e+02 -5.1791109701293148e-01 -5.5718965158598312e-04  1.8407605764041617e+02 -5.1798619891051034e-01 -8.4752313740402388e-02  1.8412217173229291e+02 -4.7531396298643180e-01 -7.8391429949336566e-02  1.8411942268931011e+02 -4.7524355951158498e-01 -4.1593837251484338e-04  1.8287546149019346e+02 -1.6311246159203718e+00 -5.6352107305273590e-03  1.8291104890208391e+02 -1.6315658686314871e+00 -4.1895946396096262e-01  1.8260605867951418e+02 -1.8008562826490389e+00 -7.0016541785830983e-03  1.8265031272404539e+02 -1.8013792827077968e+00 -4.9820825391362022e-01  1.8309586950480386e+02 -1.4738593086005143e+00 -4.5853859163806146e-03  1.8312480472036131e+02 -1.4742305360590104e+00 -3.5485525940794671e-01  1.8327806413029657e+02 -1.3292179749554678e+00 -3.7653077981013188e-03  1.8330180806060594e+02 -1.3295296965770176e+00 -3.0247623955240827e-01  1.8343010001143551e+02 -1.1970590106544841e+00 -3.1150331284225102e-03  1.8344973201279083e+02 -1.1973205191282099e+00 -2.5931833753571187e-01  1.8355808191299511e+02 -1.0770205489262366e+00 -2.5922617149094266e-03  1.8357441237457678e+02 -1.0772399568165334e+00 -2.2351581242192403e-01  1.8366670264638455e+02 -9.6858661659348300e-01 -2.1665290164487065e-03  1.8368034842951823e+02 -9.6877094731946023e-01 -1.9365766294487022e-01  1.8375962129036864e+02 -8.7114082250481251e-01 -1.8154624853849639e-03  1.8377105728173098e+02 -8.7129612059272310e-01 -1.6866332365972991e-01  1.8383973298546900e+02 -7.8400861805068911e-01 -1.5223127294324713e-03  1.8384932792817651e+02 -7.8414007060197566e-01 -1.4769694806718492e-01  1.8390936429960800e+02 -7.0648952920345054e-01 -1.2742837904661053e-03  1.8391740601085741e+02 -7.0660158830843844e-01 -1.3010742018190180e-01  1.8397041710927508e+02 -6.3788083238949234e-01 -1.0613741233074137e-03  1.8397713035507817e+02 -6.3797732683932173e-01 -1.1538594266575271e-01  1.8402447684664193e+02 -5.7749406471725984e-01 -8.7554720240317209e-04  1.8403003598899375e+02 -5.7757830712635516e-01 -1.0313595164629864e-01  1.8407289629308636e+02 -5.2466560312672106e-01 -7.1011679826562461e-04  1.8407743407638750e+02 -5.2474048817358654e-01 -9.3051956319938720e-02  1.8411686316240315e+02 -4.7876235589761190e-01 -5.5925850524573845e-04  1.8412047648376159e+02 -4.7883044528164936e-01 -8.4905138354418708e-02  1.8415745781273552e+02 -4.3918338808109619e-01 -4.1759276262190952e-04  1.8416021094938046e+02 -4.3924698710352017e-01 -7.8534407668405054e-02  1.8302818596588392e+02 -1.4521311758712285e+00 -5.6566522280834539e-03  1.8306384036915887e+02 -1.4525079305971953e+00 -4.1977852989078335e-01  1.8276980904302806e+02 -1.5990444882294574e+00 -7.0271654180889794e-03  1.8281413972958757e+02 -1.5994877718952771e+00 -4.9917041445660199e-01  1.8323716863519073e+02 -1.3153203477999194e+00 -4.6033143361443648e-03  1.8326616188961492e+02 -1.3156394761451835e+00 -3.5555057897106768e-01  1.8340786377369378e+02 -1.1889016253475788e+00 -3.7802376550327417e-03  1.8343165759591622e+02 -1.1891712785328159e+00 -3.0306538567519498e-01  1.8354857501187726e+02 -1.0728926519655710e+00 -3.1274225257636127e-03  1.8356824960242588e+02 -1.0731201605725942e+00 -2.5981702399756351e-01  1.8366558991582141e+02 -9.6710306013643421e-01 -2.6025135059873981e-03  1.8368195649262637e+02 -9.6729492643612391e-01 -2.2393792311443550e-01  1.8376372869855814e+02 -8.7118991207700380e-01 -2.1749922633718314e-03  1.8377740490329333e+02 -8.7135184569510349e-01 -1.9401536015804763e-01  1.8384673290886565e+02 -7.8470412224394848e-01 -1.8224339515814428e-03  1.8385819434103365e+02 -7.8484110185378164e-01 -1.6896719978581939e-01  1.8391754481020689e+02 -7.0712812067767405e-01 -1.5280453011852710e-03  1.8392716084815004e+02 -7.0724446790321571e-01 -1.4795619780730829e-01  1.8397851120604170e+02 -6.3790546818824123e-01 -1.2789892089255328e-03  1.8398657021911436e+02 -6.3800492606496628e-01 -1.3033002218837625e-01  1.8403153456805765e+02 -5.7646331698307685e-01 -1.0652301985081723e-03  1.8403826179434634e+02 -5.7654913203799507e-01 -1.1557883574353474e-01  1.8407818740968423e+02 -5.2222869955631679e-01 -8.7870316559279966e-04  1.8408375760767404e+02 -5.2230369913597596e-01 -1.0330520199790358e-01  1.8411980119957906e+02 -4.7463955698359211e-01 -7.1269708074599874e-04  1.8412434743683500e+02 -4.7470621928293499e-01 -9.3202914997061903e-02  1.8415753820163698e+02 -4.3315132423199931e-01 -5.6137049068084833e-04  1.8416115763295161e+02 -4.3321184576674687e-01 -8.5042583242665212e-02  1.8419245276970804e+02 -3.9723979391860498e-01 -4.1932628360630411e-04  1.8419520987347926e+02 -3.9729614980745659e-01 -7.8662671131599693e-02  1.8315944412784424e+02 -1.2622411486376779e+00 -5.6754413335053204e-03  1.8319515248852147e+02 -1.2625568200896637e+00 -4.2047029968532673e-01  1.8290986268745846e+02 -1.3868300330520387e+00 -7.0492589622009926e-03  1.8335915767130342e+02 -1.1457164887824605e+00 -4.6192044261226216e-03  1.8338819815826244e+02 -1.1459854479535054e+00 -3.5614155787657936e-01  1.8352039564841053e+02 -1.0376077163032318e+00 -3.7936116012257733e-03  1.8354423047187836e+02 -1.0378362073976013e+00 -3.0356907347035794e-01  1.8365168729005276e+02 -9.3802899627546454e-01 -3.1386357168362278e-03  1.8367139720151192e+02 -9.3822272867990264e-01 -2.6024569150550031e-01  1.8375949191690191e+02 -8.4690745329428729e-01 -2.6118832740170462e-03  1.8377588870338099e+02 -8.4707156525857130e-01 -2.2430257536839737e-01  1.8384875503778059e+02 -7.6402825071932157e-01 -2.1827996804719197e-03  1.8386245689409182e+02 -7.6416731461366383e-01 -1.9432576707281229e-01  1.8392330471760707e+02 -6.8907339262241962e-01 -1.8289266431990925e-03  1.8393478776434526e+02 -6.8919144091696816e-01 -1.6923197308536633e-01  1.8398613838567493e+02 -6.2165402975358075e-01 -1.5334336737702669e-03  1.8399577247633690e+02 -6.2175459759468177e-01 -1.4818289522717348e-01  1.8403963347434777e+02 -5.6133649802410657e-01 -1.2834555917324321e-03  1.8404770740237691e+02 -5.6142267628231102e-01 -1.3052526170978385e-01  1.8408570461553563e+02 -5.0766259833967009e-01 -1.0689286534393469e-03  1.8409244398747308e+02 -5.