<?xml version="1.0"?>
<VTKFile type="UnstructuredGrid"  version="0.1"  >
<UnstructuredGrid>
<Piece  NumberOfPoints="14307" NumberOfCells="75051">
<Points>
<DataArray  type="Float64"  NumberOfComponents="3"  format="ascii">2.8 0 1.5  2.9 0 1.5  2.9 0.1 1.5  2.9 0.1 1.6  2.9 0 1.6  2.8 0 1.6  2.8 0.1 1.5  2.8 0.1 1.6  3 0 1.5  3 0.1 1.5  3 0.1 1.6  3 0 1.6  3.1 0 1.6  3.1 0.1 1.6  2.9 0.2 1.5  2.9 0.2 1.6  3 0.2 1.6  3.1 0.2 1.6  3 0.3 1.6  2.9 0.3 1.6  2.9 0.1 1.7  2.9 0 1.7  2.8 0 1.7  2.8 0.1 1.7  3 0.1 1.7  3 0 1.7  3.1 0.1 1.7  3.1 0 1.7  3.2 0 1.6  3.2 0.1 1.6  3.2 0.1 1.7  3.2 0 1.7  3.3 0 1.6  3.3 0.1 1.6  3.3 0.1 1.7  3.3 0 1.7  3.4 0 1.6  3.4 0.1 1.6  3.4 0.1 1.7  3.4 0 1.7  3.5 0 1.6  3.5 0.1 1.6  3.5 0.1 1.7  3.5 0 1.7  3.6 0 1.7  3.6 0.1 1.7  2.9 0.2 1.7  3 0.2 1.7  3.1 0.2 1.7  3.2 0.2 1.6  3.2 0.2 1.7  3.3 0.2 1.7  3.4 0.2 1.7  3.5 0.2 1.7  3.6 0.2 1.7  3 0.3 1.7  2.9 0.3 1.7  3.1 0.3 1.6  3.1 0.3 1.7  3.2 0.3 1.7  3.3 0.3 1.7  3 0.4 1.6  3 0.4 1.7  3.1 0.4 1.7  3.2 0.4 1.7  3.1 0.5 1.7  2.7 0 1.7  2.8 0.1 1.8  2.8 0 1.8  2.7 0 1.8  2.9 0.1 1.8  2.9 0 1.8  3 0.1 1.8  3 0 1.8  3.1 0.1 1.8  3.1 0 1.8  3.2 0.1 1.8  3.2 0 1.8  3.3 0.1 1.8  3.3 0 1.8  3.4 0.1 1.8  3.4 0 1.8  3.5 0.1 1.8  3.5 0 1.8  3.6 0.1 1.8  3.6 0 1.8  3.7 0 1.7  3.7 0.1 1.7  3.7 0.1 1.8  3.7 0 1.8  3.8 0 1.8  3.8 0.1 1.8  2.9 0.2 1.8  3 0.2 1.8  3.1 0.2 1.8  3.2 0.2 1.8  3.3 0.2 1.8  3.4 0.2 1.8  3.5 0.2 1.8  3.6 0.2 1.8  3.7 0.2 1.7  3.7 0.2 1.8  3.8 0.2 1.8  3 0.3 1.8  2.9 0.3 1.8  3.1 0.3 1.8  3.2 0.3 1.8  3.3 0.3 1.8  3.4 0.3 1.7  3.4 0.3 1.8  3.5 0.3 1.8  3.6 0.3 1.8  3.7 0.3 1.8  3.8 0.3 1.8  3 0.4 1.8  3.1 0.4 1.8  3.2 0.4 1.8  3.3 0.4 1.7  3.3 0.4 1.8  3.4 0.4 1.8  3.5 0.4 1.8  3.1 0.5 1.8  3.2 0.5 1.7  3.2 0.5 1.8  3.3 0.5 1.7  3.3 0.5 1.8  3.4 0.5 1.8  3.2 0.6 1.7  3.2 0.6 1.8  3.3 0.6 1.8  3.4 0.6 1.8  2.8 0.1 1.9  2.8 0 1.9  2.7 0 1.9  2.9 0.1 1.9  2.9 0 1.9  3 0.1 1.9  3 0 1.9  3.1 0.1 1.9  3.1 0 1.9  3.2 0.1 1.9  3.2 0 1.9  3.3 0.1 1.9  3.3 0 1.9  3.4 0.1 1.9  3.4 0 1.9  3.5 0.1 1.9  3.5 0 1.9  3.6 0.1 1.9  3.6 0 1.9  3.7 0.1 1.9  3.7 0 1.9  3.8 0.1 1.9  3.8 0 1.9  3.9 0 1.8  3.9 0.1 1.8  3.9 0.1 1.9  3.9 0 1.9  4 0 1.8  4 0.1 1.8  4 0.1 1.9  4 0 1.9  4.1 0 1.9  4.1 0.1 1.9  2.9 0.2 1.9  3 0.2 1.9  3.1 0.2 1.9  3.2 0.2 1.9  3.3 0.2 1.9  3.4 0.2 1.9  3.5 0.2 1.9  3.6 0.2 1.9  3.7 0.2 1.9  3.8 0.2 1.9  3.9 0.2 1.8  3.9 0.2 1.9  4 0.2 1.9  4.1 0.2 1.9  3 0.3 1.9  2.9 0.3 1.9  3.1 0.3 1.9  3.2 0.3 1.9  3.3 0.3 1.9  3.4 0.3 1.9  3.5 0.3 1.9  3.6 0.3 1.9  3.7 0.3 1.9  3.8 0.3 1.9  3.9 0.3 1.9  4 0.3 1.9  3 0.4 1.9  3.1 0.4 1.9  3.2 0.4 1.9  3.3 0.4 1.9  3.4 0.4 1.9  3.5 0.4 1.9  3.6 0.4 1.8  3.6 0.4 1.9  3.7 0.4 1.9  3.8 0.4 1.9  3.9 0.4 1.9  3.1 0.5 1.9  3.2 0.5 1.9  3.3 0.5 1.9  3.4 0.5 1.9  3.5 0.5 1.8  3.5 0.5 1.9  3.6 0.5 1.9  3.7 0.5 1.9  3.2 0.6 1.9  3.3 0.6 1.9  3.4 0.6 1.9  3.5 0.6 1.8  3.5 0.6 1.9  3.6 0.6 1.9  3.4 0.7 1.8  3.4 0.7 1.9  3.5 0.7 1.8  3.5 0.7 1.9  3.6 0.7 1.9  3.5 0.8 1.8  3.5 0.8 1.9  3.6 0.8 1.9  2.8 0.1 2  2.8 0 2  2.7 0 2  2.7 0.1 2  2.9 0.1 2  2.9 0 2  3 0.1 2  3 0 2  3.1 0.1 2  3.1 0 2  3.2 0.1 2  3.2 0 2  3.3 0.1 2  3.3 0 2  3.4 0.1 2  3.4 0 2  3.5 0.1 2  3.5 0 2  3.6 0.1 2  3.6 0 2  3.7 0.1 2  3.7 0 2  3.8 0.1 2  3.8 0 2  3.9 0.1 2  3.9 0 2  4 0.1 2  4 0 2  4.1 0.1 2  4.1 0 2  4.2 0 1.9  4.2 0.1 1.9  4.2 0.1 2  4.2 0 2  4.3 0 2  4.3 0.1 2  2.9 0.2 2  2.8 0.2 2  3 0.2 2  3.1 0.2 2  3.2 0.2 2  3.3 0.2 2  3.4 0.2 2  3.5 0.2 2  3.6 0.2 2  3.7 0.2 2  3.8 0.2 2  3.9 0.2 2  4 0.2 2  4.1 0.2 2  4.2 0.2 1.9  4.2 0.2 2  4.3 0.2 2  3 0.3 2  2.9 0.3 2  3.1 0.3 2  3.2 0.3 2  3.3 0.3 2  3.4 0.3 2  3.5 0.3 2  3.6 0.3 2  3.7 0.3 2  3.8 0.3 2  3.9 0.3 2  4 0.3 2  4.1 0.3 1.9  4.1 0.3 2  4.2 0.3 2  4.3 0.3 2  3 0.4 2  3.1 0.4 2  3.2 0.4 2  3.3 0.4 2  3.4 0.4 2  3.5 0.4 2  3.6 0.4 2  3.7 0.4 2  3.8 0.4 2  3.9 0.4 2  4 0.4 2  4.1 0.4 2  4.2 0.4 2  3.1 0.5 2  3.2 0.5 2  3.3 0.5 2  3.4 0.5 2  3.5 0.5 2  3.6 0.5 2  3.7 0.5 2  3.8 0.5 1.9  3.8 0.5 2  3.9 0.5 2  4 0.5 2  3.2 0.6 2  3.3 0.6 2  3.4 0.6 2  3.5 0.6 2  3.6 0.6 2  3.7 0.6 1.9  3.7 0.6 2  3.8 0.6 2  3.9 0.6 2  3.3 0.7 2  3.4 0.7 2  3.5 0.7 2  3.6 0.7 2  3.7 0.7 1.9  3.7 0.7 2  3.8 0.7 2  3.5 0.8 2  3.6 0.8 2  3.7 0.8 1.9  3.7 0.8 2  3.8 0.7 1.9  3.8 0.8 1.9  3.8 0.8 2  3.9 0.8 2  3.6 0.9 2  3.7 0.9 1.9  3.7 0.9 2  3.8 0.9 1.9  3.8 0.9 2  3.9 0.9 2  3.8 1 1.9  3.8 1 2  3.9 1 2  3.9 1.1 2  2.6 0 2  2.7 0.1 2.1  2.7 0 2.1  2.6 0 2.1  2.8 0.1 2.1  2.8 0 2.1  2.9 0.1 2.1  2.9 0 2.1  3 0.1 2.1  3 0 2.1  3.1 0.1 2.1  3.1 0 2.1  3.2 0.1 2.1  3.2 0 2.1  3.3 0.1 2.1  3.3 0 2.1  3.4 0.1 2.1  3.4 0 2.1  3.5 0.1 2.1  3.5 0 2.1  3.6 0.1 2.1  3.6 0 2.1  3.7 0.1 2.1  3.7 0 2.1  3.8 0.1 2.1  3.8 0 2.1  3.9 0.1 2.1  3.9 0 2.1  4 0.1 2.1  4 0 2.1  4.1 0.1 2.1  4.1 0 2.1  4.2 0.1 2.1  4.2 0 2.1  4.3 0.1 2.1  4.3 0 2.1  4.4 0 2  4.4 0.1 2  4.4 0.1 2.1  4.4 0 2.1  4.5 0 2.1  4.5 0.1 2.1  2.8 0.2 2.1  2.9 0.2 2.1  3 0.2 2.1  3.1 0.2 2.1  3.2 0.2 2.1  3.3 0.2 2.1  3.4 0.2 2.1  3.5 0.2 2.1  3.6 0.2 2.1  3.7 0.2 2.1  3.8 0.2 2.1  3.9 0.2 2.1  4 0.2 2.1  4.1 0.2 2.1  4.2 0.2 2.1  4.3 0.2 2.1  4.4 0.2 2.1  4.5 0.2 2.1  2.9 0.3 2.1  3 0.3 2.1  3.1 0.3 2.1  3.2 0.3 2.1  3.3 0.3 2.1  3.4 0.3 2.1  3.5 0.3 2.1  3.6 0.3 2.1  3.7 0.3 2.1  3.8 0.3 2.1  3.9 0.3 2.1  4 0.3 2.1  4.1 0.3 2.1  4.2 0.3 2.1  4.3 0.3 2.1  4.4 0.3 2.1  3 0.4 2.1  3.1 0.4 2.1  3.2 0.4 2.1  3.3 0.4 2.1  3.4 0.4 2.1  3.5 0.4 2.1  3.6 0.4 2.1  3.7 0.4 2.1  3.8 0.4 2.1  3.9 0.4 2.1  4 0.4 2.1  4.1 0.4 2.1  4.2 0.4 2.1  4.3 0.4 2  4.3 0.4 2.1  4.4 0.4 2.1  3.1 0.5 2.1  3.2 0.5 2.1  3.3 0.5 2.1  3.4 0.5 2.1  3.5 0.5 2.1  3.6 0.5 2.1  3.7 0.5 2.1  3.8 0.5 2.1  3.9 0.5 2.1  4 0.5 2.1  4.1 0.5 2  4.1 0.5 2.1  4.2 0.5 2  4.2 0.5 2.1  4.3 0.5 2.1  4.4 0.5 2.1  3.2 0.6 2.1  3.3 0.6 2.1  3.4 0.6 2.1  3.5 0.6 2.1  3.6 0.6 2.1  3.7 0.6 2.1  3.8 0.6 2.1  3.9 0.6 2.1  4 0.6 2  4 0.6 2.1  4.1 0.6 2  4.1 0.6 2.1  4.2 0.6 2.1  4.3 0.6 2.1  3.3 0.7 2.1  3.4 0.7 2.1  3.5 0.7 2.1  3.6 0.7 2.1  3.7 0.7 2.1  3.8 0.7 2.1  3.9 0.7 2  3.9 0.7 2.1  4 0.7 2  4 0.7 2.1  4.1 0.7 2.1  4.2 0.7 2.1  3.4 0.8 2.1  3.5 0.8 2.1  3.6 0.8 2.1  3.7 0.8 2.1  3.8 0.8 2.1  3.9 0.8 2.1  4 0.8 2.1  4.1 0.8 2.1  3.6 0.9 2.1  3.7 0.9 2.1  3.8 0.9 2.1  3.9 0.9 2.1  4 0.9 2.1  3.7 1 2.1  3.8 1 2.1  3.9 1 2.1  4 0.9 2  4 1 2  4 1 2.1  4.1 1 2.1  3.9 1.1 2.1  3.8 1.1 2.1  4 1.1 2  4 1.1 2.1  4.1 1.1 2.1  4 1.2 2.1  3.9 1.2 2.1  3.9 1.2 2  4.1 1.2 2.1  4 1.3 2.1  2.5 0 2.1  2.6 0 2.2  2.6 0.1 2.2  2.5 0 2.2  2.7 0.1 2.2  2.7 0 2.2  2.8 0.1 2.2  2.8 0 2.2  2.9 0.1 2.2  2.9 0 2.2  3 0.1 2.2  3 0 2.2  3.1 0.1 2.2  3.1 0 2.2  3.2 0.1 2.2  3.2 0 2.2  3.3 0.1 2.2  3.3 0 2.2  3.4 0.1 2.2  3.4 0 2.2  3.5 0.1 2.2  3.5 0 2.2  3.6 0.1 2.2  3.6 0 2.2  3.7 0.1 2.2  3.7 0 2.2  3.8 0.1 2.2  3.8 0 2.2  3.9 0.1 2.2  3.9 0 2.2  4 0.1 2.2  4 0 2.2  4.1 0.1 2.2  4.1 0 2.2  4.2 0.1 2.2  4.2 0 2.2  4.3 0.1 2.2  4.3 0 2.2  4.4 0.1 2.2  4.4 0 2.2  4.5 0.1 2.2  4.5 0 2.2  4.6 0 2.1  4.6 0.1 2.1  4.6 0.1 2.2  4.6 0 2.2  4.7 0 2.2  4.7 0.1 2.2  2.8 0.2 2.2  2.9 0.2 2.2  3 0.2 2.2  3.1 0.2 2.2  3.2 0.2 2.2  3.3 0.2 2.2  3.4 0.2 2.2  3.5 0.2 2.2  3.6 0.2 2.2  3.7 0.2 2.2  3.8 0.2 2.2  3.9 0.2 2.2  4 0.2 2.2  4.1 0.2 2.2  4.2 0.2 2.2  4.3 0.2 2.2  4.4 0.2 2.2  4.5 0.2 2.2  4.6 0.2 2.2  4.7 0.2 2.2  2.9 0.3 2.2  3 0.3 2.2  3.1 0.3 2.2  3.2 0.3 2.2  3.3 0.3 2.2  3.4 0.3 2.2  3.5 0.3 2.2  3.6 0.3 2.2  3.7 0.3 2.2  3.8 0.3 2.2  3.9 0.3 2.2  4 0.3 2.2  4.1 0.3 2.2  4.2 0.3 2.2  4.3 0.3 2.2  4.4 0.3 2.2  4.5 0.3 2.2  4.6 0.3 2.2  3 0.4 2.2  2.9 0.4 2.2  3.1 0.4 2.2  3.2 0.4 2.2  3.3 0.4 2.2  3.4 0.4 2.2  3.5 0.4 2.2  3.6 0.4 2.2  3.7 0.4 2.2  3.8 0.4 2.2  3.9 0.4 2.2  4 0.4 2.2  4.1 0.4 2.2  4.2 0.4 2.2  4.3 0.4 2.2  4.4 0.4 2.2  4.5 0.4 2.2  3.1 0.5 2.2  3.2 0.5 2.2  3.3 0.5 2.2  3.4 0.5 2.2  3.5 0.5 2.2  3.6 0.5 2.2  3.7 0.5 2.2  3.8 0.5 2.2  3.9 0.5 2.2  4 0.5 2.2  4.1 0.5 2.2  4.2 0.5 2.2  4.3 0.5 2.2  4.4 0.5 2.2  4.5 0.5 2.2  3.2 0.6 2.2  3.3 0.6 2.2  3.4 0.6 2.2  3.5 0.6 2.2  3.6 0.6 2.2  3.7 0.6 2.2  3.8 0.6 2.2  3.9 0.6 2.2  4 0.6 2.2  4.1 0.6 2.2  4.2 0.6 2.2  4.3 0.6 2.2  4.4 0.6 2.1  4.4 0.6 2.2  4.5 0.6 2.2  3.3 0.7 2.2  3.4 0.7 2.2  3.5 0.7 2.2  3.6 0.7 2.2  3.7 0.7 2.2  3.8 0.7 2.2  3.9 0.7 2.2  4 0.7 2.2  4.1 0.7 2.2  4.2 0.7 2.2  4.3 0.7 2.1  4.3 0.7 2.2  4.4 0.7 2.1  4.4 0.7 2.2  4.5 0.7 2.2  3.4 0.8 2.2  3.5 0.8 2.2  3.6 0.8 2.2  3.7 0.8 2.2  3.8 0.8 2.2  3.9 0.8 2.2  4 0.8 2.2  4.1 0.8 2.2  4.2 0.8 2.1  4.2 0.8 2.2  4.3 0.8 2.2  4.4 0.8 2.2  4.5 0.8 2.2  3.5 0.9 2.1  3.5 0.9 2.2  3.6 0.9 2.2  3.7 0.9 2.2  3.8 0.9 2.2  3.9 0.9 2.2  4 0.9 2.2  4.1 0.9 2.1  4.1 0.9 2.2  4.2 0.9 2.1  4.2 0.9 2.2  4.3 0.9 2.2  3.6 1 2.2  3.7 1 2.2  3.8 1 2.2  3.9 1 2.2  4 1 2.2  4.1 1 2.2  4.2 1 2.1  4.2 1 2.2  4.3 0.9 2.1  4.3 1 2.1  4.3 1 2.2  4.4 1 2.2  3.8 1.1 2.2  3.9 1.1 2.2  4 1.1 2.2  4.1 1.1 2.2  4.2 1.1 2.1  4.2 1.1 2.2  4.3 1.1 2.1  4.3 1.1 2.2  4.4 1.1 2.2  3.9 1.2 2.2  4 1.2 2.2  4.1 1.2 2.2  4.2 1.2 2.1  4.2 1.2 2.2  4.3 1.2 2.1  4.3 1.2 2.2  4.4 1.2 2.2  4 1.3 2.2  4.1 1.3 2.1  4.1 1.3 2.2  4.2 1.3 2.1  4.2 1.3 2.2  4.3 1.3 2.1  4.3 1.3 2.2  4.4 1.2 2.1  4.4 1.3 2.1  4.4 1.3 2.2  4.5 1.3 2.2  4.1 1.4 2.1  4.1 1.4 2.2  4.2 1.4 2.1  4.2 1.4 2.2  4.3 1.4 2.1  4.3 1.4 2.2  4.4 1.4 2.2  4.5 1.4 2.2  4.3 1.5 2.2  4.4 1.5 2.2  2.6 0.1 2.3  2.6 0 2.3  2.5 0 2.3  2.5 0.1 2.3  2.7 0.1 2.3  2.7 0 2.3  2.8 0.1 2.3  2.8 0 2.3  2.9 0.1 2.3  2.9 0 2.3  3 0.1 2.3  3 0 2.3  3.1 0.1 2.3  3.1 0 2.3  3.2 0.1 2.3  3.2 0 2.3  3.3 0.1 2.3  3.3 0 2.3  3.4 0.1 2.3  3.4 0 2.3  3.5 0.1 2.3  3.5 0 2.3  3.6 0.1 2.3  3.6 0 2.3  3.7 0.1 2.3  3.7 0 2.3  3.8 0.1 2.3  3.8 0 2.3  3.9 0.1 2.3  3.9 0 2.3  4 0.1 2.3  4 0 2.3  4.1 0.1 2.3  4.1 0 2.3  4.2 0.1 2.3  4.2 0 2.3  4.3 0.1 2.3  4.3 0 2.3  4.4 0.1 2.3  4.4 0 2.3  4.5 0.1 2.3  4.5 0 2.3  4.6 0.1 2.3  4.6 0 2.3  4.7 0.1 2.3  4.7 0 2.3  4.8 0 2.2  4.8 0.1 2.2  4.8 0.1 2.3  4.8 0 2.3  4.9 0 2.2  4.9 0.1 2.2  4.9 0.1 2.3  4.9 0 2.3  5 0 2.3  5 0.1 2.3  2.7 0.2 2.2  2.7 0.2 2.3  2.6 0.2 2.3  2.8 0.2 2.3  2.9 0.2 2.3  3 0.2 2.3  3.1 0.2 2.3  3.2 0.2 2.3  3.3 0.2 2.3  3.4 0.2 2.3  3.5 0.2 2.3  3.6 0.2 2.3  3.7 0.2 2.3  3.8 0.2 2.3  3.9 0.2 2.3  4 0.2 2.3  4.1 0.2 2.3  4.2 0.2 2.3 
[...]
<PointData  Vectors="u"> 
<DataArray  type="Float64"  Name="u"  NumberOfComponents="3" format="ascii">1.8407893830942888e+02 -4.1440900236896643e-04 -5.0475709448692274e-01  1.8412937715748117e+02 -2.7728927286548575e-04 -4.6665458655608527e-01  1.8413129952198415e+02 -7.3552805929871151e-02 -4.6672925950944233e-01  1.8416538708479004e+02 -7.3704477676839505e-02 -4.3904868298907745e-01  1.8416346336375074e+02 -2.7845472522289403e-04 -4.3898052365398715e-01  1.8411942268940089e+02 -4.1593869439649774e-04 -4.7524355996773432e-01  1.8408168325793460e+02 -7.8234860880692453e-02 -5.0483374122203828e-01  1.8412217173232600e+02 -7.8391430201495180e-02 -4.7531396339099780e-01  1.8417733966363315e+02 -1.3812333331360554e-04 -4.3492952273850083e-01  1.8417843832379816e+02 -7.0506541207218901e-02 -4.3500492705686944e-01  1.8420672330350692e+02 -7.0658522230081303e-02 -4.0859495926744815e-01  1.8420562595703788e+02 -1.3900217326985083e-04 -4.0852670851620454e-01  1.8424701337807210e+02 9.1161601313840849e-06 -3.8331381485329397e-01  1.8424724509814459e+02 -6.9291016980666628e-02 -3.8338444235907865e-01  1.8413704687659876e+02 -1.4518473166051199e-01 -4.6696520975655315e-01  1.8417113776572270e+02 -1.4548268783035084e-01 -4.3926470649885307e-01  1.8421002912953517e+02 -1.3949527511132800e-01 -4.0881059523795432e-01  1.8424799525520106e+02 -1.3679065741226057e-01 -3.8360672528872020e-01  1.8421552226041135e+02 -2.0511290967223061e-01 -4.0916121166632541e-01  1.8418058799667293e+02 -2.1410455304093479e-01 -4.3961599755215425e-01  1.8419763191710416e+02 -7.3842290847535963e-02 -4.0541936209660490e-01  1.8419570645564283e+02 -2.7977885898034692e-04 -4.0535813319940445e-01  1.8415745781299876e+02 -4.1759258824275328e-04 -4.3918338823996117e-01  1.8416021094950611e+02 -7.8534407877519738e-02 -4.3924698755996144e-01  1.8423373179370034e+02 -7.0795630732760323e-02 -3.7680253429619676e-01  1.8423263496811310e+02 -1.4007323849575364e-04 -3.7674168250777551e-01  1.8426955778084906e+02 -6.9431776942837878e-02 -3.5286991682620256e-01  1.8426932879945508e+02 8.2254146487785561e-06 -3.5280752184719349e-01  1.8428884897505631e+02 1.7432373495703457e-04 -3.6278826351274368e-01  1.8428812866024575e+02 -6.9723025368572861e-02 -3.6286356549460447e-01  1.8430628056104774e+02 -6.9871786467878880e-02 -3.3310386941770082e-01  1.8430700583088378e+02 1.7353991334248078e-04 -3.3303804218751915e-01  1.8433256965560389e+02 3.6791120791928548e-04 -3.4639645411537145e-01  1.8433074866864115e+02 -7.2182344783643174e-02 -3.4647879278929677e-01  1.8434528333611715e+02 -7.2343530964289277e-02 -3.1698430688674700e-01  1.8434711152016803e+02 3.6715601191673772e-04 -3.1691315163470613e-01  1.8437995548450564e+02 6.0583993318456114e-04 -3.3356778753717953e-01  1.8437679839993049e+02 -7.7041581351909749e-02 -3.3365963144190858e-01  1.8438828351289129e+02 -7.7219746039858483e-02 -3.0397586060321374e-01  1.8439145007491652e+02 6.0502610061313484e-04 -3.0389744913439454e-01  1.8443331750732162e+02 9.1170626174940077e-04 -3.2369594609360841e-01  1.8442846206564144e+02 -8.4879991421729487e-02 -3.2379989879573090e-01  1.8443750583378369e+02 -8.5079839501107438e-02 -2.9351427424954663e-01  1.8444237306574635e+02 9.1073194673266722e-04 -2.9342663115615591e-01  1.8450306015414924e+02 1.3205690597098388e-03 -2.8489419261755600e-01  1.8449593692276773e+02 -9.6811129543838553e-02 -2.8499309395526029e-01  1.8420338684864552e+02 -1.4575325292259098e-01 -4.0561395782885501e-01  1.8423703538836290e+02 -1.3976452604841733e-01 -3.7699548516167336e-01  1.8427029930276956e+02 -1.3706704718838683e-01 -3.5306711240753547e-01  1.8428607608468462e+02 -1.3759676354469144e-01 -3.6309958551446458e-01  1.8430421289832057e+02 -1.3788871378412196e-01 -3.3331112566481125e-01  1.8433998061729670e+02 -1.4265932406762999e-01 -3.1720745467403716e-01  1.8437907238500404e+02 -1.5207996959624762e-01 -3.0422079938922608e-01  1.8442335431234417e+02 -1.6723460490145411e-01 -2.9378698459860775e-01  1.8447527218550721e+02 -1.8977039462287171e-01 -2.8529960334977383e-01  1.8424252508663295e+02 -2.0550701366937221e-01 -3.7730910161307762e-01  1.8421284410723879e+02 -2.1450098363370751e-01 -4.0593028700662992e-01  1.8424936726714608e+02 -2.0085401730179558e-01 -3.8396795322293398e-01  1.8427165758841386e+02 -2.0125798679020693e-01 -3.5338747040687418e-01  1.8430106528213423e+02 -2.0204779883379231e-01 -3.3364752438682593e-01  1.8433168005467755e+02 -2.0844151955121648e-01 -3.1756916716762940e-01  1.8422339044628598e+02 -2.6607382169636784e-01 -4.0963844472838634e-01  1.8425038934546942e+02 -2.6658228202982481e-01 -3.7773621197470753e-01  1.8427402716443046e+02 -2.6050030109532324e-01 -3.5382296466333618e-01  1.8429749980072279e+02 -2.6071304978909593e-01 -3.3410379912145816e-01  1.8427782265281638e+02 -3.1356074006377643e-01 -3.5436129238298714e-01  1.8411686316266383e+02 -5.5925860246927714e-04 -4.7876235632192166e-01  1.8419520987357967e+02 -7.8662671506884760e-02 -3.9729615032360116e-01  1.8419245276965123e+02 -4.1932661598975549e-04 -3.9723979482374938e-01  1.8415753820202656e+02 -5.6137075906199918e-04 -4.3315132414949453e-01  1.8422747501532984e+02 -7.3965375042051126e-02 -3.6645482665472767e-01  1.8422554758276991e+02 -2.8121453336571147e-04 -3.6640083336159707e-01  1.8425892694302712e+02 -7.0917308402688159e-02 -3.4020074276520257e-01  1.8425783003725553e+02 -1.4128351942746696e-04 -3.4014743244041945e-01  1.8429060161389160e+02 -6.9555675443736517e-02 -3.1805875166139536e-01  1.8429037437586521e+02 7.1725072081431632e-06 -3.1800453082789787e-01  1.8432366759875055e+02 -7.0001458216868498e-02 -2.9955865530563969e-01  1.8432439639229437e+02 1.7257506498929436e-04 -2.9950198097137809e-01  1.8435951653572590e+02 -7.2482504038305667e-02 -2.8422675697638355e-01  1.8436134999776775e+02 3.6620918937587099e-04 -2.8416611684822080e-01  1.8439988564867420e+02 -7.7371553217913142e-02 -2.7157653984115743e-01  1.8440305921976477e+02 6.0402079672134171e-04 -2.7151043321218915e-01  1.8444703085267733e+02 -8.5248023455549382e-02 -2.6109919905877921e-01  1.8445190679347419e+02 9.0958590999242514e-04 -2.6102612879707349e-01  1.8450398003805768e+02 -9.6999223379447150e-02 -2.5225502531439875e-01  1.8451111363035241e+02 1.3191933381075413e-03 -2.5217349738955153e-01  1.8457795113317798e+02 1.8928645345572376e-03 -2.7763997464810414e-01  1.8456771094682966e+02 -1.1377821954221472e-01 -2.7775220948583157e-01  1.8457491576935232e+02 -1.1398971198870081e-01 -2.4446699048304649e-01  1.8458516789936229e+02 1.8911643256455219e-03 -2.4437551766761767e-01  1.8468050789054021e+02 2.7220161181264442e-03 -2.3701536283511604e-01  1.8466577162383351e+02 -1.3835310234857895e-01 -2.3711826277377820e-01  1.8423323471231333e+02 -1.4599472709002850e-01 -3.6662688177201214e-01  1.8426222985666666e+02 -1.4000330942644829e-01 -3.4037034102509994e-01  1.8429133717053529e+02 -1.3731017986993960e-01 -3.1823076788191618e-01  1.8432158875802813e+02 -1.3814307083380020e-01 -2.9973781374002223e-01  1.8435419744230259e+02 -1.4293170877104522e-01 -2.8441768995375571e-01  1.8439065294170339e+02 -1.5237715759862686e-01 -2.7178381411470515e-01  1.8443285255556748e+02 -1.6756334440017520e-01 -2.6132731133795600e-01  1.8448328338749465e+02 -1.9013735301610252e-01 -2.5250836540456190e-01  1.8453811344116403e+02 -2.2219434299198229e-01 -2.7809851206659103e-01  1.8454528134578004e+02 -2.2260600451591075e-01 -2.4474978764568972e-01  1.8462340485384803e+02 -2.6883602105104126e-01 -2.3743453006398049e-01  1.8426771863729709e+02 -2.0585660348263213e-01 -3.4064587295108806e-01  1.8424269984061351e+02 -2.1485483078810466e-01 -3.6690643960231822e-01  1.8429268603980577e+02 -2.0161348341223059e-01 -3.1851010274903585e-01  1.8431842338533315e+02 -2.0241908917200777e-01 -3.0002851061563451e-01  1.8434587086244932e+02 -2.0883832851898676e-01 -2.8472712135162653e-01  1.8436460004237142e+02 -2.2136166644860317e-01 -3.0461714456656341e-01  1.8437614638151652e+02 -2.2179361033171482e-01 -2.7211920013734026e-01  1.8441061754927134e+02 -2.4270101513036413e-01 -2.6169569777047702e-01  1.8445098821298566e+02 -2.7368514509023500e-01 -2.5291655157066067e-01  1.8449939653950793e+02 -3.1792158223532502e-01 -2.4520420358421888e-01  1.8455850908285004e+02 -3.8019192170452537e-01 -2.3794110748077676e-01  1.8427558223069306e+02 -2.6703359070120547e-01 -3.4102128534427423e-01  1.8429504358610171e+02 -2.6095831812388931e-01 -3.1889007162401189e-01  1.8431483478381804e+02 -2.6119024246920897e-01 -3.0042313344206473e-01  1.8432140918638535e+02 -2.6783752825791579e-01 -3.1805850371491484e-01  1.8433556596963609e+02 -2.6834607070063249e-01 -2.8514618530971642e-01  1.8435791603870092e+02 -2.8343805263509497e-01 -2.7257220885214944e-01  1.8438264447115432e+02 -3.0800740257674492e-01 -2.6219182298536953e-01  1.8429882548189065e+02 -3.1410903560644893e-01 -3.1936019077668731e-01  1.8429425147785096e+02 -3.1260105985241554e-01 -3.3466617795824011e-01  1.8431155952341243e+02 -3.1317053233174924e-01 -3.0091009568311183e-01  1.8431032841625253e+02 -3.1947601936791770e-01 -3.1865962074015974e-01  1.8432444526326594e+02 -3.2008073767840173e-01 -2.8566173149317026e-01  1.8433771325563930e+02 -3.3581216968126387e-01 -2.7312761886726578e-01  1.8429208561816540e+02 -3.5679966811761205e-01 -3.3531885091559732e-01  1.8430936460633839e+02 -3.5744595209581698e-01 -3.0147610180316858e-01  1.8431371353561980e+02 -3.6316523524924449e-01 -2.8625873994083367e-01  1.8431732563374047e+02 -3.7810476959192096e-01 -2.7376815236277263e-01  1.8422663625403871e+02 -7.8775353578290797e-02 -3.5015648419545842e-01  1.8422387542446583e+02 -4.2109718871357384e-04 -3.5010770921013828e-01  1.8419391585069556e+02 -5.6348374025244033e-04 -3.8183978698976101e-01  1.8425440676818477e+02 -7.4073093714715640e-02 -3.2279247376771392e-01  1.8425247727449820e+02 -2.8271682005664279e-04 -3.2274593396583084e-01  1.8428181426334413e+02 -7.1023205960568117e-02 -2.9937651861739867e-01  1.8428071685691100e+02 -1.4258522157493172e-04 -2.9933082294113406e-01  1.8430988793065418e+02 -6.9662734222919312e-02 -2.7949216502543933e-01  1.8430966167298823e+02 6.0064392034694382e-06 -2.7944600788930846e-01  1.8433979623252472e+02 -7.0112549666852611e-02 -2.6272528837042636e-01  1.8434052742463871e+02 1.7148444686344600e-04 -2.6267742729350602e-01  1.8437293831754982e+02 -7.2600418592541641e-02 -2.4865808401300121e-01  1.8437477554216662e+02 3.6513201178299082e-04 -2.4860732287192103e-01  1.8441106689101528e+02 -7.7499017169788645e-02 -2.3686256826212221e-01  1.8441424553591889e+02 6.0289286824907057e-04 -2.3680774607401558e-01  1.8445646084645358e+02 -8.5387697126515089e-02 -2.2689427337070878e-01  1.8446134311225651e+02 9.0833998153460195e-04 -2.2683425936377716e-01  1.8451217700600992e+02 -9.7153683499617116e-02 -2.1828700699193995e-01  1.8451931810277921e+02 1.3177604233394590e-03 -2.1822070136710170e-01  1.8458242991124226e+02 -1.1416142526511232e-01 -2.1054977555392113e-01  1.8459269064592974e+02 1.8894754384642062e-03 -2.1047610927689933e-01  1.8467318363438019e+02 -1.3854441263741868e-01 -2.0316713436363884e-01  1.8468792953894507e+02 2.7200106764092933e-03 -2.0308506282580532e-01  1.8480664415689387e+02 3.9815766340729466e-03 -2.2943983812393631e-01  1.8478519992453562e+02 -1.7351191925806028e-01 -2.2955567182833728e-01  1.8479311324503740e+02 -1.7372508871869916e-01 -1.9560436817924406e-01  1.8481456815016892e+02 3.9792098962878825e-03 -1.9551283590805704e-01  1.8497816563876353e+02 5.9976589449502425e-03 -2.2097087710321550e-01  1.8494618899646784e+02 -2.2516721736840895e-01 -2.2110127824888900e-01  1.8495521421781746e+02 -2.2540461130693204e-01 -1.8731879265227791e-01  1.8498720275336441e+02 5.9949249902871028e-03 -1.8721662968499100e-01  1.8522891302583622e+02 9.2381783146782397e-03 -1.7766373100817032e-01  1.8517958564562201e+02 -3.0343646714313577e-01 -1.7777806227234272e-01  1.8426017136806283e+02 -1.4620586846069814e-01 -3.2294118541795241e-01  1.8428511757011105e+02 -1.4021094779860493e-01 -2.9952236479313926e-01  1.8431061956914164e+02 -1.3752010171556545e-01 -2.7963911917936479e-01  1.8433770930301750e+02 -1.3836083037608843e-01 -2.6287714189787426e-01  1.8436760707124324e+02 -1.4316268605998572e-01 -2.4881848018930869e-01  1.8440181806643261e+02 -1.5262658295881551e-01 -2.3703501738039059e-01  1.8444226258544722e+02 -1.6783628404106735e-01 -2.2708214136358862e-01  1.8449145670351962e+02 -1.9043866137177889e-01 -2.1849349041272864e-01  1.8455276835193965e+02 -2.2294026052352414e-01 -2.1077786324823194e-01  1.8463078645983546e+02 -2.6920746995569106e-01 -2.0341959151528965e-01  1.8472397801430461e+02 -3.3492605465782727e-01 -2.2990922103320410e-01  1.8473185777268048e+02 -3.3533863431957539e-01 -1.9588379335948486e-01  1.8486485908011139e+02 -4.3123591047928445e-01 -1.8762785449899783e-01  1.8504233629399477e+02 -5.7356736764082517e-01 -1.7812013043129057e-01  1.8429060716886727e+02 -2.0616062827505660e-01 -2.9975916246657131e-01  1.8426964459120842e+02 -2.1516422920849659e-01 -3.2318266509316207e-01  1.8431196232455702e+02 -2.0192049633753956e-01 -2.7987761895769048e-01  1.8433453114192579e+02 -2.0273708655622580e-01 -2.6312341074381901e-01  1.8435926124241138e+02 -2.0917501492968502e-01 -2.4907832172638095e-01  1.8438728600787940e+02 -2.2215641985662984e-01 -2.3731398415103702e-01  1.8441999609065962e+02 -2.4309707526066213e-01 -2.2738551505095259e-01  1.8445912439712049e+02 -2.7412118945987218e-01 -2.1882621900487254e-01  1.8450684122046340e+02 -3.1840381137688800e-01 -2.1114448583600268e-01  1.8456584369642974e+02 -3.8072586147146020e-01 -2.0382417530138747e-01  1.8463939069423003e+02 -4.6839163118021560e-01 -1.9632994900835263e-01  1.8473115563923548e+02 -5.9277728320428968e-01 -1.8811896553963900e-01  1.8429847232494163e+02 -2.6742627172269762e-01 -3.0008190175395671e-01  1.8431431214916179e+02 -2.6135414066765172e-01 -2.8020219780575151e-01  1.8433092592571344e+02 -2.6159931279196214e-01 -2.6345794688329549e-01  1.8434893118382749e+02 -2.6877805744664529e-01 -2.4943053286788480e-01  1.8436902231012127e+02 -2.8390219644285375e-01 -2.3769119788296314e-01  1.8439198191244364e+02 -3.0851244641961439e-01 -2.2779461462833539e-01  1.8441058446119905e+02 -3.4432718375220300e-01 -2.5346449416690719e-01  1.8441867239741018e+02 -3.4488122280964323e-01 -2.1927354616544029e-01  1.8444998281376235e+02 -3.9632051502874960e-01 -2.1163568924629314e-01  1.8448667903727483e+02 -4.6764980660787797e-01 -2.0436405633697818e-01  1.8452905000863925e+02 -5.6590612058163048e-01 -1.9692235422144500e-01  1.8431808549918009e+02 -3.1458334271190275e-01 -2.8060408067190767e-01  1.8432763138829151e+02 -3.1365932174490080e-01 -2.6387115962456820e-01  1.8433778097780089e+02 -3.2059522246581224e-01 -2.4986436095081882e-01  1.8434878035524142e+02 -3.3636294063568917e-01 -2.3815436240405882e-01  1.8435152611647851e+02 -3.6183423219318434e-01 -2.6279782114056555e-01  1.8436081540221466e+02 -3.6243114938547921e-01 -2.2829519021059508e-01  1.8437393277340627e+02 -4.0092156477414442e-01 -2.1981880139616553e-01  1.8438788560516579e+02 -4.5482867134413391e-01 -2.1223185961462698e-01  1.8432541580298351e+02 -3.5800151963463434e-01 -2.6435206007040124e-01  1.8432701713237967e+02 -3.6374776226402411e-01 -2.5036753302478187e-01  1.8432834994211902e+02 -3.7872573255547343e-01 -2.3868952587127953e-01  1.8431984705024720e+02 -4.0350859037367737e-01 -2.6349357925824163e-01  1.8432908383725723e+02 -4.0417847359119252e-01 -2.2887118785217839e-01  1.8432860394688200e+02 -4.4186021901860145e-01 -2.2044338138156230e-01  1.8429834938380654e+02 -4.1013140996128900e-01 -2.7447509314880891e-01  1.8430932946380381e+02 -4.1080533331275748e-01 -2.3928147541262718e-01  1.8428985448546916e+02 -4.3319731387979532e-01 -2.6425758997849519e-01  1.8429903708682741e+02 -4.3392059844613212e-01 -2.2950531983902359e-01  1.8428577614802532e+02 -4.6845103410939481e-01 -2.2112752119787649e-01  1.8426327588766341e+02 -4.5168026338017880e-01 -2.6506829462379622e-01  1.8427240500704616e+02 -4.5243773601655474e-01 -2.3018013574997997e-01  1.8424770482242278e+02 -4.8219229484904130e-01 -2.2185156344548931e-01  1.8425402227777951e+02 -7.8871800902567138e-02 -2.9854520824842573e-01  1.8425125806109747e+02 -4.2287150695929335e-04 -2.9850426695553178e-01  1.8422550930831943e+02 -5.6556514230554167e-04 -3.2561529180024179e-01  1.8422913913374762e+02 -8.5267356965709015e-02 -3.2565946640134802e-01  1.8427797477900950e+02 -7.4164994460540243e-02 -2.7508614223227684e-01  1.8427604325888817e+02 -2.8425259265107516e-04 -2.7504720665470472e-01  1.8430195132101733e+02 -7.1113127585393718e-02 -2.5492564598354051e-01  1.8430085315177070e+02 -1.4394420972554557e-04 -2.5488758951698204e-01  1.8432697739515504e+02 -6.9753086427214492e-02 -2.3771116298577361e-01  1.8432675155794320e+02 4.7674730423372071e-06 -2.3767293912833046e-01  1.8435422240528382e+02 -7.0205617056131181e-02 -2.2309085877707208e-01  1.8435495513312162e+02 1.7031000130895155e-04 -2.2305148542054265e-01  1.8438509172910506e+02 -7.2698382602119846e-02 -2.1070953158175509e-01  1.8438693154021192e+02 3.6396862657399326e-04 -2.1066807710896884e-01  1.8442134964452541e+02 -7.7603962178418931e-02 -2.0020426968747615e-01  1.8442453186329510e+02 6.0168550098562150e-04 -2.0015984689469998e-01  1.8446529131237776e+02 -8.5501609483366325e-02 -1.9120045511999093e-01  1.8447017807120056e+02 9.0703614535470468e-04 -1.9115221819513978e-01  1.8451999298571513e+02 -9.7278436209923214e-02 -1.8330882954085961e-01  1.8452713942000483e+02 1.3163054141996848e-03 -1.8325597282881018e-01  1.8458968922853347e+02 -1.1429876536687450e-01 -1.7612445087901712e-01  1.8459995607299984e+02 1.8878205081769019e-03 -1.7606620873756140e-01  1.8468036103520518e+02 -1.3869596547706536e-01 -1.6922846618422455e-01  1.8469511376937717e+02 2.7181126501886841e-03 -1.6916410057848280e-01  1.8480069248255006e+02 -1.7389241586519108e-01 -1.6219359576568806e-01  1.8482215495458615e+02 3.9770429496748996e-03 -1.6212236067201888e-01  1.8496367448096555e+02 -2.2558939705561448e-01 -1.5459408836818725e-01  1.8499567151039909e+02 5.9924977958670297e-03 -1.5451513721473747e-01  1.8518938206768905e+02 -3.0364097398870810e-01 -1.4602048564614931e-01  1.8523871943103742e+02 9.2355574963403735e-03 -1.4593264909184553e-01  1.8557802852887386e+02 1.5658987225768927e-02 -1.6635652898863790e-01  1.8549929933225397e+02 -4.2591410503333427e-01 -1.6648549632657003e-01  1.8551083835212782e+02 -4.2614223241235427e-01 -1.3609882095953912e-01  1.8558958039268637e+02 1.5656415312473818e-02 -1.3600013405924652e-01  1.8612340785534479e+02 2.7047092931755761e-02 -1.2439931138231224e-01  1.8598102314224508e+02 -6.3012050074547843e-01 -1.2451286241790879e-01  1.8428374408537800e+02 -1.4638579123208756e-01 -2.7521094937409518e-01  1.8426225773268882e+02 -1.5562573894482748e-01 -2.9867633507590668e-01  1.8430525566896878e+02 -1.4038705901380030e-01 -2.5504752971419781e-01  1.8432770661584655e+02 -1.3769707145562562e-01 -2.3783329449995569e-01  1.8435212976734391e+02 -1.3854307709324773e-01 -2.2321622379095873e-01  1.8437975163099071e+02 -1.4335441229332591e-01 -2.1084095056630900e-01  1.8441208897141473e+02 -1.5283178722162141e-01 -2.0034440604466802e-01  1.8445107836961580e+02 -1.6805874471087157e-01 -1.9135180712343047e-01  1.8449925535772564e+02 -1.9068190494419487e-01 -1.8347370978153524e-01  1.8456000791161102e+02 -2.2320752198640245e-01 -1.7630496984534974e-01  1.8463794186082802e+02 -2.6950167671723257e-01 -1.6942653597712240e-01  1.8473941282830762e+02 -3.3566247836534541e-01 -1.6241100932383029e-01  1.8487329267007155e+02 -4.3159211604138464e-01 -1.5483275191148047e-01  1.8505210236352460e+02 -5.7395937924218898e-01 -1.4628297580802488e-01  1.8528166685506457e+02 -7.9177505619746147e-01 -1.6686612524594985e-01  1.8529316866066225e+02 -7.9220858325385934e-01 -1.3638963187982056e-01  1.8561982029279764e+02 -1.1399405124599866e+00 -1.2484109650310102e-01  1.8431074712944701e+02 -2.0641847822308404e-01 -2.5524524686942018e-01  1