<?xml version="1.0"?>
<VTKFile type="UnstructuredGrid"  version="0.1"  >
<UnstructuredGrid>
<Piece  NumberOfPoints="14738" NumberOfCells="77507">
<Points>
<DataArray  type="Float64"  NumberOfComponents="3"  format="ascii">1 0 1.1  1.1 0 1.1  1.1 0.1 1.1  1.1 0.1 1.2  1.1 0 1.2  1 0 1.2  1 0.1 1.1  1 0.1 1.2  1.2 0 1.1  1.2 0.1 1.1  1.2 0.1 1.2  1.2 0 1.2  1.3 0 1.1  1.3 0.1 1.1  1.3 0.1 1.2  1.3 0 1.2  1.4 0 1.1  1.4 0.1 1.1  1.4 0.1 1.2  1.4 0 1.2  1.5 0 1.1  1.5 0.1 1.1  1.5 0.1 1.2  1.5 0 1.2  1.6 0 1.1  1.6 0.1 1.1  1.6 0.1 1.2  1.6 0 1.2  1.7 0 1.1  1.7 0.1 1.1  1.7 0.1 1.2  1.7 0 1.2  1.8 0 1.2  1.8 0.1 1.2  1.1 0.2 1.2  1 0.2 1.2  1.2 0.2 1.2  1.3 0.2 1.2  1.4 0.2 1.1  1.4 0.2 1.2  1.3 0.2 1.1  1.5 0.2 1.1  1.5 0.2 1.2  1.6 0.2 1.2  1.7 0.2 1.2  1.8 0.2 1.2  1.4 0.3 1.2  1.5 0.3 1.2  1.6 0.3 1.2  1.1 0.1 1.3  1.1 0 1.3  1 0 1.3  1.2 0.1 1.3  1.2 0 1.3  1.3 0.1 1.3  1.3 0 1.3  1.4 0.1 1.3  1.4 0 1.3  1.5 0.1 1.3  1.5 0 1.3  1.6 0.1 1.3  1.6 0 1.3  1.7 0.1 1.3  1.7 0 1.3  1.8 0.1 1.3  1.8 0 1.3  1.9 0 1.2  1.9 0.1 1.2  1.9 0.1 1.3  1.9 0 1.3  2 0 1.2  2 0.1 1.2  2 0.1 1.3  2 0 1.3  2.1 0 1.2  2.1 0.1 1.2  2.1 0.1 1.3  2.1 0 1.3  2.2 0 1.2  2.2 0.1 1.2  2.2 0.1 1.3  2.2 0 1.3  2.3 0 1.3  2.3 0.1 1.3  1.1 0.2 1.3  1.2 0.2 1.3  1.3 0.2 1.3  1.4 0.2 1.3  1.5 0.2 1.3  1.6 0.2 1.3  1.7 0.2 1.3  1.8 0.2 1.3  1.9 0.2 1.2  1.9 0.2 1.3  2 0.2 1.2  2 0.2 1.3  2.1 0.2 1.2  2.1 0.2 1.3  2.2 0.2 1.3  2.3 0.2 1.3  1.1 0.3 1.3  1.2 0.3 1.2  1.2 0.3 1.3  1.1 0.3 1.2  1.3 0.3 1.2  1.3 0.3 1.3  1.4 0.3 1.3  1.5 0.3 1.3  1.6 0.3 1.3  1.7 0.3 1.2  1.7 0.3 1.3  1.8 0.3 1.2  1.8 0.3 1.3  1.9 0.3 1.2  1.9 0.3 1.3  2 0.3 1.2  2 0.3 1.3  2.1 0.3 1.3  2.2 0.3 1.3  1.2 0.4 1.3  1.3 0.4 1.3  1.4 0.4 1.3  1.5 0.4 1.2  1.5 0.4 1.3  1.4 0.4 1.2  1.6 0.4 1.2  1.6 0.4 1.3  1.7 0.4 1.2  1.7 0.4 1.3  1.8 0.4 1.2  1.8 0.4 1.3  1.9 0.4 1.3  2 0.4 1.3  2.1 0.4 1.3  1.5 0.5 1.3  1.6 0.5 1.3  1.7 0.5 1.3  1.8 0.5 1.3  1.9 0.5 1.3  1.1 0.1 1.4  1.1 0 1.4  1 0 1.4  1.2 0.1 1.4  1.2 0 1.4  1.3 0.1 1.4  1.3 0 1.4  1.4 0.1 1.4  1.4 0 1.4  1.5 0.1 1.4  1.5 0 1.4  1.6 0.1 1.4  1.6 0 1.4  1.7 0.1 1.4  1.7 0 1.4  1.8 0.1 1.4  1.8 0 1.4  1.9 0.1 1.4  1.9 0 1.4  2 0.1 1.4  2 0 1.4  2.1 0.1 1.4  2.1 0 1.4  2.2 0.1 1.4  2.2 0 1.4  2.3 0.1 1.4  2.3 0 1.4  2.4 0 1.3  2.4 0.1 1.3  2.4 0.1 1.4  2.4 0 1.4  2.5 0 1.3  2.5 0.1 1.3  2.5 0.1 1.4  2.5 0 1.4  2.6 0 1.4  2.6 0.1 1.4  1.2 0.2 1.4  1.1 0.2 1.4  1.3 0.2 1.4  1.4 0.2 1.4  1.5 0.2 1.4  1.6 0.2 1.4  1.7 0.2 1.4  1.8 0.2 1.4  1.9 0.2 1.4  2 0.2 1.4  2.1 0.2 1.4  2.2 0.2 1.4  2.3 0.2 1.4  2.4 0.2 1.3  2.4 0.2 1.4  2.5 0.2 1.4  2.6 0.2 1.4  1.2 0.3 1.4  1.1 0.3 1.4  1.3 0.3 1.4  1.4 0.3 1.4  1.5 0.3 1.4  1.6 0.3 1.4  1.7 0.3 1.4  1.8 0.3 1.4  1.9 0.3 1.4  2 0.3 1.4  2.1 0.3 1.4  2.2 0.3 1.4  2.3 0.3 1.3  2.3 0.3 1.4  2.4 0.3 1.4  2.5 0.3 1.4  1.2 0.4 1.4  1.3 0.4 1.4  1.4 0.4 1.4  1.5 0.4 1.4  1.6 0.4 1.4  1.7 0.4 1.4  1.8 0.4 1.4  1.9 0.4 1.4  2 0.4 1.4  2.1 0.4 1.4  2.2 0.4 1.3  2.2 0.4 1.4  2.3 0.4 1.3  2.3 0.4 1.4  2.4 0.4 1.4  1.5 0.5 1.4  1.6 0.5 1.4  1.7 0.5 1.4  1.8 0.5 1.4  1.9 0.5 1.4  2 0.5 1.3  2 0.5 1.4  2.1 0.5 1.3  2.1 0.5 1.4  2.2 0.5 1.3  2.2 0.5 1.4  2.3 0.5 1.4  2.4 0.5 1.4  1.6 0.6 1.4  1.7 0.6 1.3  1.7 0.6 1.4  1.6 0.6 1.3  1.8 0.6 1.3  1.8 0.6 1.4  1.9 0.6 1.4  2 0.6 1.4  2.1 0.6 1.4  2.2 0.6 1.4  2.3 0.6 1.4  1.7 0.7 1.4  1.6 0.7 1.4  1.8 0.7 1.4  1.9 0.7 1.4  1.1 0.1 1.5  1.1 0 1.5  1.2 0.1 1.5  1.2 0 1.5  1.3 0.1 1.5  1.3 0 1.5  1.4 0.1 1.5  1.4 0 1.5  1.5 0.1 1.5  1.5 0 1.5  1.6 0.1 1.5  1.6 0 1.5  1.7 0.1 1.5  1.7 0 1.5  1.8 0.1 1.5  1.8 0 1.5  1.9 0.1 1.5  1.9 0 1.5  2 0.1 1.5  2 0 1.5  2.1 0.1 1.5  2.1 0 1.5  2.2 0.1 1.5  2.2 0 1.5  2.3 0.1 1.5  2.3 0 1.5  2.4 0.1 1.5  2.4 0 1.5  2.5 0.1 1.5  2.5 0 1.5  2.6 0.1 1.5  2.6 0 1.5  2.7 0 1.4  2.7 0.1 1.4  2.7 0.1 1.5  2.7 0 1.5  2.8 0 1.5  2.8 0.1 1.5  1.2 0.2 1.5  1.1 0.2 1.5  1.3 0.2 1.5  1.4 0.2 1.5  1.5 0.2 1.5  1.6 0.2 1.5  1.7 0.2 1.5  1.8 0.2 1.5  1.9 0.2 1.5  2 0.2 1.5  2.1 0.2 1.5  2.2 0.2 1.5  2.3 0.2 1.5  2.4 0.2 1.5  2.5 0.2 1.5  2.6 0.2 1.5  2.7 0.2 1.5  2.8 0.2 1.5  1.2 0.3 1.5  1.1 0.3 1.5  1.3 0.3 1.5  1.4 0.3 1.5  1.5 0.3 1.5  1.6 0.3 1.5  1.7 0.3 1.5  1.8 0.3 1.5  1.9 0.3 1.5  2 0.3 1.5  2.1 0.3 1.5  2.2 0.3 1.5  2.3 0.3 1.5  2.4 0.3 1.5  2.5 0.3 1.5  2.6 0.3 1.4  2.6 0.3 1.5  2.7 0.3 1.5  1.2 0.4 1.5  1.3 0.4 1.5  1.4 0.4 1.5  1.5 0.4 1.5  1.6 0.4 1.5  1.7 0.4 1.5  1.8 0.4 1.5  1.9 0.4 1.5  2 0.4 1.5  2.1 0.4 1.5  2.2 0.4 1.5  2.3 0.4 1.5  2.4 0.4 1.5  2.5 0.4 1.4  2.5 0.4 1.5  2.6 0.4 1.5  2.7 0.4 1.5  1.3 0.5 1.5  1.2 0.5 1.5  1.4 0.5 1.5  1.5 0.5 1.5  1.4 0.5 1.4  1.6 0.5 1.5  1.7 0.5 1.5  1.8 0.5 1.5  1.9 0.5 1.5  2 0.5 1.5  2.1 0.5 1.5  2.2 0.5 1.5  2.3 0.5 1.5  2.4 0.5 1.5  2.5 0.5 1.5  2.6 0.5 1.5  1.5 0.6 1.5  1.6 0.6 1.5  1.7 0.6 1.5  1.8 0.6 1.5  1.9 0.6 1.5  2 0.6 1.5  2.1 0.6 1.5  2.2 0.6 1.5  2.3 0.6 1.5  2.4 0.6 1.4  2.4 0.6 1.5  2.5 0.6 1.5  1.7 0.7 1.5  1.6 0.7 1.5  1.8 0.7 1.5  1.9 0.7 1.5  2 0.7 1.4  2 0.7 1.5  2.1 0.7 1.4  2.1 0.7 1.5  2.2 0.7 1.4  2.2 0.7 1.5  2.3 0.7 1.4  2.3 0.7 1.5  2.4 0.7 1.5  2.5 0.7 1.5  1.7 0.8 1.4  1.7 0.8 1.5  1.6 0.8 1.4  1.6 0.8 1.5  1.8 0.8 1.4  1.8 0.8 1.5  1.9 0.8 1.4  1.9 0.8 1.5  2 0.8 1.5  2.1 0.8 1.5  2.2 0.8 1.5  2.3 0.8 1.5  2.4 0.8 1.5  1.7 0.9 1.5  1.8 0.9 1.5  1.9 0.9 1.5  2 0.9 1.5  1.2 0.1 1.6  1.2 0 1.6  1.1 0 1.6  1.1 0.1 1.6  1.3 0.1 1.6  1.3 0 1.6  1.4 0.1 1.6  1.4 0 1.6  1.5 0.1 1.6  1.5 0 1.6  1.6 0.1 1.6  1.6 0 1.6  1.7 0.1 1.6  1.7 0 1.6  1.8 0.1 1.6  1.8 0 1.6  1.9 0.1 1.6  1.9 0 1.6  2 0.1 1.6  2 0 1.6  2.1 0.1 1.6  2.1 0 1.6  2.2 0.1 1.6  2.2 0 1.6  2.3 0.1 1.6  2.3 0 1.6  2.4 0.1 1.6  2.4 0 1.6  2.5 0.1 1.6  2.5 0 1.6  2.6 0.1 1.6  2.6 0 1.6  2.7 0.1 1.6  2.7 0 1.6  2.8 0.1 1.6  2.8 0 1.6  1.2 0.2 1.6  1.1 0.2 1.6  1.3 0.2 1.6  1.4 0.2 1.6  1.5 0.2 1.6  1.6 0.2 1.6  1.7 0.2 1.6  1.8 0.2 1.6  1.9 0.2 1.6  2 0.2 1.6  2.1 0.2 1.6  2.2 0.2 1.6  2.3 0.2 1.6  2.4 0.2 1.6  2.5 0.2 1.6  2.6 0.2 1.6  2.7 0.2 1.6  2.8 0.2 1.6  2.9 0.2 1.5  2.9 0.2 1.6  1.2 0.3 1.6  1.3 0.3 1.6  1.4 0.3 1.6  1.5 0.3 1.6  1.6 0.3 1.6  1.7 0.3 1.6  1.8 0.3 1.6  1.9 0.3 1.6  2 0.3 1.6  2.1 0.3 1.6  2.2 0.3 1.6  2.3 0.3 1.6  2.4 0.3 1.6  2.5 0.3 1.6  2.6 0.3 1.6  2.7 0.3 1.6  2.8 0.3 1.5  2.8 0.3 1.6  2.9 0.3 1.6  1.2 0.4 1.6  1.3 0.4 1.6  1.4 0.4 1.6  1.5 0.4 1.6  1.6 0.4 1.6  1.7 0.4 1.6  1.8 0.4 1.6  1.9 0.4 1.6  2 0.4 1.6  2.1 0.4 1.6  2.2 0.4 1.6  2.3 0.4 1.6  2.4 0.4 1.6  2.5 0.4 1.6  2.6 0.4 1.6  2.7 0.4 1.6  2.8 0.4 1.5  2.8 0.4 1.6  2.9 0.4 1.6  1.3 0.5 1.6  1.2 0.5 1.6  1.4 0.5 1.6  1.5 0.5 1.6  1.6 0.5 1.6  1.7 0.5 1.6  1.8 0.5 1.6  1.9 0.5 1.6  2 0.5 1.6  2.1 0.5 1.6  2.2 0.5 1.6  2.3 0.5 1.6  2.4 0.5 1.6  2.5 0.5 1.6  2.6 0.5 1.6  2.7 0.5 1.5  2.7 0.5 1.6  2.8 0.5 1.6  2.9 0.5 1.6  1.3 0.6 1.5  1.3 0.6 1.6  1.4 0.6 1.5  1.4 0.6 1.6  1.5 0.6 1.6  1.6 0.6 1.6  1.7 0.6 1.6  1.8 0.6 1.6  1.9 0.6 1.6  2 0.6 1.6  2.1 0.6 1.6  2.2 0.6 1.6  2.3 0.6 1.6  2.4 0.6 1.6  2.5 0.6 1.6  2.6 0.6 1.5  2.6 0.6 1.6  2.7 0.6 1.6  2.8 0.6 1.6  1.4 0.7 1.6  1.5 0.7 1.5  1.5 0.7 1.6  1.4 0.7 1.5  1.6 0.7 1.6  1.7 0.7 1.6  1.8 0.7 1.6  1.9 0.7 1.6  2 0.7 1.6  2.1 0.7 1.6  2.2 0.7 1.6  2.3 0.7 1.6  2.4 0.7 1.6  2.5 0.7 1.6  2.6 0.7 1.5  2.6 0.7 1.6  2.7 0.7 1.6  1.5 0.8 1.5  1.5 0.8 1.6  1.4 0.8 1.5  1.4 0.8 1.6  1.6 0.8 1.6  1.7 0.8 1.6  1.8 0.8 1.6  1.9 0.8 1.6  2 0.8 1.6  2.1 0.8 1.6  2.2 0.8 1.6  2.3 0.8 1.6  2.4 0.8 1.6  2.5 0.8 1.5  2.5 0.8 1.6  2.6 0.8 1.6  2.7 0.8 1.6  1.5 0.9 1.5  1.5 0.9 1.6  1.4 0.9 1.5  1.4 0.9 1.6  1.6 0.9 1.5  1.6 0.9 1.6  1.7 0.9 1.6  1.8 0.9 1.6  1.9 0.9 1.6  2 0.9 1.6  2.1 0.9 1.5  2.1 0.9 1.6  2.2 0.9 1.5  2.2 0.9 1.6  2.3 0.9 1.5  2.3 0.9 1.6  2.4 0.9 1.5  2.4 0.9 1.6  2.5 0.9 1.5  2.5 0.9 1.6  2.6 0.9 1.6  1.5 1 1.5  1.5 1 1.6  1.4 1 1.5  1.4 1 1.6  1.6 1 1.5  1.6 1 1.6  1.7 1 1.5  1.7 1 1.6  1.8 1 1.5  1.8 1 1.6  1.9 1 1.5  1.9 1 1.6  2 1 1.5  2 1 1.6  2.1 1 1.5  2.1 1 1.6  2.2 1 1.5  2.2 1 1.6  2.3 1 1.5  2.3 1 1.6  2.4 1 1.5  2.4 1 1.6  2.5 1 1.6  2.6 1 1.6  1.5 1.1 1.5  1.5 1.1 1.6  1.6 1.1 1.5  1.6 1.1 1.6  1.7 1.1 1.5  1.7 1.1 1.6  1.8 1.1 1.5  1.8 1.1 1.6  1.9 1.1 1.5  1.9 1.1 1.6  2 1.1 1.5  2 1.1 1.6  2.1 1.1 1.5  2.1 1.1 1.6  2.2 1.1 1.5  2.2 1.1 1.6  2.3 1.1 1.5  2.3 1.1 1.6  2.4 1.1 1.5  2.4 1.1 1.6  2.5 1.1 1.6  1.6 1.2 1.5  1.6 1.2 1.6  1.5 1.2 1.5  1.5 1.2 1.6  1.7 1.2 1.5  1.7 1.2 1.6  1.8 1.2 1.5  1.8 1.2 1.6  1.9 1.2 1.5  1.9 1.2 1.6  2 1.2 1.5  2 1.2 1.6  2.1 1.2 1.5  2.1 1.2 1.6  2.2 1.2 1.5  2.2 1.2 1.6  2.3 1.2 1.5  2.3 1.2 1.6  2.4 1.2 1.6  2.5 1.2 1.6  1.6 1.3 1.5  1.6 1.3 1.6  1.7 1.3 1.5  1.7 1.3 1.6  1.8 1.3 1.5  1.8 1.3 1.6  1.9 1.3 1.5  1.9 1.3 1.6  2 1.3 1.6  2.1 1.3 1.6  2.2 1.3 1.5  2.2 1.3 1.6  2.1 1.3 1.5  2.3 1.3 1.6  2.4 1.3 1.6  1.7 1.4 1.6  1.8 1.4 1.6  1.9 1.4 1.6  2 1.4 1.6  2.2 1.4 1.6  2.3 1.4 1.6  1.2 0.1 1.7  1.2 0 1.7  1.3 0.1 1.7  1.3 0 1.7  1.4 0.1 1.7  1.4 0 1.7  1.5 0.1 1.7  1.5 0 1.7  1.6 0.1 1.7  1.6 0 1.7  1.7 0.1 1.7  1.7 0 1.7  1.8 0.1 1.7  1.8 0 1.7  1.9 0.1 1.7  1.9 0 1.7  2 0.1 1.7  2 0 1.7  2.1 0.1 1.7  2.1 0 1.7  2.2 0.1 1.7  2.2 0 1.7  2.3 0.1 1.7  2.3 0 1.7  2.4 0.1 1.7  2.4 0 1.7  2.5 0.1 1.7  2.5 0 1.7  2.6 0.1 1.7  2.6 0 1.7  2.7 0.1 1.7  2.7 0 1.7  2.8 0.1 1.7  2.8 0 1.7  1.2 0.2 1.7  1.3 0.2 1.7  1.4 0.2 1.7  1.5 0.2 1.7  1.6 0.2 1.7  1.7 0.2 1.7  1.8 0.2 1.7  1.9 0.2 1.7  2 0.2 1.7  2.1 0.2 1.7  2.2 0.2 1.7  2.3 0.2 1.7  2.4 0.2 1.7  2.5 0.2 1.7  2.6 0.2 1.7  2.7 0.2 1.7  2.8 0.2 1.7  2.9 0.2 1.7  1.2 0.3 1.7  1.3 0.3 1.7  1.4 0.3 1.7  1.5 0.3 1.7  1.6 0.3 1.7  1.7 0.3 1.7  1.8 0.3 1.7  1.9 0.3 1.7  2 0.3 1.7  2.1 0.3 1.7  2.2 0.3 1.7  2.3 0.3 1.7  2.4 0.3 1.7  2.5 0.3 1.7  2.6 0.3 1.7  2.7 0.3 1.7  2.8 0.3 1.7  2.9 0.3 1.7  1.3 0.4 1.7  1.4 0.4 1.7  1.5 0.4 1.7  1.6 0.4 1.7  1.7 0.4 1.7  1.8 0.4 1.7  1.9 0.4 1.7  2 0.4 1.7  2.1 0.4 1.7  2.2 0.4 1.7  2.3 0.4 1.7  2.4 0.4 1.7  2.5 0.4 1.7  2.6 0.4 1.7  2.7 0.4 1.7  2.8 0.4 1.7  2.9 0.4 1.7  3 0.4 1.6  3 0.4 1.7  1.3 0.5 1.7  1.4 0.5 1.7  1.5 0.5 1.7  1.6 0.5 1.7  1.7 0.5 1.7  1.8 0.5 1.7  1.9 0.5 1.7  2 0.5 1.7  2.1 0.5 1.7  2.2 0.5 1.7  2.3 0.5 1.7  2.4 0.5 1.7  2.5 0.5 1.7  2.6 0.5 1.7  2.7 0.5 1.7  2.8 0.5 1.7  2.9 0.5 1.7  3 0.5 1.6  
[...]
<PointData  Vectors="u"> 
<DataArray  type="Float64"  Name="u"  NumberOfComponents="3" format="ascii">1.7862058063868184e+02 -1.8931502197300193e-02 -4.2146118281832328e+00  1.7941920108959221e+02 -1.4182311191025424e-02 -3.7501888401414396e+00  1.7951055422948033e+02 -8.6823092880140595e-01 -3.7524239993404640e+00  1.7993200831067188e+02 -8.7241417631616469e-01 -3.5915263041978056e+00  1.7984017745321029e+02 -1.4305294375064769e-02 -3.5895870342088081e+00  1.7907872568793167e+02 -1.9092250952377238e-02 -4.0048290940626696e+00  1.7874267079942859e+02 -1.0786597150606234e+00 -4.2174500815910765e+00  1.7920140188923898e+02 -1.0838889670006639e+00 -4.0072429079685374e+00  1.8007970008790673e+02 -1.0874101042732001e-02 -3.3287220927861800e+00  1.8014963606092309e+02 -7.0883219725892666e-01 -3.3304805226653502e+00  1.8053276580913840e+02 -7.1217267283693109e-01 -3.2089920388148521e+00  1.8046244457029539e+02 -1.0967680402141007e-02 -3.2074384555781328e+00  1.8063505833789293e+02 -8.5005460520475116e-03 -2.9495485389306348e+00  1.8068963088048764e+02 -5.8554464666759576e-01 -2.9509327685674616e+00  1.8103509222967557e+02 -5.8821144902230560e-01 -2.8604861403532924e+00  1.8098021122746846e+02 -8.5715609008066226e-03 -2.8592430284975214e+00  1.8110790165260966e+02 -6.7536517102845684e-03 -2.6106650803756009e+00  1.8115117461806921e+02 -4.8850673128912064e-01 -2.6117567306092728e+00  1.8146070657787783e+02 -4.9063768443536682e-01 -2.5454623457157872e+00  1.8141718778553613e+02 -6.8075089115525438e-03 -2.5444675626035238e+00  1.8151433296403829e+02 -5.4391019177290525e-03 -2.3093119466678838e+00  1.8154911274025278e+02 -4.1099873377286278e-01 -2.3101752094391101e+00  1.8182507853822096e+02 -4.1270463255643247e-01 -2.2624701476249083e+00  1.8179010337397511e+02 -5.4799837003762699e-03 -2.2616731943524297e+00  1.8186622348604789e+02 -4.4303765921864437e-03 -2.0423777836583668e+00  1.8189449632017661e+02 -3.4831957512793060e-01 -2.0430627825362113e+00  1.8213955990692625e+02 -3.4968870795867329e-01 -2.0095221244931571e+00  1.8211113197720056e+02 -4.4614681764997156e-03 -2.0088824119506463e+00  1.8217261548689942e+02 -3.6427615531238744e-03 -1.8066675398202832e+00  1.8219581772739306e+02 -2.9710395587679561e-01 -1.8072132751088856e+00  1.8241272563646999e+02 -2.9820631858186958e-01 -1.7843582048394211e+00  1.8238940033970471e+02 -3.6664668968216137e-03 -1.7838433293206803e+00  1.8263194452818712e+02 -3.0362221387884069e-03 -1.5842122805760084e+00  1.8265123225073657e+02 -2.5578478131730364e-01 -1.5846280938145216e+00  1.8019807831328777e+02 -1.6802114098240852e+00 -3.5972194104587123e+00  1.7955456308803724e+02 -2.0757038766409281e+00 -4.0142776978353503e+00  1.8073754011370346e+02 -1.3776144174924712e+00 -3.2135867928729596e+00  1.8119554434532620e+02 -1.1417524199499391e+00 -2.8641900151472486e+00  1.8127812237136598e+02 -9.5088061623565667e-01 -2.6150502935216244e+00  1.8158835066474927e+02 -9.5498300538850689e-01 -2.5484481290833974e+00  1.8084920739929154e+02 -1.1366318327435299e+00 -2.9550774555561974e+00  1.8165141561908129e+02 -8.0179769957745195e-01 -2.3127988750317594e+00  1.8192793411833586e+02 -8.0508962952179686e-01 -2.2648794272268242e+00  1.8222334316657830e+02 -6.8341334812368282e-01 -2.0114696697276679e+00  1.8248159464781969e+02 -5.8368884374378549e-01 -1.7859364078840323e+00  1.8270826624562142e+02 -5.0129912820010758e-01 -1.5859110498295439e+00  1.8179088224834234e+02 -1.3835397364271649e+00 -2.5532167413629385e+00  1.8209199878795457e+02 -1.1700148968403765e+00 -2.2687358411231751e+00  1.8235756399478939e+02 -9.9572142064017566e-01 -2.0145931958516230e+00  1.8030966158986652e+02 -8.7601002268402983e-01 -3.3934372610385961e+00  1.8021745496009248e+02 -1.4408980562703223e-02 -3.3917699315599066e+00  1.7948366758657079e+02 -1.9224026297975778e-02 -3.7596710992906974e+00  1.8088047205794069e+02 -7.1509332607147136e-01 -3.0502772238865514e+00  1.8080983999821376e+02 -1.1048675974301644e-02 -3.0489192904872362e+00  1.8135225466445411e+02 -5.9057948243237013e-01 -2.7340150713625073e+00  1.8129711894927831e+02 -8.6345362665856788e-03 -2.7329120523164558e+00  1.8174785767781401e+02 -4.9255660121243988e-01 -2.4451179197033577e+00  1.8170413153905949e+02 -6.8563480916610181e-03 -2.4442231584438274e+00  1.8208349320145859e+02 -4.1426029445385626e-01 -2.1831179278358848e+00  1.8204835003259592e+02 -5.5178241140801309e-03 -2.1823922860743337e+00  1.8237096139675276e+02 -3.5095147884440342e-01 -1.9469223508638116e+00  1.8234239777016168e+02 -4.4907901760313914e-03 -1.9463334717896665e+00  1.8261907117942511e+02 -2.9923339818067823e-01 -1.7350525698261203e+00  1.8259563651938797e+02 -3.6892100901975565e-03 -1.7345739642464391e+00  1.8283456255691948e+02 -2.5662244407143187e-01 -1.5458212467027266e+00  1.8281518683958001e+02 -3.0538833601308725e-03 -1.5454313647603650e+00  1.8284432893006101e+02 -2.5294341289170321e-03 -1.4076747018004396e+00  1.8286037720600171e+02 -2.2058523055028828e-01 -1.4080119357560728e+00  1.8302271491820881e+02 -2.2127083095992586e-01 -1.3774590100052821e+00  1.8300659595381563e+02 -2.5431656083476752e-03 -1.3771403809654652e+00  1.8303105504379573e+02 -2.1164607753718042e-03 -1.2520211493681581e+00  1.8304447039565645e+02 -1.9121929248537517e-01 -1.2522961010928848e+00  1.8318775468316147e+02 -1.9178298675838745e-01 -1.2282017979664503e+00  1.8317428266646243e+02 -2.1271431589624267e-03 -1.2279402683893266e+00  1.8319583738160634e+02 -1.7755968661985924e-03 -1.1151916990441120e+00  1.8320708609982273e+02 -1.6662519328121897e-01 -1.1154173801130662e+00  1.8333313319419801e+02 -1.6709138381683389e-01 -1.0963485693432888e+00  1.8332183920601005e+02 -1.7839028056051062e-03 -1.0961326570980334e+00  1.8334179412465582e+02 -1.4906289932816864e-03 -9.9529870643793039e-01  1.8335123789599155e+02 -1.4598251177587312e-01 -9.9548556904186869e-01  1.8346171976456736e+02 -1.4637103928369286e-01 -9.8029729771905061e-01  1.8345224003565670e+02 -1.4970704364532050e-03 -9.8011765219579838e-01  1.8356798949551225e+02 -1.2541542743633404e-03 -8.7841436688200758e-01  1.8357593869913086e+02 -1.2897976923474105e-01 -8.7856541566854673e-01  1.8057681486972379e+02 -1.6870944944959805e+00 -3.3983157371960524e+00  1.8108613800120426e+02 -1.3832195311698285e+00 -3.0542775775772473e+00  1.8151343452647683e+02 -1.1463079464326651e+00 -2.7372871648084849e+00  1.8187609228904529e+02 -9.5868278567706655e-01 -2.4477909113063676e+00  1.8218682609515827e+02 -8.0809521210881330e-01 -2.1853009304142059e+00  1.8245512949371027e+02 -6.8585768132346303e-01 -1.9487062554179226e+00  1.8268824996800382e+02 -5.8568042233765960e-01 -1.7365123568108416e+00  1.8289184561627442e+02 -5.0292603369011268e-01 -1.5470183846916836e+00  1.8290789242606959e+02 -4.3278660109535566e-01 -1.4090589925612407e+00  1.8307043014310486e+02 -4.3412016590646901e-01 -1.3784437149312412e+00  1.8308423274656136e+02 -3.7552527906838823e-01 -1.2531548379601605e+00  1.8322767735021492e+02 -3.7662326531749085e-01 -1.2290150513389753e+00  1.8324045702499183e+02 -3.2749685271599183e-01 -1.1161260616571622e+00  1.8336663221508664e+02 -3.2840613148179215e-01 -1.0970238581718488e+00  1.8348985966049824e+02 -2.8789392460535446e-01 -9.8086208969916444e-01  1.8359955154882280e+02 -2.5385631529032932e-01 -8.7904238986833405e-01  1.8099023953693163e+02 -2.4085183905153884e+00 -3.4060714378978845e+00  1.8105771419085914e+02 -1.9786832570288351e+00 -3.2208869706362719e+00  1.8140771249791032e+02 -1.9866965576518700e+00 -3.0606530753047685e+00  1.8060980962720103e+02 -2.3987112839188542e+00 -3.6062374330573568e+00  1.8144847497467097e+02 -1.6477880955027449e+00 -2.8700908998516970e+00  1.8176751317319486e+02 -1.6543213047637588e+00 -2.7425139136659511e+00  1.8207955914405696e+02 -1.3888610055613355e+00 -2.4520695405005286e+00  1.8235164946159361e+02 -1.1743491318717731e+00 -2.1888018040857018e+00  1.8258996400944406e+02 -9.9925477662518702e-01 -1.9515719375251162e+00  1.8259231597095257e+02 -8.5221987575247526e-01 -1.7884720634472453e+00  1.8279946670863933e+02 -8.5510505576353979e-01 -1.7388609417982193e+00  1.8280023110056194e+02 -7.3321429798794713e-01 -1.5879756167840713e+00  1.8298420980936820e+02 -7.3557586123426177e-01 -1.5489470461498525e+00  1.8298469719050399e+02 -6.3394097425711404e-01 -1.4107463591392133e+00  1.8314755630432822e+02 -6.3588022684837375e-01 -1.3800321046862276e+00  1.8314863792780494e+02 -5.5075036214438777e-01 -1.2545405295686529e+00  1.8329234065112229e+02 -5.5234965364091893e-01 -1.2303283718788214e+00  1.8342098496759738e+02 -4.8214296780806731e-01 -1.0981155370365685e+00  1.8353558391069259e+02 -4.2304107770283284e-01 -9.8177605950097813e-01  1.8182266525525029e+02 -2.5032814942725108e+00 -3.0691260914384819e+00  1.8209885164129864e+02 -2.0971927215224713e+00 -2.7494832250886883e+00  1.8234716289793764e+02 -1.7693375018498636e+00 -2.4577921379498884e+00  1.8230928267310702e+02 -1.4965787957402605e+00 -2.2738979753005055e+00  1.8256993535094927e+02 -1.5020724141905455e+00 -2.1934974116119723e+00  1.8205725599689288e+02 -1.7626156468074630e+00 -2.5595792809314468e+00  1.8253633951882557e+02 -1.2778524495575252e+00 -2.0187866292763839e+00  1.8276955314911632e+02 -1.2823448091904408e+00 -1.9554255676472783e+00  1.8274048921171374e+02 -1.0966934519408496e+00 -1.7918853645238555e+00  1.8294829906529753e+02 -1.1003720187898767e+00 -1.7420267143592789e+00  1.8292378926557032e+02 -9.4571271731098860e-01 -1.5907615047790034e+00  1.8310830094528166e+02 -9.4873135062355052e-01 -1.5515524280162785e+00  1.8325151893547184e+02 -8.2172625430678214e-01 -1.3821820680824759e+00  1.8337974922071490e+02 -7.1493986798159948e-01 -1.2321092080611546e+00  1.8349463377152125e+02 -6.2491709292491460e-01 -1.0995982273476188e+00  1.8283127563518741e+02 -1.7833170993048513e+00 -2.1992098318554083e+00  1.8298610178990378e+02 -1.5284555235319508e+00 -1.9601286067185080e+00  1.8312882964784558e+02 -1.3158788766875915e+00 -1.7459015104183646e+00  1.8325957236441403e+02 -1.1376764162590540e+00 -1.5547497671694195e+00  1.8337878744552705e+02 -9.8767219820340968e-01 -1.3848268558201275e+00  1.8064492914180738e+02 -8.7907756840447993e-01 -3.1667838420703429e+00  1.8055242850675492e+02 -1.4495626780368347e-02 -3.1653610630205704e+00  1.7983882142358729e+02 -1.9331423380767768e-02 -3.4886908073519263e+00  1.8119269488403057e+02 -7.1762331426581150e-01 -2.8618557938012117e+00  1.8112181401231541e+02 -1.1117983506724652e-02 -2.8606797210468766e+00  1.8164005123105892e+02 -5.9265991697978659e-01 -2.5779055452542452e+00  1.8158470723556493e+02 -8.6896374518213946e-03 -2.5769370913006688e+00  1.8201092261736980e+02 -4.9426436157535464e-01 -2.3160419795306844e+00  1.8196702357249296e+02 -6.8999735056013345e-03 -2.3152464913504427e+00  1.8232228934560183e+02 -4.1566111461594596e-01 -2.0764834874224527e+00  1.8228700353655407e+02 -5.5522769219582338e-03 -2.0758309917709954e+00  1.8258646968719276e+02 -3.5210070161969709e-01 -1.8588064263480291e+00  1.8255778894871506e+02 -4.5179648975709223e-03 -1.8582714554387190e+00  1.8281259629968474e+02 -3.0017712017726317e-01 -1.6621487168538736e+00  1.8278906584105584e+02 -3.7106317658715531e-03 -1.6617099076066459e+00  1.8300758730565877e+02 -2.5739878026513652e-01 -1.4853699011731323e+00  1.8298813346377233e+02 -3.0707720636906619e-03 -1.4850094892181551e+00  1.8317679471096275e+02 -2.2191116009114739e-01 -1.3271726343314070e+00  1.8316061222008750e+02 -2.5564805266794105e-03 -1.3268759314737593e+00  1.8332444371287175e+02 -1.9231309362040769e-01 -1.1861919842341426e+00  1.8331092021064146e+02 -2.1376398965255610e-03 -1.1859468810713041e+00  1.8345393477894845e+02 -1.6753246893524046e-01 -1.0610589356416871e+00  1.8344259924582104e+02 -1.7921714816483806e-03 -1.0608554535361134e+00  1.8356805472352460e+02 -1.4674058527999478e-01 -9.5044384708732454e-01  1.8355854168760891e+02 -1.5035700959914271e-03 -9.5027374541261034e-01  1.8366912689034416e+02 -1.2929227804508592e-01 -8.5308468896897027e-01  1.8366115125615954e+02 -1.2592409012254025e-03 -8.5294112911903486e-01  1.8367122885557936e+02 -1.0453968045272921e-03 -7.8967052250653058e-01  1.8367786899946194e+02 -1.1441601632603278e-01 -7.8979932967594857e-01  1.8375912033620784e+02 -1.1468363070801087e-01 -7.6780392729527802e-01  1.8375245956468800e+02 -1.0493460636094014e-03 -7.6768118496401394e-01  1.8376381631504972e+02 -8.6295647298022412e-04 -7.1266446665633976e-01  1.8376931915356471e+02 -1.0228898171299484e-01 -7.1277638102604646e-01  1.8383973137717675e+02 -1.0252201123912114e-01 -6.9351702556669892e-01  1.8383421288706225e+02 -8.6598431830123496e-04 -6.9341025006846913e-01  1.8390793907773960e+02 -7.0257318905062223e-04 -6.2913977775352925e-01  1.8391244664189372e+02 -9.2505020375118124e-02 -6.2923477115098636e-01  1.8139908018839131e+02 -1.3880852190259025e+00 -2.8653086835636494e+00  1.8091293732112374e+02 -1.6929813760544177e+00 -3.1709351322392130e+00  1.8180183032286399e+02 -1.1503171620929940e+00 -2.5807674155086597e+00  1.8213965264469815e+02 -9.6198007198316404e-01 -2.3184084692159357e+00  1.8242602955637292e+02 -8.1080465604914076e-01 -2.0784377936653469e+00  1.8267097129551524e+02 -6.8808414954319441e-01 -1.8604196898905938e+00  1.8288204731601687e+02 -5.8751155697609447e-01 -1.6634810288845898e+00  1.8306509199714591e+02 -5.0443453272758731e-01 -1.4864715840969247e+00  1.8322468992592749e+02 -4.3536605362976766e-01 -1.3280855966754008e+00  1.8336451211794932e+02 -3.7765600019586598e-01 -1.1869510248114372e+00  1.8348755131526050e+02 -3.2926647879476750e-01 -1.0616929371772328e+00  1.8359628877864665e+02 -2.8861558340063287e-01 -9.5097683276620359e-01  1.8369281442481685e+02 -2.5446730152104879e-01 -8.5353673726067225e-01  1.8369760554187104e+02 -2.2532942503236733e-01 -7.9020740426377378e-01  1.8377891513863383e+02 -2.2585324633357945e-01 -7.6819196133776191e-01  1.8385614139841465e+02 -2.0201688653764538e-01 -6.9385548722290924e-01  1.8392585927157813e+02 -1.8237419631504084e-01 -6.2953620390036746e-01  1.8172178874327429e+02 -1.9936733665313964e+00 -2.8708269279143401e+00  1.8132770427107084e+02 -2.4169356249230365e+00 -3.1775559852738291e+00  1.8205685722344035e+02 -1.6600853116972698e+00 -2.5853497824064133e+00  1.8234390621278521e+02 -1.3936131971286758e+00 -2.3222042241675709e+00  1.8259150180026367e+02 -1.1782630269069225e+00 -2.0815773769454053e+00  1.8280633864767330e+02 -1.0024777635598934e+00 -1.8630151040097547e+00  1.8299370011282312e+02 -8.5776088768345438e-01 -1.6656272260820864e+00  1.8315781202545730e+02 -7.3776762348001423e-01 -1.4882483461692479e+00  1.8330210565549933e+02 -6.3769336290652401e-01 -1.3295595661668791e+00  1.8342941030023567e+02 -5.5385481432446160e-01 -1.1881776923222573e+00  1.8354209375583591e+02 -4.8339857531558011e-01 -1.0627184740042244e+00  1.8364216521287176e+02 -4.2409556477044835e-01 -9.5183972717544141e-01  1.8363796773089427e+02 -3.7330066800546102e-01 -8.7981500950324987e-01  1.8373135144211699e+02 -3.7419440657050562e-01 -8.5426922505387826e-01  1.8381115419654216e+02 -3.3231609733435052e-01 -7.6882126062071710e-01  1.8388289450556528e+02 -2.9737827114040766e-01 -6.9440486182093741e-01  1.8213822632450899e+02 -2.5120608059376757e+00 -2.8781838041313419e+00  1.8238944249021853e+02 -2.1044708206368559e+00 -2.5914761349052720e+00  1.8261254844743354e+02 -1.7753571679770748e+00 -2.3272923141431012e+00  1.8281064735235938e+02 -1.5070448281281317e+00 -2.0857962422770999e+00  1.8298663608665464e+02 -1.2864505698332811e+00 -1.8665106892126870e+00  1.8314311390477749e+02 -1.1037636957107633e+00 -1.6685238858196465e+00  1.8328237896240617e+02 -9.5153674197155802e-01 -1.4906510468270726e+00  1.8340645646823330e+02 -8.2405182368107877e-01 -1.3315563588968855e+00  1.8351713447447361e+02 -7.1687405199320642e-01 -1.1898421739966587e+00  1.8361599797814759e+02 -6.2653332541755624e-01 -1.0641120974458469e+00  1.8359767183942165e+02 -5.4893593793905437e-01 -9.8301917484758194e-01  1.8370445846289232e+02 -5.5029532581584639e-01 -9.5301388212326676e-01  1.8369023157316391e+02 -4.8484173790456397e-01 -8.8086717117245494e-01  1.8378377861860085e+02 -4.8599538493678807e-01 -8.5526707476051000e-01  1.8385509293163761e+02 -4.3191737400463742e-01 -7.6967933740079975e-01  1.8307301791810278e+02 -1.7891728142166961e+00 -2.0909416137490151e+00  1.8320403729470237e+02 -1.5333065312077783e+00 -1.8707858413880241e+00  1.8332434712802828e+02 -1.3198982774034811e+00 -1.6720756487579718e+00  1.8343422744591675e+02 -1.1410101976856979e+00 -1.4936040876140662e+00  1.8353419732135796e+02 -9.9044273444495312e-01 -1.3340158107216673e+00  1.8348713719975140e+02 -8.6100753678317066e-01 -1.2343046727358433e+00  1.8362490762799885e+02 -8.6331705371331335e-01 -1.1918963413533366e+00  1.8358539738067799e+02 -7.5383406067570080e-01 -1.1014296914691901e+00  1.8370707415945051e+02 -7.5576787704795378e-01 -1.0658350369786396e+00  1.8367439666541537e+02 -6.6308703135423230e-01 -9.8455734799446426e-01  1.8378143519146897e+02 -6.6471646853626132e-01 -9.5446776900209795e-01  1.8384872427409456e+02 -5.8770220875348589e-01 -8.5650431284086137e-01  1.8390965278104656e+02 -5.2275741682277121e-01 -7.7074441187693421e-01  1.8344999868509285e+02 -1.7385421773200895e+00 -1.8757050790615108e+00  1.8333449334047774e+02 -1.4976239144506724e+00 -1.7503642471019853e+00  1.8353080760519578e+02 -1.5021500402101746e+00 -1.6761750010159726e+00  1.8323110089254087e+02 -1.7330985813294459e+00 -1.9655266688548936e+00  1.8343291038705044e+02 -1.2988843128387699e+00 -1.5584438237691465e+00  1.8360822265441490e+02 -1.3026503763199686e+00 -1.4970219841095862e+00  1.8368129472907532e+02 -1.1337668117601440e+00 -1.3368697384882058e+00  1.8374953896771871e+02 -9.9047424875743306e-01 -1.1942855541094555e+00  1.8381278494144516e+02 -8.6873221549256452e-01 -1.0678432147028669e+00  1.8387107227132111e+02 -7.6528082432118349e-01 -9.5616549954482000e-01  1.8392457697585289e+02 -6.7748492181926601e-01 -8.5795133725734785e-01  1.8375562432332157e+02 -1.6481623860726724e+00 -1.6807041975771420e+00  1.8371578992663225e+02 -1.8998533902241757e+00 -1.8811213772647986e+00  1.8379892175559843e+02 -1.4341814053676116e+00 -1.5008103116682965e+00  1.8384341112900671e+02 -1.2518949991508270e+00 -1.3400422190585592e+00  1.8094000819218266e+02 -8.8167751484012213e-01 -2.9184979282291672e+00  1.8084727829464947e+02 -1.4567657708753255e-02 -2.9172920400059201e+00  1.8147028983866164e+02 -7.1979713320379612e-01 -2.6500206484386886e+00  1.8139921092928464e+02 -1.1176841686694396e-02 -2.6490106076301747e+00  1.8189834779331460e+02 -5.9447035770006385e-01 -2.3977051321382099e+00  1.8184283479822332e+02 -8.7373869226890985e-03 -2.3968630998298486e+00  1.8224907604483667e+02 -4.9576806051013600e-01 -2.1630195320343106e+00  1.8220503416086822e+02 -6.9385056312380152e-03 -2.1623199841069471e+00  1.8254018984111519e+02 -4.1690791823229606e-01 -1.9466273100257163e+00  1.8250478422442745e+02 -5.5832521893814189e-03 -1.9460475097518672e+00  1.8278453977725550e+02 -3.5313368269103002e-01 -1.7485784864005856e+00  1.8275575915943324e+02 -4.5428013916822664e-03 -1.7480986015459958e+00  1.8299162419642443e+02 -3.0103300025991320e-01 -1.5684755437894029e+00  1.8296801088738920e+02 -3.7305133197661159e-03 -1.5680785392938978e+00  1.8316859507117127e+02 -2.5810857077077204e-01 -1.4056108387112423e+00  1.8314907280012670e+02 -3.0866693663580739e-03 -1.4052822471641093e+00  1.8332093735407469e+02 -2.2250088201167786e-01 -1.2590762872333179e+00  1.8330469857309279e+02 -2.5691833887188293e-03 -1.2588039164306335e+00  1.8345293430883567e+02 -1.9280450036149904e-01 -1.1278481483336780e+00  1.8343936470146278e+02 -2.1477818930495276e-03 -1.1276217758863596e+00  1.8356799066292541e+02 -1.6794372413367206e-01 -1.0108506059494438e+00  1.8355661756654189e+02 -1.8002590510677466e-03 -1.0106616788234593e+00  1.8366886027378320e+02 -1.4708687684645072e-01 -9.0700195059076827e-01  1.8365931685039902e+02 -1.5100066475925318e-03 -9.0684330797437995e-01  1.8375780908862237e+02 -1.