<?xml version="1.0"?>
<VTKFile type="UnstructuredGrid"  version="0.1"  >
<UnstructuredGrid>
<Piece  NumberOfPoints="177" NumberOfCells="594">
<Points>
<DataArray  type="Float64"  NumberOfComponents="3"  format="ascii">30 30 20  35 35 25  35 30 25  35 30 20  40 30 20  40 30 25  40 30 30  30 30 25  30 30 30  35 35 30  35 30 30  40 35 30  40 40 30  30 35 25  30 35 30  30 40 30  35 40 30  35 35 35  40 35 35  40 40 35  40 40 40  35 30 35  40 30 35  40 30 40  40 35 40  30 30 35  30 30 40  35 35 40  35 30 40  35 40 35  30 35 35  30 35 40  30 40 40  35 40 40  30 40 35  45 35 35  45 30 35  45 30 30  50 30 30  50 35 35  50 30 35  50 30 40  50 35 40  50 40 40  45 35 40  45 30 40  45 40 40  45 40 35  35 45 35  35 45 30  40 45 35  40 45 30  40 50 30  40 50 35  40 50 40  40 45 40  35 45 40  30 45 30  30 50 30  35 50 35  35 50 30  30 45 35  30 45 40  30 50 40  35 50 40  30 50 35  50 50 30  50 50 35  50 45 35  45 45 35  50 50 40  50 45 40  45 45 40  45 50 35  45 50 30  45 50 40  35 35 45  40 35 45  40 40 45  40 40 50  35 30 45  40 30 45  40 30 50  40 35 50  30 30 45  30 30 50  35 35 50  35 30 50  35 40 45  30 35 45  30 35 50  30 40 50  35 40 50  30 40 45  45 35 45  50 35 45  50 40 45  50 40 50  45 30 45  50 30 45  50 30 50  50 35 50  45 35 50  45 30 50  45 40 45  45 40 50  35 45 45  40 45 45  40 50 45  40 50 50  40 45 50  35 45 50  35 50 45  30 45 45  30 45 50  30 50 50  35 50 50  30 50 45  45 45 45  50 45 45  50 50 45  50 50 50  50 45 50  45 45 50  45 50 45  45 50 50  30 20 40  30 25 40  30 25 35  25 25 35  25 25 40  25 20 40  40 25 40  35 25 40  35 25 35  30 25 45  25 25 45  30 25 50  40 25 45  35 25 45  35 25 50  50 25 45  45 25 45  45 25 40  45 25 35  35 25 25  35 25 30  40 25 35  25 30 40  25 25 50  25 30 45  25 30 50  25 35 45  25 35 50  25 40 50  25 30 35  25 30 30  25 35 35  25 35 30  25 35 40  25 40 35  25 40 30  25 40 40  25 45 35  25 45 40  25 50 40  25 40 45  25 45 45  25 45 50  25 50 45  25 50 50  25 35 25  25 45 30  25 45 25  25 50 30  25 50 25  25 50 35  </DataArray>
</Points>
<Cells>
<DataArray  type="UInt32"  Name="connectivity"  format="ascii">0 3 1 2  4 1 2 5  4 3 1 2  6 1 2 5  0 1 2 7  8 1 9 10  8 1 2 10  8 1 2 7  6 1 11 9  6 1 9 10  6 1 2 10  12 1 11 9  0 1 7 13  8 1 9 14  8 1 13 14  8 1 7 13  15 1 9 16  15 1 9 14  15 1 13 14  12 1 9 16  8 9 10 17  6 11 18 17  6 11 9 17  6 9 10 17  12 19 18 17  12 11 18 17  12 11 9 17  20 19 18 17  8 10 17 21  6 18 22 17  6 22 17 21  6 10 17 21  23 18 17 24  23 18 22 17  23 22 17 21  20 18 17 24  8 17 21 25  26 17 27 28  26 17 21 28  26 17 21 25  23 17 24 27  23 17 27 28  23 17 21 28  20 17 24 27  8 9 14 17  15 16 17 29  15 9 16 17  15 9 14 17  12 19 17 29  12 16 17 29  12 9 16 17  20 19 17 29  8 17 25 30  26 17 27 31  26 17 30 31  26 17 25 30  32 17 27 33  32 17 27 31  32 17 30 31  20 17 27 33  8 14 17 30  15 17 29 34  15 17 30 34  15 14 17 30  32 17 29 33  32 17 29 34  32 17 30 34  20 17 29 33  6 37 35 36  38 35 39 40  38 35 36 40  38 37 35 36  41 35 39 42  41 35 39 40  41 35 36 40  43 35 39 42  6 22 35 36  23 35 44 45  23 35 36 45  23 22 35 36  41 35 44 42  41 35 44 45  41 35 36 45  43 35 44 42  6 18 22 35  23 35 24 44  23 18 35 24  23 18 22 35  20 35 46 44  20 35 24 44  20 18 35 24  43 35 46 44  6 11 18 35  12 19 47 35  12 19 18 35  12 11 18 35  20 47 35 46  20 19 47 35  20 19 18 35  43 47 35 46  15 16 49 48  12 51 50 48  12 51 49 48  12 16 49 48  52 50 48 53  52 51 50 48  52 51 49 48  54 50 48 53  15 16 29 48  12 19 50 48  12 19 29 48  12 16 29 48  20 50 48 55  20 19 50 48  20 19 29 48  54 50 48 55  15 29 34 48  32 48 33 56  32 29 48 33  32 29 34 48  20 48 55 56  20 48 33 56  20 29 48 33  54 48 55 56  15 49 57 48  58 48 60 59  58 49 48 60  58 49 57 48  52 48 53 59  52 48 60 59  52 49 48 60  54 48 53 59  15 34 48 61  32 48 56 62  32 48 61 62  32 34 48 61  63 48 56 64  63 48 56 62  63 48 61 62  54 48 56 64  15 57 48 61  58 48 59 65  58 48 61 65  58 57 48 61  63 48 59 64  63 48 59 65  63 48 61 65  54 48 59 64  66 69 68 67  70 69 68 67  43 69 68 71  70 69 68 71  12 19 47 69  20 69 46 72  20 47 69 46  20 19 47 69  43 69 72 71  43 69 46 72  43 47 69 46  70 69 72 71  52 69 74 73  66 69 73 67  66 69 74 73  70 69 73 67  12 19 50 69  20 69 55 72  20 50 69 55  20 19 50 69  54 69 72 75  54 69 55 72  54 50 69 55  70 69 72 75  12 51 50 69  52 69 53 73  52 50 69 53  52 51 50 69  54 69 73 75  54 69 53 73  54 50 69 53  70 69 73 75  26 27 28 76  23 24 77 76  23 24 27 76  23 27 28 76  20 78 77 76  20 24 77 76  20 24 27 76  79 78 77 76  26 28 76 80  23 77 81 76  23 81 76 80  23 28 76 80  82 77 76 83  82 77 81 76  82 81 76 80  79 77 76 83  26 76 80 84  85 76 86 87  85 76 80 87  85 76 80 84  82 76 83 86  82 76 86 87  82 76 80 87  79 76 83 86  26 27 31 76  32 33 76 88  32 27 33 76  32 27 31 76  20 78 76 88  20 33 76 88  20 27 33 76  79 78 76 88  26 76 84 89  85 76 86 90  85 76 89 90  85 76 84 89  91 76 86 92  91 76 86 90  91 76 89 90  79 76 86 92  26 31 76 89  32 76 88 93  32 76 89 93  32 31 76 89  91 76 88 92  91 76 88 93  91 76 89 93  79 76 88 92  23 44 45 94  41 94 42 95  41 44 94 42  41 44 45 94  43 94 96 95  43 94 42 95  43 44 94 42  97 94 96 95  23 45 94 98  41 94 95 99  41 94 98 99  41 45 94 98  100 94 95 101  100 94 95 99  100 94 98 99  97 94 95 101  23 81 94 98  82 94 102 103  82 94 98 103  82 81 94 98  100 94 102 101  100 94 102 103  100 94 98 103  97 94 102 101  23 24 44 94  20 46 104 94  20 46 44 94  20 24 44 94  43 104 94 96  43 46 104 94  43 46 44 94  97 104 94 96  23 77 81 94  82 94 83 102  82 77 94 83  82 77 81 94  79 94 105 102  79 94 83 102  79 77 94 83  97 94 105 102  23 24 77 94  20 78 104 94  20 78 77 94  20 24 77 94  79 104 94 105  79 78 104 94  79 78 77 94  97 104 94 105  32 33 56 106  20 55 107 106  20 55 56 106  20 33 56 106  54 107 106 108  54 55 107 106  54 55 56 106  109 107 106 108  32 33 88 106  20 78 107 106  20 78 88 106  20 33 88 106  79 107 106 110  79 78 107 106  79 78 88 106  109 107 106 110  32 88 93 106  91 106 92 111  91 88 106 92  91 88 93 106  79 106 110 111  79 106 92 111  79 88 106 92  109 106 110 111  32 56 62 106  63 106 64 112  63 56 106 64  63 56 62 106  54 106 108 112  54 106 64 112  54 56 106 64  109 106 108 112  32 93 106 113  91 106 111 114  91 106 113 114  91 93 106 113  115 106 111 116  115 106 111 114  115 106 113 114  109 106 111 116  32 62 106 113  63 106 112 117  63 106 113 117  63 62 106 113  115 106 112 116  115 106 112 117  115 106 113 117  109 106 112 116  20 46 72 118  43 118 71 119  43 72 118 71  43 46 72 118  70 118 119 120  70 118 71 119  70 72 118 71  121 118 119 120  20 46 104 118  43 118 96 119  43 104 118 96  43 46 104 118  97 118 119 122  97 118 96 119  97 104 118 96  121 118 119 122  20 78 104 118  79 118 105 123  79 104 118 105  79 78 104 118  97 118 123 122  97 118 105 123  97 104 118 105  121 118 123 122  20 55 72 118  54 118 75 124  54 72 118 75  54 55 72 118  70 118 124 120  70 118 75 124  70 72 118 75  121 118 124 120  20 78 107 118  79 118 110 123  79 107 118 110  79 78 107 118  109 118 123 125  109 118 110 123  109 107 118 110  121 118 123 125  20 55 107 118  54 118 108 124  54 107 118 108  54 55 107 118  109 118 124 125  109 118 108 124  109 107 118 108  121 118 124 125  126 128 127 129  26 128 127 129  126 127 129 130  126 131 129 130  26 127 129 130  23 134 133 132  126 134 127 133  126 128 134 127  26 28 134 133  26 134 127 133  26 128 134 127  23 28 134 133  126 127 135 136  126 127 130 136  126 131 130 136  26 84 135 136  26 127 135 136  26 127 130 136  85 84 135 136  85 135 136 137  23 81 139 138  23 139 132 138  23 133 139 132  82 81 139 138  126 127 133 139  26 28 80 139  26 28 133 139  26 127 133 139  23 81 80 139  23 28 80 139  23 28 133 139  82 81 80 139  85 87 139 140  85 139 137 140  85 135 139 137  82 87 139 140  126 127 135 139  26 80 84 139  26 84 135 139  26 127 135 139  85 80 87 139  85 80 84 139  85 84 135 139  82 80 87 139  41 99 142 141  100 99 142 141  23 45 98 142  23 45 143 142  23 132 143 142  41 98 99 142  41 45 98 142  41 45 143 142  100 98 99 142  23 81 98 142  23 81 138 142  23 132 138 142  82 98 103 142  82 81 98 142  82 81 138 142  100 98 103 142  6 37 36 144  38 36 40 144  38 37 36 144  41 36 40 144  0 3 2 145  4 2 5 145  4 3 2 145  6 2 5 145  8 10 145 146  6 10 145 146  0 2 7 145  8 2 10 145  8 2 7 145  6 2 10 145  8 25 128 129  26 25 128 129  6 22 134 147  23 22 134 147  23 134 132 147  8 10 21 134  8 10 134 146  6 22 21 134  6 10 21 134  6 10 134 146  23 22 21 134  8 21 25 134  8 25 128 134  26 21 28 134  26 21 25 134  26 25 128 134  23 21 28 134  23 45 143 144  23 132 143 144  23 132 144 147  41 45 143 144  6 22 36 144  6 22 144 147  23 36 45 144  23 22 36 144  23 22 144 147  41 36 45 144  26 129 130 148  85 136 137 149  26 84 136 150  26 136 148 150  26 130 136 148  85 84 136 150  85 136 149 151  85 136 150 151  26 84 89 152  26 84 150 152  26 148 150 152  85 89 90 152  85 84 89 152  85 84 150 152  91 89 90 152  85 90 152 153  85 152 151 153  85 150 152 151  91 90 152 153  91 152 153 154  8 25 129 155  8 129 156 155  26 25 129 155  26 129 148 155  8 14 30 157  8 14 158 157  8 156 158 157  15 30 34 157  15 14 30 157  15 14 158 157  32 30 34 157  8 25 30 157  8 25 155 157  8 156 155 157  26 30 31 157  26 25 30 157  26 25 155 157  32 30 31 157  26 31 157 159  26 148 157 159  26 148 155 157  32 31 157 159  15 34 157 160  15 157 161 160  15 158 157 161  32 34 157 160  32 157 159 162  32 157 160 162  15 34 61 163  15 34 160 163  15 161 160 163  32 61 62 163  32 34 61 163  32 34 160 163  63 61 62 163  32 62 163 164  32 163 162 164  32 160 163 162  63 62 163 164  63 163 164 165  26 31 89 152  26 31 152 159  26 148 152 159  32 89 93 152  32 31 89 152  32 31 152 159  91 89 93 152  32 93 152 166  32 152 162 166  32 152 159 162  91 93 152 166  91 152 154 166  32 62 113 167  32 62 164 167  32 162 164 167  63 113 117 167  63 62 113 167  63 62 164 167  115 113 117 167  32 93 113 167  32 93 166 167  32 162 166 167  91 113 114 167  91 93 113 167  91 93 166 167  115 113 114 167  91 114 167 168  91 154 167 168  91 154 166 167  115 114 167 168  63 117 167 169  63 167 165 169  63 164 167 165  115 117 167 169  115 167 168 170  115 167 169 170  0 7 13 171  8 13 14 171  8 7 13 171  15 13 14 171  8 14 158 171  8 156 158 171  15 14 158 171  15 158 161 171  15 57 173 172  15 161 173 172  58 57 173 172  58 173 172 174  58 173 175 174  15 57 61 163  15 57 163 172  15 161 163 172  58 61 65 163  58 57 61 163  58 57 163 172  63 61 65 163  58 65 163 176  58 163 174 176  58 163 172 174  63 65 163 176  63 163 165 176  </DataArray>
<DataArray  type="UInt32"  Name="offsets"  format="ascii">4 8 12 16 20 24 28 32 36 40 44 48 52 56 60 64 68 72 76 80 84 88 92 96 100 104 108 112 116 120 124 128 132 136 140 144 148 152 156 160 164 168 172 176 180 184 188 192 196 200 204 208 212 216 220 224 228 232 236 240 244 248 252 256 260 264 268 272 276 280 284 288 292 296 300 304 308 312 316 320 324 328 332 336 340 344 348 352 356 360 364 368 372 376 380 384 388 392 396 400 404 408 412 416 420 424 428 432 436 440 444 448 452 456 460 464 468 472 476 480 484 488 492 496 500 504 508 512 516 520 524 528 532 536 540 544 548 552 556 560 564 568 572 576 580 584 588 592 596 600 604 608 612 616 620 624 628 632 636 640 644 648 652 656 660 664 668 672 676 680 684 688 692 696 700 704 708 712 716 720 724 728 732 736 740 744 748 752 756 760 764 768 772 776 780 784 788 792 796 800 804 808 812 816 820 824 828 832 836 840 844 848 852 856 860 864 868 872 876 880 884 888 892 896 900 904 908 912 916 920 924 928 932 936 940 944 948 952 956 960 964 968 972 976 980 984 988 992 996 1000 1004 1008 1012 1016 1020 1024 1028 1032 1036 1040 1044 1048 1052 1056 1060 1064 1068 1072 1076 1080 1084 1088 1092 1096 1100 1104 1108 1112 1116 1120 1124 1128 1132 1136 1140 1144 1148 1152 1156 1160 1164 1168 1172 1176 1180 1184 1188 1192 1196 1200 1204 1208 1212 1216 1220 1224 1228 1232 1236 1240 1244 1248 1252 1256 1260 1264 1268 1272 1276 1280 1284 1288 1292 1296 1300 1304 1308 1312 1316 1320 1324 1328 1332 1336 1340 1344 1348 1352 1356 1360 1364 1368 1372 1376 1380 1384 1388 1392 1396 1400 1404 1408 1412 1416 1420 1424 1428 1432 1436 1440 1444 1448 1452 1456 1460 1464 1468 1472 1476 1480 1484 1488 1492 1496 1500 1504 1508 1512 1516 1520 1524 1528 1532 1536 1540 1544 1548 1552 1556 1560 1564 1568 1572 1576 1580 1584 1588 1592 1596 1600 1604 1608 1612 1616 1620 1624 1628 1632 1636 1640 1644 1648 1652 1656 1660 1664 1668 1672 1676 1680 1684 1688 1692 1696 1700 1704 1708 1712 1716 1720 1724 1728 1732 1736 1740 1744 1748 1752 1756 1760 1764 1768 1772 1776 1780 1784 1788 1792 1796 1800 1804 1808 1812 1816 1820 1824 1828 1832 1836 1840 1844 1848 1852 1856 1860 1864 1868 1872 1876 1880 1884 1888 1892 1896 1900 1904 1908 1912 1916 1920 1924 1928 1932 1936 1940 1944 1948 1952 1956 1960 1964 1968 1972 1976 1980 1984 1988 1992 1996 2000 2004 2008 2012 2016 2020 2024 2028 2032 2036 2040 2044 2048 2052 2056 2060 2064 2068 2072 2076 2080 2084 2088 2092 2096 2100 2104 2108 2112 2116 2120 2124 2128 2132 2136 2140 2144 2148 2152 2156 2160 2164 2168 2172 2176 2180 2184 2188 2192 2196 2200 2204 2208 2212 2216 2220 2224 2228 2232 2236 2240 2244 2248 2252 2256 2260 2264 2268 2272 2276 2280 2284 2288 2292 2296 2300 2304 2308 2312 2316 2320 2324 2328 2332 2336 2340 2344 2348 2352 2356 2360 2364 2368 2372 2376 </DataArray>
<DataArray  type="UInt8"  Name="types"  format="ascii">10 10 10 10 10 10 10 10 10 10 10 10 10 10 10 10 10 10 10 10 10 10 10 10 10 10 10 10 10 10 10 10 10 10 10 10 10 10 10 10 10 10 10 10 10 10 10 10 10 10 10 10 10 10 10 10 10 10 10 10 10 10 10 10 10 10 10 10 10 10 10 10 10 10 10 10 10 10 10 10 10 10 10 10 10 10 10 10 10 10 10 10 10 10 10 10 10 10 10 10 10 10 10 10 10 10 10 10 10 10 10 10 10 10 10 10 10 10 10 10 10 10 10 10 10 10 10 10 10 10 10 10 10 10 10 10 10 10 10 10 10 10 10 10 10 10 10 10 10 10 10 10 10 10 10 10 10 10 10 10 10 10 10 10 10 10 10 10 10 10 10 10 10 10 10 10 10 10 10 10 10 10 10 10 10 10 10 10 10 10 10 10 10 10 10 10 10 10 10 10 10 10 10 10 10 10 10 10 10 10 10 10 10 10 10 10 10 10 10 10 10 10 10 10 10 10 10 10 10 10 10 10 10 10 10 10 10 10 10 10 10 10 10 10 10 10 10 10 10 10 10 10 10 10 10 10 10 10 10 10 10 10 10 10 10 10 10 10 10 10 10 10 10 10 10 10 10 10 10 10 10 10 10 10 10 10 10 10 10 10 10 10 10 10 10 10 10 10 10 10 10 10 10 10 10 10 10 10 10 10 10 10 10 10 10 10 10 10 10 10 10 10 10 10 10 10 10 10 10 10 10 10 10 10 10 10 10 10 10 10 10 10 10 10 10 10 10 10 10 10 10 10 10 10 10 10 10 10 10 10 10 10 10 10 10 10 10 10 10 10 10 10 10 10 10 10 10 10 10 10 10 10 10 10 10 10 10 10 10 10 10 10 10 10 10 10 10 10 10 10 10 10 10 10 10 10 10 10 10 10 10 10 10 10 10 10 10 10 10 10 10 10 10 10 10 10 10 10 10 10 10 10 10 10 10 10 10 10 10 10 10 10 10 10 10 10 10 10 10 10 10 10 10 10 10 10 10 10 10 10 10 10 10 10 10 10 10 10 10 10 10 10 10 10 10 10 10 10 10 10 10 10 10 10 10 10 10 10 10 10 10 10 10 10 10 10 10 10 10 10 10 10 10 10 10 10 10 10 10 10 10 10 10 10 10 10 10 10 10 10 10 10 10 10 10 10 10 10 10 10 10 10 10 10 10 10 10 10 10 10 10 10 10 10 10 10 10 10 10 10 10 10 10 10 10 10 10 10 10 10 10 10 10 10 10 10 10 10 10 10 10 10 10 10 10 10 10 10 10 10 10 10 10 10 10 10 10 10 10 10 10 10 10 10 </DataArray>
</Cells>
<PointData  Scalars="c_HbCO2"> 
<DataArray  type="Float64"  Name="c_HbCO2"  format="ascii">-3.7592337033067641e-19  -1.7975044411393808e-20  2.0190349730981823e-20  3.5728475074693279e-21  -6.1770674010923956e-21  5.4949603115785238e-21  -5.0572327969619025e-21  -1.1285426012445210e-18  -6.6397195866469909e-19  1.2207777789656062e-20  3.0842826355517708e-20  1.6517741525384831e-21  7.7635640353116174e-22  1.1178941655774657e-20  -2.8497342004335504e-21  -1.0233733619178385e-20  -3.0885079106029783e-22  4.9153413490533538e-21  5.4838227142343716e-22  1.0172045353249525e-22  4.2126388523383878e-23  1.3828578540392753e-20  -9.6816995795335888e-22  -3.2104517074263108e-22  1.2823486035629690e-22  3.6856261993487989e-20  7.9019216311601457e-22  2.5991485561785420e-22  -3.8650415777828238e-22  2.0840012966251521e-22  6.8840238909441118e-21  4.7580563901885073e-22  -2.0371578443875871e-22  1.0181199499737035e-22  -2.1624342746964523e-21  1.0324033358367032e-23  -1.3469479142876929e-23  -1.7999884755177355e-22  -2.2325958063323300e-22  -1.4969819948056791e-23  -1.3656348919928431e-23  -5.8314102421626067e-24  -1.6405004959628644e-24  7.1144909643982911e-25  -2.7003993008317706e-24  2.8924861082761159e-23  -5.3591725650903237e-24  2.8708335268265370e-24  5.8555583204061486e-23  -4.2015262250002118e-22  2.0153062924298076e-23  2.4161968259739237e-23  2.2695405078208007e-23  8.8624564152505643e-25  1.3841318617062487e-24  -3.0759348503802300e-24  -6.3615765228684146e-24  -3.0676886615705753e-22  8.8553764999638388e-23  1.5047549419306850e-23  3.7903062104704504e-23  5.9945226920539934e-23  1.4708500896250021e-24  -1.0995585912374601e-23  2.8618776444878569e-24  -6.9766630643411554e-25  -3.0142111259996427e-24  -1.2699378500522368e-25  -1.3469094269522518e-24  1.8564333764296832e-24  2.5389809390897329e-25  4.3770958851905783e-25  -1.8419605339619448e-24  1.0689980365319802e-24  3.6978740594363279e-24  4.6638965831328154e-25  -4.2763138259077341e-24  4.1519466516153579e-25  -2.3974634694476838e-24  1.4298808113622947e-24  5.4223040238944408e-23  2.2952011923111671e-23  -9.6546053336286374e-24  9.3048372154707927e-25  3.0827094436856602e-22  5.4049761834039779e-23  3.4578740914716104e-24  -1.6235493334448723e-23  -1.0289253663798595e-23  1.0055893168075614e-22  -2.6494745233274069e-23  -8.0067116923425536e-24  2.5078414676695360e-24  -9.5478159221276205e-25  9.3183196443824422e-25  4.0027977242650210e-25  1.6402447187608540e-25  1.3974219390864711e-25  1.2003042430276863e-23  -1.2847993530755511e-24  -2.0085882242530439e-24  -3.5595598758829730e-25  -5.4173515942608295e-26  1.7198476324427030e-25  -2.1863258774121233e-24  2.5941162491679281e-25  -3.5265599124078533e-24  -1.9693598885188929e-24  6.7632318869952759e-25  5.4107958197659082e-25  6.3203083548493094e-25  3.2094047508025023e-25  4.0622954787816819e-25  2.9196196525639073e-24  -7.2210488305423686e-25  -7.1931574030022861e-25  4.1355468133107678e-25  -1.4314639063819120e-24  -8.9758017302921163e-25  -4.8431332384404809e-26  7.7411331557781886e-26  9.2803883572896940e-26  9.7756561795298595e-26  -2.2056063031644248e-26  -4.5156186730358994e-26  7.3128891942794608e-26  -9.6932440087757111e-21  7.9570549170166758e-21  4.4842202480136410e-20  -4.2006402551029954e-19  -1.7606276557602474e-20  -2.7440240201943312e-20  6.6735878664687874e-23  -9.9017286757596731e-23  -8.8399529780307302e-21  1.1182890285149670e-21  1.4638294326713363e-21  -2.7149560696178770e-22  -2.5230444848588066e-23  -3.0428403097739001e-22  -1.3264256215638078e-23  3.6494100079769607e-25  2.3284906712641686e-24  -1.3717642778431340e-23  -2.8215531366305720e-22  2.6804532997613784e-19  -1.7029792380667762e-20  -1.2652268670213909e-21  5.1344623610481887e-21  -5.8513073121718474e-23  8.4775300649033743e-22  2.0390327492518878e-22  9.8450446913219892e-24  1.7284524202816195e-23  8.1318832862182400e-24  -1.4015770619441505e-19  -1.6091091594758937e-18  -3.6545797452279858e-20  -4.6059413729305494e-21  -2.8630469763649768e-21  2.1662782336240746e-21  1.3028834847518085e-20  8.2386987924782870e-22  -3.2883543082714530e-22  -4.4848750857594514e-23  -2.3871780061674679e-23  2.4418855875439162e-23  1.8585799484953932e-23  1.1504598113107279e-24  -2.2355118550987981e-25  -1.4892943801825023e-24  -1.6813290931162258e-19  -3.6658201352098198e-22  4.0374681787176198e-22  4.2354642809203449e-23  -1.4523334794989630e-23  -1.6830198615797880e-23  </DataArray> 
</PointData> 
</Piece>
</UnstructuredGrid>
</VTKFile>