<?xml version="1.0"?>
<VTKFile type="UnstructuredGrid"  version="0.1"  >
<UnstructuredGrid>
<Piece  NumberOfPoints="182" NumberOfCells="590">
<Points>
<DataArray  type="Float64"  NumberOfComponents="3"  format="ascii">20 0 20  25 5 25  25 0 25  20 0 25  20 0 30  25 5 30  25 0 30  20 5 25  20 5 30  20 10 30  25 10 30  25 5 35  25 0 35  20 0 35  20 0 40  25 5 40  25 0 40  25 10 35  20 5 35  20 5 40  20 10 40  25 10 40  20 10 35  25 15 35  25 15 30  25 15 40  20 15 30  20 20 30  25 20 35  25 20 30  20 15 35  20 15 40  20 20 40  25 20 40  20 20 35  25 25 35  25 25 40  25 5 45  25 0 45  20 0 45  20 0 50  25 5 50  25 0 50  25 10 45  20 5 45  20 5 50  20 10 50  25 10 50  20 10 45  25 15 45  25 15 50  25 20 45  25 25 45  25 0 20  25 10 25  20 10 25  25 15 25  20 15 25  25 20 25  20 20 25  25 25 30  25 25 25  10 10 30  10 10 25  10 5 25  5 5 25  10 0 30  10 5 30  10 0 25  5 0 25  0 0 30  5 5 30  5 0 30  0 0 25  5 10 25  0 5 30  0 5 25  0 10 30  5 10 30  0 10 25  15 5 25  15 0 25  15 5 30  15 0 30  15 10 25  15 10 30  10 15 30  10 15 25  5 15 25  5 15 30  0 15 30  0 15 25  0 20 30  0 20 25  15 15 25  15 15 30  15 5 35  15 0 35  15 10 35  15 15 35  5 5 35  10 5 35  10 10 35  10 10 40  5 0 35  10 0 35  10 0 40  10 5 40  0 0 35  0 0 40  5 5 40  5 0 40  5 10 35  0 5 35  0 5 40  0 10 40  5 10 40  0 10 35  15 5 40  15 0 40  15 10 40  5 15 35  10 15 35  10 15 40  10 20 40  5 15 40  0 15 35  0 15 40  0 20 40  5 20 40  15 15 40  15 20 40  5 5 45  10 5 45  10 10 45  10 10 50  5 0 45  10 0 45  10 0 50  10 5 50  0 0 45  0 0 50  5 5 50  5 0 50  5 10 45  0 5 45  0 5 50  0 10 50  5 10 50  0 10 45  15 5 45  15 0 45  15 5 50  15 0 50  15 10 45  15 10 50  5 15 45  10 15 45  10 20 45  10 20 50  10 15 50  5 15 50  5 20 45  0 15 45  0 15 50  0 20 50  5 20 50  0 20 45  15 15 45  20 15 45  20 20 45  20 20 50  20 15 50  15 15 50  15 20 45  15 20 50  25 20 50  15 25 45  20 25 45  20 25 50  15 25 50  25 25 50  </DataArray>
</Points>
<Cells>
<DataArray  type="UInt32"  Name="connectivity"  format="ascii">0 3 2 1  4 1 6 5  4 2 1 6  4 3 2 1  0 3 1 7  4 1 5 8  4 1 7 8  4 3 1 7  9 1 5 10  9 1 5 8  9 1 7 8  4 6 5 11  4 6 11 12  4 11 12 13  14 11 15 16  14 11 12 16  14 11 12 13  4 5 8 11  9 11 10 17  9 5 11 10  9 5 8 11  4 11 13 18  14 11 15 19  14 11 18 19  14 11 13 18  20 11 15 21  20 11 15 19  20 11 18 19  4 8 11 18  9 11 17 22  9 11 18 22  9 8 11 18  20 11 17 21  20 11 17 22  20 11 18 22  9 10 24 23  9 10 17 23  9 17 22 23  20 23 21 25  20 17 23 21  20 17 22 23  9 24 23 26  27 23 29 28  27 24 23 29  27 24 23 26  9 22 23 30  20 23 25 31  20 23 30 31  20 22 23 30  32 23 25 33  32 23 25 31  32 23 30 31  9 23 26 30  27 23 28 34  27 23 30 34  27 23 26 30  32 23 28 33  32 23 28 34  32 23 30 34  27 29 28 35  27 28 34 35  32 33 35 36  32 28 33 35  32 28 34 35  14 15 16 37  14 16 37 38  14 37 38 39  40 37 41 42  40 37 38 42  40 37 38 39  14 15 19 37  20 21 37 43  20 15 21 37  20 15 19 37  14 37 39 44  40 37 41 45  40 37 44 45  40 37 39 44  46 37 41 47  46 37 41 45  46 37 44 45  14 19 37 44  20 37 43 48  20 37 44 48  20 19 37 44  46 37 43 47  46 37 43 48  46 37 44 48  20 21 25 49  20 21 43 49  20 43 48 49  46 49 47 50  46 43 49 47  46 43 48 49  20 25 31 49  32 49 33 51  32 25 49 33  32 25 31 49  32 33 36 52  32 33 51 52  0 2 1 53  9 1 10 54  9 1 54 55  9 1 7 55  9 10 24 56  9 10 54 56  9 54 55 56  9 24 26 56  9 26 56 57  9 55 56 57  27 24 29 56  27 24 26 56  27 26 56 57  27 29 56 58  27 56 58 59  27 56 57 59  27 29 61 60  27 29 58 61  27 58 59 61  27 29 35 60  62 63 64 65  66 64 65 67  66 64 68 65  66 68 65 69  62 64 65 67  70 65 71 72  70 65 69 72  70 65 69 73  66 65 67 71  66 65 71 72  66 65 69 72  62 65 67 71  62 63 65 74  70 65 71 75  70 65 76 75  70 65 73 76  77 65 71 78  77 65 71 75  77 65 76 75  62 65 71 78  77 65 74 78  77 65 74 79  77 65 76 79  62 65 74 78  9 7 55 80  0 3 7 80  0 3 80 81  4 7 8 80  4 3 7 80  4 3 80 81  9 7 8 80  66 80 82 83  66 80 81 83  66 68 80 81  4 8 80 82  4 80 82 83  4 80 81 83  9 8 80 82  9 55 84 80  66 80 67 82  66 64 80 67  66 64 68 80  62 80 85 82  62 80 67 82  62 64 80 67  9 80 85 82  62 84 80 85  62 63 84 80  62 63 64 80  9 84 80 85  62 87 88 86  62 63 87 88  62 63 74 88  77 88 78 89  77 74 88 78  77 74 79 88  62 88 86 89  62 88 78 89  62 74 88 78  77 88 89 90  77 88 91 90  77 79 88 91  92 88 89 90  92 88 91 90  92 88 91 93  27 57 59 94  9 26 57 94  9 55 57 94  9 55 84 94  27 26 57 94  62 94 85 95  62 84 94 85  62 63 84 94  9 26 94 95  9 94 85 95  9 84 94 85  27 26 94 95  62 94 86 95  62 87 94 86  62 63 87 94  66 82 83 96  4 8 18 96  4 8 82 96  4 82 83 96  9 18 22 96  9 8 18 96  9 8 82 96  20 18 22 96  66 83 96 97  4 13 18 96  4 13 96 97  4 83 96 97  14 18 19 96  14 13 18 96  14 13 96 97  20 18 19 96  66 67 82 96  62 85 98 96  62 85 82 96  62 67 82 96  9 22 98 96  9 85 98 96  9 85 82 96  20 22 98 96  62 85 95 99  9 26 30 99  9 26 95 99  9 85 95 99  27 30 34 99  27 26 30 99  27 26 95 99  32 30 34 99  62 85 98 99  9 22 30 99  9 22 98 99  9 85 98 99  20 30 31 99  20 22 30 99  20 22 98 99  32 30 31 99  62 86 95 99  70 71 72 100  66 67 100 101  66 67 71 100  66 71 72 100  62 100 101 102  62 67 100 101  62 67 71 100  103 100 101 102  70 72 100 104  66 100 101 105  66 100 104 105  66 72 100 104  106 100 101 107  106 100 101 105  106 100 104 105  103 100 101 107  70 100 104 108  109 100 110 111  109 100 104 111  109 100 104 108  106 100 107 110  106 100 110 111  106 100 104 111  103 100 107 110  70 71 75 100  77 78 100 112  77 71 78 100  77 71 75 100  62 100 102 112  62 78 100 112  62 71 78 100  103 100 102 112  70 100 108 113  109 100 110 114  109 100 113 114  109 100 108 113  115 100 110 116  115 100 110 114  115 100 113 114  103 100 110 116  70 75 100 113  77 100 112 117  77 100 113 117  77 75 100 113  115 100 112 116  115 100 112 117  115 100 113 117  103 100 112 116  66 96 97 105  106 96 119 118  106 96 97 119  106 96 97 105  14 19 96 118  14 96 119 118  14 96 97 119  20 19 96 118  66 96 101 105  106 96 107 118  106 96 101 107  106 96 101 105  103 96 120 118  103 96 107 118  103 96 101 107  20 96 120 118  66 67 96 101  62 98 96 102  62 96 101 102  62 67 96 101  103 98 96 120  103 98 96 102  103 96 101 102  20 98 96 120  77 78 89 121  62 86 122 121  62 86 89 121  62 78 89 121  77 78 112 121  62 102 122 121  62 102 112 121  62 78 112 121  103 122 123 121  103 102 122 121  103 102 112 121  124 122 123 121  77 112 117 121  115 116 121 125  115 112 116 121  115 112 117 121  103 123 121 125  103 116 121 125  103 112 116 121  124 123 121 125  77 89 90 121  92 89 90 121  77 117 121 126  115 121 125 127  115 121 126 127  115 117 121 126  128 121 125 129  128 121 125 127  128 121 126 127  124 121 125 129  77 90 121 126  92 90 121 126  62 98 99 102  103 99 120 130  103 98 99 120  103 98 99 102  20 31 99 130  20 99 120 130  20 98 99 120  32 31 99 130  62 99 102 122  103 99 123 130  103 99 122 123  103 99 102 122  124 99 130 131  124 99 123 130  124 99 122 123  32 99 130 131  62 86 99 122  109 110 111 132  106 107 133 132  106 107 110 132  106 110 111 132  103 134 133 132  103 107 133 132  103 107 110 132  135 134 133 132  109 111 132 136  106 133 137 132  106 137 132 136  106 111 132 136  138 133 132 139  138 133 137 132  138 137 132 136  135 133 132 139  109 132 136 140  141 132 142 143  141 132 136 143  141 132 136 140  138 132 139 142  138 132 142 143  138 132 136 143  135 132 139 142  109 110 114 132  115 116 132 144  115 110 116 132  115 110 114 132  103 134 132 144  103 116 132 144  103 110 116 132  135 134 132 144  109 132 140 145  141 132 142 146  141 132 145 146  141 132 140 145  147 132 142 148  147 132 142 146  147 132 145 146  135 132 142 148  109 114 132 145  115 132 144 149  115 132 145 149  115 114 132 145  147 132 144 148  147 132 144 149  147 132 145 149  135 132 144 148  106 119 118 150  14 19 44 150  14 19 118 150  14 119 118 150  20 44 48 150  20 19 44 150  20 19 118 150  46 44 48 150  106 119 150 151  14 39 44 150  14 39 150 151  14 119 150 151  40 44 45 150  40 39 44 150  40 39 150 151  46 44 45 150  106 137 150 151  138 150 152 153  138 150 151 153  138 137 150 151  40 45 150 152  40 150 152 153  40 150 151 153  46 45 150 152  106 107 118 150  103 120 154 150  103 120 118 150  103 107 118 150  20 48 154 150  20 120 154 150  20 120 118 150  46 48 154 150  106 133 137 150  138 150 139 152  138 133 150 139  138 133 137 150  135 150 155 152  135 150 139 152  135 133 150 139  46 150 155 152  106 107 133 150  103 134 154 150  103 134 133 150  103 107 133 150  135 154 150 155  135 134 154 150  135 134 133 150  46 154 150 155  115 116 125 156  103 123 157 156  103 123 125 156  103 116 125 156  124 157 156 158  124 123 157 156  124 123 125 156  159 157 156 158  115 116 144 156  103 134 157 156  103 134 144 156  103 116 144 156  135 157 156 160  135 134 157 156  135 134 144 156  159 157 156 160  115 144 149 156  147 156 148 161  147 144 156 148  147 144 149 156  135 156 160 161  135 156 148 161  135 144 156 148  159 156 160 161  115 125 127 156  128 156 129 162  128 125 156 129  128 125 127 156  124 156 158 162  124 156 129 162  124 125 156 129  159 156 158 162  115 149 156 163  147 156 161 164  147 156 163 164  147 149 156 163  165 156 161 166  165 156 161 164  165 156 163 164  159 156 161 166  115 127 156 163  128 156 162 167  128 156 163 167  128 127 156 163  165 156 162 166  165 156 162 167  165 156 163 167  159 156 162 166  103 120 130 168  20 31 168 169  20 31 130 168  20 120 130 168  32 168 169 170  32 31 168 169  32 31 130 168  171 168 169 170  103 120 154 168  20 48 168 169  20 48 154 168  20 120 154 168  46 168 169 172  46 48 168 169  46 48 154 168  171 168 169 172  103 134 154 168  135 168 155 173  135 154 168 155  135 134 154 168  46 168 173 172  46 168 155 173  46 154 168 155  171 168 173 172  103 123 130 168  124 168 131 174  124 130 168 131  124 123 130 168  32 168 174 170  32 168 131 174  32 130 168 131  171 168 174 170  103 134 157 168  135 168 160 173  135 157 168 160  135 134 157 168  159 168 173 175  159 168 160 173  159 157 168 160  171 168 173 175  103 123 157 168  124 168 158 174  124 157 168 158  124 123 157 168  159 168 174 175  159 168 158 174  159 157 168 158  171 168 174 175  20 48 49 169  46 49 50 172  46 49 169 172  46 48 49 169  171 49 50 176  171 49 50 172  171 49 169 172  20 31 49 169  32 49 51 170  32 49 169 170  32 31 49 169  171 49 51 176  171 49 51 170  171 49 169 170  124 131 174 177  32 177 170 178  32 174 177 170  32 131 174 177  171 177 178 179  171 177 170 178  171 174 177 170  124 158 174 177  159 177 175 180  159 174 177 175  159 158 174 177  171 177 180 179  171 177 175 180  171 174 177 175  32 51 52 170  171 52 176 181  171 51 52 176  171 51 52 170  32 52 170 178  171 52 179 181  171 52 178 179  171 52 170 178  </DataArray>
<DataArray  type="UInt32"  Name="offsets"  format="ascii">4 8 12 16 20 24 28 32 36 40 44 48 52 56 60 64 68 72 76 80 84 88 92 96 100 104 108 112 116 120 124 128 132 136 140 144 148 152 156 160 164 168 172 176 180 184 188 192 196 200 204 208 212 216 220 224 228 232 236 240 244 248 252 256 260 264 268 272 276 280 284 288 292 296 300 304 308 312 316 320 324 328 332 336 340 344 348 352 356 360 364 368 372 376 380 384 388 392 396 400 404 408 412 416 420 424 428 432 436 440 444 448 452 456 460 464 468 472 476 480 484 488 492 496 500 504 508 512 516 520 524 528 532 536 540 544 548 552 556 560 564 568 572 576 580 584 588 592 596 600 604 608 612 616 620 624 628 632 636 640 644 648 652 656 660 664 668 672 676 680 684 688 692 696 700 704 708 712 716 720 724 728 732 736 740 744 748 752 756 760 764 768 772 776 780 784 788 792 796 800 804 808 812 816 820 824 828 832 836 840 844 848 852 856 860 864 868 872 876 880 884 888 892 896 900 904 908 912 916 920 924 928 932 936 940 944 948 952 956 960 964 968 972 976 980 984 988 992 996 1000 1004 1008 1012 1016 1020 1024 1028 1032 1036 1040 1044 1048 1052 1056 1060 1064 1068 1072 1076 1080 1084 1088 1092 1096 1100 1104 1108 1112 1116 1120 1124 1128 1132 1136 1140 1144 1148 1152 1156 1160 1164 1168 1172 1176 1180 1184 1188 1192 1196 1200 1204 1208 1212 1216 1220 1224 1228 1232 1236 1240 1244 1248 1252 1256 1260 1264 1268 1272 1276 1280 1284 1288 1292 1296 1300 1304 1308 1312 1316 1320 1324 1328 1332 1336 1340 1344 1348 1352 1356 1360 1364 1368 1372 1376 1380 1384 1388 1392 1396 1400 1404 1408 1412 1416 1420 1424 1428 1432 1436 1440 1444 1448 1452 1456 1460 1464 1468 1472 1476 1480 1484 1488 1492 1496 1500 1504 1508 1512 1516 1520 1524 1528 1532 1536 1540 1544 1548 1552 1556 1560 1564 1568 1572 1576 1580 1584 1588 1592 1596 1600 1604 1608 1612 1616 1620 1624 1628 1632 1636 1640 1644 1648 1652 1656 1660 1664 1668 1672 1676 1680 1684 1688 1692 1696 1700 1704 1708 1712 1716 1720 1724 1728 1732 1736 1740 1744 1748 1752 1756 1760 1764 1768 1772 1776 1780 1784 1788 1792 1796 1800 1804 1808 1812 1816 1820 1824 1828 1832 1836 1840 1844 1848 1852 1856 1860 1864 1868 1872 1876 1880 1884 1888 1892 1896 1900 1904 1908 1912 1916 1920 1924 1928 1932 1936 1940 1944 1948 1952 1956 1960 1964 1968 1972 1976 1980 1984 1988 1992 1996 2000 2004 2008 2012 2016 2020 2024 2028 2032 2036 2040 2044 2048 2052 2056 2060 2064 2068 2072 2076 2080 2084 2088 2092 2096 2100 2104 2108 2112 2116 2120 2124 2128 2132 2136 2140 2144 2148 2152 2156 2160 2164 2168 2172 2176 2180 2184 2188 2192 2196 2200 2204 2208 2212 2216 2220 2224 2228 2232 2236 2240 2244 2248 2252 2256 2260 2264 2268 2272 2276 2280 2284 2288 2292 2296 2300 2304 2308 2312 2316 2320 2324 2328 2332 2336 2340 2344 2348 2352 2356 2360 </DataArray>
<DataArray  type="UInt8"  Name="types"  format="ascii">10 10 10 10 10 10 10 10 10 10 10 10 10 10 10 10 10 10 10 10 10 10 10 10 10 10 10 10 10 10 10 10 10 10 10 10 10 10 10 10 10 10 10 10 10 10 10 10 10 10 10 10 10 10 10 10 10 10 10 10 10 10 10 10 10 10 10 10 10 10 10 10 10 10 10 10 10 10 10 10 10 10 10 10 10 10 10 10 10 10 10 10 10 10 10 10 10 10 10 10 10 10 10 10 10 10 10 10 10 10 10 10 10 10 10 10 10 10 10 10 10 10 10 10 10 10 10 10 10 10 10 10 10 10 10 10 10 10 10 10 10 10 10 10 10 10 10 10 10 10 10 10 10 10 10 10 10 10 10 10 10 10 10 10 10 10 10 10 10 10 10 10 10 10 10 10 10 10 10 10 10 10 10 10 10 10 10 10 10 10 10 10 10 10 10 10 10 10 10 10 10 10 10 10 10 10 10 10 10 10 10 10 10 10 10 10 10 10 10 10 10 10 10 10 10 10 10 10 10 10 10 10 10 10 10 10 10 10 10 10 10 10 10 10 10 10 10 10 10 10 10 10 10 10 10 10 10 10 10 10 10 10 10 10 10 10 10 10 10 10 10 10 10 10 10 10 10 10 10 10 10 10 10 10 10 10 10 10 10 10 10 10 10 10 10 10 10 10 10 10 10 10 10 10 10 10 10 10 10 10 10 10 10 10 10 10 10 10 10 10 10 10 10 10 10 10 10 10 10 10 10 10 10 10 10 10 10 10 10 10 10 10 10 10 10 10 10 10 10 10 10 10 10 10 10 10 10 10 10 10 10 10 10 10 10 10 10 10 10 10 10 10 10 10 10 10 10 10 10 10 10 10 10 10 10 10 10 10 10 10 10 10 10 10 10 10 10 10 10 10 10 10 10 10 10 10 10 10 10 10 10 10 10 10 10 10 10 10 10 10 10 10 10 10 10 10 10 10 10 10 10 10 10 10 10 10 10 10 10 10 10 10 10 10 10 10 10 10 10 10 10 10 10 10 10 10 10 10 10 10 10 10 10 10 10 10 10 10 10 10 10 10 10 10 10 10 10 10 10 10 10 10 10 10 10 10 10 10 10 10 10 10 10 10 10 10 10 10 10 10 10 10 10 10 10 10 10 10 10 10 10 10 10 10 10 10 10 10 10 10 10 10 10 10 10 10 10 10 10 10 10 10 10 10 10 10 10 10 10 10 10 10 10 10 10 10 10 10 10 10 10 10 10 10 10 10 10 10 10 10 10 10 10 10 10 10 10 10 10 10 10 10 10 10 10 10 10 10 10 10 10 10 10 10 10 10 10 10 10 10 </DataArray>
</Cells>
<PointData  Scalars="c_HbCO2"> 
<DataArray  type="Float64"  Name="c_HbCO2"  format="ascii">-1.0373297057358719e-20  -1.0826621302631144e-19  -4.8021492917106721e-21  -4.4678844764416857e-21  -3.2414666768917061e-21  2.0007612804232619e-20  5.2489645687213031e-21  -4.3676031560504347e-22  -3.5031319271014068e-21  1.3328056355253450e-20  7.2418300666629150e-19  1.0364161115634772e-20  3.5335164825439436e-22  -4.7118576723839441e-22  -2.4197070047059124e-22  -5.8963110359063303e-22  -4.6899577468970947e-22  1.0448857186453102e-20  -2.0342561694765279e-22  -4.5058744218008045e-22  1.3907651524694790e-21  1.9439560239668693e-21  9.0040239383529394e-22  -6.6602949654199120e-20  -1.4161254151957625e-19  5.9681429767756216e-22  -2.1910552196773094e-19  -9.5968456381694137e-19  -4.7409198114149258e-20  -3.1070445214419724e-18  -8.6145784115955402e-21  2.4357825591901686e-21  -1.1619779153334699e-20  -2.7440240201943312e-20  -3.0023827856040998e-20  -4.2006402551029954e-19  -1.7606276557602474e-20  -5.0640889102090319e-23  8.7137698193205175e-24  1.2985434961899808e-23  3.0431725817742009e-24  4.2510042509815266e-24  -1.1195178742274232e-23  4.6904406927580219e-23  -2.5026833324017242e-23  6.3426525615595426e-24  6.5333774486790156e-23  -5.2712322202194195e-23  -6.7276195854976721e-23  -7.0858909925366343e-22  -3.9043213699195758e-23  7.3183454619861674e-22  1.4638294326713363e-21  -1.7233546934177521e-20  -2.2182474570609220e-19  -6.8050394761312517e-20  -3.7832088339186009e-18  -2.3585193315521081e-19  3.3633575808471021e-18  7.6982399111062457e-19  -2.4919940179462475e-18  -2.1578589662122738e-17  7.0723022657514091e-22  3.4519719176764641e-21  -4.2242307232848618e-23  -3.4243279865575379e-22  -1.0889842674229524e-22  -1.7127375607644059e-22  -9.2088879783570050e-23  -4.2168486416575818e-23  6.3999999999977945e-22  -6.7710133023292374e-23  2.9033251666805708e-23  6.3999999999977945e-22  6.0490490375064163e-24  6.3999999999977945e-22  6.3999999999977945e-22  6.3999999999977945e-22  4.6251795913584062e-23  6.3999999999977945e-22  -1.0664415953265033e-21  1.5125335145187233e-22  5.6477263096517661e-22  -2.7458635912705785e-22  2.1036890792139173e-20  6.6912311369789751e-21  -7.5143844878835962e-21  -9.4643898595381225e-21  5.0191713147557590e-22  -7.4418020992421922e-22  6.3999999999977945e-22  6.3999999999977945e-22  6.3999999999977945e-22  6.3999999999977945e-22  1.9517624659244004e-19  -2.5271922312263785e-20  1.2308790457781044e-22  1.6591489491673216e-22  -1.0795442481059001e-21  -5.4566897277455653e-21  -3.5867072791574455e-22  -2.4754883621780899e-23  2.4908232615950897e-23  5.3213220934351673e-23  -4.9184661291861658e-23  -1.2612135876349816e-24  1.5999558689803741e-23  7.1784526283574062e-24  6.3999999999977945e-22  6.3999999999977945e-22  -5.3490459251223129e-23  1.9668614027159394e-23  -6.4942462394387726e-23  6.3999999999977945e-22  6.3999999999977945e-22  6.3999999999977945e-22  1.9182225659478765e-23  6.3999999999977945e-22  -3.3871099321317449e-23  -1.8450187521908927e-23  -1.6315276618572595e-22  -3.1561301094080997e-22  -5.7006773897755914e-22  6.0790961172813808e-23  -1.6181148662207187e-22  -4.8324045675968779e-23  6.3999999999977945e-22  6.3999999999977945e-22  6.3999999999977945e-22  4.2971951137586957e-23  -8.8756205384139777e-22  -1.5914625085990106e-21  -3.5363478341911756e-22  5.9781967036020615e-24  1.9054921046819477e-23  3.8467555509164270e-23  -5.2806656095691222e-23  1.8308059388197183e-23  2.9604676446078181e-23  1.7477805661226569e-23  6.3999999999977945e-22  6.3999999999977945e-22  -5.3478037515730070e-23  1.9248435502427121e-23  -5.4786458845483856e-23  6.3999999999977945e-22  6.3999999999977945e-22  6.3999999999977945e-22  1.9334081625886346e-23  6.3999999999977945e-22  -2.1728928297721064e-23  6.5676980716645789e-24  -1.3241365151100046e-24  2.6643218244907166e-24  -4.0836067440405974e-23  1.7177998933321173e-23  -3.5338293875468581e-22  9.2694235722859036e-24  5.5503250418531549e-23  4.7129557613310516e-23  2.7377560917301683e-23  -5.4408013740553195e-23  -5.2201193687050927e-23  6.3999999999977945e-22  6.3999999999977945e-22  6.3999999999977945e-22  1.8751125427868755e-23  6.3999999999977945e-22  -1.5073114325776344e-22  -5.7978363064315614e-22  -8.3474592757384862e-23  9.6801510351813628e-23  5.7017502662616178e-23  1.8769731881538839e-23  -1.7032927412289429e-22  4.9566750401349181e-23  7.9947581483972173e-24  -2.3713717508619167e-23  1.2607293704329788e-21  -1.6212506690497107e-22  4.3459848408721961e-23  -5.8513073121718474e-23  </DataArray> 
</PointData> 
</Piece>
</UnstructuredGrid>
</VTKFile>