<?xml version="1.0"?>
<VTKFile type="UnstructuredGrid"  version="0.1"  >
<UnstructuredGrid>
<Piece  NumberOfPoints="129" NumberOfCells="408">
<Points>
<DataArray  type="Float64"  NumberOfComponents="3"  format="ascii">40 40 30  40 40 35  40 35 35  35 35 35  40 40 40  35 40 35  30 40 40  35 40 40  50 40 30  50 40 35  50 35 35  45 35 35  50 40 40  45 40 35  45 40 30  45 40 40  40 45 35  40 45 30  35 45 35  40 50 30  40 50 35  40 50 40  40 45 40  35 45 40  35 50 35  30 45 40  30 45 35  30 50 40  35 50 40  30 50 30  30 50 35  50 50 30  50 50 35  50 45 35  45 45 35  50 50 40  50 45 40  45 45 40  45 50 35  45 50 30  45 50 40  35 45 45  40 45 45  40 50 45  40 50 50  35 50 45  30 45 45  30 50 45  30 50 50  35 50 50  45 45 45  50 45 45  50 50 45  50 50 50  45 50 45  45 50 50  40 30 40  40 30 35  40 25 35  35 25 35  40 25 40  35 25 40  35 30 35  30 30 40  35 30 40  30 25 40  50 30 40  50 30 35  45 30 35  45 25 35  45 30 40  45 25 40  40 35 40  35 35 40  50 35 40  45 35 40  40 30 45  40 25 45  35 25 45  40 30 50  40 25 50  35 30 45  45 30 45  45 25 45  50 30 45  50 30 50  45 30 50  45 25 50  35 35 45  40 35 45  40 40 45  40 40 50  40 35 50  45 35 45  50 35 45  50 40 45  50 40 50  50 35 50  45 35 50  45 40 45  45 40 50  30 35 40  35 25 50  30 30 50  35 30 50  30 25 50  30 25 45  30 30 45  35 35 50  35 40 45  30 35 45  30 35 50  30 40 50  35 40 50  30 40 45  40 45 50  35 45 50  30 45 50  50 45 50  45 45 50  25 45 35  25 45 40  25 50 35  25 35 45  25 40 45  25 45 45  25 45 50  25 50 45  25 25 45  </DataArray>
</Points>
<Cells>
<DataArray  type="UInt32"  Name="connectivity"  format="ascii">0 1 2 3  4 1 2 3  0 1 3 5  4 1 3 5  6 3 5 7  4 3 5 7  8 11 9 10  12 11 9 10  0 14 13 11  8 13 11 9  8 14 13 11  12 13 11 9  0 1 13 11  0 1 2 11  4 13 11 15  4 1 13 11  4 1 2 11  12 13 11 15  0 17 16 18  19 16 18 20  19 17 16 18  21 16 18 20  0 1 16 18  0 1 5 18  4 16 18 22  4 1 16 18  4 1 5 18  21 16 18 22  6 18 7 23  6 5 18 7  4 18 22 23  4 18 7 23  4 5 18 7  21 18 22 23  19 18 20 24  21 18 20 24  6 18 23 25  6 18 26 25  27 18 23 28  27 18 23 25  27 18 26 25  21 18 23 28  29 18 24 30  29 18 26 30  27 18 24 28  27 18 24 30  27 18 26 30  21 18 24 28  31 34 33 32  35 34 33 32  0 14 13 34  8 34 9 33  8 13 34 9  8 14 13 34  12 34 33 36  12 34 9 33  12 13 34 9  35 34 33 36  0 1 13 34  4 34 15 37  4 13 34 15  4 1 13 34  12 34 37 36  12 34 15 37  12 13 34 15  35 34 37 36  19 34 39 38  31 34 38 32  31 34 39 38  35 34 38 32  0 1 16 34  4 34 22 37  4 16 34 22  4 1 16 34  21 34 37 40  21 34 22 37  21 16 34 22  35 34 37 40  0 17 16 34  19 34 20 38  19 16 34 20  19 17 16 34  21 34 38 40  21 34 20 38  21 16 34 20  35 34 38 40  6 7 23 41  4 22 42 41  4 22 23 41  4 7 23 41  21 42 41 43  21 22 42 41  21 22 23 41  44 42 41 43  6 23 25 41  27 41 28 45  27 23 41 28  27 23 25 41  21 41 43 45  21 41 28 45  21 23 41 28  44 41 43 45  6 25 41 46  27 41 45 47  27 41 46 47  27 25 41 46  48 41 45 49  48 41 45 47  48 41 46 47  44 41 45 49  4 15 37 50  12 50 36 51  12 37 50 36  12 15 37 50  35 50 51 52  35 50 36 51  35 37 50 36  53 50 51 52  4 22 37 50  21 50 40 54  21 37 50 40  21 22 37 50  35 50 54 52  35 50 40 54  35 37 50 40  53 50 54 52  4 22 42 50  21 50 43 54  21 42 50 43  21 22 42 50  44 50 54 55  44 50 43 54  44 42 50 43  53 50 54 55  56 58 59 57  56 58 60 59  56 60 59 61  56 59 57 62  63 59 61 64  63 59 61 65  56 59 61 64  63 59 62 64  56 59 62 64  66 69 68 67  56 69 71 70  56 69 60 71  56 58 69 60  66 69 71 70  56 69 68 70  56 69 57 68  56 58 69 57  66 69 68 70  56 2 3 72  56 2 3 57  56 3 57 62  4 2 3 72  63 3 64 73  63 3 62 64  56 3 72 73  56 3 64 73  56 3 62 64  4 3 72 73  66 11 10 74  66 11 10 67  66 11 68 67  12 11 10 74  56 11 70 75  56 11 68 70  56 11 57 68  66 11 75 74  66 11 70 75  66 11 68 70  12 11 75 74  56 11 72 75  56 2 11 72  56 2 11 57  4 11 15 75  4 11 72 75  4 2 11 72  12 11 15 75  56 77 78 76  56 60 77 78  56 60 61 78  79 77 78 76  79 77 78 80  63 78 64 81  63 61 78 64  63 61 65 78  56 78 76 81  56 78 64 81  56 61 78 64  79 78 76 81  56 83 70 82  56 71 83 70  56 60 71 83  66 83 82 84  66 83 70 82  66 71 83 70  85 83 82 84  79 83 87 86  79 83 80 87  79 77 83 80  85 83 87 86  56 83 76 82  56 77 83 76  56 60 77 83  79 83 82 86  79 83 76 82  79 77 83 76  85 83 82 86  63 64 73 88  56 72 89 88  56 72 73 88  56 64 73 88  4 89 88 90  4 72 89 88  4 72 73 88  91 89 88 90  63 64 81 88  56 76 89 88  56 76 81 88  56 64 81 88  79 89 88 92  79 76 89 88  79 76 81 88  91 89 88 92  56 70 75 93  66 93 74 94  66 75 93 74  66 70 75 93  12 93 94 95  12 93 74 94  12 75 93 74  96 93 94 95  56 70 82 93  66 93 84 94  66 82 93 84  66 70 82 93  85 93 94 97  85 93 84 94  85 82 93 84  96 93 94 97  56 76 82 93  79 93 86 98  79 82 93 86  79 76 82 93  85 93 98 97  85 93 86 98  85 82 93 86  96 93 98 97  56 72 75 93  4 15 93 99  4 15 75 93  4 72 75 93  12 93 99 95  12 15 93 99  12 15 75 93  96 93 99 95  56 76 89 93  79 93 92 98  79 89 93 92  79 76 89 93  91 93 98 100  91 93 92 98  91 89 93 92  96 93 98 100  56 72 89 93  4 93 90 99  4 89 93 90  4 72 89 93  91 93 99 100  91 93 90 99  91 89 93 90  96 93 99 100  63 3 73 101  6 3 7 73  6 3 73 101  4 3 7 73  79 78 80 102  103 78 102 104  103 78 102 105  103 78 105 106  79 78 102 104  63 78 81 107  63 78 107 106  63 65 78 106  103 78 81 104  103 78 81 107  103 78 107 106  79 78 81 104  63 81 88 107  103 88 104 108  103 81 88 104  103 81 88 107  79 88 92 108  79 88 104 108  79 81 88 104  91 88 92 108  63 73 88 101  6 7 88 109  6 7 73 88  6 73 88 101  4 88 90 109  4 7 88 109  4 7 73 88  91 88 90 109  63 88 107 110  103 88 108 111  103 88 110 111  103 88 107 110  112 88 108 113  112 88 108 111  112 88 110 111  91 88 108 113  63 88 101 110  6 88 109 114  6 88 110 114  6 88 101 110  112 88 109 113  112 88 109 114  112 88 110 114  91 88 109 113  6 7 41 109  4 42 41 90  4 41 90 109  4 7 41 109  91 42 41 115  91 42 41 90  91 41 90 109  44 42 41 115  6 41 109 114  112 41 113 116  112 41 109 113  112 41 109 114  91 41 115 116  91 41 113 116  91 41 109 113  44 41 115 116  6 41 46 114  112 41 116 117  112 41 46 117  112 41 46 114  48 41 49 116  48 41 116 117  48 41 46 117  44 41 49 116  4 15 50 99  12 50 51 95  12 50 99 95  12 15 50 99  96 50 51 118  96 50 51 95  96 50 99 95  53 50 51 118  4 50 90 99  91 50 100 119  91 50 99 100  91 50 90 99  96 50 119 118  96 50 100 119  96 50 99 100  53 50 119 118  4 42 50 90  91 50 115 119  91 42 50 115  91 42 50 90  44 50 55 119  44 50 115 119  44 42 50 115  53 50 55 119  29 26 30 120  27 26 30 120  6 26 25 120  27 26 25 120  6 25 120 121  27 25 120 121  29 30 120 122  27 30 120 122  63 101 110 123  6 110 114 123  6 101 110 123  112 110 114 123  63 107 110 123  103 110 111 123  103 107 110 123  112 110 111 123  6 114 123 124  112 114 123 124  6 25 46 125  6 25 121 125  27 46 47 125  27 25 46 125  27 25 121 125  48 46 47 125  6 46 114 125  6 114 124 125  112 46 117 125  112 46 114 125  112 114 124 125  48 46 117 125  112 117 125 126  48 117 125 126  27 47 125 127  48 47 125 127  63 107 106 128  63 65 106 128  103 107 106 128  103 105 106 128  </DataArray>
<DataArray  type="UInt32"  Name="offsets"  format="ascii">4 8 12 16 20 24 28 32 36 40 44 48 52 56 60 64 68 72 76 80 84 88 92 96 100 104 108 112 116 120 124 128 132 136 140 144 148 152 156 160 164 168 172 176 180 184 188 192 196 200 204 208 212 216 220 224 228 232 236 240 244 248 252 256 260 264 268 272 276 280 284 288 292 296 300 304 308 312 316 320 324 328 332 336 340 344 348 352 356 360 364 368 372 376 380 384 388 392 396 400 404 408 412 416 420 424 428 432 436 440 444 448 452 456 460 464 468 472 476 480 484 488 492 496 500 504 508 512 516 520 524 528 532 536 540 544 548 552 556 560 564 568 572 576 580 584 588 592 596 600 604 608 612 616 620 624 628 632 636 640 644 648 652 656 660 664 668 672 676 680 684 688 692 696 700 704 708 712 716 720 724 728 732 736 740 744 748 752 756 760 764 768 772 776 780 784 788 792 796 800 804 808 812 816 820 824 828 832 836 840 844 848 852 856 860 864 868 872 876 880 884 888 892 896 900 904 908 912 916 920 924 928 932 936 940 944 948 952 956 960 964 968 972 976 980 984 988 992 996 1000 1004 1008 1012 1016 1020 1024 1028 1032 1036 1040 1044 1048 1052 1056 1060 1064 1068 1072 1076 1080 1084 1088 1092 1096 1100 1104 1108 1112 1116 1120 1124 1128 1132 1136 1140 1144 1148 1152 1156 1160 1164 1168 1172 1176 1180 1184 1188 1192 1196 1200 1204 1208 1212 1216 1220 1224 1228 1232 1236 1240 1244 1248 1252 1256 1260 1264 1268 1272 1276 1280 1284 1288 1292 1296 1300 1304 1308 1312 1316 1320 1324 1328 1332 1336 1340 1344 1348 1352 1356 1360 1364 1368 1372 1376 1380 1384 1388 1392 1396 1400 1404 1408 1412 1416 1420 1424 1428 1432 1436 1440 1444 1448 1452 1456 1460 1464 1468 1472 1476 1480 1484 1488 1492 1496 1500 1504 1508 1512 1516 1520 1524 1528 1532 1536 1540 1544 1548 1552 1556 1560 1564 1568 1572 1576 1580 1584 1588 1592 1596 1600 1604 1608 1612 1616 1620 1624 1628 1632 </DataArray>
<DataArray  type="UInt8"  Name="types"  format="ascii">10 10 10 10 10 10 10 10 10 10 10 10 10 10 10 10 10 10 10 10 10 10 10 10 10 10 10 10 10 10 10 10 10 10 10 10 10 10 10 10 10 10 10 10 10 10 10 10 10 10 10 10 10 10 10 10 10 10 10 10 10 10 10 10 10 10 10 10 10 10 10 10 10 10 10 10 10 10 10 10 10 10 10 10 10 10 10 10 10 10 10 10 10 10 10 10 10 10 10 10 10 10 10 10 10 10 10 10 10 10 10 10 10 10 10 10 10 10 10 10 10 10 10 10 10 10 10 10 10 10 10 10 10 10 10 10 10 10 10 10 10 10 10 10 10 10 10 10 10 10 10 10 10 10 10 10 10 10 10 10 10 10 10 10 10 10 10 10 10 10 10 10 10 10 10 10 10 10 10 10 10 10 10 10 10 10 10 10 10 10 10 10 10 10 10 10 10 10 10 10 10 10 10 10 10 10 10 10 10 10 10 10 10 10 10 10 10 10 10 10 10 10 10 10 10 10 10 10 10 10 10 10 10 10 10 10 10 10 10 10 10 10 10 10 10 10 10 10 10 10 10 10 10 10 10 10 10 10 10 10 10 10 10 10 10 10 10 10 10 10 10 10 10 10 10 10 10 10 10 10 10 10 10 10 10 10 10 10 10 10 10 10 10 10 10 10 10 10 10 10 10 10 10 10 10 10 10 10 10 10 10 10 10 10 10 10 10 10 10 10 10 10 10 10 10 10 10 10 10 10 10 10 10 10 10 10 10 10 10 10 10 10 10 10 10 10 10 10 10 10 10 10 10 10 10 10 10 10 10 10 10 10 10 10 10 10 10 10 10 10 10 10 10 10 10 10 10 10 10 10 10 10 10 10 10 10 10 10 10 10 10 10 10 10 10 10 10 10 10 10 10 10 10 10 10 10 10 10 </DataArray>
</Cells>
<PointData  Scalars="c_HbCO2"> 
<DataArray  type="Float64"  Name="c_HbCO2"  format="ascii">6.6639374224470084e-28  2.6331750892011863e-28  1.7266081352296756e-29  -4.2438504952478797e-27  6.6639374537966451e-28  -1.5896693001550005e-27  2.4825612327750398e-26  -6.2774694264222017e-29  3.5236880280404481e-29  1.3751084522448978e-29  8.1311762814659421e-31  -1.1285355505511670e-28  3.5236877173045808e-29  -4.3224203295885086e-29  -2.1577175373457990e-30  -2.1577162545678735e-30  1.7266065242550706e-29  2.6331751020488498e-28  -4.2438505222952004e-27  6.6639374867592423e-28  2.6331751339331601e-28  6.6639374542988167e-28  2.6331750800345034e-28  -1.5896692998084517e-27  -1.5896693475110650e-27  1.0151016178909393e-26  8.5307111600432092e-28  2.4825612351718062e-26  -6.2774692931609251e-29  2.4825612280757271e-26  1.0151016161923398e-26  3.5236878853141099e-29  1.3751086641177902e-29  8.1311830860668934e-31  -1.1285355296996391e-28  3.5236881278445827e-29  1.3751086121707960e-29  -4.3224199871545039e-29  -4.3224203730414915e-29  -2.1577176962169590e-30  -2.1577151179380181e-30  -4.2438504948247046e-27  1.7266074845465601e-29  2.6331751197037428e-28  6.6639374774841065e-28  -1.5896692976913932e-27  8.5307112306663111e-28  1.0151016168849038e-26  2.4825612386200256e-26  -6.2774685714104429e-29  -1.1285355318354188e-28  8.1311734721590587e-31  1.3751086945554939e-29  3.5236875951185524e-29  -4.3224201394990795e-29  -2.1577179683370759e-30  6.6639374245151178e-28  2.6331752762905339e-28  1.7266076470571172e-29  -4.2438504873742716e-27  2.6331753744890425e-28  -1.5896692710493932e-27  -1.5896692372572500e-27  2.4825612373133072e-26  -6.2774703367046158e-29  1.0151016254988863e-26  3.5236880268227920e-29  1.3751089328061290e-29  -4.3224204410397938e-29  -1.1285355348382102e-28  -2.1577164559127164e-30  -4.3224193193513837e-29  2.6331750993410573e-28  -1.5896693060134580e-27  1.3751086842603573e-29  -4.3224200544757581e-29  2.6331751391999962e-28  1.7266079370058868e-29  -4.2438504595081327e-27  6.6639374239834898e-28  2.6331752465610475e-28  -1.5896692928465400e-27  -4.3224202776320487e-29  -1.1285355153967408e-28  1.3751083632677506e-29  3.5236875305759513e-29  -2.1577111611972125e-30  -4.3224198879050643e-29  -4.2438505058980041e-27  1.7266071839702617e-29  2.6331751264961180e-28  6.6639374183632911e-28  2.6331751650449473e-28  -1.1285355202669689e-28  8.1311859977473545e-31  1.3751085766578737e-29  3.5236884133457495e-29  1.3751086196377850e-29  -4.3224199280968350e-29  -4.3224202840670696e-29  -2.1577105058112243e-30  1.0151016025048407e-26  -1.5896692705928083e-27  2.4825612410451144e-26  -6.2774709735778390e-29  1.0151016237115326e-26  8.5307103767249656e-28  1.0151016129764764e-26  -1.5896693002116652e-27  -1.5896692940757276e-27  8.5307116572434642e-28  1.0151016117592858e-26  2.4825612333490751e-26  -6.2774720919894696e-29  1.0151016150661258e-26  2.6331751514560445e-28  -1.5896692926190369e-27  1.0151016177230834e-26  1.3751085588341464e-29  -4.3224201231731609e-29  -1.6767296613469170e-25  -5.8904455276857612e-26  -5.8904455310445217e-26  -1.6767296621239087e-25  -5.8904455320018344e-26  -1.6767296601090280e-25  -5.8904455230727231e-26  -5.8904455204248956e-26  -1.6767296604549792e-25  </DataArray> 
</PointData> 
</Piece>
</UnstructuredGrid>
</VTKFile>