<?xml version="1.0"?>
<VTKFile type="UnstructuredGrid"  version="0.1"  >
<UnstructuredGrid>
<Piece  NumberOfPoints="183" NumberOfCells="614">
<Points>
<DataArray  type="Float64"  NumberOfComponents="3"  format="ascii">40 30 0  40 35 5  40 35 0  35 35 5  35 35 0  40 40 0  40 40 5  40 40 10  40 35 10  35 35 10  30 40 0  35 40 5  35 40 0  30 35 0  30 40 10  35 40 10  30 35 10  30 35 5  30 40 5  50 30 0  50 35 5  50 35 0  45 35 5  45 35 0  50 40 0  50 40 5  50 40 10  50 35 10  45 35 10  45 40 5  45 40 0  45 40 10  35 45 5  35 45 0  40 45 5  40 45 0  40 50 0  40 50 5  40 50 10  40 45 10  35 45 10  30 45 0  30 50 0  35 50 5  35 50 0  30 45 5  30 45 10  30 50 10  35 50 10  30 50 5  45 45 5  45 45 0  50 45 5  50 45 0  50 50 0  50 50 5  50 50 10  50 45 10  45 45 10  45 50 5  45 50 0  45 50 10  40 40 15  40 35 15  35 35 15  40 40 20  40 30 20  40 35 20  30 30 20  35 35 20  35 30 20  35 40 15  30 35 20  30 35 15  30 40 20  35 40 20  30 40 15  50 40 15  50 35 15  45 35 15  50 40 20  50 30 20  50 35 20  45 35 20  45 30 20  45 40 15  45 40 20  35 45 15  40 45 15  40 50 15  40 50 20  40 45 20  35 45 20  35 50 15  30 45 15  30 45 20  30 50 20  35 50 20  30 50 15  45 45 15  50 45 15  50 50 15  50 50 20  50 45 20  45 45 20  45 50 15  45 50 20  35 35 25  40 35 25  40 40 25  40 40 30  40 30 25  40 30 30  40 35 30  35 40 25  30 35 25  30 40 25  30 40 30  35 40 30  45 35 25  50 35 25  50 40 25  50 40 30  45 30 25  50 30 25  50 30 30  50 35 30  45 35 30  45 30 30  45 40 25  45 40 30  35 45 25  40 45 25  40 50 25  40 50 30  40 45 30  35 45 30  35 50 25  30 45 25  30 45 30  30 50 30  35 50 30  30 50 25  45 45 25  50 45 25  50 50 25  50 50 30  50 45 30  45 45 30  45 50 25  45 50 30  45 35 35  50 35 35  50 40 35  50 40 40  45 40 35  45 45 35  50 45 35  25 35 5  25 35 0  25 35 10  25 40 5  25 40 0  25 40 10  25 45 5  25 45 0  25 45 10  25 50 5  25 50 0  25 50 10  25 35 15  25 35 20  25 40 15  25 40 20  25 45 15  25 45 20  25 50 15  25 35 25  25 40 25  25 40 30  25 50 20  25 45 25  25 50 25  </DataArray>
</Points>
<Cells>
<DataArray  type="UInt32"  Name="connectivity"  format="ascii">0 3 2 1  0 4 3 2  5 3 1 6  5 3 2 1  5 4 3 2  7 3 1 6  7 3 1 8  7 3 9 8  10 3 12 11  10 4 3 12  10 4 3 13  5 3 6 11  5 3 12 11  5 4 3 12  7 3 6 11  14 3 9 15  14 3 9 16  14 3 17 16  7 3 9 15  10 3 11 18  10 3 17 18  10 3 13 17  14 3 11 15  14 3 11 18  14 3 17 18  7 3 11 15  19 22 21 20  19 23 22 21  24 22 20 25  24 22 21 20  24 23 22 21  26 22 20 25  26 22 20 27  26 22 28 27  0 2 23 22  5 22 30 29  5 23 22 30  5 2 23 22  24 22 29 25  24 22 30 29  24 23 22 30  26 22 29 25  7 22 28 31  7 22 8 28  7 1 22 8  26 22 28 31  0 2 1 22  5 22 6 29  5 1 22 6  5 2 1 22  7 22 29 31  7 22 6 29  7 1 22 6  26 22 29 31  10 12 33 32  5 35 34 32  5 35 33 32  5 12 33 32  36 34 32 37  36 35 34 32  36 35 33 32  38 34 32 37  10 12 11 32  5 6 34 32  5 6 11 32  5 12 11 32  7 34 39 32  7 6 34 32  7 6 11 32  38 34 39 32  10 11 18 32  14 15 32 40  14 11 15 32  14 11 18 32  7 39 32 40  7 15 32 40  7 11 15 32  38 39 32 40  10 33 32 41  42 32 44 43  42 33 32 44  42 33 32 41  36 32 37 43  36 32 44 43  36 33 32 44  38 32 37 43  10 18 32 45  14 32 40 46  14 32 45 46  14 18 32 45  47 32 40 48  47 32 40 46  47 32 45 46  38 32 40 48  10 32 41 45  42 32 43 49  42 32 45 49  42 32 41 45  47 32 43 48  47 32 43 49  47 32 45 49  38 32 43 48  5 30 51 50  24 50 53 52  24 51 50 53  24 30 51 50  54 50 52 55  54 50 53 52  54 51 50 53  56 50 52 55  5 30 29 50  24 50 25 52  24 29 50 25  24 30 29 50  26 50 52 57  26 50 25 52  26 29 50 25  56 50 52 57  5 6 29 50  7 50 31 58  7 29 50 31  7 6 29 50  26 50 58 57  26 50 31 58  26 29 50 31  56 50 58 57  5 35 51 50  36 50 60 59  36 51 50 60  36 35 51 50  54 50 59 55  54 50 60 59  54 51 50 60  56 50 59 55  5 6 34 50  7 50 39 58  7 34 50 39  7 6 34 50  38 50 58 61  38 50 39 58  38 34 50 39  56 50 58 61  5 35 34 50  36 50 37 59  36 34 50 37  36 35 34 50  38 50 59 61  38 50 37 59  38 34 50 37  56 50 59 61  7 64 63 62  7 64 8 63  7 9 64 8  65 64 63 62  66 64 63 67  65 64 63 67  68 64 70 69  66 64 69 67  66 64 70 69  65 64 69 67  14 64 15 71  14 9 64 15  14 9 16 64  7 64 62 71  7 64 15 71  7 9 64 15  65 64 62 71  68 64 69 72  68 64 73 72  74 64 69 75  74 64 69 72  74 64 73 72  65 64 69 75  14 64 71 76  14 64 73 76  14 16 64 73  74 64 71 75  74 64 71 76  74 64 73 76  65 64 71 75  26 79 78 77  26 79 27 78  26 28 79 27  80 79 78 77  81 79 78 82  80 79 78 82  66 79 84 83  81 79 83 82  81 79 84 83  80 79 83 82  7 79 31 85  7 28 79 31  7 8 28 79  26 79 85 77  26 79 31 85  26 28 79 31  80 79 85 77  66 79 67 83  66 63 79 67  65 79 83 86  65 79 67 83  65 63 79 67  80 79 83 86  7 79 62 85  7 63 79 62  7 8 63 79  65 79 85 86  65 79 62 85  65 63 79 62  80 79 85 86  14 15 40 87  7 39 88 87  7 39 40 87  7 15 40 87  38 88 87 89  38 39 88 87  38 39 40 87  90 88 87 89  14 15 71 87  7 62 88 87  7 62 71 87  7 15 71 87  65 88 87 91  65 62 88 87  65 62 71 87  90 88 87 91  14 71 76 87  74 87 75 92  74 71 87 75  74 71 76 87  65 87 91 92  65 87 75 92  65 71 87 75  90 87 91 92  14 40 46 87  47 87 48 93  47 40 87 48  47 40 46 87  38 87 89 93  38 87 48 93  38 40 87 48  90 87 89 93  14 76 87 94  74 87 92 95  74 87 94 95  74 76 87 94  96 87 92 97  96 87 92 95  96 87 94 95  90 87 92 97  14 46 87 94  47 87 93 98  47 87 94 98  47 46 87 94  96 87 93 97  96 87 93 98  96 87 94 98  90 87 93 97  7 31 58 99  26 99 57 100  26 58 99 57  26 31 58 99  56 99 100 101  56 99 57 100  56 58 99 57  102 99 100 101  7 31 85 99  26 99 77 100  26 85 99 77  26 31 85 99  80 99 100 103  80 99 77 100  80 85 99 77  102 99 100 103  7 62 85 99  65 99 86 104  65 85 99 86  65 62 85 99  80 99 104 103  80 99 86 104  80 85 99 86  102 99 104 103  7 39 58 99  38 99 61 105  38 58 99 61  38 39 58 99  56 99 105 101  56 99 61 105  56 58 99 61  102 99 105 101  7 62 88 99  65 99 91 104  65 88 99 91  65 62 88 99  90 99 104 106  90 99 91 104  90 88 99 91  102 99 104 106  7 39 88 99  38 99 89 105  38 88 99 89  38 39 88 99  90 99 105 106  90 99 89 105  90 88 99 89  102 99 105 106  68 70 69 107  66 67 107 108  66 69 67 107  66 70 69 107  65 107 108 109  65 67 107 108  65 69 67 107  110 107 108 109  66 107 108 111  112 107 108 113  112 107 108 111  110 107 108 113  68 69 72 107  74 75 107 114  74 69 75 107  74 69 72 107  65 107 109 114  65 75 107 114  65 69 75 107  110 107 109 114  68 72 107 115  74 107 114 116  74 107 115 116  74 72 107 115  117 107 114 118  117 107 114 116  117 107 115 116  110 107 114 118  66 84 83 119  81 82 119 120  81 83 82 119  81 84 83 119  80 119 120 121  80 82 119 120  80 83 82 119  122 119 120 121  66 84 119 123  81 119 120 124  81 119 123 124  81 84 119 123  125 119 120 126  125 119 120 124  125 119 123 124  122 119 120 126  66 111 119 123  112 119 127 128  112 119 123 128  112 111 119 123  125 119 127 126  125 119 127 128  125 119 123 128  122 119 127 126  66 67 83 119  65 86 119 129  65 83 86 119  65 67 83 119  80 119 129 121  80 86 119 129  80 83 86 119  122 119 129 121  66 108 111 119  112 119 113 127  112 108 119 113  112 108 111 119  110 119 130 127  110 119 113 127  110 108 119 113  122 119 130 127  66 67 108 119  65 119 109 129  65 108 119 109  65 67 108 119  110 119 129 130  110 119 109 129  110 108 119 109  122 119 129 130  74 75 92 131  65 91 132 131  65 91 92 131  65 75 92 131  90 132 131 133  90 91 132 131  90 91 92 131  134 132 131 133  74 75 114 131  65 109 132 131  65 109 114 131  65 75 114 131  110 132 135 131  110 109 132 131  110 109 114 131  134 132 135 131  74 114 116 131  117 118 131 136  117 114 118 131  117 114 116 131  110 135 131 136  110 118 131 136  110 114 118 131  134 135 131 136  74 92 95 131  96 97 131 137  96 92 97 131  96 92 95 131  90 131 133 137  90 97 131 137  90 92 97 131  134 131 133 137  74 116 131 138  117 131 136 139  117 131 138 139  117 116 131 138  140 131 136 141  140 131 136 139  140 131 138 139  134 131 136 141  74 95 131 138  96 131 137 142  96 131 138 142  96 95 131 138  140 131 137 141  140 131 137 142  140 131 138 142  134 131 137 141  65 86 104 143  80 103 143 144  80 104 103 143  80 86 104 143  102 143 144 145  102 103 143 144  102 104 103 143  146 143 144 145  65 86 129 143  80 143 121 144  80 129 143 121  80 86 129 143  122 143 144 147  122 143 121 144  122 129 143 121  146 143 144 147  65 109 129 143  110 143 130 148  110 129 143 130  110 109 129 143  122 143 148 147  122 143 130 148  122 129 143 130  146 143 148 147  65 91 104 143  90 106 143 149  90 104 106 143  90 91 104 143  102 143 149 145  102 106 143 149  102 104 106 143  146 143 149 145  65 109 132 143  110 143 135 148  110 132 143 135  110 109 132 143  134 143 148 150  134 143 135 148  134 132 143 135  146 143 148 150  65 91 132 143  90 143 133 149  90 132 143 133  90 91 132 143  134 143 149 150  134 143 133 149  134 132 143 133  146 143 149 150  112 127 128 151  125 151 126 152  125 127 151 126  125 127 128 151  122 151 153 152  122 151 126 152  122 127 151 126  154 151 153 152  112 113 127 151  110 130 155 151  110 130 127 151  110 113 127 151  122 155 151 153  122 130 155 151  122 130 127 151  154 155 151 153  110 130 148 156  122 156 147 157  122 148 156 147  122 130 148 156  146 156 147 157  146 148 156 147  110 130 155 156  122 156 153 157  122 155 156 153  122 130 155 156  154 156 153 157  154 155 156 153  110 135 148 156  134 148 156 150  134 135 148 156  146 148 156 150  10 17 18 158  10 13 17 158  10 13 159 158  14 17 18 158  14 17 16 158  14 16 158 160  10 18 158 161  10 158 162 161  10 159 158 162  14 18 158 161  14 158 160 163  14 158 161 163  10 41 45 164  10 41 165 164  10 162 165 164  42 45 49 164  42 41 45 164  42 41 165 164  47 45 49 164  10 18 45 164  10 18 161 164  10 162 161 164  14 45 46 164  14 18 45 164  14 18 161 164  47 45 46 164  14 46 164 166  14 164 163 166  14 161 164 163  47 46 164 166  42 49 164 167  42 164 168 167  42 165 164 168  47 49 164 167  47 164 166 169  47 164 167 169  14 73 76 170  14 16 73 170  14 16 160 170  74 73 76 170  68 73 72 170  74 73 72 170  68 72 170 171  74 72 170 171  14 76 170 172  14 170 163 172  14 160 170 163  74 76 170 172  74 170 171 173  74 170 172 173  14 46 94 174  14 46 166 174  14 163 166 174  47 94 98 174  47 46 94 174  47 46 166 174  96 94 98 174  14 76 94 174  14 76 172 174  14 163 172 174  74 94 95 174  74 76 94 174  74 76 172 174  96 94 95 174  74 95 174 175  74 174 173 175  74 172 174 173  96 95 174 175  47 98 174 176  47 174 169 176  47 166 174 169  96 98 174 176  68 72 115 177  68 72 171 177  74 115 116 177  74 72 115 177  74 72 171 177  117 115 116 177  74 116 177 178  74 177 173 178  74 171 177 173  117 116 177 178  117 179 177 178  96 174 175 180  96 174 176 180  74 95 138 181  74 95 175 181  74 173 175 181  96 138 142 181  96 95 138 181  96 95 175 181  140 138 142 181  74 116 138 181  74 116 178 181  74 173 178 181  117 138 139 181  117 116 138 181  117 116 178 181  140 138 139 181  117 179 178 181  96 142 181 182  96 181 180 182  96 175 181 180  140 142 181 182  </DataArray>
<DataArray  type="UInt32"  Name="offsets"  format="ascii">4 8 12 16 20 24 28 32 36 40 44 48 52 56 60 64 68 72 76 80 84 88 92 96 100 104 108 112 116 120 124 128 132 136 140 144 148 152 156 160 164 168 172 176 180 184 188 192 196 200 204 208 212 216 220 224 228 232 236 240 244 248 252 256 260 264 268 272 276 280 284 288 292 296 300 304 308 312 316 320 324 328 332 336 340 344 348 352 356 360 364 368 372 376 380 384 388 392 396 400 404 408 412 416 420 424 428 432 436 440 444 448 452 456 460 464 468 472 476 480 484 488 492 496 500 504 508 512 516 520 524 528 532 536 540 544 548 552 556 560 564 568 572 576 580 584 588 592 596 600 604 608 612 616 620 624 628 632 636 640 644 648 652 656 660 664 668 672 676 680 684 688 692 696 700 704 708 712 716 720 724 728 732 736 740 744 748 752 756 760 764 768 772 776 780 784 788 792 796 800 804 808 812 816 820 824 828 832 836 840 844 848 852 856 860 864 868 872 876 880 884 888 892 896 900 904 908 912 916 920 924 928 932 936 940 944 948 952 956 960 964 968 972 976 980 984 988 992 996 1000 1004 1008 1012 1016 1020 1024 1028 1032 1036 1040 1044 1048 1052 1056 1060 1064 1068 1072 1076 1080 1084 1088 1092 1096 1100 1104 1108 1112 1116 1120 1124 1128 1132 1136 1140 1144 1148 1152 1156 1160 1164 1168 1172 1176 1180 1184 1188 1192 1196 1200 1204 1208 1212 1216 1220 1224 1228 1232 1236 1240 1244 1248 1252 1256 1260 1264 1268 1272 1276 1280 1284 1288 1292 1296 1300 1304 1308 1312 1316 1320 1324 1328 1332 1336 1340 1344 1348 1352 1356 1360 1364 1368 1372 1376 1380 1384 1388 1392 1396 1400 1404 1408 1412 1416 1420 1424 1428 1432 1436 1440 1444 1448 1452 1456 1460 1464 1468 1472 1476 1480 1484 1488 1492 1496 1500 1504 1508 1512 1516 1520 1524 1528 1532 1536 1540 1544 1548 1552 1556 1560 1564 1568 1572 1576 1580 1584 1588 1592 1596 1600 1604 1608 1612 1616 1620 1624 1628 1632 1636 1640 1644 1648 1652 1656 1660 1664 1668 1672 1676 1680 1684 1688 1692 1696 1700 1704 1708 1712 1716 1720 1724 1728 1732 1736 1740 1744 1748 1752 1756 1760 1764 1768 1772 1776 1780 1784 1788 1792 1796 1800 1804 1808 1812 1816 1820 1824 1828 1832 1836 1840 1844 1848 1852 1856 1860 1864 1868 1872 1876 1880 1884 1888 1892 1896 1900 1904 1908 1912 1916 1920 1924 1928 1932 1936 1940 1944 1948 1952 1956 1960 1964 1968 1972 1976 1980 1984 1988 1992 1996 2000 2004 2008 2012 2016 2020 2024 2028 2032 2036 2040 2044 2048 2052 2056 2060 2064 2068 2072 2076 2080 2084 2088 2092 2096 2100 2104 2108 2112 2116 2120 2124 2128 2132 2136 2140 2144 2148 2152 2156 2160 2164 2168 2172 2176 2180 2184 2188 2192 2196 2200 2204 2208 2212 2216 2220 2224 2228 2232 2236 2240 2244 2248 2252 2256 2260 2264 2268 2272 2276 2280 2284 2288 2292 2296 2300 2304 2308 2312 2316 2320 2324 2328 2332 2336 2340 2344 2348 2352 2356 2360 2364 2368 2372 2376 2380 2384 2388 2392 2396 2400 2404 2408 2412 2416 2420 2424 2428 2432 2436 2440 2444 2448 2452 2456 </DataArray>
<DataArray  type="UInt8"  Name="types"  format="ascii">10 10 10 10 10 10 10 10 10 10 10 10 10 10 10 10 10 10 10 10 10 10 10 10 10 10 10 10 10 10 10 10 10 10 10 10 10 10 10 10 10 10 10 10 10 10 10 10 10 10 10 10 10 10 10 10 10 10 10 10 10 10 10 10 10 10 10 10 10 10 10 10 10 10 10 10 10 10 10 10 10 10 10 10 10 10 10 10 10 10 10 10 10 10 10 10 10 10 10 10 10 10 10 10 10 10 10 10 10 10 10 10 10 10 10 10 10 10 10 10 10 10 10 10 10 10 10 10 10 10 10 10 10 10 10 10 10 10 10 10 10 10 10 10 10 10 10 10 10 10 10 10 10 10 10 10 10 10 10 10 10 10 10 10 10 10 10 10 10 10 10 10 10 10 10 10 10 10 10 10 10 10 10 10 10 10 10 10 10 10 10 10 10 10 10 10 10 10 10 10 10 10 10 10 10 10 10 10 10 10 10 10 10 10 10 10 10 10 10 10 10 10 10 10 10 10 10 10 10 10 10 10 10 10 10 10 10 10 10 10 10 10 10 10 10 10 10 10 10 10 10 10 10 10 10 10 10 10 10 10 10 10 10 10 10 10 10 10 10 10 10 10 10 10 10 10 10 10 10 10 10 10 10 10 10 10 10 10 10 10 10 10 10 10 10 10 10 10 10 10 10 10 10 10 10 10 10 10 10 10 10 10 10 10 10 10 10 10 10 10 10 10 10 10 10 10 10 10 10 10 10 10 10 10 10 10 10 10 10 10 10 10 10 10 10 10 10 10 10 10 10 10 10 10 10 10 10 10 10 10 10 10 10 10 10 10 10 10 10 10 10 10 10 10 10 10 10 10 10 10 10 10 10 10 10 10 10 10 10 10 10 10 10 10 10 10 10 10 10 10 10 10 10 10 10 10 10 10 10 10 10 10 10 10 10 10 10 10 10 10 10 10 10 10 10 10 10 10 10 10 10 10 10 10 10 10 10 10 10 10 10 10 10 10 10 10 10 10 10 10 10 10 10 10 10 10 10 10 10 10 10 10 10 10 10 10 10 10 10 10 10 10 10 10 10 10 10 10 10 10 10 10 10 10 10 10 10 10 10 10 10 10 10 10 10 10 10 10 10 10 10 10 10 10 10 10 10 10 10 10 10 10 10 10 10 10 10 10 10 10 10 10 10 10 10 10 10 10 10 10 10 10 10 10 10 10 10 10 10 10 10 10 10 10 10 10 10 10 10 10 10 10 10 10 10 10 10 10 10 10 10 10 10 10 10 10 10 10 10 10 10 10 10 10 10 10 10 10 10 10 10 10 10 10 10 10 10 10 10 10 10 10 10 10 10 10 10 10 10 10 10 10 10 10 10 10 10 10 10 10 10 10 10 10 </DataArray>
</Cells>
<PointData  Scalars="c_HbCO2"> 
<DataArray  type="Float64"  Name="c_HbCO2"  format="ascii">4.0036653396301669e-22  -1.5434836055319919e-23  3.4537472796360047e-23  -8.7395285226777257e-22  -1.6674637789933761e-22  3.2751122526565428e-23  1.4980726593877441e-23  1.9568612583506257e-22  1.9480013421547433e-22  -1.5764674937704580e-21  -2.2719704817502423e-22  -6.1234622273620354e-24  4.9113278285342711e-23  -1.2867107171634975e-21  7.3996176506156842e-22  3.5577152736502117e-22  -2.6210614427087764e-21  -2.5107675329189040e-21  -2.7730510319938116e-22  -2.2311954868361811e-23  -3.7184955179939149e-24  3.2690958826846716e-24  4.6566619705998203e-23  4.0496517730864694e-24  4.0740063226212995e-24  2.8748218423458975e-24  1.0245526848941895e-23  1.1751663152295973e-23  -6.7251904036982789e-23  -5.8630011220783764e-24  1.4739935268906282e-24  9.3296052683582442e-25  -2.3545199662457590e-23  4.2064271442048975e-24  -5.9444377918213762e-24  6.6259086044749184e-25  1.7741473838777181e-24  1.9408687636347153e-24  7.6452741792050031e-24  -1.9978187846933566e-24  -6.5084664242028731e-23  1.1451593905529194e-23  -8.0863219154500534e-24  1.3521112579226870e-24  8.7932625664111681e-25  -1.9456567954045474e-23  -8.9048468197721996e-23  1.2950859719900489e-23  1.0166095143106483e-23  1.5568569801465730e-24  -3.8641163946866941e-24  -1.2142017231023306e-24  -3.2791422260397398e-25  3.6973788854708189e-25  5.8817621471129002e-25  3.3128328453353987e-25  1.5556646039505631e-24  1.1277901571276356e-24  -5.5956726573518846e-24  -1.3994033560350314e-25  4.7529654756001089e-25  1.5017178826360938e-24  1.9287443669380381e-22  1.3037319264173719e-22  -1.3029002213739663e-20  3.9813336874852670e-22  -6.1770674010923956e-21  1.1387337381855671e-21  -3.7592337033067641e-19  -8.5330899113375026e-21  3.5728475074693279e-21  2.0257211713302003e-22  -1.8814717348028414e-20  -1.4975271867712385e-20  6.0856201991406742e-21  1.6199677007386571e-21  1.2900082530977248e-21  9.4091034741310051e-24  -4.0657719089529731e-24  1.4820418656511892e-22  3.2399328491074246e-23  -4.6029457735924889e-24  5.8450720336510789e-23  -2.0408976755098573e-22  -3.6402457291772001e-23  -2.8165176969822777e-23  1.5067861543040996e-24  -1.0873953935746094e-22  -2.7465970251820136e-23  6.8576737512008894e-24  1.2542243784045359e-23  -2.4474703063070126e-24  -9.6551965902198684e-23  -2.6831315579279843e-24  1.3581835732208215e-24  -1.2120563523942733e-22  -3.6318716277689885e-23  -5.9085262096659468e-24  -6.5345860219155439e-24  -1.4746017965362263e-23  -1.2211124807967679e-25  1.1758875296923927e-24  2.7174499259553255e-24  1.0366936186040828e-24  -7.2896241647638207e-24  7.6776444224391595e-25  3.4948593262038147e-24  -1.7975044411393808e-20  6.3225486222364349e-22  2.6572013945192091e-22  7.7635640353116174e-22  5.4949603115785238e-21  -5.0572327969619025e-21  1.6517741525384831e-21  5.6717428025475440e-22  1.1178941655774657e-20  -9.1957364432487581e-22  -1.0233733619178385e-20  -3.0885079106029783e-22  -3.2147736812501855e-22  2.5582795596646464e-23  2.5804928592025852e-23  3.8233944774897814e-23  -3.4754444584683714e-22  -3.3634744710825340e-24  -2.2325958063323300e-22  4.2584981558660682e-23  -1.8986011832095088e-22  -1.7999884755177355e-22  -4.0735329964980212e-23  -1.5234605082563247e-23  -7.3551867251584316e-23  -4.6215077438222789e-23  4.0291163599296753e-24  2.2695405078208007e-23  2.4161968259739237e-23  -4.2015262250002118e-22  8.2195054600427607e-25  2.9039046381457097e-22  -3.0676886615705753e-22  8.8553764999638388e-23  3.7903062104704504e-23  -3.4518844921186395e-23  -2.3734265734363807e-23  -1.0500109782887231e-24  2.0351825763710092e-24  -3.0142111259996427e-24  3.4154400554673464e-24  -1.8731302530157052e-23  2.7018673793805783e-24  3.6978740594363279e-24  1.0324033358367032e-23  -1.4969819948056791e-23  -1.2608305574511302e-24  7.1144909643982911e-25  2.8708335268265370e-24  1.8564333764296832e-24  -1.3469094269522518e-24  -1.4030420315555178e-20  2.9905794061903807e-23  1.2902793902310103e-20  2.0066292129239851e-22  -4.6564308771640327e-22  8.9099914980613869e-22  1.5744471882927453e-22  -3.8028483018662758e-23  -2.8462086955493158e-22  -6.6596316571789676e-25  -3.3445061379878723e-24  1.7083838331480965e-24  -5.2719683709915480e-20  9.4339857118671218e-20  7.0119318542777572e-21  1.6607485086422690e-20  5.3306451469426447e-22  2.3174735351055947e-21  -2.9529834734564663e-23  -1.6813290931162258e-19  1.6092604805602436e-20  1.3028834847518085e-20  -2.3338746581182866e-23  4.0374681787176198e-22  -1.4523334794989630e-23  </DataArray> 
</PointData> 
</Piece>
</UnstructuredGrid>
</VTKFile>