<?xml version="1.0"?>
<VTKFile type="UnstructuredGrid"  version="0.1"  >
<UnstructuredGrid>
<Piece  NumberOfPoints="176" NumberOfCells="574">
<Points>
<DataArray  type="Float64"  NumberOfComponents="3"  format="ascii">30 0 30  30 5 30  25 5 30  25 5 25  25 0 30  25 0 25  30 10 30  25 10 30  30 5 35  25 5 35  30 10 35  30 10 40  30 0 35  25 0 35  30 0 40  30 5 40  25 5 40  25 0 40  25 10 35  25 10 40  35 5 35  35 0 35  35 0 30  40 0 30  40 5 35  40 0 35  40 0 40  40 5 40  40 10 40  35 5 40  35 0 40  35 10 40  35 10 35  45 5 35  45 0 35  45 0 30  50 0 30  50 5 35  50 0 35  50 0 40  50 5 40  50 10 40  45 5 40  45 0 40  45 10 40  30 15 35  25 15 35  30 15 40  30 20 40  25 15 40  25 20 40  35 15 35  35 15 40  40 15 40  40 20 40  35 20 40  35 20 35  35 25 40  35 25 35  40 25 40  30 5 45  25 5 45  30 10 45  30 10 50  30 0 45  25 0 45  30 0 50  30 5 50  25 5 50  25 0 50  25 10 45  25 10 50  35 5 45  40 5 45  40 10 45  40 10 50  35 0 45  40 0 45  40 0 50  40 5 50  35 5 50  35 0 50  35 10 45  35 10 50  45 5 45  50 5 45  50 10 45  50 10 50  45 0 45  50 0 45  50 0 50  50 5 50  45 5 50  45 0 50  45 10 45  45 10 50  30 15 45  25 15 45  30 20 45  30 20 50  30 15 50  25 15 50  25 20 45  35 15 45  40 15 45  40 20 45  40 20 50  40 15 50  35 15 50  35 20 45  35 20 50  45 15 45  45 15 40  50 15 45  50 15 40  50 20 40  50 20 45  50 20 50  50 15 50  45 15 50  45 20 45  45 20 40  45 20 50  30 25 45  25 25 45  30 25 50  35 25 45  40 25 45  40 25 50  40 30 50  35 25 50  45 25 45  45 25 40  50 25 45  50 25 40  50 30 40  50 25 50  50 30 50  45 25 50  45 30 50  50 5 30  50 5 25  45 5 25  50 0 25  45 0 25  50 10 30  45 5 30  40 5 30  40 10 30  45 10 30  50 10 35  45 10 35  50 20 30  50 20 35  50 15 35  45 15 35  45 20 35  50 25 35  50 25 30  45 25 35  50 30 30  50 30 35  30 5 25  30 0 25  35 5 30  35 5 25  35 0 25  35 10 30  40 10 35  40 15 35  40 15 30  40 20 30  40 20 35  40 25 35  25 20 50  25 25 50  </DataArray>
</Points>
<Cells>
<DataArray  type="UInt32"  Name="connectivity"  format="ascii">0 3 2 1  0 3 4 2  0 5 3 4  6 3 2 1  6 3 2 7  0 9 1 8  0 2 9 1  0 4 2 9  6 9 8 10  6 9 1 8  6 2 9 1  11 9 8 10  0 9 8 12  0 9 13 12  0 4 9 13  14 9 8 15  14 9 8 12  14 9 13 12  11 9 8 15  14 9 15 16  14 9 16 17  14 9 13 17  11 9 15 16  6 9 10 18  6 9 7 18  6 2 9 7  11 9 10 18  11 9 16 19  11 9 18 19  0 22 21 20  23 20 25 24  23 21 20 25  23 22 21 20  26 20 24 27  26 20 25 24  26 21 20 25  28 20 24 27  0 12 21 20  14 20 30 29  14 21 20 30  14 12 21 20  26 20 29 27  26 20 30 29  26 21 20 30  28 20 29 27  0 8 12 20  14 20 15 29  14 8 20 15  14 8 12 20  11 20 31 29  11 20 15 29  11 8 20 15  28 20 31 29  0 1 8 20  6 20 10 32  6 8 20 10  6 1 8 20  11 20 32 31  11 20 10 32  11 8 20 10  28 20 32 31  23 35 34 33  36 33 38 37  36 34 33 38  36 35 34 33  39 33 37 40  39 33 38 37  39 34 33 38  41 33 37 40  23 25 34 33  26 33 43 42  26 34 33 43  26 25 34 33  39 33 42 40  39 33 43 42  39 34 33 43  41 33 42 40  23 25 24 33  26 33 27 42  26 24 33 27  26 25 24 33  28 33 42 44  28 33 27 42  28 24 33 27  41 33 42 44  6 10 45 46  6 10 18 46  6 7 18 46  11 45 46 47  11 10 45 46  11 10 18 46  48 45 46 47  11 46 47 49  11 46 19 49  11 18 46 19  48 46 47 49  48 46 49 50  6 10 32 51  11 51 31 52  11 32 51 31  11 10 32 51  28 51 52 53  28 51 31 52  28 32 51 31  54 51 52 53  6 10 45 51  11 51 47 52  11 45 51 47  11 10 45 51  48 51 52 55  48 51 47 52  48 45 51 47  54 51 52 55  48 51 56 55  54 51 56 55  48 58 55 57  48 56 58 55  54 58 57 59  54 58 55 57  54 56 58 55  14 15 60 61  14 15 16 61  14 16 17 61  11 62 60 61  11 15 60 61  11 15 16 61  63 62 60 61  14 60 64 61  14 64 61 65  14 17 61 65  66 60 61 67  66 60 64 61  66 64 61 65  63 60 61 67  66 61 67 68  66 61 68 69  66 61 65 69  63 61 67 68  11 62 61 70  11 19 61 70  11 16 19 61  63 62 61 70  63 61 68 71  63 61 70 71  14 30 29 72  26 72 27 73  26 29 72 27  26 30 29 72  28 72 73 74  28 72 27 73  28 29 72 27  75 72 73 74  14 30 72 76  26 72 73 77  26 72 76 77  26 30 72 76  78 72 73 79  78 72 73 77  78 72 76 77  75 72 73 79  14 64 72 76  66 72 80 81  66 72 76 81  66 64 72 76  78 72 80 79  78 72 80 81  78 72 76 81  75 72 80 79  14 15 29 72  11 31 82 72  11 31 29 72  11 15 29 72  28 82 72 74  28 31 82 72  28 31 29 72  75 82 72 74  14 60 64 72  66 72 67 80  66 60 72 67  66 60 64 72  63 72 83 80  63 72 67 80  63 60 72 67  75 72 83 80  14 15 60 72  11 62 82 72  11 62 60 72  11 15 60 72  63 82 72 83  63 62 82 72  63 62 60 72  75 82 72 83  26 43 42 84  39 84 40 85  39 42 84 40  39 43 42 84  41 84 85 86  41 84 40 85  41 42 84 40  87 84 85 86  26 43 84 88  39 84 85 89  39 84 88 89  39 43 84 88  90 84 85 91  90 84 85 89  90 84 88 89  87 84 85 91  26 77 84 88  78 84 92 93  78 84 88 93  78 77 84 88  90 84 92 91  90 84 92 93  90 84 88 93  87 84 92 91  26 27 42 84  28 84 44 94  28 42 84 44  28 27 42 84  41 84 94 86  41 84 44 94  41 42 84 44  87 84 94 86  26 73 77 84  78 84 79 92  78 73 84 79  78 73 77 84  75 84 95 92  75 84 79 92  75 73 84 79  87 84 95 92  26 27 73 84  28 84 74 94  28 73 84 74  28 27 73 84  75 84 94 95  75 84 74 94  75 73 84 74  87 84 94 95  11 47 96 97  11 47 49 97  11 19 49 97  48 96 97 98  48 47 96 97  48 47 49 97  99 96 97 98  11 62 96 97  11 62 70 97  11 19 70 97  63 96 97 100  63 62 96 97  63 62 70 97  99 96 97 100  63 97 100 101  63 97 71 101  63 70 97 71  99 97 100 101  48 97 98 102  48 97 50 102  48 49 97 50  99 97 98 102  11 31 52 103  28 103 53 104  28 52 103 53  28 31 52 103  54 103 104 105  54 103 53 104  54 52 103 53  106 103 104 105  11 31 82 103  28 103 74 104  28 82 103 74  28 31 82 103  75 103 104 107  75 103 74 104  75 82 103 74  106 103 104 107  11 62 82 103  63 103 83 108  63 82 103 83  63 62 82 103  75 103 108 107  75 103 83 108  75 82 103 83  106 103 108 107  11 47 52 103  48 103 55 109  48 52 103 55  48 47 52 103  54 103 109 105  54 103 55 109  54 52 103 55  106 103 109 105  11 62 96 103  63 103 100 108  63 96 103 100  63 62 96 103  99 103 108 110  99 103 100 108  99 96 103 100  106 103 108 110  11 47 96 103  48 103 98 109  48 96 103 98  48 47 96 103  99 103 109 110  99 103 98 109  99 96 103 98  106 103 109 110  28 44 112 111  41 111 114 113  41 112 111 114  41 44 112 111  115 111 113 116  115 111 114 113  115 112 111 114  117 111 113 116  28 44 94 111  41 111 86 113  41 94 111 86  41 44 94 111  87 111 113 118  87 111 86 113  87 94 111 86  117 111 113 118  28 74 94 111  75 111 95 119  75 94 111 95  75 74 94 111  87 111 119 118  87 111 95 119  87 94 111 95  117 111 119 118  28 53 112 111  54 111 121 120  54 112 111 121  54 53 112 111  115 111 120 116  115 111 121 120  115 112 111 121  117 111 120 116  28 74 104 111  75 111 107 119  75 104 111 107  75 74 104 111  106 111 119 122  106 111 107 119  106 104 111 107  117 111 119 122  28 53 104 111  54 111 105 120  54 104 111 105  54 53 104 111  106 111 120 122  106 111 105 120  106 104 111 105  117 111 120 122  48 98 123 124  48 98 102 124  48 50 102 124  99 123 124 125  99 98 123 124  99 98 102 124  48 55 57 126  54 126 59 127  54 57 126 59  54 55 57 126  48 55 109 126  54 126 105 127  54 109 126 105  54 55 109 126  106 126 127 128  106 126 105 127  106 109 126 105  129 126 127 128  48 98 109 126  99 126 110 130  99 109 126 110  99 98 109 126  106 126 130 128  106 126 110 130  106 109 126 110  129 126 130 128  48 98 123 126  99 126 125 130  99 123 126 125  99 98 123 126  54 121 132 131  115 131 134 133  115 132 131 134  115 121 132 131  135 131 134 133  135 132 131 134  54 121 120 131  115 131 116 133  115 120 131 116  115 121 120 131  117 131 133 136  117 131 116 133  117 120 131 116  137 131 133 136  54 105 120 131  106 131 122 138  106 120 131 122  106 105 120 131  117 131 138 136  117 131 122 138  117 120 131 122  137 131 138 136  54 59 132 131  54 105 127 131  106 131 128 138  106 127 131 128  106 105 127 131  129 139 131 138  129 131 128 138  129 127 131 128  137 139 131 138  54 59 127 131  36 142 141 140  36 142 141 143  36 142 144 143  145 142 141 140  23 35 142 146  23 35 142 144  36 142 146 140  36 35 142 146  36 35 142 144  145 142 146 140  23 142 147 146  148 142 149 146  148 142 147 146  145 142 149 146  23 35 33 146  36 33 37 140  36 33 146 140  36 35 33 146  145 33 37 150  145 33 37 140  145 33 146 140  41 33 37 150  23 33 147 146  148 33 149 151  148 33 149 146  148 33 147 146  145 33 151 150  145 33 149 151  145 33 149 146  41 33 151 150  152 155 154 153  115 155 154 153  148 149 151 155  145 155 150 154  145 151 155 150  145 149 151 155  41 114 155 154  41 155 150 154  41 151 155 150  115 114 155 154  152 155 153 156  115 155 153 156  152 158 157 159  160 161 157 159  160 158 157 159  135 161 157 159  152 153 157 159  152 153 156 159  115 134 157 159  115 153 157 159  115 153 156 159  135 134 157 159  0 3 1 162  0 3 162 163  0 5 3 163  6 3 1 162  0 22 165 164  0 22 165 166  0 165 166 163  23 165 147 164  23 22 165 164  23 22 165 166  148 165 147 164  0 1 165 164  0 1 165 162  0 165 162 163  6 165 167 164  6 1 165 164  6 1 165 162  148 165 167 164  0 22 20 164  23 20 24 147  23 20 147 164  23 22 20 164  148 20 24 168  148 20 24 147  148 20 147 164  28 20 24 168  0 1 20 164  6 20 32 167  6 20 167 164  6 1 20 164  148 20 32 168  148 20 32 167  148 20 167 164  28 20 32 168  23 24 33 147  148 33 151 168  148 24 33 168  148 24 33 147  28 33 44 151  28 33 151 168  28 24 33 168  41 33 44 151  148 51 170 169  171 51 169 172  171 51 170 169  54 51 169 172  6 32 51 167  148 51 168 169  148 32 51 168  148 32 51 167  28 51 53 169  28 51 168 169  28 32 51 168  54 51 53 169  171 51 56 172  54 51 56 172  148 151 155 168  28 44 112 155  28 44 151 155  28 151 155 168  41 112 114 155  41 44 112 155  41 44 151 155  115 112 114 155  148 155 168 169  28 53 112 155  28 53 155 169  28 155 168 169  54 112 121 155  54 53 112 155  54 53 155 169  115 112 121 155  148 170 155 169  171 155 156 172  171 155 169 172  171 170 155 169  54 121 155 156  54 155 156 172  54 155 169 172  115 121 155 156  171 58 172 173  171 56 58 172  54 58 59 173  54 58 172 173  54 56 58 172  171 156 159 172  54 121 132 159  54 121 156 159  54 156 159 172  115 132 134 159  115 121 132 159  115 121 156 159  135 132 134 159  171 159 172 173  54 59 132 159  54 59 159 173  54 159 172 173  99 97 101 174  99 97 102 174  99 124 125 175  99 124 174 175  99 102 124 174  </DataArray>
<DataArray  type="UInt32"  Name="offsets"  format="ascii">4 8 12 16 20 24 28 32 36 40 44 48 52 56 60 64 68 72 76 80 84 88 92 96 100 104 108 112 116 120 124 128 132 136 140 144 148 152 156 160 164 168 172 176 180 184 188 192 196 200 204 208 212 216 220 224 228 232 236 240 244 248 252 256 260 264 268 272 276 280 284 288 292 296 300 304 308 312 316 320 324 328 332 336 340 344 348 352 356 360 364 368 372 376 380 384 388 392 396 400 404 408 412 416 420 424 428 432 436 440 444 448 452 456 460 464 468 472 476 480 484 488 492 496 500 504 508 512 516 520 524 528 532 536 540 544 548 552 556 560 564 568 572 576 580 584 588 592 596 600 604 608 612 616 620 624 628 632 636 640 644 648 652 656 660 664 668 672 676 680 684 688 692 696 700 704 708 712 716 720 724 728 732 736 740 744 748 752 756 760 764 768 772 776 780 784 788 792 796 800 804 808 812 816 820 824 828 832 836 840 844 848 852 856 860 864 868 872 876 880 884 888 892 896 900 904 908 912 916 920 924 928 932 936 940 944 948 952 956 960 964 968 972 976 980 984 988 992 996 1000 1004 1008 1012 1016 1020 1024 1028 1032 1036 1040 1044 1048 1052 1056 1060 1064 1068 1072 1076 1080 1084 1088 1092 1096 1100 1104 1108 1112 1116 1120 1124 1128 1132 1136 1140 1144 1148 1152 1156 1160 1164 1168 1172 1176 1180 1184 1188 1192 1196 1200 1204 1208 1212 1216 1220 1224 1228 1232 1236 1240 1244 1248 1252 1256 1260 1264 1268 1272 1276 1280 1284 1288 1292 1296 1300 1304 1308 1312 1316 1320 1324 1328 1332 1336 1340 1344 1348 1352 1356 1360 1364 1368 1372 1376 1380 1384 1388 1392 1396 1400 1404 1408 1412 1416 1420 1424 1428 1432 1436 1440 1444 1448 1452 1456 1460 1464 1468 1472 1476 1480 1484 1488 1492 1496 1500 1504 1508 1512 1516 1520 1524 1528 1532 1536 1540 1544 1548 1552 1556 1560 1564 1568 1572 1576 1580 1584 1588 1592 1596 1600 1604 1608 1612 1616 1620 1624 1628 1632 1636 1640 1644 1648 1652 1656 1660 1664 1668 1672 1676 1680 1684 1688 1692 1696 1700 1704 1708 1712 1716 1720 1724 1728 1732 1736 1740 1744 1748 1752 1756 1760 1764 1768 1772 1776 1780 1784 1788 1792 1796 1800 1804 1808 1812 1816 1820 1824 1828 1832 1836 1840 1844 1848 1852 1856 1860 1864 1868 1872 1876 1880 1884 1888 1892 1896 1900 1904 1908 1912 1916 1920 1924 1928 1932 1936 1940 1944 1948 1952 1956 1960 1964 1968 1972 1976 1980 1984 1988 1992 1996 2000 2004 2008 2012 2016 2020 2024 2028 2032 2036 2040 2044 2048 2052 2056 2060 2064 2068 2072 2076 2080 2084 2088 2092 2096 2100 2104 2108 2112 2116 2120 2124 2128 2132 2136 2140 2144 2148 2152 2156 2160 2164 2168 2172 2176 2180 2184 2188 2192 2196 2200 2204 2208 2212 2216 2220 2224 2228 2232 2236 2240 2244 2248 2252 2256 2260 2264 2268 2272 2276 2280 2284 2288 2292 2296 </DataArray>
<DataArray  type="UInt8"  Name="types"  format="ascii">10 10 10 10 10 10 10 10 10 10 10 10 10 10 10 10 10 10 10 10 10 10 10 10 10 10 10 10 10 10 10 10 10 10 10 10 10 10 10 10 10 10 10 10 10 10 10 10 10 10 10 10 10 10 10 10 10 10 10 10 10 10 10 10 10 10 10 10 10 10 10 10 10 10 10 10 10 10 10 10 10 10 10 10 10 10 10 10 10 10 10 10 10 10 10 10 10 10 10 10 10 10 10 10 10 10 10 10 10 10 10 10 10 10 10 10 10 10 10 10 10 10 10 10 10 10 10 10 10 10 10 10 10 10 10 10 10 10 10 10 10 10 10 10 10 10 10 10 10 10 10 10 10 10 10 10 10 10 10 10 10 10 10 10 10 10 10 10 10 10 10 10 10 10 10 10 10 10 10 10 10 10 10 10 10 10 10 10 10 10 10 10 10 10 10 10 10 10 10 10 10 10 10 10 10 10 10 10 10 10 10 10 10 10 10 10 10 10 10 10 10 10 10 10 10 10 10 10 10 10 10 10 10 10 10 10 10 10 10 10 10 10 10 10 10 10 10 10 10 10 10 10 10 10 10 10 10 10 10 10 10 10 10 10 10 10 10 10 10 10 10 10 10 10 10 10 10 10 10 10 10 10 10 10 10 10 10 10 10 10 10 10 10 10 10 10 10 10 10 10 10 10 10 10 10 10 10 10 10 10 10 10 10 10 10 10 10 10 10 10 10 10 10 10 10 10 10 10 10 10 10 10 10 10 10 10 10 10 10 10 10 10 10 10 10 10 10 10 10 10 10 10 10 10 10 10 10 10 10 10 10 10 10 10 10 10 10 10 10 10 10 10 10 10 10 10 10 10 10 10 10 10 10 10 10 10 10 10 10 10 10 10 10 10 10 10 10 10 10 10 10 10 10 10 10 10 10 10 10 10 10 10 10 10 10 10 10 10 10 10 10 10 10 10 10 10 10 10 10 10 10 10 10 10 10 10 10 10 10 10 10 10 10 10 10 10 10 10 10 10 10 10 10 10 10 10 10 10 10 10 10 10 10 10 10 10 10 10 10 10 10 10 10 10 10 10 10 10 10 10 10 10 10 10 10 10 10 10 10 10 10 10 10 10 10 10 10 10 10 10 10 10 10 10 10 10 10 10 10 10 10 10 10 10 10 10 10 10 10 10 10 10 10 10 10 10 10 10 10 10 10 10 10 10 10 10 10 10 10 10 10 10 10 10 10 10 10 10 10 10 10 10 10 10 10 10 10 10 10 10 10 10 10 10 10 10 10 10 10 10 10 10 10 10 </DataArray>
</Cells>
<PointData  Scalars="c_HbO2"> 
<DataArray  type="Float64"  Name="c_HbO2"  format="ascii">6.8083891953180556e-17  -3.5513802610115691e-17  6.2523790012995168e-16  -3.3833191570577063e-15  1.6403014277176808e-16  -1.5006716536515014e-16  3.7064465351368918e-15  2.2630718958228705e-14  3.3463924669335561e-17  3.2388003486226103e-16  -6.3797585393728329e-17  -5.0964967524155093e-17  8.6364241932543021e-18  1.1042239007897372e-17  1.2146970088875778e-18  -3.6283207705338618e-18  -1.8425971987125474e-17  -1.4656117958989418e-17  3.2652678707532495e-16  6.0748625748673732e-17  2.9551572816969712e-17  -4.8610578690654963e-18  -1.9497810159039501e-17  -6.4916119519647300e-18  -1.1408300529533684e-18  -1.7446200437682616e-18  -8.3893250295103788e-19  -1.4240619696405739e-18  -4.6250004684435433e-18  -4.2289603009575691e-19  -2.1724984352279324e-18  -5.7103887446612249e-18  6.8596753271750143e-17  1.5624480811775347e-18  1.4321301318138679e-19  -1.0037227398592978e-19  -5.7167606851938970e-19  -7.5522478951553728e-20  -2.1603370916449296e-19  -1.5713038163630659e-19  -1.4951102653381375e-19  -2.6626835119293127e-19  2.0211323358332626e-19  -1.6620776810652192e-19  2.0545180711105291e-19  -1.1519424343661267e-15  -2.0813421766847647e-15  -6.9360952073112255e-17  -3.0291387527313034e-16  1.8650446802382542e-17  -8.5750750630744146e-16  -2.1398900607660592e-16  -7.5419180884090341e-19  -3.4555659611553978e-18  8.9857571135646191e-18  4.8946760628293664e-17  6.9077339534347276e-16  -3.0942902111605519e-18  -2.7624853056232872e-16  2.0854962082605923e-18  1.6421174305244237e-18  -1.5825277844327861e-18  1.4235284195801044e-18  -3.7210722900182407e-18  -2.4743480397772863e-19  2.7230530685258257e-19  -2.6491324594557890e-19  -1.9589707655085650e-19  1.3284388284271302e-19  -3.4984933569484114e-19  1.4657627164821965e-18  -1.6472600688096836e-18  1.5861505189659944e-18  2.4650819471645314e-19  1.0954066367288468e-19  -3.6876674324878217e-19  2.5038800323535455e-20  -1.3825362145034597e-19  -1.4054171912663112e-19  -1.3857668512079529e-19  2.1810932666443644e-20  -1.7309281502130859e-19  2.0475435943718669e-18  -2.1215945118095786e-19  1.4476950837407641e-19  1.8099747950412543e-20  -2.9453851084930799e-20  -5.0453752803335991e-20  3.1893906769532129e-20  -1.0384285686648026e-20  -2.3259919513305592e-20  -1.5729828687474389e-20  1.9375997256638396e-20  -1.1651445323670051e-20  1.5483236651495584e-19  -2.7394640088710175e-20  1.6232557941104594e-17  -2.2143409351578874e-17  1.7701297399317628e-17  -4.9100210610584956e-18  -4.2721708637126435e-18  -1.2201004280975698e-18  2.2869829568644761e-17  4.1413821102261589e-18  3.6590587947715641e-19  -1.3955212557196821e-18  -7.2784592660005109e-19  4.9938739784374615e-20  9.9019625089953277e-19  6.2262575842667356e-18  -1.5699121824141251e-18  6.2125329476027217e-20  2.9821252562238766e-19  -3.0754278316666316e-20  1.6912968849922667e-19  4.9634410666676061e-19  -1.4504412425799317e-20  -2.4131320876741266e-20  -2.6204197089437893e-20  2.3014238134985999e-21  -1.4238891217673522e-19  2.6701556872967416e-19  2.0681352585149847e-20  3.4946532140962878e-17  4.5744669770830375e-17  -8.4842377175368850e-18  -9.5088759680040510e-18  -7.8845140151382585e-19  -5.7311286932758687e-19  -3.0170641667533998e-19  -4.1450800673613347e-19  7.2765333476677568e-20  -4.2867633682283470e-19  1.1404406274688577e-20  -3.0387252198000653e-19  -1.8223157006656386e-19  -3.5603586578865622e-21  -6.2768382007568973e-20  4.4487841847464823e-20  5.3745238513703369e-21  -2.7340847398827969e-19  -1.1422175122644474e-18  8.9086027422160351e-19  -1.3712309988496779e-19  -2.2494587710155246e-19  -2.3164041048315017e-18  1.6214926575172981e-18  -1.7336541878987971e-17  -1.7240768462253378e-17  -1.1734829757810118e-18  -1.5832988628781957e-20  2.0502328745706490e-18  1.1571987782820890e-17  -2.4661155833162964e-19  -5.7115482609221584e-20  6.9464265529604346e-18  1.7493153263951123e-17  -1.2557620903213920e-18  -2.4395975282942472e-18  -8.8173535519381684e-18  -6.9768618947579483e-18  -4.2676090374502038e-19  5.9655440976826865e-16  -1.2531921018173248e-16  4.3787949006533725e-17  1.9864927961878333e-16  -2.4005371704945180e-17  -3.2098133239054358e-17  -1.0339561791861229e-17  -3.4533483714897303e-17  -9.8919926856358392e-17  -6.2658586856664520e-16  -1.3063943170294595e-18  -3.9538339594242128e-17  2.4983619213688932e-19  -1.8285335350547921e-18  </DataArray> 
</PointData> 
</Piece>
</UnstructuredGrid>
</VTKFile>