<?xml version="1.0"?>
<VTKFile type="UnstructuredGrid"  version="0.1"  >
<UnstructuredGrid>
<Piece  NumberOfPoints="182" NumberOfCells="615">
<Points>
<DataArray  type="Float64"  NumberOfComponents="3"  format="ascii">30 10 0  30 15 5  30 15 0  25 15 5  25 15 0  25 10 0  30 20 0  30 20 5  30 20 10  25 20 5  25 20 0  25 20 10  35 15 5  35 15 0  35 20 5  35 20 0  40 20 0  40 20 5  40 20 10  35 20 10  45 25 5  45 25 0  45 20 0  50 20 0  50 25 5  50 25 0  30 0 0  35 5 5  35 5 0  35 0 0  40 0 0  40 5 5  40 5 0  40 10 0  40 10 5  40 10 10  35 0 5  40 0 5  40 0 10  40 5 10  30 0 5  30 0 10  35 5 10  35 0 10  30 5 0  35 10 5  35 10 0  30 5 5  30 5 10  30 10 10  35 10 10  30 10 5  45 5 5  45 5 0  45 0 0  50 0 0  50 5 5  50 5 0  50 10 0  50 10 5  50 10 10  45 0 5  50 0 5  50 0 10  50 5 10  45 5 10  45 0 10  45 10 5  45 10 0  45 10 10  40 15 5  40 15 0  40 15 10  35 15 10  30 15 10  45 15 5  45 15 0  50 15 5  50 15 0  50 20 5  50 20 10  50 15 10  45 15 10  45 20 5  45 20 10  35 5 15  40 5 15  40 10 15  40 10 20  35 0 15  40 0 15  40 0 20  40 5 20  30 0 15  30 0 20  35 5 20  35 0 20  35 10 15  45 5 15  50 5 15  50 10 15  50 10 20  45 0 15  50 0 15  50 0 20  50 5 20  45 5 20  45 0 20  45 10 15  45 10 20  35 15 15  40 15 15  40 20 15  40 20 20  40 15 20  45 15 15  50 15 15  50 15 20  45 15 20  35 5 25  40 5 25  40 10 25  40 10 30  35 0 25  40 0 25  40 0 30  40 5 30  45 5 25  50 5 25  50 10 25  50 10 30  45 0 25  50 0 25  45 10 25  45 10 30  45 15 25  50 15 25  40 15 25  25 5 5  25 5 0  25 0 0  25 0 5  25 5 10  25 0 10  25 10 5  25 10 10  25 15 10  30 5 15  25 5 15  30 10 15  30 10 20  25 0 15  30 5 20  25 5 20  25 0 20  25 10 15  25 10 20  35 10 20  30 15 15  25 15 15  30 20 15  30 20 20  30 15 20  25 15 20  25 20 15  25 20 20  35 15 20  35 20 20  25 25 15  30 5 25  25 5 25  30 10 25  30 10 30  30 0 25  25 0 25  25 10 25  25 10 30  35 10 25  35 10 30  30 15 25  25 15 25  35 15 25  </DataArray>
</Points>
<Cells>
<DataArray  type="UInt32"  Name="connectivity"  format="ascii">0 3 2 1  0 4 3 2  0 5 4 3  6 3 1 7  6 3 2 1  6 4 3 2  8 3 1 7  6 3 7 9  6 3 10 9  6 4 3 10  8 3 7 9  8 3 9 11  0 2 13 12  6 12 15 14  6 13 12 15  6 2 13 12  16 12 14 17  16 12 15 14  16 13 12 15  18 12 14 17  0 2 1 12  6 12 7 14  6 1 12 7  6 2 1 12  8 12 14 19  8 12 7 14  8 1 12 7  18 12 14 19  16 22 21 20  23 20 25 24  23 21 20 25  23 22 21 20  26 29 28 27  30 27 32 31  30 28 27 32  30 29 28 27  33 27 31 34  33 27 32 31  33 28 27 32  35 27 31 34  26 29 27 36  30 27 31 37  30 27 36 37  30 29 27 36  38 27 31 39  38 27 31 37  38 27 36 37  35 27 31 39  26 27 36 40  41 27 42 43  41 27 36 43  41 27 36 40  38 27 39 42  38 27 42 43  38 27 36 43  35 27 39 42  26 28 27 44  0 27 46 45  0 28 27 46  0 28 27 44  33 27 34 45  33 27 46 45  33 28 27 46  35 27 34 45  26 27 40 47  41 27 42 48  41 27 47 48  41 27 40 47  49 27 42 50  49 27 42 48  49 27 47 48  35 27 42 50  26 27 44 47  0 27 45 51  0 27 47 51  0 27 44 47  49 27 45 50  49 27 45 51  49 27 47 51  35 27 45 50  30 54 53 52  55 52 57 56  55 53 52 57  55 54 53 52  58 52 56 59  58 52 57 56  58 53 52 57  60 52 56 59  30 54 52 61  55 52 56 62  55 52 61 62  55 54 52 61  63 52 56 64  63 52 56 62  63 52 61 62  60 52 56 64  30 37 52 61  38 52 65 66  38 52 61 66  38 37 52 61  63 52 65 64  63 52 65 66  63 52 61 66  60 52 65 64  30 32 53 52  33 52 68 67  33 53 52 68  33 32 53 52  58 52 67 59  58 52 68 67  58 53 52 68  60 52 67 59  30 31 37 52  38 52 39 65  38 31 52 39  38 31 37 52  35 52 69 65  35 52 39 65  35 31 52 39  60 52 69 65  30 32 31 52  33 52 34 67  33 31 52 34  33 32 31 52  35 52 67 69  35 52 34 67  35 31 52 34  60 52 67 69  0 13 12 46  33 12 71 70  33 13 12 71  33 13 12 46  16 12 17 70  16 12 71 70  16 13 12 71  18 12 17 70  0 12 46 45  33 12 34 70  33 12 34 45  33 12 46 45  35 12 70 72  35 12 34 70  35 12 34 45  18 12 70 72  0 12 45 51  49 12 50 73  49 12 45 50  49 12 45 51  35 12 72 73  35 12 50 73  35 12 45 50  18 12 72 73  0 1 12 51  49 12 73 74  49 1 12 74  49 1 12 51  8 12 19 73  8 12 73 74  8 1 12 74  18 12 19 73  33 68 76 75  58 75 78 77  58 76 75 78  58 68 76 75  23 75 77 79  23 75 78 77  23 76 75 78  80 75 77 79  33 68 67 75  58 75 59 77  58 67 75 59  58 68 67 75  60 75 77 81  60 75 59 77  60 67 75 59  80 75 77 81  33 34 67 75  35 75 69 82  35 67 75 69  35 34 67 75  60 75 82 81  60 75 69 82  60 67 75 69  80 75 82 81  33 71 76 75  16 22 75 83  16 22 76 75  16 71 76 75  23 75 83 79  23 22 75 83  23 22 76 75  80 75 83 79  33 34 70 75  35 75 72 82  35 70 75 72  35 34 70 75  18 75 82 84  18 75 72 82  18 70 75 72  80 75 82 84  33 71 70 75  16 17 75 83  16 17 70 75  16 71 70 75  18 75 83 84  18 17 75 83  18 17 70 75  80 75 83 84  16 22 20 83  23 20 24 79  23 20 83 79  23 22 20 83  80 20 24 79  80 20 83 79  16 17 20 83  18 20 83 84  18 17 20 83  80 20 83 84  41 42 43 85  38 39 86 85  38 39 42 85  38 42 43 85  35 87 86 85  35 39 86 85  35 39 42 85  88 87 86 85  41 43 85 89  38 86 90 85  38 90 85 89  38 43 85 89  91 86 85 92  91 86 90 85  91 90 85 89  88 86 85 92  41 85 89 93  94 85 95 96  94 85 89 96  94 85 89 93  91 85 92 95  91 85 95 96  91 85 89 96  88 85 92 95  41 42 48 85  49 50 85 97  49 42 50 85  49 42 48 85  35 87 85 97  35 50 85 97  35 42 50 85  88 87 85 97  38 65 66 98  63 98 64 99  63 65 98 64  63 65 66 98  60 98 100 99  60 98 64 99  60 65 98 64  101 98 100 99  38 66 98 102  63 98 99 103  63 98 102 103  63 66 98 102  104 98 99 105  104 98 99 103  104 98 102 103  101 98 99 105  38 90 98 102  91 98 106 107  91 98 102 107  91 90 98 102  104 98 106 105  104 98 106 107  104 98 102 107  101 98 106 105  38 39 65 98  35 69 108 98  35 69 65 98  35 39 65 98  60 108 98 100  60 69 108 98  60 69 65 98  101 108 98 100  38 86 90 98  91 98 92 106  91 86 98 92  91 86 90 98  88 98 109 106  88 98 92 106  88 86 98 92  101 98 109 106  38 39 86 98  35 87 108 98  35 87 86 98  35 39 86 98  88 108 98 109  88 87 108 98  88 87 86 98  101 108 98 109  49 50 73 110  35 72 111 110  35 72 73 110  35 50 73 110  18 111 110 112  18 72 111 110  18 72 73 110  113 111 110 112  49 50 97 110  35 87 111 110  35 87 97 110  35 50 97 110  88 111 110 114  88 87 111 110  88 87 97 110  113 111 110 114  49 73 74 110  8 19 73 110  8 73 74 110  18 19 73 110  35 69 82 115  60 115 81 116  60 82 115 81  60 69 82 115  80 115 81 116  80 82 115 81  35 69 108 115  60 115 100 116  60 108 115 100  60 69 108 115  101 115 116 117  101 115 100 116  101 108 115 100  35 87 108 115  88 115 109 118  88 108 115 109  88 87 108 115  101 115 118 117  101 115 109 118  101 108 115 109  35 72 82 115  18 82 115 84  18 72 82 115  80 82 115 84  35 87 111 115  88 115 114 118  88 111 115 114  88 87 111 115  113 115 114 118  113 111 115 114  35 72 111 115  18 111 115 112  18 72 111 115  113 111 115 112  94 95 96 119  91 92 120 119  91 92 95 119  91 95 96 119  88 121 120 119  88 92 120 119  88 92 95 119  122 121 120 119  94 96 119 123  91 120 124 119  91 124 119 123  91 96 119 123  125 120 119 126  125 120 124 119  125 124 119 123  122 120 119 126  91 106 107 127  104 127 105 128  104 106 127 105  104 106 107 127  101 127 129 128  101 127 105 128  101 106 127 105  130 127 129 128  91 107 127 131  104 127 128 132  104 127 131 132  104 107 127 131  91 124 127 131  125 124 127 131  91 92 106 127  88 109 133 127  88 109 106 127  88 92 106 127  101 133 127 129  101 109 133 127  101 109 106 127  130 133 127 129  91 120 124 127  125 120 127 126  125 120 124 127  122 120 127 126  91 92 120 127  88 121 133 127  88 121 120 127  88 92 120 127  122 133 127 134  122 121 133 127  122 121 120 127  130 133 127 134  88 109 118 135  101 135 117 136  101 118 135 117  101 109 118 135  88 109 133 135  101 135 129 136  101 133 135 129  101 109 133 135  130 135 129 136  130 133 135 129  88 121 133 135  122 133 135 134  122 121 133 135  130 133 135 134  88 114 118 135  113 114 118 135  88 121 135 137  122 121 135 137  88 114 135 137  113 114 135 137  26 44 47 138  26 44 139 138  26 140 139 138  0 47 51 138  0 44 47 138  0 44 139 138  49 47 51 138  26 40 47 138  26 40 138 141  26 140 138 141  41 47 48 138  41 40 47 138  41 40 138 141  49 47 48 138  41 48 138 142  41 138 142 143  41 138 141 143  49 48 138 142  0 51 138 144  0 5 138 144  0 5 139 138  49 51 138 144  49 138 142 145  49 138 144 145  0 3 1 51  0 3 51 144  0 5 3 144  49 3 1 74  49 3 1 51  49 3 51 144  8 3 1 74  49 3 74 146  49 3 145 146  49 3 144 145  8 3 74 146  8 3 11 146  41 48 147 148  41 48 142 148  41 142 143 148  49 149 147 148  49 48 147 148  49 48 142 148  150 149 147 148  41 93 147 148  41 93 148 151  41 143 148 151  94 147 148 152  94 93 147 148  94 93 148 151  150 147 148 152  94 148 152 153  94 148 153 154  94 148 151 154  150 148 152 153  49 149 148 155  49 145 148 155  49 142 145 148  150 149 148 155  150 148 153 156  150 148 155 156  41 85 93 147  94 85 95 152  94 85 147 152  94 85 93 147  150 85 95 157  150 85 95 152  150 85 147 152  88 85 95 157  41 48 85 147  49 85 97 149  49 85 149 147  49 48 85 147  150 85 97 157  150 85 97 149  150 85 149 147  88 85 97 157  49 74 158 159  49 74 146 159  49 145 146 159  8 158 159 160  8 74 158 159  8 74 146 159  161 158 159 160  49 149 158 159  49 149 155 159  49 145 155 159  150 158 159 162  150 149 158 159  150 149 155 159  161 158 159 162  150 159 162 163  150 159 156 163  150 155 159 156  161 159 162 163  8 159 160 164  8 11 159 164  8 11 146 159  161 159 160 164  161 159 163 165  161 159 164 165  49 97 110 149  150 110 157 166  150 97 110 157  150 97 110 149  88 110 114 166  88 110 157 166  88 97 110 157  113 110 114 166  49 110 149 158  150 110 162 166  150 110 158 162  150 110 149 158  161 110 166 167  161 110 162 166  161 110 158 162  113 110 166 167  49 74 110 158  8 110 158 160  8 74 110 158  161 110 158 160  8 168 160 164  8 11 168 164  161 168 160 164  161 168 164 165  94 170 152 169  94 170 152 153  94 170 153 154  150 170 171 169  150 170 152 169  150 170 152 153  172 170 171 169  94 170 169 173  94 174 170 173  94 174 170 154  150 170 171 175  150 170 156 175  150 170 153 156  172 170 171 175  172 170 176 175  94 119 123 173  94 95 119 152  150 119 157 177  150 95 119 157  150 95 119 152  88 121 119 177  88 119 157 177  88 95 119 157  122 121 119 177  94 119 169 173  94 119 152 169  150 119 171 177  150 119 171 169  150 119 152 169  172 119 177 178  172 119 171 177  172 119 171 169  122 119 177 178  150 162 179 180  150 162 163 180  150 156 163 180  161 162 179 180  161 162 163 180  150 171 179 180  150 171 175 180  150 156 175 180  172 171 179 180  172 171 175 180  172 176 175 180  161 163 180 165  150 157 166 181  88 114 137 181  88 114 166 181  88 157 166 181  113 114 137 181  113 114 166 181  150 157 177 181  88 121 137 181  88 121 177 181  88 157 177 181  122 121 137 181  122 121 177 181  150 171 177 181  172 177 181 178  172 171 177 181  122 177 181 178  150 162 166 181  161 166 181 167  161 162 166 181  113 166 181 167  150 171 179 181  172 171 179 181  150 162 179 181  161 162 179 181  </DataArray>
<DataArray  type="UInt32"  Name="offsets"  format="ascii">4 8 12 16 20 24 28 32 36 40 44 48 52 56 60 64 68 72 76 80 84 88 92 96 100 104 108 112 116 120 124 128 132 136 140 144 148 152 156 160 164 168 172 176 180 184 188 192 196 200 204 208 212 216 220 224 228 232 236 240 244 248 252 256 260 264 268 272 276 280 284 288 292 296 300 304 308 312 316 320 324 328 332 336 340 344 348 352 356 360 364 368 372 376 380 384 388 392 396 400 404 408 412 416 420 424 428 432 436 440 444 448 452 456 460 464 468 472 476 480 484 488 492 496 500 504 508 512 516 520 524 528 532 536 540 544 548 552 556 560 564 568 572 576 580 584 588 592 596 600 604 608 612 616 620 624 628 632 636 640 644 648 652 656 660 664 668 672 676 680 684 688 692 696 700 704 708 712 716 720 724 728 732 736 740 744 748 752 756 760 764 768 772 776 780 784 788 792 796 800 804 808 812 816 820 824 828 832 836 840 844 848 852 856 860 864 868 872 876 880 884 888 892 896 900 904 908 912 916 920 924 928 932 936 940 944 948 952 956 960 964 968 972 976 980 984 988 992 996 1000 1004 1008 1012 1016 1020 1024 1028 1032 1036 1040 1044 1048 1052 1056 1060 1064 1068 1072 1076 1080 1084 1088 1092 1096 1100 1104 1108 1112 1116 1120 1124 1128 1132 1136 1140 1144 1148 1152 1156 1160 1164 1168 1172 1176 1180 1184 1188 1192 1196 1200 1204 1208 1212 1216 1220 1224 1228 1232 1236 1240 1244 1248 1252 1256 1260 1264 1268 1272 1276 1280 1284 1288 1292 1296 1300 1304 1308 1312 1316 1320 1324 1328 1332 1336 1340 1344 1348 1352 1356 1360 1364 1368 1372 1376 1380 1384 1388 1392 1396 1400 1404 1408 1412 1416 1420 1424 1428 1432 1436 1440 1444 1448 1452 1456 1460 1464 1468 1472 1476 1480 1484 1488 1492 1496 1500 1504 1508 1512 1516 1520 1524 1528 1532 1536 1540 1544 1548 1552 1556 1560 1564 1568 1572 1576 1580 1584 1588 1592 1596 1600 1604 1608 1612 1616 1620 1624 1628 1632 1636 1640 1644 1648 1652 1656 1660 1664 1668 1672 1676 1680 1684 1688 1692 1696 1700 1704 1708 1712 1716 1720 1724 1728 1732 1736 1740 1744 1748 1752 1756 1760 1764 1768 1772 1776 1780 1784 1788 1792 1796 1800 1804 1808 1812 1816 1820 1824 1828 1832 1836 1840 1844 1848 1852 1856 1860 1864 1868 1872 1876 1880 1884 1888 1892 1896 1900 1904 1908 1912 1916 1920 1924 1928 1932 1936 1940 1944 1948 1952 1956 1960 1964 1968 1972 1976 1980 1984 1988 1992 1996 2000 2004 2008 2012 2016 2020 2024 2028 2032 2036 2040 2044 2048 2052 2056 2060 2064 2068 2072 2076 2080 2084 2088 2092 2096 2100 2104 2108 2112 2116 2120 2124 2128 2132 2136 2140 2144 2148 2152 2156 2160 2164 2168 2172 2176 2180 2184 2188 2192 2196 2200 2204 2208 2212 2216 2220 2224 2228 2232 2236 2240 2244 2248 2252 2256 2260 2264 2268 2272 2276 2280 2284 2288 2292 2296 2300 2304 2308 2312 2316 2320 2324 2328 2332 2336 2340 2344 2348 2352 2356 2360 2364 2368 2372 2376 2380 2384 2388 2392 2396 2400 2404 2408 2412 2416 2420 2424 2428 2432 2436 2440 2444 2448 2452 2456 2460 </DataArray>
<DataArray  type="UInt8"  Name="types"  format="ascii">10 10 10 10 10 10 10 10 10 10 10 10 10 10 10 10 10 10 10 10 10 10 10 10 10 10 10 10 10 10 10 10 10 10 10 10 10 10 10 10 10 10 10 10 10 10 10 10 10 10 10 10 10 10 10 10 10 10 10 10 10 10 10 10 10 10 10 10 10 10 10 10 10 10 10 10 10 10 10 10 10 10 10 10 10 10 10 10 10 10 10 10 10 10 10 10 10 10 10 10 10 10 10 10 10 10 10 10 10 10 10 10 10 10 10 10 10 10 10 10 10 10 10 10 10 10 10 10 10 10 10 10 10 10 10 10 10 10 10 10 10 10 10 10 10 10 10 10 10 10 10 10 10 10 10 10 10 10 10 10 10 10 10 10 10 10 10 10 10 10 10 10 10 10 10 10 10 10 10 10 10 10 10 10 10 10 10 10 10 10 10 10 10 10 10 10 10 10 10 10 10 10 10 10 10 10 10 10 10 10 10 10 10 10 10 10 10 10 10 10 10 10 10 10 10 10 10 10 10 10 10 10 10 10 10 10 10 10 10 10 10 10 10 10 10 10 10 10 10 10 10 10 10 10 10 10 10 10 10 10 10 10 10 10 10 10 10 10 10 10 10 10 10 10 10 10 10 10 10 10 10 10 10 10 10 10 10 10 10 10 10 10 10 10 10 10 10 10 10 10 10 10 10 10 10 10 10 10 10 10 10 10 10 10 10 10 10 10 10 10 10 10 10 10 10 10 10 10 10 10 10 10 10 10 10 10 10 10 10 10 10 10 10 10 10 10 10 10 10 10 10 10 10 10 10 10 10 10 10 10 10 10 10 10 10 10 10 10 10 10 10 10 10 10 10 10 10 10 10 10 10 10 10 10 10 10 10 10 10 10 10 10 10 10 10 10 10 10 10 10 10 10 10 10 10 10 10 10 10 10 10 10 10 10 10 10 10 10 10 10 10 10 10 10 10 10 10 10 10 10 10 10 10 10 10 10 10 10 10 10 10 10 10 10 10 10 10 10 10 10 10 10 10 10 10 10 10 10 10 10 10 10 10 10 10 10 10 10 10 10 10 10 10 10 10 10 10 10 10 10 10 10 10 10 10 10 10 10 10 10 10 10 10 10 10 10 10 10 10 10 10 10 10 10 10 10 10 10 10 10 10 10 10 10 10 10 10 10 10 10 10 10 10 10 10 10 10 10 10 10 10 10 10 10 10 10 10 10 10 10 10 10 10 10 10 10 10 10 10 10 10 10 10 10 10 10 10 10 10 10 10 10 10 10 10 10 10 10 10 10 10 10 10 10 10 10 10 10 10 10 10 10 10 10 10 10 10 10 10 10 10 10 10 10 10 10 10 10 10 10 10 10 10 10 10 10 10 10 10 10 10 10 10 10 10 </DataArray>
</Cells>
<PointData  Scalars="c_HbO2"> 
<DataArray  type="Float64"  Name="c_HbO2"  format="ascii">-9.9377825236770755e-17  4.0963343128137796e-16  -3.8672558191260330e-16  2.2851394676475399e-15  1.7073717149260873e-16  -1.6944978566926701e-16  -7.4922915636998062e-16  5.2302802076420969e-16  1.1170783289709392e-14  8.8790446220446231e-16  9.8678100058922553e-17  3.0571073998682443e-14  3.0931330340800325e-16  -8.8088565833210362e-17  5.3579429305341372e-16  1.0968427843899983e-17  -2.5287970767317529e-17  -3.2883555216096617e-17  -3.8151143083656525e-16  4.3839404020806403e-15  -2.4666947800596768e-19  3.4968414310785388e-20  3.0180678825819465e-19  6.7090922442077824e-19  4.3628194582804512e-19  -3.7939280422478235e-20  4.8000454012543339e-18  -1.2434881629962638e-17  3.6144881609275823e-18  7.0587225518346143e-19  1.2876074765416034e-18  -1.0351158431801253e-18  2.4690250607744152e-18  -7.1277228079675103e-18  -5.6818370758514063e-18  8.1088209963736364e-17  4.9704304405420867e-18  2.2162939336652089e-18  -6.8141172553859163e-19  -4.4241527216787051e-18  7.0045488358491720e-18  1.6330961780783709e-17  -2.2800703154404487e-17  -1.0601785803743992e-18  1.3981400691440064e-17  -6.3607403022256499e-17  -1.6026521633003118e-17  -1.4324841087848684e-17  -7.2479536701605667e-17  8.1222700637750579e-16  5.4486700018576702e-17  -1.2653831648980281e-16  -1.4875806852999149e-18  4.5946495890661919e-20  8.6020571713647593e-20  1.5288767074204207e-19  6.1546417814462254e-20  8.3673385404513013e-20  1.0674142506294915e-18  1.4513639352747359e-18  4.3468592596652430e-18  1.2197003349274174e-19  9.2089311439816461e-20  2.9304172426454439e-19  4.8705366430453460e-19  -2.4829202576267633e-18  1.0921391731651303e-18  -3.1925677325604719e-18  1.6700135007535637e-18  -3.8768653212172372e-18  -6.8636708705883748e-17  -3.5727521506594894e-17  1.4166475501053561e-16  -7.0480447851570673e-17  2.3495825927780093e-15  -5.1588464332540361e-18  2.8059091610149795e-18  7.0797664065177772e-19  1.4823711146940713e-18  1.0174481977989758e-18  4.6613746810972956e-18  6.9065764527919178e-18  -2.5079190040525082e-17  -4.5890625470045485e-18  -3.8466634681871263e-17  1.9509576593239821e-17  -1.9879948423294885e-17  1.7597204479515585e-16  7.4066332720423830e-17  -8.7216286454368068e-18  -6.4225247604035301e-18  -9.8417116758359421e-18  -2.5501044557975429e-17  -4.3035525959045089e-17  -2.9841952871041283e-17  1.1764280294886391e-16  -2.9443095645608203e-17  6.0739931682820861e-16  -4.3908382021190689e-18  -4.2359057288418544e-19  4.1796636431855462e-18  9.1278271084516859e-18  1.2089436148499664e-18  -9.7821215417586073e-20  2.2534086347033487e-19  4.6952220239983957e-19  -4.4275113181288158e-18  1.7325453359950507e-18  -2.8580411171917426e-17  -9.8358702608158158e-18  1.0372826819977986e-14  4.8544323930645604e-16  -8.6175788604767997e-16  -2.8718251784266911e-15  -2.1510097656863259e-16  2.7174564202501943e-17  7.1928907958724467e-20  -4.9208536138996665e-18  -1.9852549648718857e-17  1.9864927961878333e-16  7.9095044538878856e-18  1.2617487497360550e-17  -1.7240768462253378e-17  -2.4005371704945180e-17  8.8824088681814198e-18  -6.4916119519647300e-18  -1.7336541878987971e-17  8.9086027422160351e-19  -1.1422175122644474e-18  4.8944344267003420e-18  -2.3164041048315017e-18  -2.2494587710155246e-19  -1.3712309988496779e-19  -7.7687745760314070e-18  -1.1734829757810118e-18  -6.8923060771616182e-17  1.2379011716144045e-17  -3.7977392908476285e-17  4.5364259564116838e-17  -4.1502350925178361e-18  -4.3312296870397065e-19  8.6567028308608542e-20  3.3215030846213874e-17  -6.4092696951538075e-17  -3.1841765301622119e-16  -9.5681204629723984e-16  -2.4639370991595796e-15  -9.2175800290196294e-17  -9.3621710363704970e-16  2.1052089278867477e-15  4.7796820769677891e-15  7.0232280759963950e-17  -3.2316259844841254e-16  1.9618667806081775e-16  -5.3854834169083248e-16  5.4052152075835739e-15  -3.3980708154994775e-14  4.8940281860960880e-16  1.1757666838447396e-14  -8.4304757061030369e-14  -1.2754589255358634e-13  1.8887535785274886e-13  -5.8529559821077039e-14  -1.5189704128662912e-13  -1.1446547619188875e-12  8.5006825582602219e-12  -1.2852348448990717e-15  2.6648266779557504e-14  -3.7374752162947400e-13  5.9655440976826865e-16  -3.3833191570577063e-15  -1.2383989654901551e-15  3.7064465351368918e-15  -1.2531921018173248e-16  -1.5006716536515014e-16  -6.9320233032836394e-15  2.2630718958228705e-14  4.7773842298437404e-16  -3.2098133239054358e-17  1.5250085214361647e-14  -1.1822527605947608e-13  2.1807783020807218e-15  </DataArray> 
</PointData> 
</Piece>
</UnstructuredGrid>
</VTKFile>