<?xml version="1.0"?>
<VTKFile type="UnstructuredGrid"  version="0.1"  >
<UnstructuredGrid>
<Piece  NumberOfPoints="130" NumberOfCells="407">
<Points>
<DataArray  type="Float64"  NumberOfComponents="3"  format="ascii">20 20 0  25 20 5  25 20 0  25 15 5  25 15 0  30 20 0  30 20 5  30 20 10  20 20 5  20 20 10  25 20 10  25 25 5  25 25 0  30 25 5  30 25 0  30 30 0  30 30 5  30 30 10  30 25 10  25 25 10  20 25 0  20 30 0  25 30 5  25 30 0  20 25 10  20 30 10  25 30 10  20 30 5  35 25 5  35 25 0  35 30 5  35 30 0  40 30 0  40 30 5  40 30 10  35 25 10  35 30 10  25 35 5  25 35 0  30 35 5  30 35 0  30 40 0  30 35 10  25 35 10  35 35 5  35 35 0  40 35 5  40 35 0  35 35 10  25 25 15  30 25 15  30 30 15  30 30 20  25 30 15  35 25 15  35 30 15  40 30 15  40 30 20  35 30 20  25 35 15  30 35 15  30 35 20  30 40 20  35 35 15  35 35 20  30 15 5  30 15 0  35 20 5  35 20 0  35 15 5  35 15 0  40 20 0  40 20 5  40 20 10  35 20 10  40 25 5  40 25 0  40 25 10  45 25 5  45 25 0  45 20 0  50 20 0  50 25 5  50 25 0  50 30 0  50 30 5  50 30 10  45 20 5  50 20 5  50 20 10  50 25 10  45 25 10  45 20 10  45 30 5  45 30 0  45 30 10  45 35 5  45 35 0  50 35 5  40 25 15  45 25 15  50 25 15  30 20 15  30 20 20  30 25 20  25 25 20  35 20 15  40 20 15  40 20 20  40 25 20  35 25 20  35 20 20  45 25 20  30 25 25  25 25 25  35 25 25  40 25 25  45 25 25  20 30 20  25 35 25  25 30 25  25 30 20  20 35 10  20 25 15  20 30 15  25 35 20  20 35 20  20 40 20  25 40 20  20 25 20  </DataArray>
</Points>
<Cells>
<DataArray  type="UInt32"  Name="connectivity"  format="ascii">0 3 2 1  0 4 3 2  5 3 1 6  5 3 2 1  5 4 3 2  7 3 1 6  0 3 1 8  9 3 1 10  9 3 1 8  7 3 1 10  0 2 12 11  5 11 14 13  5 12 11 14  5 2 12 11  15 11 13 16  15 11 14 13  15 12 11 14  17 11 13 16  0 2 1 11  5 11 6 13  5 1 11 6  5 2 1 11  7 11 13 18  7 11 6 13  7 1 11 6  17 11 13 18  0 1 8 11  9 11 10 19  9 1 11 10  9 1 8 11  7 11 18 19  7 11 10 19  7 1 11 10  17 11 18 19  0 12 11 20  21 11 23 22  21 12 11 23  21 12 11 20  15 11 16 22  15 11 23 22  15 12 11 23  17 11 16 22  9 11 19 24  25 11 19 26  25 11 19 24  17 11 19 26  21 11 22 27  25 11 22 26  25 11 22 27  17 11 22 26  5 14 29 28  15 28 31 30  15 29 28 31  15 14 29 28  32 28 30 33  32 28 31 30  32 29 28 31  34 28 30 33  5 6 13 28  7 28 18 35  7 13 28 18  7 6 13 28  17 28 35 36  17 28 18 35  17 13 28 18  34 28 35 36  5 14 13 28  15 28 16 30  15 13 28 16  15 14 13 28  17 28 30 36  17 28 16 30  17 13 28 16  34 28 30 36  21 23 38 37  15 40 39 37  15 40 38 37  15 23 38 37  41 40 39 37  41 40 38 37  21 23 22 37  15 16 39 37  15 16 22 37  15 23 22 37  17 39 42 37  17 16 39 37  17 16 22 37  21 22 27 37  25 26 37 43  25 22 26 37  25 22 27 37  17 42 37 43  17 26 37 43  17 22 26 37  15 31 45 44  32 44 47 46  32 45 44 47  32 31 45 44  15 31 30 44  32 44 33 46  32 30 44 33  32 31 30 44  34 44 33 46  34 30 44 33  15 16 30 44  17 44 36 48  17 30 44 36  17 16 30 44  34 44 36 48  34 30 44 36  15 40 45 44  41 40 45 44  15 16 39 44  17 44 42 48  17 39 44 42  17 16 39 44  15 40 39 44  41 40 39 44  9 10 19 49  7 18 50 49  7 18 19 49  7 10 19 49  17 50 49 51  17 18 50 49  17 18 19 49  52 50 49 51  9 19 24 49  25 49 26 53  25 19 49 26  25 19 24 49  17 49 51 53  17 49 26 53  17 19 49 26  52 49 51 53  7 18 35 54  17 54 36 55  17 35 54 36  17 18 35 54  34 54 55 56  34 54 36 55  34 35 54 36  57 54 55 56  7 18 50 54  17 54 51 55  17 50 54 51  17 18 50 54  52 58 54 55  52 54 51 55  52 50 54 51  57 58 54 55  25 26 43 59  17 42 60 59  17 42 43 59  17 26 43 59  25 26 53 59  17 51 60 59  17 51 53 59  17 26 53 59  52 61 60 59  52 51 60 59  52 51 53 59  62 61 60 59  17 36 48 63  34 36 48 63  17 36 55 63  34 55 63 56  34 36 55 63  57 55 63 56  17 51 55 63  52 58 64 63  52 58 55 63  52 51 55 63  57 58 64 63  57 58 55 63  17 42 48 63  17 51 60 63  52 64 61 63  52 61 60 63  52 51 60 63  62 64 61 63  62 61 60 63  17 42 60 63  5 3 6 65  5 3 66 65  5 4 3 66  7 3 6 65  5 69 68 67  5 70 69 68  5 66 70 69  71 69 67 72  71 69 68 67  71 70 69 68  73 69 67 72  5 6 69 67  5 6 65 69  5 66 65 69  7 69 67 74  7 6 69 67  7 6 65 69  73 69 67 74  5 29 28 68  71 28 76 75  71 29 28 76  71 29 28 68  32 28 33 75  32 28 76 75  32 29 28 76  34 28 33 75  5 28 68 67  71 28 72 75  71 28 67 72  71 28 68 67  73 28 75 77  73 28 72 75  73 28 67 72  34 28 75 77  5 6 28 67  7 28 35 74  7 28 67 74  7 6 28 67  73 28 35 77  73 28 35 74  73 28 67 74  34 28 35 77  71 80 79 78  81 78 83 82  81 79 78 83  81 80 79 78  84 78 82 85  84 78 83 82  84 79 78 83  86 78 82 85  71 80 87 78  81 78 88 82  81 87 78 88  81 80 87 78  89 78 82 90  89 78 88 82  89 87 78 88  86 78 82 90  71 72 87 78  73 78 92 91  73 87 78 92  73 72 87 78  89 78 91 90  89 78 92 91  89 87 78 92  86 78 91 90  71 76 79 78  32 78 94 93  32 79 78 94  32 76 79 78  84 78 93 85  84 78 94 93  84 79 78 94  86 78 93 85  71 72 75 78  73 78 77 91  73 75 78 77  73 72 75 78  34 78 91 95  34 78 77 91  34 75 78 77  86 78 91 95  71 76 75 78  32 33 78 93  32 33 75 78  32 76 75 78  34 78 93 95  34 33 78 93  34 33 75 78  86 78 93 95  32 94 97 96  84 94 97 96  32 94 93 96  84 96 85 98  84 93 96 85  84 94 93 96  86 96 85 98  86 93 96 85  32 33 93 96  34 93 96 95  34 33 93 96  86 93 96 95  32 47 97 96  32 33 46 96  34 33 46 96  32 47 46 96  7 35 54 74  73 54 77 99  73 35 54 77  73 35 54 74  34 54 56 99  34 54 77 99  34 35 54 77  57 54 56 99  73 92 91 100  89 100 90 101  89 91 100 90  89 92 91 100  86 100 90 101  86 91 100 90  73 77 91 100  34 91 100 95  34 77 91 100  86 91 100 95  73 77 99 100  34 56 99 100  34 77 99 100  57 56 99 100  7 50 49 102  103 50 49 104  103 50 49 102  52 50 49 104  103 49 104 105  52 49 104 105  7 54 74 106  73 54 99 107  73 54 106 107  73 54 74 106  108 54 99 109  108 54 99 107  108 54 106 107  57 54 99 109  7 54 102 106  103 54 111 110  103 54 106 111  103 54 102 106  108 54 110 109  108 54 111 110  108 54 106 111  57 54 110 109  7 50 54 102  103 54 104 110  103 50 54 104  103 50 54 102  52 58 54 110  52 54 104 110  52 50 54 104  57 58 54 110  73 99 100 107  108 100 109 112  108 99 100 109  108 99 100 107  57 100 109 112  57 99 100 109  103 104 113 114  103 104 105 114  52 104 113 114  52 104 105 114  103 111 110 115  108 115 109 116  108 110 115 109  108 111 110 115  57 115 109 116  57 110 115 109  103 104 110 115  52 58 110 115  52 104 110 115  57 58 110 115  103 104 113 115  52 104 113 115  108 109 112 117  57 109 112 117  108 109 116 117  57 109 116 117  118 121 120 119  52 121 120 119  25 37 43 122  9 24 49 123  25 49 53 124  25 49 124 123  25 24 49 123  118 49 53 121  118 49 53 124  118 49 124 123  52 49 53 121  25 53 59 124  118 59 121 125  118 53 59 121  118 53 59 124  52 61 59 125  52 59 121 125  52 53 59 121  62 61 59 125  25 43 59 122  118 59 126 125  127 59 125 128  127 59 126 125  62 59 125 128  118 121 119 125  52 61 119 125  52 121 119 125  62 61 119 125  118 126 119 125  127 119 125 128  127 126 119 125  62 119 125 128  118 49 105 121  118 49 105 129  118 49 123 129  52 49 105 121  118 114 121 120  118 105 114 121  118 105 114 129  52 114 121 120  52 105 114 121  </DataArray>
<DataArray  type="UInt32"  Name="offsets"  format="ascii">4 8 12 16 20 24 28 32 36 40 44 48 52 56 60 64 68 72 76 80 84 88 92 96 100 104 108 112 116 120 124 128 132 136 140 144 148 152 156 160 164 168 172 176 180 184 188 192 196 200 204 208 212 216 220 224 228 232 236 240 244 248 252 256 260 264 268 272 276 280 284 288 292 296 300 304 308 312 316 320 324 328 332 336 340 344 348 352 356 360 364 368 372 376 380 384 388 392 396 400 404 408 412 416 420 424 428 432 436 440 444 448 452 456 460 464 468 472 476 480 484 488 492 496 500 504 508 512 516 520 524 528 532 536 540 544 548 552 556 560 564 568 572 576 580 584 588 592 596 600 604 608 612 616 620 624 628 632 636 640 644 648 652 656 660 664 668 672 676 680 684 688 692 696 700 704 708 712 716 720 724 728 732 736 740 744 748 752 756 760 764 768 772 776 780 784 788 792 796 800 804 808 812 816 820 824 828 832 836 840 844 848 852 856 860 864 868 872 876 880 884 888 892 896 900 904 908 912 916 920 924 928 932 936 940 944 948 952 956 960 964 968 972 976 980 984 988 992 996 1000 1004 1008 1012 1016 1020 1024 1028 1032 1036 1040 1044 1048 1052 1056 1060 1064 1068 1072 1076 1080 1084 1088 1092 1096 1100 1104 1108 1112 1116 1120 1124 1128 1132 1136 1140 1144 1148 1152 1156 1160 1164 1168 1172 1176 1180 1184 1188 1192 1196 1200 1204 1208 1212 1216 1220 1224 1228 1232 1236 1240 1244 1248 1252 1256 1260 1264 1268 1272 1276 1280 1284 1288 1292 1296 1300 1304 1308 1312 1316 1320 1324 1328 1332 1336 1340 1344 1348 1352 1356 1360 1364 1368 1372 1376 1380 1384 1388 1392 1396 1400 1404 1408 1412 1416 1420 1424 1428 1432 1436 1440 1444 1448 1452 1456 1460 1464 1468 1472 1476 1480 1484 1488 1492 1496 1500 1504 1508 1512 1516 1520 1524 1528 1532 1536 1540 1544 1548 1552 1556 1560 1564 1568 1572 1576 1580 1584 1588 1592 1596 1600 1604 1608 1612 1616 1620 1624 1628 </DataArray>
<DataArray  type="UInt8"  Name="types"  format="ascii">10 10 10 10 10 10 10 10 10 10 10 10 10 10 10 10 10 10 10 10 10 10 10 10 10 10 10 10 10 10 10 10 10 10 10 10 10 10 10 10 10 10 10 10 10 10 10 10 10 10 10 10 10 10 10 10 10 10 10 10 10 10 10 10 10 10 10 10 10 10 10 10 10 10 10 10 10 10 10 10 10 10 10 10 10 10 10 10 10 10 10 10 10 10 10 10 10 10 10 10 10 10 10 10 10 10 10 10 10 10 10 10 10 10 10 10 10 10 10 10 10 10 10 10 10 10 10 10 10 10 10 10 10 10 10 10 10 10 10 10 10 10 10 10 10 10 10 10 10 10 10 10 10 10 10 10 10 10 10 10 10 10 10 10 10 10 10 10 10 10 10 10 10 10 10 10 10 10 10 10 10 10 10 10 10 10 10 10 10 10 10 10 10 10 10 10 10 10 10 10 10 10 10 10 10 10 10 10 10 10 10 10 10 10 10 10 10 10 10 10 10 10 10 10 10 10 10 10 10 10 10 10 10 10 10 10 10 10 10 10 10 10 10 10 10 10 10 10 10 10 10 10 10 10 10 10 10 10 10 10 10 10 10 10 10 10 10 10 10 10 10 10 10 10 10 10 10 10 10 10 10 10 10 10 10 10 10 10 10 10 10 10 10 10 10 10 10 10 10 10 10 10 10 10 10 10 10 10 10 10 10 10 10 10 10 10 10 10 10 10 10 10 10 10 10 10 10 10 10 10 10 10 10 10 10 10 10 10 10 10 10 10 10 10 10 10 10 10 10 10 10 10 10 10 10 10 10 10 10 10 10 10 10 10 10 10 10 10 10 10 10 10 10 10 10 10 10 10 10 10 10 10 10 10 10 10 10 10 10 10 10 10 10 10 10 10 10 10 10 10 10 10 10 10 10 10 10 </DataArray>
</Cells>
<PointData  Scalars="c_HbO2"> 
<DataArray  type="Float64"  Name="c_HbO2"  format="ascii">2.7821348581395689e-20  -1.8407642269167551e-21  -2.0110008165912944e-23  -5.2397801942078811e-21  -1.8407642193864281e-21  7.7580038634164936e-22  3.1721925366127150e-22  7.7580038672573264e-22  1.2466756368505605e-20  2.7821348589622961e-20  -2.0110007953075447e-23  -5.2397801913261798e-21  -1.8407642283597939e-21  2.6658473907417013e-23  3.1721925541290615e-22  7.7580038665000560e-22  3.1721925370467747e-22  7.7580038430287873e-22  3.1721925514882697e-22  -1.8407642240593544e-21  1.2466756368723363e-20  2.7821348584354922e-20  -1.8407642242696306e-21  -2.0110004336301063e-23  1.2466756375936326e-20  2.7821348587663068e-20  -2.0110009939628107e-23  1.2466756375286937e-20  -1.3262032778417418e-22  -4.9677165215039341e-23  -4.9677165395185202e-23  -1.9617096931996260e-24  2.0824804556875646e-23  8.2286721938496242e-24  2.0824804389502043e-23  -4.9677164755371080e-23  -1.9617090667149548e-24  -5.2397801889424894e-21  -1.8407642265388553e-21  2.6658473005654042e-23  3.1721925389706683e-22  7.7580038743372555e-22  3.1721925461577446e-22  -1.8407642287112911e-21  -1.3262032785599124e-22  -4.9677165722171954e-23  5.3956490606531722e-25  8.2286724361364866e-24  -4.9677164563130734e-23  -5.2397801998113171e-21  2.6658471476559077e-23  3.1721925326702320e-22  7.7580038328509425e-22  -1.8407642341613321e-21  -1.3262032773675170e-22  -4.9677165133102283e-23  8.2286726607043820e-24  2.0824805279117034e-23  -1.9617062878859978e-24  -5.2397802035706480e-21  2.6658466091484004e-23  3.1721924779464895e-22  7.7580038692132324e-22  -1.3262032747512769e-22  -4.9677162666916505e-23  2.6658474289848307e-23  3.1721925561454024e-22  -4.9677165348276989e-23  -1.9617092300127165e-24  -1.3262032723398365e-22  -4.9677166564011726e-23  2.0824804578247644e-23  8.2286722685399887e-24  2.0824804316660913e-23  -1.9617089957111823e-24  5.3956486181044659e-25  8.2286720742029911e-24  8.2286722450153374e-24  -3.5266734962739245e-24  -1.3507561658967569e-24  -6.7428799315360346e-26  1.1011524823583497e-24  2.5409938674402150e-26  4.2972142518931757e-25  1.1011524542446940e-24  4.2972136122347757e-25  1.1011524901778094e-24  -1.3507561600120593e-24  4.2972149077882503e-25  1.1011525250881757e-24  4.2972147278786011e-25  -1.3507563536200434e-24  -6.7428756535046511e-26  -1.3507562285428920e-24  -6.7428558941366138e-26  -6.7428606378381466e-26  -3.5266735100131407e-24  -1.3507563150887247e-24  2.5409930199630574e-26  5.3956510992402975e-25  -3.5266735222908508e-24  2.5410039696412712e-26  3.1721925490415290e-22  7.7580038787653211e-22  3.1721925464702399e-22  -1.8407642288749331e-21  -4.9677166016798952e-23  8.2286711481071774e-24  2.0824803809353116e-23  8.2286723806669756e-24  -4.9677165250435280e-23  -1.9617092340086850e-24  -1.3507562807496744e-24  2.6658475082421100e-23  -5.2397801905523276e-21  -1.3262032720807904e-22  5.3956491987079004e-25  -3.5266734814929978e-24  2.7821348594607665e-20  -5.2397801888310593e-21  -1.8407642203404886e-21  -2.0110008329556756e-23  1.2466756363017554e-20  1.7190301119640100e-21  1.2466756361652461e-20  -1.8407642127991605e-21  1.2466756364919235e-20  2.7821348574090920e-20  -2.0110009564124768e-23  1.2466756368596147e-20  </DataArray> 
</PointData> 
</Piece>
</UnstructuredGrid>
</VTKFile>