<?xml version="1.0"?>
<VTKFile type="UnstructuredGrid"  version="0.1"  >
<UnstructuredGrid>
<Piece  NumberOfPoints="183" NumberOfCells="599">
<Points>
<DataArray  type="Float64"  NumberOfComponents="3"  format="ascii">20 20 10  25 25 10  25 20 10  25 25 5  25 25 15  25 20 15  20 20 15  20 20 20  25 25 20  25 20 20  25 25 25  0 20 10  5 20 15  5 20 10  5 15 15  10 20 10  10 20 15  10 20 20  0 20 15  0 20 20  5 20 20  10 20 0  10 25 5  10 25 0  5 25 5  5 25 0  10 30 0  10 30 5  10 30 10  10 20 5  10 25 10  5 25 10  20 20 0  20 25 5  20 25 0  15 25 5  15 25 0  20 30 0  20 30 5  20 30 10  20 20 5  20 25 10  15 25 10  15 20 10  15 30 5  15 30 0  15 30 10  25 25 0  25 30 5  25 30 0  25 30 10  15 35 5  15 35 0  20 35 5  20 35 0  20 40 0  20 40 5  20 40 10  20 35 10  15 35 10  10 35 0  10 40 0  15 40 5  15 40 0  25 35 5  25 35 0  25 35 10  25 40 5  25 40 0  25 40 10  15 45 5  15 45 0  20 45 5  20 45 0  20 50 0  20 50 5  20 50 10  20 45 10  10 45 0  10 50 0  15 50 5  15 50 0  25 45 5  25 45 0  25 45 10  25 50 5  25 50 0  25 50 10  5 25 15  10 25 15  10 30 15  15 25 15  20 25 15  20 30 15  20 30 20  15 20 15  20 25 20  15 30 15  25 30 15  25 30 20  15 35 15  20 35 15  20 40 15  20 40 20  20 35 20  25 35 15  25 35 20  25 40 15  25 40 20  25 45 15  25 45 20  25 50 15  25 35 25  0 30 0  5 30 5  5 30 0  0 25 0  0 25 10  0 25 5  0 30 10  5 30 10  0 30 5  5 35 5  5 35 0  10 35 5  10 40 5  10 40 10  10 35 10  5 35 10  0 35 0  0 40 0  5 40 5  5 40 0  0 35 5  0 35 10  0 40 10  5 40 10  0 40 5  15 40 10  5 45 5  5 45 0  10 45 5  10 50 5  10 50 10  10 45 10  5 45 10  0 45 0  0 50 0  5 50 5  5 50 0  0 45 5  0 45 10  0 50 10  5 50 10  0 50 5  15 45 10  15 50 10  5 30 15  0 25 15  0 25 20  0 30 20  0 30 15  5 35 15  10 35 15  10 40 15  5 40 15  0 35 15  0 40 15  15 40 15  5 45 15  10 45 15  10 50 15  10 50 20  5 50 15  0 45 15  15 45 15  20 45 15  20 50 15  20 50 20  20 45 20  15 50 15  15 50 20  25 50 20  </DataArray>
</Points>
<Cells>
<DataArray  type="UInt32"  Name="connectivity"  format="ascii">0 2 3 1  0 2 1 4  0 2 4 5  0 4 5 6  7 4 9 8  7 4 5 9  7 4 5 6  7 9 8 10  11 14 13 12  15 14 16 12  15 14 13 12  17 14 16 12  11 14 12 18  19 14 12 20  19 14 12 18  17 14 12 20  21 23 22 24  21 23 25 24  26 22 24 27  26 23 22 24  26 23 25 24  28 22 24 27  21 29 22 24  15 22 30 24  15 29 22 24  28 22 30 24  11 13 24 31  15 30 24 31  15 13 24 31  28 30 24 31  32 35 34 33  32 36 35 34  37 35 33 38  37 35 34 33  37 36 35 34  39 35 33 38  32 40 35 33  0 35 33 41  0 40 35 33  39 35 33 41  15 43 35 42  0 35 42 41  0 43 35 42  39 35 42 41  21 23 36 35  26 35 45 44  26 36 35 45  26 23 36 35  37 35 44 38  37 35 45 44  37 36 35 45  39 35 44 38  21 29 22 35  15 35 30 42  15 22 35 30  15 29 22 35  28 35 42 46  28 35 30 42  28 22 35 30  39 35 42 46  21 23 22 35  26 35 27 44  26 22 35 27  26 23 22 35  28 35 44 46  28 35 27 44  28 22 35 27  39 35 44 46  32 47 3 34  37 3 49 48  37 47 3 49  37 47 3 34  32 40 3 33  0 3 1 41  0 3 33 41  0 40 3 33  39 3 1 50  39 3 1 41  39 3 33 41  32 3 34 33  37 3 38 48  37 3 33 38  37 3 34 33  39 3 48 50  39 3 38 48  39 3 33 38  26 45 52 51  37 51 54 53  37 52 51 54  37 45 52 51  55 51 53 56  55 51 54 53  55 52 51 54  57 51 53 56  26 45 44 51  37 51 38 53  37 44 51 38  37 45 44 51  39 51 53 58  39 51 38 53  39 44 51 38  57 51 53 58  26 27 44 51  28 51 46 59  28 44 51 46  28 27 44 51  39 51 59 58  39 51 46 59  39 44 51 46  57 51 59 58  26 52 51 60  61 51 63 62  61 52 51 63  61 52 51 60  55 51 56 62  55 51 63 62  55 52 51 63  57 51 56 62  37 49 65 64  37 49 48 64  37 38 48 64  39 64 50 66  39 48 64 50  39 38 48 64  37 54 65 64  55 64 68 67  55 65 64 68  55 54 65 64  37 38 53 64  39 64 58 66  39 53 64 58  39 38 53 64  57 64 66 69  57 64 58 66  57 53 64 58  37 54 53 64  55 64 56 67  55 53 64 56  55 54 53 64  57 64 67 69  57 64 56 67  57 53 64 56  61 63 71 70  55 73 72 70  55 73 71 70  55 63 71 70  74 72 70 75  74 73 72 70  74 73 71 70  76 72 70 75  61 63 62 70  55 56 72 70  55 56 62 70  55 63 62 70  57 72 77 70  57 56 72 70  57 56 62 70  76 72 77 70  61 71 70 78  79 70 81 80  79 71 70 81  79 71 70 78  74 70 75 80  74 70 81 80  74 71 70 81  76 70 75 80  55 68 83 82  55 68 67 82  55 56 67 82  57 82 69 84  57 67 82 69  57 56 67 82  55 73 83 82  74 82 86 85  74 83 82 86  74 73 83 82  55 56 72 82  57 82 77 84  57 72 82 77  57 56 72 82  76 82 84 87  76 82 77 84  76 72 82 77  55 73 72 82  74 82 75 85  74 72 82 75  74 73 72 82  76 82 85 87  76 82 75 85  76 72 82 75  11 13 31 88  15 30 89 88  15 30 31 88  15 13 31 88  28 89 88 90  28 30 89 88  28 30 31 88  11 13 12 88  15 16 89 88  15 16 12 88  15 13 12 88  17 16 89 88  17 16 12 88  11 12 18 88  19 12 20 88  19 12 18 88  17 12 20 88  15 43 42 91  0 91 41 92  0 42 91 41  0 43 42 91  39 91 92 93  39 91 41 92  39 42 91 41  94 91 92 93  15 43 95 91  0 6 91 92  0 6 95 91  0 43 95 91  7 91 92 96  7 6 91 92  7 6 95 91  94 91 92 96  15 16 95 91  17 16 95 91  15 30 42 91  28 91 46 97  28 42 91 46  28 30 42 91  39 91 97 93  39 91 46 97  39 42 91 46  94 91 97 93  15 16 89 91  17 16 89 91  15 30 89 91  28 91 90 97  28 89 91 90  28 30 89 91  0 1 4 41  39 4 50 98  39 1 4 50  39 1 4 41  0 4 6 92  7 4 8 96  7 4 92 96  7 4 6 92  94 4 8 99  94 4 8 96  94 4 92 96  0 4 41 92  39 4 93 98  39 4 92 93  39 4 41 92  94 4 98 99  94 4 93 98  94 4 92 93  28 46 59 100  39 100 58 101  39 59 100 58  39 46 59 100  57 100 101 102  57 100 58 101  57 59 100 58  103 100 101 102  28 46 97 100  39 100 93 101  39 97 100 93  39 46 97 100  94 100 101 104  94 100 93 101  94 97 100 93  103 100 101 104  28 90 97 100  39 50 66 105  39 50 98 105  39 93 98 105  94 105 99 106  94 98 105 99  94 93 98 105  39 58 66 105  57 105 69 107  57 66 105 69  57 58 66 105  39 93 101 105  94 105 104 106  94 101 105 104  94 93 101 105  103 105 106 108  103 105 104 106  103 101 105 104  39 58 101 105  57 105 102 107  57 101 105 102  57 58 101 105  103 105 107 108  103 105 102 107  103 101 105 102  57 69 84 109  57 69 107 109  57 102 107 109  103 109 108 110  103 107 109 108  103 102 107 109  57 77 84 109  76 109 87 111  76 84 109 87  76 77 84 109  7 8 10 96  94 8 10 99  94 8 10 96  94 99 106 112  94 104 106 112  103 106 112 108  103 104 106 112  113 24 115 114  113 25 24 115  113 25 24 116  26 24 27 114  26 24 115 114  26 25 24 115  28 24 27 114  11 24 31 117  11 24 118 117  119 24 31 120  119 24 31 117  119 24 118 117  28 24 31 120  113 24 114 121  113 24 118 121  113 24 116 118  119 24 114 120  119 24 114 121  119 24 118 121  28 24 114 120  113 115 123 122  26 60 122 124  26 60 123 122  26 115 123 122  61 122 124 125  61 60 122 124  61 60 123 122  126 122 124 125  113 115 114 122  26 27 122 124  26 27 114 122  26 115 114 122  28 122 124 127  28 27 122 124  28 27 114 122  126 122 124 127  113 114 121 122  119 122 120 128  119 114 122 120  119 114 121 122  28 122 127 128  28 122 120 128  28 114 122 120  126 122 127 128  113 123 122 129  130 122 132 131  130 123 122 132  130 123 122 129  61 122 125 131  61 122 132 131  61 123 122 132  126 122 125 131  113 121 122 133  119 122 128 134  119 122 133 134  119 121 122 133  135 122 128 136  135 122 128 134  135 122 133 134  126 122 128 136  113 122 129 133  130 122 131 137  130 122 133 137  130 122 129 133  135 122 131 136  135 122 131 137  135 122 133 137  126 122 131 136  26 27 51 124  28 51 59 127  28 51 124 127  28 27 51 124  126 51 59 138  126 51 59 127  126 51 124 127  57 51 59 138  26 51 60 124  61 51 62 125  61 51 124 125  61 51 60 124  126 51 62 138  126 51 62 125  126 51 124 125  57 51 62 138  130 132 140 139  61 78 141 139  61 78 140 139  61 132 140 139  79 141 139 142  79 78 141 139  79 78 140 139  143 141 139 142  130 132 131 139  61 125 141 139  61 125 131 139  61 132 131 139  126 141 144 139  126 125 141 139  126 125 131 139  143 141 144 139  130 131 137 139  135 136 139 145  135 131 136 139  135 131 137 139  126 144 139 145  126 136 139 145  126 131 136 139  143 144 139 145  130 140 139 146  147 139 149 148  147 140 139 149  147 140 139 146  79 139 142 148  79 139 149 148  79 140 139 149  143 139 142 148  130 137 139 150  135 139 145 151  135 139 150 151  135 137 139 150  152 139 145 153  152 139 145 151  152 139 150 151  143 139 145 153  130 139 146 150  147 139 148 154  147 139 150 154  147 139 146 150  152 139 148 153  152 139 148 154  152 139 150 154  143 139 148 153  61 62 70 125  126 70 138 155  126 62 70 138  126 62 70 125  57 77 70 155  57 70 138 155  57 62 70 138  76 77 70 155  61 70 125 141  126 70 144 155  126 70 141 144  126 70 125 141  143 70 155 156  143 70 144 155  143 70 141 144  76 70 155 156  61 70 78 141  79 70 80 142  79 70 141 142  79 70 78 141  143 70 80 156  143 70 80 142  143 70 141 142  76 70 80 156  11 31 88 117  119 88 120 157  119 31 88 120  119 31 88 117  28 88 90 157  28 88 120 157  28 31 88 120  11 18 88 158  19 159 88 158  19 18 88 158  160 159 88 158  11 88 117 158  119 88 157 161  119 88 158 161  119 88 117 158  160 88 157 161  160 88 158 161  119 120 128 162  28 127 163 162  28 127 128 162  28 120 128 162  126 163 162 164  126 127 163 162  126 127 128 162  119 120 157 162  28 90 163 162  28 90 157 162  28 120 157 162  119 157 161 162  160 157 161 162  119 128 134 162  135 162 136 165  135 128 162 136  135 128 134 162  126 162 164 165  126 162 136 165  126 128 162 136  119 161 162 166  160 161 162 166  119 134 162 166  135 162 165 167  135 162 166 167  135 134 162 166  28 59 100 127  126 100 138 168  126 59 100 138  126 59 100 127  57 100 102 168  57 100 138 168  57 59 100 138  103 100 102 168  28 90 100 163  28 100 127 163  126 100 164 168  126 100 163 164  126 100 127 163  135 136 145 169  126 144 170 169  126 144 145 169  126 136 145 169  143 170 169 171  143 144 170 169  143 144 145 169  172 170 169 171  135 136 165 169  126 164 170 169  126 164 165 169  126 136 165 169  135 165 167 169  135 145 151 169  152 169 153 173  152 145 169 153  152 145 151 169  143 169 171 173  143 169 153 173  143 145 169 153  172 169 171 173  135 167 169 174  135 151 169 174  152 151 169 174  126 138 155 175  57 77 175 176  57 77 155 175  57 138 155 175  76 175 176 177  76 77 175 176  76 77 155 175  178 175 176 177  126 138 168 175  57 102 175 176  57 102 168 175  57 138 168 175  103 175 176 179  103 102 175 176  103 102 168 175  178 175 176 179  126 164 168 175  126 144 155 175  143 175 156 180  143 155 175 156  143 144 155 175  76 175 180 177  76 175 156 180  76 155 175 156  178 175 180 177  126 164 170 175  126 144 170 175  143 175 171 180  143 170 175 171  143 144 170 175  172 175 180 181  172 175 171 180  172 170 175 171  178 175 180 181  57 102 109 176  103 109 110 179  103 109 176 179  103 102 109 176  178 109 110 182  178 109 110 179  178 109 176 179  57 77 109 176  76 109 111 177  76 109 176 177  76 77 109 176  178 109 111 182  178 109 111 177  178 109 176 177  </DataArray>
<DataArray  type="UInt32"  Name="offsets"  format="ascii">4 8 12 16 20 24 28 32 36 40 44 48 52 56 60 64 68 72 76 80 84 88 92 96 100 104 108 112 116 120 124 128 132 136 140 144 148 152 156 160 164 168 172 176 180 184 188 192 196 200 204 208 212 216 220 224 228 232 236 240 244 248 252 256 260 264 268 272 276 280 284 288 292 296 300 304 308 312 316 320 324 328 332 336 340 344 348 352 356 360 364 368 372 376 380 384 388 392 396 400 404 408 412 416 420 424 428 432 436 440 444 448 452 456 460 464 468 472 476 480 484 488 492 496 500 504 508 512 516 520 524 528 532 536 540 544 548 552 556 560 564 568 572 576 580 584 588 592 596 600 604 608 612 616 620 624 628 632 636 640 644 648 652 656 660 664 668 672 676 680 684 688 692 696 700 704 708 712 716 720 724 728 732 736 740 744 748 752 756 760 764 768 772 776 780 784 788 792 796 800 804 808 812 816 820 824 828 832 836 840 844 848 852 856 860 864 868 872 876 880 884 888 892 896 900 904 908 912 916 920 924 928 932 936 940 944 948 952 956 960 964 968 972 976 980 984 988 992 996 1000 1004 1008 1012 1016 1020 1024 1028 1032 1036 1040 1044 1048 1052 1056 1060 1064 1068 1072 1076 1080 1084 1088 1092 1096 1100 1104 1108 1112 1116 1120 1124 1128 1132 1136 1140 1144 1148 1152 1156 1160 1164 1168 1172 1176 1180 1184 1188 1192 1196 1200 1204 1208 1212 1216 1220 1224 1228 1232 1236 1240 1244 1248 1252 1256 1260 1264 1268 1272 1276 1280 1284 1288 1292 1296 1300 1304 1308 1312 1316 1320 1324 1328 1332 1336 1340 1344 1348 1352 1356 1360 1364 1368 1372 1376 1380 1384 1388 1392 1396 1400 1404 1408 1412 1416 1420 1424 1428 1432 1436 1440 1444 1448 1452 1456 1460 1464 1468 1472 1476 1480 1484 1488 1492 1496 1500 1504 1508 1512 1516 1520 1524 1528 1532 1536 1540 1544 1548 1552 1556 1560 1564 1568 1572 1576 1580 1584 1588 1592 1596 1600 1604 1608 1612 1616 1620 1624 1628 1632 1636 1640 1644 1648 1652 1656 1660 1664 1668 1672 1676 1680 1684 1688 1692 1696 1700 1704 1708 1712 1716 1720 1724 1728 1732 1736 1740 1744 1748 1752 1756 1760 1764 1768 1772 1776 1780 1784 1788 1792 1796 1800 1804 1808 1812 1816 1820 1824 1828 1832 1836 1840 1844 1848 1852 1856 1860 1864 1868 1872 1876 1880 1884 1888 1892 1896 1900 1904 1908 1912 1916 1920 1924 1928 1932 1936 1940 1944 1948 1952 1956 1960 1964 1968 1972 1976 1980 1984 1988 1992 1996 2000 2004 2008 2012 2016 2020 2024 2028 2032 2036 2040 2044 2048 2052 2056 2060 2064 2068 2072 2076 2080 2084 2088 2092 2096 2100 2104 2108 2112 2116 2120 2124 2128 2132 2136 2140 2144 2148 2152 2156 2160 2164 2168 2172 2176 2180 2184 2188 2192 2196 2200 2204 2208 2212 2216 2220 2224 2228 2232 2236 2240 2244 2248 2252 2256 2260 2264 2268 2272 2276 2280 2284 2288 2292 2296 2300 2304 2308 2312 2316 2320 2324 2328 2332 2336 2340 2344 2348 2352 2356 2360 2364 2368 2372 2376 2380 2384 2388 2392 2396 </DataArray>
<DataArray  type="UInt8"  Name="types"  format="ascii">10 10 10 10 10 10 10 10 10 10 10 10 10 10 10 10 10 10 10 10 10 10 10 10 10 10 10 10 10 10 10 10 10 10 10 10 10 10 10 10 10 10 10 10 10 10 10 10 10 10 10 10 10 10 10 10 10 10 10 10 10 10 10 10 10 10 10 10 10 10 10 10 10 10 10 10 10 10 10 10 10 10 10 10 10 10 10 10 10 10 10 10 10 10 10 10 10 10 10 10 10 10 10 10 10 10 10 10 10 10 10 10 10 10 10 10 10 10 10 10 10 10 10 10 10 10 10 10 10 10 10 10 10 10 10 10 10 10 10 10 10 10 10 10 10 10 10 10 10 10 10 10 10 10 10 10 10 10 10 10 10 10 10 10 10 10 10 10 10 10 10 10 10 10 10 10 10 10 10 10 10 10 10 10 10 10 10 10 10 10 10 10 10 10 10 10 10 10 10 10 10 10 10 10 10 10 10 10 10 10 10 10 10 10 10 10 10 10 10 10 10 10 10 10 10 10 10 10 10 10 10 10 10 10 10 10 10 10 10 10 10 10 10 10 10 10 10 10 10 10 10 10 10 10 10 10 10 10 10 10 10 10 10 10 10 10 10 10 10 10 10 10 10 10 10 10 10 10 10 10 10 10 10 10 10 10 10 10 10 10 10 10 10 10 10 10 10 10 10 10 10 10 10 10 10 10 10 10 10 10 10 10 10 10 10 10 10 10 10 10 10 10 10 10 10 10 10 10 10 10 10 10 10 10 10 10 10 10 10 10 10 10 10 10 10 10 10 10 10 10 10 10 10 10 10 10 10 10 10 10 10 10 10 10 10 10 10 10 10 10 10 10 10 10 10 10 10 10 10 10 10 10 10 10 10 10 10 10 10 10 10 10 10 10 10 10 10 10 10 10 10 10 10 10 10 10 10 10 10 10 10 10 10 10 10 10 10 10 10 10 10 10 10 10 10 10 10 10 10 10 10 10 10 10 10 10 10 10 10 10 10 10 10 10 10 10 10 10 10 10 10 10 10 10 10 10 10 10 10 10 10 10 10 10 10 10 10 10 10 10 10 10 10 10 10 10 10 10 10 10 10 10 10 10 10 10 10 10 10 10 10 10 10 10 10 10 10 10 10 10 10 10 10 10 10 10 10 10 10 10 10 10 10 10 10 10 10 10 10 10 10 10 10 10 10 10 10 10 10 10 10 10 10 10 10 10 10 10 10 10 10 10 10 10 10 10 10 10 10 10 10 10 10 10 10 10 10 10 10 10 10 10 10 10 10 10 10 10 10 10 10 10 10 10 10 10 10 10 10 10 10 10 10 10 10 10 10 10 10 10 10 10 10 10 10 10 10 10 10 </DataArray>
</Cells>
<PointData  Scalars="p_CO2"> 
<DataArray  type="Float64"  Name="p_CO2"  format="ascii">4.4999999976940558e+01  4.4999999959534968e+01  4.4999999952141671e+01  4.4999999974006869e+01  4.4999999950172914e+01  4.4999999938016551e+01  4.4999999970291213e+01  4.4999999968911681e+01  4.4999999954505562e+01  4.4999999933969931e+01  4.4999999964328708e+01  4.4999999999984496e+01  4.4999999998734637e+01  4.4999999998695692e+01  4.4999999998566445e+01  4.4999999995564856e+01  4.4999999994404860e+01  4.4999999994540197e+01  4.4999999999984496e+01  4.4999999999984496e+01  4.4999999998259312e+01  4.5000000000063196e+01  4.4999999997955250e+01  4.4999999999649802e+01  4.4999999999570221e+01  4.5000000000535209e+01  4.4999999999784130e+01  4.4999999998675683e+01  4.4999999997331344e+01  4.4999999997388358e+01  4.4999999996310549e+01  4.4999999999328544e+01  4.4999999999678629e+01  4.4999999988411226e+01  4.4999999999158376e+01  4.4999999994508428e+01  4.4999999999852960e+01  4.4999999999469516e+01  4.4999999991489489e+01  4.4999999985457741e+01  4.4999999986919896e+01  4.4999999980537957e+01  4.4999999990894160e+01  4.4999999989543525e+01  4.4999999995825164e+01  4.5000000000117829e+01  4.4999999993009368e+01  4.4999999999322242e+01  4.4999999979416458e+01  4.4999999998871758e+01  4.4999999971392889e+01  4.4999999997383810e+01  4.5000000000172520e+01  4.4999999994045446e+01  4.5000000000085016e+01  4.4999999999664922e+01  4.4999999996534768e+01  4.4999999994253287e+01  4.4999999989768426e+01  4.4999999994589928e+01  4.5000000000377781e+01  4.5000000000081151e+01  4.4999999998314266e+01  4.4999999999504666e+01  4.4999999987561317e+01  4.4999999999545572e+01  4.4999999978209217e+01  4.4999999992298974e+01  4.5000000000055167e+01  4.4999999987379802e+01  4.4999999999219952e+01  4.4999999999851440e+01  4.4999999998047286e+01  4.5000000000061192e+01  4.5000000000101970e+01  4.5000000000005045e+01  4.5000000000175000e+01  4.4999999997413852e+01  4.5000000000920778e+01  4.5000000000505125e+01  4.5000000000179028e+01  4.4999999999868514e+01  4.4999999996871146e+01  4.5000000000867999e+01  4.4999999995258577e+01  4.5000000000610882e+01  4.5000000000805095e+01  4.5000000001122949e+01  4.4999999998486793e+01  4.4999999994809379e+01  4.4999999996035264e+01  4.4999999986817876e+01  4.4999999975184217e+01  4.4999999981765200e+01  4.4999999982398521e+01  4.4999999986109884e+01  4.4999999974812638e+01  4.4999999989869998e+01  4.4999999965408612e+01  4.4999999966626177e+01  4.4999999993492814e+01  4.4999999987515459e+01  4.4999999992807872e+01  4.4999999994322955e+01  4.4999999989098711e+01  4.4999999976589685e+01  4.4999999978446844e+01  4.4999999986816292e+01  4.4999999990571624e+01  4.4999999993931596e+01  4.4999999955732967e+01  4.5000000001167287e+01  4.4999999989952187e+01  4.4999999999984496e+01  4.4999999999370495e+01  4.5000000000594262e+01  4.4999999999984496e+01  4.4999999999984496e+01  4.4999999999984496e+01  4.4999999999984496e+01  4.4999999998735973e+01  4.4999999999984496e+01  4.4999999999893355e+01  4.4999999999788926e+01  4.4999999998914333e+01  4.4999999999173490e+01  4.4999999998907583e+01  4.4999999998302911e+01  4.4999999999626091e+01  4.4999999999984496e+01  4.4999999999984496e+01  4.4999999999818279e+01  4.5000000000658211e+01  4.4999999999984496e+01  4.4999999999984496e+01  4.4999999999984496e+01  4.4999999999325816e+01  4.4999999999984496e+01  4.4999999996978119e+01  4.4999999999973227e+01  4.4999999999318376e+01  4.5000000000270852e+01  4.5000000000868383e+01  4.5000000000207905e+01  4.4999999999190358e+01  4.5000000000026567e+01  4.4999999999984496e+01  4.4999999999984496e+01  4.5000000000113616e+01  4.4999999999724153e+01  4.4999999999984496e+01  4.4999999999984496e+01  4.4999999999984496e+01  4.5000000000240888e+01  4.4999999999984496e+01  4.4999999998980378e+01  4.4999999999966541e+01  4.4999999998704624e+01  4.4999999999984496e+01  4.4999999999984496e+01  4.4999999999984496e+01  4.4999999999984496e+01  4.4999999999249930e+01  4.4999999997289855e+01  4.4999999998553768e+01  4.4999999999411344e+01  4.4999999999984496e+01  4.4999999999984496e+01  4.4999999996327645e+01  4.4999999999759744e+01  4.4999999999795421e+01  4.4999999999748837e+01  4.4999999999826883e+01  4.5000000001223256e+01  4.4999999999984496e+01  4.4999999998568590e+01  4.4999999997104439e+01  4.5000000000024258e+01  4.5000000002460666e+01  4.4999999997758060e+01  4.5000000000744606e+01  4.5000000000955765e+01  4.5000000000534925e+01  </DataArray> 
</PointData> 
</Piece>
</UnstructuredGrid>
</VTKFile>