<?xml version="1.0"?>
<VTKFile type="UnstructuredGrid"  version="0.1"  >
<UnstructuredGrid>
<Piece  NumberOfPoints="183" NumberOfCells="608">
<Points>
<DataArray  type="Float64"  NumberOfComponents="3"  format="ascii">20 10 0  25 15 5  25 15 0  25 10 0  20 15 0  20 20 0  25 20 5  25 20 0  20 15 5  20 20 5  20 20 10  25 20 10  25 25 5  25 25 0  20 0 0  25 5 5  25 5 0  25 0 0  25 0 5  20 0 5  20 0 10  25 5 10  25 0 10  20 5 0  25 10 5  20 5 5  20 5 10  20 10 10  25 10 10  20 10 5  25 15 10  20 15 10  25 5 15  25 0 15  20 0 15  20 0 20  25 5 20  25 0 20  25 10 15  20 5 15  20 5 20  20 10 20  25 10 20  20 10 15  25 15 15  25 15 20  25 20 15  20 15 15  20 15 20  20 20 20  25 20 20  20 20 15  25 5 25  25 10 25  20 5 25  20 10 25  25 15 25  25 20 25  20 15 25  20 20 25  25 25 25  0 0 0  5 5 5  5 5 0  5 0 0  10 0 0  10 5 5  10 5 0  10 10 0  10 10 5  10 10 10  5 0 5  10 0 5  10 0 10  10 5 10  0 0 5  0 0 10  5 5 10  5 0 10  0 5 0  0 10 0  5 10 5  5 10 0  0 5 5  0 5 10  0 10 10  5 10 10  0 10 5  15 5 5  15 5 0  15 0 0  15 0 5  15 5 10  15 0 10  15 10 5  15 10 0  15 10 10  5 15 5  10 15 5  10 15 10  10 20 10  5 15 10  0 15 5  0 15 10  0 20 10  5 20 10  15 15 5  15 15 0  15 15 10  15 20 10  5 5 15  10 5 15  10 10 15  10 10 20  5 0 15  10 0 15  10 0 20  10 5 20  0 0 15  0 0 20  5 5 20  5 0 20  5 10 15  0 5 15  0 5 20  0 10 20  5 10 20  0 10 15  15 5 15  15 0 15  15 5 20  15 0 20  15 10 15  15 10 20  5 15 15  10 15 15  10 20 15  10 20 20  10 15 20  5 15 20  0 15 15  0 15 20  0 20 20  5 20 20  0 20 15  15 15 15  15 15 20  15 20 15  15 20 20  5 5 25  10 5 25  10 10 25  5 0 25  10 0 25  0 0 25  5 10 25  0 5 25  0 10 25  15 5 25  15 0 25  15 10 25  5 15 25  10 15 25  0 15 25  0 20 25  15 15 25  5 15 0  10 15 0  10 20 0  10 20 5  0 15 0  0 20 0  5 20 5  5 20 0  0 20 5  15 20 5  15 20 0  5 25 5  5 25 0  15 25 5  15 25 0  0 25 0  0 25 5  </DataArray>
</Points>
<Cells>
<DataArray  type="UInt32"  Name="connectivity"  format="ascii">0 3 2 1  0 2 1 4  5 1 7 6  5 2 1 7  5 2 1 4  0 1 4 8  5 1 6 9  5 1 8 9  5 1 4 8  10 1 6 11  10 1 6 9  10 1 8 9  5 7 13 12  5 7 6 12  5 6 9 12  10 6 11 12  10 6 9 12  14 17 16 15  14 17 15 18  14 15 18 19  20 15 21 22  20 15 18 22  20 15 18 19  14 16 15 23  0 3 15 24  0 3 16 15  0 16 15 23  14 15 19 25  20 15 21 26  20 15 25 26  20 15 19 25  27 15 21 28  27 15 21 26  27 15 25 26  14 15 23 25  0 15 24 29  0 15 25 29  0 15 23 25  27 15 24 28  27 15 24 29  27 15 25 29  0 3 1 24  0 1 24 29  27 1 28 30  27 1 24 28  27 1 24 29  0 1 8 29  27 1 30 31  27 1 8 31  27 1 8 29  10 1 11 30  10 1 30 31  10 1 8 31  20 21 22 32  20 22 32 33  20 32 33 34  35 32 36 37  35 32 33 37  35 32 33 34  20 21 26 32  27 28 32 38  27 21 28 32  27 21 26 32  20 32 34 39  35 32 36 40  35 32 39 40  35 32 34 39  41 32 36 42  41 32 36 40  41 32 39 40  20 26 32 39  27 32 38 43  27 32 39 43  27 26 32 39  41 32 38 42  41 32 38 43  41 32 39 43  27 28 30 44  27 28 38 44  27 38 43 44  41 44 42 45  41 38 44 42  41 38 43 44  27 30 31 44  10 11 44 46  10 11 30 44  10 30 31 44  27 43 44 47  41 44 45 48  41 44 47 48  41 43 44 47  49 44 45 50  49 44 45 48  49 44 47 48  27 31 44 47  10 44 46 51  10 44 47 51  10 31 44 47  49 44 46 50  49 44 46 51  49 44 47 51  35 52 36 37  35 52 36 40  41 52 42 53  41 52 36 42  41 52 36 40  35 52 54 40  41 52 53 55  41 52 54 55  41 52 54 40  41 42 45 56  41 42 53 56  41 53 55 56  41 45 48 56  49 56 50 57  49 45 56 50  49 45 48 56  41 55 56 58  41 48 56 58  49 56 57 59  49 56 58 59  49 48 56 58  49 50 57 60  49 57 59 60  61 64 63 62  65 62 67 66  65 63 62 67  65 64 63 62  68 62 66 69  68 62 67 66  68 63 62 67  70 62 66 69  61 64 62 71  65 62 66 72  65 62 71 72  65 64 62 71  73 62 66 74  73 62 66 72  73 62 71 72  70 62 66 74  61 62 71 75  76 62 77 78  76 62 71 78  76 62 71 75  73 62 74 77  73 62 77 78  73 62 71 78  70 62 74 77  61 63 62 79  80 62 82 81  80 63 62 82  80 63 62 79  68 62 69 81  68 62 82 81  68 63 62 82  70 62 69 81  61 62 75 83  76 62 77 84  76 62 83 84  76 62 75 83  85 62 77 86  85 62 77 84  85 62 83 84  70 62 77 86  61 62 79 83  80 62 81 87  80 62 83 87  80 62 79 83  85 62 81 86  85 62 81 87  85 62 83 87  70 62 81 86  65 90 89 88  14 23 25 88  14 23 89 88  14 90 89 88  0 25 29 88  0 23 25 88  0 23 89 88  27 25 29 88  65 90 88 91  14 19 25 88  14 19 88 91  14 90 88 91  20 25 26 88  20 19 25 88  20 19 88 91  27 25 26 88  65 72 88 91  73 88 92 93  73 88 91 93  73 72 88 91  20 26 88 92  20 88 92 93  20 88 91 93  27 26 88 92  65 67 89 88  68 88 95 94  68 89 88 95  68 67 89 88  0 29 88 94  0 88 95 94  0 89 88 95  27 29 88 94  65 66 72 88  73 88 74 92  73 66 88 74  73 66 72 88  70 88 96 92  70 88 74 92  70 66 88 74  27 88 96 92  65 67 66 88  68 88 69 94  68 66 88 69  68 67 66 88  70 88 94 96  70 88 69 94  70 66 88 69  27 88 94 96  80 82 81 97  68 69 98 97  68 69 81 97  68 82 81 97  70 98 99 97  70 69 98 97  70 69 81 97  100 98 99 97  80 81 87 97  85 86 97 101  85 81 86 97  85 81 87 97  70 99 97 101  70 86 97 101  70 81 86 97  100 99 97 101  80 87 97 102  85 97 101 103  85 97 102 103  85 87 97 102  104 97 101 105  104 97 101 103  104 97 102 103  100 97 101 105  68 95 107 106  0 4 8 106  0 4 107 106  0 95 107 106  5 8 9 106  5 4 8 106  5 4 107 106  10 8 9 106  68 95 94 106  0 8 29 106  0 29 94 106  0 95 94 106  27 8 31 106  27 8 29 106  27 29 94 106  10 8 31 106  68 69 94 106  70 106 96 108  70 94 106 96  70 69 94 106  27 31 106 108  27 106 96 108  27 94 106 96  10 31 106 108  68 69 98 106  70 106 99 108  70 98 106 99  70 69 98 106  100 106 108 109  100 106 99 108  100 98 106 99  10 106 108 109  76 77 78 110  73 74 111 110  73 74 77 110  73 77 78 110  70 112 111 110  70 74 111 110  70 74 77 110  113 112 111 110  76 78 110 114  73 111 115 110  73 115 110 114  73 78 110 114  116 111 110 117  116 111 115 110  116 115 110 114  113 111 110 117  76 110 114 118  119 110 120 121  119 110 114 121  119 110 114 118  116 110 117 120  116 110 120 121  116 110 114 121  113 110 117 120  76 77 84 110  85 86 110 122  85 77 86 110  85 77 84 110  70 112 110 122  70 86 110 122  70 77 86 110  113 112 110 122  76 110 118 123  119 110 120 124  119 110 123 124  119 110 118 123  125 110 120 126  125 110 120 124  125 110 123 124  113 110 120 126  76 84 110 123  85 110 122 127  85 110 123 127  85 84 110 123  125 110 122 126  125 110 122 127  125 110 123 127  113 110 122 126  73 92 93 128  20 26 39 128  20 26 92 128  20 92 93 128  27 39 43 128  27 26 39 128  27 26 92 128  41 39 43 128  73 93 128 129  20 34 39 128  20 34 128 129  20 93 128 129  35 39 40 128  35 34 39 128  35 34 128 129  41 39 40 128  73 115 128 129  116 128 130 131  116 128 129 131  116 115 128 129  35 40 128 130  35 128 130 131  35 128 129 131  41 40 128 130  73 74 92 128  70 96 132 128  70 96 92 128  70 74 92 128  27 43 132 128  27 96 132 128  27 96 92 128  41 43 132 128  73 111 115 128  116 128 117 130  116 111 128 117  116 111 115 128  113 128 133 130  113 128 117 130  113 111 128 117  41 128 133 130  73 74 111 128  70 112 132 128  70 112 111 128  70 74 111 128  113 132 128 133  113 112 132 128  113 112 111 128  41 132 128 133  85 86 101 134  70 99 135 134  70 99 101 134  70 86 101 134  100 135 134 136  100 99 135 134  100 99 101 134  137 135 134 136  85 86 122 134  70 112 135 134  70 112 122 134  70 86 122 134  113 135 134 138  113 112 135 134  113 112 122 134  137 135 134 138  85 122 127 134  125 134 126 139  125 122 134 126  125 122 127 134  113 134 138 139  113 134 126 139  113 122 134 126  137 134 138 139  85 101 103 134  104 101 134 105  104 101 103 134  100 101 134 105  85 127 134 140  125 134 139 141  125 134 140 141  125 127 134 140  142 134 139 143  142 134 139 141  142 134 140 141  137 134 139 143  85 103 134 140  104 134 140 144  104 103 134 140  142 134 140 144  70 96 108 145  27 31 47 145  27 31 108 145  27 96 108 145  10 47 51 145  10 31 47 145  10 31 108 145  49 47 51 145  70 96 132 145  27 43 47 145  27 43 132 145  27 96 132 145  41 47 48 145  41 43 47 145  41 43 132 145  49 47 48 145  70 112 132 145  113 145 133 146  113 132 145 133  113 112 132 145  41 48 145 146  41 145 133 146  41 132 145 133  49 48 145 146  70 99 108 145  100 145 109 147  100 108 145 109  100 99 108 145  10 51 145 147  10 145 109 147  10 108 145 109  49 51 145 147  70 112 135 145  113 145 138 146  113 135 145 138  113 112 135 145  137 145 146 148  137 145 138 146  137 135 145 138  49 145 146 148  70 99 135 145  100 145 136 147  100 135 145 136  100 99 135 145  137 145 147 148  137 145 136 147  137 135 145 136  49 145 147 148  119 120 121 149  116 117 150 149  116 117 120 149  116 120 121 149  113 151 150 149  113 117 150 149  113 117 120 149  119 121 149 152  116 150 153 149  116 153 149 152  116 121 149 152  119 149 152 154  119 120 124 149  125 126 149 155  125 120 126 149  125 120 124 149  113 151 149 155  113 126 149 155  113 120 126 149  119 149 154 156  119 124 149 156  125 149 155 157  125 149 156 157  125 124 149 156  116 130 131 158  35 54 40 158  35 40 130 158  35 130 131 158  41 54 55 158  41 54 40 158  41 40 130 158  116 131 158 159  35 131 158 159  116 153 158 159  116 117 130 158  113 133 160 158  113 133 130 158  113 117 130 158  41 55 160 158  41 133 160 158  41 133 130 158  116 150 153 158  116 117 150 158  113 151 160 158  113 151 150 158  113 117 150 158  125 126 139 161  113 138 162 161  113 138 139 161  113 126 139 161  137 138 162 161  137 138 139 161  125 126 155 161  113 151 162 161  113 151 155 161  113 126 155 161  125 155 157 161  125 139 141 161  142 139 161 143  142 139 141 161  137 139 161 143  125 157 161 163  125 141 161 163  142 161 163 164  142 141 161 163  113 133 146 165  41 48 58 165  41 48 146 165  41 133 146 165  49 58 59 165  49 48 58 165  49 48 146 165  113 133 160 165  41 55 58 165  41 55 160 165  41 133 160 165  113 151 160 165  113 138 146 165  137 146 165 148  137 138 146 165  49 146 165 148  113 151 162 165  113 138 162 165  137 138 162 165  80 82 97 166  68 98 97 167  68 97 166 167  68 82 97 166  168 98 97 169  168 98 97 167  168 97 166 167  100 98 97 169  80 97 166 170  171 97 173 172  171 97 166 173  171 97 166 170  168 97 169 172  168 97 173 172  168 97 166 173  100 97 169 172  80 97 102 170  171 97 172 174  171 97 102 174  171 97 102 170  104 97 105 172  104 97 172 174  104 97 102 174  100 97 105 172  68 107 106 167  168 106 176 175  168 107 106 176  168 107 106 167  5 9 106 175  5 106 176 175  5 107 106 176  10 9 106 175  68 98 106 167  168 106 169 175  168 98 106 169  168 98 106 167  100 106 109 175  100 106 169 175  100 98 106 169  10 106 109 175  171 173 178 177  168 173 178 177  171 173 172 177  168 169 172 177  168 173 172 177  100 169 172 177  171 172 174 177  104 105 172 177  104 172 174 177  100 105 172 177  168 176 180 179  5 176 180 179  168 176 175 179  5 9 175 179  5 176 175 179  10 9 175 179  168 169 175 179  100 109 175 179  100 169 175 179  10 109 175 179  171 178 177 181  171 174 177 182  104 174 177 182  171 177 181 182  </DataArray>
<DataArray  type="UInt32"  Name="offsets"  format="ascii">4 8 12 16 20 24 28 32 36 40 44 48 52 56 60 64 68 72 76 80 84 88 92 96 100 104 108 112 116 120 124 128 132 136 140 144 148 152 156 160 164 168 172 176 180 184 188 192 196 200 204 208 212 216 220 224 228 232 236 240 244 248 252 256 260 264 268 272 276 280 284 288 292 296 300 304 308 312 316 320 324 328 332 336 340 344 348 352 356 360 364 368 372 376 380 384 388 392 396 400 404 408 412 416 420 424 428 432 436 440 444 448 452 456 460 464 468 472 476 480 484 488 492 496 500 504 508 512 516 520 524 528 532 536 540 544 548 552 556 560 564 568 572 576 580 584 588 592 596 600 604 608 612 616 620 624 628 632 636 640 644 648 652 656 660 664 668 672 676 680 684 688 692 696 700 704 708 712 716 720 724 728 732 736 740 744 748 752 756 760 764 768 772 776 780 784 788 792 796 800 804 808 812 816 820 824 828 832 836 840 844 848 852 856 860 864 868 872 876 880 884 888 892 896 900 904 908 912 916 920 924 928 932 936 940 944 948 952 956 960 964 968 972 976 980 984 988 992 996 1000 1004 1008 1012 1016 1020 1024 1028 1032 1036 1040 1044 1048 1052 1056 1060 1064 1068 1072 1076 1080 1084 1088 1092 1096 1100 1104 1108 1112 1116 1120 1124 1128 1132 1136 1140 1144 1148 1152 1156 1160 1164 1168 1172 1176 1180 1184 1188 1192 1196 1200 1204 1208 1212 1216 1220 1224 1228 1232 1236 1240 1244 1248 1252 1256 1260 1264 1268 1272 1276 1280 1284 1288 1292 1296 1300 1304 1308 1312 1316 1320 1324 1328 1332 1336 1340 1344 1348 1352 1356 1360 1364 1368 1372 1376 1380 1384 1388 1392 1396 1400 1404 1408 1412 1416 1420 1424 1428 1432 1436 1440 1444 1448 1452 1456 1460 1464 1468 1472 1476 1480 1484 1488 1492 1496 1500 1504 1508 1512 1516 1520 1524 1528 1532 1536 1540 1544 1548 1552 1556 1560 1564 1568 1572 1576 1580 1584 1588 1592 1596 1600 1604 1608 1612 1616 1620 1624 1628 1632 1636 1640 1644 1648 1652 1656 1660 1664 1668 1672 1676 1680 1684 1688 1692 1696 1700 1704 1708 1712 1716 1720 1724 1728 1732 1736 1740 1744 1748 1752 1756 1760 1764 1768 1772 1776 1780 1784 1788 1792 1796 1800 1804 1808 1812 1816 1820 1824 1828 1832 1836 1840 1844 1848 1852 1856 1860 1864 1868 1872 1876 1880 1884 1888 1892 1896 1900 1904 1908 1912 1916 1920 1924 1928 1932 1936 1940 1944 1948 1952 1956 1960 1964 1968 1972 1976 1980 1984 1988 1992 1996 2000 2004 2008 2012 2016 2020 2024 2028 2032 2036 2040 2044 2048 2052 2056 2060 2064 2068 2072 2076 2080 2084 2088 2092 2096 2100 2104 2108 2112 2116 2120 2124 2128 2132 2136 2140 2144 2148 2152 2156 2160 2164 2168 2172 2176 2180 2184 2188 2192 2196 2200 2204 2208 2212 2216 2220 2224 2228 2232 2236 2240 2244 2248 2252 2256 2260 2264 2268 2272 2276 2280 2284 2288 2292 2296 2300 2304 2308 2312 2316 2320 2324 2328 2332 2336 2340 2344 2348 2352 2356 2360 2364 2368 2372 2376 2380 2384 2388 2392 2396 2400 2404 2408 2412 2416 2420 2424 2428 2432 </DataArray>
<DataArray  type="UInt8"  Name="types"  format="ascii">10 10 10 10 10 10 10 10 10 10 10 10 10 10 10 10 10 10 10 10 10 10 10 10 10 10 10 10 10 10 10 10 10 10 10 10 10 10 10 10 10 10 10 10 10 10 10 10 10 10 10 10 10 10 10 10 10 10 10 10 10 10 10 10 10 10 10 10 10 10 10 10 10 10 10 10 10 10 10 10 10 10 10 10 10 10 10 10 10 10 10 10 10 10 10 10 10 10 10 10 10 10 10 10 10 10 10 10 10 10 10 10 10 10 10 10 10 10 10 10 10 10 10 10 10 10 10 10 10 10 10 10 10 10 10 10 10 10 10 10 10 10 10 10 10 10 10 10 10 10 10 10 10 10 10 10 10 10 10 10 10 10 10 10 10 10 10 10 10 10 10 10 10 10 10 10 10 10 10 10 10 10 10 10 10 10 10 10 10 10 10 10 10 10 10 10 10 10 10 10 10 10 10 10 10 10 10 10 10 10 10 10 10 10 10 10 10 10 10 10 10 10 10 10 10 10 10 10 10 10 10 10 10 10 10 10 10 10 10 10 10 10 10 10 10 10 10 10 10 10 10 10 10 10 10 10 10 10 10 10 10 10 10 10 10 10 10 10 10 10 10 10 10 10 10 10 10 10 10 10 10 10 10 10 10 10 10 10 10 10 10 10 10 10 10 10 10 10 10 10 10 10 10 10 10 10 10 10 10 10 10 10 10 10 10 10 10 10 10 10 10 10 10 10 10 10 10 10 10 10 10 10 10 10 10 10 10 10 10 10 10 10 10 10 10 10 10 10 10 10 10 10 10 10 10 10 10 10 10 10 10 10 10 10 10 10 10 10 10 10 10 10 10 10 10 10 10 10 10 10 10 10 10 10 10 10 10 10 10 10 10 10 10 10 10 10 10 10 10 10 10 10 10 10 10 10 10 10 10 10 10 10 10 10 10 10 10 10 10 10 10 10 10 10 10 10 10 10 10 10 10 10 10 10 10 10 10 10 10 10 10 10 10 10 10 10 10 10 10 10 10 10 10 10 10 10 10 10 10 10 10 10 10 10 10 10 10 10 10 10 10 10 10 10 10 10 10 10 10 10 10 10 10 10 10 10 10 10 10 10 10 10 10 10 10 10 10 10 10 10 10 10 10 10 10 10 10 10 10 10 10 10 10 10 10 10 10 10 10 10 10 10 10 10 10 10 10 10 10 10 10 10 10 10 10 10 10 10 10 10 10 10 10 10 10 10 10 10 10 10 10 10 10 10 10 10 10 10 10 10 10 10 10 10 10 10 10 10 10 10 10 10 10 10 10 10 10 10 10 10 10 10 10 10 10 10 10 10 10 10 10 10 10 10 10 10 10 10 10 10 10 10 10 10 10 10 10 10 </DataArray>
</Cells>
<PointData  Scalars="p_O2"> 
<DataArray  type="Float64"  Name="p_O2"  format="ascii">9.9108606914110908e+01  9.0725432690742451e+01  9.9151643587897624e+01  9.9348811666529969e+01  9.8870257725336643e+01  9.8741933736160220e+01  8.9483748604827710e+01  9.9038338941760117e+01  8.7774148763303259e+01  8.6379050368078509e+01  7.6480653123076365e+01  8.1465457226541730e+01  8.9083045998856718e+01  9.9002114421663592e+01  9.9950991223395576e+01  9.5947966334985892e+01  9.9628792325819504e+01  9.9965707692644472e+01  9.9628792326333979e+01  9.9479331691146683e+01  9.9108606914131613e+01  9.2887023040828041e+01  9.9348811665973187e+01  9.9479331691114609e+01  9.2887023041295151e+01  9.4384142037960714e+01  9.0381064127780235e+01  8.3474383213767894e+01  8.7495522408274553e+01  9.0381064128557711e+01  8.3671866053306786e+01  7.8931970490321532e+01  9.0725432685185439e+01  9.9151643585633906e+01  9.8870257725230587e+01  9.8741933738386848e+01  8.9483748597879895e+01  9.9038338939609034e+01  8.3671866044551422e+01  8.7774148761133858e+01  8.6379050362070643e+01  7.6480653115888899e+01  8.1465457222322385e+01  7.8931970487328670e+01  7.8645083683728430e+01  7.5730338083259511e+01  7.5730338078383127e+01  7.3055546154420853e+01  6.9856130014871553e+01  6.6227576007935212e+01  7.2394172674366331e+01  6.9856130019391088e+01  8.9083045982097204e+01  8.0752246557018751e+01  8.5947983832589557e+01  7.5718477767969105e+01  7.4786568144086758e+01  7.1310907422093436e+01  6.8856030371467099e+01  6.5087175964358508e+01  7.0182856751854857e+01  3.9999999999986215e+01  7.2627148520583134e+01  9.9425321674040291e+01  9.9712228040870258e+01  9.9678995135467417e+01  8.6035252421200298e+01  9.8592213934279656e+01  9.7788001331763155e+01  7.9149414400549915e+01  6.8380592870207437e+01  9.9425321674343323e+01  9.8592213935244288e+01  9.7788001331098286e+01  7.9149414400739474e+01  3.9999999999986215e+01  3.9999999999986215e+01  6.4846876227976168e+01  9.5732091665938668e+01  3.9999999999986215e+01  3.9999999999986215e+01  6.4846876227823955e+01  9.5732091666463361e+01  3.9999999999986215e+01  3.9999999999986215e+01  3.9999999999986215e+01  5.4935326916800790e+01  3.9999999999986215e+01  9.1654100590090010e+01  9.9214463051018043e+01  9.9924469869320987e+01  9.9214463050798912e+01  8.6350105938786697e+01  9.8708196615713561e+01  8.6350105940220715e+01  9.8708196615353756e+01  7.7519961103913047e+01  6.3294581140832392e+01  7.6156488745863925e+01  6.3445154245598992e+01  6.1389443931217286e+01  5.1770086238179815e+01  3.9999999999986215e+01  3.9999999999986215e+01  3.9999999999986215e+01  5.0667041230560500e+01  8.3357218720893172e+01  9.8439542614615107e+01  7.2425541561544136e+01  6.9953434112531511e+01  6.3294581140204372e+01  7.6156488744571604e+01  6.3445154243652929e+01  6.1389443926715693e+01  9.8487900016419971e+01  9.7640268202889871e+01  9.7392083961993620e+01  7.4942875036233175e+01  3.9999999999986215e+01  3.9999999999986215e+01  6.2193325946518939e+01  9.5476918344297516e+01  5.1770086237886680e+01  3.9999999999986215e+01  3.9999999999986215e+01  3.9999999999986215e+01  5.0667041227888120e+01  3.9999999999986215e+01  8.3357218719030215e+01  9.8439542614181931e+01  8.1930890589206143e+01  9.8298550671846854e+01  7.2425541559312265e+01  6.9953434105895084e+01  4.8010852339826975e+01  5.7386649474388840e+01  5.4790507024222123e+01  5.1913272017537885e+01  5.4790507019476038e+01  4.6627991355867557e+01  3.9999999999986215e+01  3.9999999999986215e+01  3.9999999999986215e+01  4.5117827076883998e+01  3.9999999999986215e+01  6.5989996529373627e+01  6.2810406439469503e+01  6.2810406444891825e+01  5.9244611095062268e+01  6.2469222563045065e+01  7.4625816174777768e+01  6.0829533486467312e+01  9.8410172605071665e+01  9.7498077775166706e+01  3.9999999999986215e+01  5.0385493931791615e+01  3.9999999999986215e+01  3.9999999999986215e+01  8.1515052350259026e+01  9.8270082705562416e+01  6.9227581028173532e+01  4.6275450713041678e+01  5.4071020710531528e+01  3.9999999999986215e+01  3.9999999999986215e+01  6.1870299681423305e+01  9.8487900016292741e+01  9.7640268203675078e+01  9.7392083961757010e+01  7.4942875039487504e+01  3.9999999999986215e+01  3.9999999999986215e+01  6.2193325947786143e+01  9.5476918345202947e+01  3.9999999999986215e+01  8.1930890592737143e+01  9.8298550672980014e+01  6.2469222563786040e+01  9.8410172605599911e+01  8.1515052354536692e+01  9.8270082704793580e+01  3.9999999999986215e+01  3.9999999999986215e+01  </DataArray> 
</PointData> 
</Piece>
</UnstructuredGrid>
</VTKFile>