<?xml version="1.0"?>
<VTKFile type="UnstructuredGrid"  version="0.1"  >
<UnstructuredGrid>
<Piece  NumberOfPoints="12167" NumberOfCells="63888">
<Points>
<DataArray  type="Float64"  NumberOfComponents="3"  format="ascii">0 0 0  0.2272727272727273 0 0  0.4545454545454545 0 0  0.6818181818181818 0 0  0.9090909090909091 0 0  1.136363636363636 0 0  1.363636363636364 0 0  1.590909090909091 0 0  1.818181818181818 0 0  2.045454545454545 0 0  2.272727272727273 0 0  2.5 0 0  2.727272727272727 0 0  2.954545454545455 0 0  3.181818181818182 0 0  3.409090909090909 0 0  3.636363636363636 0 0  3.863636363636364 0 0  4.090909090909091 0 0  4.318181818181818 0 0  4.545454545454546 0 0  4.772727272727272 0 0  5 0 0  0 0.2272727272727273 0  0.2272727272727273 0.2272727272727273 0  0.4545454545454545 0.2272727272727273 0  0.6818181818181818 0.2272727272727273 0  0.9090909090909091 0.2272727272727273 0  1.136363636363636 0.2272727272727273 0  1.363636363636364 0.2272727272727273 0  1.590909090909091 0.2272727272727273 0  1.818181818181818 0.2272727272727273 0  2.045454545454545 0.2272727272727273 0  2.272727272727273 0.2272727272727273 0  2.5 0.2272727272727273 0  2.727272727272727 0.2272727272727273 0  2.954545454545455 0.2272727272727273 0  3.181818181818182 0.2272727272727273 0  3.409090909090909 0.2272727272727273 0  3.636363636363636 0.2272727272727273 0  3.863636363636364 0.2272727272727273 0  4.090909090909091 0.2272727272727273 0  4.318181818181818 0.2272727272727273 0  4.545454545454546 0.2272727272727273 0  4.772727272727272 0.2272727272727273 0  5 0.2272727272727273 0  0 0.4545454545454545 0  0.2272727272727273 0.4545454545454545 0  0.4545454545454545 0.4545454545454545 0  0.6818181818181818 0.4545454545454545 0  0.9090909090909091 0.4545454545454545 0  1.136363636363636 0.4545454545454545 0  1.363636363636364 0.4545454545454545 0  1.590909090909091 0.4545454545454545 0  1.818181818181818 0.4545454545454545 0  2.045454545454545 0.4545454545454545 0  2.272727272727273 0.4545454545454545 0  2.5 0.4545454545454545 0  2.727272727272727 0.4545454545454545 0  2.954545454545455 0.4545454545454545 0  3.181818181818182 0.4545454545454545 0  3.409090909090909 0.4545454545454545 0  3.636363636363636 0.4545454545454545 0  3.863636363636364 0.4545454545454545 0  4.090909090909091 0.4545454545454545 0  4.318181818181818 0.4545454545454545 0  4.545454545454546 0.4545454545454545 0  4.772727272727272 0.4545454545454545 0  5 0.4545454545454545 0  0 0.6818181818181818 0  0.2272727272727273 0.6818181818181818 0  0.4545454545454545 0.6818181818181818 0  0.6818181818181818 0.6818181818181818 0  0.9090909090909091 0.6818181818181818 0  1.136363636363636 0.6818181818181818 0  1.363636363636364 0.6818181818181818 0  1.590909090909091 0.6818181818181818 0  1.818181818181818 0.6818181818181818 0  2.045454545454545 0.6818181818181818 0  2.272727272727273 0.6818181818181818 0  2.5 0.6818181818181818 0  2.727272727272727 0.6818181818181818 0  2.954545454545455 0.6818181818181818 0  3.181818181818182 0.6818181818181818 0  3.409090909090909 0.6818181818181818 0  3.636363636363636 0.6818181818181818 0  3.863636363636364 0.6818181818181818 0  4.090909090909091 0.6818181818181818 0  4.318181818181818 0.6818181818181818 0  4.545454545454546 0.6818181818181818 0  4.772727272727272 0.6818181818181818 0  5 0.6818181818181818 0  0 0.9090909090909091 0  0.2272727272727273 0.9090909090909091 0  0.4545454545454545 0.9090909090909091 0  0.6818181818181818 0.9090909090909091 0  0.9090909090909091 0.9090909090909091 0  1.136363636363636 0.9090909090909091 0  1.363636363636364 0.9090909090909091 0  1.590909090909091 0.9090909090909091 0  1.818181818181818 0.9090909090909091 0  2.045454545454545 0.9090909090909091 0  2.272727272727273 0.9090909090909091 0  2.5 0.9090909090909091 0  2.727272727272727 0.9090909090909091 0  2.954545454545455 0.9090909090909091 0  3.181818181818182 0.9090909090909091 0  3.409090909090909 0.9090909090909091 0  3.636363636363636 0.9090909090909091 0  3.863636363636364 0.9090909090909091 0  4.090909090909091 0.9090909090909091 0  4.318181818181818 0.9090909090909091 0  4.545454545454546 0.9090909090909091 0  4.772727272727272 0.9090909090909091 0  5 0.9090909090909091 0  0 1.136363636363636 0  0.2272727272727273 1.136363636363636 0  0.4545454545454545 1.136363636363636 0  0.6818181818181818 1.136363636363636 0  0.9090909090909091 1.136363636363636 0  1.136363636363636 1.136363636363636 0  1.363636363636364 1.136363636363636 0  1.590909090909091 1.136363636363636 0  1.818181818181818 1.136363636363636 0  2.045454545454545 1.136363636363636 0  2.272727272727273 1.136363636363636 0  2.5 1.136363636363636 0  2.727272727272727 1.136363636363636 0  2.954545454545455 1.136363636363636 0  3.181818181818182 1.136363636363636 0  3.409090909090909 1.136363636363636 0  3.636363636363636 1.136363636363636 0  3.863636363636364 1.136363636363636 0  4.090909090909091 1.136363636363636 0  4.318181818181818 1.136363636363636 0  4.545454545454546 1.136363636363636 0  4.772727272727272 1.136363636363636 0  5 1.136363636363636 0  0 1.363636363636364 0  0.2272727272727273 1.363636363636364 0  0.4545454545454545 1.363636363636364 0  0.6818181818181818 1.363636363636364 0  0.9090909090909091 1.363636363636364 0  1.136363636363636 1.363636363636364 0  1.363636363636364 1.363636363636364 0  1.590909090909091 1.363636363636364 0  1.818181818181818 1.363636363636364 0  2.045454545454545 1.363636363636364 0  2.272727272727273 1.363636363636364 0  2.5 1.363636363636364 0  2.727272727272727 1.363636363636364 0  2.954545454545455 1.363636363636364 0  3.181818181818182 1.363636363636364 0  3.409090909090909 1.363636363636364 0  3.636363636363636 1.363636363636364 0  3.863636363636364 1.363636363636364 0  4.090909090909091 1.363636363636364 0  4.318181818181818 1.363636363636364 0  4.545454545454546 1.363636363636364 0  4.772727272727272 1.363636363636364 0  5 1.363636363636364 0  0 1.590909090909091 0  0.2272727272727273 1.590909090909091 0  0.4545454545454545 1.590909090909091 0  0.6818181818181818 1.590909090909091 0  0.9090909090909091 1.590909090909091 0  1.136363636363636 1.590909090909091 0  1.363636363636364 1.590909090909091 0  1.590909090909091 1.590909090909091 0  1.818181818181818 1.590909090909091 0  2.045454545454545 1.590909090909091 0  2.272727272727273 1.590909090909091 0  2.5 1.590909090909091 0  2.727272727272727 1.590909090909091 0  2.954545454545455 1.590909090909091 0  3.181818181818182 1.590909090909091 0  3.409090909090909 1.590909090909091 0  3.636363636363636 1.590909090909091 0  3.863636363636364 1.590909090909091 0  4.090909090909091 1.590909090909091 0  4.318181818181818 1.590909090909091 0  4.545454545454546 1.590909090909091 0  4.772727272727272 1.590909090909091 0  5 1.590909090909091 0  0 1.818181818181818 0  0.2272727272727273 1.818181818181818 0  0.4545454545454545 1.818181818181818 0  0.6818181818181818 1.818181818181818 0  0.9090909090909091 1.818181818181818 0  1.136363636363636 1.818181818181818 0  1.363636363636364 1.818181818181818 0  1.590909090909091 1.818181818181818 0  1.818181818181818 1.818181818181818 0  2.045454545454545 1.818181818181818 0  2.272727272727273 1.818181818181818 0  2.5 1.818181818181818 0  2.727272727272727 1.818181818181818 0  2.954545454545455 1.818181818181818 0  3.181818181818182 1.818181818181818 0  3.409090909090909 1.818181818181818 0  3.636363636363636 1.818181818181818 0  3.863636363636364 1.818181818181818 0  4.090909090909091 1.818181818181818 0  4.318181818181818 1.818181818181818 0  4.545454545454546 1.818181818181818 0  4.772727272727272 1.818181818181818 0  5 1.818181818181818 0  0 2.045454545454545 0  0.2272727272727273 2.045454545454545 0  0.4545454545454545 2.045454545454545 0  0.6818181818181818 2.045454545454545 0  0.9090909090909091 2.045454545454545 0  1.136363636363636 2.045454545454545 0  1.363636363636364 2.045454545454545 0  1.590909090909091 2.045454545454545 0  1.818181818181818 2.045454545454545 0  2.045454545454545 2.045454545454545 0  2.272727272727273 2.045454545454545 0  2.5 2.045454545454545 0  2.727272727272727 2.045454545454545 0  2.954545454545455 2.045454545454545 0  3.181818181818182 2.045454545454545 0  3.409090909090909 2.045454545454545 0  3.636363636363636 2.045454545454545 0  3.863636363636364 2.045454545454545 0  4.090909090909091 2.045454545454545 0  4.318181818181818 2.045454545454545 0  4.545454545454546 2.045454545454545 0  4.772727272727272 2.045454545454545 0  5 2.045454545454545 0  0 2.272727272727273 0  0.2272727272727273 2.272727272727273 0  0.4545454545454545 2.272727272727273 0  0.6818181818181818 2.272727272727273 0  0.9090909090909091 2.272727272727273 0  1.136363636363636 2.272727272727273 0  1.363636363636364 2.272727272727273 0  1.590909090909091 2.272727272727273 0  1.818181818181818 2.272727272727273 0  2.045454545454545 2.272727272727273 0  2.272727272727273 2.272727272727273 0  2.5 2.272727272727273 0  2.727272727272727 2.272727272727273 0  2.954545454545455 2.272727272727273 0  3.181818181818182 2.272727272727273 0  3.409090909090909 2.272727272727273 0  3.636363636363636 2.272727272727273 0  3.863636363636364 2.272727272727273 0  4.090909090909091 2.272727272727273 0  4.318181818181818 2.272727272727273 0  4.545454545454546 2.272727272727273 0  4.772727272727272 2.272727272727273 0  5 2.272727272727273 0  0 2.5 0  0.2272727272727273 2.5 0  0.4545454545454545 2.5 0  0.6818181818181818 2.5 0  0.9090909090909091 2.5 0  1.136363636363636 2.5 0  1.363636363636364 2.5 0  1.590909090909091 2.5 0  1.818181818181818 2.5 0  2.045454545454545 2.5 0  2.272727272727273 2.5 0  2.5 2.5 0  2.727272727272727 2.5 0  2.954545454545455 2.5 0  3.181818181818182 2.5 0  3.409090909090909 2.5 0  3.636363636363636 2.5 0  3.863636363636364 2.5 0  4.090909090909091 2.5 0  4.318181818181818 2.5 0  4.545454545454546 2.5 0  4.772727272727272 2.5 0  5 2.5 0  0 2.727272727272727 0  0.2272727272727273 2.727272727272727 0  0.4545454545454545 2.727272727272727 0  0.68181818181
[...]
<PointData  Vectors="u"> 
<DataArray  type="Float64"  Name="u"  NumberOfComponents="3" format="ascii">2.0000002021825426e+02 2.9083771115454221e-05 2.9083354870599641e-05  1.9996523450427142e+02 4.8768021613583019e-05 4.8767939943286076e-05  1.9993091496901519e+02 6.8953271861369573e-05 6.8952841266972466e-05  1.9989750487305079e+02 8.7652002070018236e-05 8.7651555310080625e-05  1.9986540305836346e+02 1.0303325094304931e-04 1.0303320460086662e-04  1.9983495097362635e+02 1.1468203786410502e-04 1.1468198397680709e-04  1.9980642049856240e+02 1.2246118127678967e-04 1.2246112251017673e-04  1.9978000874004221e+02 1.2649113431834196e-04 1.2649079889509267e-04  1.9975583846196491e+02 1.2711467133411772e-04 1.2711444274692249e-04  1.9973396322375029e+02 1.2483338411863285e-04 1.2483327076351477e-04  1.9971437605040251e+02 1.2023513743084283e-04 1.2023563102661630e-04  1.9969702030644603e+02 1.1393848836362297e-04 1.1393920299589166e-04  1.9968180152816061e+02 1.0653919100338367e-04 1.0653930963676278e-04  1.9966859915783039e+02 9.8576425753771335e-05 9.8576831962369439e-05  1.9965727743533341e+02 9.0514389299481928e-05 9.0514770532356136e-05  1.9964769494203125e+02 8.2731305290176824e-05 8.2731202464808988e-05  1.9963971258688991e+02 7.5526056149586847e-05 7.5526150187240135e-05  1.9963320001339181e+02 6.9108138484052313e-05 6.9108340767128250e-05  1.9962804052878954e+02 6.3706418046650902e-05 6.3706235021767580e-05  1.9962413469719527e+02 5.9221527868781002e-05 5.9221735006563900e-05  1.9962140274552689e+02 5.5250095223514127e-05 5.5250270372915762e-05  1.9961978982768522e+02 6.0703240722668380e-05 6.0703249850750378e-05  1.9961924529513743e+02 1.4634190987258314e-05 1.4634244637725212e-05  2.0000003850117793e+02 1.7602756149983551e-02 7.4883327083682643e-05  1.9996512665176337e+02 1.7493559846031573e-02 7.6547945092791649e-05  1.9993068921745407e+02 1.7160069357490985e-02 9.2483744182008499e-05  1.9989717194175597e+02 1.6609559486778919e-02 1.0661977962607033e-04  1.9986497786062910e+02 1.5867146042282964e-02 1.1742499930830937e-04  1.9983445178512741e+02 1.4965912814053605e-02 1.2485273779530009e-04  1.9980586711580267e+02 1.3943079200894097e-02 1.2886906485826033e-04  1.9977942098458485e+02 1.2837185459212338e-02 1.2966702311081792e-04  1.9975523489095539e+02 1.1685376200734109e-02 1.2761604312527076e-04  1.9973336015337722e+02 1.0521219545825879e-02 1.2320310577836654e-04  1.9971378693455824e+02 9.3732065670103400e-03 1.1697298221532924e-04  1.9969645546101012e+02 8.2639294949844854e-03 1.0947722987806482e-04  1.9968126813269484e+02 7.2098699630355799e-03 1.0123413188705683e-04  1.9966810147754254e+02 6.2216580820027142e-03 9.2703231647799856e-05  1.9965681717153024e+02 5.3046618102487340e-03 8.4269765671508430e-05  1.9964727164513914e+02 4.4597452790057874e-03 7.6239154807622789e-05  1.9963932408549340e+02 3.6840955894958081e-03 6.8846352912422956e-05  1.9963284280950808e+02 2.9720156400032593e-03 6.2249808623230163e-05  1.9962771012550786e+02 2.3156581848501018e-03 5.6595350744309013e-05  1.9962382592448822e+02 1.7054598869045805e-03 5.1767618762226746e-05  1.9962111017487041e+02 1.1315075999398497e-03 4.8186914363397954e-05  1.9961950654757018e+02 5.8168128245744992e-04 4.8499167680556747e-05  1.9961895926106953e+02 3.5947307263890987e-05 1.5025462332288447e-05  2.0000006483171308e+02 3.6006322781577171e-02 1.3153277660009393e-04  1.9996478397729203e+02 3.5760397896964467e-02 1.2423863680841564e-04  1.9992999950702293e+02 3.5048278660351068e-02 1.3775590435610333e-04  1.9989616905019895e+02 3.3883983217837803e-02 1.4889852397786501e-04  1.9986370794286134e+02 3.2324276245165852e-02 1.5619985374874673e-04  1.9983296998595509e+02 3.0440075213924885e-02 1.5993881589273476e-04  1.9980423259009976e+02 2.8310615925803351e-02 1.6018571773241278e-04  1.9977769243152841e+02 2.6017278369552501e-02 1.5726634566406417e-04  1.9975346675049627e+02 2.3637775263549456e-02 1.5165303330708359e-04  1.9973159981200291e+02 2.1241638415681257e-02 1.4390402983128394e-04  1.9971207302525431e+02 1.8887206634395991e-02 1.3460937348731526e-04  1.9969481717925697e+02 1.6620105166107804e-02 1.2434104309022120e-04  1.9967972539137671e+02 1.4473007825231386e-02 1.1361938968062530e-04  1.9966666566127324e+02 1.2466374267802584e-02 1.0288706345686278e-04  1.9965549224774861e+02 1.0609819933654233e-02 9.2509318868201908e-05  1.9964605543807258e+02 8.9038131830834789e-03 8.2756930549622037e-05  1.9963820954251489e+02 7.3414561297829670e-03 7.3832028381528837e-05  1.9963181916486027e+02 5.9101480274514704e-03 6.5852918201394996e-05  1.9962676389208289e+02 4.5930801716171912e-03 5.8931916695486184e-05  1.9962294176076759e+02 3.3704061003043675e-03 5.2954866285697271e-05  1.9962027129289902e+02 2.2201252352511548e-03 4.8060794066314341e-05  1.9961869544488874e+02 1.1209676469247447e-03 4.7208252685090936e-05  1.9961816028378502e+02 3.3245097448681697e-05 1.6101743453638324e-05  2.0000009623923557e+02 5.6095383267074590e-02 1.9050354815764494e-04  1.9996416662477517e+02 5.5691101411652857e-02 1.7248680509199363e-04  1.9992877041163686e+02 5.4537248623295592e-02 1.8252921034126758e-04  1.9989439049012802e+02 5.2658642956092239e-02 1.8995338852124827e-04  1.9986146473271378e+02 5.0151586063395315e-02 1.9313617462010581e-04  1.9983036237780556e+02 4.7134345373347153e-02 1.9267605307848537e-04  1.9980136725433127e+02 4.3738131320305899e-02 1.8877780945893063e-04  1.9977467421287059e+02 4.0096356759396823e-02 1.8190296438402810e-04  1.9975039184736906e+02 3.6334938841721273e-02 1.7261929331103371e-04  1.9972855092904001e+02 3.2565026496727205e-02 1.6154259122198113e-04  1.9970911659822045e+02 2.8878401872028964e-02 1.4928224915715138e-04  1.9969200248113671e+02 2.5345439649101492e-02 1.3640831716358261e-04  1.9967708511608967e+02 2.2015195183253792e-02 1.2341948822088204e-04  1.9966421752565734e+02 1.8917027088657772e-02 1.1072413731955169e-04  1.9965324115995239e+02 1.6063154961704466e-02 9.8642561738044787e-05  1.9964399586997840e+02 1.3451628147079231e-02 8.7408073788202437e-05  1.9963632782781841e+02 1.1069307573011337e-02 7.7173087574842494e-05  1.9963009555046659e+02 8.8945949292602543e-03 6.8014152586647584e-05  1.9962517426019645e+02 6.8997889761242036e-03 6.0009310931030191e-05  1.9962145900167909e+02 5.0528576459248206e-03 5.2966972759898830e-05  1.9961886633768967e+02 3.3190657635958978e-03 4.7156587688182529e-05  1.9961733796344384e+02 1.6634686630154708e-03 4.4783584258312305e-05  1.9961682041131087e+02 3.2819650004025307e-05 1.5206774750013924e-05  2.0000013488587052e+02 7.8784086572246836e-02 2.5261417539390862e-04  1.9996321907324926e+02 7.8185710717516441e-02 2.2217878065659469e-04  1.9992689462038533e+02 7.6486883926411439e-02 2.2757108495112251e-04  1.9989168600778009e+02 7.3730368184495951e-02 2.3023336498154397e-04  1.9985806686880369e+02 7.0065703613266653e-02 2.2833587757040797e-04  1.9982642958096741e+02 6.5674746199623782e-02 2.2286349853924587e-04  1.9979706634360471e+02 6.0757212414690134e-02 2.1419599067795599e-04  1.9977016707521551e+02 5.5513513136251712e-02 2.0294440670015496e-04  1.9974582483340083e+02 5.0129861179582458e-02 1.8976062177504402e-04  1.9972404767960057e+02 4.4767630823937338e-02 1.7528983148204581e-04  1.9970477435269711e+02 3.9557168947430867e-02 1.6013644609386927e-04  1.9968789138450731e+02 3.4595671323852967e-02 1.4483187221905750e-04  1.9967324978677419e+02 2.9948259188007975e-02 1.2981772760115956e-04  1.9966068005449952e+02 2.5651212443322576e-02 1.1544190111830463e-04  1.9965000483092783e+02 2.1716377224031847e-02 1.0195814423114636e-04  1.9964104900185558e+02 1.8135950474239243e-02 8.9534768587129298e-05  1.9963364736811377e+02 1.4887054243589389e-02 7.8270660029575639e-05  1.9962765018424673e+02 1.1935775819251976e-02 6.8187001084326588e-05  1.9962292692389266e+02 9.2405080479682246e-03 5.9315000368707666e-05  1.9961936885211131e+02 6.7544696235603413e-03 5.1413477796179659e-05  1.9961689013344758e+02 4.4276856844239400e-03 4.4817673916414584e-05  1.9961543077113737e+02 2.2099882354006560e-03 4.0868903974656871e-05  1.9961493931862651e+02 3.2314651168535701e-05 1.3819827178984735e-05  2.0000018455676334e+02 1.0509411627875609e-01 3.2095843588977711e-04  1.9996185528781709e+02 1.0424810685429224e-01 2.7591828840479603e-04  1.9992420496836647e+02 1.0184962319020659e-01 2.7525004229865318e-04  1.9988782231155565e+02 9.7971220398134010e-02 2.7178376703978563e-04  1.9985323447490052e+02 9.2837840588223808e-02 2.6350879006211791e-04  1.9982086627738786e+02 8.6720503925981185e-02 2.5190299897532111e-04  1.9979101907196798e+02 7.9912910223070704e-02 2.3757632127163178e-04  1.9976387154757589e+02 7.2704845796120215e-02 2.2130131224495884e-04  1.9973948999849605e+02 6.5360188307813358e-02 2.0380759989752385e-04  1.9971784598899833e+02 5.8102200675053471e-02 1.8574616063699747e-04  1.9969883757073103e+02 5.1106021125634678e-02 1.6767325602845236e-04  1.9968231091812183e+02 4.4497365523346717e-02 1.5003985628787853e-04  1.9966808018204421e+02 3.8355773170636868e-02 1.3319237217788144e-04  1.9965594430937986e+02 3.2720640649243501e-02 1.1738004845199634e-04  1.9964570039862537e+02 2.7598496718403632e-02 1.0276252543986031e-04  1.9963715367536460e+02 2.2970357663311500e-02 8.9425504117707504e-05  1.9963012452188806e+02 1.8798433413151096e-02 7.7392929864491687e-05  1.9962445314334911e+02 1.5031768308008030e-02 6.6623255620241068e-05  1.9962000236006079e+02 1.1610713160055431e-02 5.7097386846569222e-05  1.9961665932474671e+02 8.4701886551235717e-03 4.8515826139147711e-05  1.9961433576168059e+02 5.5419985636148139e-03 4.1277594783803147e-05  1.9961297012820816e+02 2.7581913499344036e-03 3.5804714786505502e-05  1.9961251366139865e+02 3.1650896043962902e-05 1.2096832687879197e-05  2.0000025049568666e+02 1.3621904043968472e-01 4.0037552830304537e-04  1.9995994800809200e+02 1.3504687320445616e-01 3.3729981164327602e-04  1.9992045561478025e+02 1.3172325345362235e-01 3.2849578989743624e-04  1.9988245908669774e+02 1.2636980823096688e-01 3.1688689707506609e-04  1.9984656352700148e+02 1.1932186912037836e-01 3.0031334771541253e-04  1.9981323724736757e+02 1.1097918148614297e-01 2.8090561719637514e-04  1.9978278882595535e+02 1.0176768240584406e-01 2.5957075076064743e-04  1.9975537363690626e+02 9.2098815072646084e-02 2.3728631862844605e-04  1.9973101277506649e+02 8.2337831007963561e-02 2.1483937960800953e-04  1.9970962033290553e+02 7.2784437961366633e-02 1.9284161669760888e-04  1.9969103322588404e+02 6.3664941552336249e-02 1.7174186676171502e-04  1.9967503936025827e+02 5.5133568718372210e-02 1.5184874043385686e-04  1.9966140162447945e+02 4.7279925189918845e-02 1.3335627527661750e-04  1.9964987671543139e+02 4.0139678239272267e-02 1.1636658068537080e-04  1.9964022883964498e+02 3.3706156262241230e-02 1.0090998406757262e-04  1.9963223897214198e+02 2.7941307460623555e-02 8.6959861165173939e-05  1.9962571058466330e+02 2.2785140195122029e-02 7.4447729500195766e-05  1.9962047278856662e+02 1.8163290877535234e-02 6.3257347564789823e-05  1.9961638163490412e+02 1.3992690517774707e-02 5.3313087552142913e-05  1.9961332055388067e+02 1.0185536981047504e-02 4.4256277941988575e-05  1.9961119940931039e+02 6.6517760529728248e-03 3.6545430311955132e-05  1.9960995564022443e+02 3.3026736369451228e-03 2.9610647717513437e-05  1.9960954403523985e+02 3.0573034021284677e-05 9.9694923071809586e-06  2.0000034039334915e+02 1.7362263797338404e-01 4.9845293630816363e-04  1.9995731181970871e+02 1.7200951893146763e-01 4.1196302693169499e-04  1.9991529044275433e+02 1.6743300700729941e-01 3.9190152649020620e-04  1.9987510805762096e+02 1.6009546728308263e-01 3.6908862638239761e-04  1.9983748185913049e+02 1.5049834429065428e-01 3.4128100868762969e-04  1.9980293598142083e+02 1.3923149213761377e-01 3.1152606016276953e-04  1.9977177840996626e+02 1.2691024409043888e-01 2.8116123370875877e-04  1.9974411875100651e+02 1.1411349822101047e-01 2.5139058047486630e-04  1.9971990257433870e+02 1.0133898962396271e-01 2.2302757425596018e-04  1.9969895446990444e+02 8.8979492327632137e-02 1.9656121196451050e-04  1.9968102094399799e+02 7.7317059555929185e-02 1.7223586212019801e-04  1.9966580760206591e+02 6.6530393592537887e-02 1.5012200391497025e-04  1.9965300809740177e+02 5.6709906899798837e-02 1.3017855381367585e-04  1.9964232462198524e+02 4.7875845221145304e-02 1.1229603975384304e-04  1.9963348101593408e+02 3.9996205088832087e-02 9.6324444971823299e-05  1.9962623015638962e+02 3.3002536916750265e-02 8.2092663716708031e-05  1.9962035727566789e+02 2.6802753609268079e-02 6.9419844272122503e-05  1.9961568065333802e+02 2.1290830719467461e-02 5.8103561252906308e-05  1.9961205069358226e+02 1.6353630253421562e-02 4.7995209658366694e-05  1.9960934856153841e+02 1.1875376500130930e-02 3.8686158015914625e-05  1.9960748368373149e+02 7.7400178432063468e-03 3.0684310285690512e-05  1.9960639364786763e+02 3.8347596317195444e-03 2.2373799840102669e-05  1.9960603786228302e+02 2.8885899533742912e-05 7.4940980670234855e-06  2.0000046604570392e+02 2.1918865005527396e-01 6.2712773324592069e-04  1.9995367487692565e+02 2.1696471080719437e-01 5.0864819301828939e-04  1.9990819078773347e+02 2.1065304908663368e-01 4.7238793533182268e-04  1.9986506652635953e+02 2.0059011594560094e-01 4.3350714155497740e-04  1.9982517943840946e+02 1.8753404040310651e-01 3.8985466575026310e-04  1.9978912107817175e+02 1.7236134215321994e-01 3.4583473726673643e-04  1.9975717863055996e+02 1.5596250443412277e-01 3.0339118925397748e-04  1.9972937489980490e+02 1.3914800790653478e-01 2.6397519852455422e-04  1.9970553009287042e+02 1.2258709025043318e-01 2.2832758255776189e-04  1.9968533052515588e+02 1.0678184540114660e-01 1.9665881088920794e-04  1.9966839080069460e+02 9.2069064060790809e-02 1.6884204673263571e-04  1.9965430267672252e+02 7.8639908056650124e-02 1.4455744558599203e-04  1.9964266901016495e+02 6.6568035779967422e-02 1.2340642294607614e-04  1.9963312446825162e+02 5.5839176598179018e-02 1.0497583993444706e-04  1.9962534602796026e+02 4.6377902680809734e-02 8.8874696827857965e-05  1.9961905649345144e+02 3.8069573880202510e-02 7.4746722167045530e-05  1.9961402369577664e+02 3.0776993195466236e-02 6.2275717961378550e-05  1.9961005744546662e+02 2.4352187702388037e-02 5.1157775969561791e-05  1.9960700546394142e+02 1.8644061303543562e-02 4.1171363823206624e-05  1.9960474960888797e+02 1.3502952338816779e-02 3.1855552759545356e-05  1.9960320143457446e+02 8.7824017465244937e-03 2.3766227258154778e-05  1.9960230065733208e+02 4.3422357221490904e-03 1.4194489697780290e-05  1.9960201265354075e+02 2.6369421213334073e-05 4.7134805862306669e-06  2.0000064629677905e+02 2.7545373274052487e-01 8.0550658044991990e-04  1.9994863134566748e+02 2.7236205116713669e-01 6.4109177438454389e-04  1.9989838858110551e+02 2.6359019225869912e-01 5.8047476498212982e-04  1.9985130923410057e+02 2.4970160306190906e-01 5.1754160469980645e-04  1.9980849833746657e+02 2.3186231031546023e-01 4.5063961841071811e-04  1.9977061974336900e+02 2.1139027642817981e-01 3.8625486319691612e-04  1.9973789410189426e+02 1.8958048436786773e-01 3.2716864796396728e-04  1.9971018301172683e+02 1.6756321718484604e-01 2.7502477773373816e-04  1.9968709960684745e+02 1.4622451561051744e-01 2.3024899875269855e-04  1.9966811831801709e+02 1.2618584981306866e-01 1.9247525180554240e-04  1.9965266426263250e+02 1.0782501473090327e-01 1.6090963007446226e-04  1.9964017555526530e+02 9.1319103545146524e-02 1.3459986560832406e-04  1.9963014025813217e+02 7.6694104448662842e-02 1.1260867386957466e-04  1.9962211369548575e+02 6.3871312666939989e-02 9.4098643211797781e-05  1.9961572256060785e+02 5.2705759562807382e-02 7.8359745478776420e-05  1.9961066131928007e+02 4.3015332590045870e-02 6.4808120753189464e-05  1.9960668487958384e+02 3.4601221675833869e-02 5.2965705417526806e-05  1.9960360012712371e+02 2.7261195956016580e-02 4.2422396952301312e-05  1.9960125766396231e+02 2.0797306621480490e-02 3.2879649555569483e-05  1.9959954499642231e+02 1.5019746377183540e-02 2.3830663573179854e-05  1.9959837982890673e+02 9.7473068902052869e-03 1.5872154249968606e-05  1.9959770698116881e+02 4.8094013353900617e-03 5.1857800643930572e-06  1.9959749953818149e+02 2.2818570429275867e-05 1.6739054675030539e-06  2.0000091253150487e+02 3.4598034104742809e-01 1.0651887071328363e-03  1.9994155927478940e+02 3.4162085440115608e-01 8.3152910631330377e-04  1.9988471846837149e+02 3.2926734589489381e-01 7.3252426212536126e-04  1.9983230913081010e+02 3.0987843780064217e-01 6.3199480489306960e-04  1.9978575717669216e+02 2.8528858617493946e-01 5.2969141532526224e-04  1.9974578137227689e+02 2.5751045279567036e-01 4.3535338098743510e-04  1.9971243783477308e+02 2.2843909641841456e-01 3.5283816769737705e-04  1.9968529251337520e+02 1.9964172760327595e-01 2.8369127068710530e-04  1.9966361828020953e+02 1.7226536816492766e-01 2.2747729577819387e-04  1.9964656853370934e+02 1.4704198333135385e-01 1.8265642052358002e-04  1.9963330189875924e+02 1.2435100644011217e-01 1.4725894334419943e-04  1.9962305614252028e+02 1.0430403840672205e-01 1.1932080766178805e-04  1.9961518160062613e+02 8.6828007742427646e-02 9.7110574827279170e-05  1.9960914761665217e+02 7.1734788234759483e-02 7.9206521111009108e-05  1.9960453379289851e+02 5.8773618141407837e-02 6.4494066718079286e-05  1.9960101449782590e+02 4.7667372148381883e-02 5.2116010420713995e-05  1.9959834183022809e+02 3.8135637317048859e-02 4.1422527730963073e-05  1.9959632982978107e+02 2.9907974010842629e-02 3.1893310567933425e-05  1.9959484099576733e+02 2.2730192995259718e-02 2.3161030741314670e-05  1.9959377595900850e+02 1.6366262157911302e-02 1.4683698140501071e-05  1.9959306434964046e+02 1.0596443547409433e-02 7.0986212300204070e-06  1.9959266020956792e+02 5.2174303401716663e-03 -4.5208420566879424e-06  1.9959254656645152e+02 1.8063061870645502e-05 -1.5742025460692492e-06  2.0000131929970496e+02 4.3597538427852356e-01 1.4606180754167331e-03  1.9993147362749150e+02 4.2970243561102267e-01 1.1172835184925104e-03  1.9986535813246707e+02 4.1197210873060081e-01 9.5476752946301686e-04  1.9980573315926657e+02 3.8445629795833247e-01 7.9287207490378112e-04  1.9975446734558071e+02 3.5012275707422175e-01 6.3473646548710644e-04  1.9971225586819284e+02 3.1210168853901676e-01 4.9525307030938133e-04  1.9967878515568651e+02 2.7318173830575226e-01 3.7934013346116257e-04  1.9965308337887066e+02 2.3551069923187476e-01 2.8752206026471983e-04  1.9963386878793568e+02 2.0051828803031882e-01 2.1727691391797005e-04  1.9961981708968028e+02 1.6899303395744661e-01 1.6475226225723429e-04  1.9960972415316303e+02 1.4122864464766399e-01 1.2594135960652470e-04  1.9960257998396915e+02 1.1717930016860338e-01 9.7290007795623967e-05  1.9959758316783797e+02 9.6591768697952857e-02 7.5926005485981181e-05  1.9959412272767145e+02 7.9103917542133639e-02 5.9661417561356995e-05  1.9959174649969077e+02 6.4311236418476789e-02 4.6892492352732787e-05  1.9959012736134679e+02 5.1807806905719560e-02 3.6466092168033879e-05  1.9958903284987696e+02 4.1208881302146311e-02 2.7562035249960186e-05  1.9958830027978931e+02 3.2161174367276751e-02 1.9568464647641506e-05  1.9958781736801603e+02 2.4345307958917869e-02 1.2065655344021563e-05  1.9958750830458655e+02 1.7473929985718954e-02 4.5009611248725784e-06  1.9958732238201063e+02 1.1286210522014957e-02 -2.4453936072077172e-06  1.9958722819847645e+02 5.5450819870216817e-03 -1.4780015705274791e-05  1.9958722150831400e+02 1.1990591134004365e-05 -4.9778730840856050e-06  2.0000196581501774e+02 5.5336125287604565e-01 2.0901653077992841e-03  1.9991675216972138e+02 5.4408728373621851e-01 1.5642577127838377e-03  1.9983735458684561e+02 5.1798834397565585e-01 1.2908690242755170e-03  1.9976791082279553e+02 4.7808123478320147e-01 1.0240678556122566e-03  1.9971086777278910e+02 4.2932950604791748e-01 7.7495524772393948e-04  1.9966666032662161e+02 3.7669887635446231e-01 5.6616330888712492e-04  1.9963417976264176e+02 3.2429918677690567e-01 4.0254843862027879e-04  1.9961148361861228e+02 2.7500156270982445e-01 2.8112243028344984e-04  1.99596399453