<?xml version="1.0"?>
<VTKFile type="UnstructuredGrid"  version="0.1"  >
<UnstructuredGrid>
<Piece  NumberOfPoints="9067" NumberOfCells="42856">
<Points>
<DataArray  type="Float64"  NumberOfComponents="3"  format="ascii">23.09486961364746 38.55545043945312 20.7221794128418  23.87244606750181 38.60930079360878 20.4035097559299  23.65653589018093 38.4234486157557 20.03950302312592  23.57544952650277 38.32175090795712 20.60380556653556  23.3918661546465 38.84300032510478 20.52188360223613  23.17595597732561 38.6571481472517 20.15787686943216  23.25704234100377 38.75884585505028 19.59357432602252  23.47295251832465 38.94469803290336 19.9575810588265  23.68886269564554 39.13055021075643 20.32158779163047  24.05602943935808 38.08805137646113 20.48543172022932  33.93841171264648 32.00180816650391 21.44054985046387  34.96962031121171 31.70495792484995 21.35768502045448  34.56009157891191 31.89734741307017 21.02231495667274  34.70867928356891 32.05425797564537 21.59860285087044  34.34794044494629 31.80941867828369 21.77591991424561  35.18177144517734 31.79288665963643 20.6040800628816  35.33035914983434 31.94979722221163 21.18036795707931  34.64684158355733 32.83765111232317 21.02283286270424  35.73963339225408 32.51652886671918 21.07611710820538  35.32358075678707 32.88200053048735 20.709205613919  34.91430651436734 32.3152688859798 20.81345646279292  35.06289421902434 32.472179448555 21.38974435699062  35.59104568759707 32.35961830414399 20.49982921400768  36.0003199300168 32.92634994865154 20.39557836513376  29.03285026550293 32.83634948730469 19.52033996582031  29.39746904428479 32.79054096122954 19.70610263161834  29.45286322130103 32.991804694759 19.44486584502737  29.29277515411377 32.66043472290039 19.33532524108887  29.55270004272461 32.48451995849609 19.15031051635742  29.65739393289563 32.61462619682524 19.52108790688689  29.71278810991187 32.8158899303547 19.25985112029592  29.87287617709913 33.1472599022133 19.36939172423442  29.81748200008289 32.94599616868385 19.63062851082539  29.76208782306665 32.7447324351544 19.89186529741637  25.21623039245605 39.89572906494141 19.90225982666016  25.87528205086549 39.59678382267152 19.97350782280993  25.34035182167847 39.59678382267152 20.03368276482653  25.54911518096924 39.89572906494141 20.32046508789062  25.75116062164307 39.89572906494141 19.84208488464355  25.88199996948242 39.89572906494141 20.73867034912109  26.08404541015625 39.89572906494141 20.26029014587402  25.67323661019166 39.59678382267152 20.451888026057  26.28609085083008 39.89572906494141 19.78190994262695  25.46447325090089 39.29783858040163 20.16510570299291  32.20735168457031 34.93273162841797 21.06422996520996  32.79974539794954 35.35658208189329 20.64643795061578  32.9012164355597 35.11325044480149 20.93720000589921  32.5978774310431 34.89140100327317 20.79404013956621  32.51069068908691 35.15458106994629 21.20738983154297  32.40921965147675 35.3979127070381 20.91662777625953  32.81402969360352 35.37643051147461 21.35054969787598  32.71255865599336 35.61976214856642 21.05978764259254  32.98840317751588 34.85007037812836 20.52385031392245  32.61108761838319 35.86309378565823 20.7690255873091  28.97493934631348 34.55469131469727 18.06711006164551  29.16544641055948 34.95254004567908 17.61525011335555  29.25011920928955 34.33762550354004 17.70325469970703  28.89766979217529 34.64215660095215 17.67360973358154  28.82040023803711 34.72962188720703 17.28010940551758  29.44062627353556 34.73547423452185 17.25139475141707  29.0881768564213 35.04000533193396 17.22174978529158  29.17284965515137 34.42509078979492 17.30975437164307  29.52529907226562 34.12055969238281 17.33939933776855  29.35595347480549 35.35038877666089 17.16339016506559  21.85374069213867 35.32550048828125 20.48447036743164  22.55698220742902 35.45526064072638 20.15689602781961  22.22584645761212 35.42999590073615 19.78188553740213  22.23429219735822 35.01106584702521 20.21758595396707  22.17643070220947 35.76969528198242 20.42378044128418  21.84529495239258 35.74443054199219 20.0487699508667  21.83684921264648 36.16336059570312 19.61306953430176  22.16798496246338 36.18862533569336 19.98808002471924  22.49912071228027 36.21389007568359 20.36309051513672  22.61484370257775 34.69663120576917 19.95070154050249  31.1173020665194 37.84003842865694 16.67542652089429  30.73242394876817 36.92731632215239 16.92201580079254  30.45682104254257 37.45554972748531 16.71503285859296  30.88574749254975 37.18613971693625 17.17085278842601  31.39290497274499 37.31180502332403 16.88240946309388  31.66850787897059 36.78357161799112 17.08939240529346  31.16135039877535 36.65790631160334 17.37783573062559  30.6541929185801 36.53224100521557 17.66627905595773  30.22526646857293 36.80165101576462 17.21045912612468  29.79634001856575 37.07106102631366 16.75463919629162  36.06398010253906 32.02177047729492 17.47834014892578  35.86868824111752 32.21465744444543 16.94521627050489  35.5382433874852 31.73536565073913 17.07338228229852  35.26047194128644 32.27707921115847 17.50205356192282  34.45696378003381 32.53238794502201 17.52576697491986  35.0651800798649 32.46996617830897 16.96892968350193  34.73473522623257 31.99067438460268 17.09709569529556  35.01250667243134 31.44896082418335 16.66842441567126  35.34295152606367 31.92825261788964 16.54025840387764  35.67339637969599 32.40754441159594 16.41209239208401  31.93198013305664 38.58829116821289 14.53246021270752  31.51977817587347 38.22677773350645 14.6488865769504  31.68032168759817 38.40760228653879 15.06102830285049  31.48361971178916 38.65708182455806 14.68535567615693  31.03525929052168 38.72587248090324 14.83825113960635  31.07141775460599 38.29556838985163 14.80178204039981  31.23196126633069 38.47639294288397 15.2139237662999  31.42866324213969 38.2269134048647 15.58959639299345  31.26811973041499 38.04608885183236 15.17745466709337  31.1075762186903 37.86526429880002 14.76531294119328  28.58072090148926 39.08330917358398 22.7846794128418  28.71134961666914 38.56913607821753 22.13482874668095  28.97314453125 38.64912414550781 22.55609512329102  28.86585998535156 39.01763916015625 22.58308506011963  28.6040650707707 38.93765109286597 22.16181868350957  28.6880054473877 38.71479415893555 22.75768947601318  28.79528999328613 38.34627914428711 22.73069953918457  29.15099906921387 38.95196914672852 22.38149070739746  28.88920415463301 38.87198107943824 21.9602243307874  28.62740924005215 38.79199301214796 21.53895795417733  33.56139702508516 32.03024604787424 18.83180897893807  33.48729379808474 32.41779790034256 17.50197534099466  33.72924190442357 31.81805272122805 17.80113986573956  34.00918040255949 32.28131699644813 18.17878797692897  33.03951042061041 32.16672695176868 18.15499634300377  33.28145852694925 31.56698177265417 18.45416086774867  33.00152002881335 31.10371749743409 18.07651275655927  32.75957192247451 31.7034626765486 17.77734823181437  32.51762381613566 32.30320785566312 17.47818370706947  25.58127975463867 35.69157028198242 18.78720092773438  24.98019955278528 36.4101650249645 19.47132852784591  25.50274789267322 36.38425350099362 19.05860823015781  24.90562433669407 36.16754003962455 18.5169037278248  25.05873141475073 35.7174818059533 19.19992122542247  24.53618307486278 35.74339332992417 19.61264152311057  24.82709247472862 36.86022325863576 18.78831103024824  24.38307599680613 36.19345156359543 18.9296240255129  24.22996891874948 36.64350979726669 18.24660652791524  25.42421603070777 37.07693672000483 19.33001553258124  32.02138137817383 37.27915954589844 20.96733093261719  32.59069061279297 37.2376594543457 21.28561019897461  32.36478042602539 37.26251411437988 21.42600059509277  32.37617111206055 37.58889389038086 21.11935520172119  32.23590087890625 36.92792510986328 21.13358592987061  32.45042037963867 36.57669067382812 21.29984092712402  32.57929992675781 36.91127967834473 21.59225559234619  32.73096084594727 37.89862823486328 21.2713794708252  32.71957015991211 37.5722484588623 21.57802486419678  32.70817947387695 37.24586868286133 21.88467025756836  33.85866757808903 29.11770983193308 20.0589219533643  34.17444453938524 29.67280763335513 19.38116253761959  33.85014592389376 29.72904485281014 19.88378681108328  34.36357257455379 29.41939314967101 19.78393607467786  33.66953954292048 29.3711243156172 19.65614841630603  34.03927395906231 29.47563036912602 20.28656034814156  34.21988034003559 29.83355090631896 20.5141987429188  34.54417895552707 29.77731368686395 20.01157446945511  33.48041150775193 29.62453879930132 19.25337487924775  34.86847757101855 29.72107646740895 19.50895019599142  29.94976997375488 32.13423156738281 22.55088996887207  29.95329088245774 31.75115805944343 21.88671021826478  29.61764043842697 31.84835368474861 22.07851987250062  30.05351116699198 32.21742229230845 21.74449328328138  30.28542041778564 32.03703594207764 22.35908031463623  30.62107086181641 31.93984031677246 22.16727066040039  30.38916161102275 32.12022666700327 21.55268362904554  30.15725236022909 32.30061301723408 20.93809659769069  29.72138163166408 31.93154440967425 21.27212318690994  29.28551090309907 31.56247580211441 21.60614977612918  25.78008079528809 32.86985015869141 20.8356990814209  24.82690637619559 33.06307586856952 20.94417558291157  25.20585744252164 33.47797362854841 20.92690395016861  25.2640485044938 33.21396533300192 20.6515370307808  25.28474760501771 32.9829689898055 21.40370455293947  25.34293866698987 32.71896069425901 21.12833763355167  25.72188973331593 33.1338584542379 21.11106600080871  25.66369867134377 33.3978667497844 21.38643292019651  24.90579653869166 32.56807122982661 21.42097618568243  24.74801621369952 33.55808050731243 20.4673749801407  27.22681898017847 36.46465511622129 22.25871230496205  27.17344877117356 37.0613077129513 21.78120951924915  26.61121510005312 37.06377485710174 21.93882227010371  26.86199820751793 36.57368328540906 21.87679380511211  26.97603587271366 36.95474668791397 22.32074076995365  27.5382695438341 36.95227954376352 22.16312801909
[...]
<PointData  Scalars="p"> 
<DataArray  type="Float64"  Name="p"  format="ascii">8.6748498033989243e+00  8.6712030005555931e+00  8.6726706572861918e+00  8.6750948567470108e+00  8.6728309359023541e+00  8.6741709777472966e+00  8.6727964866132865e+00  8.6708749320984886e+00  8.6698298846620059e+00  8.6730146958746612e+00  8.2068666998995372e+00  8.1675919935710812e+00  8.1916910597412631e+00  8.1740657973916893e+00  8.1791402283771859e+00  8.1772450743705818e+00  8.1618862802794485e+00  8.1976221447668092e+00  8.1555644762400945e+00  8.1805611049231715e+00  8.1878057637941808e+00  8.1706633328094807e+00  8.1715460210185213e+00  8.1641860071594010e+00  8.4562231400749504e+00  8.4461374540644947e+00  8.4421066056232927e+00  8.4384483030071600e+00  8.4222179402373545e+00  8.4290424925184713e+00  8.4255711819433969e+00  8.4287058582339291e+00  8.4315294562634939e+00  8.4349813664508773e+00  8.6494442714581297e+00  8.6382367558565161e+00  8.6484930991206745e+00  8.6473944493256951e+00  8.6394987335133226e+00  8.6457986068388983e+00  8.6367320466320212e+00  8.6465397714908061e+00  8.6282101579778772e+00  8.6476882467122120e+00  8.3443378778342296e+00  8.3089849094595305e+00  8.2937738694247134e+00  8.3182435510488908e+00  8.3127814787626875e+00  8.3289652494735620e+00  8.2817028963248163e+00  8.3008369774830317e+00  8.3001241211366761e+00  8.3167852089936343e+00  8.4774126029504817e+00  8.4815085608690630e+00  8.4626803109425541e+00  8.4813704112107917e+00  8.4859943598670000e+00  8.4681668319705992e+00  8.4862332823543145e+00  8.4682313377950251e+00  8.4496743988984342e+00  8.4857384686832074e+00  8.7562248594215824e+00  8.7363109389676943e+00  8.7450125353554036e+00  8.7537303928361965e+00  8.7368779748464984e+00  8.7459896069406167e+00  8.7335431803260164e+00  8.7258414244831215e+00  8.7186254128584988e+00  8.7529797642829656e+00  8.4927064573079907e+00  8.4803777892920706e+00  8.4990834639017176e+00  8.4811327755017469e+00  8.4731863699937335e+00  8.4507670640868913e+00  8.4597379792325658e+00  8.4705452433860753e+00  8.4905850301134524e+00  8.5087270328790172e+00  8.2266231642524943e+00  8.2405986300249161e+00  8.2307926721921874e+00  8.2437390826572781e+00  8.2656199476919561e+00  8.2582524596394418e+00  8.2513036450805828e+00  8.2362858346099177e+00  8.2439413170706608e+00  8.2523335841416010e+00  8.5064319235567432e+00  8.5033870649567245e+00  8.5023514070461612e+00  8.5105828566192550e+00  8.5161197343800232e+00  8.5098709612761265e+00  8.5082570367202059e+00  8.4995346827084575e+00  8.5004508100404994e+00  8.5021148567528453e+00  8.6118989992706290e+00  8.5983040450092023e+00  8.5997221044102083e+00  8.6038446056691846e+00  8.6029692802641922e+00  8.6080014811260703e+00  8.6035523171247572e+00  8.5958396085872408e+00  8.5940143737489727e+00  8.5929054026879861e+00  8.2654413727094056e+00  8.2871058902477035e+00  8.2639488104976166e+00  8.2634683408804968e+00  8.2896729122353836e+00  8.2667819466715233e+00  8.2645253523295441e+00  8.2877623116174757e+00  8.3109303870063567e+00  8.6655046773671689e+00  8.6702624541834279e+00  8.6552625593471291e+00  8.6754043311878366e+00  8.6804119446971573e+00  8.6918402379888331e+00  8.6666050040387450e+00  8.6875501912608346e+00  8.6825556460804751e+00  8.6512366425900478e+00  8.3303250774040549e+00  8.2775317661695187e+00  8.2803390167059749e+00  8.2906476538382865e+00  8.3137249646957443e+00  8.2956615587813882e+00  8.2648174324423742e+00  8.2635726559133253e+00  8.2537428612272663e+00  8.2412843936113038e+00  8.1805508891032073e+00  8.1894033452310797e+00  8.1973576071901899e+00  8.1750734508184237e+00  8.1951593303222392e+00  8.1816427182629283e+00  8.1807944384391362e+00  8.1751460062017678e+00  8.2088897644256775e+00  8.1703891245069507e+00  8.4765784194382672e+00  8.4536462609125902e+00  8.4746283006803669e+00  8.4524833884817347e+00  8.4546055916024390e+00  8.4324789449574826e+00  8.4317138241953629e+00  8.4316488140790788e+00  8.4520168555310047e+00  8.4725232223842895e+00  8.6904589715619931e+00  8.7229460071952563e+00  8.7035850132936492e+00  8.7121472405079015e+00  8.6996869117179134e+00  8.7065102016340905e+00  8.6835637975083877e+00  8.6803642165584289e+00  8.7183532086305089e+00  8.7241949113534059e+00  8.6269113258495072e+00  8.6245197503159918e+00  8.6435058746717139e+00  8.6337502933681325e+00  8.6378821733686895e+00  8.6181563851735419e+00  8.6481939323254018e+00  8.6291941949148896e+00  8.6107083154486830e+00  8.6400608115012787e+00  8.2071790514167038e+00  8.2444572850089237e+00  8.2370156099849918e+00  8.2216214521623368e+00  8.2218364578386076e+00  8.2295484644573982e+00  8.2366757066295673e+00  8.2445891805381386e+00  8.2524981386109495e+00  8.1879590555336410e+00  8.1643866665177622e+00  8.1682005205682398e+00  8.1750342796662796e+00  8.1620106822397958e+00  8.1534226228212212e+00  8.1571403822255792e+00  8.1534444555158370e+00  8.1496694952091868e+00  8.1453751756113597e+00  8.2488596238050977e+00  8.2619646271460265e+00  8.2720892791053515e+00  8.2545553467265638e+00  8.2316343126715488e+00  8.2409864034381659e+00  8.2639413458262716e+00  8.2545316566179192e+00  8.2452272837108307e+00  8.3196747431140405e+00  8.3080347826440413e+00  8.2934910198923806e+00  8.3235742150034042e+00  8.3238152743731035e+00  8.2849967839854965e+00  8.3082921928702884e+00  8.2957003964509788e+00  8.2697847635469905e+00  8.2965298502672056e+00  8.5880506224869908e+00  8.5741419559541221e+00  8.5791745023236388e+00  8.5683754482124055e+00  8.5836703175680675e+00  8.5796834961775534e+00  8.5651969440242191e+00  8.5450185287503952e+00  8.5583790889014359e+00  8.5730393963957869e+00  8.3609670330938730e+00  8.3316744819038604e+00  8.3431095328283593e+00  8.3358860932627863e+00  8.3571488614354479e+00  8.3695100989896680e+00  8.3850234457687893e+00  8.3727735091164295e+00  8.3566831943425548e+00  8.3124492500960159e+00  8.6463048206412978e+00  8.6727069067711113e+00  8.6657772936651334e+00  8.6622012359265046e+00  8.6564414216838070e+00  8.6744143283373560e+00  8.6790235488637695e+00  8.6690618416656573e+00  8.6655424612713343e+00  8.6840964029304750e+00  8.2817728805765523e+00  8.2721823186846724e+00  8.2801999604634720e+00  8.2721262141370353e+00  8.2735325300940623e+00  8.2650417911487288e+00  8.2641130696757017e+00  8.2729335310254584e+00  8.2797102633595649e+00  8.6340356058925352e+00  8.6420580702262288e+00  8.6430790119402232e+00  8.6303441242142789e+00  8.6332546079910486e+00  8.6312432949343449e+00  8.6290940579721482e+00  8.6263726690775613e+00  8.6383853549648393e+00  8.6513175472546724e+00  8.5330507199657717e+00  8.5321959234753333e+00  8.5297820460292844e+00  8.5361141208861806e+00  8.5303719200270152e+00  8.5324408057379024e+00  8.5322069210058427e+00  8.5358789061536520e+00  8.5246697096392570e+00  8.5394851016953641e+00  8.6946632354089033e+00  8.6891546915705877e+00  8.6828966715285159e+00  8.6914899244434398e+00  8.6963123096579675e+00  8.6873483284775936e+00  8.7017602455278471e+00  8.5085453068223238e+00  8.4904933105202183e+00  8.5057042520898278e+00  8.5019327859534446e+00  8.4925592644585617e+00  8.4953161453382844e+00  8.4990865363365895e+00  8.4854709907747790e+00  8.4755882574380479e+00  8.5042323374917501e+00  8.6632852657787307e+00  8.6360834484334266e+00  8.6336495804438620e+00  8.6432916338657737e+00  8.6540989709387137e+00  8.6404795108067098e+00  8.6214744043066958e+00  8.6241410301286834e+00  8.5022326746840502e+00  8.4676741101360609e+00  8.4867136633319973e+00  8.4811571736051743e+00  8.4902776439243670e+00  8.4639535672768069e+00  8.4573809657143393e+00  8.5622518341370899e+00  8.5343954981860062e+00  8.5519159711918160e+00  8.5480739434801727e+00  8.5506747388116704e+00  8.5670924101767998e+00  8.5730908691312315e+00  8.5533642360944491e+00  8.5347524660464877e+00  8.5343568257127078e+00  8.5537681961435155e+00  8.5507150581573637e+00  8.5599289622787182e+00  8.5533264086211869e+00  8.5499997697923007e+00  8.5611815977310730e+00  8.5477078419666306e+00  8.5695155288482479e+00  8.5613023249778912e+00  8.5525353502309169e+00  8.4237053967148725e+00  8.3907858796707764e+00  8.4065117713243129e+00  8.4040403594673059e+00  8.4104006124294504e+00  8.3973663883359055e+00  8.3863927318622427e+00  8.3935556886842111e+00  8.3849369399431755e+00  8.3892481154635163e+00  8.4395812326509354e+00  8.4426007582634224e+00  8.4690111342242069e+00  8.4474977574590024e+00  8.4334613390228412e+00  8.4543303231286924e+00  8.4626318510148977e+00  8.4804992478983632e+00  8.4296558322093116e+00  8.4589078855388049e+00  8.5849668917390520e+00  8.5805810832067468e+00  8.5898253340514543e+00  8.5930544326835729e+00  8.5740759158845226e+00  8.5644173596374031e+00  8.5836591201093952e+00  8.6021513641165033e+00  8.5981965210338362e+00  8.5948684837148903e+00  8.5648413564855748e+00  8.5674803882155093e+00  8.5770168269671441e+00  8.5644221921986432e+00  8.5616882239991288e+00  8.5658768360071402e+00  8.5742994378940605e+00  8.5874233709484482e+00  8.5774700646203428e+00  8.5864113274984497e+00  8.5998559050764509e+00  8.6015699947848869e+00  8.6068942052622255e+00  8.6249622911922650e+00  8.6148830227048485e+00  8.6193183725903886e+00  8.6218796920095251e+00  8.6182253668899289e+00  8.6133263983387742e+00  8.1284674058809880e+00  8.1377556478755295e+00  8.1156259698937490e+00  8.1361627881389929e+00  8.1476036806865331e+00  8.3731889031867865e+00  8.3515528556062080e+00  8.3344137569190284e+00  8.3628604902150236e+00  8.3555525478720636e+00  8.3135980897431807e+00  8.3443315880640245e+00  8.3254943782933442e+00  8.2840976506106774e+00  8.3352221386798799e+00  8.5428829714918599e+00  8.5287482963922479e+00  8.5452481570138072e+00  8.5311183781495536e+00  8.5295722379784866e+00  8.5124466109437407e+00  8.5117523663206178e+00  8.5141684417818588e+00  8.5321889845076342e+00  8.5489618976427941e+00  8.5882351987977970e+00  8.5743382636121694e+00  8.5800790812155885e+00  8.5764354310123831e+00  8.5824983181291490e+00  8.5785279901006763e+00  8.5725874833806728e+00  8.5655185786584997e+00  8.5682090242149247e+00  8.5702853201914113e+00  8.5723327619507401e+00  8.5286181377321366e+00  8.5590057623999467e+00  8.5500856800873013e+00  8.5478623766748036e+00  8.5817786758700709e+00  8.5240384769686930e+00  8.5882118618541945e+00  8.5599826859199322e+00  8.5321849984408402e+00  8.4218302655394233e+00  8.4730712629244316e+00  8.4755899690438845e+00  8.4562851078849288e+00  8.4415901484536295e+00  8.4579448454821566e+00  8.4928470949326016e+00  8.4907146338765145e+00  8.4572848273916481e+00  8.4911286136842765e+00  8.5954182702997439e+00  8.5979229281903429e+00  8.6013339925080441e+00  8.5928413229311555e+00  8.5920745142503971e+00  8.5899638015048065e+00  8.5988072847758890e+00  8.5892053919351632e+00  8.5886453656591062e+00  8.6073192728246308e+00  8.4089900942805915e+00  8.4066757838374251e+00  8.4118558041244178e+00  8.4306073697520727e+00  8.4081580188218599e+00  8.4153196006528539e+00  8.4134871338867629e+00  8.3974287994655601e+00  8.3939014563968257e+00  8.3913873804632608e+00  8.3983503387470684e+00  8.4023265986497773e+00  8.3844022613751310e+00  8.3415107316482526e+00  8.3244842272242074e+00  8.3486804818123002e+00  8.3529897210302568e+00  8.3611057030699438e+00  8.3382120149181791e+00  8.3630188371495073e+00  8.2113040372572073e+00  8.2134499310410511e+00  8.1904530280425192e+00  8.2044361300908619e+00  8.1954236673631300e+00  8.2220695260577763e+00  8.2031516127935227e+00  8.1987397618380129e+00  8.2285464951775182e+00  8.4017049645153463e+00  8.3725505001408855e+00  8.3777854230182598e+00  8.3830354396597624e+00  8.3501984812454406e+00  8.3601042263515932e+00  8.3548309537079462e+00  8.3484689961156828e+00  8.3416994238653714e+00  8.3035287737701307e+00  8.2701204975010754e+00  8.2529996506667693e+00  8.2718851315331285e+00  8.2845750004369592e+00  8.2852126558789383e+00  8.2648556878533590e+00  8.2389986514347680e+00  8.2575771764959462e+00  8.2712039875376089e+00  8.3022746252397059e+00  8.2605682482656313e+00  8.2875469456487298e+00  8.2749479144385685e+00  8.2733047573142642e+00  8.2433891515942381e+00  8.2594877148525008e+00  8.2455652567106839e+00  8.2487625341019974e+00  8.6254674711237502e+00  8.6465230583862525e+00  8.6430742607614821e+00  8.6377389320145301e+00  8.6301267051925414e+00  8.6500411329588758e+00  8.6551748631201306e+00  8.6414165296928651e+00  8.6338174147995073e+00  8.6605165959260972e+00  8.6583517480484407e+00  8.6240360449982898e+00  8.6264587328497235e+00  8.6290528788134946e+00  8.6588837716039428e+00  8.6604116305183130e+00  8.6263958028436800e+00  8.5989078149902429e+00  8.6005907472318874e+00  8.6017476174008678e+00  8.6691510878155480e+00  8.6673299739515191e+00  8.6690695745114574e+00  8.6702778670589886e+00  8.6667817214215983e+00  8.6631735634208624e+00  8.6664242315217912e+00  8.5234213264852361e+00  8.5150599985093436e+00  8.5194046630912883e+00  8.5233953977143511e+00  8.5153328949098057e+00  8.5257785679988345e+00  8.5255609711716183e+00  8.5260327537165725e+00  8.5062771409393552e+00  8.2763326029842759e+00  8.2912882867887863e+00  8.2784224032769718e+00  8.2811840440174311e+00  8.2922171021011088e+00  8.3020319874430033e+00  8.2928493083044561e+00  8.6534857901171520e+00  8.6435118976842205e+00  8.6307603236098895e+00  8.6616924880120045e+00  8.6698917557859811e+00  8.6516203908565714e+00  8.6391324695083522e+00  8.6175084525816974e+00  8.6336172343748459e+00  8.5834224550383027e+00  8.5699221681437496e+00  8.5719937366643553e+00  8.5664965446176229e+00  8.5866584003944979e+00  8.5932387009378637e+00  8.5741512701812628e+00  8.5494157101033448e+00  8.5569988601341045e+00  8.5611286324776081e+00  8.6630854190132620e+00  8.6757652255643123e+00  8.6821879969751006e+00  8.6818495397368114e+00  8.6763535435185570e+00  8.6694140096864114e+00  8.6710208222241505e+00  8.4557602716748317e+00  8.4283027159428716e+00  8.4431349411290331e+00  8.4399269310141882e+00  8.4410279448223182e+00  8.4574783477430877e+00  8.4602326665587135e+00  8.4436683596679689e+00  8.4303145632016339e+00  8.4236767191763704e+00  8.6965584092598291e+00  8.6814932314234401e+00  8.6852113522464229e+00  8.6877343396402384e+00  8.6860038997352920e+00  8.6941214659557069e+00  8.6909911060441285e+00  8.6830212780230944e+00  8.6797319975590721e+00  8.6801342576808622e+00  8.2112577850030117e+00  8.1941597733783649e+00  8.1959673035354150e+00  8.2052028015553393e+00  8.1994053210270401e+00  8.2071849974988051e+00  8.1874858888316204e+00  8.2039534833855932e+00  8.2033030280503141e+00  8.2013969885179083e+00  8.3165495610638462e+00  8.3025243939274738e+00  8.3227919501515668e+00  8.3059787617860206e+00  8.2965373025455680e+00  8.2779763911977788e+00  8.2876452464779433e+00  8.2961593040931927e+00  8.3110425253337823e+00  8.3280065232439693e+00  8.2740615065715257e+00  8.2563332345854263e+00  8.2399929351615562e+00  8.2389046656761398e+00  8.2127155322620560e+00  8.2272481111205664e+00  8.2274645177306951e+00  8.2124589923610714e+00  8.2116986469706514e+00  8.2416885956604951e+00  8.4374746368465185e+00  8.4027540871730260e+00  8.4412436141241525e+00  8.4654610742654572e+00  8.4638009391156004e+00  8.4274908544481111e+00  8.4212945376355801e+00  8.4602543756767883e+00  8.6993076300953671e+00  8.7125926170906691e+00  8.6957285918076401e+00  8.7224180677746173e+00  8.7574938897114354e+00  8.7320464215957614e+00  8.7180636365356712e+00  8.6827912601268906e+00  8.7047883367229861e+00  8.6107371665634105e+00  8.6289111249663186e+00  8.6249069742897433e+00  8.6281888201218280e+00  8.6124892572884200e+00  8.6143128636811674e+00  8.6260617177420684e+00  8.6451688306946330e+00  8.6406332433617674e+00  8.6369022800927429e+00  8.7089164339517264e+00  8.7275913117387276e+00  8.7205284390003772e+00  8.7296445644920286e+00  8.7153566916904417e+00  8.7389011172763791e+00  8.7530164631013800e+00  8.7412051065819600e+00  8.7310332092790617e+00  8.1820738211391806e+00  8.2048131444860708e+00  8.1963559513795161e+00  8.1862109703033461e+00  8.1936306936348551e+00  8.1879629407289585e+00  8.5804293248927515e+00  8.5649813060328999e+00  8.5500560727197783e+00  8.5537501930670814e+00  8.5278420975799989e+00  8.5393075903147047e+00  8.5242448842349710e+00  8.5209154133857883e+00  8.5351355714249557e+00  8.5500471671976275e+00  8.7000759881224194e+00  8.7016600286403829e+00  8.6981967645205529e+00  8.7059838940701191e+00  8.6977206089345653e+00  8.4545006598416812e+00  8.4682654193484002e+00  8.4756764980856047e+00  8.4490957545516334e+00  8.4382693584606088e+00  8.4625513449036909e+00  8.4890914669249238e+00  8.4809962209794385e+00  8.3104149348266372e+00  8.3271550875709170e+00  8.3238309327928324e+00  8.3331803304958338e+00  8.3119163691505378e+00  8.3328292709475793e+00  8.1668656625790135e+00  8.1804169170575829e+00  8.1699148223885221e+00  8.1863511040785344e+00  8.1887906006683124e+00  8.1735093043605165e+00  8.2677051038140625e+00  8.3023575356530248e+00  8.3093648265930753e+00  8.2893385344595139e+00  8.2643388689837813e+00  8.2657533293268752e+00  8.2883954721325459e+00  8.3292175285905223e+00  8.4515047887771360e+00  8.4550744407130853e+00  8.4316167628592655e+00  8.4570652530550028e+00  8.4504198729052433e+00  8.4485347423346990e+00  8.4368840064328268e+00  8.4297173686605156e+00  8.4618640633154509e+00  8.4113582900088293e+00  8.1597917708040857e+00  8.1921196221189447e+00  8.1621604675663910e+00  8.1681825379847197e+00  8.1829701508592372e+00  8.2077092678334882e+00  8.1855339842434667e+00  8.4852678016807488e+00  8.4713217178336802e+00  8.4922019457234317e+00  8.4889935054606109e+00  8.4673178677328860e+00  8.4880479702542342e+00  8.4924014154000567e+00  8.4213302477460523e+00  8.4477172411115298e+00  8.4392210795841880e+00  8.4282971113414931e+00  8.3997022444678944e+00  8.4121411581788852e+00  8.4306765499782763e+00  8.4408333683406180e+00  8.4185628828981898e+00  8.4381291555182791e+00  8.4450787557892628e+00  8.4335073152733724e+00  8.4142848840724742e+00  8.4262101762510486e+00  8.4057053947128466e+00  8.3846758140857709e+00  8.4499215741507587e+00  8.3253046540487841e+00  8.3316512107995102e+00  8.3443057504869156e+00  8.3046628385566219e+00  8.2923254210661099e+00  8.2885897840643246e+00  8.5805692698851885e+00  8.5600505383034182e+00  8.5595174838141954e+00  8.5955863859467296e+00  8.5856430665848240e+00  8.5884736838890419e+00  8.5705365298043361e+00  8.5961131997543756e+00  8.5398350921781159e+00  8.5298105270283706e+00  8.5274542378243474e+00  8.5034009334129887e+00  8.5174771822606345e+00  8.5015160217587074e+00  8.5421197948252985e+00  8.5153879321040549e+00  8.5180060725473865e+00  8.5487766452092782e+00  8.5243845063726553e+00  8.5298567860071817e+00  8.5195168085827060e+00  8.5433542434540666e+00  8.4994313849389300e+00  8.5139329285731833e+00  8.5373181170862829e+00  8.5097554435106932e+00  8.5710451642436496e+00  8.5537642465039401e+00  8.5416561045223727e+00  8.5723714510370623e+00  8.5525936956068502e+00  8.5584857055533501e+00  8.5478788447486327e+00  8.5609353266671118e+00  8.5734990744977200e+00  8.6641860161759094e+00  8.6480183966550488e+00  8.6597198754468909e+00  8.6574199572329853e+00  8.6517543327792037e+00  8.6391141815115127e+00  8.6445440623068599e+00  8.6532749636939919e+00  8.6559461154408659e+00  8.6410732977989930e+00  8.6287683502256503e+00  8.6457879858402897e+00  8.6383909472522618e+00  8.6323281351891286e+00  8.6261554767572317e+00  8.6373919050278882e+00  8.6350655353512344e+00  8.6437463479110512e+00  8.6242073959725580e+00  8.6235994158858400e+00  8.6304384672956651e+00  8.6193134324731400e+00  8.6189330833733795e+00  8.6301620526302756e+00  8.6235780630974155e+00  8.5448097713414448e+00  8.5557518307567477e+00  8.5490789368758122e+00  8.5502978432209957e+00  8.5360794078110889e+00  8.5434874866866295e+00  8.5368875553389056e+00  8.5378028395701584e+00  8.5498067318857238e+00  8.2568184969383971e+00  8.2580159806768467e+00  8.2688137261808183e+00  8.2621327841704133e+00  8.2450649603145614e+00  8.2529751629869406e+00  8.2361463618344377e+00  8