<?xml version="1.0"?>
<VTKFile type="UnstructuredGrid"  version="0.1"  >
<UnstructuredGrid>
<Piece  NumberOfPoints="9104" NumberOfCells="42914">
<Points>
<DataArray  type="Float64"  NumberOfComponents="3"  format="ascii">21.60420036315918 5.959475040435791 34.27907180786133  21.77290522363329 5.554857093583728 34.52909826142836  21.34156498732409 5.777774353195355 34.60100722803014  21.41165065765381 5.611109972000122 34.2239818572998  21.21910095214844 5.262744903564453 34.16889190673828  21.51026984779819 5.373156406343291 34.85103368159717  21.58035551812792 5.206492025148059 34.47400831086684  21.14901528181872 5.429409284759686 34.54591727746862  21.078929611489 5.596073665954918 34.92294264819895  21.94161008410739 5.150239146731665 34.77912471499539  22.0131893157959 0.9956790208816528 37.25362014770508  22.37253671513401 0.8013664538827302 38.05085564498002  22.41537475585938 0.4850080087780952 37.54435348510742  22.03306484222412 0.5456320121884346 37.6272144317627  22.05294036865234 0.09558500349521637 38.00080871582031  20.56488990783691 0.6131420135498047 39.17745971679688  21.25010060246125 0.975311835469084 38.71174725225512  21.18974580316124 1.051289816587379 39.14893404663582  20.73153542454377 1.017132331789808 38.80870732000415  21.08345508575439 0.5713215172290802 39.08049964904785  21.60202026367188 0.5295010209083557 38.98353958129883  21.70831098107872 1.009469320266654 39.05197397888679  20.89818094125063 1.421122650029812 38.43995492321142  21.3563913198681 1.455280134827383 38.78018164984309  21.81460169848557 1.489437619624953 39.12040837647476  21.42490005493164 0.8471620082855225 37.56439971923828  21.63315585357921 1.147157277936937 37.75337118570114  21.16154049809114 1.134142329157667 38.00217732122485  21.51346015930176 0.6883315145969391 38.27396965026855  21.72171595794932 0.9883267842483531 38.46294111673141  21.3697962967387 1.434137598809081 38.19114878768771  21.84141165222677 1.44715254758835 37.942342652164  20.1655101776123 8.747797966003418 35.41645050048828  20.69398840497941 8.338717419119556 35.80437100097757  20.2566734177968 8.420468288870532 35.71267712280374  20.45365866254777 8.69785257002898 35.97620213195901  20.60282516479492 8.666047096252441 35.50814437866211  20.7998104095459 8.943431377410889 35.77166938781738  20.36249542236328 9.025182247161865 35.67997550964355  21.04014015197754 8.584296226501465 35.59983825683594  20.34783665798129 8.093138611737647 36.00890374511921  21.82800667535617 1.468295083606652 38.53137551431938  21.42822074890137 4.6148681640625 34.59658050537109  21.12279972853502 4.864998836685345 35.02439666284459  21.68491541650438 4.882553655397082 34.68785261018324  21.25357518019518 5.105470915008709 34.75976157678502  20.79367065429688 2.128743886947632 39.89208984375  21.30413617639122 1.809090753286292 39.50624911011238  21.07547329774052 2.316930257985475 39.14465642707858  20.84592579777375 1.774933268488722 39.16602238348071  21.58593881983487 1.997277124324136 38.75881569344097  21.1277284412174 1.963119639526565 38.4185889668093  21.35727594118417 2.505116629023318 38.39722301040716  21.34841537475586 2.127696394920349 39.89208984375  19.52212905883789 7.875011920928955 37.19873809814453  20.04728356140183 7.501937569534787 36.91492579729668  19.736485598615 7.337104285965107 37.18294751588896  19.62920486741383 7.549995149383686 36.98171651308134  19.62940979003906 7.662121057510376 37.39996910095215  19.73669052124023 7.449230194091797 37.60120010375977  19.73628067598978 7.224978377838417 36.76469492801816  22.12883325143327 2.196389753941699 37.68072684945885  21.59934379670547 1.976134588305834 38.16978283128558  22.02470450139992 2.006132266646781 38.24906279227345  21.06707000732422 6.646780014038086 34.56953048706055  21.47691998305163 6.0632529451143 34.75064635766881  21.07299980940661 6.121426839996502 34.74623656762975  21.3356351852417 6.303127527236938 34.42430114746094  21.47099018096924 6.588606119155884 34.57394027709961  21.87491035461426 6.530432224273682 34.57835006713867  21.73955535888672 6.244953632354736 34.4287109375  20.93151092529297 3.597670078277588 35.95257949829102  21.59372043609619 3.407687067985535 35.98183441162109  21.2868309094227 3.847349615294868 36.22503787000499  21.21443557739258 3.36824905872345 36.12916946411133  21.49736022949219 3.138828039169312 36.30575942993164  21.56975556152231 3.61792859574073 36.4016278358253  21.38229942321777 2.408463001251221 36.83483123779297  21.37157772889287 2.006599330613496 37.77194143074069  21.61185553772227 1.927807774419786 37.38858694497848  21.36978768220097 2.456789815137269 37.61602712410006  21.38408946990967 1.958272516727448 36.99074554443359  21.38587951660156 1.508082032203674 37.14665985107422  21.61364558441417 1.477617289896012 37.54450125161911  21.1420302289261 1.464602341116743 37.79330738714282  21.34256935119629 1.210314035415649 39.89208984375  21.57858552484093 1.349875827520301 39.50624911011238  21.12037514622346 1.315718342722731 39.16602238348071  20.9537296295166 0.9117280244827271 39.53477478027344  20.35306155239759 7.936017686484403 36.53703020584719  19.93498285840959 7.984075266333301 36.60382092163186  19.9359832627675 8.339808422537525 36.47229206726175  20.35828644681389 7.778896761231159 37.06515666657518  20.56863975524902 2.016724109649658 37.01277160644531  20.9629578482166 2.260920369336488 37.70499730842624  20.97725963592529 1.762403070926666 37.07971572875977  20.9754695892334 2.212593555450439 36.92380142211914  21.06812000274658 1.669528961181641 39.89208984375  20.01758094266248 7.011783245224232 37.0669821823906  19.6428052168401 7.03539868713393 37.25800740663603  20.01778586528771 7.123909153350922 37.48523477026141  19.64301013946533 7.14752459526062 37.67625999450684  19.54932975769043 6.845818996429443 37.75131988525391  19.9241054835128 6.822203554519746 37.56029466100848  20.29888120933518 6.798588112610048 37.36926943676305  20.85147280905325 6.861829264456282 35.91838765571295  21.10056139553674 7.297487874474314 36.42441727582695  20.60487962793356 7.32036301284372 36.49177216114407  20.57517700919421 6.830208688533165 36.643828546238  21.661545753479 5.299753904342651 34.02930068969727  21.01064555599348 7.899379899472759 36.02918144080414  20.87782820295305 8.014270740957935 35.68529141113382  21.22397994995117 8.259849548339844 35.48075866699219  21.4078197479248 7.935402870178223 35.36167907714844  21.56259536743164 4.973057508468628 34.17078018188477  21.90826021936083 5.840335685502673 34.67873739106703  20.73341034824983 1.718923379839735 37.72636326482836  20.32858382807453 7.288742436920604 37.21721305166912  20.04205866698553 7.659058494788032 36.38679933656869  20.29387674252151 7.043403821147349 36.34154129186555  20.59965473351727 7.477483938096965 35.96364570041608  20.50977562840119 1.355512847365217 39.16602238348071  20.73196983337402 1.250108540058136 39.89208984375  20.45752048492432 1.709323465824127 39.89208984375  20.12137031555176 1.289903044700623 39.89208984375  20.55530452728271 1.537521064281464 37.20755577087402  20.96392440795898 1.283200025558472 37.27449989318848  20.54196929931641 1.058318018913269 37.40233993530273  20.72007512028352 1.239720334471541 37.92114742925708  21.4053897857666 1.177622020244598 37.35552978515625  20.98343467712402 0.9527400135993958 37.48336982727051  20.89129589970246 0.7583538267625143 38.34343823125903  21.24321556091309 0.312543012201786 38.61523056030273  20.72465038299561 0.3543635085225105 38.71219062805176  20.8844108581543 0.09558500349521637 38.24692153930664  21.46867561340332 0.09558500349521637 38.12386512756348  21.73892021179199 0.4713735058903694 37.7826042175293  21.15465545654297 0.4713735058903694 37.90566062927246  21.82748031616211 0.312543012201786 38.49217414855957  21.3236608505249 4.938806533813477 34.38273620605469  20.48504313062639 8.12604327818938 35.57703602478128  20.39387989044189 8.453372955322266 35.28080940246582  20.83119487762451 8.371622085571289 35.37250328063965  20.62224960327148 8.158947944641113 35.14516830444336  20.96221203433651 4.664246205367091 38.80549947513904  21.90655608379642 4.269475155091 38.12516867308435  21.16326712331679 4.186022607038974 38.16384447878112  21.38912434023135 4.205043505121088 38.88022098139277  21.8160366461262 3.745840804875085 38.95494248764651  21.59017942921163 3.726819906792971 38.23856598503485  21.36432221229707 3.707799008710857 37.5221894824232  21.54914319232757 4.882102585239005 35.61003828485117  19.92337989807129 9.290742874145508 36.7088508605957  20.04182529449463 9.130244255065918 35.99669456481934  20.13560827802629 8.691940742941577 36.35887730285745  19.72377490997314 9.124332427978516 36.37936973571777  19.524169921875 8.957921981811523 36.04988861083984  19.93600328992814 8.525530296774585 36.02939617797952  20.71319007873535 0.5769515112042427 37.82463073730469  19.84484004974365 8.852859973907471 35.73316955566406  20.63963373731584 7.781760889502246 35.48287213012796  21.01503467559814 8.047175407409668 35.2534236907959  20.77684020996094 7.814665555953979 35.05100440979004  21.1696252822876 7.702893018722534 35.15925979614258  20.93143081665039 7.470383167266846 34.95684051513672  19.52414989471436 8.772200107574463 36.49278450012207  19.7237548828125 8.938610553741455 36.822265625  19.52412986755371 8.586478233337402 36.9356803894043  21.14791656879502 3.652734543494223 36.73738449035711  20.78233051300049 3.245472550392151 36.26895523071289  20.63315010070801 2.893275022506714 36.58533096313477  20.99873615650254 3.300537015608786 37.05376022277898  21.0652551651001 3.016051530838013 36.4455451965332  21.43084122089463 3.423313523940084 36.91397445617742  21.37331081775742 3.058131004981039 37.17851036010808  21.00772476196289 2.650869011878967 36.71008110046387  21.43982982635498 2.773645520210266 36.5702953338623  21.50323655292475 3.902414080511503 37.00984286207108  21.64215089355244 4.097029152312148 36.49749624171896  20.9
[...]
<PointData  Scalars="p"> 
<DataArray  type="Float64"  Name="p"  format="ascii">8.9987547831583168e+00  8.9901290580261062e+00  9.0179038636663300e+00  9.0135795686961266e+00  9.0321348631242309e+00  9.0081138743212001e+00  9.0021173195657749e+00  9.0338880630560219e+00  9.0325831206780709e+00  8.9832661629264141e+00  9.0050859061882012e+00  8.9999406179362875e+00  8.9956627799903011e+00  9.0077570472488073e+00  9.0099351606523790e+00  9.0665856141584804e+00  9.0404013123013716e+00  9.0415369450454488e+00  9.0596610353800742e+00  9.0471753196664384e+00  9.0276652051401136e+00  9.0235294552021177e+00  9.0525827050990770e+00  9.0350083933791048e+00  9.0194824655120591e+00  9.0311065847584509e+00  9.0235601734185042e+00  9.0436316181022374e+00  9.0308782707645552e+00  9.0231563142465117e+00  9.0345702232678136e+00  9.0163885663239025e+00  9.0216316906295368e+00  8.9897902472141276e+00  9.0131569435408707e+00  8.9830901561960559e+00  8.9950743407576681e+00  8.9630884885487703e+00  8.9853092512379149e+00  8.9720173242632164e+00  9.0070040970734109e+00  9.0186517711559002e+00  9.0140409382776348e+00  9.0351505663730656e+00  8.9967652960149600e+00  9.0266726289065673e+00  9.0497913362329250e+00  9.0348106150144361e+00  9.0400492010599240e+00  9.0508295571997976e+00  9.0251528508049024e+00  9.0413428503850657e+00  9.0301191295565211e+00  9.0319133944944454e+00  9.0127320859976248e+00  9.0087648403142655e+00  9.0182873233242713e+00  9.0243329986417073e+00  9.0056820859883402e+00  8.9996992824127666e+00  9.0334760905795193e+00  9.0031206478849661e+00  9.0241603820141769e+00  9.0099089959518945e+00  9.0317726225672477e+00  9.0065337518660815e+00  9.0312849621379900e+00  9.0172090962610891e+00  9.0044077254109602e+00  8.9786857849078459e+00  8.9888480431112132e+00  9.0467790885716433e+00  9.0054560698720483e+00  9.0241913714446653e+00  9.0277873344793669e+00  9.0129549883550659e+00  9.0114759641976043e+00  9.0243759058486379e+00  9.0316825271458221e+00  9.0206202341103356e+00  9.0293677080278112e+00  9.0271793095008732e+00  9.0293741287095930e+00  9.0226125703866682e+00  9.0432040903356032e+00  9.0339045266991640e+00  9.0267534367535873e+00  9.0431660813495238e+00  9.0492095224655973e+00  8.9948380081132875e+00  9.0104229274648890e+00  9.0040928721611646e+00  8.9841989139854928e+00  9.0700900789511323e+00  9.0470308644130686e+00  9.0480743397007704e+00  9.0466386609823708e+00  9.0428693638874442e+00  9.0180444232002461e+00  9.0274467075436924e+00  9.0034885483760920e+00  9.0100780163699223e+00  9.0195100272046460e+00  9.0128786155327010e+00  9.0055521207474278e+00  9.0122733907748476e+00  8.9834247448995761e+00  9.0014168968542663e+00  9.0101304092683083e+00  8.9896746669557519e+00  8.9810033410967325e+00  8.9934973852747824e+00  8.9772089466269520e+00  8.9779482612366426e+00  8.9960735418178892e+00  8.9822538951117945e+00  9.0599297904017178e+00  8.9953602817799609e+00  9.0207612129705250e+00  9.0241158637738454e+00  9.0109756079769330e+00  9.0646476168110457e+00  9.0551484945186793e+00  9.0631475732629454e+00  9.0757845056801312e+00  9.0717971108723816e+00  9.0510095276360190e+00  9.0746710484797450e+00  9.0623163128114950e+00  9.0305523007163124e+00  9.0515375456295359e+00  9.0558949901965864e+00  9.0425727785101273e+00  9.0642721821432808e+00  9.0590431634172131e+00  9.0322206830373997e+00  9.0195055287523704e+00  9.0445234224748887e+00  9.0201100354579200e+00  9.0227470805814693e+00  9.0137720110821444e+00  9.0224382766014610e+00  8.9973366530753225e+00  9.0210439758213017e+00  9.0167307566325210e+00  8.9977879905471454e+00  9.0208996910366572e+00  9.0125175074466028e+00  9.0064619993194128e+00  9.0128384198210316e+00  9.0210423458254354e+00  9.0073190975150741e+00  8.9456027088554038e+00  8.9862407783802638e+00  8.9848663489332097e+00  8.9875033788508691e+00  9.0293038226148745e+00  9.0154210853140722e+00  9.0665307132295929e+00  9.0247441506762911e+00  9.0163081494514952e+00  8.9991786170009878e+00  9.0217573894764485e+00  8.9991640166668159e+00  9.0210738202597760e+00  9.0125949692144811e+00  8.9730980053011198e+00  8.9971306029135185e+00  9.0314449611031300e+00  9.0552240579440220e+00  9.0641891766133860e+00  9.0397514017808973e+00  9.0373827909046387e+00  9.0202405872693099e+00  9.0251156309960301e+00  9.0424844283569659e+00  9.0181817647394400e+00  9.0144825818901069e+00  9.0072530805005400e+00  9.0250800947621244e+00  9.0013819435848710e+00  9.0220218249315032e+00  9.0244183160375933e+00  9.0370211870177979e+00  9.0333010328152348e+00  9.0496136180899196e+00  9.0413473444177814e+00  9.0258251762174861e+00  9.0164335025739799e+00  9.0155312921867399e+00  9.0105973178246472e+00  9.0207540193914149e+00  9.0219683462643072e+00  9.0152045598244346e+00  9.0198944397531928e+00  9.0087545782058029e+00  9.0706934175585801e+00  9.0096036971637883e+00  9.0297286503194023e+00  9.0341189340306443e+00  8.9953971074320727e+00  9.0155079734592647e+00  8.9953415797585254e+00  8.9970260277633258e+00  8.9771952208680244e+00  8.9733194328095003e+00  9.0272550207924986e+00  9.0009068898976441e+00  8.9768309253120169e+00  9.0074118817141482e+00  9.0135134065986087e+00  9.0114096232776362e+00  9.0075998658725460e+00  9.0160451568795406e+00  9.0171739100065480e+00  9.0068179129396153e+00  9.0109955573612126e+00  9.1191279161894681e+00  9.1052917795837836e+00  9.1213564064393129e+00  9.1164123663118293e+00  9.1013039254313615e+00  9.0822689937064354e+00  9.0999405460672307e+00  9.1145786934523318e+00  9.1203821813258958e+00  9.1258021311302642e+00  9.1157081660853834e+00  9.1177990142788943e+00  9.1162088860605177e+00  9.1041702710378711e+00  9.1244919975935890e+00  9.1277803415907552e+00  9.1353015838865517e+00  9.1380788083915547e+00  9.0954609542752340e+00  9.1396466984226628e+00  9.0045811255771362e+00  9.0292385228734169e+00  9.0092673195074529e+00  9.0245337640131247e+00  9.0446336906755711e+00  9.0466747378467769e+00  9.0305071998217770e+00  9.0141805581959726e+00  9.0322219776182635e+00  9.0507543969392810e+00  9.2031418246186547e+00  9.1795399532817630e+00  9.1795091113721092e+00  9.2015484645360832e+00  9.1769837168273796e+00  9.1776855449963310e+00  9.1529267237822616e+00  9.1567931288930851e+00  9.1565739712700793e+00  9.2004040487115031e+00  9.1063668340788020e+00  9.0778966407552861e+00  9.0911692896253093e+00  9.0737654916843837e+00  9.1091284761053419e+00  9.0948651116599226e+00  9.0418157550725589e+00  9.0583829725249831e+00  9.0755524944643771e+00  9.1104055649653688e+00  9.0947245532202690e+00  9.1025720613389609e+00  9.1277447783861625e+00  9.1058649919084544e+00  9.1422527163468530e+00  9.1190920763614809e+00  9.1200584597422925e+00  9.0990569270861101e+00  9.1263750042277785e+00  9.1256724816170784e+00  9.1331688442137242e+00  9.1376092412959764e+00  9.1228245904738952e+00  9.1117720747807471e+00  9.1173194203317518e+00  9.1064654882105085e+00  9.0984482920276903e+00  9.1499412425813844e+00  9.0152122828151171e+00  8.9775108118926479e+00  9.0049271887275832e+00  8.9846038247341848e+00  8.9949325054687890e+00  9.0663212472433639e+00  9.0846905756416518e+00  9.0930323066841154e+00  9.0725079624172551e+00  9.0613388487371100e+00  9.0753725246035657e+00  9.0943903696467192e+00  9.0630625385351866e+00  9.0575881191243184e+00  9.1126857553505047e+00  9.0103054800521605e+00  9.0260649674457625e+00  9.0347628533413911e+00  9.0330010252159241e+00  9.0578995253198453e+00  9.0563655762641915e+00  9.0556198031715223e+00  9.0399323212894362e+00  9.0515943176517855e+00  9.0495072494110769e+00  9.0241618777728352e+00  9.0239155053481248e+00  9.0417387058357850e+00  8.9913810409647645e+00  8.9973505432734342e+00  9.0036240499260281e+00  9.0161262451121100e+00  9.0991795562422677e+00  9.1180486333775406e+00  9.1096039564900604e+00  9.0996614612001139e+00  9.0790299984924463e+00  9.0820971732353897e+00  9.1049326324196169e+00  9.0344380151157075e+00  9.0090007820882043e+00  9.0386238063134012e+00  9.0314738828604284e+00  9.0284150126673044e+00  9.0123787502738679e+00  9.0053504330896548e+00  9.0361643659552744e+00  9.0430808932302931e+00  8.9838646643502500e+00  9.1346355697540851e+00  9.1194985014740908e+00  9.1159865841709014e+00  9.1314120077787813e+00  9.1121641956640751e+00  9.1136085060968011e+00  9.0528355312411808e+00  9.0287428724649583e+00  9.0356052947456931e+00  9.0493552583793928e+00  9.0480894458421446e+00  9.0450994978849799e+00  9.0697963803861334e+00  9.0437483062878972e+00  9.0431179623535343e+00  9.0451744606469298e+00  9.0757942333838812e+00  9.1214322424437757e+00  9.1157670491588618e+00  9.0957485352809790e+00  9.1126266462956416e+00  9.1035355213445293e+00  9.1231634596753679e+00  9.0827201139986453e+00  9.1065662133105594e+00  9.1075932414393304e+00  9.1225724884789443e+00  9.1231239327414446e+00  9.1180668550311843e+00  9.0935901157925674e+00  9.1250895447521607e+00  9.0912069777357818e+00  9.0885126157031024e+00  9.1559635054916750e+00  9.1585738103913208e+00  9.1643613181371570e+00  9.1661059580188748e+00  9.1487860051182768e+00  9.1391221683574511e+00  9.1556411513907037e+00  9.1740531527013598e+00  9.1722679060586412e+00  9.1726949494534793e+00  9.1872689706101927e+00  9.1974299511713937e+00  9.2007290106320347e+00  9.1785965540488963e+00  9.1845954233494691e+00  9.1822248626432295e+00  9.1768479610359464e+00  9.1704910643794495e+00  9.1891574417291118e+00  9.2098591132808689e+00  9.0306981434442903e+00  9.0209652634615054e+00  9.0371027444585259e+00  9.0091635380118653e+00  9.0421405732880977e+00  9.0216305195403415e+00  9.0181533405412733e+00  9.0050433993239416e+00  9.0489911185722924e+00  8.9922109350849819e+00  9.0971896615829682e+00  9.0735869373765077e+00  9.0657257362190506e+00  9.0609458593764529e+00  9.0251025999365613e+00  9.0422134189938657e+00  9.0304154201635622e+00  9.0338944546444235e+00  9.0456008898974272e+00  9.0525105970489150e+00  9.0593507901710346e+00  9.0756880742558312e+00  9.0700086212244688e+00  9.0575951630674254e+00  9.0076945207299257e+00  9.0105831410142780e+00  9.0355810028090104e+00  9.0175663453669994e+00  9.0236718400337548e+00  9.0014279085467965e+00  9.1837519137313652e+00  9.1892323005940852e+00  9.1714147608506682e+00  9.1614518848340403e+00  9.1350484114317076e+00  9.1645247874826179e+00  9.1443496908820148e+00  9.0752989384097145e+00  9.1014307760765885e+00  9.0940517989066336e+00  9.0611678188028684e+00  9.0823447419982024e+00  9.0785641186858950e+00  9.0432441340881855e+00  9.0513848225229943e+00  9.0504006368768675e+00  9.0602646774054616e+00  9.0783670023642173e+00  9.0691499861157965e+00  9.0581058723400201e+00  9.0213490229228910e+00  9.0171819135659224e+00  9.0415834699138422e+00  9.0364070481124834e+00  9.0406894262753070e+00  9.0228140158133048e+00  9.0264306942612915e+00  9.0129580425585498e+00  9.0560694181029593e+00  9.0522763208605443e+00  9.0727091702915583e+00  9.0643860969624725e+00  9.0827734823105768e+00  9.0776089547429546e+00  9.0860737858486758e+00  9.0685391143262937e+00  9.0433274180536625e+00  9.0519849457094566e+00  9.0231890266798107e+00  9.0231316974702249e+00  9.1793663055831249e+00  9.1565335022720014e+00  9.1477032809004495e+00  9.1752947049758742e+00  9.1614319942047846e+00  9.1282023261118503e+00  9.1449560168885640e+00  9.1141384904713671e+00  9.1125202776826679e+00  9.1788222383329376e+00  9.1777156571429099e+00  9.1637357529013936e+00  9.1497932682008969e+00  9.1658581252928304e+00  9.1658985294238828e+00  9.1788706652154204e+00  9.1801029492242687e+00  9.1832259290997698e+00  9.0654535310278703e+00  9.0587417049958336e+00  9.0880202258492915e+00  9.0561836622815104e+00  9.0692591633440482e+00  9.0865596843449303e+00  9.0787092666372633e+00  9.0693618614560680e+00  9.0283206602652015e+00  9.0273266935914940e+00  9.0370753109087847e+00  9.0086394515576131e+00  9.0641255554189772e+00  9.0610255185665487e+00  9.0557975129531343e+00  9.0394513792225446e+00  9.0444901178708932e+00  8.9852783011280071e+00  9.0185049701102376e+00  8.9917517690297704e+00  9.0390608496199114e+00  9.0342278048695697e+00  9.0595859663991085e+00  9.0653456675247206e+00  9.0249375315195710e+00  9.2200622454591858e+00  9.1949414608761835e+00  9.2009501385530434e+00  9.1943597534039849e+00  9.1740104326257796e+00  9.1715417523592748e+00  9.1800442804948794e+00  9.1781108937465632e+00  9.1253331606192187e+00  9.1004542757196418e+00  9.0938895674096027e+00  9.0987248642241791e+00  9.0945407115351244e+00  9.1115135910004028e+00  9.1041511834810258e+00  9.0868394499129881e+00  9.0940315693271891e+00  9.1008956262525054e+00  9.0996794787669675e+00  9.0793649433942587e+00  9.1037437644023385e+00  9.1101717845659369e+00  9.0801993234664646e+00  9.0327559425582375e+00  9.0573393687162724e+00  9.0595889424878724e+00  9.0496340415438965e+00  9.0487519904318692e+00  9.0779474785647363e+00  9.0867203200300626e+00  9.1314967813348495e+00  9.1049700222358556e+00  9.1252697514659502e+00  9.1482670861395547e+00  9.1488729305999428e+00  9.0877715901609228e+00  9.0770803382292229e+00  9.0732324818931804e+00  9.0607439531377132e+00  9.0926961187725315e+00  9.0967359145671800e+00  9.0739497653987460e+00  9.0707773689680078e+00  9.1115255204755599e+00  9.0871927942548290e+00  9.0843311741560786e+00  9.1081799563978425e+00  9.1095414847477549e+00  9.1379300760524256e+00  9.1656141574506638e+00  9.1395830241067557e+00  9.1395848351442606e+00  9.0647290913471057e+00  9.0700983339781658e+00  9.0466356548006210e+00  9.0258326058822966e+00  9.0533872880678956e+00  9.1594354051459312e+00  9.1485793712099746e+00  9.1535063913253207e+00  9.1432503922023631e+00  9.1541224170722355e+00  9.1482772573278837e+00  9.1391977670463191e+00  9.1529317279132840e+00  9.1517597853557380e+00  9.1779359088629153e+00  9.1244859147575390e+00  9.1057125220649215e+00  9.0817897190764807e+00  9.0117318010734273e+00  9.0093470250592507e+00  8.9849773244050777e+00  9.0127949568993397e+00  8.9853964216047597e+00  9.0111056528303024e+00  8.9886187726997147e+00  8.9650090481444895e+00  9.0071992628072266e+00  9.0903901645911525e+00  9.1018603114073144e+00  9.0702660534990898e+00  9.0984717512532072e+00  8.9929691513203185e+00  9.0336792188634618e+00  9.0127445742647279e+00  9.0012449783659374e+00  9.0248405356260974e+00  9.0210752286542579e+00  9.0465237561732330e+00  9.0323943262894844e+00  9.0052137008232851e+00  9.2092265216495459e+00  9.1958619274424489e+00  9.1816643816237686e+00  9.1704951119471882e+00  9.1339716330489509e+00  8.9972938769767037e+00  9.0015871786873873e+00  8.9877284538661915e+00  9.0090199838588241e+00  9.1063105389240260e+00  9.0801477141214342e+00  9.0827069087286691e+00  9.0684452896561716e+00  9.1008888886627801e+00  9.0971525206946176e+00  9.0652220514517001e+00  9.0300908727442692e+00  9.0519512394500943e+00  9.0039487097854032e+00  8.9958171458269902e+00  9.0147909015724430e+00  9.0192659219943359e+00  8.9850821750889356e+00  8.9968060882343437e+00  9.0336770363669867e+00  9.0345881894882591e+00  9.0090852401581056e+00  9.0471133129358847e+00  9.0275420213329021e+00  9.0050184625207823e+00  9.0073346815238811e+00  9.0256798456645786e+00  9.0111315680548980e+00  9.0182277624034022e+00  9.0463366912848482e+00  9.0663986331153943e+00  9.0855891102056123e+00  9.0508810088390934e+00  9.0673291061290318e+00  9.0730604726889723e+00  9.0347990647664371e+00  9.0479642843082644e+00  9.0267208188988626e+00  9.1393319943722027e+00  9.1394685844451669e+00  9.0031166639329321e+00  8.9964191962091249e+00  8.9910440025292999e+00  8.9737147892048412e+00  9.1147857366858265e+00  9.0656844703238768e+00  9.0284040291309253e+00  9.0528170829949737e+00  9.0413604775903256e+00  9.0573843853126927e+00  9.0435253192549165e+00  9.1713704392338933e+00  9.1771635122340367e+00  9.1623572281919632e+00  9.1954752090542691e+00  9.1819963232546353e+00  9.0808485614464569e+00  9.0848388240554936e+00  9.0777028292485920e+00  9.1311182952920031e+00  9.1040512365092727e+00  9.1342868044684131e+00  9.0137544089916446e+00  9.0331995763715121e+00  9.0533658461657005e+00  9.0387069219218485e+00  9.0641202981225639e+00  9.0302179016969344e+00  9.0110734978800480e+00  9.0379451065179719e+00  8.9865687377690193e+00  9.0093274360299702e+00  8.9968453136817690e+00  9.0982477645179660e+00  9.0854334956645779e+00  9.1028123639620322e+00  9.0777229732632208e+00  9.0537060585895865e+00  9.0883991785625007e+00  9.0637899791013705e+00  9.0825811025312486e+00  9.1132408429817318e+00  9.0108565198030650e+00  9.0085176686396764e+00  9.0144567416391332e+00  9.0027562328395447e+00  8.9868256798725508e+00  9.0329547321632884e+00  9.1068720288533669e+00  9.0789085589488234e+00  9.1003470146529892e+00  9.0885310449140349e+00  9.0842682316997365e+00  9.0864477737545108e+00  9.0662010748850506e+00  9.1005182957663440e+00  9.1076685235632358e+00  9.1111538759493254e+00  9.0876966140084079e+00  9.1302218946672582e+00  9.1230721228494023e+00  9.0444769492496100e+00  9.0316010082942508e+00  8.9977589300136476e+00  9.1355320827969262e+00  9.1533213138951570e+00  9.0705044186344033e+00  9.0494366398669470e+00  9.0289965215176817e+00  9.0549020170278283e+00  9.0639541994451758e+00  9.0340065505169722e+00  9.0642814545883681e+00  9.2160367368505760e+00  9.2018537039524730e+00  9.0693251864213487e+00  9.0828099745038635e+00  9.0625732410213029e+00  9.0817621926080232e+00  9.1089871817993782e+00  9.0942276107305133e+00  9.0825009965390429e+00  9.0281666169751098e+00  9.0194089998291478e+00  9.1607552109196089e+00  9.1764194145226110e+00  9.1644657424933431e+00  9.1621827596285428e+00  9.1512835245073987e+00  9.0861455887441345e+00  9.0670611137112509e+00  9.0168170868263111e+00  9.0474260217006570e+00  9.1604298619130251e+00  9.1459550307114004e+00  9.0400237509137344e+00  9.0425089100723266e+00  9.1536156868673348e+00  9.1575765994983573e+00  9.1457279441701544e+00  9.1398205218685007e+00  9.1463755803111724e+00  9.1566566409634902e+00  9.1433318955669556e+00  9.1612963546834738e+00  9.1600627116415829e+00  9.1641160086253954e+00  9.1452591288455167e+00  9.1491231434558689e+00  9.0132621190631870e+00  9.0426392364592640e+00  9.0300214337347686e+00  9.0652117421319574e+00  9.0873955492776268e+00  9.1029931154839456e+00  9.1255875714064416e+00  9.1103454758395426e+00  9.0304631382745804e+00  9.0139998598202933e+00  9.0098194308809720e+00  9.0029321176130157e+00  9.0674824484824867e+00  9.0603088999244044e+00  9.0634174114228117e+00  9.0384223233975796e+00  9.1475448932978285e+00  9.1175261425182583e+00  9.1219248427921507e+00  9.0850570934208577e+00  9.0895198512882605e+00  9.0823870251616565e+00  9.0855920351901798e+00  9.0537881467185350e+00  9.0007549711019568e+00  9.0143733347745219e+00  9.1643350271573976e+00  9.0324212604046359e+00  9.0416896672364704e+00  9.1663217216249535e+00  9.1645915032237202e+00  9.2027471890899797e+00  9.1947940505630452e+00  9.1888950386634924e+00  9.1887391909808489e+00  9.1789191193950472e+00  9.0542491949009918e+00  9.0532882325514308e+00  9.0714721633078774e+00  9.0877201791821651e+00  9.0514084702052333e+00  9.0695426293220454e+00  9.0621576804446864e+00  9.0683975768289340e+00  9.0392396877082124e+00  9.0445233881985754e+00  9.0493361368123626e+00  9.1160984948806441e+00  9.0942921510293342e+00  9.1068238432434327e+00  9.1112935315786938e+00  9.1513421394308736e+00  9.0238157530797167e+00  9.0499688975068757e+00  9.0161369883052789e+00  8.9823398100265663e+00  9.0266407640849522e+00  9.0120676903092907e+00  9.0076410114895502e+00  9.0374938541325260e+00  9.0877908843596913e+00  9.0972804977032418e+00  9.1098976566049803e+00  9.0389281293496726e+00  9.0284888570929205e+00  9.0416709960310566e+00  8.9778554145191727e+00  9.0950662921064716e+00  9.0815665377943731e+00  9.0630307670448307e+00  9.0676107129786505e+00  9.0476746241546948e+00  9.0814785450919899e+00  9.0634268008737475e+00  9.0736184532149640e+00  9.0570274277886060e+00  9.0853698488546417e+00  9.0704564679096382e+00  9.1156992237863967e+00  9.0681456438003067e+00  9.0489690887556691e+00  9.0509164400952518e+00  9.0638129622257537e+00  9.0836707202108489e+00  9