<?xml version="1.0"?>
<VTKFile type="UnstructuredGrid"  version="0.1"  >
<UnstructuredGrid>
<Piece  NumberOfPoints="9320" NumberOfCells="43670">
<Points>
<DataArray  type="Float64"  NumberOfComponents="3"  format="ascii">29.92853927612305 11.57324028015137 18.9993896484375  30.58015776772287 11.19928550220488 19.25316162191072  30.22259623998374 10.87364602760048 19.05965840782879  30.22224051946372 11.3001663751957 18.83877313103436  29.92889499664307 11.14671993255615 19.22027492523193  30.2864565243822 11.47235940716055 19.41377813931386  29.92925071716309 10.72019958496094 19.44116020202637  30.28681224490222 11.04583905956533 19.6346634161083  30.51594176280439 11.02709247024003 18.67815661363122  30.64437377264134 11.37147853416973 19.82816663019022  31.06505478830908 11.64268835655244 17.86154741542174  31.32636101742445 11.9986119680764 18.3033453024531  30.92070788360691 11.74026488467036 18.25150127296199  31.39637473887368 11.39099897307935 18.67787566138295  30.77636097890473 11.83784141278829 18.64145513050224  31.18201411272227 12.09618849619432 18.69329915999335  31.58766724653982 12.35453557960035 18.74514318948447  31.80202787269122 11.64934605648538 18.72971969087406  32.43262100219727 13.13720989227295 19.24402046203613  32.15383444298153 12.14900145605447 19.21356264117049  32.44759346171356 12.39524530193862 19.7026361229958  32.15084434672332 12.71634506008681 19.52619111567158  32.7293701171875 12.81611013412476 19.42046546936035  32.43561109845548 12.56986628824061 18.93139198753504  33.02611923217773 12.49501037597656 19.59691047668457  32.73236021344572 12.24876653009242 19.10783699485926  31.86906769124938 12.29548022790067 19.80836176930703  32.43860119471369 12.00252268420827 18.61876351303395  31.52791023254395 7.211616039276123 20.71873092651367  31.92432940981179 7.127704837250585 20.40471769526662  32.23176611289701 7.038676061591074 20.94732847654986  32.0805695323259 7.562911130737655 20.86428172805127  32.63322883210785 7.914206222199187 21.00983252958887  32.47698870959374 7.478999928712117 20.55026849680422  32.78442541267896 7.389971153052606 21.09287927808747  32.93562199325006 6.865736083906026 21.17592602658605  32.62818529016485 6.954764859565536 20.63331524530281  32.32074858707963 7.043793635225046 20.09070446401957  33.85465801853636 7.103128021119278 22.02097134617921  33.56617434999728 6.719304006548251 21.21240855932065  33.60240273618828 7.202400152328771 21.03449296574077  34.02569236264043 6.837999975154876 21.63493121911723  33.39514000589321 6.984432052512652 21.59844868638263  34.06192074883143 7.321096120935398 21.45701562553735  34.2691834791265 7.539064220751516 20.89305990489548  34.2329550929355 7.055968074970996 21.07097549847537  34.1967267067445 6.572871929190475 21.24889109205525  31.79231071472168 7.558013916015625 22.25259971618652  32.27393430437679 8.058113401208015 21.80559678171483  32.59313550578405 8.492641593424855 22.20250876818753  32.18558855688433 7.467792105024172 22.15733927949195  31.88065646221415 8.14833521219947 21.9008572184094  32.50478975829158 7.902320297241011 22.55425126596466  33.21726880186149 8.246626678466397 22.85590281574279  32.89806760045423 7.812098486249557 22.45899082927009  31.96900220970662 8.738656508383313 21.54911472063228  32.57886639904697 7.377570294032718 22.06207884279737  34.58317947387695 5.443515777587891 21.03793907165527  34.38995309031073 6.008193853389183 21.14341508185526  34.45715281373424 5.864186480426875 20.63380218324925  34.08575953626344 5.658461705181836 20.97312730529667  33.58833959864993 5.87340763277578 20.90831553893807  33.89253315269721 6.223139780983127 21.07860331549666  33.95973287612073 6.07913240802082 20.56899041689065  34.33112615359153 6.284857183265861 20.22966529484322  34.26392643016801 6.428864556228168 20.73927819344924  31.73718417665749 7.111702897477025 19.97328687861623  31.74245266723116 7.748600629796289 20.23610928442856  31.34076499938965 7.195614099502563 20.28730010986328  31.15361976623535 7.179612159729004 19.85586929321289  31.55530743407686 7.732598690022729 19.80467846777817  31.95699510191837 8.285585220316454 19.75348764234344  32.138871844499 7.66468942777075 19.92209605318151  31.31194610307237 9.493507549785766 20.03139875654378  31.5749601689753 10.16804861127549 20.58383028467435  31.58515267668999 10.02456288703326 20.10998983488803  31.70465060527795 9.577725162602725 20.41670815586642  31.30175359535769 9.636993274028001 20.5052392063301  32.09735510748352 9.661942775419686 20.80201755518905  31.97785717889556 10.10878049985021 20.49529923421066  31.69445809756327 9.721210886844959 20.89054860565273  31.29156108764301 9.780478998270233 20.97907965611642  31.8583592503076 10.55561822428074 20.18858091323228  32.11224964391554 9.719256277710043 19.43933953679169  32.6360506375721 9.916018598284213 19.89054670935771  32.90344531414246 9.978543030356128 19.44587255848727  32.40525324695135 10.5182733864058 19.56397447478681  32.69825684998715 11.31729049510155 19.68860941278194  32.92905424060791 10.71503570697997 20.01518164735284  33.19644891717827 10.77756013905188 19.5705074964824  33.69464098436939 10.23782978300222 19.45240558018286  33.42724630779902 10.1753053509303 19.8970797310533  33.15985163122866 10.11278091885838 20.34175388192374  30.84127998352051 9.571548461914062 21.21129989624023  31.16386030151194 9.308974526448349 21.01808997606847  31.06642053558176 9.676013730092148 21.09518977617833  31.40514109661356 9.155102485148689 21.38020730843625  30.93871974945068 9.204509258270264 21.13420009613037  31.03615951538086 8.837470054626465 21.05710029602051  31.63028164867482 9.259567753326774 21.26409718837435  31.50258086254374 8.78806328150489 21.30310750832639  29.92333030700684 13.30469036102295 18.88386917114258  30.05601097156686 12.58609311013098 19.18318383437659  30.27012697182111 12.76759804867165 19.09752298341899  30.00173641254586 13.03410832314368 19.31151311141517  29.97760486602783 12.85667514801025 18.755539894104  30.03187942504883 12.40865993499756 18.62721061706543  30.32440153084211 12.31958283565896 18.96919370638042  30.08014251808489 12.7635262852644 19.73915705168776  30.34853307736014 12.49701601079238 19.52516692369158  30.61692363663538 12.23050573632035 19.3111767956954  34.39310003752323 8.99832525772262 20.12348279985135  34.17278885814854 7.971445052333947 19.9995728088307  33.86912479819824 8.698238171725666 19.98122011925602  34.33114175832486 8.268694739237068 20.50827135237341  34.69676409747353 8.271532138330901 20.14183548942603  33.80716651899988 7.968607653240115 20.36600867177809  34.63480581827516 7.541901619845349 20.5266240419481  35.00042815742383 7.544739018939181 20.16018817900071  33.34514955887326 8.398151085728713 19.8389574386607  33.56848667886635 6.169874473210516 20.43662985360184  33.19709340139555 5.964149697965475 20.77595497564926  33.59489849417683 6.454655839706902 20.53828043991727  33.96629177164763 6.660380614951943 20.19895531786985  33.60145738970373 7.035904046638024 20.16824534089647  33.20365229692245 6.545397904896598 20.40591987662846  32.80584720414117 6.054891763155171 20.64359441236046  30.82158088684082 13.02620983123779 18.1701602935791  31.20462406669032 12.69037270541907 18.45765174153178  31.19710164933183 12.73003650089862 18.01012664210738  31.27604579925537 13.12469005584717 18.09125995635986  31.73051071166992 13.22317028045654 18.01235961914062  31.65908897910487 12.78885293002845 18.37875140431255  31.65156656174638 12.828516725508 17.93122630488814  31.57262241182283 12.43386317055945 17.85009299063566  31.58014482918132 12.3941993750799 18.29761809006006  33.86825942993164 5.550374984741211 21.69845008850098  33.79789485120484 5.396620884869336 21.04326814391972  33.72829951429078 5.711891308758496 21.30338281371952  33.9378547668457 5.235104560852051 21.43833541870117  34.2257194519043 5.496945381164551 21.36819458007812  34.29531478881836 5.181674957275391 21.10807991027832  34.00745010375977 4.919834136962891 21.17822074890137  32.67102813720703 12.9338903427124 20.30545997619629  32.27004791422821 12.61468528530654 20.05691087275166  32.55182456970215 13.03555011749268 19.77474021911621  32.84857368469238 12.71445035934448 19.95118522644043  33.19136810302734 5.092376232147217 21.31360054016113  33.38985385083863 5.482891932461499 21.1109580395496  33.52981376647949 5.321375608444214 21.50602531433105  33.59940910339355 5.006105184555054 21.24591064453125  32.9381160736084 12.85738515853882 19.01905536651611  32.55050086975098 13.09196996688843 18.74676513671875  33.5473629315195 8.384155239849729 20.59322142760951  33.58124830365359 8.994483119975275 20.33508928328556  34.07133817084448 8.684242325846682 20.73548410820483  33.74957630416575 8.370159393970747 21.34748541655831  33.25948643697485 8.680400188099338 20.94709059163905  32.76939656978395 8.99064098222793 20.54669576671978  33.05727306432861 8.694396033978322 20.19282660269024  31.42863597758886 11.19568812348696 19.51218493428536  30.71036737577304 11.60465997347901 19.23481088034623  31.10249847824679 11.51676476813762 19.0768200323938  31.02277980711212 11.71309692990365 19.41168086499038  31.0365048751151 11.28358332882834 19.67017578223779  30.69664230777006 12.03417357455432 18.97631596309882  30.63064870463836 11.80099213524504 19.56967171294281  34.91477966308594 6.408475875854492 22.77177047729492  34.03624305145297 7.023700113276029 22.73285598580219  34.83722705364293 6.941619343882368 22.75499801498515  34.50703982881079 6.700712275366341 23.28647479974193  34.11379566089597 6.490556645248153 22.74962844811196  34.09929999453565 6.99294867487819 23.80117912218894  33.70605582662083 6.782793044760002 23.26433277055897  34.42948721936779 7.233855743394217 23.26970233743216  33.31281165870601 6.572637414641815 22.727486418929  34.75967444419994 7.474762811910244 22.73822555267537  31.93737387457512 10.74988737882558 19.45143855274797  32.06431907137909 10.33170640554023 19.07
[...]
<PointData  Scalars="p"> 
<DataArray  type="Float64"  Name="p"  format="ascii">8.5821470528976640e+00  8.5733241776310969e+00  8.5801470820564347e+00  8.5789471416626508e+00  8.5830379391179985e+00  8.5807654281955621e+00  8.5824872091535003e+00  8.5794974639667423e+00  8.5720699022829283e+00  8.5787191687721158e+00  8.5439476992340531e+00  8.5438687295462010e+00  8.5545030326273483e+00  8.5481297110019945e+00  8.5641442686597031e+00  8.5561720935671612e+00  8.5490584256733513e+00  8.5388507590484686e+00  8.5540691545526872e+00  8.5433980216671053e+00  8.5502959232428548e+00  8.5587794303138374e+00  8.5432672736461939e+00  8.5333686270414546e+00  8.5347682092904549e+00  8.5263247308306340e+00  8.5637802533679874e+00  8.5200676800131010e+00  8.5361849567664176e+00  8.5326000853271342e+00  8.5332625818026440e+00  8.5368925809412808e+00  8.5347920150979562e+00  8.5307236694654147e+00  8.5321350347983014e+00  8.5299325312249792e+00  8.5277894164836514e+00  8.5276753610405844e+00  8.5318385573639439e+00  8.5249926218479981e+00  8.5232296151495852e+00  8.5261662363358575e+00  8.5312105378416607e+00  8.5232296043206794e+00  8.5145801617562444e+00  8.5175954865041046e+00  8.5203172570310866e+00  8.5572937742510877e+00  8.5481870380463274e+00  8.5499949249799201e+00  8.5511688820116447e+00  8.5547320168301866e+00  8.5548704903694173e+00  8.5456806993025474e+00  8.5476339022846126e+00  8.5528530626127868e+00  8.5455828569550327e+00  8.5133639505982508e+00  8.5173314665706865e+00  8.5112420258337149e+00  8.5166037420084404e+00  8.5197697523686848e+00  8.5202738833515888e+00  8.5145462957617575e+00  8.5080633557032268e+00  8.5139174302820173e+00  8.5331706135130219e+00  8.5377735204092620e+00  8.5362680782332827e+00  8.5388072027385302e+00  8.5395541132058685e+00  8.5366732558496388e+00  8.5318493603729664e+00  8.5547641871361435e+00  8.5594396756672833e+00  8.5539369230886280e+00  8.5513507358770244e+00  8.5585124995830153e+00  8.5488649875251568e+00  8.5508364116256672e+00  8.5568199868627044e+00  8.5644541325311039e+00  8.5529243404356041e+00  8.5363896270360424e+00  8.5308763731794901e+00  8.5199307285131365e+00  8.5336713208224424e+00  8.5327141862922318e+00  8.5294606954743166e+00  8.5170113670919605e+00  8.5037080763853243e+00  8.5159281686808885e+00  8.5267316242662030e+00  8.5705599954466827e+00  8.5611595006241874e+00  8.5677039897050538e+00  8.5615305113922524e+00  8.5630014474127929e+00  8.5566664624017346e+00  8.5579990187461679e+00  8.5558701094917797e+00  8.6019138415492247e+00  8.5928274988978277e+00  8.5899577414960078e+00  8.6025653754615536e+00  8.5906265976326193e+00  8.5796029707438315e+00  8.5809669734654666e+00  8.6040550120760759e+00  8.5921256771388421e+00  8.5804356161130411e+00  8.5020664714594396e+00  8.5048609832373749e+00  8.5084159465595768e+00  8.5084959209836004e+00  8.4990868821038621e+00  8.5139676200532861e+00  8.5061723515056347e+00  8.4971675008351220e+00  8.5150857634190125e+00  8.5166298301108974e+00  8.5213765899202514e+00  8.5176276768412134e+00  8.5109884270385088e+00  8.5145236005175882e+00  8.5200452614660698e+00  8.5230171455240278e+00  8.5604149032832773e+00  8.5549718442644842e+00  8.5418935770552267e+00  8.5482715907095130e+00  8.5334905983178579e+00  8.5419732202745458e+00  8.5264851858789434e+00  8.5246447819883411e+00  8.5379385157329644e+00  8.5246954239300550e+00  8.5178976510059350e+00  8.5219989420198896e+00  8.5191134580757790e+00  8.5187369248948137e+00  8.5145094820670710e+00  8.5153172675321063e+00  8.5683277676248100e+00  8.5649604042833509e+00  8.5634622358441739e+00  8.5529453154104615e+00  8.5202368962155433e+00  8.5208611022804703e+00  8.5222765600864907e+00  8.5178862630014098e+00  8.5245047876452418e+00  8.5323354549869954e+00  8.5199921755135382e+00  8.5171686860810709e+00  8.5142528907349124e+00  8.5247501531998466e+00  8.5279628432004770e+00  8.5323229335161432e+00  8.5235932046328848e+00  8.5581811514889292e+00  8.5724761843848203e+00  8.5615872074472232e+00  8.5691582778561877e+00  8.5689357351359394e+00  8.5717753740164770e+00  8.5797473056789677e+00  8.5349407252855887e+00  8.5380150065104985e+00  8.5306543700025834e+00  8.5400665652999113e+00  8.5405742349255380e+00  8.5465131776688352e+00  8.5498736526868075e+00  8.5354496374939117e+00  8.5481663064411464e+00  8.5268298399984932e+00  8.5436382463619989e+00  8.5348171270969502e+00  8.5440883214967656e+00  8.5314224023834910e+00  8.5435522660969596e+00  8.5315592849469670e+00  8.5042141776704980e+00  8.5011625721020536e+00  8.4941393231857809e+00  8.5044751499338123e+00  8.5092724371334860e+00  8.5066769226714047e+00  8.4972256036866991e+00  8.5105913697353728e+00  8.5159598351370658e+00  8.4848627420648821e+00  8.5898450690160484e+00  8.5784116944572695e+00  8.5847952915773469e+00  8.5813944000546840e+00  8.5811484240159537e+00  8.5777211120310763e+00  8.5752046590897866e+00  8.5229884342002915e+00  8.5146997413541481e+00  8.5186939742468759e+00  8.5133700177358200e+00  8.5176429439136783e+00  8.5128324642889410e+00  8.5109512026284015e+00  8.5449214023419913e+00  8.5475365125825125e+00  8.5403870202467118e+00  8.5427648679997787e+00  8.5410367592929859e+00  8.5423554016943317e+00  8.5343600169471951e+00  8.5487494371768911e+00  8.5385355628824726e+00  8.5323014650058173e+00  8.5394773137430722e+00  8.5372269344086629e+00  8.5674746304471654e+00  8.5566988742854466e+00  8.5666021779366321e+00  8.5617838651027274e+00  8.5627749757014282e+00  8.5575325690179227e+00  8.5564195166216788e+00  8.5619131908349697e+00  8.5619002311857919e+00  8.5402433756988057e+00  8.5289043117745020e+00  8.5349279285224018e+00  8.5358273692542106e+00  8.5330918438034242e+00  8.5272874406373251e+00  8.5293771503722375e+00  8.5324902934049796e+00  8.5315255097977492e+00  8.5344270640937125e+00  8.5311772617738875e+00  8.5246378206690210e+00  8.5371039823797865e+00  8.5428808572040964e+00  8.5347562896186773e+00  8.5284663948185369e+00  8.5208198156150807e+00  8.5470919174760738e+00  8.5481090946585390e+00  8.5545138563559853e+00  8.5512082396515545e+00  8.5444250410174849e+00  8.5612130655619634e+00  8.5559351975727900e+00  8.5633071120365702e+00  8.5586692479107143e+00  8.5552929444567045e+00  8.5514293282737519e+00  8.5610839624435595e+00  8.5722095584161639e+00  8.5661241259160192e+00  8.5368803565754607e+00  8.5441871420413431e+00  8.5390880973423950e+00  8.5470126506955602e+00  8.5566088360821055e+00  8.5516180469805683e+00  8.5483104813048048e+00  8.5443149842885404e+00  8.5425510320669567e+00  8.5468875683269694e+00  8.5399604389372996e+00  8.5517467263138354e+00  8.5623820652640212e+00  8.5552291436923191e+00  8.5493994943971163e+00  8.5076323661714657e+00  8.4998363365938108e+00  8.5059941461340962e+00  8.5026699264606993e+00  8.5029789950024099e+00  8.4967192451483360e+00  8.4952755748795497e+00  8.4934289369878861e+00  8.4997278920786066e+00  8.5052383632174440e+00  8.5477670657677258e+00  8.5531325386710879e+00  8.5449985085380202e+00  8.5490277293134227e+00  8.5909559818695413e+00  8.5831985627410745e+00  8.6003690887201021e+00  8.5995964898806463e+00  8.5718596560577573e+00  8.5891983500271056e+00  8.5804505863239644e+00  8.5803954239060118e+00  8.5469852304902272e+00  8.5431198194109186e+00  8.5632897426387977e+00  8.5967600869526528e+00  8.5811293734489311e+00  8.5800890742151559e+00  8.5870757857185414e+00  8.5891839185805896e+00  8.5890630616290782e+00  8.5624956707232744e+00  8.5309886534010442e+00  8.5365336659232280e+00  8.5581555909330760e+00  8.5519569530677746e+00  8.5496266809313148e+00  8.5235371754970348e+00  8.5194937303541547e+00  8.5159769267568119e+00  8.5119522723377994e+00  8.5127939723049231e+00  8.5309242423864475e+00  8.5285642800521817e+00  8.5210568639295197e+00  8.5213353038652375e+00  8.5350601621329432e+00  8.5151389398272510e+00  8.5179478111799565e+00  8.5196984250668102e+00  8.4944599570865762e+00  8.4999231805995485e+00  8.5058627629584276e+00  8.5028332974987126e+00  8.5123260919308503e+00  8.5163301582051236e+00  8.5209870326798018e+00  8.5161037347664852e+00  8.5181082405898998e+00  8.5120572721716439e+00  8.5229793512837428e+00  8.5177377586737304e+00  8.5115343408990238e+00  8.5167930405464389e+00  8.5225122398897408e+00  8.5144506127504638e+00  8.5402266271555458e+00  8.5869334105610164e+00  8.5980549548947049e+00  8.5936802613565746e+00  8.6007771889586593e+00  8.5908033757439775e+00  8.4965453544113014e+00  8.5039415541118988e+00  8.4961345977641951e+00  8.5046023911317477e+00  8.5039403717093389e+00  8.4963128234983980e+00  8.4963445686465882e+00  8.4909687822727165e+00  8.5009175166325495e+00  8.5447189181394467e+00  8.5403760707926200e+00  8.5342257635889016e+00  8.5303146943569512e+00  8.5385747079392953e+00  8.5474808986738378e+00  8.5528415236812361e+00  8.5628546899554632e+00  8.5444820257189260e+00  8.5419386442282317e+00  8.5509500250337922e+00  8.5695827492255443e+00  8.5654193388554312e+00  8.5584090450009409e+00  8.5555750159605353e+00  8.5338854437289307e+00  8.5440792967519439e+00  8.5425909148365253e+00  8.5411083968737849e+00  8.5402539535483815e+00  8.5491448920014825e+00  8.5597159505245699e+00  8.5682183676465442e+00  8.5673399856843293e+00  8.5605171919803080e+00  8.5664494665207673e+00  8.5653913068677561e+00  8.5647670688111628e+00  8.5078175945330017e+00  8.5059555923195695e+00  8.5071660459901750e+00  8.5042349484242319e+00  8.5073213721166692e+00  8.5421805491451810e+00  8.5357906855415884e+00  8.5349726383658062e+00  8.5358328687379483e+00  8.5364774890003456e+00  8.5418621912605595e+00  8.5307094799703567e+00  8.5312235090995436e+00  8.5315599523037449e+00  8.5458465417453144e+00  8.5326211421267733e+00  8.5343510937206606e+00  8.5328772521394090e+00  8.5435668550592592e+00  8.5431559745974130e+00  8.5532892921288006e+00  8.5121192067753704e+00  8.5126885150725879e+00  8.5103266482559761e+00  8.5106388918963543e+00  8.5077720401455661e+00  8.5132023284121896e+00  8.5128088000679654e+00  8.5084972793213343e+00  8.5502542618493518e+00  8.5464488021620504e+00  8.5243618821531921e+00  8.5195102712220034e+00  8.5286618150870162e+00  8.5302989098967554e+00  8.5794874381916113e+00  8.5924972891462712e+00  8.5241871254685435e+00  8.5208656599584760e+00  8.5213601756695017e+00  8.5221349327613432e+00  8.5225652510143011e+00  8.5217324262389553e+00  8.5204175282177950e+00  8.5708608014326071e+00  8.5466449131648776e+00  8.5503641686515639e+00  8.5523237350758770e+00  8.5575858041861341e+00  8.5601315132469384e+00  8.5905056369088069e+00  8.5763761437171215e+00  8.5802994721858798e+00  8.5811937087705292e+00  8.5734535474899793e+00  8.5693651856563164e+00  8.5719616965714653e+00  8.5473981398086476e+00  8.5589396458699571e+00  8.5839181720934974e+00  8.5684324558835598e+00  8.5683451889777622e+00  8.5754530147582102e+00  8.5762471034947261e+00  8.5679625345088155e+00  8.5616719844089726e+00  8.5121852958681519e+00  8.5097495000120293e+00  8.5190491964887709e+00  8.5170703602153761e+00  8.5669809304012983e+00  8.5762234537499644e+00  8.5809816210149990e+00  8.5716287750703941e+00  8.5895660810685985e+00  8.5790640433547765e+00  8.5339965989003268e+00  8.5337180363239629e+00  8.5496887143147848e+00  8.5524223275963500e+00  8.5530376275744509e+00  8.5476833693454282e+00  8.5267704040621570e+00  8.5220235021069541e+00  8.5249996697728463e+00  8.5216924017608946e+00  8.5234781947388019e+00  8.5191468039242277e+00  8.5186926180169031e+00  8.5205681653660026e+00  8.5414029032912531e+00  8.5383050523971225e+00  8.5431109690276106e+00  8.5869878527562733e+00  8.5676973960036094e+00  8.5748170386263727e+00  8.5774640333998136e+00  8.5235466519675551e+00  8.5507173091311515e+00  8.5501632992780419e+00  8.5521031189378700e+00  8.5573844401939390e+00  8.5200721803899935e+00  8.5237301303711082e+00  8.5447384469083882e+00  8.5394833119836875e+00  8.5724244575978101e+00  8.5244281338163717e+00  8.5372358328863882e+00  8.5258276223771077e+00  8.5234807838204851e+00  8.5247220547703275e+00  8.5312792482342310e+00  8.5350353671872288e+00  8.5229827565568339e+00  8.5134938893347645e+00  8.5164468361379253e+00  8.5205858468693112e+00  8.5072463266873424e+00  8.5813028466368646e+00  8.5850089766055113e+00  8.5906438170874750e+00  8.5916236357318763e+00  8.5775040878425663e+00  8.5852905659715297e+00  8.5786298093312343e+00  8.5752558851611305e+00  8.5754464713270107e+00  8.5828855592896272e+00  8.5826895663357039e+00  8.5739278663245155e+00  8.5376850325015035e+00  8.5345512384452800e+00  8.5237242852998225e+00  8.5389846087060484e+00  8.5213014030433651e+00  8.5314422336359836e+00  8.5515595853031723e+00  8.5688210920332661e+00  8.5603794319391966e+00  8.5500422405871905e+00  8.5852651480400741e+00  8.5823889079488840e+00  8.5848777974640402e+00  8.5250623354250763e+00  8.5366384774529322e+00  8.5453939239214254e+00  8.5608797732507771e+00  8.5633848357551869e+00  8.5745450220323161e+00  8.5718839360706234e+00  8.5725021445704783e+00  8.5863827468658904e+00  8.5726379259855854e+00  8.5662739429064576e+00  8.5741314681516574e+00  8.5618535124394270e+00  8.5753284546591573e+00  8.5675685693932913e+00  8.5465633132054801e+00  8.5556396419765459e+00  8.5356170319773881e+00  8.5278074218875837e+00  8.5300519359958429e+00  8.5229192891805834e+00  8.5346719588158191e+00  8.5542922251163400e+00  8.5277333170067671e+00  8.5184651055420488e+00  8.5152314504989395e+00  8.5690910118478065e+00  8.5634426585206551e+00  8.5659174724621234e+00  8.5715833053669073e+00  8.5546022356985958e+00  8.5455166859553149e+00  8.5596802079524501e+00  8.5662811327899764e+00  8.5696627722268737e+00  8.5748126541617058e+00  8.5905330926968766e+00  8.6030811624273866e+00  8.5973089245317329e+00  8.6021982910700174e+00  8.5895315513122714e+00  8.5530707501322354e+00  8.5603383860114572e+00  8.5582566261176254e+00  8.5257561083931837e+00  8.5447112244926160e+00  8.5289859273681436e+00  8.5242846860536936e+00  8.5146623918037943e+00  8.5328418216969588e+00  8.5522845301302475e+00  8.5641209341002966e+00  8.5631326647328265e+00  8.5787519912698684e+00  8.5970987575461137e+00  8.5899079009954775e+00  8.5160732551739216e+00  8.5091779288085085e+00  8.5111838528488502e+00  8.5105155703646282e+00  8.5154561521447398e+00  8.5089118386815255e+00  8.7710825029174835e+00  8.7671527432434395e+00  8.7597873205416636e+00  8.7747524497513396e+00  8.7660938182619450e+00  8.7574331095706466e+00  8.7606347204509625e+00  8.7733530842828653e+00  8.5648053120261114e+00  8.5713061598937887e+00  8.5040414120459875e+00  8.5048372274779727e+00  8.4968465368419377e+00  8.5179208970520914e+00  8.5718219305026064e+00  8.5820479711778326e+00  8.5808536438144607e+00  8.5691874715562655e+00  8.5873039953476127e+00  8.5760897957905176e+00  8.5256494434699501e+00  8.5263581678236342e+00  8.5257698467642378e+00  8.5011862921963797e+00  8.5081455586158885e+00  8.5013622535958469e+00  8.4979803808830763e+00  8.4921182021604391e+00  8.4921266433159683e+00  8.5965293391593676e+00  8.5861434268162782e+00  8.5914489117833153e+00  8.5770668171600928e+00  8.5872937297898417e+00  8.5718822498769711e+00  8.5767304187681326e+00  8.5885177510907056e+00  8.5150876751144846e+00  8.5264669186251449e+00  8.5199959441963244e+00  8.5352793075329867e+00  8.5248187652803669e+00  8.5045765111634868e+00  8.5103481285448286e+00  8.5471886717079659e+00  8.5453997412302591e+00  8.5767820312680740e+00  8.5819435701943210e+00  8.5740613515574751e+00  8.5132998112537059e+00  8.5205047020486067e+00  8.6000872264462789e+00  8.5905127484192558e+00  8.6024647004692802e+00  8.5909046723231892e+00  8.6067255392279503e+00  8.6048578441669044e+00  8.5972679822502016e+00  8.6122702424955122e+00  8.5175027104817485e+00  8.5378536655624320e+00  8.5220240093157607e+00  8.5323414953357588e+00  8.5352682427499342e+00  8.5487129814346225e+00  8.5126459466031221e+00  8.5112581631878275e+00  8.5704025990406727e+00  8.5646913160985072e+00  8.5634887027048929e+00  8.5567249237868648e+00  8.5398361289003013e+00  8.5542853014790534e+00  8.5483512203286125e+00  8.5461552705776249e+00  8.5153261498872759e+00  8.5033152251876540e+00  8.5043463533918580e+00  8.5145211113858235e+00  8.5054419524100489e+00  8.5531290335752530e+00  8.5170375609949502e+00  8.5075739820049261e+00  8.5056729403195241e+00  8.5106183457169191e+00  8.5213457713377281e+00  8.4955902804473595e+00  8.5246812803623779e+00  8.5263202715057140e+00  8.5304361876930948e+00  8.5250898330454454e+00  8.5263164390623860e+00  8.5209223805210197e+00  8.5212549168404887e+00  8.5698489489754657e+00  8.5709446560623164e+00  8.5679820847719341e+00  8.5097484857389709e+00  8.5119777363413291e+00  8.5084114048184016e+00  8.5096763336715977e+00  8.5045906418770585e+00  8.5294484705081697e+00  8.5270440334314337e+00  8.5288315835402937e+00  8.5162891415351503e+00  8.5126267120038825e+00  8.5137545571332360e+00  8.5061845794423760e+00  8.5121560254462576e+00  8.4954184294101598e+00  8.5097373205980311e+00  8.5770431606874205e+00  8.5008629055664677e+00  8.5162052714143304e+00  8.5094834716440371e+00  8.5068301798022166e+00  8.5045303235607665e+00  8.4909870342080129e+00  8.4906195731034337e+00  8.4956829872586450e+00  8.5717042895092703e+00  8.5429784672466287e+00  8.5453806262151364e+00  8.5154218206839474e+00  8.5165493898945499e+00  8.5171842306911412e+00  8.5211672745498692e+00  8.5199845611317571e+00  8.5276431920513289e+00  8.5223428737651989e+00  8.5241612492318204e+00  8.5254512914689293e+00  8.5099321055065680e+00  8.5416301712176566e+00  8.5276348916367439e+00  8.5099410139043883e+00  8.5025284111715838e+00  8.4985866327506212e+00  8.4981213407225749e+00  8.5125992031299429e+00  8.5172947063822591e+00  8.5103181757895960e+00  8.5179823894702302e+00  8.5226121972962137e+00  8.5668037269965911e+00  8.5778605403989090e+00  8.5707905124229029e+00  8.5611403466411016e+00  8.5325321701675456e+00  8.5385660656148268e+00  8.5326703567160216e+00  8.5379459796123225e+00  8.5233524748067016e+00  8.5188013515350089e+00  8.5195753630931321e+00  8.5126644985209641e+00  8.5470043906290574e+00  8.5394206452233608e+00  8.5461852413370103e+00  8.5238650258411166e+00  8.5294710549857022e+00  8.5261065138266066e+00  8.5166935053787221e+00  8.5009315631951843e+00  8.5804089917801978e+00  8.5941857852271752e+00  8.5825935407575464e+00  8.5872456067314662e+00  8.5703512367259176e+00  8.5185918740825617e+00  8.5234903648778282e+00  8.5044453474800967e+00  8.5383306431868871e+00  8.5297000173307271e+00  8.5121345900796062e+00  8.5187223880981477e+00  8.5262700042522397e+00  8.5284884628668252e+00  8.5240398115554630e+00  8.5298392940915839e+00  8.5629685725658398e+00  8.5394159509070331e+00  8.5686310468632865e+00  8.5713230189609853e+00  8.5580194551073898e+00  8.5181629678196540e+00  8.5198064509207789e+00  8.5201031299360057e+00  8.5134457914324582e+00  8.5211723516637932e+00  8.5206650200017364e+00  8.5248048509457561e+00  8.5372146014866814e+00  8.5337440409201157e+00  8.5341346308581407e+00  8.5302550758350559e+00  8.5317545739927692e+00  8.5304961433843030e+00  8.5260484525538960e+00  8.5446233617851508e+00  8.5031423561023232e+00  8.5124435695694505e+00  8.4944674178121762e+00  8.6012044189359038e+00  8.5889699453878894e+00  8.5941834165383053e+00  8.5877991961030027e+00  8.5909378741259079e+00  8.5875170638396803e+00  8.5840648466464184e+00  8.5074196813277645e+00  8.5071466585735767e+00  8.5040735606457751e+00  8.5089489550328423e+00  8.5886555051609133e+00  8.5908837801466049e+00  8.5723798068320356e+00  8.5642704350865593e+00  8.5571215537064482e+00  8.6007361037698775e+00  8.6043854819519172e+00  8.5925573532147457e+00  8.5338013405140245e+00  8.5294625329482034e+00  8.5330923769773914e+00  8.5397419246865578e+00  8.5346538151600324e+00  8.5440310177118395e+00  8.5553869791365393e+00  8.5592573707229924e+00  8.5776492882713562e+00  8.5827482560435868e+00  8.5670922872016728e+00  8.5201373842117896e+00  8.5132099406182871e+00  8.5425965945352456e+00  8.5562029698832269e+00  8.5014209806829211e+00  8.5030209538708785e+00  8.5835674454587441e+00  8