<?xml version="1.0"?>
<VTKFile type="UnstructuredGrid"  version="0.1"  >
<UnstructuredGrid>
<Piece  NumberOfPoints="9152" NumberOfCells="42349">
<Points>
<DataArray  type="Float64"  NumberOfComponents="3"  format="ascii">25.17153902069803 21.37187163051845 31.75863278938518  24.49918996804868 22.34477442176161 31.66153451802225  25.19684902679132 22.32582027706873 31.82480021532898  24.43387587057572 21.88255476828181 32.33928630794578  23.6962127204534 22.39323790604518 32.91993982650639  23.76152681792637 22.85545755952497 32.24218803658285  24.459185876669 22.83650341483209 32.40545373388959  25.22215903288461 23.279768923619 31.89096764127279  24.52449997414197 23.29872306831189 31.72770194396605  23.82684091539933 23.31767721300477 31.56443624665931  20.57951927185059 24.54969024658203 33.47724914550781  21.17627785152622 24.37502363517125 33.89777267553252  20.91872761196323 24.56225851371129 34.04685295202177  20.64928436279297 24.13191032409668 33.62639999389648  20.83706951141357 24.36245536804199 33.32816886901855  20.71904945373535 23.71413040161133 33.77555084228516  20.98849270290561 24.14447859122594 34.19600380041044  20.90683460235596 23.94467544555664 33.47731971740723  21.09461975097656 24.17522048950195 33.1790885925293  21.25793595207587 24.57482678084055 34.61645675853573  22.01299095153809 21.58542060852051 31.81809997558594  22.35082776769964 20.66782773203496 31.63267221971084  22.33255049262085 21.47539444100649 31.48241655328502  22.42764337286322 21.16877282328252 31.88803186936904  21.93617534637451 21.08447551727295 31.56274032592773  21.85935974121094 20.58353042602539 31.30738067626953  22.25573488745728 20.97444934975893 31.22705690362681  22.84229579418835 20.75212503804452 31.95796376315214  22.74720291394599 21.05874665576849 31.55234844706812  22.65211003370362 21.36536827349246 31.1467331309841  21.02555084228516 21.73555946350098 38.83824920654297  21.42576808002104 21.98297004644493 38.21264661133343  20.94367889056583 21.70974326566972 38.18966419677272  21.09328383472075 22.09256439153771 38.48030103027875  21.35803508758545 21.6259651184082 38.57059478759766  21.69051933288574 21.51637077331543 38.30294036865234  21.27616313586612 21.60014892057695 37.92200977782741  21.16101682715635 22.44956931957444 38.12235285401452  21.01141188300142 22.06674819370645 37.83171602050849  20.8618069388465 21.68392706783847 37.54107918700247  21.69316836867363 24.90623215212227 38.34881842286892  21.66154800325296 25.06539928455861 39.08489021488018  21.26221017840602 24.95058784877177 38.8243132633503  21.59136135489696 25.36309933596594 38.680296642386  21.76335501702962 24.60853210071494 38.75341199536311  21.83354166538562 24.3108320493076 39.15800556785729  21.33239682676201 24.65288779736444 39.22890683584448  21.48955434112029 25.81996651980962 39.01177486190308  21.16040316462935 25.40745503261545 39.15579148286737  20.8312519881384 24.99494354542126 39.29980810383167  26.57981750704658 26.10975705909987 33.84616835647994  25.54482408203976 24.85551844338304 33.72862879439573  25.73937319151969 25.74516283037382 34.07412209872636  25.79668281341519 24.87520439658016 34.48058305410984  26.38526839756665 25.22011267210909 33.50067505214931  26.19071928808672 24.33046828511831 33.15518174781868  24.8989288759928 25.38056860164777 34.30207584097278  25.54180908203125 17.97483062744141 30.66127014160156  25.06361161367401 17.93725052573702 31.48615178157158  25.164107086299 18.55442246971517 31.20059365431804  25.60575075635596 17.88618447630148 31.27720401956945  24.9996699393493 18.02589667687695 30.87021790360369  25.77018790330566 18.4147102691397 31.60757977028381  25.70624622898096 18.50335642027963 30.99164589231592  25.87068337593066 19.03188221311785 31.32202164303028  24.45753079666735 18.07696272631249 31.07916566560581  25.66969243068067 17.79753832516155 31.89313789753734  22.631219182526 21.48009563474439 31.78496355478051  22.63170989356989 21.83784882469291 31.78624539416634  22.31165964144323 21.59012180225842 32.12064697708144  22.61032833134837 21.59482299599633 32.42319397857693  22.93037858347503 21.84255001843082 32.08879239566183  23.2504288356017 22.09027704086531 31.75439081274674  22.95126943465266 21.72782265717889 31.45056197186542  16.64666938781738 24.42576026916504 36.82028961181641  17.09893471551647 24.13726363011081 37.07926861861826  16.86502456665039 24.09090042114258 36.71417045593262  16.67603492736816 24.1666898727417 37.03069496154785  16.70540046691895 23.90761947631836 37.2411003112793  17.31728989434948 23.80240378208835 36.97314946273447  17.12830025506725 23.87819323368747 37.2896739683497  16.89439010620117 23.83183002471924 36.92457580566406  17.0833797454834 23.75604057312012 36.60805130004883  17.55120004321556 23.84876699105658 37.33824762542012  22.87566856684012 24.17115734261778 34.58684820605669  23.4584875427135 23.70598365188783 34.34211978842455  23.07254336006331 23.6311657170267 34.69275353934603  22.84138833619296 23.72205915067551 34.04848178711214  23.2616127494903 24.24597527747891 34.23621445513522  23.64755693214048 24.32079321234004 33.88558070421374  23.22733251884314 23.79687708553664 33.69784803619066  22.8071081055458 23.27296095873324 33.51011536816758  23.03826312941616 23.18206752508443 34.15438712040147  23.26941815328651 23.09117409143562 34.79865887263536  23.53030967712402 26.35837936401367 35.12905883789062  23.29870049506022 25.64328751053716 34.69976385765182  23.72607531932277 25.8113433778152 34.85481515970768  23.62098517802638 26.10576838849635 34.69537416544498  23.63539981842041 26.06395435333252 35.28849983215332  23.20802499415787 25.89589848605448 35.13344853009747  23.7404899597168 25.76952934265137 35.44794082641602  23.31311513545426 25.60147347537333 35.29288952436016  23.71166067892873 25.85315741297904 34.26168949299934  22.88574031119172 25.43341760809529 35.1378382223043  22.01181983947754 26.49728965759277 38.09389114379883  21.28794389135481 26.47753183298704 37.96025833626327  21.72749422647417 26.20515773428024 37.64685595313942  21.42273712555945 25.99509572817839 38.19316834271252  20.83365441164137 25.49290179876401 38.29244554162621  20.69886117743673 25.97533790357266 38.05953553517695  21.13841151255608 25.70296380486586 37.7461331520531  21.4431686134708 25.91302581096771 37.19982076248001  21.00361827835145 26.18539990967451 37.51322314560385  20.56406794323209 26.4577740083813 37.8266255287277  17.70092964172363 23.14414978027344 36.18904113769531  18.33704694188399 22.88966508945316 36.48625418100592  18.02392133153243 23.11862035831302 36.59177061472174  17.87735462188721 22.73342514038086 36.40437507629395  18.0140552520752 22.91519451141357 36.08352470397949  18.05377960205078 22.32270050048828 36.61970901489258  18.20034631169601 22.70789571842045 36.80710455332037  18.19048023223877 22.504469871521 36.29885864257812  18.32718086242676 22.68623924255371 35.97800827026367  18.34691302134123 23.09309093635261 36.99450009174817  20.82183074951172 22.44317054748535 39.3620491027832  20.99142378833403 22.44636993352989 38.74220097839886  20.47985911856127 22.09409455363997 38.77062169138668  20.92369079589844 22.08936500549316 39.10014915466309  20.64945215738358 22.09729393968451 38.15077356700234  20.58171916494799 21.74028901164778 38.50872174326656  20.13788748761082 21.74501855979458 38.17919427999016  23.20175933837891 21.92694091796875 38.45203018188477  23.54082436209887 22.17214905054384 38.04606327678447  23.3102240050432 22.3191541317206 38.3584488358665  23.62928009033203 22.15076065063477 38.30655479431152  23.43235969543457 21.77993583679199 38.13964462280273  24.05680084228516 22.37458038330078 38.16107940673828  23.73774475699633 22.54297386438662 38.21297344829325  23.8598804473877 22.00375556945801 37.99416923522949  23.66296005249023 21.63293075561523 37.8272590637207  23.4186886717075 22.71136734547246 38.26486748984823  20.95413017272949 23.47092056274414 39.89208984375  21.22377162867134 23.45365133870744 38.91302022484321  20.71576165977223 23.13983801412535 39.08463793563658  20.78191137138111 23.65371302175475 39.34965830611998  21.39599043001972 23.27085887969683 39.45545176247323  20.88798046112061 22.95704555511475 39.6270694732666  21.32984071841083 22.75698387206744 39.19043139198983  21.83785068730994 23.07079719664953 39.01881368119646  20.60969257003273 23.83650548076536 38.80722676848996  19.31633949279785 19.13689041137695 36.16645812988281  19.92317158994066 18.78287952401145 36.38630384590145  19.66180093106615 18.71719520546897 36.11777204658505  19.45464992523193 18.79357528686523 36.46781921386719  19.57771015167236 19.20257472991943 36.43498992919922  19.83908081054688 19.26825904846191 36.70352172851562  19.59296035766602 18.45026016235352 36.76918029785156  19.80011136350023 18.37388008095725 36.41913313056942  20.00726236933444 18.29749999956098 36.06908596328727  23.18206077939163 24.08595602919609 32.90872652081912  22.34948201301287 23.93002116696474 32.32903870476725  22.92081396339746 24.13393939697882 32.34952316502503  22.9700258212612 23.64231790449626 32.52681200475535  22.61072882900703 23.882037799182 32.88824206056134  22.03939687862244 23.67811956916791 32.86775760030356  22.39869387087661 23.43839967448217 32.50632754449757  22.75799086313078 23.19867977979643 32.14489748869158  22.70877900526704 23.69030127227899 31.96760864896126  22.65956714740329 24.18192276476156 31.79031980923094  21.47765922546387 23.95638084411621 32.52188110351562  21.96518422865857 24.23939365165223 32.6104250288423  22.06861318643358 24.06915180443889 32.15610045637328  21.68431540207929 24.37852428912638 32.43748678044834  21.75852805204315 23.81725020664206 32.69481935190959  21.8909715786947 24.80066773413655 32.35309245738105  22.275269363049 24.49129524944905 32.07170613330599  21.65279006958008 22.05249977111816 39.01139831542969  21.83950069584759 22.39910861795189 38.11520239870143  21.40690344836821 22.2510345453463 38.566875584
[...]
<PointData  Scalars="p"> 
<DataArray  type="Float64"  Name="p"  format="ascii">8.7580690490923434e+00  8.7733058645404842e+00  8.7605438601701522e+00  8.7611533036515521e+00  8.7647060221327848e+00  8.7748882068398952e+00  8.7628332665337378e+00  8.7623398399223245e+00  8.7745577665749668e+00  8.7860905251469870e+00  8.8096164438960969e+00  8.8000269580188757e+00  8.8050412667660520e+00  8.8028134140193242e+00  8.8042243180515545e+00  8.7964692783722231e+00  8.7995318332438810e+00  8.7974037586126883e+00  8.7994516443196975e+00  8.8007055144377997e+00  8.7900897067066897e+00  8.7948314530111809e+00  8.7972677010628182e+00  8.7885791932666777e+00  8.7958717838112950e+00  8.8053001942734372e+00  8.8044626203889305e+00  8.7846275447573596e+00  8.7933241296907294e+00  8.8029655342519622e+00  8.7955037506209166e+00  8.7887275357978947e+00  8.7917636502848815e+00  8.7941122860890726e+00  8.7902984794898735e+00  8.7844154244094295e+00  8.7860058962058165e+00  8.7934834420393599e+00  8.7909403284519669e+00  8.7881131206352325e+00  8.8088951427003011e+00  8.8126666219312604e+00  8.8143777650805433e+00  8.8152856254491443e+00  8.8066512356609739e+00  8.8043745189165872e+00  8.8117080596377058e+00  8.8214154803600788e+00  8.8202692407402310e+00  8.8191479992313475e+00  8.6945896147586534e+00  8.7246671798736113e+00  8.7129115641752293e+00  8.7045488479338928e+00  8.7085222795261341e+00  8.7217333264797503e+00  8.7329116863372462e+00  8.7663316514711180e+00  8.7562119416458533e+00  8.7605624391006121e+00  8.7472687200083268e+00  8.7726565131273979e+00  8.7358204252294573e+00  8.7524206892902328e+00  8.7421307390737368e+00  8.7781939331912948e+00  8.7304445461295792e+00  8.7896059694645157e+00  8.7899923242078852e+00  8.7849691899492264e+00  8.7793766941593958e+00  8.7828404765712200e+00  8.7861741918860687e+00  8.7939672456371998e+00  8.8402644730233781e+00  8.8353392266181086e+00  8.8361536240242895e+00  8.8375704982247463e+00  8.8348583075760043e+00  8.8312046420752957e+00  8.8327647028122271e+00  8.8333951402958331e+00  8.8320077150351075e+00  8.8304593201877069e+00  8.7732243132086936e+00  8.7608607434710777e+00  8.7658695553515997e+00  8.7729317049078119e+00  8.7681099851227522e+00  8.7635322737965389e+00  8.7696670416310578e+00  8.7739458008434106e+00  8.7661490458268165e+00  8.7587792450870836e+00  8.7763549101718858e+00  8.7748599433340893e+00  8.7652783737964253e+00  8.7701511907844854e+00  8.7716848666661580e+00  8.7797422640541978e+00  8.7667164929044095e+00  8.7752108406356744e+00  8.7671479627797257e+00  8.7824785741880582e+00  8.8215518624744043e+00  8.8280717143630092e+00  8.8196234943817640e+00  8.8220557840333260e+00  8.8225298278818105e+00  8.8285486372803401e+00  8.8205334673140090e+00  8.8178586712478850e+00  8.8266412219230350e+00  8.8350233363451860e+00  8.8231933488368597e+00  8.8162072002970380e+00  8.8208173204741556e+00  8.8185144787929843e+00  8.8188885763295630e+00  8.8139719339395075e+00  8.8162890125351954e+00  8.8135711060573279e+00  8.8135743039373242e+00  8.8186925740657625e+00  8.8021902938336414e+00  8.7980943262455220e+00  8.8012549698272142e+00  8.7989703870474134e+00  8.7963876668489807e+00  8.7973880698657378e+00  8.7992662950134708e+00  8.7728247808098327e+00  8.7647103314729442e+00  8.7727881185287497e+00  8.7678329502951460e+00  8.7649063032671126e+00  8.7614279326311006e+00  8.7676139777380477e+00  8.7579846977220122e+00  8.7557666839480834e+00  8.7728889043577141e+00  8.8065123424357541e+00  8.8024550330093234e+00  8.8053668657750492e+00  8.8085556438863346e+00  8.8009806718423480e+00  8.8039817248316190e+00  8.7981918463599822e+00  8.7949734346809532e+00  8.8103163441952397e+00  8.7642715761279764e+00  8.7615707683858197e+00  8.7616652708411493e+00  8.7616781844700800e+00  8.7647814956527217e+00  8.7652836355107357e+00  8.7596609307660653e+00  8.7595328528307466e+00  8.7592432591550384e+00  8.7788576906473139e+00  8.7932227684416553e+00  8.7884572222315320e+00  8.7833836989433038e+00  8.7849257877391427e+00  8.7886703806452822e+00  8.7875736116325704e+00  8.7879911380637843e+00  8.7932020290522033e+00  8.7983957187788935e+00  8.7975107002514896e+00  8.7961954535080302e+00  8.7983781306219537e+00  8.8012491695975399e+00  8.7929962072865582e+00  8.8035706681001820e+00  8.8003688036583103e+00  8.7916669175579791e+00  8.7863337842151843e+00  8.7924248693806764e+00  8.7885074034001249e+00  8.7857956480932042e+00  8.7815688476155014e+00  8.7787315873119276e+00  8.8372122162644065e+00  8.8333285503774235e+00  8.8316510990021726e+00  8.8334432366471614e+00  8.8354932990032076e+00  8.8372916205511576e+00  8.8334111751432332e+00  8.8352793894944242e+00  8.8299959528216192e+00  8.8370698202128288e+00  8.7181573770668539e+00  8.7138327576285945e+00  8.7174907937893646e+00  8.7259456897639662e+00  8.7818056101502897e+00  8.7778847348125115e+00  8.7779319713666641e+00  8.7761471688872508e+00  8.7709546709643380e+00  8.7729610860830789e+00  8.7721186953227601e+00  8.7733916411370050e+00  8.7741468201309551e+00  8.7745004055594400e+00  8.8511234724112846e+00  8.8441052989658804e+00  8.8434748323679777e+00  8.8450990687068600e+00  8.8501729241932754e+00  8.8444008060053978e+00  8.8380509273129704e+00  8.8387374709027604e+00  8.8490600284642333e+00  8.8392812530767095e+00  8.7389708502894496e+00  8.7456097129983412e+00  8.7556961608626569e+00  8.7555682321074393e+00  8.7261685500818142e+00  8.7369490330705872e+00  8.7441330196441864e+00  8.7332077432295598e+00  8.7410035193424580e+00  8.7391486191707113e+00  8.7245909112003321e+00  8.7453168273150563e+00  8.7330330669462963e+00  8.7374017684895904e+00  8.7289537443890683e+00  8.7170917184736627e+00  8.7281396012818355e+00  8.7504679485988444e+00  8.7773240061151743e+00  8.7740672851742403e+00  8.7805825634523806e+00  8.7755870021709246e+00  8.7704056392096401e+00  8.7733937733161476e+00  8.7788865571061567e+00  8.7689331744904599e+00  8.7646508668736871e+00  8.7838067462422309e+00  8.7743030477850876e+00  8.7763510268469496e+00  8.7712546349944365e+00  8.8143847617143898e+00  8.8164504181578565e+00  8.8168976384049387e+00  8.8114558567517651e+00  8.8389668335483034e+00  8.8339799581148473e+00  8.8370327622512885e+00  8.8355853394271939e+00  8.8296758229108026e+00  8.8325452311363737e+00  8.8272301448563848e+00  8.8422892581088508e+00  8.8348562701151625e+00  8.8408014252636740e+00  8.8397181145974510e+00  8.8372788707278360e+00  8.8381597766035025e+00  8.8432920843787919e+00  8.8446157917183097e+00  8.8370251096905914e+00  8.8291140450473655e+00  8.8255668547430552e+00  8.8270771588468371e+00  8.8281483973755694e+00  8.8265043680718058e+00  8.8300809195917420e+00  8.8236637760934808e+00  8.8308741418593986e+00  8.8287933441592799e+00  8.8270756129394581e+00  8.8418942908277689e+00  8.8428340284700813e+00  8.8424478071814843e+00  8.8401491338126093e+00  8.8447492132883454e+00  8.8380843600458121e+00  8.8396640862250919e+00  8.8477082410575552e+00  8.8384857604961820e+00  8.7713458702910057e+00  8.7694926217009179e+00  8.7605225070400277e+00  8.7728701101645896e+00  8.7749402952574087e+00  8.7565733261753511e+00  8.7629138192849911e+00  8.7554992167353447e+00  8.7539106168816208e+00  8.7531362552287160e+00  8.7758445561292628e+00  8.7806815203541611e+00  8.7816392581613982e+00  8.7781527304446261e+00  8.7800220207844966e+00  8.7816458884893258e+00  8.7832116885443501e+00  8.7866567492299730e+00  8.7855333028073321e+00  8.7655199257877623e+00  8.7700376255722308e+00  8.7728823124694273e+00  8.7701420125700480e+00  8.7648315005288637e+00  8.7721513802206630e+00  8.7774509477769840e+00  8.7750907827518638e+00  8.7397676668947764e+00  8.7564378145885904e+00  8.7494288703833671e+00  8.7475819224751703e+00  8.7289133742866607e+00  8.7328156049231556e+00  8.7355183886744481e+00  8.7427652569337102e+00  8.7513215727748097e+00  8.7661428794655407e+00  8.7488513547633087e+00  8.7432573887637766e+00  8.7558545517912947e+00  8.7473091269490055e+00  8.7406623253840099e+00  8.7363874812779319e+00  8.8349350979493462e+00  8.8309268661639209e+00  8.8313010545040580e+00  8.8332114368522223e+00  8.8313270407329334e+00  8.8295130480603117e+00  8.8297892424687046e+00  8.8288045546502403e+00  8.8281817683727599e+00  8.7739862409771039e+00  8.7773701969682598e+00  8.7460233343046188e+00  8.7469317805696303e+00  8.8298908485925374e+00  8.8321369872540032e+00  8.8339595946933382e+00  8.8305261418836398e+00  8.8284781620922193e+00  8.8347038528735933e+00  8.8136388775834504e+00  8.8106678859109522e+00  8.8091167449497814e+00  8.8165124428799846e+00  8.8156820758243679e+00  8.8176196627637289e+00  8.8123218549723124e+00  8.8180469357437250e+00  8.8190231322273398e+00  8.8052296442734672e+00  8.8173745651148607e+00  8.8143482431101727e+00  8.8141912241392131e+00  8.8141203486190491e+00  8.8143870970407274e+00  8.8169910325257543e+00  8.8167667308151447e+00  8.8120319517152392e+00  8.8115879421689325e+00  8.8109420237954659e+00  8.7942721478932757e+00  8.7967763318948666e+00  8.7986094108200508e+00  8.7959578857832259e+00  8.7957168477832113e+00  8.7930445361268568e+00  8.7565003385092322e+00  8.7468464351532180e+00  8.7674454674898019e+00  8.7780877158857304e+00  8.7674974265170604e+00  8.7572361056738490e+00  8.7322673346867852e+00  8.7435906351692498e+00  8.7551776649116508e+00  8.7176442401640344e+00  8.7376331404177350e+00  8.7214728354885374e+00  8.7372138184050723e+00  8.7294890184185192e+00  8.7193971520780416e+00  8.6995527612374453e+00  8.7302070917690653e+00  8.7319269501860290e+00  8.7086591783577472e+00  8.8275047330690732e+00  8.8269124470892422e+00  8.8282724425914694e+00  8.8277175367348395e+00  8.8265519245398156e+00  8.8243766668669448e+00  8.8257144523526563e+00  8.7774448798942277e+00  8.7726204417356612e+00  8.7760968799907175e+00  8.7746385965211751e+00  8.7740556258809725e+00  8.7708582772930264e+00  8.7716029848850017e+00  8.7718132834229756e+00  8.7730662692905046e+00  8.7855154004117111e+00  8.7775269344393863e+00  8.7826396725769094e+00  8.7813217397240848e+00  8.7797114087822763e+00  8.7776821418465829e+00  8.7764277002564270e+00  8.7790204352390937e+00  8.7759451101974655e+00  8.7792690584843562e+00  8.8129010845979039e+00  8.7967575774018787e+00  8.7985482528651584e+00  8.8032144375124410e+00  8.8064562805699271e+00  8.7923522072881912e+00  8.7941586118214410e+00  8.7894185064678325e+00  8.7838098296196048e+00  8.8253935131344630e+00  8.8148926190675976e+00  8.8230678659325736e+00  8.8178791667861720e+00  8.8218594455648578e+00  8.8275671501384494e+00  8.8305120413503495e+00  8.8347039109540013e+00  8.8192053126425023e+00  8.8108569385021820e+00  8.8117755094318984e+00  8.8041565746653632e+00  8.8068773252871075e+00  8.8020622636604902e+00  8.8063779479976620e+00  8.7982090687616736e+00  8.7944663848199340e+00  8.8026687773688099e+00  8.8500550058069898e+00  8.8457697931186932e+00  8.8453739827830713e+00  8.8491508936467476e+00  8.8466327670934710e+00  8.8459920968208490e+00  8.8424942899777328e+00  8.8431873576526066e+00  8.8438384632963345e+00  8.7636891105142620e+00  8.7674924877831142e+00  8.7682262375017235e+00  8.7715907907966599e+00  8.7599691018897321e+00  8.7588480785341432e+00  8.7696577857088638e+00  8.7709532034715636e+00  8.7700586711182247e+00  8.7683321487087458e+00  8.7228969785822983e+00  8.7440129746580535e+00  8.7408166060223422e+00  8.7285131890921033e+00  8.7456034277217256e+00  8.8232070954081721e+00  8.8200281665117757e+00  8.8241855530310467e+00  8.8172686548334731e+00  8.8192687078345937e+00  8.8151553058932919e+00  8.8130579070656836e+00  8.8175857255840171e+00  8.8250594099699047e+00  8.8055436326202070e+00  8.7953565408270187e+00  8.8032078157715059e+00  8.7999276634777193e+00  8.7985870000626676e+00  8.7923014368488985e+00  8.7971566912189836e+00  8.7912520747420295e+00  8.7896679586736415e+00  8.7726482140405579e+00  8.7787690370514451e+00  8.7792466006457488e+00  8.7758266645741703e+00  8.7734895693158208e+00  8.7674643136380226e+00  8.7703593356278216e+00  8.8369169503583294e+00  8.8389224454125834e+00  8.8415618993993181e+00  8.8431154135544912e+00  8.8158078737003809e+00  8.8141449445099820e+00  8.8127249954450111e+00  8.8125735693495919e+00  8.7548412077326034e+00  8.7374038078027318e+00  8.7487210020777297e+00  8.7403772550844732e+00  8.7438194059037997e+00  8.7319736470426133e+00  8.7274724273333391e+00  8.7222453211574429e+00  8.7327883182520729e+00  8.7423236872630348e+00  8.8063867693394080e+00  8.7951031328048064e+00  8.8015735158890323e+00  8.7973440013189617e+00  8.8001966668460447e+00  8.7918324231067349e+00  8.7907003923050766e+00  8.7934733792716226e+00  8.7963236913371343e+00  8.8340101155062598e+00  8.8286329526342584e+00  8.8314137118371541e+00  8.8289303678309317e+00  8.8318727323339061e+00  8.8292536042432950e+00  8.8261317744970071e+00  8.8236850695620355e+00  8.8261606485976749e+00  8.8287763771807999e+00  8.7190643518337065e+00  8.7270678329826552e+00  8.7383979849481097e+00  8.8356482524190945e+00  8.8339148041894262e+00  8.8370958890255515e+00  8.8364652648666411e+00  8.8332820393775382e+00  8.8302249722783603e+00  8.8296617605699979e+00  8.8328810367862545e+00  8.8387455804482187e+00  8.8400355067865615e+00  8.8339286796411312e+00  8.8283728710446780e+00  8.8249005763100445e+00  8.8219581754394305e+00  8.8130595421307554e+00  8.8150189283564302e+00  8.8152832545052515e+00  8.8145047389214302e+00  8.8139188730951119e+00  8.8128667111553085e+00  8.8118428921086807e+00  8.8581977185260072e+00  8.8525498934829212e+00  8.8479763147861057e+00  8.8508793838893656e+00  8.8434405646811260e+00  8.8463910623141242e+00  8.8418573608970341e+00  8.8476576931089674e+00  8.7493109197640138e+00  8.7555361342327789e+00  8.7551023185428871e+00  8.7608339964049335e+00  8.7648688945139330e+00  8.7653102768374946e+00  8.7600739977711939e+00  8.8349521548997565e+00  8.8242281235897551e+00  8.8381584759003822e+00  8.8244520075159336e+00  8.8378141930221190e+00  8.8274514756942768e+00  8.8148640934051397e+00  8.7689100487952274e+00  8.7685290308337027e+00  8.7718482335182895e+00  8.7704176356210244e+00  8.8237466754521776e+00  8.8130671407762726e+00  8.8208089603812319e+00  8.8177072976743833e+00  8.8082310356798157e+00  8.8162370521597815e+00  8.8108413445996021e+00  8.8024561469637863e+00  8.8481502942423234e+00  8.8245660730562143e+00  8.8322810651364652e+00  8.8425698776437294e+00  8.8308233947611701e+00  8.8148962500523123e+00  8.8184038151400568e+00  8.8365871951672652e+00  8.8276616158260737e+00  8.8197377205470779e+00  8.7537989709923920e+00  8.7672767531496874e+00  8.7531605050759378e+00  8.7487243776611869e+00  8.7390682087735030e+00  8.7447788894267084e+00  8.7596579436421322e+00  8.7735253766761261e+00  8.7972086257617317e+00  8.7994416885381064e+00  8.7921927416429853e+00  8.7951874489414532e+00  8.8039898306532987e+00  8.7907596685109617e+00  8.7873342537554944e+00  8.8221832694227249e+00  8.8174113146795641e+00  8.8174441576068894e+00  8.8179484040953255e+00  8.8226673040758445e+00  8.8179829811443966e+00  8.8137175291872918e+00  8.8130444433407593e+00  8.8120248744247043e+00  8.8441021646003737e+00  8.8384661435330241e+00  8.8462045010347587e+00  8.8396886176119001e+00  8.8459136934676046e+00  8.8521772055349519e+00  8.8064510213239462e+00  8.8004125319246960e+00  8.8001290506915844e+00  8.8060965635966948e+00  8.8000140425429141e+00  8.7993475244650998e+00  8.7897325124039991e+00  8.7913092260528796e+00  8.7921023726052638e+00  8.8067688269353805e+00  8.8450675574385080e+00  8.8525132883195496e+00  8.8461049378341610e+00  8.8533379107909962e+00  8.8514552267278219e+00  8.8478385282897296e+00  8.8412998756217291e+00  8.7855731225837506e+00  8.7680526241140111e+00  8.7690320980936676e+00  8.7818444873032604e+00  8.7710522665314734e+00  8.7525756583519900e+00  8.7532624901126113e+00  8.7821699025798594e+00  8.7687119599949046e+00  8.8266350798167785e+00  8.8284801841834337e+00  8.8305298292630816e+00  8.8260577633238917e+00  8.8227926460119015e+00  8.8251254672013868e+00  8.8036222269864250e+00  8.7999860779976533e+00  8.8085565804573083e+00  8.8094366103255979e+00  8.8110829888124318e+00  8.8019868690466883e+00  8.7847069828106896e+00  8.7823277639789961e+00  8.7842673531118418e+00  8.7861199016764520e+00  8.7854274978866798e+00  8.7824153137854477e+00  8.7789865796338624e+00  8.7876496843007423e+00  8.7875591565652886e+00  8.7867622285056441e+00  8.8360213758972854e+00  8.8366194450990871e+00  8.8344057730569574e+00  8.8241454152719605e+00  8.8246735051096916e+00  8.8236526950201046e+00  8.8358145811348976e+00  8.8368258951163963e+00  8.7433160862941381e+00  8.7456849573832489e+00  8.7510287032651739e+00  8.7477231837001206e+00  8.7396385398603957e+00  8.7528012479551691e+00  8.7629254078968604e+00  8.7599570183744149e+00  8.7944078790956794e+00  8.7885632821900188e+00  8.7855559338553526e+00  8.7935686938749740e+00  8.7860761041495099e+00  8.7881783116530823e+00  8.7947627308306053e+00  8.8219912605828839e+00  8.8185169045446816e+00  8.8207173845718287e+00  8.8196145609953511e+00  8.8212197462193682e+00  8.8201492345163892e+00  8.8195830752355473e+00  8.8171417666310283e+00  8.8178973407927064e+00  8.8190693927081050e+00  8.8202018324248428e+00  8.8151165975286876e+00  8.8176523936810316e+00  8.8166540606615253e+00  8.8218194832372436e+00  8.8205867857662366e+00  8.8193984806251766e+00  8.8204680986112294e+00  8.8183220886914739e+00  8.8193527635434794e+00  8.8215361049947312e+00  8.8063014138670042e+00  8.8023254497712013e+00  8.7980386524684935e+00  8.7996777540148923e+00  8.7955974120982106e+00  8.8016304647846511e+00  8.8060295164821820e+00  8.8179373991642258e+00  8.8138421436700476e+00  8.8134142198286174e+00  8.8053784150915764e+00  8.8093793990190452e+00  8.8084059164652757e+00  8.8094697839948921e+00  8.8027699951403964e+00  8.8041367149022989e+00  8.8045119679611155e+00  8.7713060565713761e+00  8.7637641243692155e+00  8.7694475452780605e+00  8.7709278365710297e+00  8.7764432305455351e+00  8.7744750484941338e+00  8.7851157200275978e+00  8.7890141800851023e+00  8.7825097739637297e+00  8.7696302136426620e+00  8.7772864242236110e+00  8.7784282322606497e+00  8.8107312409890550e+00  8.8077498387150150e+00  8.8059803671537580e+00  8.8078216310872062e+00  8.8051497682641724e+00  8.8030020506566711e+00  8.8048929808338912e+00  8.8030994546596020e+00  8.8014455720940230e+00  8.7444694425168610e+00  8.7472453602208766e+00  8.7547962731766660e+00  8.7897057158209204e+00  8.7958882854199718e+00  8.8028457524600068e+00  8.7952271779376083e+00  8.7957044742854453e+00  8.7897998543190905e+00  8.7900450440823938e+00  8.7914190482413410e+00  8.7845405819906297e+00  8.7903368486251772e+00  8.7855518977711018e+00  8.7903187253469675e+00  8.7827183948784828e+00  8.7802188294785211e+00  8.8455328665422019e+00  8.8403894128453668e+00  8.8449073312624229e+00  8.8339863315679885e+00  8.8304355555146845e+00  8.8365492688668006e+00  8.8448195988654223e+00  8.8200115463409592e+00  8.8267273386276237e+00  8.8213377402358581e+00  8.8152463069492661e+00  8.8082999298576183e+00  8.8557832561713692e+00  8.8261319748041736e+00  8.8231887253873769e+00  8.8238849709193286e+00  8.8241132404360378e+00  8.8252442258495023e+00  8.8229921948582692e+00  8.8222145981496283e+00  8.8223033430258635e+00  8.7730899396891608e+00  8.7771835915561827e+00  8.7800542613416557e+00  8.7801737443787413e+00  8.7701610301160891e+00  8.7819676264212809e+00  8.7842453864269068e+00  8.8219330005917360e+00  8.8156418289423861e+00  8.8101197738713317e+00  8.8166662056909697e+00  8.8073164407502595e+00  8.8106163629652929e+00  8.8113842068842221e+00  8.8085285725784725e+00  8.8099027947953257e+00  8.8070481781092269e+00  8.7674304187046701e+00  8.7690256203734886e+00  8.7736424376231845e+00  8.7705380780651065e+00  8.7694317209773622e+00  8.7716538860446196e+00  8.8131987352343621e+00  8.8120918251090199e+00  8.8123617240101719e+00  8.8161196342248296e+00  8.8129334854303618e+00  8.8154714441320063e+00  8.8160190648148955e+00  8.8119986382265107e+00  8