<?xml version="1.0"?>
<VTKFile type="UnstructuredGrid"  version="0.1"  >
<UnstructuredGrid>
<Piece  NumberOfPoints="9186" NumberOfCells="43486">
<Points>
<DataArray  type="Float64"  NumberOfComponents="3"  format="ascii">29.02260971069336 3.265836954116821 8.659585952758789  28.68072972685949 4.191055667254791 8.6610037678109  28.48051611381509 3.726881976354489 9.061823191132717  29.23205183473167 3.829210003884282 8.781824901045546  29.24128034572556 3.928409362751441 9.304883272654118  29.03183822168726 3.36503631298398 9.182644324367363  29.04106673268116 3.464235671851138 9.705702695975935  29.44149395876997 4.392583053651744 8.904063849332301  29.31929492950439 3.592437505722046 8.390876293182373  29.05589674439964 4.04085954097077 8.406835868300185  29.61598014831543 3.919038057327271 8.122166633605957  29.5287370535427 4.155810555489508 8.51311524146913  29.14313983917236 3.804087042808533 8.015887260437012  28.39644770349909 3.703986896351759 10.17237686770985  28.48248991281296 3.192774472650582 9.568818232530846  28.2104481832873 3.667359873153087 9.703585302991126  28.40604372988198 4.968822261807485 9.447062505814801  28.92376884432598 4.680702657729615 9.175563177573551  28.44442802887525 4.945285484000683 8.732687456735851  28.96215314331925 4.657165879922812 8.461188128494602  29.04939623809198 4.420393381760576 8.070239520631429  28.79140472578143 5.397348291737851 8.815180868578274  29.30912984022543 5.10922868765998 8.543681540337026  29.39579963684082 4.03805148601532 7.731686353683472  29.17561912536621 4.157064914703369 7.341206073760986  28.95392779567597 2.45059828091901 9.808669991902116  28.43892044431036 2.685955777184518 9.620301880493937  28.4390405169079 3.129499112398928 10.1709482367055  28.99749726417856 2.957416976385074 9.757186343939026  28.39547104840531 2.622680416932865 10.22243188466859  28.5168590819839 2.126278060475741 9.80402921914094  28.72355523128157 4.216528966829312 9.576382600895368  28.43634986877441 2.389190912246704 8.974467277526855  28.69513883222519 2.419894596582857 9.391568634714485  28.47326140181906 3.093575113783424 9.045759860922274  28.73870830072779 2.926713292048921 9.340084986751396  28.72947978973389 2.827513933181763 8.817026615142822  28.0789362020995 4.456280191329933 10.04305677262928  26.93115043640137 0.09558500349521637 11.23824977874756  27.02332286374709 0.4297156454588298 11.01693980916977  27.24493980407715 0.09558500349521637 10.96585988998413  26.87936496734619 0.09558500349521637 10.70306491851807  27.55872917175293 0.09558500349521637 10.6934700012207  27.33711223142287 0.4297156454588298 10.74454992040635  27.11549529109282 0.7638462874224433 10.79562983959199  36.97725296020508 7.657073974609375 16.62412071228027  36.27681054841196 7.243386293977848 16.59957587740569  36.5541803699241 7.655425316427521 16.29996618401393  36.63018438068379 7.169638752987604 16.42580012640725  36.62387912793325 7.73082151559962 16.79789646327871  36.27050529566142 7.804569056589864 16.97167221427714  36.20080653765227 7.729172857417765 16.47374193501237  36.28311580116251 6.682203531365832 16.22747954053423  36.20711179040282 7.167990094805749 16.10164559814091  36.13110777964312 7.653776658245667 15.9758116557476  28.7326602935791 5.373396873474121 16.42074012756348  29.90504493264899 5.043331996096364 16.0046686601737  29.35110035724355 5.652447490716221 16.38499537441905  29.36549127203113 5.043803276145034 16.60028689196498  29.27221395419696 5.372925593425451 15.82512189577219  29.81176761481482 5.372454313376782 15.22950366398091  29.89065401786141 5.651976210667551 15.78937714262776  29.99832225048316 4.714209678815946 16.77983365636649  29.98393133569558 5.322853893387133 16.56454213882056  29.96954042090799 5.931498107958321 16.34925062127462  29.73995585345849 2.827532549386091 15.09661670670637  30.20745382881412 3.279744548482891 15.17569990108892  30.17592305520448 3.157758227502194 14.40848386552146  29.66236270463298 3.503934951706247 14.45501426388896  29.58476955580748 4.180337354026403 13.81341182107154  30.12986067998862 3.956146950803046 14.53409745827151  30.09832990637898 3.83416062982235 13.76688142270405  30.61189025695047 3.487983905618298 13.72035102433655  30.64342103056012 3.609970226598994 14.48756705990401  30.67495180416977 3.73195654757969 15.25478309547147  31.91144943237305 2.339658975601196 19.53720092773438  32.14377215062935 1.626757479422876 19.09780506099942  31.87154772435981 1.910113490336725 18.94653514827969  32.12172224675972 2.198017454856225 19.14185527767422  31.66127490997314 2.051755011081696 19.34188079833984  31.93349933624268 1.768399000167847 19.49315071105957  31.41110038757324 1.763851046562195 19.14656066894531  31.68332481384277 1.480495035648346 19.29783058166504  31.9555492401123 1.197139024734497 19.44910049438477  32.33199506114638 2.056375934111254 18.74650962761408  32.01638849884263 10.94415653337042 18.71429619226365  31.80202787269122 11.64934605648538 18.72971969087406  31.39637473887368 11.39099897307935 18.67787566138295  31.54072164357586 11.29342244496143 18.2879218038427  31.06505478830908 11.64268835655244 17.86154741542174  31.32636101742445 11.9986119680764 18.3033453024531  31.83727073669434 5.94587516784668 9.903904914855957  31.80095460203334 4.917285718528886 9.805437864395294  31.88179526190238 5.592696275269144 9.508146875300286  31.47337588257482 5.73966836794555 9.749411008988185  31.7564300768253 5.270464611106421 10.20119590395097  31.10948102845531 5.533461568044419 9.594917103120412  31.51790040778287 5.386489475368014 9.353652969432513  31.39253522270578 5.064257811205291 10.04670199808319  31.67558941695626 4.595054054366163 10.49848689304597  31.92631978711043 5.239517382691608 9.112388835744614  33.66269113524577 10.41941581896145 16.1872750518054  34.51257216519637 9.147500162689679 16.29123360399012  34.00158963525544 9.87421264297954 16.71904418482102  34.77062048619443 10.14674117197533 16.18802862693577  34.17367366518671 9.692703338671594 15.7594644709745  35.8785498371431 9.874066524989214 16.18878220206615  35.1095189862041 9.60153799599342 16.7197977599514  35.28160301613538 9.420028691685474 15.76021804610487  34.68465619512765 8.965990858381733 15.3316538901436  34.3404881352651 9.329009466997626 17.25081331783665  35.72824859619141 3.347516059875488 10.73729991912842  34.5903672576871 3.191334292577545 10.43564967662728  35.3404318142391 3.214414428478016 10.15183964962546  35.14063550429587 3.795051077398827 10.57941109303094  34.9781840396394 3.324435923975018 11.02110994613024  34.55302241240032 4.242586094922165 10.42152226693347  34.39057094774386 3.771970941498356 10.86322112003277  34.75281872234356 3.661949446001354 9.993950823527985  34.2281194830874 3.301355788074547 11.30491997313206  34.9526150322868 3.081312797080543 9.566379380122504  37.27751922607422 9.205104827880859 18.16254997253418  36.85466759299714 9.123039818994888 17.69136974408658  37.19546890258789 8.865790367126465 17.9483003616333  37.39109420776367 9.17716121673584 17.74263954162598  37.50466918945312 9.14921760559082 17.32272911071777  36.96824257468659 9.095096207849869 17.27145931317838  37.30904388427734 8.837846755981445 17.5283899307251  37.11341857910156 8.52647590637207 17.73405075073242  36.77261726951081 8.783725358240494 17.4771201331857  36.43181595992006 9.040974810108917 17.22018951563899  27.84638023376465 3.018855094909668 15.57118034362793  28.49146478091023 2.953562880904627 15.53736526023722  28.23042652402533 2.898942094101097 15.15318771990275  28.17106697354925 3.221794586433556 15.47120281847453  28.16677804112562 2.750623389380739 15.63734278539063  28.2261375916017 2.427770897048281 15.31932768681885  27.90573978424072 2.696002602577209 15.25316524505615  27.9650993347168 2.373150110244751 14.93515014648438  28.4871758484866 2.482391683851811 15.70350522715333  28.49575371333386 3.424734077957444 15.37122529332112  34.51340866088867 3.277384042739868 14.99810028076172  33.8783575288502 3.233252016496486 15.52547317807127  34.2833800240256 3.664624876341021 15.69439231439641  34.18493186015249 3.482285919812686 15.04981825509018  34.20683432958639 3.028350139423668 15.4737552037428  34.61185682476178 3.459722999268203 15.64267434006794  34.71030498863489 3.642061955796538 16.28724839937417  34.30528249345949 3.210689095952003 16.11832926304903  33.90025999828409 2.779316236107468 15.94941012672389  33.85645505941631 3.687187796885504 15.10153622941865  35.67391967773438 3.380683898925781 19.82760047912598  35.44046315683921 3.533854694540253 19.3815694661331  35.27791318430504 3.366345138723603 19.76765497638701  35.37808015381758 3.369618946724517 19.12660268024216  35.83646965026855 3.548193454742432 19.44151496887207  35.99901962280273 3.715703010559082 19.05542945861816  35.54063012635176 3.537128502541167 18.74051716998825  35.08224062990078 3.358553994523253 18.42560488135834  34.98207366038824 3.355280186522339 19.06665717750319  34.8819066908757 3.352006378521424 19.70770947364804  30.66105060917977 1.2538045479248 17.22466111480534  30.02479598461392 1.676526154523867 16.90021129455039  30.56454382858405 1.762593453003184 16.83815332288983  30.35426630440109 1.796109199628955 17.4581354993762  30.0474819996224 2.338413851333109 17.69160988394707  29.71801167983524 2.218830806228022 17.13368567912125  30.25775952380537 2.304898104707338 17.07162770746069  30.46803704798833 2.271382358081568 16.45164553097431  29.9282892040182 2.185315059602251 16.51370350263487  29.38854136004807 2.099247761122934 16.57576147429543  33.90008163452148 2.941236019134521 13.32433032989502  33.73697284916356 3.208347721874546 12.78340508969913  33.21595274138139 3.453222188754244 13.1610219640355  33.97345542907715 3.218916535377502 13.08137035369873  34.04682922363281 3.496597051620483 12.83841037750244  33.81034664371922 3.486028238117527 12.54044511350284  33.28932653593705 3.730902704997225 12.91806198783921  32.53182384824128 3.965208358373967 12.997
[...]
<PointData  Scalars="p"> 
<DataArray  type="Float64"  Name="p"  format="ascii">8.5851093880833158e+00  8.5911227106663368e+00  8.5963743404437594e+00  8.5751999123472764e+00  8.5732994919252867e+00  8.5812248605119610e+00  8.5785416577713285e+00  8.5665796420465234e+00  8.5755979380551608e+00  8.5808882292048274e+00  8.5624071124998533e+00  8.5642172329818820e+00  8.5812845297566263e+00  8.5921813048576325e+00  8.5943473639845003e+00  8.5995381757207561e+00  8.5967209443415538e+00  8.5821809858049019e+00  8.5966769498361142e+00  8.5813249305820563e+00  8.5795727210814796e+00  8.5868968349742740e+00  8.5695196327094560e+00  8.5699853633783736e+00  8.5781521664280280e+00  8.5828956048943041e+00  8.5962989070405360e+00  8.5916832549668296e+00  8.5805540905631723e+00  8.5932427757380658e+00  8.5947449722747731e+00  8.5867992975370555e+00  8.6014299486729087e+00  8.5920742928024474e+00  8.5984279263703005e+00  8.5896996321621621e+00  8.5938206719098780e+00  8.6010104865984971e+00  8.6153603067556084e+00  8.6163765584966843e+00  8.6130325155291061e+00  8.6217164767089063e+00  8.6101052476713988e+00  8.6137658275876934e+00  8.6174377573729917e+00  8.3978159724879866e+00  8.4079561266332501e+00  8.3885609686727864e+00  8.3967563597082950e+00  8.4062327643168153e+00  8.4156818391778661e+00  8.4006125948601298e+00  8.3974968802829597e+00  8.3910313564130572e+00  8.3842643807443498e+00  8.6199645572072736e+00  8.5793792626462775e+00  8.5998682776074045e+00  8.6052638102987764e+00  8.5904973120281589e+00  8.5712053232432641e+00  8.5757941656188930e+00  8.5858222616721740e+00  8.5831446132892317e+00  8.5808681110046585e+00  8.5779148109193919e+00  8.5678802948037340e+00  8.5615678572496048e+00  8.5704118959453783e+00  8.5654529972110858e+00  8.5613277154361285e+00  8.5566973370624879e+00  8.5473855051374859e+00  8.5515311308344764e+00  8.5566527235200400e+00  8.5326892536377823e+00  8.5372889323991910e+00  8.5425670972147554e+00  8.5352156727941910e+00  8.5412904902841031e+00  8.5356319932895062e+00  8.5519128086622214e+00  8.5437709808649309e+00  8.5372748979219697e+00  8.5352535006305583e+00  8.5315592849469670e+00  8.5388507590484686e+00  8.5481297110019945e+00  8.5376985688656202e+00  8.5439476992340531e+00  8.5438687295462010e+00  8.4937402214301940e+00  8.4944056298327038e+00  8.4870987163349270e+00  8.5062667287304592e+00  8.4979568783079689e+00  8.5170337602654556e+00  8.4998500076279324e+00  8.5095416813201563e+00  8.5036541595995985e+00  8.4833502263417397e+00  8.4316613643408402e+00  8.4230856732888544e+00  8.4409953406361460e+00  8.4019740926267907e+00  8.4135112089195854e+00  8.3761065072791663e+00  8.4142436827199543e+00  8.3827709506085242e+00  8.3943020714135912e+00  8.4492614145995635e+00  8.4301681835683624e+00  8.4478036941586847e+00  8.4370738280021591e+00  8.4231774625325375e+00  8.4388644479463419e+00  8.4238958646456421e+00  8.4391091843438115e+00  8.4339919470512204e+00  8.4549800263900803e+00  8.4424086813374739e+00  8.4237125845364336e+00  8.4152008122608066e+00  8.4240197195820343e+00  8.4078533954284236e+00  8.3936531267649688e+00  8.4007911782244324e+00  8.4081924395616578e+00  8.4235399064115644e+00  8.4143003030702470e+00  8.4078059419549653e+00  8.6248065020502835e+00  8.6107573620781714e+00  8.6043315216648519e+00  8.6145065458453640e+00  8.6207220163510314e+00  8.6100265072660740e+00  8.6117559354377011e+00  8.6014567883143691e+00  8.6157803820979382e+00  8.6053110955246357e+00  8.4812010050432427e+00  8.4950335868752553e+00  8.4808325654409646e+00  8.4813919787113150e+00  8.4931027330536182e+00  8.4784345372395666e+00  8.4802749101638621e+00  8.4918970989683942e+00  8.5028743806998772e+00  8.4842988702401438e+00  8.5045826670171163e+00  8.5028050618930475e+00  8.5057612961939952e+00  8.5023165807663421e+00  8.5018818425957985e+00  8.4987540757835145e+00  8.4986213200781080e+00  8.4996970569001284e+00  8.5040650301362106e+00  8.5073956534259505e+00  8.5803514657471176e+00  8.5957300889350918e+00  8.5792506742345740e+00  8.5895573199779616e+00  8.5992579331712022e+00  8.6070399617698392e+00  8.5882589485551186e+00  8.5772749175212066e+00  8.5931116880021463e+00  8.6102044404743943e+00  8.4921693286487123e+00  8.4811269175390063e+00  8.4890663466546492e+00  8.4822685581083448e+00  8.4685823740225121e+00  8.4699334398723778e+00  8.4804289224242222e+00  8.4965111145229031e+00  8.4840376825807624e+00  8.4727509409900765e+00  8.5257233408931228e+00  8.5201088148778226e+00  8.5269020575020757e+00  8.5294758993945887e+00  8.5188677274274980e+00  8.5320655838883201e+00  8.5296743908731596e+00  8.5220938344311605e+00  8.5124261932505085e+00  8.5271013579571218e+00  8.5167829796175401e+00  8.5187897992789683e+00  8.5167886008488178e+00  8.5184526534282501e+00  8.5197507528079690e+00  8.5188275380152643e+00  8.5203631629917993e+00  8.5185247872553731e+00  8.5165855696136621e+00  8.5214835263719184e+00  8.5867628443464010e+00  8.5824182526998847e+00  8.5723452341624373e+00  8.6026144554603530e+00  8.5688118849588957e+00  8.4683241545863286e+00  8.4574303334273413e+00  8.4683504389149409e+00  8.4586258776352121e+00  8.4500806406746705e+00  8.4485626928137201e+00  8.4601452046752410e+00  8.4696519479508368e+00  8.4594677557989204e+00  8.4473883468891859e+00  8.5698230793704671e+00  8.5672899001154921e+00  8.5766553867003701e+00  8.5754542422006494e+00  8.5738106073716267e+00  8.5838880376376956e+00  8.5841348813474880e+00  8.5754659179112682e+00  8.5651297273729572e+00  8.4479616191593063e+00  8.4233627869001246e+00  8.4132898364120248e+00  8.4354844620959213e+00  8.4259030740812531e+00  8.4349168732445268e+00  8.4058819997141274e+00  8.4142677196792270e+00  8.4229467533175910e+00  8.4226430647889838e+00  8.4004698257375452e+00  8.3845563508377108e+00  8.3828815329449728e+00  8.3902377496352329e+00  8.3799141230515346e+00  8.3745205529195630e+00  8.3756028217629375e+00  8.3724021196350620e+00  8.3722914388220779e+00  8.3712899821642317e+00  8.5630416728457135e+00  8.5712927535076204e+00  8.5706099009021006e+00  8.5638856585846792e+00  8.5727059672836692e+00  8.5725276440218696e+00  8.5787023902334365e+00  8.5780726964720788e+00  8.5778103916680131e+00  8.4825969103828811e+00  8.4762658499116501e+00  8.4835521005416172e+00  8.4781549459620020e+00  8.4732339688711953e+00  8.4553250376771203e+00  8.4724799551661452e+00  8.4677623598695639e+00  8.4777360738916840e+00  8.4859281061320111e+00  8.5929309167646011e+00  8.5856239358053568e+00  8.5845516675633924e+00  8.5855020282497581e+00  8.5957187214449071e+00  8.5995044052670071e+00  8.5858438958842189e+00  8.5798140615055054e+00  8.5791609449172057e+00  8.5778464380576374e+00  8.4952589720411584e+00  8.4959104377362422e+00  8.4991566554049474e+00  8.4967067367307862e+00  8.4948700772219823e+00  8.4978191528098801e+00  8.4998295428838997e+00  8.4973143219213494e+00  8.4942031618708587e+00  8.4995969906277402e+00  8.5241078740839438e+00  8.5302552750763638e+00  8.5098918651936639e+00  8.5038223582500017e+00  8.5186680454118306e+00  8.5238361275576491e+00  8.5443331270622238e+00  8.5380324303091832e+00  8.5322261804405191e+00  8.4944599570865762e+00  8.4737965948766458e+00  8.4797475504634434e+00  8.4721773607110862e+00  8.4485698610451863e+00  8.4573601212974712e+00  8.4655012429618175e+00  8.4577868268289809e+00  8.4686442923811676e+00  8.5082778827645402e+00  8.4966699304651794e+00  8.4879565302766089e+00  8.4899395591958093e+00  8.5106724439036210e+00  8.5120645247685385e+00  8.5156133471753304e+00  8.5049360965032399e+00  8.5217679145500131e+00  8.4673639452744265e+00  8.4659217398083388e+00  8.4669966823272755e+00  8.4653806271361773e+00  8.4664904747520389e+00  8.4616788980561424e+00  8.4632243316479379e+00  8.4635855209472748e+00  8.4656497304339329e+00  8.4666064446746763e+00  8.4772970145768838e+00  8.4703009609660977e+00  8.4622515461085985e+00  8.4646131314389059e+00  8.4706096163976063e+00  8.4835172594094370e+00  8.4802857631205804e+00  8.6302415591362323e+00  8.6453079984963619e+00  8.6358055942362633e+00  8.6471750982051372e+00  8.6371335915125318e+00  8.5751825664508452e+00  8.5836838532278872e+00  8.5784936638453448e+00  8.5721235586554450e+00  8.5779709364981507e+00  8.5729223467415068e+00  8.5735115409085960e+00  8.5789412197473887e+00  8.5776174524430395e+00  8.5779338306072077e+00  8.5780476026577972e+00  8.5799057014043338e+00  8.5749383945855691e+00  8.5675403567908663e+00  8.5808758317247609e+00  8.5790849045518787e+00  8.5788235757635452e+00  8.5809683224767124e+00  8.5799161182873043e+00  8.5774493294032421e+00  8.5785310511453776e+00  8.5785564495545223e+00  8.4701562180827459e+00  8.4814250333949577e+00  8.4810498940885282e+00  8.4821133823446306e+00  8.4918540856930864e+00  8.4894802705351822e+00  8.4900351876324862e+00  8.4913779064956305e+00  8.4892730207204732e+00  8.4880856714671591e+00  8.5242309858559189e+00  8.5175351146195784e+00  8.5185282797636095e+00  8.5210382098813966e+00  8.5174593043329132e+00  8.5143462029463137e+00  8.5165849815187276e+00  8.5140895236118137e+00  8.5129014080599976e+00  8.5101271704473849e+00  8.5564333076359951e+00  8.5407835462840165e+00  8.5566005084930055e+00  8.5427880213362393e+00  8.5522633876056986e+00  8.5683554548444345e+00  8.5642469113859718e+00  8.5494944480981481e+00  8.5886010767503791e+00  8.5876560123004406e+00  8.5796629526945356e+00  8.5778208876132354e+00  8.5785730159870592e+00  8.5787153845541031e+00  8.5765268587157308e+00  8.5552064777205601e+00  8.5613203413043859e+00  8.5658165529864121e+00  8.5629711236701844e+00  8.5508540534114807e+00  8.5461039636329197e+00  8.5578712190088915e+00  8.5715693833484643e+00  8.5747165278521180e+00  8.5562319987101230e+00  8.5468614486384595e+00  8.5588952689060207e+00  8.5449469702693222e+00  8.5468093597908581e+00  8.5366363867858865e+00  8.5369388672033679e+00  8.5367592369520970e+00  8.5467059800552665e+00  8.5590811770611559e+00  8.5307905471229972e+00  8.5260996810901108e+00  8.5282370085784027e+00  8.5254940367665526e+00  8.5264131908334431e+00  8.5237127964377830e+00  8.5207181475939890e+00  8.4083997087133664e+00  8.3983281196268376e+00  8.3774038750603754e+00  8.4009615784501239e+00  8.4058817062945224e+00  8.3833794426085984e+00  8.3848654397723426e+00  8.3568149032229577e+00  8.4042153398023984e+00  8.3933330104287531e+00  8.5526635523626027e+00  8.5164040448897147e+00  8.5270977680520836e+00  8.5216584054314470e+00  8.5398124640190076e+00  8.4895148915317638e+00  8.4965134627532741e+00  8.5126194161747186e+00  8.5026230569168533e+00  8.5108392541954956e+00  8.5260920110974165e+00  8.5025544042350933e+00  8.5179135669066763e+00  8.5337300722447047e+00  8.5191359070387911e+00  8.5029401543052821e+00  8.5181818962656877e+00  8.4881702103465670e+00  8.4806319540723525e+00  8.4665359239984284e+00  8.4079975843302019e+00  8.4472151437013849e+00  8.4259612530427894e+00  8.4270565862544711e+00  8.4430540713302253e+00  8.4466831424317022e+00  8.5998287133619140e+00  8.5900356011265497e+00  8.5939336674053806e+00  8.6027201158882942e+00  8.5979140388524868e+00  8.5920229146893181e+00  8.5874575385525826e+00  8.5770671015886535e+00  8.5701169515363702e+00  8.5593181761897057e+00  8.5673449887939483e+00  8.5810846302339225e+00  8.5625320737328732e+00  8.5495934971234728e+00  8.5418539612372957e+00  8.3710974910420290e+00  8.3596451426397973e+00  8.3610816060660422e+00  8.3636783721338919e+00  8.3554221124143240e+00  8.3480272567199130e+00  8.3502114314888995e+00  8.3464235074274740e+00  8.3448667554915019e+00  8.3452450125283821e+00  8.5523235329668559e+00  8.5442196370904995e+00  8.5389226878917270e+00  8.5505202501845758e+00  8.5493185153910751e+00  8.5325733407628679e+00  8.5427621872097337e+00  8.5373622946129721e+00  8.5255708187204391e+00  8.5377416178279599e+00  8.6084732884361106e+00  8.5884832220036067e+00  8.5941340705021094e+00  8.5965760693857423e+00  8.5966584247293643e+00  8.5931481110841741e+00  8.6049385794980022e+00  8.6023486970557173e+00  8.5877884668532811e+00  8.5827799280133092e+00  8.5967416840695563e+00  8.5984814951267392e+00  8.6018064206980398e+00  8.6072525603994183e+00  8.6068729099535304e+00  8.6029637917052177e+00  8.5988520325043574e+00  8.5575325690179227e+00  8.5592892199873329e+00  8.5701324712061062e+00  8.5619131908349697e+00  8.5644144876751138e+00  8.5545138563559853e+00  8.5783674935627534e+00  8.5620614170044025e+00  8.5512082396515545e+00  8.5619002311857919e+00  8.3710241202580189e+00  8.3708422388090256e+00  8.3706718855337225e+00  8.3706833915703154e+00  8.3691294509313803e+00  8.3696984446370717e+00  8.3700354287019412e+00  8.3704013594365385e+00  8.3702672929957966e+00  8.3702742444202869e+00  8.3863693465865801e+00  8.3949071499324539e+00  8.3801744376914069e+00  8.3954068779776279e+00  8.4008965798562052e+00  8.3796807707225405e+00  8.3649135330114532e+00  8.5219280391698931e+00  8.5251245890900158e+00  8.5210738005762519e+00  8.5172700327719983e+00  8.5205908640075627e+00  8.5265604442405838e+00  8.5303130390357058e+00  8.5129283811943548e+00  8.5155724376575872e+00  8.5188887245937899e+00  8.5239052806542226e+00  8.5099606667820709e+00  8.5066784262453314e+00  8.5172675141191458e+00  8.5130457634009904e+00  8.5155517142529806e+00  8.5031071453791629e+00  8.5057458609752921e+00  8.5108457008033938e+00  8.5076408378466173e+00  8.5713727739310528e+00  8.5611457849310408e+00  8.5603554999749427e+00  8.5399155449964450e+00  8.5425050535386369e+00  8.5326755224756674e+00  8.5395040177078503e+00  8.5392875559785288e+00  8.5423099632557342e+00  8.5325240254310462e+00  8.5257668270665992e+00  8.5338731929906313e+00  8.5441298839528326e+00  8.4931718042405802e+00  8.4826700469441523e+00  8.4992960986553303e+00  8.4912721113686374e+00  8.4838845179487912e+00  8.4988624467169593e+00  8.5062682584322609e+00  8.4919686935889409e+00  8.3934760433346938e+00  8.3890905832958325e+00  8.3879268434707939e+00  8.4151486758471385e+00  8.4358914205505808e+00  8.3799679709479484e+00  8.4108079122303572e+00  8.4096029133367693e+00  8.3862893358929416e+00  8.3831166447111709e+00  8.5858079834477277e+00  8.5853862463909660e+00  8.5830469786117582e+00  8.5825532044550972e+00  8.5890724245205323e+00  8.4980002666874555e+00  8.4890615731108650e+00  8.4945348178918128e+00  8.4966429052943742e+00  8.4881741240806949e+00  8.5001425004087121e+00  8.5006990876626070e+00  8.5042635000038516e+00  8.4963635157837309e+00  8.5759519328493141e+00  8.5836487950831852e+00  8.5880324414336435e+00  8.5959413067492338e+00  8.6164475498778330e+00  8.6009993265923743e+00  8.6077454226498844e+00  8.5994264151139124e+00  8.5931366428641098e+00  8.5876680051480836e+00  8.5225729558959653e+00  8.5121432913345654e+00  8.5180585580997068e+00  8.5303402519382789e+00  8.5365595744168150e+00  8.5254788292855963e+00  8.5198965960328721e+00  8.5400995030904205e+00  8.4239295458958754e+00  8.3992114104812696e+00  8.4207282784417679e+00  8.4348028773463302e+00  8.4193852464925811e+00  8.4271119396872969e+00  8.4351408551521487e+00  8.4281802736844273e+00  8.4644479072525804e+00  8.4555224049973390e+00  8.6016060245937620e+00  8.5927724310060025e+00  8.5853253885828149e+00  8.5164214999559817e+00  8.5203233025186087e+00  8.5234685457721167e+00  8.5204117633788101e+00  8.5261912952661500e+00  8.5293502581661844e+00  8.5332263847094794e+00  8.5302937409272896e+00  8.5250236996133424e+00  8.5431222486703131e+00  8.5549577457156598e+00  8.5606036353965624e+00  8.5556467636996452e+00  8.5458002837513849e+00  8.5413594609975974e+00  8.5488828147390983e+00  8.5522118352148180e+00  8.5414749558043344e+00  8.5685587233661380e+00  8.4267843805315312e+00  8.4329518640951306e+00  8.4063067659800677e+00  8.4236867728680807e+00  8.4432441080186766e+00  8.4678217742544817e+00  8.4518246612500949e+00  8.5490720494105492e+00  8.5601112059124169e+00  8.5515618313908668e+00  8.5489936770715627e+00  8.5839632002006727e+00  8.5940839308595329e+00  8.5848043548618200e+00  8.5623594299458858e+00  8.5505128139917641e+00  8.5646678458450065e+00  8.5482079419121817e+00  8.5462387033687648e+00  8.5521881305353560e+00  8.5325100965300873e+00  8.5307993177646928e+00  8.5913613175668395e+00  8.5879729311515636e+00  8.5692857965363753e+00  8.5838766871663132e+00  8.6039345776367533e+00  8.5764279055798056e+00  8.5959579710912841e+00  8.5275431142379166e+00  8.5205119125655635e+00  8.5214791168154918e+00  8.5230205312836134e+00  8.5280004670924328e+00  8.5172515645592011e+00  8.5176919528171862e+00  8.5065041426246601e+00  8.5105088128194879e+00  8.5073710902143400e+00  8.5305505423487222e+00  8.5509037820166451e+00  8.5286087305120688e+00  8.5273511708002765e+00  8.5052165160563842e+00  8.5057696180466014e+00  8.5949688631434356e+00  8.5730849358805781e+00  8.5757373911944565e+00  8.5545839687462060e+00  8.5695265409283810e+00  8.5747333965259145e+00  8.5488594329317564e+00  8.5945566715863535e+00  8.5901355501952334e+00  8.5759810286086431e+00  8.5802386927406999e+00  8.5732229388000274e+00  8.5908850415672120e+00  8.5768552428061309e+00  8.5648114355484068e+00  8.5629538544570458e+00  8.5875922020233180e+00  8.5604760776132576e+00  8.4960533366886608e+00  8.4936368938352835e+00  8.4920529831819564e+00  8.4949519938061560e+00  8.4944106365869363e+00  8.4960452998097313e+00  8.4915156960768474e+00  8.4936821021055220e+00  8.4937684376587708e+00  8.6004577657325374e+00  8.6098350913157997e+00  8.6010726192251745e+00  8.6076084108973347e+00  8.5999649657070609e+00  8.6235145659253565e+00  8.6165174552366111e+00  8.5979269860696821e+00  8.6209006393110652e+00  8.6164351183274945e+00  8.6142660844121171e+00  8.5948449236286724e+00  8.5314312285364711e+00  8.5228787095677632e+00  8.5247435519329269e+00  8.5220226696372006e+00  8.5141769522163191e+00  8.5138689231738205e+00  8.5151698375422242e+00  8.5177825056911391e+00  8.5159093052227330e+00  8.5133070274116402e+00  8.5252681532537249e+00  8.5214156594686941e+00  8.5194687039880925e+00  8.5240586183677962e+00  8.5229211055173515e+00  8.5167774338736013e+00  8.5205993359424728e+00  8.5190943421655483e+00  8.5155584907639916e+00  8.5483890437591530e+00  8.5232872121751875e+00  8.5361583967324304e+00  8.5433107191374322e+00  8.5347810069274725e+00  8.5199365099075290e+00  8.5294645860520273e+00  8.5372834989377449e+00  8.5306111683604477e+00  8.3417379932126057e+00  8.3571679616984813e+00  8.3379431709066569e+00  8.3557053442102553e+00  8.3632606635017588e+00  8.3556243558551255e+00  8.3641215956659440e+00  8.3531759587623249e+00  8.3351283071460109e+00  8.3977212210324588e+00  8.3764305381200543e+00  8.3807664183189186e+00  8.3848015168757382e+00  8.3836393568811420e+00  8.3931813695908613e+00  8.3904467579133222e+00  8.3812529358374199e+00  8.3761186388168483e+00  8.5080912450570576e+00  8.5133444363071167e+00  8.5080423913877095e+00  8.5125209584665580e+00  8.5099509407423763e+00  8.5105567398768986e+00  8.5086898448766224e+00  8.5133426148518172e+00  8.5086763702838670e+00  8.4736814642648799e+00  8.4673361064385908e+00  8.4818698348771822e+00  8.4673690033400959e+00  8.4615124721932755e+00  8.4753566861391203e+00  8.4595054765663047e+00  8.4779972416206917e+00  8.4929553489086143e+00  8.4594130003562960e+00  8.5941644590583124e+00  8.5852388599498184e+00  8.6149302084064328e+00  8.5997336332450054e+00  8.6048959648689802e+00  8.5790219053339953e+00  8.5518210089355122e+00  8.5538333576076901e+00  8.5716297108834301e+00  8.5686675351120840e+00  8.5770090266874988e+00  8.5568915153180907e+00  8.5735121236118061e+00  8.5377883586375667e+00  8.4037794472944221e+00  8.4135491192468006e+00  8.3961128829196614e+00  8.4199892568381269e+00  8.4212982537958361e+00  8.4040475056402428e+00  8.3873872115305037e+00  8.5506919867035975e+00  8.5583535063977649e+00  8.5517486317486231e+00  8.5530598552731298e+00  8.5550078877878466e+00  8.5607419125936630e+00  8.5534488221010196e+00  8.5528164329975436e+00  8.5591808751273533e+00  8.5654777110781346e+00  8.5454266858944923e+00  8.5363039484983627e+00  8.5332365472736420e+00  8.5470901485284276e+00  8