<?xml version="1.0"?>
<VTKFile type="UnstructuredGrid"  version="0.1"  >
<UnstructuredGrid>
<Piece  NumberOfPoints="9227" NumberOfCells="42768">
<Points>
<DataArray  type="Float64"  NumberOfComponents="3"  format="ascii">19.40954971313477 14.31272029876709 13.88391971588135  20.00424751421072 13.93679655303782 14.05610550330634  20.11594185014822 14.18865144958323 13.77122057364936  19.82915195604421 14.2779468368513 14.10443056510444  19.58464527130127 13.97157001495361 13.83559465408325  19.69633960723877 14.22342491149902 13.55070972442627  19.98312950134277 14.13412952423096 13.21749973297119  19.87143516540527 13.88227462768555 13.50238466262817  19.75974082946777 13.63041973114014 13.78726959228516  20.24875419895367 14.24317337493551 14.32494141432753  20.96870994567871 14.49787044525146 14.86553955078125  20.81843170305349 14.08623159637278 14.29821575568671  20.83277210374929 14.45902145614451 14.17830074714179  20.60873207231619 14.37052191009349 14.59524048255439  21.17840957641602 14.21358013153076 14.56851482391357  21.19274997711182 14.58636999130249 14.44859981536865  21.38810920715332 13.92928981781006 14.2714900970459  20.50835037231445 15.07583045959473 14.21920013427734  20.37855228563406 14.65950191726512 14.27207077430243  20.73853015899658 14.7868504524231 14.5423698425293  20.96257019042969 14.87534999847412 14.1254301071167  20.62925910949707 13.59749031066895 14.85933017730713  20.67330080846968 13.72667416884062 14.25192593627926  20.43900665422537 13.92033184280223 14.59213579581733  21.0086841583252 13.7633900642395 14.56541013717651  20.48304835319798 14.04951570097391 13.98473155478946  20.7173425074423 13.8558580270123 13.64452169525139  19.88565063476562 13.14120006561279 14.34031009674072  20.30149657110396 13.49852904631255 13.99241589599606  20.06720241685964 13.69218672027415 14.33262575553412  19.8226957321167 13.38580989837646 14.06378984451294  20.23854166845503 13.74313887907622 13.71589564376827  19.96633052825928 13.11969518661499 13.8681001663208  20.38217646459761 13.47702416731475 13.52020596557614  19.90337562561035 13.36430501937866 13.59157991409302  20.15350914001465 14.83041954040527 13.62502002716064  20.621062127553 14.61599672546214 13.9125307886457  20.43542582372847 14.34313878370879 13.63477086120602  20.20113166948416 14.53679645767039 13.97498072074409  20.79898452758789 14.04768037796021 14.86243486404419  19.43717956542969 15.21207046508789 13.99969005584717  19.78152942657471 14.57156991958618 13.754469871521  19.84296688219167 14.7276219200117 14.16231573508735  19.79534435272217 15.02124500274658 13.81235504150391  19.42336463928223 14.76239538192749 13.94180488586426  20.33092975616455 14.953125 13.92211008071899  20.7508602142334 15.03232526779175 13.85966014862061  20.5734395980835 14.90961980819702 13.56257009506226  20.99337005615234 14.98882007598877 13.50012016296387  20.06831932067871 14.48227453231812 13.42125988006592  20.25745487213135 13.36934518814087 14.59982013702393  20.35023600439253 13.99499377562163 13.43101071411129  20.01506996154785 13.61615991592407 13.30669498443604  19.97276496887207 15.14395046234131 14.10944509506226  16.48814010620117 5.9986891746521 17.41315078735352  16.69874118073033 6.764173010290438 17.18753369211612  17.00106681300383 6.289826001830788 17.24595949407105  16.43344459325141 6.348514212362848 17.06824503544741  16.7534366936801 6.414347972579689 17.53243944402222  16.68107471257514 6.223992241613947 16.78176508549624  17.01873328115902 6.830006770507279 17.65172810069093  16.37874908030164 6.698339250073596 16.72333928354131  16.51400947570801 7.477042198181152 15.16186046600342  16.7414082846472 7.468749256298188 15.75878828659914  16.78563499450684 7.20356559753418 15.21862506866455  16.43357467651367 7.148510694503784 15.34356021881104  16.35313987731934 6.819979190826416 15.52525997161865  16.66097348545286 7.14021775262082 15.94048803940676  16.7052001953125 6.875034093856812 15.40032482147217  17.05726051330566 6.930088996887207 15.27538967132568  17.01303380344603 7.195272655651215 15.81555288926027  16.9688070935864 7.460456314415223 16.35571610719487  17.78648124048057 9.858344835370129 17.03853609428483  17.3908863140166 9.461490064715676 16.12868571923319  17.21227077538634 9.650064204779422 16.50916194423516  17.57934199824205 9.282158523410816 16.78182119418962  17.59802555625512 10.03767637667499 16.3854006193284  17.40956987202968 10.21700791797985 15.73226514437196  17.0238150911609 9.829395746084284 15.85602646927873  17.37220275600353 8.705972211451503 16.52510629409441  17.00513153314782 9.073877892820109 16.25244704413995  16.63806031029212 9.441783574188715 15.9797877941855  16.79165744036291 8.397419859559937 15.49756029304464  16.30905607613984 8.662207047574169 15.96613371204367  15.86038309742952 8.504953454031869 15.71113979367683  16.26618589661719 8.762348123332025 15.48368012524823  16.71485887532751 8.919601716874325 15.73867404361507  16.38585464117524 8.140025190259781 15.72501996147324  15.98005184198756 7.882630520959624 15.95247962990184  15.74071435287147 9.127276387104114 15.46979995745182  16.1893873315818 9.284529980646415 15.72479387581866  15.86233043670654 6.070728778839111 18.26729965209961  16.4097286720758 6.297267365737241 18.62193312137549  16.41526556015015 6.026811838150024 18.27617454528809  16.13336038589478 5.981541395187378 18.73207473754883  16.40439033508301 5.892354011535645 19.19684982299805  19.34057998657227 10.81406021118164 16.77936935424805  19.13441296203834 10.73449887604847 16.02235533291282  19.43691806574604 10.55945960369568 16.2345653050033  18.98700256927711 10.63086404175892 16.46691490704001  19.4879903793335 10.91769504547119 16.33480978012085  19.63540077209473 11.02132987976074 15.89025020599365  19.58432845850727 10.66309443798523 15.79000573087611  18.63342515198195 10.44766787233619 16.15446045983198  19.08334064845088 10.37626343427295 15.92211085779527  19.53325614491981 10.30485899620972 15.68976125575856  16.8272933325598 6.80300113694394 16.19333332672976  16.36594447881049 6.759159220450006 16.12429962757998  16.51945972442627 6.482762575149536 15.77810525894165  16.6857795715332 6.145545959472656 16.03095054626465  16.53226432591742 6.421942604773126 16.37714491490298  16.67377808694402 7.07939778224441 16.53952769536809  16.23916053771973 10.34796047210693 14.98511028289795  16.85699497600788 9.568383051437619 15.29342411330979  16.43861042400592 9.894872023147824 15.48244903854172  16.22843551635742 9.82091760635376 14.93985509872437  16.65754508972168 10.02147150039673 14.79608535766602  16.21771049499512 9.293874740600586 14.89459991455078  16.42788540264362 9.367829157394651 15.43719385436814  16.64682006835938 9.494428634643555 14.75083017349243  17.07592964172363 9.694982528686523 14.60706043243408  16.58559201957298 9.357183009644896 16.88613683354039  16.95266324242868 8.989277328276291 17.15879608349485  17.1598024846672 9.565463640235603 17.41551098359006  16.53312372885384 9.272582445101078 17.79248587289528  15.9899374452956 9.737618429605524 15.22745512017489  15.9792124239333 9.21057556385235 15.1821999360013  16.03396987915039 5.9947829246521 16.47372055053711  16.22869968414307 6.240474462509155 15.77525520324707  16.3598747253418 6.070164442062378 16.25233554840088  16.19355487823486 6.407381057739258 15.99949026107788  15.90279483795166 6.165092945098877 15.9966402053833  16.06237983703613 6.577691078186035 15.52240991592407  15.77161979675293 6.335402965545654 15.51955986022949  16.88023226697465 7.92893808698758 15.92663820011975  17.15479127489258 7.589697994134706 15.35853123562651  16.65283345803546 7.937231028870545 15.32971037952403  16.24703065884778 7.679836359570388 15.55717004795263  16.47442946778698 7.671543417687424 16.15409786854836  18.53993034362793 11.10188007354736 17.43795967102051  18.40998741606347 11.28567314379443 16.69985937367714  18.18261238554589 11.12064314120044 17.20375417958535  18.58667774780494 10.77477397294178 16.79621006542624  18.76730537414551 11.26691007614136 16.9340648651123  18.99468040466309 11.43194007873535 16.4301700592041  18.2293597897229 10.79353704059485 16.56200457399108  18.81405277832252 10.93980397553577 16.29231525951804  17.82529442746384 11.13940620885352 16.96954868815019  16.26632946874293 7.920729993264263 17.37474438422044  16.1794004611446 7.29048488551661 16.33790945672158  16.32253927452228 7.309534621668929 17.04904183388088  16.61756828116466 7.690593153839743 16.86523024570765  16.12319065536524 7.901680257111943 16.66361200706114  18.06135966278749 9.844492349871423 16.030172242981  18.24981534701293 9.665160808566563 16.68330771793744  18.20995319623126 10.15300635385316 16.59649827705841  18.02149751200582 10.33233789515802 15.94336280210197  18.67328730276362 9.959822327049594 16.24126990071101  18.7131494535453 9.471976781762997 16.32807934159004  17.01151941489848 6.610949810205414 16.54615981798712  17.33151151532717 6.676783570422256 17.01035422656192  16.99377018737271 7.145231542461252 17.0037221039429  19.07651270354119 10.08023580668725 16.37609158667996  18.88304730041725 10.33743895859851 16.85500027233542  18.9402551651001 10.9579701423645 17.10866451263428  18.83629989624023 10.6645450592041 17.49674987792969  17.30088043212891 10.66452980041504 14.82439994812012  17.70301014811201 10.18435873727972 15.02675755311249  17.24274975687666 9.955995223333186 15.16966278840302  17.35522515207929 10.44076885919744 15.27833254624604  17.53619003295898 9.923346042633057 14.46415519714355  17.64866542816162 10.40811967849731 14.57282495498657  17.18840503692627 10.17975616455078 14.7157301902771  17.99645042419434 10.15170955657959 14.32124996185303  16.24279022216797 8.285923957824707 14.94649982452393  16.11142103207776 8.084277239392165 15.44948972721289  16.51722383126544 8.341671908692323 15.22203005878428  16.37839984893799 7.88148307800293 15.05418014526367  15.79804992675781 7.337471961975098 15.05687046051025  16.166
[...]
<PointData  Vectors="u"> 
<DataArray  type="Float64"  Name="u"  NumberOfComponents="3" format="ascii">4.4089059403509088e+02 -1.6924537486433536e+02 -2.6709937843943999e+02  3.3059690083361869e+02 -1.3466021712564367e+02 -3.7278890377765470e+02  3.1545418144128143e+02 -1.5232617623163671e+02 -3.9392814650373180e+02  3.2484397042993203e+02 -1.6382838122596286e+02 -3.1146394012146197e+02  4.2905739200944635e+02 -1.2053274727046579e+02 -3.9765967266129599e+02  3.7717677870086339e+02 -1.3573263924671627e+02 -4.5946022833021169e+02  1.3777229985052580e+02 -1.0114581397422549e+02 -5.0571932549050524e+02  3.7296126952609649e+02 -2.0671235646188623e+02 -4.5798622332826397e+02  4.0146811366971258e+02 -2.2735016034587522e+02 -4.5805359862922694e+02  2.9265066722996954e+02 -1.4778883505865738e+02 -3.4337953277694817e+02  2.3784434093696368e+02 -1.8296428824422421e+02 -5.1531578033590961e+02  3.1606479127557338e+02 -1.5939183108030309e+02 -3.5054881972280060e+02  3.2027498111696946e+02 -9.1747767517672060e+01 -3.7388535270778749e+02  2.6353525511385988e+02 -1.5261303901311308e+02 -3.8177295418594264e+02  2.8889884775743593e+02 -1.7969777480277261e+02 -3.9192729686387059e+02  2.6205295860590110e+02 -3.0657761237550421e+01 -4.4023802798599161e+02  3.8480855927876468e+02 -1.7610635407328741e+02 -3.2393340455740974e+02  3.4876643799209830e+02 -3.2501579051815185e+02 -4.2332282347788731e+02  3.1342516831433494e+02 -1.7900578632761844e+02 -3.7251671976036658e+02  3.5850739621605294e+02 -2.4313162299493069e+02 -5.0135343808979923e+02  4.1977727782268801e+02 -2.9115994999124798e+01 -3.3267459231649786e+02  3.0364404251440800e+02 -1.2248080647233829e+02 -5.0068641833895185e+02  2.8817503027639879e+02 -1.7364881912425679e+02 -3.7950257480831385e+02  2.8121445770730526e+02 -1.2684294070687632e+02 -3.8587021675610652e+02  3.2903755723348831e+02 -1.5002213977716735e+02 -3.9463106351273933e+02  2.8938877008479818e+02 -1.5043435300901987e+02 -3.5390084869349965e+02  2.4081994362524642e+02 -1.4126878492022919e+02 -2.9013062734755158e+02  4.8952367691749856e+02 -1.3911840570612600e+02 -5.3062016570819276e+02  2.9644761766421232e+02 -2.2733097632811433e+02 -3.6517273263794209e+02  3.2928763615308668e+02 -1.3120828359740662e+02 -3.6288333045546005e+02  4.7339591257142160e+02 -2.3974494595262388e+02 -5.2080451579516227e+02  2.6966843232126558e+02 -1.7683207434789352e+02 -3.6784548545298776e+02  2.1259840736717464e+02 -2.8668046485349078e+02 -4.2945001554534480e+02  1.9338670035061514e+02 -1.8279672396615612e+02 -3.1633363998216038e+02  2.1781439387262816e+02 -2.6675837421173293e+02 -4.1343266509506662e+02  3.9402356929275442e+02 -1.4230989407021193e+02 -5.2920402583754219e+02  3.0878413221444640e+02 -1.0766507550203848e+02 -3.8954409663080935e+02  2.6683475224711839e+02 -1.0588194760341558e+02 -3.7293888792882711e+02  3.4115251991062615e+02 -1.7122901834771940e+02 -3.6523288866081350e+02  2.4679594631183394e+02 -1.3289032547538065e+02 -4.9939020263101395e+02  2.4837389762958415e+02 -2.2682825517828601e+02 -6.8984730000313760e+01  4.3951401931375790e+02 -2.7958676824199989e+02 -3.8826681338104220e+02  3.1700928334324288e+02 -2.1568591968928399e+02 -2.5277372900099536e+02  4.5388127626398830e+02 -2.7716571358962875e+02 -2.2435244176674954e+02  3.8935797240940593e+02 -2.0448455822678238e+02 -1.3022803947339872e+02  4.6020965848014185e+02 -2.1064720624965250e+02 -4.8156324711091946e+02  3.2882668827307208e+02 -1.6912483440544936e+01 -4.3971823344449570e+02  2.5305532244549570e+02 -1.3144701451744435e+01 -4.3658050176475160e+02  2.5862644432813130e+02 -5.3135102095165321e+00 -3.1302793820778442e+02  2.9672130252850116e+02 -6.4141078778067012e+01 -5.5499567157816989e+02  3.9898662455458424e+02 -9.8460948520630836e+01 -5.5352585419733305e+02  2.1339122321503609e+02 -1.2940658219318800e+02 -3.5647243753249711e+02  1.0835642941646694e+02 -1.9359755790682755e+02 -4.5229997106686693e+02  2.8040551169680862e+02 -3.7960630894761840e+02 -2.4564181597076200e+02  3.9300442069765296e+02 -5.9004048837457866e+01 3.4723388155254071e+01  3.2470272000855857e+02 -7.3788501347283301e+01 3.2688181404445928e+01  3.4463689175268104e+02 -1.0727987293515541e+02 -3.4577166833342354e+00  3.8548670033353329e+02 -5.7030823916478070e+01 5.6778163336668165e+01  3.1957552386659637e+02 -7.8054357500020799e+01 2.8157824577671995e+01  4.1918907751393937e+02 -1.0512012691300282e+02 2.3636800633532676e+01  2.7797898615043670e+02 -8.3295666309155877e+01 1.6424492404575059e+01  3.9411772416326630e+02 -4.5870448465334512e+01 6.0349456820175931e+01  5.4582155154787358e+02 -1.1567065266821032e+01 -2.6751486011366030e+01  4.1194911179247521e+02 -6.0075092741268293e+01 -2.4356687538363161e+01  4.8967919259113063e+02 -1.1200864443119686e+02 -1.0547378372879236e+02  6.2432940623103741e+02 -4.7928717800322481e+01 1.2885017815916715e+01  5.9127030571107389e+02 2.4603269426219427e+01 6.3131541704497103e+01  4.3005756648051823e+02 -6.0359472941109431e+01 -1.7376033719369602e-01  5.6537357599418874e+02 -8.1500464916965882e+01 -6.8186965276931858e+01  4.3793175917639883e+02 -1.7225515211477074e+02 -1.5168203080210353e+02  3.9607089211159160e+02 -9.2790168598867055e+01 -4.7108471074262887e+01  3.3654585862233722e+02 -7.3075235794965778e+01 -8.4522244251749736e+00  2.1946232757211050e+02 -1.1335653382359662e+02 -4.0926634070105749e+01  2.6346846173078774e+02 -8.8779001511545587e+01 -5.0696892095593647e+01  2.4708576941712448e+02 -8.8976583891358700e+01 -3.1297474302235671e+01  2.4268964956283637e+02 -9.4373319486847194e+01 -3.3655727578247252e+01  2.3610713029089695e+02 -1.0728377826256792e+02 -5.0648470654517787e+01  2.5702066219476097e+02 -1.0691394143416510e+02 -6.7430328381219724e+01  2.7415519132704969e+02 -8.3582777353632849e+01 -4.6559196263150490e+01  2.6905429873893570e+02 -8.0924135540126358e+01 -2.9161920855848507e+01  2.7975796054648714e+02 -7.2058128403525231e+01 -2.5845856165676292e+01  2.9225653227480166e+02 -6.3425684217094748e+01 -1.9957534093787011e+01  3.6003520104134236e+02 -5.1116105758145856e+01 -5.2078370639102808e+01  3.3263578294268956e+02 -3.6769185287162230e+01 1.1595842052197144e+01  3.6809538854190180e+02 -6.0818125470945255e+00 5.5315787485372191e+01  3.7356253385246390e+02 -2.7720956070123925e+01 -7.6136281963592500e+00  3.2325587149951349e+02 -5.4894112753179868e+01 -3.1942284057561768e+01  3.7998783809531778e+02 -2.5040424307029252e+01 5.4570766340451131e+00  3.7444526985493314e+02 -2.5819541030592852e+00 6.6087244138397409e+01  3.6300417025888544e+02 -1.0872259305372973e+01 4.5247643363301250e+01  3.2828034785603342e+02 -3.9939475847479720e+01 1.1915136599053680e+00  2.2362625885486341e+02 -2.4777117000945076e+01 1.6218923083614888e+02  2.1057053994999833e+02 -4.7514531796627971e+01 6.6886332511549540e+01  2.5077548248374495e+02 -1.2489306326958195e+01 8.1431122928507691e+01  1.7409579418496932e+02 -3.9538813964041005e+01 9.0042277788462059e+01  1.8177069653672132e+02 -7.6612632236386517e+01 4.4425268248555632e+01  2.6642551278347401e+02 -1.7952403610512008e+02 -9.6203156365936124e+01  2.7761183740340209e+02 -1.7712420844109525e+02 -1.1708475234820195e+02  2.8185535136589249e+02 -1.4849889270158619e+02 -1.1125974574276634e+02  2.4875258522402586e+02 -1.6791346054300331e+02 -9.2852214082836937e+01  2.9909521168540789e+02 -2.1079675232166952e+02 -1.2092542436473789e+02  3.4507654362135253e+02 -1.5611632419491437e+02 -1.6027736601363853e+02  3.0886185961956909e+02 -1.3138330793279096e+02 -1.3719312686720093e+02  2.4472007086222618e+02 -1.4989029315621363e+02 -8.8512120652752742e+01  2.6846180743349322e+02 -1.3660119367332544e+02 -1.0835066198344381e+02  2.8123061226367349e+02 -1.0765324651792717e+02 -1.2367137642565206e+02  4.2261529302531409e+02 -9.1050873905291027e+01 -9.5529119134258682e+00  4.6235000461256379e+02 -1.7540727981678391e+01 7.2724784014124978e+01  6.8293878948636268e+02 1.7019550193788863e+01 8.2001461086353586e+01  5.8341445859210648e+02 -1.9470431857983360e+02 -5.7691516591885481e+01  4.7377071152503117e+02 -7.2549034864873718e+01 4.6659702487538674e+01  3.6424272957171524e+02 -6.5540695071870985e+01 2.5055099560362304e+01  3.4247735772356282e+02 -7.3681740214953095e+01 -5.3410716497834258e+01  3.0870389644416542e+02 -7.3489384587584141e+01 -8.3017482431986451e+01  3.0858438384420731e+02 -6.2834532195797095e+01 -3.9401231948028936e+01  3.9924640217879795e+02 -5.1325938272596758e+01 -8.4333790586997367e+01  3.0655842580094941e+02 -9.1846320990122649e+01 -1.2019243275646407e+02  4.4727254901207419e+02 -3.0899650337241447e+01 -7.9821846944981786e+01  3.4198617536226311e+02 -4.9832338680256427e+01 -3.9225177793136218e+01  3.3037748593150360e+02 -6.4980959961263167e+01 -1.3099669148517467e+02  3.1648669622833307e+02 -8.8195131408686095e+01 -1.4322609337615108e+02  2.4536991720878697e+02 -7.2153224094930053e+01 1.0987263508739009e+01  2.3852046060689645e+02 -7.9941576848893064e+01 2.5405737188344610e+00  2.1414666760433462e+02 -9.5584700188826616e+01 -9.1017222393658539e+00  2.0135599261337359e+02 -8.3526286374572621e+01 2.9126102615119709e+01  3.6313831711461154e+02 -3.1397432991572234e+01 -3.4436626510794128e+00  4.0579160960806894e+02 -1.3764261220031486e+01 1.4819052247883736e+01  5.7471010336044844e+02 3.2781016833595423e+01 1.3921773050436133e+02  5.1901975129817697e+02 -3.0197394018759709e+01 2.1626096630816150e+02  5.6620206894260548e+02 -5.4509854453075519e+01 9.3058564808243077e+01  5.2581004350121350e+02 -5.4606221218056064e+00 1.4431579714472650e+02  6.0267050708685235e+02 1.4555712170221474e+02 1.6021780108885619e+02  5.4198755639260196e+02 7.9427978029072293e+01 1.8755660955105702e+02  4.7878664260353031e+02 1.2730922585058630e+02 2.3387963058686447e+02  3.4896438662097353e+02 -6.3002169397774367e+01 -2.7081237370004647e+01  3.7554499008471470e+02 -9.0101656406237240e+01 -8.7684891169844462e+01  4.2405152538889064e+02 -4.1532229457257280e+01 -6.6862670005218192e+01  4.4129761539523895e+02 3.8866869737282245e-01 4.1788690473134089e+01  3.6761160276023037e+02 -3.5681008512901698e+01 2.8249691918465686e+01  1.8071452958590049e+02 -1.9829170979887462e+02 -8.0373987124136576e+01  1.6915062367656697e+02 -1.8721538593959278e+02 -7.6178498392387880e+01  1.6407542837142694e+02 -1.6484596281047646e+02 -6.8653202636503565e+01  2.2043334244161980e+02 -1.6551608961091753e+02 -7.4266681772251573e+01  2.1043897934793867e+02 -2.4426115938857055e+02 -8.5189703144977656e+01  2.0202744549917293e+02 -2.7192401162697098e+02 -8.0327688223343657e+01  2.0878290323237604e+02 -1.5076854158924871e+02 -6.9829725512767581e+01  2.3932289844644512e+02 -1.9343484149691196e+02 -9.0846984426812909e+01  1.6921749550927521e+02 -1.3819917010710003e+02 -5.3429784116325763e+01  2.5898777979372795e+02 -5.1964338825402315e+01 6.2213618024305809e+01  3.7456257038375298e+02 -1.8337010002710006e+01 6.8146102261130451e+01  3.1170492979375717e+02 -4.0724231895394126e+01 6.3202837674932788e+01  3.0154112499754814e+02 -5.6031367593379542e+01 3.2176984193528043e+01  3.1262883505458603e+02 -3.2147306919016465e+01 6.1344810428513824e+01  2.5001670372766753e+02 -1.1121353707533426e+02 -7.4434225545088822e+01  2.3561750429851816e+02 -1.1412264577823632e+02 -5.9724677330490415e+01  2.3071945773156776e+02 -1.2999045510775073e+02 -6.5384075386660882e+01  2.4166893202853737e+02 -1.2683683471754996e+02 -8.0083099002181797e+01  2.4765376123599077e+02 -1.2111522812221880e+02 -8.3663492170904490e+01  2.4610262726192602e+02 -1.0684127879502788e+02 -7.5163384846762952e+01  3.6838574530166545e+02 -1.0397632229314577e+02 -1.3977068670589228e+01  3.0154609133797487e+02 -1.1250795200096863e+02 -1.7183771166783597e+01  3.0268459703037365e+02 -8.1060884627224411e+01 9.9755798557320556e+00  2.5369603967392692e+02 -1.2911326614000728e+02 -9.0202647279140052e+01  2.3637832307069939e+02 -1.5137327595614522e+02 -8.0592631401740277e+01  2.2473676450326712e+02 -1.7859677657807305e+02 -8.7209686670653795e+01  2.0992912979413538e+02 -1.7337972502316219e+02 -7.6988216094018881e+01  2.8383134372134509e+02 -1.5184842507978587e+02 -1.1582624246871008e+02  2.7107610501597713e+02 -1.1644463766960011e+02 -1.2565531019111590e+02  2.8813320429590067e+02 -9.5241408361532436e+01 -9.7867517054270522e+01  2.6662396122581805e+02 -1.2007496553696207e+02 -8.8243423019367214e+01  2.7222974757543614e+02 -8.6728970620468999e+01 -1.6323045939474079e+02  2.6588432685579613e+02 -1.2431755036746179e+02 -1.7371435337744529e+02  3.1486088881226073e+02 -1.0823132305021792e+02 -1.3902602946415263e+02  2.7923658969145055e+02 -9.3251806326519755e+01 -1.7065179753314547e+02  5.1214481698617590e+02 1.5649994101230158e+01 -4.9812354238278857e+01  4.2629301276654309e+02 1.0122445121841245e+01 4.1270974726643274e+01  4.2149989966152100e+02 -2.4755099079646627e+01 -6.4933191243719122e+01  5.8304297973869132e+02 3.7367680344212509e+01 -4.1257473002226369e+01  4.8300893993999580e+02 1.1943180168257078e+02 2.1405713431259792e+02  4.4709380582745706e+02 8.0264566918855369e+00 7.5955817391236678e+01  4.4756299898236369e+02 4.0681080075113741e+01 9.5723071767422823e+01  5.5158984329621364e+02 6.4498094212225354e+01 8.8900596320780906e+01  5.6380273302473870e+02 8.8281551453991952e+01 1.4768813552609859e+02  2.6181514755178523e+02 -8.2018930762955861e+01 -6.9283700160819937e+00  2.6826537162148173e+02 -6.6595992179081307e+01 1.3760867583295177e+01  2.3471575305113916e+02 -7.6426754211441079e+01 1.8764278655472051e+01  2.2071269524434766e+02 -9.2800075508538782e+01 -1.1304679672195256e+01  2.4165769648165730e+02 -8.8008801325352351e+01 -1.5358408375170022e+01  2.9569715053364769e+02 -7.4786374312790855e+01 -1.8201819249003435e+01  2.1414027989953010e+02 -1.2144843569113996e+02 -5.2636239215995502e+01  1.9274763456281426e+02 -1.4513198412290973e+02 -6.0595218667562392e+01  2.3374756780582203e+02 -1.6494958340884773e+02 -8.6136314884422802e+01  2.2191942948697491e+02 -1.6903806684224062e+02 -7.6692059892286437e+01  2.4128287105790824e+02 -1.3158861586540402e+02 -7.5452014931844744e+01  2.9342821613065513e+02 -1.8693510264097821e+01 1.0312953795280731e+02  2.3161466149961757e+02 -2.3649399402966747e+01 1.4338269861147404e+02  2.7565800426596780e+02 -4.2342132305537511e+01 6.6053592793367116e+01  3.1619653321940871e+02 6.5577166892396255e+00 1.1168490261766163e+02  2.6273666551104844e+02 -5.0418392453530402e+01 7.2189168226691208e+01  2.2614316900422349e+02 -2.8167841962763486e+01 1.4022834538032217e+02  2.8563217679945990e+02 -9.2527058025666506e+01 -6.1331821014374789e+01  2.5766594746026556e+02 -1.0802161442752228e+02 -1.0032040750638797e+02  2.6462450292423745e+02 -1.1880179684715971e+02 -1.0735517003892085e+02  2.5986986316886333e+02 -1.2995227096554373e+02 -1.0893685492424082e+02  2.6739214275147447e+02 -1.0829553546478752e+02 -1.3449907764351482e+02  2.9193351539929148e+02 -1.1583991957367577e+02 -8.5747878838599036e+01  3.0455997484418782e+02 -6.8004825008950689e+01 -3.6646403529615469e+01  2.8937804412260385e+02 -7.9423160199690344e+01 -6.6394846976653682e+01  2.7718102064962062e+02 -1.9662182675942088e+02 -1.1696959701259939e+02  1.8928389067962542e+02 -2.0892176722445814e+02 -7.3710113404327245e+01  2.6130968440371839e+02 -3.7533036933830186e+02 -8.3394046688968771e+01  3.5440110628060046e+02 -3.0222389484601172e+02 -1.9304843245482704e+02  2.2909228025142667e+02 -2.5422317247396560e+02 -8.9095261833455652e+01  2.0054622996663633e+02 -1.4477002844409949e+02 -5.7020039786233419e+01  1.9087785352244242e+02 -1.8948554614415096e+02 -8.4601244417283922e+01  1.8257852686317679e+02 -1.8671190271926778e+02 -6.0870530352692313e+01  4.2610416060968868e+02 -4.6890837887697518e+00 3.7996130704364631e+01  5.3905744243309607e+02 -2.1933016325546600e+01 -8.2998888936487134e+01  3.7967670118620555e+02 -4.1553080440688078e+01 -8.8681396527677393e+01  2.7220430266160162e+02 -1.3144085722689505e+02 -1.4132672757998532e+02  1.9423206108353597e+02 -1.0355039264982875e+02 -2.7980662795510538e+00  1.8831679878274926e+02 -9.8842395698380599e+01 -3.9582488990996225e+00  2.1257741657471263e+02 -8.7946165027649329e+01 7.1269423342254399e+00  1.7493530506767289e+02 -9.9312840762411128e+01 1.5036934450265584e+01  1.5774957191479933e+02 -1.0596297363273061e+02 5.8933421467105829e+00  1.7597312290765754e+02 -1.1399239859181513e+02 -9.4221000117937290e+00  1.9477629629246746e+02 -1.2338262150067584e+02 -2.4453567685783401e+01  4.8536090808399524e+02 6.7318429633671242e+00 1.1968611268945084e+02  4.6442223386829318e+02 -3.0368618014408089e+01 9.0910690823376868e+01  3.3280317803528010e+02 -6.0953982254262982e+01 -7.9428953193450099e+01  3.1715626714797401e+02 -5.2360898028386323e+01 2.4499862221734512e+00  4.9708897998474833e+02 6.4303518295267963e+01 5.7756664979095241e+01  2.9328088250763125e+02 -1.5401729470764860e+02 -1.5627739020666414e+02  2.6218590407618950e+02 -1.5769434851517966e+02 -1.1797500301293776e+02  2.5693890702300433e+02 -1.1300692753763666e+02 -9.6103268951998089e+01  2.7280111953217721e+02 -1.1274334785655412e+02 -1.2618959179013568e+02  4.9134868444219109e+02 -8.8805733278851378e+01 8.0990164127723730e+01  4.8732148656586099e+02 -7.5415937115253939e+01 5.2328617761046587e+01  3.0728684163627565e+02 -2.4446614959918175e+01 1.0138935158228504e+02  2.7326693129088540e+02 -2.0407136925334086e+02 -1.2815580133074118e+02  3.1178038856758758e+02 -2.2872616758105431e+02 -1.9602688059796552e+02  2.8903423266182062e+02 -1.2107902156486622e+02 -1.9996231603208946e+02  3.4122543846526673e+02 -6.4698217052907893e+01 -1.7332079340935815e+02  3.5262812648823552e+02 -5.2099030728903386e+01 -1.0520944099430484e+02  3.6173393849080935e+02 -2.0327680603659012e+01 -1.4821402618614641e+02  3.3371706545850100e+02 -6.0656267420004212e+01 -1.4862654079980007e+02  2.5863644729497156e+02 -2.1531114069596566e+02 -7.9843290337659482e+01  2.2736717621130833e+02 -6.7458917412176092e+01 4.4663869484065998e+01  2.7086802894013391e+02 -9.5842918594715073e+01 -8.4613861407048788e+01  4.1383596210728700e+02 -5.1199931680068488e+01 -1.4081452072330859e+02  3.8812638603435767e+02 -8.5625200395875069e+01 -1.3582093059531437e+02  3.7863100634257762e+02 -5.9085716964430851e+01 -8.8907639158567903e+01  4.3054077360337646e+02 -5.3343658438915632e+01 -1.2324181096901430e+02  3.2224895675830362e+02 -2.0478957984098329e+02 -1.4353192329072502e+02  2.3947553720428419e+02 -8.5424303264907195e+01 2.2609789253557091e+00  2.1896807286129112e+02 -6.6397754918926509e+01 4.4593589378578720e+01  2.6706965254490660e+02 -6.2747376537189616e+01 4.2224183805761065e+01  2.0238527655352487e+02 -5.8277120710751632e+01 6.8384910878456992e+01  2.4619590749282222e+02 -3.9081851958445931e+01 9.5812952843508043e+01  3.7647368956891120e+02 -6.9676412036116986e+01 -1.4401818198611736e+02  1.6566746200791496e+02 -1.6395554034122014e+02 8.2726388488358538e+00  1.7262389219100649e+02 -1.1589510171086354e+02 -1.1661302326651402e+01  1.6442969990667572e+02 -1.2252808913652355e+02 2.9402618938121017e+00  3.6701058172789055e+02 -2.8306691856903819e+02 -2.0811448283477588e+02  2.5111299540636386e+02 -2.0980320949443322e+02 -1.0513720018155661e+02  2.2276478332963325e+02 -1.0070840339659117e+02 -2.3922666271982287e+01  5.2898887761802962e+02 -2.2800541323076243e+02 -1.4726132284461013e+02  3.8181634000549076e+02 -1.7104619395198523e+02 -1.6629422564193399e+02  2.0663631662847527e+02 -1.2028487147196711e+02 -3.2435501358128199e+01  1.6169049894727769e+02 -1.0657724483331610e+02 -1.0318386448717895e+01  2.0116531096130998e+02 -1.2804832927433984e+02 -4.7672593200338873e+01  2.0714526485337092e+02 -5.5320590134287144e+01 6.8875933372707294e+01  1.9074895475179568e+02 -1.4818839954838651e+02 -3.6576851863738099e+01  1.9070512100327457e+02 -1.5639353981231892e+02 -1.5197891295947183e+01  1.6375286404302986e+02 -2.0926075375792365e+02 -4.2227879220951955e+01  1.9566236760952324e+02 -8.1549929985362326e+01 2.8859187591021680e+01  2.7473165518243462e+02 -1.0047855031995844e+02 -1.3584192784478384e+02  3.1301294318033649e+02 -1.3927720576978700e+02 -1.