<?xml version="1.0"?>
<VTKFile type="UnstructuredGrid"  version="0.1"  >
<UnstructuredGrid>
<Piece  NumberOfPoints="9071" NumberOfCells="42273">
<Points>
<DataArray  type="Float64"  NumberOfComponents="3"  format="ascii">13.00804042816162 31.26049041748047 31.82843017578125  13.34251504639224 30.58125170104931 31.84660889482522  13.74047157334148 30.96045137984328 32.04283408430485  13.39998695420085 31.12230135542922 32.25382880476383  13.00203042725162 30.74310167663525 32.05760361528421  13.34852504730225 31.09864044189453 31.61743545532227  13.68900966644287 30.93679046630859 31.40644073486328  13.79193348024008 30.98411229337798 32.67922743374642  13.39397695329085 30.60491261458401 32.48300224426679  12.99602042634161 30.22571293579004 32.28677705478716  15.77643013000488 37.00233840942383 30.1017894744873  16.11710728316585 36.95886672876543 31.13493269824351  15.91074946141687 36.53425669288224 30.82718456911633  16.29017244272066 37.00908841417909 30.54080324387328  15.60336497045008 36.95211672401017 30.69591892885754  16.08381462097168 36.5844783782959 30.23305511474609  16.39119911193848 36.16661834716797 30.36432075500488  16.59755693368746 36.59122838305116 30.67206888413207  15.43029981089527 36.90189503859651 31.29004838322777  16.80391475543644 37.01583841893435 30.97981701325925  12.13492965698242 31.03425025939941 31.9976806640625  12.59242573239325 31.30721799987876 32.388572770721  12.57148504257202 31.14737033843994 31.91305541992188  12.46781492233276 31.56173992156982 32.00621032714844  12.80070018768311 32.08922958374023 32.01473999023438  13.02898111798285 31.42033807891929 32.30394752658037  12.92531099774359 31.83470766204917 32.39710243380694  12.90437030792236 31.67486000061035 31.92158508300781  13.04992180780408 31.5801857403581 32.7794648773795  17.12621198587252 36.52267445849061 30.5307133696057  16.86480699472261 36.97561444567323 30.40788870072142  16.65844917297363 36.55100440979004 30.10014057159424  16.91985416412354 36.09806442260742 30.22296524047852  16.92569923400879 36.93539047241211 29.83596038818359  17.18710422515869 36.48245048522949 29.95878505706787  17.44850921630859 36.02951049804688 30.08160972595215  16.01551054220792 36.41731392907514 31.44036901293796  15.98707710807154 37.10895807210582 32.0741668490105  16.54385440524781 37.31602110561512 32.85828531479324  16.67388458034213 37.16592976227474 31.91905116402624  16.57228783938419 36.62437696258444 32.22448747872069  16.60072127352057 35.93273281955376 31.59068964264815  16.7023180144785 36.47428561924406 31.2852533279537  15.35112953186035 39.30651092529297 28.3628101348877  15.81614898095988 39.20904510908647 28.70901272035688  15.57668495178223 39.05525016784668 28.37308979034424  15.8234395980835 39.31850624084473 28.32575035095215  16.29574966430664 39.33050155639648 28.2886905670166  16.04170440088176 38.95778435164019 28.71929237581342  16.28845904718303 39.22104042463823 28.67195293642133  16.04899501800537 39.06724548339844 28.33603000640869  15.8022403717041 38.80398941040039 28.38336944580078  16.28116843005941 39.11157929287998 29.05521530582607  14.09774017333984 32.31330108642578 31.47513961791992  14.88765201471409 32.11655947994637 31.57538830784585  14.66281032562256 31.9655647277832 31.14951038360596  14.52897024154663 32.33975028991699 31.26187992095947  14.23158025741577 31.93911552429199 31.36277008056641  14.4564219465073 32.09011027645516 31.7886480048063  14.3654203414917 31.5649299621582 31.25040054321289  14.59026203058323 31.71592471432137 31.67627846745279  14.96020030975342 32.3661994934082 31.04862022399902  14.81510371967476 31.86691946648455 32.10215639169268  16.28589057922363 38.11605834960938 28.97397994995117  16.72401200700223 38.57772427250079 28.95860326952294  16.5818696371596 38.39583206363674 29.31562127456834  16.28352950464152 38.61381882124468 29.01459762788862  16.72165093242012 39.07548474413609 28.99922094746039  16.57950856257749 38.89359253527204 29.35623895250578  16.87784869509557 38.6756057776641 29.6572625991855  17.0199910649382 38.85749798652816 29.3002445941401  17.16213343478083 39.03939019539221 28.94322658909471  14.88461971282959 39.89572906494141 30.80084037780762  15.19852704715633 39.03788387721236 30.56211681058433  14.84327904195397 39.40319790704647 30.41722603641075  14.78697837926677 39.05223812228204 30.86520621408413  15.23986771803195 39.5304150351073 30.94573115198119  14.68933704570396 38.20874717962268 30.92957205036064  14.74563770839115 38.5597069643871 30.48159187268727  15.14222638446913 38.68692409244793 31.01009698825771  15.59511572323431 39.16510100527319 31.09062192615477  14.80193837107834 38.91066674915153 30.03361169501389  14.17415046691895 30.57364082336426 33.87179183959961  14.90959468812962 30.81048019383787 33.51857616592294  14.91956472396851 30.52400016784668 33.88416862487793  14.52099004716892 30.54564578984617 33.44149257827646  14.56275510787964 30.83847522735596 33.94887542724609  14.95135974884033 31.10330963134766 34.02595901489258  14.8678296274189 30.51765075632808 33.01119331695331  17.14320945739746 39.89572906494141 29.5290699005127  17.29901937165667 39.28566742130275 30.04818143234422  17.01052907624652 39.28566742130275 29.5931662498491  16.97169254800805 39.45873215888288 30.10059814075264  17.43169975280762 39.89572906494141 29.98408508300781  17.72019004821777 39.89572906494141 30.43910026550293  17.26018284341821 39.45873215888288 30.55561332324775  16.80017563861864 39.02173525282436 30.67212638099258  16.8390121668571 38.84867051524423 30.16469449008904  15.40604972839355 31.2711296081543 37.9359016418457  15.77385992034957 31.84489880353521 38.82357906168781  16.4197900498148 31.70161067829092 38.67530300869143  15.38909059085947 31.25215453420094 38.51226642286651  15.79081905788365 31.86387387748857 38.247214280667  16.17558838737375 32.45661814682284 38.5585269194883  15.37213145332539 31.23317946024758 39.08863120388732  12.34961986541748 30.05709075927734 32.90365982055664  12.98296504715518 29.87412126892041 32.67594887590433  13.0188603947504 30.21529157989453 32.79224945879007  12.67282014587955 30.14140184753369 32.5952184376719  12.69566011428833 30.13098049163818 33.1006908416748  12.65976476669312 29.78981018066406 32.98439025878906  13.04170036315918 30.20487022399902 33.29772186279297  13.00580501556396 29.8636999130249 33.18142127990723  12.96990966796875 29.52252960205078 33.06512069702148  15.06770038604736 39.89572906494141 32.61352920532227  15.62119874978984 39.56810529895153 32.63068838369512  15.84215497970581 39.89572906494141 32.59852600097656  15.39853525161743 39.89572906494141 32.30021476745605  15.17757902170147 39.56810529895153 32.33237715017461  15.51132011413574 39.89572906494141 32.91184043884277  15.95493984222412 39.89572906494141 33.21015167236328  15.7293701171875 39.89572906494141 31.98690032958984  15.50841388727153 39.56810529895153 32.0190627123084  15.28745765735557 39.24048153296165 32.05122509502696  12.23122978210449 29.33480072021484 32.5967903137207  12.81820836161589 29.05446350749041 32.48377421796752  12.93329300974821 29.44565308268573 32.59304049909545  12.56395306681608 29.35178864176776 32.35887530744506  12.60056972503662 29.42866516113281 32.83095550537109  12.4854850769043 29.0374755859375 32.72168922424316  12.85482501983643 29.13134002685547 32.95585441589355  12.7397403717041 28.74015045166016 32.84658813476562  12.89667635152767 29.36877656332067 32.12096030116941  17.67817894358649 37.89455132808037 31.37509990657653  17.66227587989584 37.93657405391478 32.13257775640885  17.97134217646285 37.94580457054453 31.8024144338787  17.72907054558401 37.34514113483314 31.87184606890548  17.77996214758153 36.79573094158592 32.36859223123444  17.71316748189336 37.38716386066756 32.62932391873781  18.02223377846038 37.39639437729731 32.29916059620766  18.26450540933923 37.99705781300869 32.22972896118088  17.9554391127722 37.98782729637894 32.55989228371102  17.64637281620519 37.97859677974919 32.89005560624117  16.62490081787109 32.92699813842773 39.89208984375  16.3973893017191 33.04827825065752 38.96244903713673  16.40024460262242 32.69180814262529 39.22530838161915  16.90590572357178 33.0074291229248 39.40374946594238  16.62204551696777 33.28346824645996 39.62923049926758  16.61919021606445 33.63993835449219 39.36637115478516  16.90305042266846 33.36389923095703 39.14089012145996  17.18691062927246 33.08786010742188 38.91540908813477  16.68124950832311 32.77223912712236 38.73696800381153  18.14211162723793 39.49276438201336 30.15440066118947  18.01278194584145 39.49276438201336 30.55926592608205  17.69902673079715 39.19571321925983 30.13781210022805  17.84951972961426 39.89572906494141 30.03423500061035  17.97884941101074 39.89572906494141 29.62936973571777  17.82835641219363 39.19571321925983 29.73294683533548  17.67786341337652 38.49569737357825 29.83652393495318  17.99161862842082 38.79274853633179 30.25797776080718  18.30537384346512 39.08979969908533 30.67943158666117  13.0179500579834 29.51866912841797 31.23880958557129  13.00698524216251 29.872191032104 31.76279332017922  12.95731320475554 29.44372284586932 31.67988494337035  13.52883223517616 29.64454819334183 31.70959568523885  14.03971441236892 29.77042725826568 32.18038178490642  13.51786741935527 29.99807009702786 32.23357941984679  13.4681953819483 29.56960191079317 32.15067104303792  12.94634838893464 29.79724474955535 32.20386867797829  12.17926979064941 29.26547050476074 31.85172080993652  12.71231808756804 29.33501351054217 31.7406902641101  12.6465431699655 29.54878819163348 31.78925040662719  12.53797307108854 29.31712353404071 31.98634055555297  12.35361480712891 29.28336048126221 31.60607051849365  12.28783988952637 29.49713516235352 31.65463066101074  12.39640998840332 29.72879981994629 31.45754051208496  12.46218490600586 29.51502513885498 31.40898036956787  12.5279598236084 29.30125045776367 31.36042022705078  17.95768074046124 36.0315615766994 31.4887046076674
[...]
<PointData  Vectors="u"> 
<DataArray  type="Float64"  Name="u"  NumberOfComponents="3" format="ascii">2.8142926468569073e+02 -2.1552448256054959e+02 -1.5161185014537526e+02  1.8318648784199391e+02 -1.5857278882034453e+02 -9.0390523747034266e+01  1.9758720743867568e+02 -1.5107072484894547e+02 -7.3724703649370923e+01  2.4552183451782938e+02 -1.8463742820096786e+02 -7.5319947766690717e+01  2.3318332903322673e+02 -2.1177030945430431e+02 -1.0046915315740344e+02  1.9597202629596708e+02 -1.5285861249656747e+02 -1.4300956542462441e+02  1.6539084551677217e+02 -1.2497473797230194e+02 -9.9502386700384065e+01  2.1350176954008009e+02 -1.6197576996063574e+02 -3.4016192033105355e+01  2.0774858124082053e+02 -1.8170900322714607e+02 -4.6345755793109035e+01  1.7965036976846631e+02 -2.0547799817174936e+02 -5.8508773938941538e+01  2.2651665855496006e+02 -1.0107645182387133e+01 -4.3538911076249676e+01  2.0610723228417214e+02 -2.7864072473367376e+01 -7.0735462893851789e+01  2.1217065061121502e+02 -2.8349285946345287e+01 -5.4004206132024926e+01  2.1874695927895297e+02 -1.7397582074337770e+01 -6.5197872259686207e+01  2.1196014100973667e+02 -2.0085332118236479e+01 -5.3281670486205492e+01  2.2520238981029368e+02 -1.5466933180026146e+01 -4.8061705346306837e+01  2.2803914510194861e+02 -2.6042304132860512e+01 -4.9421534957254060e+01  2.1631585967165293e+02 -2.7414802953206888e+01 -6.7676903794145488e+01  2.0406072749806685e+02 -3.0522136972936245e+01 -6.4392833172532761e+01  2.0705792435079411e+02 -2.7271695500799446e+01 -8.1529372933350871e+01  4.4212651268608187e+02 -3.5091582147175023e+02 -1.2711691719822367e+02  3.6723573588188435e+02 -2.5802454754508307e+02 -7.2744228844603043e+01  3.3774812240209297e+02 -2.8833046607589455e+02 -1.6932942828983198e+02  4.5041053144930044e+02 -2.9140925850866807e+02 -7.3123121901785638e+01  4.1510202516001038e+02 -2.0576596896686539e+02 -8.6283108144821611e+01  3.1060204288949251e+02 -2.1639793245598852e+02 -7.8368410042156313e+01  3.5577548772319875e+02 -2.0547206025352392e+02 -6.8952752487037600e+01  3.5150985082416173e+02 -2.2233861682516664e+02 -1.2831353529737862e+02  3.2168331296449577e+02 -2.1055094512530894e+02 -3.3760314154262304e+01  2.1743691101455201e+02 -2.8054102518057206e+01 -7.9817027266266976e+01  2.2053894078232906e+02 -1.8604794750651791e+01 -8.0657797574804732e+01  2.3587858592138943e+02 -1.7516365212863203e+01 -5.9542740971082800e+01  2.2991173412511523e+02 -2.6601723549932778e+01 -6.0124296133633365e+01  2.4147443239484147e+02 -6.5629206161068740e+00 -9.4485411971971743e+01  2.4026623952764618e+02 -1.4174068567119363e+01 -8.9189967119768085e+01  2.2792869565143315e+02 -3.5294859770818967e+01 -8.6744234990743308e+01  2.0206875332052329e+02 -4.1571052522190001e+01 -6.6543817351605185e+01  1.9516837822609722e+02 -3.3744240072283809e+01 -8.3554743194448506e+01  1.8371933782559995e+02 -3.2886287293097510e+01 -9.9232912429932554e+01  1.9293090720073306e+02 -3.2969730948520400e+01 -8.9822048196238669e+01  1.9025462177200723e+02 -4.5789284347372494e+01 -8.8673547887269763e+01  2.0013064418201066e+02 -5.4211298188952135e+01 -7.0671566014824137e+01  2.0359722568606804e+02 -3.9231949379259454e+01 -7.5948226717048072e+01  2.4035878731402329e+02 -4.3969710715239849e+01 -3.6137961358923008e+01  2.6553917248762070e+02 -1.8036966669227080e+01 -5.4810871732080251e+01  2.4532153760896244e+02 -3.0840938785306804e+01 -2.8661506972358954e+01  2.8130647992885719e+02 -4.2488197640982692e+00 -2.6780767821840271e+01  2.8622014012410187e+02 -7.9472505483663403e+00 -7.3265520644157533e+01  2.6755403194667474e+02 -2.6501246134668349e+01 -7.4954450716340233e+01  2.6662092931877004e+02 -1.2534669802436506e+01 -8.6035003688548585e+01  3.0199038022450435e+02 -5.0205977676428461e+01 -5.7898900877990300e+01  2.8847407644081494e+02 -3.9698107103059868e+01 -6.5327919981196871e+01  2.4621841095064477e+02 -1.3733471814270908e+01 -8.8450236805987771e+01  1.9070721365223093e+02 -1.4046867060651942e+02 -1.1327173072714147e+02  1.7580722181965731e+02 -1.1904228888837901e+02 -6.5970900234735282e+01  1.5557021406611690e+02 -1.1072385994908784e+02 -7.3161597313057328e+01  1.7232610398726140e+02 -1.3483007523628183e+02 -8.8799091470028586e+01  1.6756875799882803e+02 -1.3012000348859644e+02 -1.0504821994004507e+02  1.9430251773217051e+02 -1.3101164682476883e+02 -7.7113904339387474e+01  1.5211323853181975e+02 -1.1462075148349005e+02 -8.5569757479243194e+01  1.7557738976854867e+02 -1.2179720278413843e+02 -7.0167234002540212e+01  1.6466865530011660e+02 -1.1860975635676138e+02 -7.3685854498989670e+01  1.8866718058884749e+02 -1.2376550688926113e+02 -4.9040151123344003e+01  2.6894558351357875e+02 -1.1895283633735461e+01 -1.1623274215323954e+02  2.4455890292179950e+02 -2.1242630658342332e+01 -1.1450171201527387e+02  2.3721760815647278e+02 -1.6022513495005931e+01 -1.1036887408795050e+02  2.5342944957846825e+02 -1.7961945372939113e+01 -9.9480067668526047e+01  2.3858761354706957e+02 -2.1084169795992540e+01 -1.1118708137556590e+02  2.3119514695236148e+02 -1.4894248284342453e+01 -9.9195446868071500e+01  2.1820035444803858e+02 -1.3251793898611609e+01 -1.0340743081634523e+02  2.2010637085604529e+02 -1.8488796161821615e+01 -1.1298931298573633e+02  2.1788561592232423e+02 -2.1090204184572574e+01 -1.2784722300361601e+02  2.0134322900400957e+02 -1.1267393033391494e-01 -7.3649681871027624e+01  2.0546225019205787e+02 -3.0191811920923293e+00 -7.2218434353873363e+01  2.0258690799788994e+02 -1.5823808346912229e+00 -6.9914912605885803e+01  2.0104107538729852e+02 -3.2972241025747739e+00 -7.2562345057254220e+01  2.0161204250915787e+02 -1.9438053764543901e+00 -7.6863243579098793e+01  2.0212735671623935e+02 -7.4354996290709243e+00 -6.7617879552347915e+01  2.0305740226072643e+02 -2.1555455938277972e+00 -6.6320498533995547e+01  2.0231566600593803e+02 -6.3683229098133332e+00 -7.4109299086446939e+01  2.0157500426821801e+02 -4.6876018257451610e+00 -8.0196186048042236e+01  2.0476178470681432e+02 3.0572163389613505e-01 -6.3389974198006989e+01  1.7856785352422403e+02 -1.2479658865968521e+02 -4.1622587531403381e+00  1.9333232333287032e+02 -1.2069279968936431e+02 8.5548085303869446e+00  2.2683667134257740e+02 -1.2380797646848924e+02 1.2709988649279781e+01  1.8445196055921053e+02 -1.2507041653205323e+02 -9.9291474836348534e+00  2.0127029897445433e+02 -1.1279840492471318e+02 -9.3589451954465677e+00  2.2170525838283848e+02 -1.1952655902231824e+02 3.6421747931966472e+01  1.7086149626939451e+02 -1.1893949760970898e+02 -1.8430835821486509e+00  2.1034900671319005e+02 -2.2940147242708595e-01 -1.0030255812326008e+02  2.0204878450321166e+02 -7.5503913523748603e+00 -1.0004142365437740e+02  2.1333114804121206e+02 -1.0466790042296761e+01 -9.9434959215055315e+01  2.0635772706865501e+02 -5.0728451490075894e+00 -9.5458316429694065e+01  2.0027485568725228e+02 -4.1737608143170686e-02 -1.0010504512601101e+02  1.9320420034140767e+02 1.8655048933186646e-01 -9.9372169161513881e+01  1.9859162325524755e+02 -4.5468549640637468e+00 -9.7194788461701506e+01  2.0298241678663291e+02 -7.7455695717574526e+00 -9.3016760292504088e+01  2.0955423870381787e+02 -9.5103510232255601e+00 -9.4371916699583039e+01  1.5392388718917300e+02 -2.1429518838869137e+02 -7.5118886793682620e+01  1.6001935954714935e+02 -1.9535843878472213e+02 -3.2087696404372942e+01  1.3960318319744937e+02 -1.7214220511684672e+02 -4.0519052374287313e+01  1.4550496559609894e+02 -2.0905498222738535e+02 -4.1415847265399762e+01  1.6320456117585567e+02 -1.9812531918540822e+02 -5.4564790617586162e+01  1.6902770737422671e+02 -1.9205369504895251e+02 -4.1029408803055524e+01  1.4595506632209901e+02 -2.1289254395770297e+02 -2.2779549261123215e+01  2.0223540358762398e+02 -3.4777621623547020e+02 -1.2063998726448210e+01  1.4417548655644535e+02 -1.9942167579210599e+02 -2.3375783587382141e+01  1.8539677061160441e+02 -2.1024818473952260e+02 -1.8968765939275375e+01  1.9003204570068092e+02 -2.6791667264245507e+02 -3.7886718861053467e+01  1.7774697035956953e+02 -2.5206184412810583e+02 1.9209829494152050e+01  1.2602171165588285e+02 -2.3312858249527105e+02 -4.9066033197411487e+00  1.6296338220673604e+02 -2.0110702794966772e+02 2.6325567631862636e+00  1.3420751720008960e+02 -1.9801765269397501e+02 -7.7797056648628731e+00  1.0631159783579457e+02 -1.8355350492938166e+02 -1.1114522435144407e+01  1.8910828734632122e+02 1.7172829765159731e-02 -8.7343517486447311e+01  1.8896841746853917e+02 -2.9862323989791650e+00 -9.1351683071521776e+01  1.8886974122649963e+02 1.5025362765175014e-02 -9.2470139773195314e+01  1.9145912917628547e+02 6.4577170511395431e-03 -8.7486290709527950e+01  1.9137423061488701e+02 -2.7587792964918170e+00 -8.5685411831822606e+01  1.8736721011680552e+02 -7.9507731572862617e-03 -9.3142843440828003e+01  1.8570875764099821e+02 -3.1650032256901238e-02 -9.8491689287466471e+01  1.9318620383851498e+02 -9.8931603078522834e-03 -8.7689496664248608e+01  1.9348399862103577e+02 -2.7039598603797756e+00 -8.6108431147461900e+01  1.9378147397394414e+02 -5.3008206688522748e+00 -8.4302599694949151e+01  4.8678641145759826e+01 -1.8996673205056163e+02 -2.5282427886784995e+00  9.0413396947913640e+01 -1.4155960048145846e+02 3.3449338822868344e+00  1.1042804963789584e+02 -1.7179328455937028e+02 -1.3612958432244286e+01  8.1113108854322888e+01 -1.7105183801664751e+02 -1.2274399957474682e+01  7.9588830987960137e+01 -2.0363195060366229e+02 7.7815016952821425e+00  7.1367920545487749e+01 -1.4195168793447590e+02 2.1647303694328230e+01  6.4778691184142801e+01 -1.5055778065603599e+02 -3.1651223864566678e+00  7.7597390381053685e+01 -1.2623714836162560e+02 6.2574873450790953e+00  1.0660672835713534e+02 -1.4377045401860340e+02 -1.8733202832597517e+01  1.9301293235986353e+02 -2.1969320844973641e+01 -1.0132824111596308e+02  1.8218336902322946e+02 -2.2117766993487120e+01 -1.0866406119323665e+02  1.8835597257492083e+02 -2.3010708120597510e+01 -1.0930642385703274e+02  1.8739553088258506e+02 -3.1147661801369576e+01 -1.0551872165624376e+02  1.7851609129196353e+02 -4.4141645075634642e+01 -1.1277223721171322e+02  1.7249860841323130e+02 -3.1246768632097965e+01 -1.1585754817911038e+02  1.7988474211375794e+02 -3.2051172045946657e+01 -1.2029168929757230e+02  1.8317425945467357e+02 -2.3019181393375597e+01 -1.2352398402758539e+02  1.7094662975438303e+02 -2.0616590683495318e+01 -1.1818990758077261e+02  1.6606829608702716e+02 -1.8033928479850250e+01 -1.1077361395591629e+02  1.3197373088371563e+02 -1.8468836742246697e+02 -3.0264368324101736e+00  1.5955031936022249e+02 -1.8642862835239740e+02 -2.6717408793497466e+01  1.5497978899781151e+02 -1.8202355205863796e+02 -2.0772053945229558e+01  1.3564189698531115e+02 -2.0360083134474215e+02 -3.7590563898005279e+01  1.1393740176233911e+02 -1.7182543957091210e+02 -5.0481831546852236e+00  1.3193979285010232e+02 -1.5799484836523465e+02 -8.1765483818577955e+00  1.4083599766496133e+02 -1.8715438235679392e+02 -4.6446277152267349e+01  1.6689662176861535e+02 -1.8818415312808099e+02 -5.7807199803058886e+01  1.6491379484622544e+02 -1.8418255643491571e+02 -4.3969118959218122e+01  1.8719173470442141e+02 -5.1269680888800204e+00 -9.9774685003847026e+01  1.9046828981976040e+02 -4.6737286789442578e+00 -9.9972654042986989e+01  1.9461878444366781e+02 -8.3292541473048196e+00 -1.0117556076087044e+02  1.9150283278208698e+02 1.1602631693080456e-01 -1.0065598448524059e+02  1.8820430802693144e+02 -1.5477796192561702e-01 -1.0494367639967874e+02  1.9067820452880648e+02 -9.3820383830976635e+00 -1.0536863574715110e+02  1.9586784721602049e+02 -1.5790764239526863e+01 -1.0673883668778397e+02  1.9044185637121544e+02 -1.2580801085644957e+01 -1.0031733472393668e+02  1.8912428544035495e+02 -9.5959664592338978e+00 -9.9017930345139192e+01  1.0906921362278092e+02 -7.2105897203346643e+01 -2.1985000600007599e+01  1.1942567630466002e+02 -1.4654653011982151e+02 -6.4424459027819381e+01  1.1186597835047870e+02 -1.1091840688350378e+02 -1.8917323889087893e+01  1.3392641308910714e+02 -1.1439822755057050e+02 -3.2215072306553935e+01  1.4663161940300498e+02 -1.2408878556729593e+02 -2.9075269743165030e+01  1.5379332277472761e+02 -1.4931109945866586e+02 -3.9503948479519778e+01  1.3271433979326039e+02 -1.3431675112493309e+02 -2.6763490244817731e+01  1.3742214670971558e+02 -1.8024878874348937e+02 -4.1518891023442514e+01  4.6235507667998156e+01 -1.1123552236286173e+02 -1.1673861178946508e+01  8.9025467414109144e+01 -1.0865074156727970e+02 -1.2663367897914361e+01  8.6337426563583264e+01 -1.3503304122070966e+02 -4.1033265436780390e+01  7.5553305221034762e+01 -1.3072512826689251e+02 -1.2995565669685156e+01  5.6656415763392019e+01 -6.9988209315894380e+01 -2.2669126992555579e+01  4.3687541355249500e+01 -1.1699175065559220e+02 -5.1739502155489753e+01  2.8514887279017675e+01 -8.3118691686868374e+01 -7.2041918354164267e+01  5.0755177946300520e+01 -9.4939472271304922e+01 -3.4027969963163621e+01  5.1492652571631382e+01 -5.3046279919167951e+01 4.2294527226135958e+00  1.9245486783972444e+02 -5.1543744144556719e+01 -9.1817731229102435e+01  1.8751797082182236e+02 -3.6800599377477319e+01 -9.5023457963366340e+01  1.9378865576589624e+02 -4.1748499926616631e+01 -9.6353101059224429e+01  1.9696128001688214e+02 -3.7405503492589723e+01 -9.3564914812024043e+01  1.9943542429183208e+02 -2.6498744916709430e+01 -1.0162161022407126e+02  1.9166303577054006e+02 -3.0471944040441574e+01 -9.4916816643318157e+01  1.9756249618390558e+02 -3.2274715736962499e+01 -9.4929994447180619e+01  2.0603117852079143e+02 -1.4017665924133087e+01 -3.2425700265610949e+01  2.0416203288673455e+02 -1.7451058613879216e+01 -6.6066292520864224e+01  2.1118147172997277e+02 -6.9283278182209171e+00 -5.2571200791432112e+01  2.0510629311144137e+02 -2.3162120958994688e+01 -5.0097209238614624e+01  2.0423466636376517e+02 -7.8552942994324395e+00 -5.5355955456295376e+01  2.0627009689074646e+02 -7.9209098933206903e+00 -6.7674647140877724e+01  2.0740785128196148e+02 -1.7392507173631270e+01 -6.6110841401963782e+01  2.1219299067643502e+02 -7.9767424258727830e+00 -7.1019965816814249e+01  5.2333294572687635e+02 -2.8755830366096285e+02 -5.3279990366253386e+01  3.8657360430675919e+02 -2.4869961517108709e+02 -1.1732651009925872e+01  3.9060002829269246e+02 -3.3105564679386038e+02 7.7811927408940306e+01  3.6853924143080661e+02 -2.8972605829349334e+02 7.6501839923027788e+01  3.0115126977633037e+02 -2.4388552298296619e+02 5.5834700011325779e+01  3.2069698422877150e+02 -2.4467400617552966e+02 2.1561793488061562e+00  3.1187929022376301e+02 -2.2100859366057520e+02 1.1364819286921495e+01  2.9970549702013216e+02 -2.6910493166134222e+02 7.5504038170215168e+01  3.0154730793218687e+02 -2.8613581841770139e+02 5.2463852488520331e+01  2.6573155151984531e+02 -3.8724260516054109e+01 -9.0597035277408395e+01  3.1983573837164062e+02 -7.0897748865859512e+01 -5.9206608235856024e+01  2.9344526871777708e+02 -6.9751810391083907e+01 -7.1754904128015284e+01  3.1938162156393832e+02 -5.9145914540694960e+01 -2.6432974545933848e+02  2.6419077248425498e+02 -5.2043888901542104e+01 -1.5007962896562100e+02  3.0692064177466955e+02 -9.2507794774034821e+01 -3.0745079271189206e+02  2.0933252946357644e+02 1.0302569338097685e+01 -2.8151720812933223e+02  2.4540272153635294e+02 -2.0929306839901557e+02 -3.5239078259112688e+01  2.3146779206156876e+02 -2.1373683772627169e+02 -3.2082652902208523e+01  2.4075351889193308e+02 -2.0905466155489685e+02 -3.0733190468584532e+01  2.5382901665600212e+02 -2.0812206429525997e+02 -9.1212721954201683e+00  2.7561806778078801e+02 -2.2950971622750737e+02 -2.4746763883899479e+01  2.6064379587321412e+02 -2.1482660605185868e+02 -4.3804092893406377e+01  2.3524840657870391e+02 -2.0020224765938590e+02 -1.0904215382062850e+01  2.5382631071089187e+02 -2.0068996275511375e+02 -1.6004455569343669e+01  2.4355031262185895e+02 -1.7423318205767490e+02 1.5068035857430677e+00  2.1783711881330876e+02 -2.1117358342639000e+02 -1.9473440147452795e+01  2.6482613366802872e+02 -1.5267038540803122e+02 3.5376993638271280e+01  2.2469899409153419e+02 -1.4562028320470972e+02 -6.0771791183570540e+00  2.3444931515482597e+02 -1.4908841013724205e+02 -1.9028489891535955e+01  2.6273224468611880e+02 -1.4518029581069001e+02 -1.0408855568193781e+01  2.1737799684671810e+02 -1.6563108293147505e+02 3.1306332696425155e+01  2.0054785152213100e+02 -1.6320460335426392e+02 2.1332662535528570e+01  2.0875827559884723e+02 -1.5208046442415468e+02 -1.6556910736850817e+01  2.4889560431722350e+02 -1.3405014701542589e+02 -4.4165178614260121e+01  2.2995748112981320e+02 -1.3141656169223481e+02 -4.1014043241705309e+01  2.1490731644262084e+02 -1.2945248726424458e+02 -5.0776678246631604e+01  7.8212499211282122e+01 -1.2908512999443948e+02 6.9667826040157967e+00  3.4866214460109703e+01 -1.7101186964715012e+02 -9.4163579047539727e+00  3.8406284491989737e+01 -1.3522682099625709e+02 -6.6754570456640314e+00  3.7234866685706479e+01 -9.9763215925093903e+01 4.3985685780715549e+01  6.0708771552945443e+01 -9.9797078925638871e+01 2.2003151466797291e+01  2.8219252669680350e+02 -2.8916309830698818e+01 -1.2574295979732284e+02  2.4533127939485098e+02 -3.1677636796302522e+01 -1.4002130141856307e+02  2.1775382570562124e+02 -3.4198216165903887e+01 -1.8084288550024544e+02  2.1611079028897251e+02 -2.6517321774607566e+01 -1.4585479478838863e+02  2.4516888588867812e+02 -4.6891450373405284e+01 -2.2016870813289816e+02  2.5363763776331055e+02 6.8297481332420213e+00 -8.4134498626392627e+01  2.2528478877291386e+02 -1.1885730850644117e+01 -1.0434450242202263e+02  2.2613591581171255e+02 -1.1093590781890020e+01 -9.3556897149521959e+01  2.2882981668451384e+02 -7.6221078690041404e+00 -9.0832887852750986e+01  2.4413074238285722e+02 -1.0142910941437059e+01 -1.0860223497295839e+02  2.5257852155078811e+02 7.4678847554148025e+00 -9.5439028726802249e+01  2.3406653728718209e+02 -1.4474547036471220e+01 -1.2009561493948104e+02  2.3283716332205324e+02 -1.8018022014893525e+01 -1.3157275420067893e+02  2.1568869045595991e+02 -1.3031950546162493e+01 -9.1796113542288069e+01  1.4212910069004505e+02 3.3563882687683630e+00 -8.8377187739784659e+01  1.5566201907244681e+02 -1.3066043972084975e+01 -1.1882665671052141e+02  1.5267271648391176e+02 -1.0546607150162547e+01 -1.0732049522796240e+02  1.5102457438741811e+02 -3.1140490238108676e+00 -1.0196070226152402e+02  1.3591248528345184e+02 -4.6194572634170168e+00 -1.2228044010616121e+02  1.3624051549395114e+02 -8.5640103241601242e+00 -1.3221088044509943e+02  1.6388666223884468e+02 -1.0820134833841294e+01 -1.0919293360328663e+02  1.4933171024550361e+02 -8.5207619347776831e+00 -1.2084372921176193e+02  1.5723976730725087e+02 -7.1394353504536383e+00 -1.0881886558357637e+02  1.8714661901109790e+02 -5.2859995350947084e+00 -1.0089514707469981e+02  1.8482615734718891e+02 -6.3989868386118127e+00 -1.0385284111883141e+02  1.8586483400368391e+02 -5.2331565574999672e+00 -9.8983964030149437e+01  1.8528287395673553e+02 -4.2888651163339553e-01 -1.0311525374296198e+02  1.8569781475791416e+02 3.0032842829752093e-01 -1.0041939827744817e+02  1.8040833065655670e+02 -5.8010790585401590e+00 -1.2547209422706521e+02  1.8967655102368298e+02 -4.1420602973170467e-01 -1.0561139210475031e+02  1.8543505310429501e+02 -8.9187322645873979e-01 -1.0527920793437578e+02  1.8667334835267832e+02 -1.0248994798343952e+01 -1.0045608226024930e+02  1.5582796366997181e+02 -1.2593359326080568e+02 1.9790351364769300e+01  1.5954388734353583e+02 -1.6866695752345095e+02 -2.0955611438741335e+00  1.5145702658264986e+02 -1.5051125278308314e+02 6.3859702914104881e+00  1.5584245290231979e+02 -1.6831724577939360e+02 8.5180103568751830e-01  1.7698278482991188e+02 -1.6641295143122775e+02 1.7979306580580801e+00  1.7553409288556838e+02 -1.8121169956846285e+02 9.6054053214537016e-01  1.5773823067806035e+02 -1.7819302369549897e+02 8.4605437054877686e-01  1.6071300283341577e+02 -1.1198924356942554e+02 -1.2991848773864692e+02  1.6999890154133962e+02 -1.4714506887769164e+02 -8.1636121620629581e+01  1.6318498080631070e+02 -1.2103861655830379e+02 -1.0982594946909997e+02  1.5228704336834801e+02 -1.4252407828051992e+02 -1.3102131027374719e