<?xml version="1.0"?>
<VTKFile type="UnstructuredGrid"  version="0.1"  >
<UnstructuredGrid>
<Piece  NumberOfPoints="9443" NumberOfCells="43651">
<Points>
<DataArray  type="Float64"  NumberOfComponents="3"  format="ascii">0.09939099848270416 37.13388061523438 6.57960319519043  0.7576641909282684 37.38960597790886 5.818715339699573  0.7576641909282684 37.49743221081902 6.322780376473254  0.09939099848270416 37.53494453430176 6.11966609954834  0.09939099848270416 37.02605438232422 6.075538158416748  0.09939099848270416 37.93600845336914 5.65972900390625  0.7576641909282684 37.8984961298864 5.862843280831164  0.09939099848270416 37.4271183013916 5.615601062774658  0.09939099848270416 36.91822814941406 5.571473121643066  1.415937383373833 37.86098380640367 6.06595755775608  1.861300283900059 31.87443785817974 6.183664714588998  0.8530810078481144 31.83699218252408 6.491889857123258  1.435462781175839 31.53006723824677 6.439164099340573  1.483407338008158 31.9860400007012 6.677672254769389  1.278918510572334 32.18136280245704 6.236390472371682  1.105514392116258 32.09764214322267 7.171679794949781  0.9010255646804333 32.29296494497851 6.730398012552074  1.057569835283939 31.64166938076824 6.933171639520965  0.6965367372446084 32.48828774673435 6.289116230154367  1.00962527845162 31.18569661831381 6.694663484092149  3.807672023773193 37.56557083129883 6.368172168731689  3.971685016077589 38.29697183079913 6.56789883495548  3.470449385614579 38.07586146391363 6.773729106629518  3.83782696723938 37.94472503662109 6.1580650806427  3.867981910705566 38.32387924194336 5.947957992553711  4.001839959543775 38.6761260361214 6.357791746866491  3.500604329080766 38.45501566923589 6.563622018540529  3.133226747455965 38.58615209652842 7.179286044527347  3.634462377918975 38.80726246341393 6.973455772853309  4.135698008381985 39.02837283029943 6.767625501179271  3.726983070373535 36.12815856933594 7.049055099487305  3.408767870185219 36.61591841317254 7.005252336633948  3.643884006628199 36.50634917176361 7.353285859647543  3.401062896964394 36.2663529071911 7.143838380945471  3.73468804359436 36.47772407531738 6.910469055175781  3.636179033407374 36.15678366578216 7.491871903959066  3.742393016815186 36.82728958129883 6.771883010864258  3.545374996441212 36.18540876222839 7.934688708430828  3.310258859998232 36.29497800363733 7.586655185417232  3.075142723555252 36.40454724504626 7.238621662403637  8.957714824891641 37.49830786313663 10.30267498765546  8.732273772897992 37.58299521047555 10.76827083625391  8.654511314331565 36.95206880314166 10.79520387513729  8.410459021940611 37.18565235529953 10.40052353682448  7.863203218989582 36.87299684746243 10.4983720859935  8.429070262337916 37.03675615048058 11.26079972373574  8.185017969946962 37.27033970263845 10.86611938542293  8.107255511380535 36.63941329530456 10.89305242430631  8.351307803771487 36.4058297431467 11.28773276261912  8.506832720904344 37.66768255781447 11.23386668485236  10.24765968322754 38.37421035766602 8.449137687683105  9.521052724302747 37.92521901516841 8.423400723892659  9.934085975369612 38.07139283930623 8.733637168072599  10.15244960784912 37.98287963867188 8.30709171295166  9.834626432160675 38.2280365335282 8.138901243503167  10.0572395324707 37.59154891967773 8.165045738220215  9.838875899991194 37.68006212031209 8.591591193341154  9.739416356782257 37.83670581453406 7.99685526877172  9.42159318109381 38.08186270939038 7.828664799323226  9.620512267511684 37.76857532094644 9.018136648462093  7.000444889068604 38.59492111206055 5.483922004699707  7.529833355049316 38.38883347656512 6.095363835844836  7.189261189453985 38.15971772111075 5.973116595420726  7.412685679541864 38.44204071272976 5.540934345602943  7.117592564576055 38.54171387589591 6.0383514949416  7.072113513946533 38.21292495727539 5.418687105178833  7.143782138824463 37.83092880249023 5.353452205657959  7.484354304419794 38.0600445579446 5.475699446082069  7.234740240083507 38.48850663973127 6.592780985183493  7.824926470015126 38.28916031339897 5.597946686506178  3.067569993728412 37.50982825849002 9.397086602294902  2.400217194742554 38.02834166635273 9.545442280448425  2.348876618482983 37.87946784600578 9.074032173924302  2.267004525284844 37.29590951242675 9.207386308111161  1.466439056841277 37.08199076636348 9.01768601392742  1.599651726298987 37.81442292028946 9.355741986264684  1.548311150039416 37.66554909994251 8.884331879740561  1.630183243237555 38.24910743352154 8.750977745553701  1.681523819497126 38.39798125386849 9.222387852077825  1.732864395756697 38.54685507421544 9.693797958601948  4.97385317958292 37.41856769884397 11.12556542032944  4.939453460088314 37.00082842736154 10.45606001383456  5.243649730466261 37.12611064567927 10.91116821849458  4.919602433296228 36.93482988736228 10.71925428776771  4.669656909204972 37.29328548052624 10.67045721566943  4.365460638827024 37.16800326220852 10.21534901100941  4.61540616291828 36.80954766904455 10.26414608310769  4.865351687009535 36.45109207588059 10.31294315520597  5.189398984179569 36.64237283419757 10.50485708593284  5.513446281349603 36.83365359251457 10.69677101665972  8.204023361206055 38.75799179077148 4.539855003356934  8.730825206417505 38.2035125819056 4.634555055435229  8.333933778856441 38.0990865517107 4.815243577557675  8.633610984463159 38.69224778088021 4.889718486602831  8.3012375831604 38.26925659179688 4.284691572189331  8.398451805114746 37.78052139282227 4.029528141021729  8.431148000810786 37.61035135273609 4.560080146390073  9.063198607720263 38.62650377098894 5.239581969848729  8.763521402113547 38.03334254181943 5.165107060803573  8.463844196506829 37.44018131264992 5.090632151758418  9.977523803710938 37.94239044189453 6.546234130859375  9.490811375400883 38.0680311257635 6.213396513364066  9.465950993320805 38.50288563320979 6.242310011288871  9.450788048527103 38.08178120205744 6.589940988919486  10.01754713058472 37.92864036560059 6.169689655303955  9.992686748504639 38.36349487304688 6.19860315322876  10.00784969329834 38.78459930419922 5.850972175598145  10.03271007537842 38.34974479675293 5.82205867767334  10.0575704574585 37.91489028930664 5.793145179748535  8.924052293343269 38.22117196222036 6.633647846979597  6.908889770507812 35.57080841064453 11.01955032348633  7.412954330444336 35.18450927734375 10.82579517364502  6.956885814666748 35.30207443237305 10.73031520843506  7.278205394744873 35.17710876464844 10.81087017059326  7.3649582862854 35.45324325561523 11.11503028869629  7.821026802062988 35.33567810058594 11.21051025390625  7.734273910522461 35.05954360961914 10.90635013580322  7.647521018981934 34.78340911865234 10.6021900177002  7.326201438903809 34.90837478637695 10.52163505554199  7.004881858825684 35.03334045410156 10.44108009338379  0.09939099848270416 35.25635147094727 6.474819183349609  0.09939099848270416 35.67008590698242 5.843915939331055  0.5953471853847991 35.52013328483913 6.018105352789666  0.09939099848270416 35.25205612182617 6.002933979034424  0.09939099848270416 35.67438125610352 6.31580114364624  0.09939099848270416 36.09241104125977 6.156783103942871  0.5953471853847991 35.93816306999538 5.859087313086297  0.09939099848270416 35.24776077270508 5.531048774719238  0.5953471853847991 35.51583793571804 5.546220148474481  1.091303372286894 35.783915098731 5.561391522229722  4.438023090362549 39.89572906494141 7.293386936187744  4.273937196182021 39.13434923453843 7.343722303859357  4.037108189587769 39.56802735185941 7.476055497865058  4.425099737172303 39.56802735185941 7.606603021363593  4.286860549372267 39.46205094762042 7.030506218683508  4.050031542778015 39.89572906494141 7.162839412689209  3.662039995193481 39.89572906494141 7.032291889190674  3.898869001787733 39.46205094762042 6.899958695184973  4.412176383982057 39.24032563877743 7.919819106539442  10.78489971160889 36.67596054077148 10.913330078125  10.57532127022506 36.35888161119942 10.42742811643891  10.54276092171432 36.7697168773127 10.53289829695039  10.88804006576538 36.55175590515137 10.50916481018066  10.81746006011963 36.2651252746582 10.80785989761353  10.85002040863037 35.85429000854492 10.70238971710205  10.92060041427612 36.14092063903809 10.40369462966919  10.99118041992188 36.42755126953125 10.10499954223633  10.64590127587081 36.64551224169259 10.12873302900605  10.30062213181975 36.86347321385393 10.15246651577577  2.92472619037406 37.70330322599227 6.18092467257088  3.314791621968909 38.03366363858993 6.343340177026446  3.284636678502722 37.65450943326766 6.553447265115436  3.447761535644531 37.61436462402344 5.995649576187134  3.477916479110718 37.9935188293457 5.785542488098145  3.087851047515869 37.66315841674805 5.623126983642578  2.761601333232252 37.74344803523649 6.738722361499182  2.902076959609985 34.07950973510742 7.844180107116699  2.499376680887183 34.3073553549563 7.05885270433757  2.448599722421607 34.02206940524927 7.230629237464401  2.449362185037574 34.31108994357935 7.576687844565841  2.952091455459595 34.07577514648438 7.326344966888428  2.901314496994019 33.79048919677734 7.498121500015259  2.900552034378052 33.50146865844727 7.152062892913818  2.951328992843628 33.7867546081543 6.980286359786987  3.002105951309204 34.07204055786133 6.808509826660156  1.996647410465162 34.54267015205128 7.309195582014984  4.851456165313721 39.89572906494141 8.992212295532227  5.641551637783471 39.30106013943146 9.072030936415505  5.29994742188735 39.54639149664958 8.596829472999705  5.189078712597314 39.30106013943146 9.236874018843483  5.303929090499878 39.89572906494141 8.827369213104248  5.756402015686035 39.89572906494141 8.66252613067627  5.752420347073508 39.54639149664958 8.431986390571726  5.526701259880907 38.70639121392151 9.481535742154739  5.637569969170944 38.95172257113963 8.84149119631096  5.74843867846098 39.19705392835776 8.201446650467181  1.473800943773357 34.97979927444473 5.631781654846047  1.47241125821448 35.31802998059906 5.170522729869285  1.00580395841
[...]
<PointData  Vectors="u"> 
<DataArray  type="Float64"  Name="u"  NumberOfComponents="3" format="ascii">2.0003677330908067e+02 9.2901099969495633e+01 -3.2256610116392226e+00  1.6330728736565641e+02 9.5950605031196645e+01 1.9954264330858258e+01  1.7260052513653318e+02 9.7414332915812466e+01 1.1406465234882033e+01  2.0141867201182137e+02 1.2148429369141779e+02 5.6176259427058941e+00  2.0156717061705203e+02 8.6224163045802570e+01 8.9599568688453815e+00  1.5364456423608073e+02 1.8300502840121561e+02 1.4459996659923263e+01  1.4002563370743013e+02 1.1795348552989269e+02 2.0145045581070217e+01  2.0126517128499316e+02 1.1488184179998412e+02 1.1747270578057158e+01  1.9836194384202264e+02 7.9567984383173538e+01 1.0861770966492701e+01  1.5498736549687402e+02 9.0353047547387050e+01 3.7711018093933632e+01  1.1366891144311501e+02 -2.3971784110922724e+02 -7.6543600394652785e+01  1.4109018212165915e+02 -2.2626487275692349e+02 -3.8887374506345914e+01  1.2104604832869043e+02 -2.4600997701021376e+02 -7.0437630364138244e+01  1.0354137704722498e+02 -2.1595507166218439e+02 -7.0090572405505370e+01  1.2836021144249295e+02 -2.0963645858525143e+02 -5.1732922645316386e+01  9.1381791490235003e+01 -2.0497715750213970e+02 -5.1188570258704317e+01  1.2849478382749848e+02 -2.0084913621641084e+02 -3.8155830627965649e+01  1.0482551030253092e+02 -2.2894854948860601e+02 -5.5860437841470372e+01  1.5758483226462974e+02 -1.9015876855645490e+02 -3.2483551093768767e+01  1.1798153685598231e+02 -2.6503128103522465e+02 -5.6419950358671606e+01  3.9498349329561609e+02 1.2114169224311730e+02 1.8961251789303549e+02  4.1091999602685098e+02 4.4907197944497391e+01 1.0303006530624884e+02  3.4595107334737241e+02 6.3719804803445598e+01 9.1440165750325420e+01  3.9892193202638748e+02 1.1937309343009181e+02 1.9374365327915993e+02  3.9189769240225286e+02 9.1707858690185503e+01 1.7096635394947558e+02  4.0431483030984981e+02 2.7273882119796443e+01 9.5148977785082096e+01  3.3577012192069265e+02 5.2290495851573176e+01 9.4663390936366980e+01  3.0026806739319721e+02 4.3643741340757586e+01 3.9589732322841066e+01  3.4598760123999904e+02 2.5170788988853293e+01 5.8119255172649240e+01  3.9641272604718228e+02 8.4947341403149312e-01 6.9389493941651168e+01  4.8920965083759421e+02 1.8026595940863356e+02 2.0418891328934703e+02  3.6306464429570332e+02 1.2437685551903586e+02 1.5455758631649513e+02  4.5348271680535112e+02 9.7270234973346945e+01 9.4406907573878613e+01  3.7392623074937006e+02 1.3736464343321182e+02 1.5525850558516987e+02  5.3303553746877833e+02 1.3874650278270855e+02 2.3242509435235391e+02  4.6026556929527993e+02 1.2828192171704154e+02 9.2772480292399379e+01  4.4341607682960654e+02 1.1305140747618665e+02 2.0409721066108068e+02  4.3990428412028433e+02 1.0021224828084000e+02 1.8690772043984150e+01  3.8097831172350772e+02 1.0969137152398044e+02 6.4709153772309335e+01  3.1305523568329437e+02 1.1396741240738235e+02 9.3646701104646809e+01  1.6524998350962272e+02 -1.3668233852187839e+02 -3.9406019997939282e+01  1.8344291482695647e+02 -1.1874239779809719e+02 -2.9834497018086125e+01  2.0853250696639955e+02 -1.6553721632526077e+02 -3.4782987205830857e+01  2.2553379672459167e+02 -1.4425802828399441e+02 -4.0944142300332359e+01  2.9100403916306811e+02 -1.4990919312122907e+02 -4.2120638019617758e+01  2.2653476836091409e+02 -1.4808640249901961e+02 -2.4809485964003343e+01  2.4576068387806302e+02 -1.2644544958888770e+02 -3.0049705523548390e+01  2.7414283274471751e+02 -1.7482131339287633e+02 -3.4673201498948274e+01  2.5645129903242201e+02 -2.0173688003846064e+02 -3.0775668357561198e+01  1.9981289882949824e+02 -9.9688888595510065e+01 -1.7690388055662023e+01  -2.3898939095003506e+01 -9.0564626696710107e+01 -4.8018053802998523e+01  6.4342575754993206e+01 -1.2502439238156526e+02 -8.2210230341089300e+01  2.6067702717059444e+01 -1.1450020856970622e+02 -4.9842315422174636e+01  -3.1643113253686401e+01 -1.1674153789745807e+02 -5.8690784140708956e+01  1.0640271770052149e+01 -1.0305733381645952e+02 -9.1501024960772284e+01  -2.3178403112318648e+01 -1.5442891316296803e+02 -8.1233163634447180e+01  2.9659317062744805e+01 -1.4494566507114197e+02 -5.9986380689573927e+01  2.2009987972312807e+01 -1.3321160701648020e+02 -1.0623574209227179e+02  6.4664220393561394e+01 -1.1574189225105978e+02 -1.2215632759564606e+02  7.4986633286157442e+01 -1.3614996592491161e+02 -5.4267746977550011e+01  3.0368114894271793e+02 -7.5549882341927912e+01 -2.6938895066637338e+02  2.5835701145446859e+02 -1.0333845001034628e+02 -2.1540930682917678e+02  2.9415789056192847e+02 -1.2885600012911004e+02 -2.3646519924495016e+02  2.3963503774198549e+02 -1.0138836912463894e+02 -2.2931969552127214e+02  3.0650479984724416e+02 -8.4364210487195990e+01 -2.3486287010171841e+02  2.7197501660621617e+02 -1.3154517320045659e+02 -2.5939544621623691e+02  2.5814982784615074e+02 -1.7833286936712926e+02 -2.7070962919019439e+02  2.3066384852272765e+02 -1.4588414716704500e+02 -2.3757158582240453e+02  3.0992953922996071e+02 -9.0309758048829991e+01 -1.9668510526896108e+02  2.0826689535127261e+02 -1.2159293631438432e+02 -2.1430595396315130e+02  3.2078388749996208e+02 6.7856251979011247e+01 -1.1505916527279383e+02  2.6027409075879109e+02 7.9642369086734291e+01 -1.1191015545756005e+02  2.6309466069066298e+02 7.6732534534000990e+01 -8.5033927395382264e+01  2.6575382247841878e+02 8.1226536545329921e+01 -9.6003532694668280e+01  2.2601165866222260e+02 9.0661696062417718e+01 -8.2367705935354877e+01  2.1838771369237708e+02 9.3270131555530241e+01 -9.5483280254182148e+01  2.2053982287921735e+02 9.1627539546087192e+01 -7.2872110457193855e+01  2.1308374969712756e+02 9.0102407429103266e+01 -6.3762949609017205e+01  2.1190980561345086e+02 9.0154309962762127e+01 -8.6882913753908838e+01  2.1025990326848816e+02 8.9807285482597337e+01 -1.1357413065689560e+02  5.7927555599657012e+02 8.5139573155624575e+01 -2.8865067667004132e+02  5.2883140957780495e+02 1.9038881607750159e+01 -2.1544089865976446e+02  5.9641229254973621e+02 2.6989700448256880e+01 -2.3220688869944499e+02  5.5512060567967706e+02 3.6002503429216738e+01 -2.4712247078911480e+02  4.9101260873190853e+02 5.9616082624598384e+01 -2.4308802261796151e+02  4.5382994461007979e+02 4.8418449179054285e+01 -2.0376869945259534e+02  5.0441325440142833e+02 3.5254350819284191e+01 -2.2252005629010443e+02  5.7698844810773210e+02 4.4226932231984559e+00 -2.3862635613852788e+02  5.9501568844269752e+02 -2.7194266959165383e+01 -2.1701005984215064e+02  6.0282832396717833e+02 -4.0868948364249064e+01 -1.8149073949855085e+02  1.7851366741234344e+02 -1.4062806342522862e+02 -1.7924408469094095e+02  1.6399677908343185e+02 -1.4699592263102457e+02 -1.9522733928790930e+02  1.6852543467562842e+02 -1.5181712571130586e+02 -2.0365176104000196e+02  1.6241460753283815e+02 -1.2757481453455250e+02 -1.8211510083757750e+02  1.5594759170993649e+02 -1.6072410093380270e+02 -1.8870008702497788e+02  1.3541867277409258e+02 -1.7694076764636168e+02 -1.8814804048983981e+02  1.4647693294970415e+02 -1.6591217326370870e+02 -2.0754458075065713e+02  1.5007206856889150e+02 -1.2091635248833981e+02 -2.0309698512006747e+02  1.5469008064023552e+02 -1.4184000224353693e+02 -2.0584347745607047e+02  1.5394117185582797e+02 -1.6228621864026769e+02 -2.1587591231753635e+02  1.4415818159839697e+01 -1.4119755787843479e+02 -2.3294860555638687e+02  8.6924546506885846e+01 -1.3198944394982320e+02 -2.1968026050825750e+02  8.0127974282518991e+01 -1.0834256927072447e+02 -2.0859935478553186e+02  7.5136992398563848e+01 -1.2485878854311508e+02 -2.0152467469429601e+02  3.4627151264704409e+01 -1.4306690764617662e+02 -2.6551399968905866e+02  1.6450068006221446e+01 -1.2621711459189500e+02 -2.6076201608551747e+02  8.3264856973130790e+01 -1.2788728793298679e+02 -2.7548086403231213e+02  8.4397480985361625e+01 -1.2549085841855126e+02 -2.9568261044223505e+02  1.0163284605604589e+02 -1.4709515663263898e+02 -2.8847240676518055e+02  1.2714003871566061e+02 -1.1243865719348277e+02 -1.8474171631881768e+02  4.0746694427859330e+02 -2.3186966230073824e+02 -4.0608598821274889e+01  3.9743181233699181e+02 -2.5592552940319180e+02 -6.0669280803254743e+01  4.1549771155197817e+02 -2.5581543671614395e+02 -2.7500663289561409e+01  3.9526723366643466e+02 -2.3485647801056760e+02 -7.4995017067398578e+01  3.8632839098179892e+02 -2.3563303733947726e+02 -4.8892064082468202e+01  3.8291409923100406e+02 -3.2124275619172971e+02 -2.2310706712086169e+01  4.1535920214875892e+02 -3.6648516907644409e+02 -3.9196954039163252e+00  4.0271802773096056e+02 -3.7064063300977688e+02 3.5363065908383483e+01  4.3378711601608649e+02 -2.7164765015100602e+02 -4.9649083687714452e+01  4.2464212811582883e+02 -2.5031898207727517e+02 -2.9650913152574748e+01  1.9963707390618711e+02 -6.5482941052515775e+00 -1.4198793541747698e+01  1.9973839903729990e+02 9.9641463959301575e+00 3.3731678018939730e+00  1.7893212652196513e+02 3.9861661808376607e+00 -1.0363774107116358e-01  1.9972160166508360e+02 -1.2796670738585867e+01 -4.7840315408249916e+00  1.9889237368457839e+02 1.4793152513257411e+01 -6.3738730024003942e+00  2.0009352481625538e+02 3.5873535546003644e+01 1.1368232416759816e+00  1.7786246801795440e+02 2.5239201491878593e+01 7.8047989178191877e+00  1.9993042711504125e+02 -1.9258988801629634e+01 -4.0522533794239213e-01  1.7361854781184664e+02 -2.5850068488707985e+00 6.1297857830365858e+00  1.4912277482227481e+02 1.4603396652032275e+01 1.8552021751512797e+01  3.9157951251821584e+02 8.4666558146407833e-01 2.9163252139221992e+01  3.9236480904772588e+02 -2.8297245891640652e+00 2.2237753233559406e+01  3.6105385067131857e+02 1.2187427435387410e+00 1.8284726377208049e+01  3.8765643918350895e+02 -2.1572304707534018e+00 3.6891387532256350e+00  3.8916783921761612e+02 -6.5875193965464529e+00 4.8994000799707699e+01  3.6325233335919307e+02 2.3538628467700673e+00 4.3020228524158590e+01  3.2665169718666982e+02 -1.0014402894542000e+00 5.2806222438547863e+01  3.5453306562882079e+02 2.7951959238353514e+00 6.3021828041873441e+01  3.8689436600754277e+02 -1.0655550924691390e+00 -2.0052844776035013e+01  -5.3688975615248591e+00 -2.7658649004924661e+02 -8.4261027637694184e+01  5.6533600068481107e+01 -3.2540771479022214e+02 -5.9682201518716845e+01  3.1000574644553542e+01 -2.5393858279163308e+02 -5.7034951304007940e+01  -1.3977085102698879e+01 -3.1833317443016364e+02 -7.0996152840385335e+01  2.4275389983793229e+01 -3.5548014764488619e+02 -8.9535313710871975e+01  1.0528753923979608e+02 -4.5216145377973243e+02 -4.6389434276407343e+01  6.5081235704281994e+01 -4.0070818505785650e+02 -7.9209246729849539e+01  1.3677064117885244e+01 -3.5311661803800575e+02 -3.2963412201418748e+01  3.2780645791030516e+01 -2.8164899782174604e+02 -4.2719740237210601e+01  5.8723296306277490e+01 -2.3751597708291538e+02 -4.0449197208002325e+01  2.3782431363550532e+02 1.0539707551808139e+02 1.1640242392386118e+02  2.9885890310451157e+02 8.9296527816050101e+01 1.2227731809176341e+02  3.0857590841582737e+02 9.8145412270265098e+01 1.2424293423267896e+02  2.7667549284722861e+02 1.3698326528839382e+02 1.6961398431559996e+02  2.5194353027280309e+02 1.2969925678451054e+02 1.6929563866618574e+02  2.0612927782663945e+02 1.3788483302116956e+02 1.5644436730144704e+02  2.5792694973602590e+02 8.4485980886686107e+01 7.5541874451892809e+01  7.1964661149072199e+01 8.9946039473217780e+01 -2.6216127702486855e+01  7.1643770652837134e+01 9.1854019564064053e+00 -1.9484375829137463e+01  6.6755645104192610e+01 -6.5618338766246902e+00 -4.0940163789316784e+01  1.0491711066577817e+02 4.5427246661833315e+01 -3.1453502047890773e+01  8.8358012428826651e+00 4.4108040005015184e+01 -2.6127242793831645e+01  8.6198281204718938e+00 3.5704000407181207e+00 -4.8847730546091825e+01  1.7310216637174185e+00 -5.6405891287507728e+01 -6.6457474814668089e+01  8.3638100126288606e-01 -3.2441977781712460e+01 -4.7588286322348651e+01  7.5164985550666108e+00 -5.7914214187868316e+00 -1.9948259589705252e+01  1.2811103496855080e+02 1.3493958320146053e+01 -2.7996464258347146e+01  3.9740350543333363e+02 -1.1235876147121155e+00 -5.4963589139740407e+01  3.9381029163765822e+02 -4.1699373762033715e-01 -4.8014150618834165e+01  3.9900625544698767e+02 -3.2408013092799921e+00 -5.1745942587744537e+01  4.1103560426890385e+02 8.3327833909478262e+00 -5.3205171973285630e+01  3.9981047864591579e+02 1.1262191832413160e-01 -4.7193177311429857e+01  3.8644390673953041e+02 -3.8775282988998161e-01 -5.0058070615840954e+01  3.9027308186465149e+02 -7.5295340572433638e+00 -5.5785322266401153e+01  4.1837003351641687e+02 1.0229801267620553e+01 -6.1044354310364355e+01  3.9860814519914254e+02 -1.1370871984376885e+01 -5.9757460233516454e+01  3.9907230515097694e+02 -2.0981433555428758e+01 -6.1408277660757527e+01  1.2666961818026969e+02 -3.0770828079323525e+01 6.8035534007135405e+00  1.1919598077968098e+02 -2.2204898065179023e+01 2.0355963616459018e+01  1.5069000995032764e+02 -1.9302037211676488e+01 8.1649465712886240e+00  1.3034848709421206e+02 7.0794654450340451e+00 2.3799299339853683e+01  1.0623746262774924e+02 3.1324032032194205e+00 2.6817668339587861e+01  9.6635412447188770e+01 -3.4650622903976924e+01 1.7670520797173555e+01  1.5345313411132966e+02 -5.4384649627146217e+01 -1.4086964109098208e+00  1.2451275113754249e+02 -5.7504148074646068e+01 5.9783525522357932e+00  9.6071830345091584e+01 -6.6096428426432823e+01 1.4775303575486246e+01  9.3451921381733871e+02 4.6494212775860902e+01 -1.2722233241963816e+02  4.9312308918090059e+02 -1.0318157164202741e+02 2.7488260508705675e+01  6.2079221649989961e+02 6.7530481610860047e+00 -5.0744690912216157e+01  9.8820465083197610e+02 -5.4867060107326523e+01 -1.2893874657761143e+02  5.7642562111183543e+02 -1.4700503490242875e+02 1.0257431058398828e+02  9.4446052803072860e+02 -1.5918342861255016e+02 -1.4980878185330562e+02  6.4910359280448870e+02 -7.2750425132793097e+01 -8.6236424186127365e+01  6.0155973555236710e+02 -1.5518533238849125e+02 7.1456814031607720e+01  4.7286096351881849e+02 -1.4971049870547893e+02 2.2580622593152103e+01  5.1147754848861479e+02 -2.9689100220900105e+01 -7.3981453517481484e+01  1.6314339196471013e+02 5.6407679292187510e+01 -8.9777226640084280e+01  2.1708290864560945e+02 7.2026285565762876e+01 -1.0787250255822794e+02  2.2468472210058545e+02 6.8386677802129157e+01 -1.3186635080968355e+02  2.1939082764028524e+02 5.4775238872923055e+01 -9.6799700158899967e+01  1.3847283914265412e+02 4.4633723241479899e+01 -5.3496904358535183e+01  1.3476694563026516e+02 6.5799869299352380e+01 -7.0383282374780975e+01  2.0868743655951380e+02 6.7771121479306757e+01 -8.2342855733029594e+01  2.4810832778880209e+02 6.2410903811803145e+01 -7.8179339724777222e+01  2.5832378725032845e+02 6.2595370918819974e+01 -1.1451313150446470e+02  2.6815156693451945e+02 5.7374127991601014e+01 -1.6087285547524118e+02  1.8312714552785971e+02 1.4862739546969286e+02 -1.6993558413287602e+02  1.7717225019444302e+02 1.3555760356314690e+02 -1.3623914074550456e+02  1.7667863502622600e+02 2.0178296407418594e+02 -1.1854563473274931e+02  1.1370488267075902e+02 1.7034925383250021e+02 -1.4252521485685955e+02  1.1747846376663733e+02 1.1317246802903645e+02 -1.2122036416889790e+02  1.5640605552674978e+02 1.2225156970981587e+02 -1.2390051124571369e+02  1.2584495149600680e+02 1.5661573953745986e+02 -1.0072296689169831e+02  1.7198399649569768e+02 1.8162313879456337e+02 -1.0020159830265861e+02  1.7501724512037876e+02 1.4097258254117668e+02 -1.1353469847725991e+02  1.8812329061389116e+02 1.1234301871450076e+02 -1.2450351183131173e+02  3.3681577268598323e+02 -1.3818987621741735e+02 -1.5292472085533719e+00  3.5329370407519394e+02 -1.5799655751588310e+02 -2.4600332898266753e+01  3.8268114657273662e+02 -1.4727406913751534e+02 -1.2301463220057402e+01  3.4755430175489784e+02 -1.3184032541485473e+02 -6.1646521289246179e+00  3.6276266781562435e+02 -1.3872847510858293e+02 -1.4410818698900435e+01  3.5336585373335413e+02 -1.6453170878646915e+02 -2.5413906711535478e+01  3.7392724019119999e+02 -1.6315753880259155e+02 -4.5892806515158044e+00  3.7809013624553018e+02 -1.6163246720383171e+02 -3.7082195030048929e+01  3.6539488216670338e+02 -2.0483632348107500e+02 -3.2823037664365906e+01  3.5853142741764856e+02 -1.1929069355020350e+02 -1.6020981853953973e+01  3.2969734214658973e+02 2.1970762815230503e+02 -1.6984466656156016e+02  2.3977693445981376e+02 1.3828156593116302e+02 -1.4591346206332901e+02  2.1425933793362947e+02 1.7088036665709259e+02 -1.7724231387061451e+02  3.1132972502268632e+02 1.6882060721251273e+02 -1.8370896715130681e+02  2.9862379182498006e+02 1.4253561425982542e+02 -1.8519708445878462e+02  2.4782521208034314e+02 1.2160784527687157e+02 -1.4898766366690495e+02  2.3041981763743021e+02 1.4579108662186061e+02 -1.7875252656677517e+02  1.7731103583575603e+02 1.3243032262616498e+02 -1.7242586361820716e+02  2.0055092450139935e+02 1.1401112149107355e+02 -1.5399425056373141e+02  2.1500697718806055e+02 9.6026991010137095e+01 -1.3134539672932243e+02  4.3963864589367159e+02 -3.9328525859286776e+02 -4.4050805273815928e+02  2.6962216501656917e+02 -2.5922218188343663e+02 -3.1907565376259191e+02  3.7107328899640027e+02 -2.7037018673175595e+02 -3.3463015795353914e+02  3.0926917478966061e+02 -3.0220750383860650e+02 -3.5662598537289836e+02  3.0826858450691361e+02 -3.1865222835557142e+02 -3.9502999496110021e+02  2.6459429179997676e+02 -2.6860207169958119e+02 -3.6899589951574558e+02  3.0314902503235282e+02 -2.4619610340942967e+02 -3.1495607596932928e+02  2.7670494038405747e+02 -2.5325211095196514e+02 -2.9000546324964199e+02  3.0315956490388385e+02 -2.3962268630777547e+02 -2.7991376566781264e+02  3.2558235693150181e+02 -2.2144410005348888e+02 -2.6937698723810576e+02  1.2471148634647398e+02 -7.9401091014095641e+01 1.2780024398876426e+00  1.1910054558495094e+02 -1.3533170674223146e+02 4.1061082995928047e+00  1.4585159421391927e+02 -1.3123942295416117e+02 -7.7665758084214476e+00  1.1327678597507270e+02 -1.0622351853949857e+02 5.5124003369754817e+00  1.2823055654067971e+02 -1.0992053189253399e+02 -4.9542087534494410e+00  1.4052064674335696e+02 -9.8734264587133922e+01 -3.4909058011469214e+00  1.3040745063648637e+02 -1.3864482788782939e+02 -4.3274871398883068e+00  1.5078253351798156e+02 -1.2000217669105164e+02 -1.0973567450200889e+01  1.2412266013821257e+02 -1.2420635508858480e+02 -4.7139094428135246e+00  1.0462821531006148e+02 -1.3027641520357034e+02 3.3552511113496299e+00  1.1664588645231771e+02 -5.1110829553111301e+01 -1.9810088907936681e+01  1.2111574517810519e+02 -5.9160840074443328e+01 -1.0257258892871894e+01  1.3694073700547662e+02 -1.2183325640318806e+01 1.6615006473973823e+00  8.8186204837605914e+01 -3.3913339978409759e+01 -2.5985885819114123e+00  9.2312682741561929e+01 -4.8753703272167677e+01 1.2616202381656272e+00  8.7726803547948748e+01 -9.9660113411025662e+01 -1.8011332836629073e+01  7.6915222177168161e+01 -8.9836065537995339e+01 -2.5878758989820053e+01  6.5443289171817398e+01 -7.7423409329132681e+01 -3.4666273623332152e+01  1.5837473959006036e+02 -2.9576205892888012e+01 -1.4519071979829409e+01  1.3989751378357332e+02 -1.5124255155261042e+02 -1.0557475211857360e+02  1.7213572573330038e+02 -4.2648087875459865e+01 -9.2658479269669542e+01  1.8038182349061606e+02 -2.4293489021566593e+01 -1.1486311008771175e+02  2.0244564263075867e+02 -4.6618408248292916e+01 -1.0127083393010558e+02  1.9986938083246713e+02 -7.3903141687201934e-01 -8.5027931067889398e+01  1.8099470941989358e+02 1.3951929257262277e+01 -8.6312193313734383e+01  1.8604014109182651e+02 -2.6700116355682169e+00 -7.6070695164126676e+01  1.9085826753113457e+02 1.1951666163283065e+01 -9.7364505041984600e+01  1.8820526605692922e+02 2.8953451806047827e+01 -1.0621075983313732e+02  1.7497505839443528e+02 1.0079882105231455e+00 -6.5710992742342938e+01  5.5150258558740256e+02 6.5321053539359454e+01 -6.8934779596872403e+01  4.5464084644957580e+02 4.5338212076811317e+01 -4.6830215517522952e+01  4.2196638421758468e+02 2.1336521030422613e+01 -1.1528477806488856e+02  4.4355300825508766e+02 1.8474247292896212e+01 -5.7632583251437310e+01  3.8908236107587709e+02 9.7385683898387256e+00 -7.273004291243