<?xml version="1.0"?>
<VTKFile type="UnstructuredGrid"  version="0.1"  >
<UnstructuredGrid>
<Piece  NumberOfPoints="8880" NumberOfCells="41921">
<Points>
<DataArray  type="Float64"  NumberOfComponents="3"  format="ascii">11.96086978912354 21.09909057617188 7.13765811920166  11.08332905525936 21.23667521248753 7.113614890715408  11.50855251104168 21.48121942128384 6.986638152151846  11.50880894417537 21.23892016182835 7.420595977446365  11.53538990020752 21.09684562683105 6.830677032470703  11.1099100112915 21.09460067749023 6.523695945739746  11.08307262212567 21.47897447194302 6.679657065420889  11.05674809922721 21.37874974748484 7.70353383569107  11.05649166609352 21.62104900694032 7.269576010396552  11.05623523295983 21.86334826639581 6.835618185102033  12.2681282822923 23.76290279433043 7.230689188211207  11.96926370632642 23.35201471041943 7.413777947021426  12.14570429513739 23.76233872822342 7.941687483004817  12.63137326131424 23.38820916077626 7.823499766983531  12.02328030798247 23.7617746621164 8.652685777798427  11.8468397191715 23.35145064431241 8.124776241815036  12.33250868534835 22.97732107686525 8.006588525793751  11.67039913036053 22.94112662650842 7.596866705831646  11.1912202835083 22.47224998474121 9.807111740112305  11.67504413153461 22.25648257457649 9.521870966436406  11.32267774781186 22.50535905765416 9.231069242304207  11.5728575154205 22.93388879703404 9.352703248804451  11.45413521211542 22.53846813056711 8.655026744496109  11.80650159583817 22.28959164748944 8.94582846862831  12.15886797956093 22.04071516441177 9.23663019276051  10.82368201235712 20.55053228940228 7.029921961764928  11.22433886284603 20.89824003945287 7.316246364256668  10.68267220477045 20.88896746243695 6.827290488223668  11.25091981887817 20.75616550445557 6.726327419281006  11.39192962646484 20.4177303314209 6.928958892822266  10.6560912487383 21.03104199743425 7.41720943319933  10.2554343982494 20.68333424738367 7.13088503070759  10.36021995544434 23.56348037719727 8.676482200622559  10.09061342508969 23.10641720167209 8.456493171682759  10.41094356806454 23.27417709699679 8.538805755606099  10.26290512084961 23.15200519561768 8.851784229278564  10.03988981246948 23.39572048187256 8.594169616699219  10.16559028625488 22.74053001403809 9.02708625793457  10.31362873346982 22.8627019154172 8.714107784262104  9.942574977874756 22.98424530029297 8.769471645355225  9.719559669494629 23.22796058654785 8.511857032775879  10.46166718068475 22.98487381679632 8.401129310589639  10.710129737854 24.32493019104004 8.518379211425781  10.5868168975389 23.80178407201534 8.125154343897485  10.94200878367599 23.90732959337971 8.415399572792484  10.76177178874374 24.18250897893672 8.046102849299096  10.53517484664917 23.94420528411865 8.59743070602417  10.76705389247116 23.52660468645832 8.494451067390873  10.81341383963347 24.04008776683341 7.573826487172413  10.99365083456573 23.76490838127639 7.9431232106658  11.17388782949799 23.48972899571937 8.312419934159188  7.805373191833496 22.95076942443848 8.229030609130859  8.316684848390906 22.95966196827099 7.66670037376697  7.998047477327673 22.75111151508495 7.78992224800403  7.814289093017578 23.18150424957275 7.871975898742676  8.124010562896729 23.15931987762451 8.105808734893799  8.442647933959961 23.36787033081055 7.982586860656738  8.132926464080811 23.39005470275879 7.748754024505615  7.82320499420166 23.41223907470703 7.514921188354492  8.006963378511756 22.98184634021923 7.432867537615847  8.19072176282185 22.55145360573142 7.350813886877201  10.63754051015911 23.51248079181487 7.987477898881026  10.81777750509137 23.23730140625785 8.356774622374413  10.99269962310791 21.74074935913086 5.990127086639404  10.67906851646438 22.13781191514812 5.541867052890917  11.00049912959387 22.5680630267522 5.842714042655235  10.66061348793044 21.94357706712566 5.892271077015063  11.01115465164185 21.93498420715332 5.639723062515259  10.98204410105994 22.37382817872974 6.19311806677938  11.02960968017578 22.12921905517578 5.289319038391113  10.97138857901197 23.00690699832862 6.396109046919356  10.64995796588247 22.57665588672454 6.095262057155039  10.32852735275297 22.14640477512046 5.794415067390721  9.557558059692383 19.68263053894043 5.083539962768555  8.865901476602392 19.63627943782963 4.632133510347502  9.180197715759277 19.97628498077393 4.368694067001343  9.130391127328711 19.7345794179932 5.12013390326132  9.017520434121924 20.12653383999027 4.893288400407926  9.444687366485596 20.0745849609375 4.856694459915161  9.331816673278809 20.46653938293457 4.629848957061768  8.703224194965037 19.78652829704598 5.156727843754085  12.3762903213501 21.89493942260742 6.689353942871094  12.07761318715445 22.2025669961037 6.726343399620914  12.06598997116089 22.03371429443359 6.319541454315186  11.98479509353638 21.82686996459961 6.60223388671875  11.59329986572266 21.7588005065918 6.515113830566406  11.76731283696524 22.34134186792987 6.356530911065006  11.68611795934073 22.13449753809589 6.63922334346857  11.67449474334717 21.96564483642578 6.232421398162842  11.75568962097168 22.17248916625977 5.949728965759277  11.7789360529588 22.51019456959998 6.763332856370734  11.40345418483069 22.8216784060857 5.853867502204185  11.36353909999182 22.58969808229419 6.172919006339317  11.39264965057373 22.15085411071777 5.619524002075195  11.79560470581055 22.40446949005127 5.630677461624146  11.4325647354126 22.38283443450928 5.300472497940063  11.83551979064941 22.63644981384277 5.311625957489014  14.13850975036621 21.31827926635742 7.159493923187256  14.58935082834957 20.40356305966025 7.570857797010383  14.22428048533199 20.83801797756797 7.762350354536018  14.94892479942482 21.1400333737456 7.643872981803995  14.50358009338379 20.88382434844971 6.968001365661621  14.86865043640137 20.44936943054199 6.776508808135986  14.31005122029777 20.3577566887785 8.36520678588478  7.994653224945068 23.9225902557373 7.029197216033936  7.68433297308573 23.0350670891206 7.04699183571155  8.09268749388346 23.23702193073436 7.190005551455569  8.210432718067818 23.22743747299079 6.540844518126902  7.586298704147339 23.72063541412354 6.886183500289917  7.177944183349609 23.51868057250977 6.743169784545898  7.802078197270089 23.02548263137702 6.397830802382884  8.426212211190569 22.53228469024428 6.052491820219869  8.308466987006209 22.54186914798785 6.701652853548534  10.52738952636719 21.03784942626953 6.00809383392334  9.915976815932481 21.19781950931318 5.699173822873297  10.15725994110107 21.03483009338379 5.468964576721191  10.24991464614868 20.79773998260498 5.747715473175049  10.00863152098009 20.96072939853438 5.977924719327154  10.43473482131958 21.27493953704834 5.729342937469482  10.34208011627197 21.51202964782715 5.450592041015625  9.972439765930176 20.55763053894043 5.487337112426758  9.731156640761583 20.72061995486983 5.717546358578863  9.489873515592992 20.88360937079922 5.947755604730968  9.322755821819523 23.12067130651159 7.966246047714142  9.813608251610752 23.27848656849645 7.988627018706659  9.588810452099064 22.93548205938024 8.188651481368927  9.453505039215088 23.4131498336792 8.289451599121094  9.187450408935547 23.59833908081055 8.067046165466309  9.547553621331211 23.4636758156278 7.766221585051874  9.458061234703498 22.64300353221262 7.865445929961976  9.682859034215186 22.98600804132884 7.665421467299709  9.907656833726874 23.32901255044506 7.46539700463744  12.17613298924795 22.48107708979267 6.450882441140079  12.4748101234436 22.17344951629639 6.413892984390259  12.16450977325439 22.31222438812256 6.044080495834351  12.57332992553711 22.45195960998535 6.138432025909424  5.135047912597656 20.40653038024902 7.67583703994751  5.650429263823155 20.9080473735486 6.801257940788226  5.637667194121007 20.96000736500368 7.383818956870989  4.927361488342285 20.80764007568359 7.261918067932129  5.147809982299805 20.35457038879395 7.093276023864746  4.719675064086914 21.20874977111816 6.847999095916748  4.940123558044434 20.75568008422852 6.679357051849365  5.160572052001953 20.30261039733887 6.510715007781982  9.427124148924497 23.32798695883004 7.371861415679206  9.202326349412809 22.98498244971382 7.571885878341474  9.067020936528834 23.46265022401278 7.67268599609364  8.94659146412212 23.32696136721502 7.278325826720971  7.02371883392334 23.01139068603516 7.52263879776001  7.056278545372856 22.81897740725628 7.01025255416242  7.100831508636475 23.26503562927246 7.132904291152954  6.665982484817505 23.01708507537842 7.167995452880859  6.30824613571167 23.02277946472168 6.813352108001709  6.698542196267021 22.82467179659955 6.65560920928327  6.74309515953064 23.27073001861572 6.778260946273804  7.133391220085991 23.07262235049359 6.620518047555365  7.088838256822372 22.62656412847742 6.497866310564832  9.872653956921194 20.78347180909144 6.539320317719279  9.729114141534406 21.45382456376644 6.404453492210269  10.39141196230829 20.8605918368266 6.569489432315465  10.2478721469215 21.53094459150159 6.434622606806455  9.96835476747582 22.02403975673366 6.86115137968957  10.11189458286261 21.35368700205866 6.99601820519858  9.457473115798969 22.67550056197434 7.069738603205271  9.079538265148834 22.28774668123254 7.105982633283386  9.197283489333195 22.27816222348897 6.456821599954719  8.686401837656344 22.92962302872965 6.66540882347042  8.568656613471985 22.93920748647322 7.314569856799086  13.04784965515137 19.71324920654297 7.596902847290039  14.02763837923674 19.67716683927124 7.856090249551133  13.53291315188078 19.45136155667847 8.025334777367906  13.67895043772457 20.03550294766074 7.98105481658741  13.54257488250732 19.93905448913574 7.427658319473267  14.03730010986328 20.16485977172852 7.258413791656494  14.17367566508053 20.26130823025351 7.811810288770637  14.16401393445399 19.77361529779624 8.409486746665277  14.0179766486102 19.18947390681398 8.453766707445771  10.78444545152565 22.58542168726946 7.601925520099641  10.46987167324389 22.51547337753114 6.628630213304463  10.92
[...]
<PointData  Vectors="u"> 
<DataArray  type="Float64"  Name="u"  NumberOfComponents="3" format="ascii">2.4954324476051539e+02 7.7182335688161999e+01 8.4977103549410984e+01  1.8956280441173186e+02 7.0363929796425310e+01 8.6395816983272937e+01  2.1066380055951703e+02 7.4401630344134674e+01 8.8957986698157924e+01  2.1022668048685730e+02 6.7284331737187671e+01 8.4284854064870245e+01  2.0132406462787046e+02 9.6137100277556669e+01 1.0776789992386087e+02  1.7365413190042614e+02 9.2453287693053312e+01 1.0953291090876809e+02  1.8557326492884840e+02 7.7905950409994574e+01 9.1125052725937394e+01  2.0417667297752584e+02 6.1536672979163669e+01 6.8924234506937722e+01  1.9688565653375014e+02 6.4946238564007174e+01 7.5072650460712310e+01  1.9090991232054705e+02 6.6515854722077535e+01 7.9062470398895286e+01  1.7264134421956282e+02 4.4791788474576421e+01 8.7837821217615300e+01  1.7916001122847464e+02 4.9329368432331300e+01 8.5107470870531500e+01  1.6980589190428296e+02 5.2474430119754686e+01 8.8565095165109810e+01  1.7308085917511298e+02 4.2584953488276568e+01 8.1324233658040001e+01  1.6484443839072472e+02 5.9658157869606725e+01 9.6812783225741626e+01  1.7783340279945674e+02 5.8305010447789485e+01 8.8883226699045579e+01  1.8068548517265222e+02 4.7706402156147099e+01 7.9350514809322632e+01  1.8728169987244476e+02 5.4634560759679516e+01 8.1173273379705563e+01  2.2847160475570544e+02 1.1786780082383248e+02 1.4785596706681406e+02  1.9965423743089687e+02 8.1849813707159583e+01 1.1394812288914059e+02  2.1165343336422737e+02 8.9111609506134130e+01 1.0691629291467900e+02  1.8056548335219671e+02 7.8363755070246157e+01 1.2032719569957764e+02  2.0174822982420949e+02 7.0657208859591734e+01 8.6356519096206839e+01  1.9572176413245518e+02 6.7011186302980434e+01 9.0158152122525706e+01  1.8360016295816763e+02 6.2289388949270581e+01 9.4436665201064727e+01  1.6636701402167037e+02 6.0439463437947204e+01 9.6120160190764423e+01  1.9505289662611429e+02 6.7396877596599467e+01 9.1631720957307920e+01  1.6343497066688582e+02 6.8580707948318292e+01 9.0265034105387386e+01  1.7708148497151157e+02 9.3505878619962985e+01 1.2751079025232372e+02  1.6533795381169310e+02 7.7711171778079176e+01 1.3243992837449656e+02  1.8692787957764352e+02 6.0603144669163747e+01 6.9235499839893265e+01  1.6564337028277276e+02 5.3257643223915650e+01 6.4773969987549421e+01  2.1744602216635388e+02 9.3000557130175821e+01 9.3496375405511614e+01  2.2497952615955117e+02 9.3566657763640819e+01 5.7410724939993791e+01  2.1728548241922729e+02 9.0241865342366211e+01 8.0743660927752984e+01  2.3807024988666402e+02 1.0958031924955806e+02 9.5802688018688983e+01  2.2536767682075916e+02 9.7225343653789579e+01 7.0008658202306478e+01  2.7764946401910925e+02 1.1662121950001881e+02 3.3439541972979477e+01  2.3522798997410203e+02 1.0452860888521400e+02 7.1079411453196968e+01  2.6736337607147880e+02 1.1486774724814410e+02 3.9107165926833908e+01  2.4135118040493944e+02 1.0022533656652953e+02 3.0357809789865051e+01  2.1460763279458448e+02 8.4845785113982515e+01 6.8632058121710017e+01  1.8874178976477816e+02 8.7931433734317949e+01 1.0940105247984734e+02  1.9276518032857044e+02 7.9173686005862407e+01 8.4015190265615260e+01  1.8572458281737448e+02 7.8887992928421397e+01 1.0025373206268746e+02  1.8218926728526895e+02 7.6902760338736684e+01 9.1792285004871289e+01  2.0753383147791439e+02 8.3533326156117127e+01 9.9404972896234284e+01  1.9855918535322192e+02 8.3205849201467643e+01 9.3100746766474998e+01  1.7618306276960146e+02 6.9786985701072098e+01 8.5617309591563838e+01  1.8266660822223278e+02 7.1342275131944078e+01 8.8769986931674879e+01  1.8757187453190090e+02 7.2641493924591146e+01 9.1941186567745831e+01  1.5934495155551224e+02 7.8202122333536863e+01 -3.5837938839925613e+01  1.6621533694136954e+02 7.1727111382740901e+01 -9.7690111491264525e-02  1.5958293259513326e+02 6.8345532708318359e+01 -1.2249549079644041e+01  1.5397967448588278e+02 7.6164476820808659e+01 -1.2160285503946122e+01  1.6649861237070903e+02 7.5816768865744010e+01 -2.5414178630932600e+01  1.7478978801150157e+02 8.5832815847890970e+01 -1.1065003757834141e+01  1.6704110921446343e+02 9.4614094219130436e+01 -4.7348313583304620e+00  1.5558242020170201e+02 8.3593703937858379e+01 6.1090530132449414e+00  1.5559042450396743e+02 6.8272831341488256e+01 5.6981746914019338e+00  1.5588963586857096e+02 5.9772449860931225e+01 6.4756420068135165e+00  1.9277445761326967e+02 7.5958542200256034e+01 7.8894838258047045e+01  2.0087924383109163e+02 7.9539263140244074e+01 8.3412703954588025e+01  1.8336523663384901e+02 8.4533749531785531e+01 8.7225915264821552e+01  1.6293484586084745e+02 6.9931255209717762e+01 8.7189750047198146e+01  1.7405517951934422e+02 5.6960934250892521e+01 8.4995029560044884e+01  1.6554334085822205e+02 7.5206406274722625e+01 8.4792892713356977e+01  1.9021310716376456e+02 7.2772969150217733e+01 8.9280411575903699e+01  1.7986736063414432e+02 6.0788360267148960e+01 8.1054794648628175e+01  1.7850092920698194e+02 6.6584106916589477e+01 9.1711279122436267e+01  1.7436925537975225e+02 5.6118491420484759e+01 8.1567722183489650e+01  1.6864545366150926e+02 6.0772823651551050e+01 7.9590666525395264e+01  1.5602141374267256e+02 6.6541355648675989e+01 7.8748935646817003e+01  7.1710696932748533e+01 2.8695361645883111e+01 9.3567855892435716e+01  5.2540456094052843e+01 2.2917222359908973e+01 6.4639464363174852e+01  3.7332742898559403e+01 3.0252051834589942e+01 7.8157875770609991e+01  7.2026570900585924e+01 2.7050886170353181e+01 7.3113838685943065e+01  6.7155035009865514e+01 3.3801986393349807e+01 7.0433740684990255e+01  6.1301684026115346e+01 4.2518490480116263e+01 9.3718641706033821e+01  6.5005553857113767e+01 5.2264814316412604e+01 8.4487339294748352e+01  7.5059985990398317e+01 2.2950283353234973e+01 5.5583098581332337e+01  2.1795936884384466e+02 1.6390936787840701e+01 7.4874634525541296e+01  2.0336861046068239e+02 3.2068238250313030e+01 8.0093341326058720e+01  2.0064559014425907e+02 1.9049081600559369e+01 8.4597191171123740e+01  2.1956872333862680e+02 2.1447741728369493e+01 6.6644638058373076e+01  2.2924330407607835e+02 6.7793566599303901e+01 8.1929776349651732e+01  1.9657940884303309e+02 3.8783075932310361e+01 8.4926156572158760e+01  2.0671856065277183e+02 4.4512616605787542e+01 7.7944280354131536e+01  2.2893008393189353e+02 3.6130061726983307e+01 8.5405153260266374e+01  1.9928364794348769e+02 4.3523992839809054e+01 9.5276359092861270e+01  1.9369291196268529e+02 4.5213188227988780e+01 8.2363677906092377e+01  1.7685952431011290e+02 5.1184497810513832e+01 8.9006897484345743e+01  1.8300299904100052e+02 5.2851639262957420e+01 8.6222416610813553e+01  1.8352602628645548e+02 5.4330613330609552e+01 9.1459900195543938e+01  1.9256701962297961e+02 4.5577400039384244e+01 9.6597160255008859e+01  1.7815287848031844e+02 5.1217340862800633e+01 8.8328779837449005e+01  1.8084473857531296e+02 4.7317669570486856e+01 9.6207288688675860e+01  2.1505174431493063e+02 -6.5970597563983745e+01 -4.1072564858545277e+01  1.7756732719050567e+02 -2.0409342335377509e+00 -8.8177865272864906e+01  1.8016559780440892e+02 -1.0709553020863574e+01 -6.1999442077027766e+01  1.7643126585223521e+02 -1.8398724937948725e+01 -6.8090591126865093e+01  1.8443988823865240e+02 -4.6547365282140724e+01 -7.8266104068040420e+01  1.9439270741828562e+02 -2.2980409037034729e+01 -1.2709095282442416e+02  1.6678522623764462e+02 1.5140865414857371e+01 -4.5292471881306199e+01  1.5110654111481983e+02 8.0845117660327162e+01 4.8539835682699142e+01  1.4653778047486867e+02 6.2732301762559224e+01 1.8809844823419198e+01  1.5410320217452653e+02 7.1223993481293959e+01 2.2078358986029098e+01  1.4903903005556427e+02 5.6377007785195737e+01 4.1602476248452085e+01  1.4643725162130102e+02 7.2002150391500223e+01 4.7096271644936891e+01  1.4449692603207990e+02 5.9694365238161559e+01 4.0690466984746649e+01  1.4300862172459941e+02 4.7680723456517207e+01 3.6864207041766079e+01  1.3805580244464525e+02 4.5660538492359414e+01 4.2022213224508974e+01  1.4641910392477774e+02 5.2167400277459578e+01 2.8125310643938850e+01  1.3607233793862486e+02 8.0918858196984928e+01 1.0390769958599587e+02  1.1589118999847778e+02 6.7063750571171255e+01 8.3216841842546884e+01  9.3529369785456041e+01 7.7390804682006177e+01 9.8806111478418572e+01  1.0292369281049469e+02 6.4506077689070452e+01 1.0540061917498063e+02  1.2267074714103494e+02 6.1710711978344598e+01 8.3666518793710765e+01  1.3302127598860142e+02 9.6848664389790201e+01 1.0510198994848547e+02  1.3514158846035929e+02 9.3436576666964498e+01 9.0314395236385593e+01  9.3715423854206733e+01 5.4335451100589864e+01 9.5217427289101693e+01  1.0685546621868559e+02 5.2296287299582531e+01 7.9367414974425557e+01  1.1973669328384244e+02 4.9018808394730094e+01 6.4841186333719193e+01  1.9814215058732520e+02 7.8275483647205945e+01 1.7864308519489036e+01  2.0312139428608523e+02 8.3188315314146564e+01 4.7319858147467443e+01  2.1268515915242537e+02 7.9073117378592215e+01 2.1431746365041207e+01  2.2821683597648939e+02 1.0066700598397259e+02 1.5926625356201322e+01  1.9969564220268410e+02 9.8533981625685769e+01 1.8908230686145941e+01  1.9086730067813542e+02 8.2105293097951261e+01 4.2433059936345053e+01  1.9368142622998499e+02 7.0844264799063509e+01 2.3513600021446138e+01  1.8982708329019945e+02 7.4017454112686821e+01 4.1105320264614328e+01  1.8351686873634003e+02 7.3830353939488660e+01 5.7056861530176022e+01  1.9386569010549920e+02 3.3454202687980164e+01 8.9635608121736098e+01  2.1293033519941125e+02 1.6520774998856716e+01 9.1317018719230333e+01  1.9083823592245363e+02 2.6582410562484935e+01 9.4664365708007054e+01  1.9020612887392076e+02 1.9456237406127794e+01 1.0508700199066190e+02  2.9339297081443579e+01 -2.0226964717579140e+01 -1.2482687003343528e+02  6.8734106092693523e+01 -1.6166748108408257e+01 -1.1708002885554269e+01  6.1223212076950773e+01 2.2308628287261903e-01 -6.6108802105151142e+01  -6.2012204912330278e+00 -2.0291072138686864e+01 -2.5031109141452625e+01  2.0774792776445530e+01 -3.6741540857396323e+01 -3.7352687386116855e+01  6.3729644786445036e+01 -4.3481216665652603e+01 6.2212442994109665e+01  4.7687120482034331e+01 -6.0190146404594181e+01 3.3513586830031684e+01  4.4139401813826048e+01 -5.4221489443860577e+01 4.6013554546386359e+00  1.7710069109633488e+02 7.3902055411473157e+01 4.5498644918921570e+01  1.8085476172648779e+02 7.2142972913460781e+01 2.7256056598432608e+01  1.8340255320382607e+02 8.2619684895832705e+01 2.5129817384393185e+01  1.6855460994716768e+02 7.3572404296673554e+01 3.4938034830634784e+01  1.3483041067633337e+02 6.5518808549681182e+01 -4.3704200312878179e+00  1.3381553244632323e+02 5.1324945602366171e+01 1.3089420932451684e+01  1.3860828431020090e+02 5.9610641658270865e+01 1.7744247292740848e+01  1.2731018333192442e+02 5.5862257211961072e+01 1.4674391708052985e+01  1.3171187406137111e+02 3.6863250807587086e+01 3.7505949175858916e+01  1.3337430641542582e+02 3.6271464017399701e+01 2.7189408420385892e+01  1.3607260816517086e+02 5.1785951993755461e+01 3.6290249146308071e+01  1.3956643506110146e+02 4.5758108906522487e+01 3.1489957297350585e+01  1.3301398877886476e+02 3.5734828537007125e+01 2.2947162292641980e+01  1.4072315811336458e+02 5.1099807967661292e+01 6.6032896784353852e+01  1.4597628792020620e+02 5.7531453124470154e+01 6.0587368703289826e+01  1.4851585196592836e+02 6.3523082978678687e+01 8.4664813243186956e+01  1.5647799365380448e+02 6.6682461770919033e+01 7.4618949204819799e+01  1.6848303970424465e+02 6.1507297484697837e+01 5.6719949683963435e+01  1.6785083901611080e+02 5.9465895849152922e+01 5.9954200946553954e+01  1.7028821809388026e+02 6.3127776565325746e+01 4.4189685279728138e+01  1.6376133178366678e+02 5.7887287079183508e+01 3.0048114082541534e+01  1.5066947521559399e+02 5.4326470381005244e+01 4.7332248995769177e+01  1.5344059007389001e+02 5.8529054041375296e+01 3.9867753882798624e+01  1.6338274009890714e+02 6.7543434166439965e+01 2.0128029260729548e+01  2.8162011472846615e+02 2.5341129795912213e+01 -4.8629522030088999e+01  1.9616253797439603e+02 1.9616823318824284e+01 -6.9461652567753632e+01  2.1975831566911165e+02 2.7424289349065702e+01 -4.7572329078073707e+01  2.0657496334294009e+02 1.9777816689986810e+01 -5.2307078810500116e+01  2.1779753052001945e+02 2.2581347072964466e+01 -9.8344054740385758e+01  1.9691284807302267e+02 7.9654414407448799e+00 -1.0426061019680991e+02  1.8740167319975092e+02 8.4342994094298618e+00 -6.8793617842782297e+01  1.7589735375840959e+02 2.2219321100694518e+01 -4.6529126670333348e+01  1.8500325213695425e+02 2.5554391306646732e+01 -4.6029737843748649e+01  1.9340195802479892e+02 6.5987346605574857e+01 6.8284711951072609e+01  1.7314458306932485e+02 6.2038767116592275e+01 7.0897384886882506e+01  1.9078123926259528e+02 6.1970686232524926e+01 7.0926925131351268e+01  1.8222204060482852e+02 6.0001890012105676e+01 7.4472730930492190e+01  1.8357474967407413e+02 6.3694777632074398e+01 6.1298992678654578e+01  1.7658981076595194e+02 6.4644775380941880e+01 6.9807187071020024e+01  1.8366584991908576e+02 6.0042070244114228e+01 7.8435835572738412e+01  1.7618095421843256e+02 9.5428766733903188e+01 5.1202444073578405e+01  1.7433421888388452e+02 8.6628317236533320e+01 4.5315119886224188e+01  1.8248798181462394e+02 8.1586857312340939e+01 5.2991116074369103e+01  1.7765334988513635e+02 9.1109068995588828e+01 3.9150742749989426e+01  1.4123488010963163e+02 4.9621549316741707e+01 1.3789687605757706e+01  1.4345589637694559e+02 5.7664642013993465e+01 1.8088094306529637e+01  1.4694298189135108e+02 6.3366699982932950e+01 -7.4953313350844530e-01  1.4749593111271182e+02 7.0146726736974145e+01 2.8580728763858434e+00  1.9821866175467585e+02 9.1912640411602567e+01 1.3325281815368399e+02  2.1324667148589137e+02 9.2082941162273599e+01 9.2318047479125980e+01  2.1866873011366781e+02 1.1192011968670347e+02 9.9383294630356929e+01  2.3762848702530778e+02 9.7789648385220488e+01 1.2748463355674127e+02  2.6125158740550694e+02 1.1347731450300876e+02 1.0137133045455843e+02  2.3198062592098887e+02 1.0008991745476622e+02 7.8696370861801768e+01  2.7180187024428085e+02 1.3296135054084903e+02 6.6656413856420514e+01  1.6446664086040374e+02 6.4889975087914337e+01 9.6992471637931828e+01  1.6965851892078953e+02 7.6893575058184439e+01 9.7935646222352091e+01  1.8917315706447823e+02 2.9179703819923347e+01 8.2188501398265615e+01  1.8631735687383724e+02 4.2464270915790372e+01 8.1014397496604431e+01  1.9715985592405542e+02 3.2807033960343517e+01 7.4432396641944919e+01  1.8686378914624112e+02 3.9725710523811806e+01 7.1228655845025528e+01  2.0598805899138296e+02 4.1231942301382382e+01 6.9774484407514450e+01  1.9503498877180331e+02 4.8383732594292177e+01 7.5635361844048077e+01  1.5062003895197333e+02 1.4883968267955813e+01 -2.9721204552751935e+01  1.5024129945735268e+02 2.9641419997231715e+01 3.1160723332757776e+00  1.7957688535466647e+02 1.0763813672924597e+01 -1.6456995459139520e+01  1.3486914782227117e+02 1.9635135537545633e+01 -1.1915661255903741e+01  2.0546521302224085e+02 8.9225708425788255e+01 6.8212887212297929e+01  1.9419764984821839e+02 8.1097538586274865e+01 5.9437394458622123e+01  2.0156404351710887e+02 8.8085561321048033e+01 4.4736552256847574e+01  1.9438454796595295e+02 9.2400056008788312e+01 5.1292185807727051e+01  1.6336843258056442e+02 8.3580378288784786e+01 9.0731517833778426e+01  1.6103544419570258e+02 7.6272144806181672e+01 8.7117903416404900e+01  1.5638810362265417e+02 6.7630784184098360e+01 8.7854267469403254e+01  1.5962127744793358e+02 8.7504453048162858e+01 9.3800993696539592e+01  1.6116471079974539e+02 7.6848206800211258e+01 8.2370689435587522e+01  1.6261020278779813e+02 7.1064080880969314e+01 7.5886444890643475e+01  1.5253946367361755e+02 7.9325747582629077e+01 9.9290592287351117e+01  2.0901113969613124e+02 8.6785577327037132e+01 7.1745858735305518e+01  2.1268519866609020e+02 9.2613478845678131e+01 7.9258297855979308e+01  1.8761092359981740e+02 7.9026888516306784e+01 7.9438097377570273e+01  1.7289899996746172e+02 6.7368835006947435e+01 7.9245933961126667e+01  1.6049879341414632e+02 6.3582748669579672e+01 7.0077310240320216e+01  1.9278646363801440e+02 6.9368224881491045e+01 7.8075534105457876e+01  1.8584603167430771e+02 6.7659928977777113e+01 7.6756126751206125e+01  2.0138849188907923e+02 7.2706658190027866e+01 6.5774740950483618e+01  1.4749703409118197e+02 6.0283349266519615e+01 6.4601928735519195e+01  1.2757687850540803e+02 5.6228580320060416e+01 6.8334852757327454e+01  1.3476384925636043e+02 6.6160707144346901e+01 7.4689840801152556e+01  1.4078011752431439e+02 6.2893499596275717e+01 7.3986904337893307e+01  1.2160227525035120e+02 5.6579720370944685e+01 6.7180088891967259e+01  1.5772187162296765e+02 5.8400501541573590e+01 8.4483512039815949e+01  1.6350012458938858e+02 5.6089522838082047e+01 9.1374007134600106e+01  1.4873284950329699e+02 6.3958043662264068e+01 8.9856345099429305e+01  1.4539072007271844e+02 6.1008131908719520e+01 7.9739644943479178e+01  1.7458207700184826e+02 6.0720787500514724e+01 8.0936830907706010e+01  1.7498734045501337e+02 6.3806795489746229e+01 7.1825089847092869e+01  1.8856725673389190e+02 6.9287253872433581e+01 6.2472532230024406e+01  1.8213225392955508e+02 7.3208580362648931e+01 7.2756302197922736e+01  1.5578431599265625e+02 5.5861949488188131e+01 7.9055314729296825e+01  1.6484394919722348e+02 5.4331094768392582e+01 8.5818681742052036e+01  1.6623631565336484e+02 5.9516200389598410e+01 7.4541925492086079e+01  1.5692312479570035e+02 5.9358937895333007e+01 7.0973265797739941e+01  1.5594463851263987e+02 5.2364678577648590e+01 9.0879764432201483e+01  1.5879144878903048e+02 5.9916886208847558e+01 6.5941370892385493e+01  1.9161425995207370e+02 3.6191689372643388e+01 8.3477128384454218e+01  2.0085023377359477e+02 4.3591085692658908e+01 7.6447998777891726e+01  1.8940371612023020e+02 4.9391028342107653e+01 7.9580709989799701e+01  1.6709203900557006e+02 -3.4016756404224452e+01 -1.1509403353625538e+02  1.8144271131519287e+02 -1.3347477295887311e+01 -1.1474935070470531e+02  8.4987589312659566e+01 3.6470911044699371e+01 7.5474324574116537e+01  7.7607077155472425e+01 5.4612240696228319e+01 8.5776436099670605e+01  8.3197484274177540e+01 3.6967182429405618e+01 9.4598004297490263e+01  1.9534926192013754e+02 -1.1549278491226151e+01 2.4094966444739207e+01  2.0489949471039486e+02 -1.1527287350761503e+01 3.2803245904429396e+01  2.0068926430812638e+02 -2.0982099006540121e+01 -5.6941562114340483e-01  1.8864772859711042e+02 1.1835745795920952e+01 2.4195289498906487e+01  1.5798001322403971e+02 6.3840417115086140e+01 5.7166153794400380e+01  1.4887072377904303e+02 5.3971348626136894e+01 5.3322745944382866e+01  1.6383003739758857e+02 6.4439193941011766e+01 5.2567895068398158e+01  1.5478286358486889e+02 5.6138701635104347e+01 9.2917150359341008e+01  1.5478936369305444e+02 6.5267019590710134e+01 9.4579610633887327e+01  1.6442927873778643e+02 6.2826312357869796e+01 8.7440595086118122e+01  1.5818939957189207e+02 6.3417207897318633e+01 8.5684234279975783e+01  1.7097751930374875e+02 7.0812998540818384e+01 7.8146794784269105e+01  1.6496687681084214e+02 7.3116753645328842e+01 9.0795147744666082e+01  1.0532647027721245e+02 4.6786809683684872e+01 6.1959979077245897e+01  1.3079616278650553e+02 4.6983435047683329e+01 4.8984787435717344e+01  9.4978130301741047e+01 4.2200067674394951e+01 5.8550277287169685e+01  1.6161737917021154e+02 7.6940177543912768e+01 7.1620685115226578e+01  1.6809393075502913e+02 8.1295765758462451e+01 6.7479305255620829e+01  1.6331770669623072e+02 9.2318547532178940e+01 6.6933672898996690e+01  1.6842822752269299e+02 9.2936544761611273e+01 5.9498734987439377e+01  1.6256830565515480e+02 9.0756367232341887e+01 7.1101711796369969e+01  1.6544653619705076e+02 8.1035670675586047e+01 7.6104653619318327e+01  1.6149613785196507e+02 8.5368747321578553e+01 7.5799698998458069e+01  1.5802883898901445e+02 8.2235255916114085e+01 6.7954310487093565e+01  2.2395564326493522e+02 -2.6086561384963026e+01 7.5352857876510384e+01  2.0397084013357440e+02 2.6126947822281796e+01 5.1267264872220750e+01  1.9507404884258330e+02 2.3868394