<?xml version="1.0"?>
<VTKFile type="UnstructuredGrid"  version="0.1"  >
<UnstructuredGrid>
<Piece  NumberOfPoints="9410" NumberOfCells="42040">
<Points>
<DataArray  type="Float64"  NumberOfComponents="3"  format="ascii">2.079698085784912 29.11433982849121 14.00722026824951  1.981863914307473 28.81929510594816 14.52815944772014  1.774301052093506 28.71137523651123 13.99313497543335  2.178688049316406 28.66428470611572 14.25891494750977  2.2776780128479 28.21422958374023 14.51060962677002  1.676466880616067 28.41633051396818 14.51407415490398  2.080853877838968 28.36923998357268 14.7798541269804  1.873291015625 28.26132011413574 14.2448296546936  1.4689040184021 28.30841064453125 13.97904968261719  1.884029742830035 28.52425038340512 15.04909862719077  0.09939099848270416 33.08543014526367 18.85026931762695  0.4078470139071794 32.97171392363341 18.3794766420232  0.4078470139071794 32.64415540617735 18.80740175188648  0.4078470139071794 33.02655973356993 18.90332612932788  0.09939099848270416 32.64818000793457 18.23049545288086  0.09939099848270416 33.03058433532715 18.32641983032227  0.09939099848270416 32.70302581787109 18.75434494018555  0.09939099848270416 32.32062149047852 18.65842056274414  0.09939099848270416 32.97573852539062 17.80257034301758  0.7163030293316546 32.96768932187619 18.95638294102881  1.584525942802429 39.89572906494141 22.92720031738281  1.637764230028432 39.10953072689628 22.66532355649022  1.343613982200623 39.54960441589355 22.66693496704102  1.440513968467712 39.42940521240234 22.98755550384521  1.296501994132996 38.96308135986328 23.04791069030762  1.199602007865906 39.08328056335449 22.72729015350342  1.102702021598816 39.2034797668457 22.40666961669922  2.319084882736206 25.79446029663086 16.29328918457031  1.626244933336919 25.73929793442373 16.49398204005364  2.083288402289098 25.95261294449453 16.64778681910638  1.739573750450383 25.56028790804309 16.63441860614133  1.862041413784027 25.58114528656006 16.13948440551758  1.404997944831848 25.36783027648926 15.98567962646484  1.282530281498204 25.34697289797229 16.48061382708859  1.160062618164561 25.32611551945532 16.97554802771234  1.503777270003275 25.71844055590676 16.98891624067739  1.84749192184199 26.1107655923582 17.00228445364244  0.09939099848270416 32.59698104858398 12.07849979400635  0.3927480886137139 32.05122869575474 12.21666517460943  0.4921497647954845 32.40676218523311 12.4049504813515  0.09939099848270416 32.48923301696777 12.32188487052917  0.3927480886137139 32.15897672737096 11.97328009808661  0.6861051787447235 31.72097240615793 11.86806040216686  0.7855068549264942 31.96875786402008 12.29973078543176  0.09939099848270416 32.38148498535156 12.565269947052  0.4921497647954845 32.29901415361689 12.64833555787433  0.8849085311082648 32.21654332188223 12.73140116869665  0.09939099848270416 34.99974060058594 17.04997062683105  0.6852937205080146 35.08114630221034 16.17523127739427  0.6852937205080146 35.21387106417323 16.73773175423143  0.09939099848270416 35.36833953857422 16.77501010894775  0.09939099848270416 34.86701583862305 16.4874701499939  0.09939099848270416 35.7369384765625 16.50004959106445  0.6852937205080146 35.58247000216151 16.46277123634813  0.09939099848270416 35.23561477661133 16.2125096321106  0.09939099848270416 34.73429107666016 15.92496967315674  1.271196442533325 35.42800152776053 16.4254928816318  1.315044045448303 39.29010009765625 17.26902961730957  1.830063118875747 39.11539677488803 17.57664075852324  1.633057085089549 38.81988744175971 17.25990740435085  1.591556622923141 39.09896115171908 17.68341032029082  1.553550541400909 39.3065357208252 17.16226005554199  1.792057037353516 39.32297134399414 17.05549049377441  1.871563581042155 38.83632306492866 17.15313784258327  1.868069200397978 38.90782220578191 18.09779102327207  1.909569662564387 38.62874849582254 17.6742881073321  1.951070124730795 38.34967478586317 17.25078519139213  1.913728975787253 36.5692871000814 15.34216736568849  1.344542033653213 36.42585849497178 15.05963227033189  1.431115353085352 36.59365879516989 15.67751137785174  1.322277126020874 36.93232161755488 15.39470099558625  0.7308252762544953 37.29535613502836 15.44723462548401  0.8619284109513128 36.45023019006027 15.39497628249515  0.7530901838868347 36.78889301244526 15.11216590022965  0.8396635033189734 36.95669331264337 15.73004500774951  0.9485017303834515 36.61803049025838 16.012855390015  0.7753550915191741 36.28242988986215 14.7770971749753  3.898984909057617 37.61381912231445 16.48582077026367  3.713054923695438 37.26135471903031 16.08297930478496  4.01025652885437 37.58523368835449 16.01601552963257  3.630062937736511 37.75469017028809 16.21944522857666  3.361140966415405 37.89556121826172 15.95306968688965  3.444132952374332 37.40222576700394 15.81660376309795  3.741334557533264 37.72610473632812 15.74963998794556  4.121528148651123 37.55664825439453 15.54621028900146  3.82432654349219 37.23276928507035 15.61317406415386  3.527124938333258 36.90889031574617 15.68013783930626  3.010827779586177 38.59476783492006 22.05317707796448  2.345204664344611 38.50588804469324 21.3779882840844  2.924827935601721 38.79165443278179 21.53930283744016  2.406695419424829 38.86603979947176 21.83121298629568  2.431204508329068 38.30900144683151 21.89186252460872  1.851581237071958 38.02323505874296 21.73054797125295  1.827072148167719 38.58027341138321 21.66989843293992  1.802563059263481 39.13731176402347 21.60924889462688  2.320695575440372 39.06292639733349 21.31733874577137  2.838828091617264 38.98854103064352 21.02542859691585  2.487283479199447 38.5516159618782 17.56354151711951  2.386641813887503 38.44255802903333 18.07374544001782  2.445783017033039 38.83068967183756 17.98704443305948  2.905214427377028 37.97729385228475 18.04969985676358  2.428142276053912 38.16348431907396 17.65024252407785  2.964355630522563 38.36542549508899 17.96299884980524  3.023496833668099 38.75355713789322 17.87629784284689  2.392848014831543 32.23088073730469 13.69336986541748  2.136920594262874 32.06745669127973 14.09010936142603  1.737911404652405 32.00611380604373 13.76748770266947  2.32020103931427 31.81346035003662 13.71319007873535  2.247554063796997 31.39603996276855 13.73301029205322  2.064273618745601 31.65003630401166 14.10992957474391  1.665264429135132 31.58869341877566 13.78730791598734  1.082974794473268 31.78134687478277 13.84160553992146  1.481983984083736 31.84268976001877 14.16422719867802  1.880993173694204 31.90403264525477 14.48684885743459  0.09939099848270416 29.09233093261719 18.14010047912598  0.512827405985123 28.75062467104375 17.83327376563569  0.512827405985123 28.76678468233525 18.32826888282319  0.512827405985123 29.10536481386601 18.20301425178071  0.09939099848270416 28.75375080108643 18.26535511016846  0.09939099848270416 28.73759078979492 17.77035999298096  0.09939099848270416 28.41517066955566 18.39060974121094  0.09939099848270416 28.39901065826416 17.89561462402344  0.09939099848270416 28.38285064697266 17.40061950683594  0.9262638134875418 29.11839869511483 18.26592802443544  4.119495868682861 35.43515014648438 19.01412963867188  3.98195361814701 36.10923671368143 18.56637454088454  3.492422536054391 35.83558601325036 18.70475910610747  3.942985095457594 35.54838291547387 18.6359484513487  3.707901831969076 36.28320704246843 19.01336638296649  4.158464391372278 35.99600394469194 18.94455572820771  3.66893330927966 35.72235324426087 19.08294029343065  3.218370749876458 36.00955634203736 19.15175094818943  4.197432914061695 36.5568577428995 18.87498181774355  3.766474322232326 35.66161568446337 18.25776726402552  5.165812400909951 34.97310197996006 13.70908807412241  4.957343704303093 35.52754122601577 14.44674823164929  5.152026009213353 34.91570123805739 14.36801927910525  4.235826284978431 35.11259561512821 14.40159536724481  4.971130095999692 35.58494196791845 13.78781702666645  3.30584016904691 35.25208925029636 15.0941026603672  4.222039893281832 35.05519487322554 15.06052657222764  4.041143980068171 35.7244356030866 14.48032431978885  4.776447791089432 36.19678195587683 13.86654597921049  5.138239617516754 34.85830049615471 15.02695048408808  1.218430042266846 26.08836936950684 19.1830005645752  1.430958115020188 25.69288760818358 18.63058627862773  1.828773975372314 25.74432945251465 19.02186489105225  1.38824450969696 25.71894931793213 19.2134256362915  1.6589595079422 26.11374950408936 18.99143981933594  1.261143647590074 26.06230765975829 18.60016120691142  2.099488973617554 26.13912963867188 18.79987907409668  1.701673113265428 26.08768779434081 18.40860046167216  1.558058977127075 25.34952926635742 19.24385070800781  1.303857252913302 26.03624595000974 18.01732184924764  2.124191999435425 29.64661026000977 17.5603199005127  1.869701112155326 29.11398007944548 16.99881398672647  1.893728102092155 29.11729981974089 17.42555940146035  2.309444546699524 29.30401039123535 17.31187534332275  2.100165009498596 29.64329051971436 17.13357448577881  2.494697093963623 28.96141052246094 17.06343078613281  2.078980649356254 28.77469995096647 17.17711484427041  2.285417556762695 29.30069065093994 16.88512992858887  2.076138019561768 29.63997077941895 16.70682907104492  1.663264204748885 28.58798937947201 17.29079890240801  1.144746132677186 34.58417423023452 19.97755938537402  1.668867019628178 35.43640743864881 19.66807080058351  1.46178072048972 35.46040368140009 20.11114360819447  1.041023778971764 35.13514009910882 19.84096278288519  1.565503074195141 34.90943781252579 20.2477402106833  1.772589373333599 34.88544156977451 19.80466740307234  1.986260015713097 35.23470139481707 20.51792103599259  2.193346314851555 35.21070515206578 20.07484822838162  2.400432613990013 35.1867089093145 19.63177542077065  0.9373014252663423 35.68610596798312 19.70436618039636  0.09939099848270416 34.55088043212891 18.68515014648438  0.8931136977453623 34.56685994936949 18.61922414427954  0.5192503025363301 34.70997625901221 18.86288917245746  0.4506841204763499 34.9
[...]
<PointData  Vectors="u"> 
<DataArray  type="Float64"  Name="u"  NumberOfComponents="3" format="ascii">4.0333724307822720e+01 -7.2333479686400608e+01 7.6062012130466016e+01  6.6471666735674006e+01 -8.2833891719890588e+01 7.2082594383118192e+01  6.0283728843036329e+01 -7.1487431685721958e+01 8.8726432338763075e+01  6.9893250833829967e+01 -8.1651853229112447e+01 6.9021582602873949e+01  3.6144679466846227e+01 -4.6745621254496257e+01 7.2956496618864549e+01  5.9544341198840989e+01 -8.0507063181963375e+01 8.6214692390964530e+01  3.9951002693064609e+01 -7.2566715751554369e+01 9.3558155872931366e+01  6.3207103549314226e+01 -6.4037128707761696e+01 7.6727093124756593e+01  4.9757000825575460e+01 -6.7301897314599373e+01 8.0827973205179831e+01  5.0200892905040540e+01 -1.0234304475555777e+02 1.0058475775776995e+02  2.0009347293743070e+02 1.1882220525481353e+02 9.6194128917975107e+01  1.7578128922199019e+02 1.0124215197235469e+02 6.7802306419440114e+01  1.6681244141667858e+02 9.9810510336293504e+01 7.4456337520619257e+01  1.6976835258850247e+02 1.2154297060675351e+02 9.4196770033190703e+01  1.9958667914834760e+02 8.0974320648756901e+01 5.4406449734977109e+01  2.0005777547079057e+02 1.0074062575275002e+02 6.8177172173632655e+01  1.9925726413107722e+02 1.0091130337389760e+02 7.5978634555764188e+01  2.0065674923958991e+02 6.8383448839471171e+01 6.5721916306787691e+01  2.0064169665262989e+02 8.5393077791248189e+01 4.9505724187914723e+01  1.4002176712916909e+02 1.2808520198689561e+02 8.6567888612976759e+01  8.9195363961273884e+01 -1.3469209643869366e+00 3.4532567803712232e+02  1.3537013572038586e+02 4.1323702366486060e+01 3.5416756446439263e+02  1.3957571666789107e+02 4.5091444062175192e+01 3.1525793340290653e+02  8.9901586886004267e+01 3.6831172278260254e+01 4.1912502024052384e+02  1.3216167382320086e+02 8.2429387171874197e+01 4.0582819393276554e+02  1.4152829378098457e+02 3.4957268942297134e+01 3.3371919730221742e+02  1.0582981798437416e+02 6.5417969235849512e+01 3.1377128245746781e+02  3.1750064688948362e+02 -5.0702417271905131e+02 -2.9949125362601656e+01  1.9037801292070608e+02 -5.2411885985793117e+02 6.3742405323923466e+00  2.7225881605595600e+02 -5.3131833793999579e+02 9.0976578262297778e+00  2.0277909426234257e+02 -4.8182320064406565e+02 -1.3716662438357528e+01  2.3783356298231337e+02 -5.6456669743450345e+02 -5.0483676851373538e+01  1.3586843208155872e+02 -5.5895486798043214e+02 -1.3526404941227753e+02  1.5403197048378715e+02 -4.8467737815281413e+02 -6.3153517004553976e+01  1.6098879122874428e+02 -4.3983554638234813e+02 -2.5059044438713332e+01  1.9199829228788781e+02 -4.8663016413966716e+02 1.0211234770915114e+01  2.3584272721506235e+02 -5.4026077869846767e+02 5.1178026589235905e+01  1.3592016627476596e+02 -1.4769249593150970e+01 -1.9209437167913268e+02  7.7543284026883423e+00 4.6218146067632382e+01 -1.4605940038011684e+02  8.7701336983200079e+01 4.8688033120003794e+01 -1.4702618971802349e+02  1.3750455611385703e+02 -4.5424926743378080e+01 -1.8826290607947644e+02  2.3365228717689465e+01 5.5289147204688874e+01 -1.4977587876364930e+02  2.1614305008251540e+00 9.9135064193484865e+01 -1.2581671242549987e+02  4.2509818429080298e+01 9.5100015518594702e+01 -1.3158402542105569e+02  1.3400399059155998e+02 -2.7899661001553731e+01 -1.8194929978521608e+02  9.3976317776341119e+01 4.5220154287996905e+01 -1.4396561459147611e+02  8.9939288491916315e+01 9.3142108649191542e+01 -1.0840792056937914e+02  2.0006350706355192e+02 1.0310963269206474e+02 5.3557512835812801e+01  1.7268548585386617e+02 9.3821548233615431e+01 1.8813241560045544e+01  1.7135542927987677e+02 9.9649738089043012e+01 4.2414241110300843e+01  1.9947208844801318e+02 1.0310826149539368e+02 4.6167856306262642e+01  1.9992724649607982e+02 9.5653839853536454e+01 2.9577826855197923e+01  2.0040573317782011e+02 1.0527772348101307e+02 3.8591309089550144e+01  1.6915534046283824e+02 1.0010817577799548e+02 3.4947596635177391e+01  1.9965689271876019e+02 9.6251897086331084e+01 2.2217237233679764e+01  2.0017040446324208e+02 9.0594258482751229e+01 7.3612401668790870e+00  1.4323105996179618e+02 9.4267012369048217e+01 3.0506873350619948e+01  2.3235553646892797e+01 7.4914597376440312e+01 1.0661231041269063e+02  4.0017357248935404e+01 6.8020505693215824e+01 1.0746119997736353e+02  4.4416546510115182e+01 7.8562403390917353e+01 1.0439797796003288e+02  3.9348279887048648e+01 7.0498316765331111e+01 1.0743641774044701e+02  3.6578580135830855e+01 7.4355481322520646e+01 1.0490047299145245e+02  3.5101656844551549e+01 6.5826075800298113e+01 1.0164424437208325e+02  4.7401749770474225e+01 7.5220632417299370e+01 1.0372970473528794e+02  4.6393230246778415e+01 6.7043679763511307e+01 1.2050927548809777e+02  5.1374382007607664e+01 7.6172613717562442e+01 1.1150605757915558e+02  5.4588908333324149e+01 7.7647993851468399e+01 1.0211254950710264e+02  1.0910081785919868e+02 7.1675167730413861e+01 -1.4738876688004757e+01  1.3683922276980172e+02 8.0799332388015912e+01 -2.2840771323863134e+01  1.2359116091890701e+02 8.3599843687341973e+01 8.4740605712268451e+00  1.2445722255842955e+02 7.9497370438779683e+01 -6.2969597090621832e-01  1.4103772644910157e+02 9.3015744371908227e+01 2.1199319403538002e+01  1.5551996775137854e+02 9.1818743930162810e+01 -1.3522635438992019e+00  1.5837882131610201e+02 8.8898569146586226e+01 -9.9321497274150552e+00  1.3907825417408503e+02 9.9397908268464008e+01 2.4726681825179678e+01  1.4092514946765445e+02 1.0065465295781709e+02 2.9362356582222102e+01  1.6700836862168796e+02 8.7225913674318363e+01 -3.2344714826200395e+01  -3.5982834402656754e+00 2.1538469970293061e+01 6.7288330883477286e+01  1.9273348237265768e+01 2.2917448850793519e+01 1.6901562465750978e+01  -1.1718300319379542e+00 -4.1604729637022588e+00 6.8427853225169306e+00  5.1470078319594910e+00 4.5786863006770613e+00 4.9729379449073484e+01  2.0532891165295979e+01 -2.3204941082311299e+00 2.3729377114311966e+01  3.1331346438952050e+01 2.0676518117207749e+01 2.7997073759407081e+00  1.5048214467239593e+01 -7.0447081326870631e+00 -1.1607173434099787e+01  1.5283397824156037e+01 1.5585298137125216e+00 -3.8361390230011651e+01  2.6328089853074733e+01 1.9619741335139771e+01 -2.2913750626372881e+01  4.1800615647046605e+01 3.8442576927033222e+01 -1.3498863611378026e+01  1.0987923342059767e+02 2.6580291495168677e+01 3.9837907327056814e+02  9.2061648266290561e+01 5.0329604268081034e+01 3.2720676103315850e+02  8.0869135900905079e+01 2.9548998430275841e+01 3.5922625942184578e+02  1.0244272519812232e+02 3.3431860630969524e+01 3.4988700242225786e+02  1.1802368808295854e+02 4.3547559314889092e+01 3.6101678862099226e+02  1.3941051185993740e+02 7.0935800819552156e+01 3.3276850190414979e+02  1.1654857544000775e+02 6.2367919881424250e+01 3.2279006155920035e+02  9.2773095131492198e+01 4.5301187224753093e+01 3.1595291482996203e+02  8.0289795022798941e+01 3.4612660451382197e+01 3.1688663792995129e+02  5.7292207586421036e+01 3.2298236341176150e+01 3.1728152577494905e+02  4.7686526972825369e+01 7.1388121901129821e+01 1.0737407087030401e+02  4.9008513077549928e+01 7.0321803988824328e+01 1.2348007741722222e+02  4.4427893158705345e+01 6.2609068070175177e+01 1.1626516432237115e+02  4.1895507940038314e+01 7.0900530149441352e+01 1.2313073731856568e+02  5.2289482273888538e+01 7.4678737497744279e+01 1.1076714762933642e+02  3.7189440427210236e+01 6.6225759642353552e+01 1.1740581956183419e+02  3.4432353595915963e+01 6.4429788566565307e+01 1.0790066955323623e+02  9.5133687565461088e+01 1.4529312707370056e+02 3.2189432101827067e+00  9.8481221485396901e+01 1.0632159590719543e+02 2.3189475935948825e-01  8.8523740166765435e+01 9.8959418630305706e+01 -1.5595040725803340e+01  5.1639257400982665e+01 1.2002669813940828e+02 3.9399288508783094e+01  4.5007882294780089e+01 9.3366132622389060e+01 3.2400618301659613e+01  8.1639447189361661e+01 8.7310673747655031e+01 1.0401732008101552e+01  7.9957044140686804e+01 7.9031034441873530e+01 -4.6821009845961061e+00  1.2083361921796838e+02 6.8350483679709669e+01 -3.3339623137826841e+01  1.1122741300244282e+02 7.3138294255392537e+01 -1.6653693151060455e+01  1.0739068210248591e+02 7.9298830528562476e+01 -6.4967150889691752e+00  2.0233850249482506e+02 -2.2304180296617380e+02 5.4830094936794964e+01  1.5603166248636359e+02 -2.6387521381216703e+02 5.5752535752127876e+01  1.4635458540011967e+02 -2.5977639650565703e+02 4.9950484142144077e+01  1.4727276796220968e+02 -2.2138015761994029e+02 5.2072390301920251e+01  2.0032472494464346e+02 -2.6011524652894661e+02 5.5616931106270478e+01  1.9977969227740081e+02 -2.6560720987415868e+02 5.8017110219014143e+01  1.9834059323208271e+02 -3.0087233570324099e+02 5.1413744966204639e+01  1.9942992372526760e+02 -3.0774815952769410e+02 5.5209934474624163e+01  2.0022546803774395e+02 -3.0813133893683039e+02 7.1596715789631773e+01  1.0152330261444003e+02 -2.2320956688074622e+02 3.6099263471247930e+01  3.3427519170177462e+01 1.1915499989127358e+02 1.5594375705222643e+02  2.9249193126340419e+01 9.1640727457772172e+01 1.3418353293235413e+02  4.4491572241458549e+01 1.0443248200200462e+02 1.3903731816359075e+02  3.1160678252585292e+01 1.1049457545859320e+02 1.3114033183488323e+02  3.1242355235999288e+01 9.2939524462124211e+01 1.5879667522380907e+02  2.9495584685043223e+01 9.2487207240367141e+01 1.5274094201976598e+02  3.9893000109675299e+01 1.1077154383161707e+02 1.6008011816228691e+02  5.0323240577332562e+01 1.0843717359598205e+02 1.6993372490940450e+02  1.8405625872381915e+01 8.0314765409153765e+01 1.4871972213019720e+02  3.6411753053593095e+01 1.0036267991307609e+02 1.1119393104267948e+02  -1.0104517319764998e+00 7.7174777117219605e+01 -7.1824004800988106e+01  1.4298620922771848e+01 6.0458317489988858e+01 -6.4911022380228630e+01  1.4071558607633797e+01 6.1412562608833831e+01 -5.3386146871166090e+01  4.4604256296703561e+01 7.1832042143245900e+01 -6.6726961225982834e+01  -2.1156406515196329e+00 8.0698073463977053e+01 -9.4050125976787029e+01  7.5439789520278026e+01 6.9714594315183362e+01 -3.7599794702070234e+01  4.5736849441183494e+01 6.2723714499459561e+01 -4.0027141174473002e+01  4.5131040080707976e+01 6.8588905352289800e+01 -7.4203523965824687e+01  1.5615772973291735e+00 7.3383875794426388e+01 -1.2132939881073877e+02  2.2102308784577009e+01 5.3092699753581272e+01 -3.6970446547130578e+01  2.8991719956143453e+02 -6.4076489996865132e+02 -9.6006302079800420e+01  2.3189073516562451e+02 -5.1673032981705080e+02 6.1242553968688973e+01  3.6350221349031204e+02 -5.5557918947093935e+02 1.4500309547759653e+02  2.7932337296270606e+02 -6.5585116209623573e+02 1.6202818347526769e+01  2.6919732832798161e+02 -6.6937373074463426e+02 -4.8931531673603899e+01  2.2416578815644019e+02 -5.3353735984919831e+02 2.6551145348988565e+00  3.9513372185771755e+02 -5.8250528008540198e+02 6.9343051204522254e+01  2.6500958926230362e+02 -5.3342472860257317e+02 3.8661321703719587e+01  2.5045194350910739e+02 -5.2150988188725137e+02 2.2069789082592800e+02  2.0958178802937886e+02 -5.0376735991421907e+02 3.6352452504073234e+01  4.8306546691762811e+01 -1.9412872450386539e+02 9.6479866080953833e+00  7.7151574431009578e+01 -1.9220067561982498e+02 5.9421877233986798e+01  6.5649609601422569e+01 -2.1054938565278403e+02 4.0236267768253157e+01  8.9397155776079927e+01 -1.7435827874163274e+02 1.7149355425901266e+01  7.1872019172868889e+01 -1.9867459687307127e+02 3.6015217605276518e+01  5.4522704801032461e+01 -1.5432970611695052e+02 5.1207263103992730e+01  4.2913002898540903e+01 -2.1753289491271772e+02 6.8342207916858371e+01  1.0321832533135020e+02 -1.6188987522341716e+02 6.0779002447028972e+01  6.5827265316776618e+01 -1.7534306920080539e+02 5.3016679213714220e+01  5.7493585318593723e+01 -2.6466738412460933e+02 6.8500299068127717e+01  1.1941551961931157e+02 1.5618255910124640e+02 2.0588463832354856e+02  1.1994064195168828e+02 1.3697743142537644e+02 1.9645480221040174e+02  1.3235914248652611e+02 1.4102747312177999e+02 2.2544482772470246e+02  1.4353370257050670e+02 1.3733394963802061e+02 2.0456679080871885e+02  1.1803199169168552e+02 1.6270632649400915e+02 2.2721435415196089e+02  1.0982606695760744e+02 1.5818475269303769e+02 1.9473883194343344e+02  1.1743609810441899e+02 1.6293841938747238e+02 2.6536915222297381e+02  9.9461206561035397e+01 1.5577683969732973e+02 2.2883196558582344e+02  8.7738876605990058e+01 1.4742330897099154e+02 1.9238785548673704e+02  1.5530423553942799e+02 1.2852685055883094e+02 1.9930450420707297e+02  2.0026474856061211e+02 1.2449236954907495e+02 1.2831988428008412e+02  1.5487398513834088e+02 1.2605978536123770e+02 1.2016425727333552e+02  1.7452840328769543e+02 1.2747267585449001e+02 1.4043341134884324e+02  1.8091789003253524e+02 1.1988646340302545e+02 1.1784439797045638e+02  1.7834491877471615e+02 1.2178276702971766e+02 1.0993363042447693e+02  1.6237666977278977e+02 1.1638203725085258e+02 1.0770363240987784e+02  1.5784296289488958e+02 1.2267154074000797e+02 1.2821638684373579e+02  1.6204711146094843e+02 1.1674029483976288e+02 1.0109417104864961e+02  1.5973790723709405e+02 1.1732926676325486e+02 9.1613593479944868e+01  1.5107276439153193e+02 1.3156781504516943e+02 1.5053219535947866e+02  -4.0750703741987884e+01 2.1795161654974461e+02 -1.8386432269269943e+02  4.4059803725920410e+01 1.5623877030115125e+02 -1.6413870654442690e+02  4.9870061837671301e+01 1.7141095040017601e+02 -1.7986103774857946e+02  3.3340241645380665e+01 1.3912421372018397e+02 -1.3240239312927366e+02  -2.7031114650125208e+01 1.8385137761470628e+02 -1.5389686693198928e+02  6.7354926866807773e+01 1.0493890941376617e+02 -1.0312227102574127e+02  7.5234625091468075e+01 1.2370970181174877e+02 -1.3136758346160525e+02  3.5628777459958485e+01 1.2109590718059069e+02 -1.2570267738358423e+02  -6.2498374838341819e+00 1.4925105567604874e+02 -1.6318592931814428e+02  9.0696173814513415e+01 1.4510514499067659e+02 -1.6297627769267748e+02  2.0774243919231563e+02 2.1980959530298185e+02 2.3262103861095994e+02  7.4394109053882929e+01 1.7326617480428655e+02 2.2020424492697626e+02  1.0691270539397757e+02 1.2198898429468406e+02 1.8354721778024245e+02  9.9833049190511389e+01 8.1020526264120775e+01 1.4557035703199867e+02  2.0316934398485863e+01 4.1610862947985993e+01 9.0082835804689225e+01  -1.3924564129057245e+01 2.5818706824300509e+01 2.6721197011718510e+02  -7.3881195358636930e+01 8.3171633374332131e+01 1.8030324034992799e+02  2.6007044031371226e+01 -4.1540894743121044e+01 9.9082826806343363e+01  1.4271009800399699e+02 4.8569966340399937e+01 2.3440005199343409e+02  -1.0653001536165645e+01 1.4061846010537425e+02 2.5379568361504769e+02  6.5079187722840615e+01 4.0201224984713100e+01 1.8471323707419032e+01  8.0323528251988691e+01 6.9411053677596200e+01 5.0041715467521207e+01  6.2675708734136933e+01 4.5886231099399566e+01 4.9968075917778378e+01  6.4055220922262549e+01 5.6599396803323224e+01 5.7769095192866089e+01  6.6227984970553820e+01 7.4272696439401571e+01 8.2175150703373816e+01  8.0644396917250404e+01 8.6135638724094761e+01 7.4551449498987779e+01  6.3857482741220934e+01 6.9492944576216914e+01 7.9027306612317972e+01  6.0055228837987940e+01 6.0860504471460615e+01 7.9157575395318446e+01  7.7369022268658426e+01 8.3146446491971062e+01 7.2161232680220053e+01  9.6564899069553704e+01 1.0240863523212931e+02 6.7292342124808457e+01  1.7638531169640393e+02 1.2407560913131437e+02 1.4381708855107757e+02  1.9978556982725920e+02 1.2282464622714203e+02 1.3201932043723355e+02  2.0010040027131473e+02 1.2181944785371864e+02 1.3450206800416763e+02  1.8071054768490490e+02 1.1963365592617725e+02 1.2108065133710474e+02  1.4768343028845308e+01 -9.7667960875825386e+01 5.2786989939184771e+01  5.9630174293234234e+01 -8.0399121451347085e+01 6.9672197143055968e+01  6.4027763342925155e+01 -7.7658368749154349e+01 5.8408225064848864e+01  5.2264931645108788e+01 -9.5504836414963577e+01 4.3054716160164546e+01  4.2861124325968859e+01 -8.4708972695964761e+01 6.8544401072734800e+01  3.9073665114670710e+01 -6.0806935366811871e+01 6.1502541375802174e+01  3.3526467923906829e+01 -6.6238426671050860e+01 4.0628174840697454e+01  4.7063976308727561e+01 -3.4900251355157074e+01 6.7130635392272978e+01  9.1085204215285501e+01 -1.0358981874503934e+02 6.0229606695842158e+01  6.0618497577659483e+01 6.4288514877916271e+01 -4.6185299564457587e+01  6.5218951406641409e+01 5.5177324841451096e+01 -2.8709356073716812e+01  5.4834947415171563e+01 5.8671714256609029e+01 -3.2662669354097858e+01  7.5884878105766461e+01 6.6004412582631716e+01 -4.0805267815450740e+01  5.3936033954095691e+01 5.2599030281531093e+01 -3.3930882407292138e+01  4.5126625706400702e+01 4.4570431476583984e+01 -2.5973944940334437e+01  6.4780265941198536e+01 6.1531016892320224e+01 -2.3596535309857913e+01  4.4484602815400301e+01 5.2186779693908179e+01 -2.3167060492776013e+01  8.6628044281142948e+01 6.9290418998224382e+01 -3.1972890245242578e+01  4.3272414323575099e+01 5.8370257263496846e+01 -1.5412220129553939e+01  4.8186503560154172e+01 1.5912381356941982e+01 -2.1084682888037161e+01  5.0599781435154554e+01 2.4901253854091451e+01 -2.2066164101919039e+01  7.0770534918395313e+01 2.9341917229454779e+01 -1.9179940719770119e+01  7.0667722435674136e+01 7.7689582749441275e+00 -1.4326056681761147e+01  8.1864011196061313e+01 1.3481293515976157e+01 -2.0281790236567112e+01  7.1147234710789206e+01 3.5572357119762842e+01 -2.6063728278195267e+01  6.4379739596132069e+01 2.1537724850998014e+01 -2.3655881046848442e+01  8.7378954504835136e+01 3.0458529929644524e+01 -2.0457490105494184e+01  8.9160767468607474e+01 4.6657164076880022e+01 -1.9953817933649521e+01  5.0871191193608546e+01 3.1045122593433046e+01 -2.8512172040571073e+01  1.8919298376912235e+02 1.8724655588546395e+02 3.9619055673249778e+02  1.5220846472122562e+02 1.6684508609224903e+02 2.9612998655842620e+02  1.4384794274711138e+02 1.7844435091806787e+02 3.2710337547536471e+02  1.7272887533618660e+02 1.6429040887610390e+02 3.3286824390604210e+02  1.7605942234895329e+02 1.8502076632077566e+02 3.5049383407138868e+02  1.3976197033744671e+02 2.3212460070694831e+02 3.0367607430549037e+02  1.2510843299236811e+02 1.8721339409008857e+02 2.8341903755823574e+02  1.6556293346574867e+02 1.3618734729660036e+02 2.9356078184355579e+02  1.4116596287849987e+02 1.4867465892671734e+02 2.8255319226282808e+02  4.1026411020434097e+01 5.8197145006208906e+01 -4.2684608543008373e+01  9.4355052735814375e+00 5.2633810327104229e+01 -7.4537237970360053e+01  1.0759389907950677e+01 4.1314065606434426e+01 -4.4117927419056045e+01  1.7062954771377687e+01 5.0108036414430678e+01 -4.0466690992793531e+01  3.9683677055676704e+01 -7.3364131576353225e+02 2.2201912349002765e+02  6.9204933231847974e+01 -5.2136777650907254e+02 2.7442172145395546e+02  8.7933845191145551e+01 -4.5565171882128533e+02 2.5216431354739572e+02  1.0197637792404372e+02 -5.4923330538675987e+02 1.9866819193397407e+02  1.1796171633727683e+02 -6.5114582532676218e+02 3.6637185476114212e+02  7.8147627962276971e+01 -5.2909801531296966e+02 3.4792052298072770e+02  1.0594001928544095e+02 -3.4013581165426751e+02 3.8661183878911191e+02  9.9713780020621968e+01 -3.7563169511184691e+02 4.9983586784318828e+02  1.9463813329595798e+01 -4.6243727823435995e+02 4.8317704755449506e+02  8.3318514753379802e+01 -4.9703125676909531e+02 1.7430144910743681e+02  1.6166419893303598e+02 1.0963755656293017e+02 -2.8022022642138502e+01  1.1513772364953806e+02 1.0487656766402203e+02 -6.5172808281673609e+00  1.2635558517330166e+02 1.0467910374425011e+02 -4.7651193883198335e+00  1.2330385887981652e+02 1.0463340979118340e+02 -1.7023433651522829e+01  1.2201469380249735e+02 1.3475457618802625e+02 8.3001293607475297e+00  9.6798741936553185e+01 1.2697726294782692e+02 2.5849683968302649e+01  1.0757343695965142e+02 1.0598068787410553e+02 5.9406291176730273e+00  1.2047495744562342e+02 9.2243458686268710e+01 -2.5626825073859880e+01  1.1731269914245019e+02 9.0130904477550274e+01 -1.1743633085303070e+01  1.1484792410720954e+02 8.7276776746019451e+01 -3.2961424645039981e+00  7.7639809597571826e+01 -1.3504590624518167e+02 8.5894017347150523e+01  4.5277153229520579e+01 -9.7424694985778373e+01 8.8820632