<?xml version="1.0"?>
<VTKFile type="UnstructuredGrid"  version="0.1"  >
<UnstructuredGrid>
<Piece  NumberOfPoints="9032" NumberOfCells="41089">
<Points>
<DataArray  type="Float64"  NumberOfComponents="3"  format="ascii">3.106514930725098 0.09558500349521637 24.58004951477051  2.776873828310146 0.5953574016050011 24.15496293257596  2.545827164980402 0.5606908154825354 24.60833189367509  2.664175510406494 0.09558500349521637 24.35697460174561  2.221836090087891 0.09558500349521637 24.1338996887207  2.334534407991542 0.5953574016050011 23.93188801955106  2.103487744661798 0.5606908154825354 24.38525698065018  1.985139399235706 1.025796627469854 24.63661427257967  2.216186062565449 1.06046321359232 24.18324531148054  2.447232725895193 1.095129799714786 23.72987635038141  1.027380133659841 2.927592181465144 22.80530366437548  1.281867514166427 2.499503858323082 22.5444635009009  1.36874505921209 2.445291193704845 23.2207787082878  0.8279470627462869 2.176832568298337 23.02848725088891  1.451269030570984 3.61749792098999 21.80426025390625  1.110345056718176 3.170003472447029 21.7761534443456  1.092089528463829 3.454003222440165 21.42297514356767  1.094154531382073 3.506746180509013 21.72688063062822  1.465394552988844 3.228012254859158 21.54962758056308  1.467459555907087 3.280755212928006 21.85353306762363  1.44920402765274 3.564754962921143 21.5003547668457  1.447139024734497 3.512012004852295 21.19644927978516  1.48365008124319 2.944012504866021 21.90280588134101  0.7370400321931617 3.395994440028036 21.64950100735018  3.672585010528564 2.506094932556152 24.80652046203613  3.977897461138042 1.743864497167152 24.18999533782081  3.555342968187603 1.850805958730262 24.44361548552589  4.044728517532349 2.148927450180054 24.88310050964355  4.416872024536133 1.791759967803955 24.95968055725098  3.927486475191387 1.493638476354163 24.52019553313331  3.43810092584664 1.195516984904372 24.08071050901565  1.195948004722595 4.06894588470459 20.65167999267578  0.4182155153379329 3.749475129102152 21.2154107896248  0.9664940184578785 3.732470162366313 21.15059050001298  0.6476695016026497 3.608953952789307 20.70876026153564  0.6476695016026497 4.08595085144043 20.7165002822876  0.09939099848270416 4.10295581817627 20.78132057189941  0.09939099848270416 3.625958919525146 20.77358055114746  0.09939099848270416 3.148962020874023 20.76584053039551  0.4182155153379329 3.272478230451029 21.20767076887284  0.09939099848270416 3.557343006134033 21.73625946044922  0.4182155153379329 3.087655194257182 21.52063520826493  0.4182155153379329 3.476668723081034 21.6928802338997  0.09939099848270416 3.168329477310181 21.56401443481445  0.09939099848270416 3.353152513504028 21.25104999542236  0.09939099848270416 2.964138984680176 21.0788049697876  0.09939099848270416 2.779315948486328 21.39176940917969  0.9591789742143773 3.154377227584381 21.0838698595454  0.5792947963377066 2.808115507658203 21.03605387643257  0.8981193131929355 2.931631717235208 21.47788411490991  2.609785079956055 3.476422071456909 22.63113021850586  2.211067210929825 2.918752419868816 23.06761430328223  2.857660338579163 2.960300844380786 23.05727928133127  2.347753371793716 3.342923111170707 23.08125978086209  2.732314791280715 3.250972575396476 23.52105432126736  2.085721663631377 3.209424150884506 23.53138934321832  1.276749968528748 4.362957954406738 21.59830093383789  1.006895000360955 3.879476197217387 21.62390097059404  1.361944496631622 3.937484979629517 21.39737510681152  1.364009499549866 3.990227937698364 21.70128059387207  1.236348986625671 4.215951919555664 21.12499046325684  1.321543514728546 3.790478944778442 20.92406463623047  0.09939099848270416 3.830149412155151 21.25879001617432  0.9957804977893829 4.396618366241455 21.06900024414062  0.6880704835057259 4.232956886291504 21.18981075286865  0.9553795158863068 4.249612331390381 20.59568977355957  0.4071010127663612 4.266617298126221 20.66051006317139  0.7148110270500183 4.430278778076172 20.53969955444336  0.4182155153379329 2.996435769055766 21.91943033613359  0.09939099848270416 3.077110052108765 21.96280956268311  0.09939099848270416 2.596877098083496 22.18935966491699  0.09939099848270416 2.688096523284912 21.79056453704834  0.8562909960746765 4.913105964660645 21.15790939331055  0.7855510115623474 4.671692371368408 20.84880447387695  1.066520482301712 4.638031959533691 21.37810516357422  0.4778409972786903 4.508030891418457 20.96961498260498  0.7732650116086006 3.330487012863159 20.98114490509033  4.05564022064209 0.09558500349521637 24.9702205657959  3.939635006307346 1.161563987150594 24.72052218988096  3.671977385201031 0.6715899727056998 25.02232458100514  4.060200794853741 1.111547971398689 25.26141454682545  3.288314549759973 1.247594941916183 25.07442859621438  1.710109984764338 1.962990205944546 23.63625375220012  2.428287992415663 2.145588252792965 23.70212992056856  2.023261371496306 2.295535447398835 23.12004650777313  1.897915824197858 2.586207178414526 23.58382154770922  2.74143937914763 2.478133494247255 23.18592267614157  2.616093831849182 2.768805225262946 23.64969771607766  2.336412758228273 2.628080688853125 22.60383926334613  3.146466000066988 2.328186299641385 23.768006088937  1.253168809463603 2.989640499647338 21.25135825112739  1.963263034820557 3.487206935882568 22.26766967773438  1.723456558031873 3.215609720374295 22.08523777953769  1.941018044948578 3.320626497268677 21.8830394744873  1.70726603269577 3.552352428436279 22.03596496582031  1.685021042823792 3.385771989822388 21.65133476257324  2.376600635576757 2.391087626032057 24.6417961856207  2.867773637827583 1.171362370815484 24.4021524732979  2.411916680735975 1.743108712873422 24.18583626800105  2.907350780711699 1.793302305468214 24.36125334731818  2.832457592668365 1.81934128397412 24.85811239091754  2.942666825870917 1.145323392309579 23.90529342969853  3.363207737803307 1.221555963410277 24.57756955261502  0.5792947963377066 2.532073046262939 21.74781344369331  0.7915205398629472 2.770444801474759 22.046082773129  0.5633855660712724 2.76223463977432 22.49733166464624  0.8178729465778588 2.334146316632258 22.23649150117166  1.255515107451516 2.935802343165583 22.35405477285825  2.348831847731664 1.933305897869394 23.2394912934869  0.09939099848270416 2.326327562332153 21.85377979278564  1.188632960479094 3.490852949922658 20.5849593522082  0.09939099848270416 2.697862982749939 20.80150032043457  2.711620162541173 1.110656806187113 24.35866239079766  3.272307928285869 0.645550994199794 24.33038001189308  3.852593287148053 1.519677454860069 25.01705457673268  1.026119500398636 4.491025924682617 20.90479469299316  0.4066560044884682 4.105079412460327 20.3950252532959  0.4066560044884682 3.628082513809204 20.38728523254395  0.09939099848270416 3.75183093547821 20.36141490936279  3.259917020797729 3.286696910858154 24.26296997070312  2.231161149604067 2.800255888458281 24.08659276441951  3.203191510432359 2.80744160524977 24.01548802982006  2.672819342214553 3.24806053087133 23.89717965696072  2.818258828187243 2.838892268445106 24.45238307816191  2.761533317821872 2.359636962836721 24.20490113727885  3.746870573244365 0.645550994199794 24.52546553740577  3.581077575683594 0.09558500349521637 24.7751350402832  3.197414740242535 0.6715899727056998 24.82723905549244  2.078671355329766 1.529060002829666 23.68306505129077  2.79684936298109 1.711658049678086 23.74894121965921  2.024492349225967 3.348315543383537 22.89952951047635  0.09939099848270416 2.097300052642822 22.87153053283691  0.5633855660712724 2.512446117053983 22.8384170986062  0.8178729465778588 2.084357793911921 22.57757693513162  0.09939099848270416 2.347088575363159 22.53044509887695  2.043355310170548 2.177038915988302 24.13902496891041  1.681896445944057 2.777836435159135 22.70457146386081  1.556550898645609 3.068508166174825 23.1683465037969  3.292283462956814 1.761851642272878 23.92435829897632  1.495321584240199 3.207399558673856 22.53648667105493  1.3143310546875 0.8041840195655823 23.72088050842285  1.880781890291347 0.949656909640184 23.72537842940213  1.649735226961603 0.9149903235177184 24.17874739050126  1.768083572387695 0.4498845115303993 23.92739009857178  1.847624692000022 1.4943934167072 24.13643401238989  1.512220519725919 1.383587112755064 23.67856713031149  2.636726974497839 1.136695784693019 24.85552143439703  3.319412469863892 3.289608955383301 23.88684463500977  3.378907918930054 3.292520999908447 23.51071929931641  2.180870017406231 1.708442126750956 24.63920522910018  2.928299903869629 3.790539979934692 23.45920944213867  2.507010783750503 3.499982065409599 23.4952993926785  2.769042491912842 3.633481025695801 23.04516983032227  1.239324582115412 3.272545051227567 22.30478195914086  3.480449780144268 1.876844937236168 24.94047452912526  0.8822100829265012 3.16179331074659 22.22740233586283  1.589444994926453 3.76216197013855 20.61112976074219  3.409525505297776 2.417140616098769 24.28726327548657  3.466251015663147 2.896395921707153 24.53474521636963  3.024592823052661 2.448591279294105 24.72415832382842  3.21739027491348 1.787890620778784 24.42121734257569  3.555350065231323 3.072985410690308 24.09570980072021  3.153603911399841 3.54153048992157 23.48496437072754  3.094108462333679 3.538618445396423 23.8610897064209  2.642450094223022 0.09558500349521637 23.87155437469482  2.755148412126674 0.5953574016050011 23.66954270552518  2.313080908197536 0.5953574016050011 23.40814343642118  2.200382590293884 0.09558500349521637 23.61015510559082  1.746630072593689 0.4498845115303993 23.40364551544189  9.796791076660156 7.055768966674805 35.80062103271484  10.24936669892155 6.589828196991666 35.75573231252564  9.90993070602417 6.429314374923706 35.60095977783203  9.851931571960449 6.798775434494019 35.44246482849121  9.907072067260742 6.541781902313232 35.08430862426758  10.30450719422184 6.33283466481088 35.39757610830201  9.965071201324463 6.17232084274292 35.2428035736084  10.02307033538818 5.802859783172607 35.40129852294922  10.362506
[...]
<PointData  Vectors="u"> 
<DataArray  type="Float64"  Name="u"  NumberOfComponents="3" format="ascii">2.8803004821035643e+02 -9.2763761967275982e-01 -2.9321625823255096e+02  2.6603831956112987e+02 -3.1532272022344053e+01 -2.7237664283314399e+02  2.4162614599641103e+02 -2.8124460680649289e+01 -2.7510327910274430e+02  2.5412037190470312e+02 2.4989652803715763e+00 -2.7415557998124319e+02  2.0920448201115212e+02 -2.0485112887642526e+01 -3.1179939767666576e+02  2.1678149224486148e+02 -5.1981679785461964e+01 -2.7914477993602236e+02  2.3043251790539756e+02 -2.4192197698351833e+01 -2.6725334271227632e+02  2.0758568955616383e+02 -6.6311556039409950e+01 -2.6115938998469653e+02  2.2952313369967453e+02 -6.8429018010041332e+01 -2.6413617217110288e+02  2.4924368986755402e+02 -6.7801836575672425e+01 -2.5468534570521345e+02  2.0815694620949614e+02 -1.9888566012294643e+02 -2.0908610105047330e+02  2.2478223390997877e+02 -1.7518625590706444e+02 -2.1520302384969060e+02  2.1174026299015330e+02 -1.7085237296519063e+02 -2.2297339952622929e+02  1.7657650381545292e+02 -1.7775121822718472e+02 -2.1431410483181725e+02  1.4215574757493616e+02 -3.9334054041883883e+02 -2.4011870729017696e+02  2.2277601879687316e+02 -2.1990576565984682e+02 -2.3506783296220851e+02  1.9788591781553959e+02 -2.5756991145060709e+02 -2.6937398066016902e+02  1.7785885639605937e+02 -2.7477332614636993e+02 -2.4282506995349732e+02  2.8646705079683801e+02 -2.5991586439385719e+02 -2.7644476732724394e+02  2.5790015388129086e+02 -2.7761727904659506e+02 -2.5592908249476852e+02  2.0678286167841816e+02 -4.0733365508281275e+02 -2.9052536635792217e+02  3.0908012202610684e+02 -3.0136266217532761e+02 -3.4683446932130153e+02  2.6874183366897080e+02 -2.0800364540028056e+02 -2.3758138088850592e+02  1.9483296275895731e+02 -2.2052230340894388e+02 -2.4184299791568534e+02  4.3320989531446116e+02 -1.9914803096686722e+02 -3.7327258328273638e+02  4.4277840894274141e+02 -4.3597474322730434e+01 -2.8120505235542805e+02  3.8471184202366345e+02 -8.4010152707505640e+01 -3.0774647793088224e+02  4.7638241106468070e+02 -9.9167693144280236e+01 -3.9948735278996412e+02  5.9452473193331582e+02 -5.8394863603945140e+01 -4.0801398265694507e+02  4.2597806445353018e+02 -4.7660352016191290e+01 -3.1344079352817306e+02  3.4812327284333060e+02 -4.5758940015550422e+01 -2.6964450530954986e+02  2.1374964219988141e+02 -2.9319732175160328e+02 -4.0434532766408421e+02  1.7237981206033061e+02 -1.8629282752650565e+02 -2.7085342309805065e+02  1.5188713288704176e+02 -2.5955076922570089e+02 -3.0254331036146471e+02  1.9670941731492741e+02 -1.6055570923022560e+02 -2.9547947329925569e+02  1.1343318686856036e+02 -2.0433129541112572e+02 -3.3642131869449696e+02  1.7735054315807412e+02 -1.2464338665844363e+02 -3.4820717164387821e+02  1.9587260191309210e+02 -1.3952553703762649e+02 -2.9565840200444114e+02  2.0054538485770712e+02 -1.2653188607645303e+02 -2.5095736626169307e+02  2.0046134883642520e+02 -1.7249785500952223e+02 -2.4961120306900420e+02  2.0708386496400661e+02 -1.9386566069244142e+02 -2.3503022675939906e+02  2.0298266880605507e+02 -1.7681852699924519e+02 -2.2895315452127730e+02  1.9031574931724248e+02 -2.0408491341304574e+02 -2.3652078025703241e+02  1.9712958828711214e+02 -1.8357904601053630e+02 -2.2892578951378715e+02  2.0191468909260462e+02 -1.7222633523418747e+02 -2.5450280205073292e+02  1.9963509364827127e+02 -1.4864523308631195e+02 -2.2928827796376217e+02  2.0013353145454201e+02 -1.6041526251503973e+02 -2.1659181266300661e+02  2.3225389842725338e+02 -1.7003708619708291e+02 -2.5331529775777440e+02  2.1234067546394087e+02 -1.4213646649951772e+02 -2.2221118385077233e+02  2.2248232792243223e+02 -1.7919511443849754e+02 -2.2924867295232107e+02  5.9622713327547933e+02 -3.4099861035800154e+02 -3.8553819769665512e+02  2.9935254551576463e+02 -2.0510367628221420e+02 -2.5705477468070700e+02  4.1449421232972929e+02 -1.5986330580383358e+02 -3.2522667780754068e+02  3.3054494498151217e+02 -3.0281147950514401e+02 -2.4669848206979108e+02  3.3162142026596672e+02 -2.7563987221138143e+02 -3.2721021777458276e+02  2.4860246467145575e+02 -2.3197265818456935e+02 -2.4156967751974898e+02  -1.6979926945944385e+01 -3.0051744839486798e+02 -2.4005619925211320e+02  1.0280775587197304e+02 -2.7236985566613936e+02 -2.5077539749852423e+02  3.1105981464003197e+01 -3.4639142081397279e+02 -2.9656405217879154e+02  -4.3461732732666285e+01 -3.3043611053144735e+02 -2.4962701382338540e+02  -2.7363104021921982e+00 -3.1701950748999189e+02 -3.2547516664655058e+02  2.8767885465845058e+02 -3.2412876284799171e+02 -4.3229254808451515e+02  2.1276413714078711e+02 -1.8413859264163958e+02 -2.7877605439864743e+02  8.6082411434561678e+01 -2.6137149077775189e+02 -2.9818829545546777e+02  1.0825315830710412e+02 -2.1320099325754296e+02 -3.0068376613658603e+02  6.5570799465201802e+01 -3.7390112403061255e+02 -3.3494253976703533e+02  1.1102463058802138e+02 -1.3743531023274892e+02 -3.6510186659435936e+02  -8.4501385754007241e-01 -2.4040652656846314e+02 -3.4574302177594836e+02  2.0144742133244483e+02 -1.8602103713589997e+02 -2.1566048688122930e+02  1.9992148393848879e+02 -1.9183141463298517e+02 -2.1544618990707392e+02  2.0151406529430463e+02 -1.8685248512068981e+02 -1.9830454055893458e+02  1.9903937576414296e+02 -1.7350899836001543e+02 -2.0771151048414382e+02  -2.5468315347381818e+01 -3.5833694255157587e+02 -2.9227303657507781e+02  -2.6092542721236281e+01 -2.3867867098303580e+02 -3.0636606611647773e+02  -1.5803035831355318e+01 -3.3028493040069685e+02 -2.8906004006678910e+02  5.2621837044783533e+01 -1.6041497322914827e+02 -3.6649615480083634e+02  2.0560284392866072e+02 -1.6329810468186261e+02 -2.5880806768693435e+02  3.9451343306554361e+02 2.8690925752447232e+01 -4.5898571634634897e+02  4.2585711188315730e+02 -3.3089642613221386e+01 -3.2669889347315626e+02  3.2649423781193008e+02 -8.9272972917495448e+00 -3.5435281269860144e+02  3.9135812590986785e+02 -1.2549423378454948e+01 -4.4210067910204435e+02  3.0324776153191578e+02 -6.4148210548796271e+01 -3.2620893663763292e+02  2.1905785840314604e+02 -1.3251236095109903e+02 -2.4487744604888397e+02  2.8050355723680963e+02 -1.2960391957225610e+02 -2.6402347550441158e+02  2.6488898536044445e+02 -1.4214551431259315e+02 -2.4075641684596542e+02  2.4479135869950687e+02 -1.6655945324493015e+02 -2.4346959226606035e+02  3.4901735176301412e+02 -1.3304419128610377e+02 -2.7665256070910078e+02  3.0870096599320630e+02 -1.8984036524674835e+02 -2.7901104363079025e+02  3.3621642362854431e+02 -1.3862544259327615e+02 -2.5733755201920411e+02  3.7088598895026058e+02 -1.2379611079576291e+02 -2.9651455720404351e+02  2.6111837936897507e+02 -1.7015364110649656e+02 -2.4156840465095351e+02  2.8731331424951594e+02 -4.2000018415367759e+02 -2.1473238177978419e+02  3.0400724012440833e+02 -2.8170952557855748e+02 -2.6071705996229565e+02  3.8195929709693860e+02 -3.6476828590754906e+02 -2.9317429965371201e+02  2.0764148894605651e+02 -4.8563971754426433e+02 -2.3012718074045557e+02  2.9948034299345517e+02 -3.3481152209977091e+02 -3.0432512310354053e+02  2.3602596024575521e+02 -1.5422271033735882e+02 -2.7292687459685129e+02  2.8519734469489981e+02 -6.2950991414180912e+01 -2.8170334751875481e+02  2.5638401849605685e+02 -1.0604173334013760e+02 -2.6699669920518863e+02  3.0457516184211192e+02 -1.0306655010761112e+02 -2.8685436335788597e+02  2.7094283896680872e+02 -1.0925784433426466e+02 -2.9676694875758164e+02  2.9448034667055725e+02 -5.5361667398553998e+01 -2.6210923836445602e+02  3.3188381311926071e+02 -5.3804327839725914e+01 -3.0567608277372574e+02  2.0895792728193280e+02 -1.6598225695893720e+02 -2.0366867571420065e+02  2.0788696928594450e+02 -1.8597488036179374e+02 -2.1111779368935947e+02  1.9907036871855601e+02 -1.9354314905492265e+02 -2.0418541420133732e+02  2.0243971236190700e+02 -1.7149289718591007e+02 -2.0081040779860626e+02  2.2652046321810823e+02 -2.0776001615124073e+02 -2.1416953746470747e+02  2.7344482007732915e+02 -1.0915750840986119e+02 -2.4234595572693408e+02  1.9893712769699164e+02 -1.7032246549578821e+02 -1.9219683881535232e+02  2.7818034556384401e+02 -1.3826159639010973e+02 -2.8010711037992479e+02  1.9885714109121290e+02 -1.2455858655581804e+02 -2.1523976711030176e+02  2.6805930143582344e+02 -6.0670157070574632e+01 -2.7506440682007093e+02  3.1460582220848289e+02 -2.3428041046473371e+01 -2.8426166467942494e+02  3.9485067239044253e+02 -7.1563010604968468e+01 -3.7132665429229024e+02  7.9036851691471810e+01 -2.8003736700378118e+02 -2.7982577581925119e+02  1.4649086346480419e+02 -1.2757255532752974e+02 -3.6251662241773107e+02  1.9466096323367972e+02 -1.1773820533363285e+02 -3.1624647954089880e+02  2.1055794708099239e+02 -1.1144928979183318e+02 -3.2919889740576633e+02  2.9015088657030719e+02 -3.8760318674692212e+02 -3.5052590489976808e+02  2.4166517997174745e+02 -1.7952405021395882e+02 -2.5924570117653730e+02  3.7650761693120955e+02 -2.2170782428414890e+02 -3.4389979150676425e+02  2.6320378305058534e+02 -2.7549039797151909e+02 -2.9219631283343341e+02  2.7366462290582740e+02 -2.2159816875412884e+02 -3.0623740098066088e+02  2.9826143456203704e+02 -1.5629081387692358e+02 -2.8896628090625893e+02  3.7258043770730734e+02 -1.6929053772700467e+01 -3.0503688468985735e+02  3.2626817601059247e+02 -2.9268494214422720e+00 -3.2511076662832772e+02  2.9133740211352199e+02 -2.7164247319938816e+01 -3.0937654638071763e+02  2.3569829617731014e+02 -1.0080888961384939e+02 -2.5110271499655462e+02  3.0043329715163219e+02 -8.9238114094661228e+01 -2.6203895778733101e+02  2.7894390759748438e+02 -2.9786674964581721e+02 -2.2483407310802491e+02  1.5971516080068417e+02 -2.6639824111263641e+02 -1.7656642511779390e+02  1.9314374014244999e+02 -1.9105825058741081e+02 -2.0375673714060545e+02  1.8462223872809483e+02 -1.7541197346888160e+02 -1.9376747249999650e+02  1.9553416058985493e+02 -2.0358986051244310e+02 -1.8390074923514581e+02  2.3537482168380723e+02 -1.3684739783097456e+02 -2.5531426428843741e+02  2.6213616468072485e+02 -1.8590379770615934e+02 -2.2988567326365524e+02  2.2152811094178074e+02 -1.9895149527398121e+02 -2.1470506557720961e+02  3.5456383933835161e+02 -7.4814124799350594e+01 -2.7669530525064295e+02  2.2385055800333765e+02 -2.5338397940541719e+02 -2.1144575426891362e+02  1.6327424960642875e+02 -7.5753214218510166e+01 -2.8469226851618902e+02  2.0760018587482318e+02 -8.4122670295150016e+01 -2.6429237287818813e+02  1.9893917143482790e+02 -5.2361389886049317e+01 -2.6254124429189892e+02  2.3480498922020587e+02 -2.9799166613053206e+01 -3.2056720696631749e+02  2.1525344460564239e+02 -9.8905047339378854e+01 -2.5791126099547677e+02  1.9022307602041184e+02 -1.0871331407979555e+02 -2.5394850081608499e+02  2.4605508644499653e+02 -6.5802014469097315e+01 -2.8516656401543702e+02  4.4966221288955711e+02 -3.5464014657296190e+02 -4.3204947541053843e+02  5.7185213951329172e+02 -2.4188745934821813e+02 -4.4551068904956765e+02  2.2704790471166314e+02 -1.0515033414431052e+02 -2.6712526290304794e+02  2.7071920338739790e+02 -5.4655959058484757e+02 -3.4012745080495159e+02  2.9147673897464762e+02 -3.2046777056832565e+02 -2.7848261324194709e+02  6.1335496946591491e+02 -4.8960744404571125e+02 -3.9742654219249295e+02  2.0358329820999074e+02 -2.4415883626434666e+02 -2.0942821018599994e+02  3.4542279428356693e+02 -1.0622183982130248e+02 -3.4076487477068400e+02  1.9863658788549787e+02 -2.1482608865412638e+02 -2.1110551827669954e+02  3.5207272697460689e+02 -1.7404971355629650e+02 -2.6100266246568941e+02  4.0526207436791270e+02 -1.5561858727995948e+02 -3.3231685506133778e+02  3.7846025536335628e+02 -3.0070867236101952e+02 -4.1757684927985213e+02  2.9797592031972931e+02 -1.8272626400940302e+02 -3.1280319160999039e+02  3.3869195247993355e+02 -9.4799700043736678e+01 -2.9838224344139269e+02  4.7538466593803298e+02 -2.9997418607598814e+02 -4.0499481634249645e+02  4.7832202697688149e+02 -4.3825250985703656e+02 -4.9455165851334789e+02  2.2278271820536324e+02 -5.2560933101294233e+02 -4.1220432393926905e+02  2.3448922742225668e+02 4.5811992392214727e+00 -2.6559929111506005e+02  2.5456578294650819e+02 -3.4360916816974282e+01 -2.4956460154643224e+02  1.9947792434431062e+02 -5.9854441302783073e+01 -2.4767184357698500e+02  1.1407536708708429e+02 -4.1439529552000693e+01 -2.6727291385777016e+02  1.6016218548925502e+02 -1.4326732324994370e+02 -2.6885693627853021e+02  3.3710517315881992e+02 -7.9926121718549595e+01 -3.6505984098663227e+01  4.2008918795714015e+02 -5.0615660448261295e+01 -1.9188339776875733e+02  4.3611360654780606e+02 -5.2299461222813584e+01 -1.0189503108122179e+02  5.0332485754689242e+02 -1.8441658657346997e+02 6.9762731101845333e+01  6.1046718131905345e+02 -1.8970199562647721e+02 8.4139634818328929e+01  4.8375182675958604e+02 -6.9864353615609360e+01 -1.9808989210161909e+02  6.0545061220740331e+02 -7.7410930006206740e+01 -1.1073606898730554e+02  4.9004703048831749e+02 -1.2789637665393001e+02 -1.2947081890142147e+02  3.9212040951853351e+02 -7.9353537645947299e+01 -2.1727748965961453e+02  3.5881896510472603e+02 -2.5385235360535251e+01 -2.4815020621829137e+02  1.5675073535784674e+02 -1.7110442522553530e+01 -2.5132467178674617e+02  1.5832090721076037e+02 -7.5205673807970932e+00 -1.9846901536501724e+02  1.8633438568096474e+02 -4.3201046439181967e+00 -2.0561700646650885e+02  1.6937848362636356e+02 -9.0926664215420523e+00 -2.1335191486287320e+02  1.3838601799670468e+02 -1.4257952946923620e+01 -2.2803182734304764e+02  1.7096134597357332e+02 -1.9923898945766481e+01 -2.3413725259111922e+02  1.9289802799356445e+02 1.2989432667900186e+01 -2.1467155788131083e+02  1.5622166683578456e+02 6.6398322919522403e+00 -2.0961141525017072e+02  1.2736312551427589e+02 -7.8292076368339973e+00 -2.1509833254942168e+02  1.8186829032852100e+02 -3.6428392442142647e+00 -1.9206107585908782e+02  1.9897373967117741e+02 -5.4672110079947885e+01 -1.2516457241095630e+02  2.4335990107893048e+02 -2.5479044538503672e+01 -1.0954399345265588e+02  2.3539143439824977e+02 -1.7079405907438872e+01 -1.3162406275436106e+02  2.3761079978290581e+02 -4.6174869732359909e+01 -1.2866209820231717e+02  2.1644313567350130e+02 -2.4640130895879569e+01 -1.0742018151097237e+02  2.2012912523428130e+02 -2.9507408435619645e+01 -1.6335619684499241e+02  2.6672015599398389e+02 -9.8015734867283530e+00 -1.9076482555841326e+02  2.6168859376957806e+02 -3.4084809818518593e+01 -1.4669596431462517e+02  2.2589983826378000e+02 -1.3392999220776540e+01 -9.9518476180985246e+01  2.5874011994659770e+02 -4.4060918593486754e+01 -1.2960732737438883e+02  1.4970836733398988e+02 -1.3197242743944626e+01 -2.6121831574620165e+02  2.0481423733909031e+02 9.1163435544624498e+00 -2.2190681674716458e+02  2.3249165793724620e+02 -1.9608689181854793e+00 -2.5341547088527656e+02  2.0353801887508453e+02 1.9964964311471011e+01 -2.5229265565243543e+02  1.9326865741922430e+02 -8.2607004153641856e+00 -2.5781697932102031e+02  1.6559867959205033e+02 -7.4466542093940200e+00 -2.2433745196154732e+02  2.2053889594933679e+02 -1.2150005610980429e+01 -2.5368636109899563e+02  1.9524519404977693e+02 -1.0780800232339297e+01 -2.2727070429488373e+02  2.4323787415302260e+02 4.3293174183229013e+01 -2.6814539570836030e+02  1.5571232368201638e+02 7.8750769612606248e+00 -1.4927713837284145e+02  1.6039087381723451e+02 2.4385513615983569e+01 -1.5435835498919570e+02  1.8340334999127143e+02 2.7882587016271884e+01 -2.0488276229170717e+02  1.9970552190600478e+02 1.8058654841010423e+01 -1.8579032629561635e+02  2.3840612853455414e+02 1.3309348117220557e+01 -2.2491230452394876e+02  2.0519550542678877e+02 3.7702478878812386e+01 -1.9730566515374889e+02  2.3447827891218569e+02 2.5213760839589625e+01 -2.3915763797028515e+02  1.8913224371559261e+02 5.6839289830162400e+01 -2.1759158294513520e+02  1.5926929759674255e+02 4.8821553070410538e+01 -1.5545899487524321e+02  4.1983506905302397e+02 2.4947927701195894e+01 -4.2207247365803232e+02  3.1392840576320413e+02 -1.5733130608466260e+01 -3.0013123104417406e+02  4.3583422417635552e+02 -2.7020039261288581e+01 -2.6168977435445476e+02  3.7978801943958223e+02 -4.0913697984402944e+01 -3.0300823381884805e+02  2.4184975501849115e+02 1.5271290369027616e+01 -3.7497067250291218e+02  2.8203740127284243e+02 -5.5903260333053865e+01 -2.5003438556851111e+02  3.1850001722414692e+02 -4.9962271930969308e+01 -2.5354382603361645e+02  2.5412182657646852e+02 -2.9904733155564260e+00 -2.9706463616725006e+02  2.2029183739623636e+02 1.4157121123048254e+01 -3.0031006445470149e+02  2.4697545063496349e+02 -8.6589515917512855e+01 -2.4423020684859316e+02  2.5604896932472388e+02 -4.9834243668920728e+01 -2.4092077484695409e+02  2.4342874707612901e+02 -4.9482113676847767e+01 -2.3531538173706790e+02  2.3476164310748558e+02 -4.9229239417185902e+01 -2.4147320029396332e+02  2.2376337432705091e+02 -2.2398212731058443e+01 -2.2692057890641624e+02  2.4519054555411020e+02 -3.2243191957085749e+01 -2.2460088896379068e+02  2.3837278167302389e+02 -3.0030365496700686e+01 -2.3089647408180420e+02  2.3689137640881518e+02 -2.8032252247827209e+01 -2.2116680976802414e+02  2.4682869311039516e+02 -3.3445588917711902e+01 -2.1312466898447099e+02  2.5048207471153293e+02 -2.3374444264297757e+01 -2.3749852482471326e+02  2.8766282149657729e+02 -1.1134448043196926e+02 -1.7734633326609804e+02  2.5937730905309087e+02 -5.1994567760834073e+01 -1.4728575074883420e+02  2.7474421979664487e+02 -5.6222808040336233e+01 -1.5399972080944397e+02  2.5983496656115358e+02 -5.0599770202176053e+01 -1.6110579374839926e+02  2.5694923033246778e+02 -9.2328043007723892e+01 -1.6760094405774592e+02  2.4519645459832341e+02 -2.3464780983947282e+01 -1.5404885865250523e+02  2.5402606838235630e+02 -2.7392510062985373e+01 -1.4555605581451471e+02  2.4944129612614194e+02 -4.7143053239465019e+01 -1.5586988333753581e+02  2.4916245101797290e+02 -7.6556138883179415e+01 -1.5185066479342078e+02  2.6479304953018561e+02 -2.6048042362324292e+01 -1.3712818283736590e+02  1.5297913345666564e+02 2.0192853176006295e+01 -1.9628479939235140e+02  1.4344157475762736e+02 -1.0685529338783493e+00 -1.9558812143631488e+02  1.1816291195207873e+02 2.0126164442435567e+01 -1.7090152136839455e+02  2.4574032282179067e+02 -1.5451410009887516e+01 -1.2884430414778089e+02  2.5184390766928092e+02 -3.1205092060788324e+01 -1.2869687182511737e+02  2.4717797677376697e+02 -2.7828089977050819e+01 -1.3601818957976158e+02  2.5175728011164588e+02 -1.3580257500623803e+01 -1.3291081163411675e+02  2.4347830993818502e+02 -1.1049886717500055e+01 -1.4296347056909460e+02  2.4261295183941519e+02 -3.8941128096760873e+00 -1.3467162373918865e+02  2.4871557649661307e+02 -3.0962486549000992e+01 -1.1815117107212866e+02  2.4199427365893496e+02 -9.2197329246638390e+01 -3.2301188186039343e+02  2.7679577531229171e+02 -8.2016429340846866e+00 -2.8244299221058799e+02  2.9455977760376004e+02 -1.6839666946641799e+01 -2.6946490575623812e+02  2.6534104408755900e+02 -4.2699991441453790e+01 -2.6449331287174761e+02  2.8120653003617321e+02 -3.8011004093804182e+01 -3.4262396873023471e+02  3.0978061300054964e+02 5.1305975926563413e+01 -3.6958648531117524e+02  2.8935867001032767e+02 -2.6951089059397393e+01 -3.0474764245036567e+02  3.8246405600340148e+02 1.9750690309566313e+01 -3.1338735083209497e+02  2.7926397110969702e+02 4.9097362944456044e+01 -3.4469381171300171e+02  2.6468380279675068e+02 -4.3644982134702026e+01 -2.4184896959241721e+02  2.7854727193186613e+02 -6.8646950443594065e+01 -4.9135188189354189e+00  3.6468148841040238e+02 -3.8667761647725392e+01 1.5401681805179058e+02  2.4657140120459346e+02 1.6720514304937417e+01 3.1579216998264602e+01  4.1910851402682209e+02 -5.1866324847700490e+01 1.3593676384335533e+01  3.2078304690978587e+02 -2.2980657245927087e+01 -1.7168625419202070e+02  2.7362964310531913e+02 -8.3417435840234617e+00 -1.2644123038429122e+02  2.7163834395574150e+02 -1.8683426915051545e+01 -1.3203788747302605e+02  2.7821674411465460e+02 -4.2499828704547610e+01 -1.4852842320565276e+02  2.8552044099016570e+02 -2.8116649454897054e+01 -1.4581720918863414e+02  2.6352197980628245e+02 -3.5363036131338568e+01 -1.3578427982269116e+02  3.0366095841528829e+02 -5.0359566014216519e+01 -2.