<?xml version="1.0"?>
<VTKFile type="UnstructuredGrid"  version="0.1"  >
<UnstructuredGrid>
<Piece  NumberOfPoints="9253" NumberOfCells="43355">
<Points>
<DataArray  type="Float64"  NumberOfComponents="3"  format="ascii">35.53302001953125 22.1006908416748 36.4693489074707  35.42301438281459 22.55579142128677 35.89918206698702  35.11780999133509 22.18028120552749 35.88916276461886  35.25130913684291 22.38777689491958 36.22879670626925  35.70472526550293 22.26870536804199 36.13973426818848  35.57122611999512 22.0612096786499 35.80010032653809  35.39952087402344 21.89319515228271 36.12971496582031  35.26602172851562 21.68569946289062 35.79008102416992  35.87643051147461 22.43671989440918 35.81011962890625  34.96959825415456 22.67486294816436 35.9882445050678  34.09431838989258 33.36664962768555 38.1845588684082  34.36458151267784 32.9135972313608 38.41598377670804  34.13849584983605 32.83091748282564 38.09260426010648  34.06829588340538 33.12714207694185 38.46960888351956  34.39060401916504 33.15310478210449 38.13093376159668  34.16451835632324 33.07042503356934 37.80755424499512  34.23471832275391 32.77420043945312 37.43054962158203  34.4608039855957 32.85688018798828 37.75392913818359  34.6868896484375 32.93955993652344 38.07730865478516  34.04227337691819 32.88763452619816 38.75465889863092  34.28307470169612 21.92950712780127 36.17837222740703  34.75866514939469 22.32403129546408 36.55845819288812  34.41540337316547 21.95135338528253 36.65352205405775  34.33352939975453 22.59655652639286 36.7377932609268  34.62633647792534 22.30218503798282 36.08330836623742  34.67679117598374 22.9692344365744 36.64272939975719  34.38398409781292 23.26360592498445 37.29721429444657  34.46585807122387 22.61840278387412 37.21294308757751  34.54773204463482 21.9731996427638 37.12867188070845  33.72264099121094 20.21820068359375 33.88114166259766  33.56241788515285 20.8133501567498 34.03356072296612  34.10284614562988 20.62203502655029 34.01302528381348  33.84329605102539 20.32806015014648 34.26840019226074  33.96395111083984 20.43791961669922 34.65565872192383  33.6830729449673 20.92320962330253 34.42081925262921  34.22350120544434 20.73189449310303 34.40028381347656  34.48305130004883 21.02586936950684 34.1449089050293  33.94262303957179 21.21718449970634 34.16544434418194  33.40219477909476 21.40849962990584 34.18597978333459  34.11162948608398 23.60380935668945 33.38232040405273  34.56931713419286 23.30869295346239 33.59946559157849  34.53340911865234 23.31497478485107 33.20812034606934  34.13564491271973 23.14920425415039 33.25508499145508  34.15966033935547 22.69459915161133 33.12784957885742  34.5933325608286 22.85408785092333 33.47223017898084  34.55742454528809 22.86036968231201 33.08088493347168  34.9551887512207 23.0261402130127 33.03392028808594  34.99109676676122 23.01985838162402 33.42526553359509  35.02700478230173 23.01357655023534 33.81661077910425  35.51070022583008 22.77194023132324 36.94931030273438  35.02921613523245 22.37256993704352 37.03899109172141  35.24014923999232 22.7234015897438 36.46877740390109  34.30258722470238 23.16816368290029 34.7737503977398  34.02821147648312 24.15728277654295 35.45815664468871  33.80606873638679 23.74550292869165 34.80380704779911  33.96440575988639 23.37736593312064 35.35438067834714  34.36639294129911 23.94808052632261 34.87752636408137  34.43019865789584 24.72799736974492 34.98130233042293  33.86987445298352 24.52541977211396 34.90758301414067  33.62622429507039 23.58656818334098 35.93501095895449  33.4678872715708 23.954705178912 35.38443732840645  33.3095502480712 24.32284217448301 34.83386369785841  34.45948028564453 33.15428161621094 39.89208984375  34.25087683128136 33.02095807120455 39.32337437119046  34.73113059997559 33.0415210723877 39.63668060302734  34.61376571655273 33.23851585388184 39.41599464416504  34.76805114746094 33.32275009155273 38.93989944458008  34.52252714561241 32.9081975273813 39.0679651304678  34.40516226218956 33.10519230887544 38.8472791716055  34.88541603088379 33.12575531005859 39.16058540344238  35.00278091430664 32.92876052856445 39.38127136230469  33.40857769149315 24.99126551830503 34.75393698953375  33.48086538568467 24.98471481918926 35.32658795182859  32.30152130126953 28.32410049438477 38.87955093383789  32.40099275837544 28.99717683965615 38.97736805252512  32.59494590759277 28.5429105758667 38.61412048339844  32.28388595581055 28.62174034118652 38.58804130554199  32.26625061035156 28.91938018798828 38.29653167724609  32.69441736469869 29.21598692113808 38.71193760208566  32.38335741291646 29.29481668645791 38.68585842422922  32.57731056213379 28.84055042266846 38.32261085510254  32.88837051391602 28.76172065734863 38.34869003295898  32.50046421548136 29.67025318492753 39.07518517121234  33.93146896362305 22.24191093444824 38.17210006713867  34.23960050412893 22.10755528860602 37.65038597392356  34.15772653071798 22.75275842971634 37.73465718079262  34.43999481201172 22.46669006347656 37.97101593017578  34.94852066040039 22.69146919250488 37.76993179321289  34.7481263525176 22.33233441763434 37.44930183696067  33.28422164916992 23.777099609375 33.8743896484375  33.79760510437613 23.58462736065819 34.38048135642176  33.86153250449306 23.53356232070493 33.87347321946575  33.79955893271571 23.86140694045591 34.00655847032024  33.34424139260769 23.1724754098263 34.11522728368453  33.28226782083035 23.50032002957728 34.24831253453902  33.34619522094727 23.44925498962402 33.74130439758301  33.40816879272461 23.12141036987305 33.60821914672852  33.28031399249078 23.22354044977956 34.62223542064054  34.31489621626149 23.94571427153681 34.13872729220299  35.05992126464844 21.56187057495117 34.79158020019531  34.89224001597466 21.83994553825561 34.40072143358601  35.25606155395508 21.79347991943359 34.35090065002441  35.04711151123047 21.5347957611084 34.41684532165527  35.0343017578125 21.50772094726562 34.04211044311523  35.08838030528131 22.07155488273803 33.96004188341511  34.8794302625567 21.81287072441283 34.02598655504597  35.24325180053711 21.76640510559082 33.97616577148438  35.45220184326172 22.02508926391602 33.91022109985352  34.72455876730088 22.11802050156004 34.0098626669767  34.49201080744804 22.6714185187511 33.90966409702676  34.51357299600163 22.64309209223016 34.39180653235825  34.66479600350205 23.09087011656781 34.29518058842203  34.12980202864836 22.74871208508358 34.38823390634454  33.95701683259434 22.32926048726687 34.00271741494927  34.34078779994761 22.22364049441345 34.00629004096299  34.87578177480131 22.56579852589768 33.91323672304048  34.91177794278632 23.75311774478048 34.57268588008016  35.12116250787186 23.91508924291991 33.89387841194959  35.43976409546205 24.29068045476627 34.59157179811362  34.84288236893723 24.48327698152262 34.15761321023645  32.33542029258267 23.79023348429324 35.90096356963272  32.8440565757497 24.73864706134556 35.37978149867465  33.0023935992493 24.37051006577455 35.93035512922269  32.82248527032694 24.05653782938813 35.36741363374557  32.35699159800544 24.47234271625067 35.9133314345618  32.98082229382653 23.68840083381711 35.9179872642936  32.37856290342822 25.15445194820811 35.92569929949089  32.92136001586914 25.03126907348633 33.9727897644043  33.58977249238431 25.06901450552641 34.22842931968169  33.74344444274902 24.98925018310547 33.84758949279785  33.29664993286133 24.75480461120605 33.8778190612793  33.36815452575684 25.26571464538574 33.94256019592285  33.21448257539212 25.34547896780668 34.32340002280669  33.81494903564453 25.50016021728516 33.91233062744141  33.66127708527981 25.5799245397061 34.29317045432525  33.67193984985352 24.47834014892578 33.7828483581543  33.5076051349151 25.65968886212704 34.67401028120909  34.96411895751953 22.23369026184082 33.15407180786133  34.84433886241021 22.17585538170043 33.58196723741901  35.20816040039062 22.12938976287842 33.53214645385742  34.8887996673584 21.88212490081787 33.31294631958008  34.81348037719727 21.53055953979492 33.47182083129883  34.76901957224908 21.82429002067748 33.74084174913776  35.13284111022949 21.77782440185547 33.69102096557617  32.62414932250977 29.38343048095703 37.84259033203125  32.56230676899556 29.52684183294228 38.45888775162179  33.28532827303724 29.44820735969482 38.26284957419136  32.75625991821289 29.07257556915283 38.09564018249512  32.08364105224609 22.92193984985352 34.22145843505859  32.75782359370762 23.07943375418061 34.93224411497005  32.68197752236843 23.07274014981654 34.42184692784956  32.31977375218198 23.31809098151016 34.46620865889781  32.52169089377173 22.68328262252396 34.68749389113083  32.95974073529737 22.44462539519441 35.15352934720307  33.12002736389407 22.83408292248698 34.88788238392181  32.55590645211787 23.7142421131668 34.71095888273704  32.91811022230432 23.46889128147318 34.66659715168879  35.40390804605809 22.86853792416552 33.51233981338025  35.31370762186376 23.17989828335741 33.33764003005506  33.45497131347656 39.89572906494141 38.09474182128906  33.31501856042179 39.51581172572483 38.17603067596032  33.80083270985789 39.46334262244223 38.25727515554517  33.43345642089844 39.61771965026855 38.60458564758301  33.41194152832031 39.3397102355957 39.11442947387695  33.29350366784367 39.23780231105198 38.68587450225426  33.77931781727976 39.18533320776938 38.76711898183911  34.14669410623921 39.03095617994305 38.41980848980127  33.66087995680311 39.08342528322565 38.33856401021642  33.17506580736703 39.13589438650826 38.25731953063158  34.13248062133789 20.94796943664551 33.18051147460938  33.76733770021632 21.17823453327567 33.68324562897198  34.30776596069336 20.98691940307617 33.66271018981934  33.92756080627441 20.58308506011963 33.53082656860352  33.86402130126953 31.70121002197266 39.89208984375  34.01543137163114 31.42747186520884 38.99903608152823  33.89002384571533 32.03582539691294 39.16518785986248  33.54480302074023 31.88084419495493 39.5164907006981  33.67021054665602 31.27249066325083 39.35033892236386  33.22558474021093 32.0604783679372 39.14089155
[...]
<PointData  Vectors="u"> 
<DataArray  type="Float64"  Name="u"  NumberOfComponents="3" format="ascii">1.5069167046487209e+02 2.4354644098352034e+02 -1.1818034401920038e+02  2.1415386098767851e+02 2.2454467437872333e+02 -1.0231360619275694e+02  1.9193338694662717e+02 2.0943673518728488e+02 -8.8610107650559229e+01  1.8397667366398301e+02 2.1827261738776562e+02 -9.3430709057069251e+01  1.7331432428579771e+02 2.2858006938644320e+02 -1.2507198252437806e+02  2.0065932317344431e+02 2.2787684883678224e+02 -1.0341552692832053e+02  1.6453468983010612e+02 2.5442023577165048e+02 -1.1781419354996017e+02  1.6757244433552674e+02 2.2423829467480272e+02 -1.0509945128776387e+02  2.1990706481517591e+02 2.5444391208389044e+02 -1.4007284628514188e+02  2.0941563897346865e+02 1.9466244354369744e+02 -7.8685796761602944e+01  1.6493197871777693e+02 -1.5423010919528437e+02 -6.3590215714801609e+01  1.7625744847866210e+02 -1.4692301755175026e+02 -6.2235976804248416e+01  1.9715831481956684e+02 -1.4624580977527722e+02 -6.5502419824357048e+01  1.6935088950871196e+02 -1.4378840547222379e+02 -4.7550806295294443e+01  1.8187353646437478e+02 -1.4495577123823344e+02 -6.9133592432173273e+01  1.8828053110038448e+02 -1.3443910535503278e+02 -8.0337746807041924e+01  2.2384337947978727e+02 -1.6310173766058062e+02 -1.0319526881538768e+02  1.9280568655290671e+02 -1.7546657024206488e+02 -8.9190070914983224e+01  1.5529858622606409e+02 -1.6727194961558635e+02 -8.4394115110742874e+01  1.7316044405843053e+02 -1.3579534609855210e+02 -3.8945300086093745e+01  1.6456560159837815e+02 1.6925053191320279e+02 -5.3006690623958264e+01  1.6222969398175661e+02 1.9334877994504026e+02 -6.3202506682803190e+01  1.4709304252431357e+02 1.7585214706767817e+02 -5.1508897053924812e+01  1.7998559526902949e+02 1.7093603223870053e+02 -4.0512472554766269e+01  1.8527147201283262e+02 1.8340379917878869e+02 -6.5696606315159258e+01  2.0034249881028026e+02 1.8225503077260160e+02 -4.8527185758046734e+01  2.0446335607857836e+02 1.5801020126947083e+02 -1.1828781660435450e+01  1.6221047742456895e+02 1.8626411625068789e+02 -2.4581136575735133e+01  1.2801494236092253e+02 1.8788700320791503e+02 -4.4247032272282119e+01  1.0018360846030768e+02 1.3634751075385822e+02 -2.7469477428391478e+01  1.3813083104139400e+02 1.4413367052709339e+02 -2.4543197042125858e+01  1.4600418918152096e+02 1.6056870505448754e+02 -1.4085138870442986e+01  1.2637423926563345e+02 1.6053472192585266e+02 -3.5709898462328660e+01  1.3101648514090095e+02 1.6672283487922832e+02 -4.2235358920100580e+01  1.4848311969013287e+02 1.4936356803218476e+02 -3.3944220804736553e+01  1.5731114828322592e+02 1.6603592916433902e+02 -3.0813168606259268e+01  1.7856625261422587e+02 1.8715062951757662e+02 -2.3179051497492161e+01  1.6364444459305574e+02 1.6529390480087940e+02 -2.5795194398681772e+01  1.6417991423043875e+02 1.4711081735742360e+02 -3.7578148059033261e+01  2.7110529127517378e+02 1.9207043122191851e+02 -8.9415872565070515e+01  2.9411284979275734e+02 1.9949865796524807e+02 -7.8004817498124140e+01  3.3037437978944365e+02 2.5062357517148362e+02 -7.0937935399085660e+01  2.4007990721276235e+02 1.9741098879651912e+02 -2.5523144276783377e+01  2.3680656860571142e+02 2.1939895465991356e+02 -8.1726812607254811e+00  2.8170170259877210e+02 2.1781262611010331e+02 -5.2157404640749064e+01  3.0791789183706669e+02 2.1437938151060357e+02 -1.8887736427027033e+01  3.4019957579235415e+02 2.8102538099545285e+02 -7.2083805803141729e+01  3.2124387695756900e+02 2.3588225579005439e+02 -7.8514771398957393e+01  3.0675053878985182e+02 2.1232195186568717e+02 -8.6895884657711349e+01  1.7047196195276695e+02 2.6113227748501515e+02 -9.6137490462520617e+01  1.2527163024323212e+02 2.1340515674775088e+02 -7.0632006461057912e+01  1.9356325278779374e+02 2.2014707079921223e+02 -8.3608875871848426e+01  2.5295345945838366e+02 1.5622859431541238e+02 -7.0332150816889566e+01  2.6794267290759183e+02 1.2123860732386045e+02 -5.8909981038865986e+01  2.6708681025889604e+02 1.2329037433421892e+02 -6.6082220000146009e+01  2.4590442217664651e+02 1.3600730346671159e+02 -5.7999584117797028e+01  2.7353971497403671e+02 1.3445618520702669e+02 -7.5946625298806794e+01  2.8527199400761646e+02 1.2219001925488514e+02 -7.5422833110048089e+01  2.8986521986887772e+02 1.1205233647978143e+02 -6.5749636807237295e+01  2.4177904137276448e+02 1.1919599335085773e+02 -4.1294147422981489e+01  2.6505627201280174e+02 1.0589360296538838e+02 -4.8788830290953456e+01  2.9130658997351730e+02 9.4639615256587788e+01 -5.4742812673785359e+01  1.1001631397735640e+02 -1.3614131901069018e+02 -2.0918040998823750e+00  1.5207689567288242e+02 -1.3982162954399439e+02 -2.1032656246912648e+01  1.2796483906165948e+02 -1.2772427179566075e+02 -5.3425530626736474e+01  1.5181951662882497e+02 -1.8111315048172915e+02 -3.0172720654458324e+01  1.4025157998076003e+02 -1.8255417559711179e+02 -5.1423601575774732e+01  1.5537654793094916e+02 -1.5115932670860661e+02 -3.6881761513509154e+01  1.5664486564803411e+02 -1.5386117449796166e+02 -4.3504895473501051e+01  1.5298918951492860e+02 -1.4307600554999325e+02 -1.5700120934398560e+01  1.3318191575986907e+02 -1.3903950409818631e+02 -5.8772708254615949e+01  3.1484021990686784e+02 9.9442545445971817e+01 -5.5059071619565636e+01  3.0067433724578513e+02 1.0529585805121121e+02 -4.9634873584284598e+01  5.4972725360649031e+02 9.6127869979655102e+01 3.6906267671596581e+01  3.7308468319641651e+02 -1.6092742687811498e+01 1.3764096937373790e+01  4.7460945124073908e+02 -1.1556777666115637e+02 -5.6735072905522557e+01  5.5195589453779303e+02 9.0670434744982131e+01 7.6986910419075144e+01  4.3757066048221958e+02 6.1070038079938975e+01 5.5039426710307900e+01  3.5169057775362796e+02 -4.1194511679801501e+01 -1.9205757011210615e+01  3.3772216784606576e+02 -1.0316447188840023e+01 1.1751382560341699e+00  4.8028520625110275e+02 -3.8620281864343511e+01 -1.4477941095316496e+01  3.9875048186485674e+02 -1.0409405605582468e+02 -8.8804831224383321e+01  2.9808685799280136e+02 -2.4257835060005362e+01 -3.2215032906969192e+00  1.7527618669933423e+02 2.1333536024502249e+02 1.0427659848267110e+01  1.3455269114244948e+02 1.9016602357252486e+02 -2.6542783920706359e+01  1.8770424122274028e+02 1.8108895900463901e+02 2.3995205272123869e+01  1.5171697652425496e+02 2.6405220383162958e+02 4.5519765941531688e+01  1.3454753083789601e+02 2.5443413213106123e+02 6.2380875923091047e+01  1.1690606956148133e+02 2.1658944236763148e+02 -3.6362483327967595e+01  2.9671408045489983e+02 1.0265255340300003e+02 -9.1794773992507785e+01  2.6685721330341721e+02 1.3024383534965665e+02 -7.5090409556731558e+01  2.6627687607868660e+02 1.5291866485770578e+02 -8.7462405887646767e+01  2.7735427310646247e+02 1.2973415797377402e+02 -1.0077419482177780e+02  2.4132732656218923e+02 1.2264799260355929e+02 -7.0516630767875142e+01  2.6298968121528492e+02 1.0738510880298524e+02 -6.9662216742092852e+01  2.6970791120572579e+02 1.2946820312331604e+02 -8.6855119012843758e+01  2.3300308013044506e+02 1.4569628268659878e+02 -6.9705066572015923e+01  2.4469518515752131e+02 1.1225855499445302e+02 -6.0453800137558254e+01  2.8626958060839820e+02 1.4173327518467767e+02 -9.0688283344481064e+01  1.9813963649362424e+02 2.1040814866888402e+02 -6.3424462002230811e+01  2.1037322957911718e+02 2.0956018972141857e+02 -4.8677574230185840e+01  2.1580238940896348e+02 2.4850820417756481e+02 -4.0312735788824760e+01  1.8633550633636094e+02 1.8883343983549668e+02 -4.5924000041885613e+01  1.8705078305881540e+02 1.9273694581678103e+02 -2.8725469423192774e+01  2.4084897004168874e+02 2.5564923463728528e+02 -3.4637317531143708e+01  2.1054052523627516e+02 2.1755520062477868e+02 -3.2880458777833852e+01  2.0491408289637457e+02 2.5674198611419598e+02 -2.1875937597001400e+01  2.7557557517769789e+02 2.8451083596026626e+02 -4.9292605124168091e+01  2.3076685189673475e+02 2.1484606017387935e+02 -4.0062100831291218e+01  2.5298570646025004e+02 1.9951622909195419e+02 -5.4807791929206068e+01  2.4334247744390615e+02 1.8517244140055243e+02 -6.1701616097654750e+01  2.6846026821909794e+02 1.8053121511968934e+02 -7.5074255939388522e+01  2.3608897733932551e+02 1.6627679672155125e+02 -6.0134158219217930e+01  2.1145902243041323e+02 1.7433790795535347e+02 -4.2038126229511128e+01  2.2038368632017787e+02 1.9463271120765330e+02 -3.8619920937704215e+01  2.6962921605784754e+02 2.2460267561976366e+02 -6.1329368341558336e+01  2.8516206317177335e+02 1.5228230768087238e+02 -9.2437767568774333e+01  3.0769529664255265e+02 1.4827830913580203e+02 -1.1073814677111842e+02  2.9109844887082801e+02 1.3054582729041013e+02 -9.9776690696398944e+01  2.9517907044845418e+02 1.2930048718848616e+02 -1.0219367222077649e+02  2.5112860486571080e+02 6.6673924837857058e+01 -2.2268269168582972e+01  3.0082504786593853e+02 7.6927996203092050e+01 -3.4758719108748465e+01  2.7238285862244874e+02 8.5690236573154735e+01 -3.1799290199660120e+01  2.7129483724439041e+02 7.9386482364807605e+01 -3.6817810877910411e+01  2.7898812596009890e+02 5.3553673599990695e+01 -2.0617707186395286e+01  2.4748368511830250e+02 9.2570771367817500e+01 -3.1997526434691629e+01  3.1978644688520711e+02 4.6195118447636297e+01 -2.1926966438908952e+01  3.5500949199230928e+02 7.5451079417165033e+01 -3.5574702164158147e+01  3.3535051800442943e+02 9.7765934977021615e+01 -5.4965493778156116e+01  3.5984332591556279e+02 9.7755252628129384e+01 -8.9246656507124811e+01  3.3127462451818508e+02 6.3679722208226217e+01 -4.7839635317594357e+01  3.4831878700405485e+02 9.1670272710468453e+01 -3.0951190259420180e+01  3.3850890241491231e+02 1.0251070369866351e+02 -4.3383253903643364e+01  3.6208750806510022e+02 1.0124529481219861e+02 -8.3218716534565999e+01  3.3843101187117708e+02 1.0747603747378916e+02 -5.1939220409907627e+01  3.3270677251807950e+02 8.8303167095533368e+01 -1.0460590435473679e+02  3.2427383069122584e+02 1.1807102176780369e+02 -5.2540386566934686e+01  2.9637443658671884e+02 2.8571227733564211e+02 -1.4032942267026463e+01  2.3777715015234338e+02 2.5765701125432707e+02 -1.6604142366144664e+01  2.7451535496557926e+02 3.2472187451926641e+02 -2.5556375077510364e+01  1.6941161283306812e+02 2.5649126358598147e+02 -9.7534201177503110e+00  1.8859925388232463e+02 2.0877883165374249e+02 1.9339565993688986e+01  2.0108947415351875e+02 2.1712243879106185e+02 -5.1965320945718361e+00  1.9099646006594398e+02 2.4698902408408676e+02 2.9692212416318913e+01  4.3571076455406569e+02 -5.3408851945370344e+01 -4.8586831345622421e+01  3.4454962702837327e+02 -2.7424167771070934e+01 -9.2883708553526834e+00  3.0753241787508381e+02 -9.1127042755852202e+01 -7.9681847511326794e+01  4.5450998523353866e+02 -1.0391712982257781e+02 -1.0687483372872455e+02  2.2921760369665577e+02 4.2791622634044003e+01 -8.8660179545601196e+01  2.3490707064012702e+02 9.2722452536990502e+01 -4.9553178135311249e+01  2.3549280609010339e+02 8.2257980336141856e+01 -6.9807515656523591e+01  2.5177269994956310e+02 5.5248569168124511e+01 -5.7576702248350855e+01  2.1787091835319723e+02 9.0159738234723278e+01 -6.1338237407752189e+01  2.0792813208133532e+02 1.1237152241677464e+02 -4.6202873518437180e+01  2.2436357606127839e+02 1.1261440423509633e+02 -5.4049587528228869e+01  2.6786928205319441e+02 6.4841362589383621e+01 -4.4776157911921295e+01  2.5749276765175773e+02 8.7534242030053761e+01 -5.4565390894768690e+01  3.5839000826667376e+02 2.6069702372016104e+02 -9.6152434799489313e+01  3.6528573353978680e+02 2.2776135559016757e+02 -1.1573736393803703e+02  5.8333354483383346e+02 -6.6065303177276860e+01 7.6888493991740006e+01  5.4048394349255204e+02 -2.5382977825262376e+01 2.3977770147255764e+01  6.2037737550310032e+02 -1.7322679885702826e+01 5.2216304880475548e+01  6.3792454788869100e+02 -3.7070321819475637e+01 -8.0805949573549221e+00  5.7169925540063514e+02 6.0511263084742488e+00 -3.2060371795421460e+01  5.1428614520459143e+02 -1.9588920173485377e+01 -5.9843569672926593e+00  5.6089619491217491e+02 5.6026394451733189e+01 -7.2891998120696364e+00  5.7887713350867762e+02 3.7537949100887644e+01 -7.1494434652100438e+01  5.8859700863181274e+02 4.3869542207339862e+01 -1.5003842855354371e+01  4.9782013406252258e+02 2.5256999390300610e+01 4.5297366341289781e+01  1.3076664967638280e+02 1.9511165842380186e+02 7.8007972638653342e+01  1.5034116733832386e+02 1.6102447962641702e+02 -5.8646592060062597e+00  1.7546562894416016e+02 1.8132695442090017e+02 1.9069952209608818e+00  1.0676897392296785e+02 1.6108542965966470e+02 2.1712129523918783e+01  1.9930350738618753e+02 -1.0331921844266762e+02 5.9187852487776016e-01  2.1552573554774864e+02 -1.0339986021634482e+02 -3.9771095378906999e+01  1.9702535471059070e+02 -1.1424154048470001e+02 -2.6412606077506840e+01  2.0005098670837759e+02 -9.8645550796758485e+01 -1.0264295287243277e+01  2.1782142185602191e+02 -9.0235283511151792e+01 -1.9611280561680800e+01  2.0287848627686299e+02 -9.3993149532039283e+01 -1.3777707734010354e+01  2.2445464775175196e+02 -8.6904445697331738e+01 -2.5229527653114349e+01  2.4456115971357227e+02 -8.0082405978559351e+01 -3.7398452533490264e+01  2.6566787918453167e+02 1.6316012754613993e+02 -1.1124118839233468e+02  2.5213722457330115e+02 1.7189672972132249e+02 -8.1060875693512074e+01  2.7946315237282306e+02 1.5622092464704735e+02 -9.8550145729002551e+01  3.1376971336804763e+02 -1.6247148992455419e+02 1.9622744258489835e+01  2.7964951349174260e+02 -1.2671571470375061e+02 -5.0950637389998171e+01  2.8602556637988499e+02 -1.3912476654244463e+02 -6.5768560531265464e+01  3.2133316859176404e+02 -1.3934361347213203e+02 -4.4049209197268475e+01  2.9887550614293343e+02 -1.6760425887883650e+02 -1.4817101821874010e+01  2.6750444398806121e+02 -1.2352141008408375e+02 -1.4649840903845361e+01  2.6576626854059845e+02 -1.4904902633944147e+02 -2.5093205130950725e+01  2.4901518767401038e+02 -1.2725559088239292e+02 -2.7763943153207677e+01  3.2810484502875119e+02 -1.4421898933404481e+02 -8.2047325175381417e+01  2.4439258726875823e+02 -1.1022660942707603e+02 -2.4266840046864534e+01  2.8768842847257105e+02 1.7159582861118147e+02 -8.9463487463561179e+01  2.9817761464555014e+02 1.5935672645636600e+02 -1.0868784254591804e+02  2.1528447907227471e+02 -1.1459982801922243e+02 -4.6609324765772982e+01  2.1853163747151206e+02 1.4480182535904544e+02 -5.2317225147877593e+01  2.0652389760426973e+02 1.4604244443025760e+02 -4.6916772274447965e+01  2.2648479074397156e+02 1.1573996749433404e+02 -4.3852825946614580e+01  1.9109181950158978e+02 1.3924718517077315e+02 -4.4185156319398196e+01  1.9760206712354071e+02 1.4105126689988208e+02 -4.8849162080587163e+01  1.7979530970284901e+02 1.6974321256857650e+02 -5.7905522581347959e+01  1.9227516207339670e+02 1.7071486592286936e+02 -5.5786999881445702e+01  2.1993075406468660e+02 -8.1147501922270791e+01 -7.1443120502808521e-01  2.2760862363678689e+02 -7.9380566070643496e+01 -1.7893953315371455e+01  2.1114550522983686e+02 -8.7337536605709104e+01 -9.9875946616050086e+00  2.1042290795355922e+02 -9.1675425227288954e+01 5.3565931326147986e-01  1.6841498762010417e+02 2.5716733410970784e+02 -1.0876414601036868e+02  2.0892268890090514e+02 2.6499266667198992e+02 -9.3284635446679317e+01  1.5367581460439519e+02 2.5499223259071516e+02 -1.2086677972860966e+02  2.0777605277497946e+02 2.2980005995595235e+02 -9.6937328334909594e+01  2.0930100486719542e+02 2.6762521859184523e+02 -1.1378217171350261e+02  3.1309075794489365e+02 -9.3939083137335871e+01 -3.0787055798539839e+01  3.2157229040294430e+02 9.9579285640775950e+01 -6.2464207772301179e+01  2.9486025604180224e+02 -6.6215822367087924e+01 -4.4069044900849946e+01  2.3917408291957139e+02 2.1862980589496738e+02 -2.1195453020650831e+01  2.2420272468715126e+02 1.9329559273460356e+02 -3.0179659169400114e+01  3.2786735785882325e+02 5.4243188172739750e+01 -2.8603032051735472e+01  3.2320177857713225e+02 9.8530462135117531e+01 -4.3351449561538232e+01  3.3768734159614502e+02 6.3543842225203420e+01 -3.1070761264085803e+01  3.1157930003477628e+02 7.9606073828241449e+01 -4.2568012828737842e+01  2.0437926873917058e+02 1.8703758800207387e+02 -2.9759226292363696e+01  1.8341322209746286e+02 1.7876510668062863e+02 -4.7459881422604418e+01  1.9880093166063375e+02 1.9265278627774202e+02 -5.9864439901983786e+01  2.1248899855393060e+02 1.8813438058330499e+02 -5.2661315083384601e+01  1.9554121433196670e+02 1.9049556469029284e+02 -6.1467526195700110e+01  2.6969995611537865e+02 1.0049030578896398e+02 -5.7979355765335342e+01  2.9253278173571357e+02 9.4558303630386547e+01 -6.8118887466479080e+01  2.8107801498716532e+02 7.8109112690339003e+01 -5.8386660814571513e+01  2.8290155483502508e+02 8.1456305783044769e+01 -4.7275444302161347e+01  1.6068315121009178e+02 -1.5452844363073791e+02 -5.3428142030956252e+01  1.4117156659775000e+02 -1.4108601533561745e+02 -6.8289999138471899e+01  1.2175956781265675e+02 -1.6071358399350612e+02 -4.7337542288646084e+01  1.4124483580135038e+02 -1.7828046928200229e+02 -7.0834316659371922e+01  1.3468208873792153e+02 -1.8487450659650045e+02 -6.0775804608741538e+01  3.3774955603937610e+02 1.0179381457151386e+02 -4.3526306660369812e+01  3.7334316072192911e+02 8.8574224757449642e+01 -4.4758723515518064e+01  2.4933829172506725e+02 -1.3511637960681242e+02 -6.0151415849857663e+01  2.8869714316483152e+02 -1.5513806481724782e+02 -1.0814786940437035e+02  2.4802706183132133e+02 -1.3112225901052099e+02 -7.0745969332092628e+01  1.6945161513414118e+02 1.2501698357587115e+02 -2.1623086171167817e+01  2.0522136516179754e+02 1.2532340103725035e+02 -2.9604613483275585e+01  1.8669842429140016e+02 1.4886819063111326e+02 -1.3981058737528279e+01  1.6474306808137197e+02 1.4474605929588114e+02 -3.4052362358635271e+01  2.2367838650929451e+02 1.3734398853958751e+02 -3.2860132224829186e+01  1.9116459487040629e+02 1.8098165747036694e+02 -2.9436103518952997e+01  2.1165348223098422e+02 1.8627768470430647e+02 -3.6489312655436716e+00  2.0946695202790843e+02 2.0103228352179818e+02 -1.8008507169055374e+01  1.5520473032604613e+02 1.5532445609283894e+02 -2.8450965661234687e+01  2.1766731887679697e+02 -8.9984822294768506e+01 -2.5172187126658415e+01  2.1239762111277406e+02 -9.1603220190998158e+01 2.0605179998674764e-01  2.5481770954667891e+02 9.6441688449576290e+01 -4.4544541871397989e+01  2.5022220559099165e+02 8.6690802954203718e+01 -4.2293584991187508e+01  2.5907745357658860e+02 6.7873270359854203e+01 -3.2925132077974190e+01  2.4538504795942154e+02 1.1497642465453944e+02 -5.1047813580404714e+01  1.3935607341015179e+02 1.5550232136503766e+02 -5.9643026367097470e+01  1.6705180873143917e+02 1.7368933013156260e+02 -8.0634656596162806e+00  1.6174412075236231e+02 1.6212932179796078e+02 -2.9984039830958878e+01  1.5799862399623657e+02 1.4904812898714084e+02 -4.0045509189786998e+01  1.3350818718685912e+02 1.6785379153426288e+02 -4.3124077673452625e+01  1.3889313199359796e+02 1.7476457326615835e+02 1.9933012635734030e+01  1.5908784811689674e+02 1.7491349375603269e+02 -9.6857413569057407e+00  1.9723359694538607e+02 2.1597391149420409e+02 3.0281810008686257e+01  1.8934652247093578e+02 2.1295303728555663e+02 4.4958831788307613e+01  2.8681928969128006e+02 1.1655979889975784e+02 -7.5188358943337050e+01  2.9374024046935392e+02 1.2281063721380593e+02 -1.0605917954677133e+02  3.2235397880327332e+02 9.0654858004039312e+01 -1.1382982745429919e+02  3.0826703738879422e+02 9.5189630056417883e+01 -6.8538562164408987e+01  3.5503875633674483e+02 9.8626121388607203e+01 -3.6980718695414915e+01  3.4232574679433907e+02 7.8387888753855322e+01 -3.3125533477748405e+01  3.5548191793330915e+02 1.0076055965567298e+02 -3.4752653659535760e+01  3.3651297227640600e+02 1.4176905786673697e+02 -2.8808974700936641e+01  3.3191477254712339e+02 1.2577598325042884e+02 -4.1573065874628490e+01  2.8578597545314778e+02 1.1943342948334210e+02 -1.2964103035670908e+02  2.7207447282557524e+02 1.4077490901374438e+02 -1.3584090175972946e+02  2.8867986772118530e+02 1.4177777590854402e+02 -1.0923152879402915e+02  2.7303612389422074e+02 1.6191926060025622e+02 -1.1459716010944258e+02  2.8994696212126968e+02 1.3578804421020564e+02 -1.1138311305461978e+02  2.0790935840801347e+02 -1.2813615818652787e+