<?xml version="1.0"?>
<VTKFile type="UnstructuredGrid"  version="0.1"  >
<UnstructuredGrid>
<Piece  NumberOfPoints="9006" NumberOfCells="41972">
<Points>
<DataArray  type="Float64"  NumberOfComponents="3"  format="ascii">26.3107795715332 2.891041994094849 33.58572006225586  26.66997814567355 3.137974509325426 33.78266766005977  26.43105793388156 2.851609477129381 34.04260685378535  26.2746181526926 3.18396747979204 33.73589184218867  26.70613956451416 2.845049023628235 33.63249588012695  26.46721935272217 2.55868399143219 33.89243507385254  26.62365913391113 2.226325988769531 34.19915008544922  26.86257934570312 2.512691020965576 33.93921089172363  27.10149955749512 2.799056053161621 33.67927169799805  26.23845673385199 3.476892965489231 33.88606362212148  27.9859504699707 6.937576770782471 34.44842147827148  27.30579787946648 6.647991654221384 34.90232427297379  27.74267409604397 6.489069319468566 34.75602222781979  27.62771595590243 6.703076192059953 34.34993811951828  27.66403239353475 6.882492232943901 35.00080763172699  27.3421143170988 6.827407695105331 35.55319378518249  27.42075601960802 6.433984781629997 35.3084083812753  27.26948144183415 6.468575613337436 34.25145476076509  27.38443958197569 6.254568740746049 34.6575388690666  27.49939772211724 6.040561868154662 35.0636229773681  19.91542053222656 10.74433040618896 38.49259948730469  20.97781631389136 10.4883934265134 38.07549117390619  20.37969344639418 10.27986983503281 37.77012010286747  20.3643488266432 10.72320298398911 37.92256494234501  20.5442326392257 10.06618769975696 38.49308087938832  20.52888801947472 10.50952084871326 38.64552571886586  19.93076515197754 10.30099725723267 38.34015464782715  19.94610977172852 9.857664108276367 38.18770980834961  21.14235550672289 10.27471129123756 38.79845195042704  20.81327712105984 10.70207556178925 37.35253039738533  25.08498954772949 0.463454008102417 38.83377838134766  25.41126321160587 0.9165927419266862 38.29355655991743  25.59077112553878 0.4839503187794916 38.42308795272275  25.44905607579513 0.6678848210830919 38.70744120894833  25.18891173328388 0.528227426642411 38.13554047609118  25.04719668354023 0.7121619289460113 38.41989373231677  25.22670459747314 0.2795195057988167 38.54942512512207  25.3684196472168 0.09558500349521637 38.26507186889648  25.00940381935096 0.9608698497896054 38.00600908328587  25.81312260386077 0.8723156340637668 38.58110403654901  24.11541938781738 5.194726943969727 31.59728050231934  24.4621696472168 4.65106201171875 31.71627998352051  24.35771942138672 4.849217414855957 31.39697551727295  24.07438945770264 4.784436941146851 31.75950527191162  24.03335952758789 4.374146938323975 31.92173004150391  24.42113971710205 4.240772008895874 31.87850475311279  24.31668949127197 4.438927412033081 31.55920028686523  24.60001945495605 4.503707885742188 31.19667053222656  24.70446968078613 4.30555248260498 31.51597499847412  24.80891990661621 4.107397079467773 31.83527946472168  20.09869956970215 9.995880126953125 39.02400970458984  20.5449753108858 9.444877641394864 38.69925148854837  20.42407992514361 9.731177823737394 38.52874596486673  20.05243968963623 9.596890926361084 38.89620971679688  20.21959495544434 9.709579944610596 39.19451522827148  20.00617980957031 9.197901725769043 38.76840972900391  20.37782004507769 9.332188623145353 38.40094597707376  20.17333507537842 9.310590744018555 39.06671524047852  20.34049034118652 9.423279762268066 39.36502075195312  20.74946028058507 9.466475520521664 38.03348222514362  27.72801971435547 0.6290249824523926 36.74245834350586  27.54919752488086 1.567983970635634 37.17196897689837  28.18730867133656 1.167082087945452 37.12164447480296  27.59532410383655 0.9503590532562424 37.36520373366332  27.68189313539978 1.246649899831784 36.54922358674091  27.63576655644409 1.864274817211176 36.35598882997595  28.14118209238087 1.784707005324843 36.928409718038  27.46262849331762 1.271693124060092 37.98794912382079  28.05461306081764 1.488416158749302 37.74438986496043  28.64659762831765 1.705139193438511 37.50083060610005  30.20601081848145 3.667572975158691 39.89208984375  30.18516256409522 3.230658379562578 39.53790067642785  30.05774786072608 3.710095373161516 39.53790067642785  30.58447437803837 3.357167618292625 39.44669470904188  30.33342552185059 3.188135981559753 39.89208984375  30.46084022521973 2.708698987960815 39.89208984375  30.71188908140751 2.877730624693687 39.44669470904188  30.9629379375953 3.046762261426558 39.00129957433376  30.43621142028301 3.399690016295449 39.09250554171973  29.90948490297071 3.75261777116434 39.18371150910571  23.58745956420898 1.665483951568604 39.89208984375  23.51887584616937 1.137216197539682 39.4959331475338  23.48085975646973 0.9986625015735626 39.89208984375  23.78114986419678 1.323159486055374 39.89208984375  23.81916595389642 1.461713182021494 39.4959331475338  23.28716945648193 1.340986967086792 39.89208984375  22.98687934875488 1.01648998260498 39.89208984375  23.97484016418457 0.9808350205421448 39.89208984375  24.01285625388421 1.119388716508265 39.4959331475338  24.05087234358385 1.257942412474385 39.09977645131762  26.75262773464858 2.716748673128913 34.88231105050889  27.03523913662568 2.421007053847003 34.45586395033642  26.84106759334002 2.919863336235057 34.39183610306029  26.34104773193403 2.522067608051442 34.62559718562169  27.0584760527689 3.613400683700582 34.58452212067137  27.25264759605457 3.114544401312528 34.64854996794749  26.55845619136291 3.215604955516967 34.81828320323277  26.05843632995692 2.817809227333353 35.05204428579417  27.44681913934024 2.615688118924474 34.71257781522362  25.85177420339728 0.4412332022769766 38.09525103060088  25.73736476898193 0.09558500349521637 38.34970664978027  26.10630989074707 0.09558500349521637 38.43434143066406  25.95971624730392 0.4839503187794916 38.50772273360653  26.22071932516242 0.4412332022769766 38.17988581148467  26.33512875957777 0.7868814010587368 37.92543019230526  26.07412568171927 0.8295985175612518 38.25326711442713  21.51262092590332 5.695673942565918 39.89208984375  21.31931591380886 5.446453979054415 39.51974719865302  20.96097088207058 5.574310472050631 39.51974719865302  21.26185608257107 5.797569921055758 39.51974719865302  21.26919555664062 5.121298551559448 39.89208984375  21.57008075714111 5.344558000564575 39.89208984375  21.21173572540283 5.472414493560791 39.89208984375  20.91085052490234 5.249155044555664 39.89208984375  21.62754058837891 4.993442058563232 39.89208984375  21.01109123923882 5.899465899545598 39.14740455355605  26.85506057739258 10.34403991699219 33.5671501159668  27.53012656259295 9.945026596333632 34.02799543658533  27.47153566422165 10.39805573236426 34.30382963111209  27.3548285377093 10.38023601410438 33.68180073061782  27.03035860227622 9.908830499221438 33.91334482193431  26.97176770390493 10.36185963525206 34.18917901646108  27.08847483041728 10.37967935351194 34.81120791695535  27.14706572878858 9.926650217481313 34.53537372242859  27.20565662715987 9.473621081450689 34.25953952790182  27.85459649802603 10.41643211121657 33.79645134526884  21.08602310276856 7.16111487369607 39.09187588682712  22.0171822726357 7.293482780756726 38.88256271753062  21.57780369031313 7.284157450899102 38.58557520113545  21.58241468590209 7.58024601408942 39.05342921798279  21.52079068950217 6.874351640363376 38.92100938637495  21.95555827623578 6.587588407030682 38.75014288592277  22.01257127704674 6.997394217566409 38.41470870068328  22.07880626903563 7.99937715448277 39.01498254913846  22.07419527344667 7.703288591292452 38.54712853229112  22.0695842778577 7.407200028102135 38.07927451544378  22.85635948181152 11.21975040435791 36.02085113525391  23.53029978294855 10.85525913972302 36.27618753323623  23.42589437981135 11.27246447343273 36.29275285611221  23.31278984776893 10.72371294887894 36.5663504821774  22.96076488494873 10.80254507064819 36.00428581237793  23.06517028808594 10.38533973693848 35.98772048950195  23.41719525090613 10.30650761516922 36.54978515930142  23.76922021372633 10.22767549339997 37.11184982910089  23.88232474576875 10.77642701795376 36.8382522030357  23.99542927781117 11.32517854250756 36.56465457697051  22.89797019958496 10.33263969421387 39.89208984375  23.33815279558123 10.62672116125126 39.46147257463338  23.14530452843989 10.1168171226173 39.3316267198168  23.28916549682617 10.2814998626709 39.89208984375  23.68036079406738 10.23036003112793 39.89208984375  23.72934809282244 10.5755813297083 39.46147257463338  23.5364998256811 10.06567729107433 39.3316267198168  23.39263885729481 9.900994551020734 38.77116359588359  23.58548712443616 10.4108985896547 38.90100945070017  23.7783353915775 10.92080262828866 39.03085530551676  29.94132995605469 3.457508087158203 36.40721893310547  29.82949074143963 3.062178893828519 36.77016540478018  29.82895469665527 2.832816004753113 36.3636360168457  29.69751556748943 3.285780473494657 36.6229791254833  30.07330513000488 3.233906507492065 36.55440521240234  29.69697952270508 3.05641758441925 36.21644973754883  29.45262908935547 2.655327081680298 36.02568054199219  29.45316513413982 2.884689970755705 36.43220992992666  30.20528030395508 3.010304927825928 36.70159149169922  29.45370117892418 3.114052859831111 36.83873931786114  23.89813995361328 8.669515609741211 35.17023086547852  24.39807216059017 8.163246474922019 35.38685387475545  24.10218789903175 8.730080585741652 35.37260024261058  23.83080217540999 8.330128332881623 35.65758440132517  24.19402421517171 8.102681498921578 35.18448449762337  23.7634643972067 7.990741056022034 36.14493793717183  24.12668643696842 7.76329422206199 35.67183803347004  24.03485012082846 8.390693308882064 35.85995377845724  24.48990847673014 7.535847388101946 35.19873812976824  24.30623584445021 8.790645561742092 35.57496961974265  29.4196605682373 2.457282066345215 39.89208984375  29.06498715695269 2.111306731008295 38.86505756288193  28.91870878431639 2.509379633510784 39.416740168437  29.58251808784216 2.
[...]
<PointData  Vectors="u"> 
<DataArray  type="Float64"  Name="u"  NumberOfComponents="3" format="ascii">3.2912495495665979e+01 5.7070621760568407e+01 -5.7259390977240130e+01  2.6048119813757530e+01 5.6260774919713555e+01 -5.7276622257068347e+01  3.0842992010836213e+01 5.0734470169983879e+01 -4.9293148161499978e+01  3.4972859390936662e+01 5.5900717649277894e+01 -5.8946959954512621e+01  2.4404469553931737e+01 5.7814185893396981e+01 -5.6217307062350699e+01  2.8865409781172211e+01 4.9467754540279920e+01 -4.5823681229275813e+01  2.6610477086774669e+01 4.1378314178266770e+01 -3.9906238395593853e+01  1.9953376484360689e+01 4.7393860503265813e+01 -4.4898003285163327e+01  1.4217616164048541e+01 5.8174608220723094e+01 -5.2926072180668029e+01  3.7225081750077067e+01 5.4324481911478216e+01 -6.0791419126720847e+01  -9.4860719669784146e+00 9.7999393933032508e+01 -5.8155072080714902e+01  1.5932746178804084e+01 9.0707709276128426e+01 -4.3720027093590623e+01  -9.1943958794655933e-01 8.7635430685266897e+01 -5.1218620333457416e+01  7.6011315220201148e+00 8.8937115366354902e+01 -5.6609022810596336e+01  -5.6042349523565071e-01 9.8232946915335674e+01 -4.2157578062628062e+01  1.3082454972662424e+01 9.8846348019792714e+01 -3.0690189764651265e+01  8.0313563574763727e+00 8.8587672106615599e+01 -3.7546582511113556e+01  2.2190183658022750e+01 8.1202077201552541e+01 -5.7217095296834003e+01  1.3146380284031906e+01 8.0871632744251812e+01 -5.1986045334569077e+01  4.3136124707007388e+00 7.9305747088869509e+01 -4.4675159680934122e+01  5.0777042521649396e-01 1.2480883162921936e+02 2.1611184296832604e+01  4.5042004846985073e+01 1.4379704672070321e+02 2.3634599428548448e+01  2.4308679848790213e+01 1.6579372106614690e+02 4.0490194744678789e+01  2.0017149893359953e+01 1.4275832082056613e+02 2.4909023019069917e+01  2.5738447270582903e+01 1.4980412455656952e+02 3.3111924606906875e+01  2.2332605896567784e+01 1.3313044704966333e+02 2.3160756540098500e+01  -5.4348156291133956e+00 1.4705643931386817e+02 3.5595466258206876e+01  2.1729371990094974e+00 1.7161437717733421e+02 5.0992978825714658e+01  4.3305202142455457e+01 1.3401505063710886e+02 1.8648851135420720e+01  4.6051411940776937e+01 1.5626809101607824e+02 2.4933042218899089e+01  8.1599264311207676e+01 -8.1273318691943839e+00 -1.3310605709899244e+01  7.1118121953917125e+01 3.7119230237931773e+00 -1.1543717020533135e+01  6.6079281185323921e+01 -3.2228903100499524e+00 -5.0798752568005172e+00  7.3298389013529516e+01 -4.1673388697746532e+00 -7.3304202220807797e+00  7.2767554678287425e+01 -6.4798200857875665e-01 -1.0935431823174683e+01  7.8230809203321982e+01 -1.4499912071050367e+00 -1.2484490723163908e+01  7.5162404644336576e+01 -1.0527015562149213e+01 -4.6092317947785579e+00  6.8143685524791778e+01 -4.4374633071834069e+00 -2.0620957034638221e+00  7.6851236436676373e+01 4.5786528507100934e+00 -1.7123417279018845e+01  6.5268931025545157e+01 3.3306155703864850e+00 -6.3658258158845884e+00  7.1404459574059544e+01 3.4582266348950625e+01 -9.8072488116244031e+01  7.0006780896620867e+01 2.4287250399688997e+01 -9.4088452808632240e+01  6.5009191386931064e+01 2.8126376048518324e+01 -9.4666692553927390e+01  7.7465445320778002e+01 2.6844760930797147e+01 -9.4856332438253361e+01  7.2396699470646965e+01 2.1498511729340485e+01 -9.7673205242205185e+01  6.9769855371720098e+01 2.2462909393821221e+01 -1.0049465233855479e+02  7.4757485290273195e+01 2.1591533442177965e+01 -9.3132943903161618e+01  6.1626616837480093e+01 1.0801470100855505e+01 -9.3745452514787090e+01  6.8812070123188846e+01 9.3739234144497487e+00 -9.7592377199883828e+01  7.3259949617971813e+01 1.2102649811444154e+01 -1.0721317091146342e+02  6.7577448579542283e+00 1.5054519180168782e+02 2.5670725165812978e+01  3.2967483077968410e+01 1.5631717581437593e+02 4.0364798849496573e+01  2.7460383264473947e+01 1.5769661831279146e+02 3.9937511050559209e+01  1.1918128670690640e+01 1.5470348232432667e+02 3.8929855814063188e+01  1.5857410933473112e+01 1.4506945407504821e+02 2.1275307827019343e+01  8.3714404354334278e+00 1.6033240571763469e+02 4.4000705491181535e+01  2.7198755165003409e+01 1.6459314666603703e+02 5.3027952634483228e+01  1.9620673307465388e+01 1.6284877673132530e+02 3.1239339236607226e+01  2.4080289419214601e+01 1.5130843632063116e+02 2.7220021687470240e+01  5.4859386883266723e+01 1.7042181566890025e+02 5.6518066804087063e+01  2.9309042688828008e+01 1.6684782208064060e+01 -6.8315851994835368e+00  3.0810927365880492e+01 1.8853266611209264e+01 -9.6540391739898901e+00  2.4518932498019154e+01 1.5406769850051102e+01 -5.7111656606176275e+00  3.0959269523961623e+01 1.4412584003464959e+01 -5.2470552814195672e+00  2.7119933957377420e+01 1.9118772433171454e+01 -1.1420134426174243e+01  2.4853131993718254e+01 2.3793787327080754e+01 -1.4604050920618901e+01  2.2376374261390680e+01 1.9772458613901815e+01 -8.8998503372943745e+00  3.5267865898810548e+01 1.3158436774597766e+01 -4.7445715280337515e+00  2.6941983850681719e+01 1.5096578778369953e+01 -4.9188812911153867e+00  1.9333519791081525e+01 1.5501814390857398e+01 -4.9651079146034789e+00  2.7903199194322265e-01 1.5266154898017827e+01 8.5635436100756958e-04  2.6617457538667155e+00 1.4476650358652870e+01 -6.4669534084787406e-01  3.8947745606488671e-01 1.6522108172283566e+01 -1.0142995896196034e+00  4.9645558166927978e-01 1.2898180688437476e+01 -6.6293569318342971e-01  2.3063053657262298e+00 1.3633670101870859e+01 9.1463499552136007e-03  3.8423895924357434e+00 1.1415257867073729e+01 -8.1363918050330834e-03  1.9835640052648962e+00 1.1120356818962209e+01 -3.6467641027824371e-01  2.7094456478655427e-01 1.0890475307229176e+01 -5.1962374406823419e-01  3.1750826411343730e-01 1.4028471785819949e+01 -1.2530201970805734e+00  5.6018406072700222e-01 1.7859290147061508e+01 -2.1073365438175213e+00  1.1409625142630046e+02 5.5651361117841827e+00 -6.8836354932091684e-02  1.1910834701952889e+02 -1.2132007630818067e+00 -5.3350478407607529e+00  1.2068371126800193e+02 -4.7195693379528265e+00 5.8820806148821969e-01  1.0983593008596911e+02 1.4190691085496849e+00 -5.0525434417482713e-03  1.0915019665231598e+02 2.8519002012786969e+00 -6.3278710261776636e+00  1.2372988977325682e+02 3.2489480687692431e+00 -1.4271229450902467e-01  1.4180891239851425e+02 1.1272191139675423e+01 -1.9716055575096516e+00  1.0140426842230525e+02 -3.8009408874549524e+00 -2.5555071280981028e+00  1.0378321411895230e+02 -2.3850817290960213e+00 -6.5944527711621932e+00  1.0333301250582879e+02 9.4440658087646945e-01 -1.1766381224020170e+01  2.7754064024312534e+01 4.0583598633265396e+01 -3.6555195314352737e+01  1.8441656024367205e+01 4.0972668979222092e+01 -3.6854913180500617e+01  2.3025732703332345e+01 4.7619443373493013e+01 -4.4122443423466876e+01  3.4293579193408107e+01 4.0407938016304769e+01 -3.9800025414146511e+01  1.9617699605008603e+01 5.0996103676870007e+01 -4.7454336821099659e+01  1.4742185367727334e+01 4.6909941280570806e+01 -4.0381528604919559e+01  3.2054092859864333e+01 4.4976063864964580e+01 -4.2375451427546508e+01  4.2077620280549901e+01 3.8781630672642798e+01 -3.9583657277007042e+01  1.1078093755632135e+01 4.0229507341815236e+01 -3.1981264985935056e+01  5.9545991120972360e+01 1.6826308172709825e+00 -7.3847809925066645e+00  5.9625828561656107e+01 -3.7048571736292422e+00 1.7618587664068359e+00  5.2247786002095154e+01 -1.1708792643744397e+00 -2.1095654604123566e+00  5.8453729370571295e+01 -5.7960481285872678e-01 -2.8422687666677064e+00  5.2882345040510941e+01 2.9300327919269296e+00 -5.5730569860994530e+00  5.1135014247804882e+01 7.2831444074801590e+00 -7.9164115068300198e+00  5.7516127731094983e+01 5.4248330280657262e+00 -7.0436172728899020e+00  6.0440477490966103e+01 1.0571758544702257e+02 1.7905254619385167e+00  7.5928067410029570e+01 1.0564799533586124e+02 8.3636263200710896e+00  6.9744245747983626e+01 1.1755750192530100e+02 2.0524845412179069e+01  6.5586371537796140e+01 1.1522063671067762e+02 8.1686884176616914e+00  8.1364624492157319e+01 1.0125034254464140e+02 7.6793089464190611e-01  6.9203712462728333e+01 9.3833628163134563e+01 -4.2267076451449348e-01  6.7190129961837883e+01 1.0677263637546977e+02 -3.7286470210193379e+00  5.4151231515763065e+01 1.1348129384008813e+02 1.9488853624985563e+01  7.8794912593593821e+01 8.3360726843227994e+01 -3.5464871556548550e-01  8.0173295227450268e+01 1.2396773398569178e+02 2.7453107776615635e+01  6.3042935701240971e+01 1.6712755629497755e+02 -6.3119597734475249e+01  9.1969890480681286e+01 1.6339051287775484e+02 -3.0272889926250016e+01  1.0188381618393350e+02 1.5453037210084196e+02 -3.4001831202852181e+01  7.4165294258059092e+01 1.5490874743553613e+02 -3.2108574284727148e+01  8.2396547039562520e+01 1.6022855885703470e+02 -4.3353455153478784e+01  8.8839035863597502e+01 1.5472832004824846e+02 -4.4895702239511174e+01  9.6729981735303312e+01 1.4793815211918533e+02 -4.0654201404557902e+01  8.8941438685067411e+01 1.5663210748984898e+02 -3.7162887878787920e+01  7.7712496852531871e+01 1.6061292446816549e+02 -3.5852555781793171e+01  1.0196609112901618e+02 1.5676335073359994e+02 -1.5471228699642879e+01  6.8896577629262964e+01 1.4986610387768636e+02 3.0580258554749079e+01  1.0153520089645933e+02 1.5403681111790519e+02 1.4307252838523807e+01  9.6978399412987798e+01 1.4438761908618784e+02 2.9667151354652169e+01  8.7209178457957819e+01 1.5202546600949543e+02 2.4092348249981587e+01  8.2907282522428133e+01 1.4346360528521382e+02 1.6044735592597394e+01  9.1841459242137788e+01 1.3727808283601871e+02 -4.1838746717704955e+00  1.0834848666816968e+02 1.3786745030684395e+02 1.5181768174015302e+01  9.9108555228134961e+01 1.3986053152325991e+02 2.3643462305378915e+01  1.0663721202865374e+02 1.4109123141537512e+02 2.7690765564433779e+01  1.1839122999791931e+02 1.3501727467830108e+02 3.0803287959567204e+01  9.1855596577421267e+01 1.3302970328492262e+02 -5.4917195929580505e+00  9.1669946148825233e+01 1.2578552770520315e+02 -1.5300416925147500e+01  8.9796164158739970e+01 1.2542351472759485e+02 -1.1082293426944645e+01  9.0343862014273867e+01 1.2826134140344766e+02 -8.6194149329118659e+00  1.0184183983785246e+02 1.3341093724370859e+02 -8.8840226701051783e+00  1.0510141957265782e+02 1.3562208648479952e+02 -1.3263875410119347e+01  9.6369241953663519e+01 1.2982899706118192e+02 -8.2759620648150722e+00  9.0266068184558776e+01 1.2275896627373891e+02 -4.8379801328701921e+00  8.7418005618925363e+01 1.2090895122395776e+02 -1.1924197268475028e+01  8.5444700625639754e+01 1.1931691386721759e+02 -2.0556986810584252e+01  7.3155975113347949e+01 1.1338544466815681e+02 2.1676656030106531e-01  7.4447904315864434e+01 1.0907693795998367e+02 6.6451534510119614e-01  7.8085138067596802e+01 1.1301840937715053e+02 3.0718185044025170e+00  7.7083957437072200e+01 1.0991422490906982e+02 -1.4349421442490766e-02  7.9254172703034897e+01 1.0635915511476666e+02 -9.7917474120261278e-02  7.6735307204378927e+01 1.0641774091799967e+02 4.6046956030046821e-01  8.0608567972813020e+01 1.0908706657338261e+02 2.6435400649771341e+00  8.3447066179679510e+01 1.1372878019211574e+02 5.7910636594491463e+00  7.8500840939555431e+01 1.1017557714475066e+02 1.7178280719822359e+00  7.5289465854494836e+01 1.0612735637505210e+02 -1.1498411074133872e+00  -5.2850645357200223e+00 2.0158364753525881e+01 -4.7837066528547130e+00  -6.9842735946703793e-01 1.9081077057847544e+01 -4.7900105951786811e+00  -1.0219067785738991e+00 1.8688452173366262e+01 -3.6529131353769433e+00  -2.2334698240518631e+00 2.1167387283578677e+01 -5.5107392031998366e+00  -3.9466552981136904e+00 1.8650378604394859e+01 -4.3414838362195365e+00  -2.0298100665601049e+00 2.1624263412191535e+01 -5.3703675236674799e+00  5.1257358217769411e-01 1.8686446711808902e+01 -5.8918223477980485e+00  9.6822008864803100e-01 2.0926599606776652e+01 -5.8693455335497164e+00  -2.8405787192482159e+00 1.6214677020744684e+01 -3.1347961051572937e+00  1.6432811060559254e+00 2.1735912768067656e+01 -6.1473160623578886e+00  1.3560160987094110e+02 1.4097677609029537e+02 -8.5668608433195068e+00  1.1418160753096211e+02 1.1413678556925517e+02 -1.3145093923140001e+01  1.1712275393468722e+02 1.3552942167164215e+02 -1.7367463732752885e+01  1.2836980672885554e+02 1.2212553279557301e+02 -3.7838156039997020e+00  1.2538457282016971e+02 1.1302473976144331e+02 -9.6942575836487581e+00  1.2602681080723205e+02 1.1453299757254473e+02 1.5275427280514431e+00  1.2214700608895664e+02 1.0594591097678196e+02 -8.4921998313285663e+00  1.1888215489954314e+02 1.2122688267244308e+02 -5.8285028731446964e+00  1.1482914838231069e+02 9.6548288068580845e+01 -1.8385918024111106e+01  1.0836611516223711e+02 1.2798514579717663e+02 -1.4767335240906311e+01  1.1716409464055014e+01 1.4031411266925527e+01 2.8432010306316560e-02  1.5838344444406909e+01 1.4043621168078699e+01 -1.7077748286261609e+00  1.5996978532431614e+01 1.6998713297004233e+01 -1.2090782976317644e+00  9.3024665071545520e+00 1.5036350499004040e+01 -1.0910089993201215e+00  1.1840123468867608e+01 1.1154680441961959e+01 -4.6757305603456867e-01  1.1348212153323555e+01 8.7878406592476050e+00 -4.3000949549896839e-01  9.3385447654941203e+00 1.2635903538018100e+01 -1.4105765880629673e+00  6.5946417027356494e+00 1.5847961493443774e+01 -2.0904081127260641e+00  1.2995064775659001e+01 1.8291968136812276e+01 -2.6023044301506437e+00  2.1081024505401540e+01 2.0384298035895124e+01 -2.9721855816803551e+00  3.8208305646953247e+00 6.1730112876644938e+00 -1.1908032605756780e+00  6.8509291685629936e+00 8.9200282801051163e+00 -1.5780772843790041e+00  8.4352275370499790e+00 7.7520816348911969e+00 -2.4467627097489095e+00  6.1265431759442723e+00 9.0228001334570536e+00 -2.1521452106828916e+00  4.8607439342834855e+00 6.6550986761099526e+00 -1.1785342288645781e+00  6.2972100468507390e+00 5.9937385337428495e+00 -2.5019708630928492e+00  7.4224144807855028e+00 5.3128191738115085e+00 -2.0365754219964272e+00  6.5131025726069858e+00 6.1142907098390102e+00 -1.1282945733846710e+00  5.2832106501831424e+00 6.7386528477820100e+00 -6.4779794679454272e-01  8.3997003461450603e+00 1.1678782025028848e+01 -2.7556509092416981e+00  8.5219239357374022e+01 1.1946311318931107e+02 -3.4983723710237584e+01  8.4280947618116343e+01 1.1826252867340982e+02 -1.9304176442109561e+01  8.6326953572754277e+01 1.1824298409633947e+02 -1.6674290942481058e+01  8.3777276894748496e+01 1.1458764850847106e+02 -2.3496200903132827e+01  8.9173368309799372e+01 1.2324222593723503e+02 -2.3996948497397938e+01  8.7507160990861081e+01 1.2318798958934461e+02 -2.7660913852718565e+01  9.0732050094069464e+01 1.2407492605114061e+02 -1.9318844583883077e+01  8.8415821877072148e+01 1.2331588445631307e+02 -2.0602518583507077e+01  8.6814163240961236e+01 1.2457730949015266e+02 -2.3545868391874894e+01  8.1837490633978348e+01 1.1143454285287299e+02 -1.4435489291422295e+01  -1.0248575604944055e+01 6.5190384888394760e+01 -7.0793089407033634e+01  1.5274975510126922e+01 6.9428807747237826e+01 -7.6041325182029297e+01  6.8534934277436026e+00 6.7272321962406068e+01 -7.5531709832494357e+01  4.2694905649849130e-01 6.8977082157944608e+01 -8.5775816598285644e+01  5.5185927821947667e-01 7.5890601821189307e+01 -7.3166057597128784e+01  1.2229413411975690e+01 9.2769811437532610e+01 -1.0313125825010056e+02  1.6667030679950440e+01 7.3382765518509132e+01 -9.1537973626051141e+01  1.1109375082116424e+01 8.0172990576616726e+01 -6.8524711267787680e+01  6.2789876679117285e+00 7.4444903629597476e+01 -6.9482283211404379e+01  2.3828810923854821e+01 6.2994372105785068e+01 -7.8070468392413289e+01  2.1086237742749443e+00 7.3597008175338530e+01 -7.8014986800821461e+01  1.8080970145378572e+01 5.8590074443220445e+01 -9.5267301615552498e+01  2.0421101567790753e+01 6.6611781869378632e+01 -8.0758161905352537e+01  7.8936301201025110e+00 7.0462915416025751e+01 -9.5468526308530713e+01  1.1877541752362061e+01 5.9227427159040708e+01 -8.5254096607021822e+01  2.7541320952451958e+01 4.6145606990425151e+01 -9.7378789464963532e+01  2.8457160200147179e+01 5.6293100832192160e+01 -8.9797371944924848e+01  -1.2729691948410948e+00 6.7876360767920758e+01 -9.6342975250285775e+01  1.9853656727144962e+01 6.4062025844204342e+01 -8.7738797224881480e+01  3.1479695684120966e+01 6.0995777889504026e+01 -8.3249901423801887e+01  9.2383882848371115e+01 1.2544218962993118e+02 -1.2808020978436907e+01  9.7887180072184123e+01 1.2571572720241838e+02 -1.6457570808851255e+01  9.4642361441460608e+01 1.3021809634784682e+02 -1.4631704097690781e+01  9.6869745351350218e+01 1.2370479925577131e+02 -1.8136083773205907e+01  9.1317054922025875e+01 1.2377309204554486e+02 -2.1836775199427759e+01  9.1274876058587253e+01 1.2319987346071578e+02 -1.2689919159315725e+01  1.8712085671458755e+01 1.0890970067741463e+02 -1.3235866211615066e+00  3.5336341409128352e+01 1.2018050128876367e+02 1.1058730370816981e+01  4.3077083291881259e+01 1.1827468096218354e+02 3.9013063006298747e+00  3.6870549025712847e+01 1.1103032941263514e+02 8.1601182653870588e+00  2.2833996582268291e+01 1.1929174075611722e+02 -1.0194172113590430e+00  1.5062561623123454e+01 1.2211993593998591e+02 1.7503760800046853e+00  2.8612094717603235e+01 1.3067199788422462e+02 -4.2306889155068994e+00  2.2174566147249749e+01 1.3160987221844388e+02 1.2627700788177425e+00  1.4661001791592936e+01 1.3581289864983904e+02 6.7787456795434125e+00  5.4651084071175731e+01 1.0724333039252458e+02 1.7360898295031145e+01  6.3554737862208022e+01 1.8713828279099459e+01 -1.4547960516608697e+01  6.6965060169370304e+01 1.6585056021464105e+01 -1.0222119181217153e+01  7.4914408393121150e+01 1.1725612052065083e+01 -1.3440631524501994e+01  7.8992164924203450e+01 1.8299036667000124e+01 -1.6600983541439739e+01  9.3103997769562611e+01 1.5907173025584141e+01 -1.9343119289649028e+01  8.2213221998375701e+01 1.3768788509431129e+01 -1.4370523202515873e+01  8.8668241433037096e+01 1.0701274977631721e+01 -1.4390081870851114e+01  8.4496787645356335e+01 5.6263263755977038e+00 -1.2732940377156126e+01  7.9989035848032543e+01 1.0495364725968722e+01 -8.5096466616706863e+00  6.9587218424515783e+01 1.4950515224345700e+01 -3.4844494405044286e+00  2.8161791928365165e+01 1.1221606068951486e+02 3.0976404796472856e+01  4.8234483889097021e+01 1.0572320364181053e+02 1.5881947654364039e+01  5.1086438084514697e+01 1.0254217030651519e+02 2.9709367552128228e+01  3.9095421726999852e+01 1.0709281133274322e+02 1.7128569598429962e+01  4.5019402641877313e+01 1.0676786578911698e+02 2.6147178153517700e+01  3.3195567882464466e+01 1.1172749981373995e+02 3.7322768131413994e+01  3.8567153646969828e+01 1.0333293127839346e+02 4.5082863157325058e+01  4.7617581350919707e+01 1.0289427407037881e+02 2.3297249369360497e+01  4.5759376121922209e+01 1.0099058965729026e+02 1.0422454988683372e+01  2.8614890979741002e+01 1.7655057421336203e+01 6.3669375956052113e-02  2.2996601204695335e+01 1.3349997434588985e+01 -5.8233514375313022e-01  2.7607979946966932e+01 1.4333095038344174e+01 -9.0610125502092820e-01  2.4913106290723420e+01 1.8945347346766940e+01 -1.3975894431947216e+00  2.3725953750715984e+01 1.6392119059281455e+01 6.9396188977415035e-02  1.9304622141725599e+01 1.4833502769616496e+01 2.0816363129621318e-02  2.0295742897183882e+01 1.7423327017153699e+01 -1.1574216325267503e+00  2.3924703948505933e+01 1.6240928410115473e+01 -2.0854629685601593e+00  2.6448703883380343e+01 1.1927864499426020e+01 -1.2115997532173906e+00  4.6588375683271160e+01 5.2643833105617553e+01 -6.0856923634146312e+01  4.7610001001806211e+01 5.3379137703815033e+01 -6.8426608625945093e+01  5.2411488931546899e+01 5.4743543858309664e+01 -6.8683264712608377e+01  4.7391364545962261e+01 6.3423614394732269e+01 -6.6719994378845456e+01  4.4662504769915053e+01 5.4507145731452383e+01 -6.0936013421137339e+01  4.1412687408478924e+01 6.7076995337765652e+01 -8.2527051835477877e+01  5.0107388916503709e+01 5.6602967251057876e+01 -8.0758373110975839e+01  3.9897746391542462e+01 6.0227843294692114e+01 -6.9021518059261396e+01  5.6945123988889904e+01 4.9569109976048843e+01 -7.5853212356652080e+01  9.7195904461831404e+01 1.2738317934194002e+02 -2.6443861025904582e+01  1.1301628140549019e+02 1.2681624591076704e+02 -1.9819303281