<?xml version="1.0"?>
<VTKFile type="UnstructuredGrid"  version="0.1"  >
<UnstructuredGrid>
<Piece  NumberOfPoints="9192" NumberOfCells="42402">
<Points>
<DataArray  type="Float64"  NumberOfComponents="3"  format="ascii">10.223219871521 30.30838966369629 29.15146064758301  10.69484131315229 29.92113432676362 28.59792781385769  10.43886264989937 29.77502169432695 29.00581964167566  10.26932613828657 30.16182932645845 28.60917830976833  10.64873504638672 30.06769466400146 29.14021015167236  11.07425022125244 29.82699966430664 29.12895965576172  10.86437782476509 29.53432669463213 28.99456914576501  10.31543240505215 30.01526898922061 28.06689597195366  10.48496891666494 29.62846135708911 28.46353730386098  10.65450542827774 29.24165372495762 28.8601786357683  8.925028800964355 30.03714942932129 29.34320068359375  8.958286418369031 30.3321704448449 29.01345358664745  9.272058486938477 30.33179950714111 29.29979515075684  9.118205203464246 30.69726081502312 29.19302855307811  9.619088172912598 30.62644958496094 29.25638961791992  9.305316104343152 30.62682052266473 28.97004805381053  8.991544035773705 30.62719146036851 28.68370648970114  9.144510269165039 29.23904037475586 29.27730941772461  9.458001228536725 29.08230823449433 28.78830547804201  9.041831525962063 28.65160735002463 28.93317946156294  9.375540289084622 28.86899264207785 29.14748915394576  8.893262445494583 29.23497067511912 28.70381604943805  9.226971208617142 29.45235596717234 28.91812574182086  8.81080150604248 29.02165508270264 29.0629997253418  8.477092742919922 28.80426979064941 28.84869003295898  9.309432148069245 29.66567155958883 28.55894206591712  9.606570309004205 28.49894490939985 29.01766889016691  9.464260160490921 30.14606057227488 28.90766584191852  9.681900501251221 30.16810512542725 29.30923938751221  9.3348708152771 29.87345504760742 29.35264492034912  9.1172304745168 29.85141049445506 28.95107137475543  9.744712829589844 29.70976066589355 29.36208915710449  9.527072488829544 29.68771611274119 28.9605156115108  10.84100008010864 30.29018974304199 28.82975482940674  10.41548490524292 30.53088474273682 28.84100532531738  10.60774993896484 30.75337982177734 28.53055000305176  10.46159117200849 30.38432440549898 28.29872298750271  8.453700065612793 30.47077941894531 28.06686973571777  8.789851665496826 29.61859512329102 27.872389793396  8.881566106841019 30.06822548926707 28.31290590081744  8.827787399291992 30.14871501922607 27.79613494873047  8.415764331817627 29.94065952301025 28.1431245803833  8.377828598022461 29.4105396270752 28.21937942504883  8.843630373045853 29.53810559333201 28.38916074548297  9.201874732971191 29.82665061950684 27.52540016174316  9.255653440520218 29.74616108954783 28.04217111383014  9.981968788173493 29.45366264227322 28.70956035084271  10.19960912893379 29.47570719542558 29.1111338964364  10.03007261732099 29.86251482755708 28.71449256452907  9.812432276560695 29.84047027440472 28.31291901893539  9.150488091921474 30.14643150997867 28.62132427780913  9.531618196312808 30.12356834741522 28.51329990112322  9.373283445403031 30.20515595496531 28.21611558709674  9.372674140165039 30.60432829780506 28.57568211301523  9.75380424455637 30.58146513524161 28.46765773632933  9.437134742736816 30.7446403503418 27.87328910827637  9.477839488763781 30.20405787737423 27.99652894903625  9.758653569011669 29.92095980436372 27.79614806684841  9.876283573894481 30.3799546697812 27.97009254011501  9.595469493646593 30.66305274279171 28.17047342230285  9.319504737854004 30.28564548492432 27.69934463500977  10.03461832480426 30.29836706223111 28.26727685414149  8.976227714420563 28.14392358308556 28.4596610614677  9.291399011712384 28.3214342462427 28.7386649758173  9.142829931244904 28.90479757133719 28.50930156369241  9.398742699715088 28.4923246789947 28.1786604076146  9.821257685009613 28.84072577490383 27.8976597537615  9.713913997006909 28.66983534215184 28.4576643219642  9.565344916539429 29.25319866724633 28.22830090983931  9.511566208990402 29.33368819720533 27.71152995775233  9.408975601196289 29.56153011322021 27.21584987640381  9.054636001586914 29.28200054168701 27.5252799987793  8.907397270202637 28.73735046386719 27.52515983581543  9.7186670772155 29.06856769091871 27.40197967241298  9.364327477606125 28.78903811938551 27.71140979478847  9.261736869812012 29.01688003540039 27.21572971343994  9.616076469421387 29.29640960693359 26.90629959106445  8.726660228670243 28.47409668686749 28.65417554721334  10.06834504503088 29.42799738206222 27.98227786285758  9.965754437236766 29.6558392980771 27.48659778150905  10.18077709176061 30.66742247850948 28.49910386969054  9.988512058038683 30.44492739946895 28.80955919195617  9.686446208734484 30.60395736010128 28.86202367712463  10.13053786864097 28.87029931717873 28.9389237629676  9.675641569297024 29.1043527876467 29.1898790236357  8.397806167602539 29.58002090454102 28.95343017578125  8.853619157835892 29.62284623206492 28.75618612084918  8.3878173828125 29.49528026580811 28.58640480041504  9.108414709135941 29.20151101172801 28.04205095086627  8.9418124923116 28.44063702347637 27.99241044864156  9.034769535064697 29.63809490203857 29.31025505065918  9.444611549377441 29.47440052032471 29.31969928741455  9.766326009795121 29.98703061164256 28.85520135675006  9.98396635055542 30.00907516479492 29.25677490234375  8.694675101688123 30.10360618245477 28.8185683327412  10.23788155664368 29.04118974993072 28.3789191947649  9.650687217712402 30.17020511627197 27.50185012817383  9.768317222595215 30.62919998168945 27.67579460144043  10.09949970245361 30.51375961303711 27.47830009460449  10.20746605375288 30.26451430112886 27.77259803327907  10.61111633756636 30.1430390814023 27.61414790663112  10.50459139326094 30.380529735394 27.92967772993435  10.39662504196167 30.62977504730225 27.63537979125977  10.50314998626709 30.39228439331055 27.31984996795654  10.69375038146973 30.74579048156738 27.79245948791504  10.80027532577515 30.50829982757568 27.47692966461182  10.90680027008057 30.27080917358398 27.16139984130859  10.78745644071577 30.13319430143403 28.10340285810818  10.93361520767212 30.5022497177124 28.33522987365723  11.16686534881592 30.03905963897705 28.63443470001221  11.25948047637939 30.25111961364746 28.1399097442627  10.1269998550415 31.08559989929199 28.07657051086426  10.65075016021729 30.74958515167236 28.1615047454834  10.22121613004682 30.5504344442563 28.07173324140896  10.41037511825562 30.91569519042969 27.93451499938965  10.36737489700317 30.91948986053467 28.30356025695801  10.11324977874756 30.79967975616455 27.77743530273438  10.97661542892456 30.49845504760742 27.96618461608887  11.08314037322998 30.26096439361572 27.65065479278564  9.749258537073107 30.14561290056758 28.91487344671691  9.926651973504992 30.54761237413936 27.97297891546691  9.940402049798937 30.8335325172668 28.27211412359679  10.95699295232857 29.74638666930254 28.5000441900155  8.945417404174805 30.60770988464355 27.97007942199707  8.692245006561279 28.7708101272583 28.18692493438721  8.661417484283447 29.80858516693115 29.1483154296875  9.427308190523441 31.00046401233116 29.12961325484892  9.995875358581543 31.39550018310547 28.79306983947754  9.494666226345327 30.9779717874715 28.73524731405362  9.628610629816027 31.06763285906368 28.27971872259582  9.874839801568957 30.98848265917354 28.63036378790343  9.749646186828613 31.47465038299561 28.44242477416992  8.427460670471191 29.1074047088623 28.53403472900391  8.43744945526123 29.19214534759521 28.90106010437012  8.642612934112549 29.07394504547119 27.87226963043213  8.771158218383789 29.40953063964844 29.11536979675293  8.347077369689941 28.99292469024658 28.2028694152832  8.396709442138672 28.68978977203369 28.51752471923828  8.316326141357422 28.57530975341797 28.18635940551758  8.611861705780029 28.65633010864258 27.8557596206665  8.646276927888993 28.35961666825176 28.32301023349264  9.80748176574707 31.0109748840332 29.02472972869873  9.78206729888916 30.91512012481689 27.97492980957031  9.921154022216797 30.46741962432861 29.20392513275146  9.47027587890625 31.14922046661377 27.98253440856934  10.06143760681152 31.24055004119873 28.4348201751709  10.30181264877319 31.07444000244141 28.66180992126465  10.10954761505127 30.85194492340088 28.97226524353027  5.581509113311768 22.43707084655762 31.16315078735352  5.394574626228025 21.85625173006541 30.48285781063954  5.070289879258963 22.24953606514383 30.73443214281188  5.443466278265416 22.4502788522046 30.68995081136153  5.208332714305314 22.23632805949686 31.20763211880388  5.532617461274376 21.84304372441843 30.95605778663153  4.835156315298861 22.03558527243609 31.25211345025424  5.159441062267923 21.64230093735767 31.00053911808189  5.483725809236985 21.24901660227925 30.74896478590954  5.305423443219064 22.46348685785157 30.21675083536953  3.643455028533936 19.80946922302246 29.61228942871094  4.27914561195418 19.6089092465399 30.04438697252566  4.029857052994219 19.98419344148619 29.86394702349001  3.885318040847778 19.48394012451172 30.27396488189697  3.892743587493896 19.43418502807617 29.79272937774658  4.142032146453857 19.05890083312988 29.97316932678223  4.416259077454502 20.15891765994992 30.11560461826909  5.409833908081055 21.55874061584473 31.87581062316895  5.30825160446564 20.60984022174286 31.34359515805323  5.015355572132266 21.13712007556366 31.54312003750879  5.28179407119751 20.95632553100586 31.9724645614624  5.702729940414429 21.03146076202393 31.67628574371338  5.153754234313965 20.35391044616699 32.06911849975586  4.887315735248722 20.53470499072479 31.63977397580225  5.574690103530884 20.42904567718506 31.77293968200684  5.995625972747803 20.50418090820312 31.47676086425781  4.620877236183477 20.71549953528259 31.21042945184864  4.794117782379833 19.68964023010496 30.09801798725509  4.560061296058893 19.2212367742755 29.51504535188764  4.657004316879511 19.13963181669494 30.02680034151166  4.182202591133562 19.69051420412047 29.53263198290163  4.0
[...]
<PointData  Vectors="u"> 
<DataArray  type="Float64"  Name="u"  NumberOfComponents="3" format="ascii">1.0647740111336805e+02 -1.1319049598614397e+02 1.6234670582126739e+01  6.0194863154953083e+01 -6.2661710578013718e+01 -7.5303406424219768e+00  6.1339545143078922e+01 -6.7568385628313905e+01 1.2279788250130874e+01  8.3561268125344228e+01 -9.0788715828131501e+01 -1.7272548168066166e+01  6.8926416573389204e+01 -5.9627361038793445e+01 1.6610919941348580e+01  4.9855454583157858e+01 -4.8526512109540363e+01 9.5276337253232626e+00  4.6451566223171348e+01 -4.9490290262826221e+01 2.9692462318580746e+00  6.3409119081022737e+01 -7.2087403399500019e+01 -3.7307116913565643e+01  5.4384864327032773e+01 -6.3965344705480604e+01 -1.4350296805697617e+01  4.0700296561482489e+01 -5.0532934098064111e+01 -2.2206894992211259e+00  1.4086384855665096e+02 -1.7219787821436645e+02 -8.6478949646618119e+01  1.0441589475624744e+02 -1.3023101612736684e+02 -5.6822703636647802e+01  1.3452581109576116e+02 -1.7346538945093423e+02 -8.7263797369987429e+01  7.8625843663429578e+01 -1.0000405186834577e+02 -5.9819384345302403e+01  1.2017426025041449e+02 -1.7501253850795700e+02 -8.2869157062824755e+01  9.5627936845155261e+01 -1.3360029260591281e+02 -4.8288803999726021e+01  1.0158412050537089e+02 -1.3455151845495038e+02 -3.6452931578684698e+01  5.5999681334498021e+01 -1.3686711689067675e+02 2.6729751843773872e+01  4.2148069892819905e+01 -8.7975239697026282e+01 -9.7321980641982286e-01  1.4385782903097525e+01 -7.7494307003146432e+01 1.3270467687310875e+01  2.7043179275635325e+01 -7.7682484019403418e+01 2.0490364213530054e+01  4.1638773258250204e+01 -1.2974049200673034e+02 -1.4000311194471003e+01  6.6396938413241685e+01 -1.2490913384033506e+02 -8.4649043882396153e+00  3.0092544474677581e+01 -1.3483167636484862e+02 2.4520352528571003e+01  5.7533414546821176e+00 -1.2102272329765654e+02 4.9274904409138927e+00  7.0396853490905372e+01 -1.1730881332387607e+02 -2.7240863524924464e+01  2.1774098417999355e+01 -5.6029627454743064e+01 6.4675259582051394e+00  1.0058138501337386e+02 -1.3446306725304953e+02 -1.6442984681386271e+01  1.1279541642536940e+02 -1.4791095720768729e+02 2.6367759602440273e+01  1.1556706811785075e+02 -1.4375557508049567e+02 1.8250078144711166e+00  9.7621111230696002e+01 -1.4929449197406484e+02 -2.9287529969225876e+01  8.3797521786052442e+01 -1.1246713148450752e+02 3.6635418766012378e+01  7.9269083565562624e+01 -1.1821431251459339e+02 -6.0815575975512255e+00  6.6393506669577746e+01 -6.1935974375545861e+01 9.0584473016628060e+00  1.1526841869935423e+02 -1.0702047826768545e+02 -5.6260696522021592e+00  1.0499900439628607e+02 -9.1583245236255650e+01 -3.0369619222358168e+01  8.3399495856859204e+01 -7.9938987370326828e+01 -3.4235166445343694e+01  1.1848326092075854e+02 -1.8809671953206387e+02 -4.6960263651944544e+01  5.8715664274729271e+01 -1.2959631868476117e+02 -5.8978381147860830e+01  9.0130104043442799e+01 -1.3688259601488957e+02 -5.1399970296129027e+01  8.7061886116823416e+01 -1.2183680011368645e+02 -8.2474695308587215e+01  6.1192065305779302e+01 -1.5489368030361345e+02 -6.5449121106898815e+01  4.2042460143155651e+01 -1.6655195063769065e+02 -4.9478765709161081e+01  5.5848941458232090e+01 -1.3079619461559724e+02 -3.6298962910382684e+01  6.5548122206208504e+01 -9.4647300495737611e+01 -7.8511568149058434e+01  6.5416423402450818e+01 -1.0720569989855477e+02 -4.8901673481569624e+01  5.5017843213121743e+01 -8.0720324516858327e+01 -7.0428428996765140e+00  5.1270287262915495e+01 -6.8391153199339442e+01 1.7685742145499514e+01  7.4257432800591815e+01 -9.1632936049413146e+01 -1.0982480186702983e+01  6.9686404763165868e+01 -9.2723691938148960e+01 -3.2059728938976043e+01  9.0405067895151930e+01 -1.3776015351621658e+02 -3.7966548461091698e+01  8.9410805899966178e+01 -1.1994057327033350e+02 -3.8729838056824107e+01  8.6304244523195820e+01 -1.2174447804300418e+02 -5.8015941796363684e+01  1.0171219051747036e+02 -1.3671291174496815e+02 -4.3996957849222056e+01  1.0282173874098686e+02 -1.2634729280460725e+02 -4.4682656938228284e+01  1.2174600702420281e+02 -1.5582674957497179e+02 -8.8349707898507560e+01  8.3710473727466038e+01 -1.0994603978609366e+02 -6.3289133161547781e+01  6.2391152510523447e+01 -7.9660150641882041e+01 -6.1344060781553573e+01  8.5898965616189983e+01 -9.4515105373269193e+01 -6.7676532749626574e+01  1.0985471203304137e+02 -1.3901022126729072e+02 -6.0816030225467003e+01  8.7014442334592630e+01 -1.0926253756522175e+02 -8.3650351268889239e+01  8.5074673349084719e+01 -9.8274875718005077e+01 -4.3065186122169166e+01  1.1322514179730346e+01 -5.1602395288601741e+01 -4.0873260624381285e+00  1.5805837421072782e+01 -5.5337464651649334e+01 1.8770504738104532e-01  3.0325515560471491e+01 -8.8721687970055513e+01 -1.1437059686477609e+01  2.3536744100218108e+01 -5.8519942487373584e+01 -1.4536501902463462e+01  3.3226496846896985e+01 -5.6055702630290241e+01 -2.5349180256565901e+01  2.8842703996952384e+01 -5.9363320253243486e+01 -1.0301950287852080e+01  4.6008695145577043e+01 -8.1137249282045232e+01 -2.5831999850958297e+01  4.1351929707167265e+01 -7.1445531183526654e+01 -4.4443598980704742e+01  3.7182697821133473e+01 -5.4688232235002438e+01 -5.9789044479918672e+01  2.7544684198910755e+01 -7.6227169440168893e+01 -5.6094675258192403e+01  2.0285198522771708e+01 -5.7783715908168880e+01 -3.1306968087320261e+01  3.4339840131286913e+01 -5.3096489859164599e+01 -3.7685981986525952e+01  2.8821885884370730e+01 -5.9027840245836785e+01 -2.9027769323317710e+01  2.7171958731427669e+01 -5.0200815055973500e+01 -3.9277994084631786e+01  3.2749600381188536e+01 -4.1957458234878821e+01 -4.4473456002417983e+01  2.8225497828359329e+00 -7.1187414648316150e+01 2.2166324126168231e+00  4.6789466691788334e+01 -6.4298360098919460e+01 -3.1297955566569311e+01  4.4127134072401383e+01 -5.7128831007341397e+01 -5.1108536041851217e+01  1.0217428050643714e+02 -1.1683591556489037e+02 -4.9553077740269558e+01  1.0161567174807665e+02 -1.1958407805892767e+02 -1.6606848345965822e+01  1.2076815528390857e+02 -1.3807407170526440e+02 -2.8221240062175852e+01  3.1938396820058344e+01 -5.3910215244103718e+01 1.7668058507233877e+00  3.8017418245646489e+01 -7.6273082359669544e+01 2.4116563774568014e+01  1.1212879666426142e+02 -2.1002186756768791e+02 -7.1977182690562515e+01  7.5284134665924270e+01 -1.5582732876204966e+02 -2.3901175883383544e+01  7.6856540425837068e+01 -1.9288320118050260e+02 -4.3874504522106264e+01  3.7554259547096493e+01 -9.1838992230941088e+01 -3.6466916384135111e+01  1.6512874051703790e+01 -6.0940185393171447e+01 -1.5761322457533664e+01  8.1890518902586678e+01 -1.7425655175851796e+02 3.6383166190821417e+00  8.3127637363670445e+01 -1.3619769816779026e+02 3.1345355605560030e+01  8.7333070557624893e+01 -1.1384117281649362e+02 -1.4493558705718371e+01  1.0625760523674191e+02 -1.1645181242076724e+02 3.3739026798161646e+01  1.0566881945174202e+02 -1.4359914247455322e+02 -5.7764774175211407e+01  3.8916351599436659e+01 -5.7221747533519306e+01 -1.3680428258040012e+01  6.3366601789977217e+01 -7.7924471558596821e+01 -1.0118429326740285e+02  9.7869862987786163e+01 -8.6794207475120004e+01 -9.0568314462043716e+01  6.4435247372609069e+01 -7.0625431044982307e+01 -8.1158803888468782e+01  6.6942400782714273e+01 -7.2362051777058980e+01 -5.7907826740880402e+01  5.1405708469849309e+01 -5.5879469871109805e+01 -4.8086218293137456e+01  6.9283224680859277e+01 -6.6964688593382661e+01 -4.7329301945382852e+01  7.3129507893986101e+01 -6.4025945710691005e+01 -6.9268936411905941e+01  5.1126135080659651e+01 -4.8239218863052024e+01 -6.0982078972235691e+01  6.4926628156315047e+01 -5.7627061189308577e+01 -5.0182934329663262e+01  3.5259909686831698e+01 -5.6741460402836083e+01 -5.9866545345986658e+01  4.4291965635557347e+01 -4.2414137556502247e+01 -5.6041601344068752e+01  5.9811271824132994e+01 -6.0062107912685065e+01 -2.8019620319077074e+01  7.0070503742278262e+01 -6.3266168655207231e+01 -2.6717185713479076e+01  6.0980556837772085e+01 -5.3457760939073744e+01 -9.0243451522940958e+00  5.8431344709826519e+01 -5.2483546150670229e+01 -2.3877890493773137e+01  1.4155409057618590e+02 -1.2593510495361289e+02 -7.8508108400967245e+01  8.9844475039197434e+01 -5.6379191737162081e+01 -4.7106361721082514e+01  9.1837486495145697e+01 -8.6576869262797729e+01 -5.7345429712385169e+01  1.0605968697182303e+02 -6.7227800890066689e+01 -6.1310445811297541e+01  1.2662824492364102e+02 -1.0100009719061886e+02 -7.4052130845651163e+01  8.5456738853887501e+01 -6.9793568690820948e+01 -9.8383613871335143e+01  5.6328463962621129e+01 -6.2379602472490092e+01 -2.4223194813601950e+01  5.4815571960805364e+01 -5.9123351916428717e+01 -3.9824945071117732e+01  9.8169532072532149e+01 -1.2246426602016138e+02 -1.9759888817568587e+01  9.2491879328989342e+01 -9.1853484474747020e+01 -7.9042479589844675e+01  1.1327281446369365e+02 -1.2788296543092822e+02 -5.9486793642033184e+01  5.2462226595155187e+01 -5.1952669530467880e+01 -1.1285383938163269e+01  1.1420038028857053e+02 -1.8250693432969098e+02 -6.7363450090908117e+01  1.0789525043187965e+01 -8.3380980791942761e+01 -1.5842736573500753e+01  1.6784685780895535e+02 -1.9560062285707718e+02 -9.1102121888194290e+01  5.3190358135317723e+01 -1.0955604897065258e+02 -5.4002373591493246e+01  7.2324790421627625e+01 -1.9443754905483121e+02 -7.2212252882888720e+01  9.7660486103866447e+01 -1.3153618406624093e+02 -3.8412918315502537e+01  1.2933997636321064e+02 -1.5247473170664773e+02 -3.6419441785986081e+01  1.2512897272046604e+02 -1.4587210908827007e+02 -4.1932691516995263e+01  1.0405858710588984e+02 -2.1234565846125480e+02 -3.5536339583421757e+01  -1.1936438276424610e+00 -1.4362630668701104e+02 -2.1156688637674119e+01  2.2312325275800308e+01 -1.7238544022939078e+02 -1.5486764375173284e+01  1.4208408013526340e+01 -9.1218254233986087e+01 -4.0177553869967532e+01  5.9890268460536376e+01 -1.8040754206142708e+02 1.7432153685316404e+01  -8.6550741242076814e+00 -1.0975529794235280e+02 -1.2196241850315847e+01  -1.7901733826978635e+01 -9.1446540695703149e+01 -3.0105654242840968e-01  -4.6105718835056928e+00 -7.2981584131848436e+01 -3.1026713230770118e+00  1.4089516019977395e+01 -7.0006841611904179e+01 -2.1655169070582620e+01  6.2340613410262193e+00 -6.2278418143675587e+01 -4.1596228034883120e+00  9.8304309019163384e+01 -1.7180741426534874e+02 -9.5192879698111142e+01  1.4045728417080437e+02 -1.6896138892598509e+02 -9.2518633559800094e+01  1.2861451438239084e+02 -1.2746705212585248e+02 9.6845509820651862e-02  1.1697857953335631e+02 -1.8133978977751730e+02 -3.3986551403122817e+01  1.5592012992692275e+02 -1.2443494898430760e+02 -7.7475663798323140e+01  1.2017938834072145e+02 -1.3251100550815590e+02 -5.0363137772772475e+01  1.2715289131205330e+02 -1.3909008248784315e+02 -8.0266946669876535e+00  4.9764223450631320e+01 -7.8390859234167863e+01 -3.1942994360582055e+01  7.9128564264372812e+01 -6.6492641278734268e+01 -1.7043518882279333e+01  6.2045215529350841e+01 -6.3721295703365207e+01 -9.3382345311430015e+00  6.5605590316729760e+01 -7.0307728189292931e+01 -2.1565492220369464e+01  4.8052007388300581e+01 -6.3269838803444699e+01 -1.9102883485895060e+01  6.8580564780929976e+01 -6.6014951260155613e+01 -2.7104906379372736e+01  4.5712788457776533e+01 -5.4901030403802352e+01 -9.2753934861703158e+00  6.2668757256319246e+01 -6.2057693316872211e+01 -1.9744852740874403e+01  7.7274475874165333e+01 -6.6810512779898161e+01 -2.6767229249684920e+01  7.9838995804446185e+01 -6.7805093133983561e+01 -1.0198128661953422e+01  7.4503076293682355e+01 -1.0523481641484811e+02 2.4019952891380335e+01  7.4724431294129957e+01 -9.2182947759268046e+01 -3.6740932639556299e+00  7.4574075038168615e+01 -9.1365020625839676e+01 1.2880821737387061e+01  6.5395090591188463e+01 -9.0467926589437496e+01 -1.5122912063002921e+01  6.6543221573780201e+01 -1.0520536022281451e+02 5.3749510272812628e+00  6.5653172157885237e+01 -1.0889002762354343e+02 -1.0394216537948315e+01  7.7654913988729476e+01 -8.1617092642679069e+01 5.0029922855637521e-01  4.1516206106898288e+01 -4.9807785386359328e+01 -4.6356750317617930e+01  7.2185541314173051e+01 -6.5668290281997272e+01 -4.0972213621216724e+01  5.2110530677363215e+01 -5.2902763705834914e+01 -3.1741795804345237e+01  4.7234469721877588e+01 -5.0069775913293498e+01 -6.8509852521618555e+01  6.3648904609098388e+01 -6.6505906223600377e+01 -4.6462545191498769e+01  6.1338861505724630e+01 -4.1397451687342702e+01 -8.6957922161001122e+01  5.7849315321367627e+01 -5.0638660341624600e+01 -4.9082392802110078e+01  6.7502260891186765e+01 -5.3398693376284413e+01 -6.2006337839628799e+01  8.3056200867747052e+01 -7.5337562112894616e+01 -5.8018910674165127e+01  5.9577871666861611e+01 -5.6709572382732674e+01 -2.6258749533568515e+01  8.1738772603313279e+01 -8.8162757297742601e+01 -6.5240732592568822e+00  7.5718588060673142e+01 -1.0230737359053923e+02 9.5015690867597460e+00  7.6048794554751169e+01 -9.8332471776743432e+01 -6.1814989409602088e+00  7.9107904637322065e+01 -1.0010213909400542e+02 1.7758684956812587e+01  6.4311383131409585e+01 -1.2275887526681036e+02 1.2943730517502484e+01  6.8687716816818224e+01 -1.2595604362119691e+02 3.8755427072783860e+01  8.2981772802914875e+01 -9.3198672193674369e+01 -9.2032544449250224e+00  1.0288758190260666e+02 -7.6565036785204896e+01 5.1371536582919987e+01  7.3311546144683504e+01 -7.2298388575563848e+01 2.0404683789402203e+01  9.1322581069115614e+01 -7.1029183879395916e+01 2.6512316956296171e+01  8.8649464382757699e+01 -8.0202558595282085e+01 2.6249284584078875e+01  7.9327377154212073e+01 -7.1120016272133057e+01 5.3617208396260683e+00  7.9893181045656945e+01 -6.5867658433585873e+01 6.6615115635362265e+00  7.8638563662683055e+01 -9.7904031141302440e+01 -3.7346136402434695e+01  6.8008275041787783e+01 -1.0762866016618283e+02 -8.2805485712049052e+00  7.7594731797242147e+01 -9.7321223808789824e+01 -1.8327831137958377e+01  6.9455800825047262e+01 -1.0547856581155871e+02 -2.2501633674258638e+01  7.7627530753499173e+01 -1.0313566841730466e+02 -1.6417494474647921e+01  6.8797224007278018e+01 -1.1489075696931808e+02 -9.4817638340115646e+00  7.7084735397183152e+01 -1.0072618666196952e+02 -1.1456778322988427e+01  5.9028384850290145e+01 -6.1674897184226857e+01 -2.5846238217223110e+01  5.2583322286137488e+01 -6.6244254967601975e+01 -3.4083264761854174e+01  6.5691099143150538e+01 -6.8956827914489722e+01 -3.0253341507965448e+01  4.3532903748557828e+01 -5.3882428247404114e+01 -2.4398406017427483e+01  5.6129290962197437e+01 -5.4882047915995223e+01 -4.0669276386372964e+01  6.7009679411238849e+01 -6.3805169463792303e+01 -4.4807125704831080e+01  1.2877954668007530e+02 -7.7021008080507443e+01 -5.4125847207297589e+01  1.1184122283981220e+02 -6.8589453563143266e+01 -3.6828503872659752e+01  9.6350860811747268e+01 -7.5648645011075928e+01 -3.3150417495633221e+01  1.0345524800487284e+02 -8.1788813949796079e+01 -5.0870887480995535e+01  8.7433459811658054e+01 -7.6236175437074792e+01 -4.3788118603827542e+01  9.4239731246815836e+01 -6.8328596336308379e+01 -1.8552359994962877e+01  9.7092311332143211e+01 -6.9321084542209221e+01 -3.3019285320295175e+01  8.3055406711980112e+01 -7.2573022263278489e+01 -2.7328060778016535e+01  1.0393795686757119e+02 -6.6366440264543456e+01 -2.3662126081723724e+01  8.1037925086356722e+01 -6.8745875903129956e+01 -3.2871473444327002e+01  8.9882042703396635e+01 -6.8190533289530549e+01 -2.4090834306590338e+01  7.0757387362672375e+01 -7.7491238754996701e+01 -3.5096347893513709e+01  7.4138245847656862e+01 -7.2699581084045164e+01 -4.1028468389182869e+01  7.2357096408196625e+01 -6.5454091521946083e+01 -3.6753589754439446e+01  7.3406321303614618e+01 -9.2936579100218751e+01 -5.2664093744195313e+01  7.8348032013523280e+01 -7.5931012404330900e+01 -2.6968607920289127e+01  5.9124398822891102e+01 -8.9199590262442499e+01 -4.3975993657741206e+01  8.7090347350037973e+01 -8.4658815753724070e+01 -4.5736882458594522e+01  6.3955234125473289e+01 -6.0610376575297515e+01 -2.7793178014101865e+00  7.8191366897168820e+01 -6.6082619811232846e+01 -1.0306113379226051e+01  8.0973944081224076e+01 -6.4228282025468602e+01 -1.4830684751278664e-01  1.0376542185634396e+02 -8.7969149341874669e+01 -5.3573546426229768e+01  5.5103169075722533e+01 -6.6961229821403634e+01 -1.2552754855548102e+01  5.3338018261906676e+01 -5.4293806765348414e+01 -1.5556441257647444e+01  6.1349233732943198e+01 -6.1130579943700603e+01 -3.6297026117294145e+01  6.7418422690224162e+01 -6.3299158377490649e+01 -2.4850849821692854e+01  6.4590676716969710e+01 -6.2537935247296751e+01 8.7059918272590817e+00  6.7714197707463569e+01 -6.3728604456493251e+01 -6.8011850107228140e+00  4.8787354554612591e+01 -5.1435238170854042e+01 -2.2800415071282223e+00  3.0344321700089374e+01 -3.7676294456313663e+01 -2.5547105860774128e+01  1.1100627701891561e+02 -1.3502390103590469e+02 -6.3075432191117926e+01  1.5022407250928151e+02 -9.0073496506194644e+01 -4.6505083406920825e+01  1.6258478944693971e+02 -1.0107635545117867e+02 -7.2209283161255158e+01  1.6420258518193350e+02 -1.1461304841584987e+02 -7.1657825095240071e+01  1.2821930409777457e+02 -1.1983269794111526e+02 -7.5990333151372468e+01  1.3021399080907960e+02 -1.0916306250530562e+02 -7.1874018313764580e+01  2.0261384555639796e+02 -7.4260178123682053e+01 -8.6661187629658798e+01  1.1831303809383279e+02 -6.4584548595401657e+01 -2.7197262968581079e+01  1.0745081209750327e+02 -7.0998325328536595e+01 -2.2916460711178736e+01  1.3111166318706904e+02 -6.9300367155250385e+01 -4.2045433591740704e+01  1.3753622648220761e+02 -6.4533614091845365e+01 -3.4446698544629562e+01  9.2054703424499039e+01 -6.8887399209058330e+01 -4.7029502486342821e+01  8.3752040153280447e+01 -6.9357252063349264e+01 -3.8190698236582030e+01  7.9421672134203234e+01 -6.9449802310892593e+01 -4.9427084871122439e+01  8.7393082872293633e+01 -7.0245677744311422e+01 -5.0229495088210200e+01  7.4456844610504632e+01 -6.9345750201024117e+01 -6.0329468768798131e+00  9.8778103838930051e+01 -7.2113134759183495e+01 -1.0430293140359250e+01  1.5786522543730734e+02 -1.2572025238163208e+02 -5.2293293911308957e+01  2.0296886417091565e+02 -9.5887871793926777e+01 -5.2951731308941966e+01  2.1457922906240549e+02 -8.6889893218702341e+01 -9.0470504696481598e+01  1.2585340288250985e+02 -6.4312095274048716e+01 1.6896262999893708e+01  1.1352536396204971e+02 -6.5395828414852829e+01 -4.1845072235163476e+00  1.0346588960488897e+02 -6.5779712207164351e+01 3.0191909338096479e+00  1.0082312864131758e+02 -6.6271740341308742e+01 1.3957299804918836e+01  9.0885471874811230e+01 -6.7114357554964599e+01 -8.0340561953614724e+00  7.6456158249636687e+01 -6.9964419203984050e+01 -4.2973266255428427e+01  5.8000430620466439e+01 -7.2463423839252144e+01 -1.3695951174327151e+01  7.5203152451810894e+01 -8.4222261531608765e+01 -1.7228909558877042e+01  7.1554897911898266e+01 -7.9638975780068307e+01 -2.9404972684942845e+01  6.9182643687729140e+01 -1.1650735263757639e+02 2.7144709702860784e+01  6.6814757404037451e+01 -7.0491979210676831e+01 -1.9961924756068758e+01  6.1415348121084300e+01 -5.9154995096689191e+01 -2.5403296914049182e+01  5.4477754121950852e+01 -4.6232096497886417e+01 -4.5702661353662968e+01  6.9202263549710977e+01 -6.7246385439734809e+01 -4.7703031909501526e+01  7.2784029957952271e+01 -7.0838471443166625e+01 -5.4699953396423354e+01  1.3677932452533526e+02 -8.7644604275773034e+01 -5.8766369345125106e+01  1.1590269262386242e+02 -7.8871375318405654e+01 -4.1747777201051328e+01  9.8664407013049157e+01 -1.0761866865534867e+02 -6.3811526838704694e+01  1.3915111889603688e+02 -7.7456873162370229e+01 -4.7382959141597674e+01  3.7506496688670424e+01 -4.3405927982029354e+01 -9.2912161505346571e+00  8.5497811384724088e+01 -7.6300387671831686e+01 -4.7665293298544192e+01  1.6036092909886500e+02 -7.0933541695850465e+01 -5.3834205745969292e+01  1.9044158878133857e+02 -6.6006274140141699e+01 -7.4683545690049371e+01  1.5442319210366625e+02 -8.9123683385303735e+01 -6.3527219708558498e+01  1.6629766063218815e+02 -5.8329464226893414e+01 -6.5472809622984187e+01  1.4972126370545041e+02 -6.2343583137700818e+01 -4.8857193938609505