<?xml version="1.0"?>
<VTKFile type="UnstructuredGrid"  version="0.1"  >
<UnstructuredGrid>
<Piece  NumberOfPoints="9068" NumberOfCells="41663">
<Points>
<DataArray  type="Float64"  NumberOfComponents="3"  format="ascii">35.04079055786133 32.21327972412109 33.65439987182617  35.53823510641473 31.92226205566144 33.18462052565665  35.09215927124023 31.8632345199585 33.10518455505371  35.02853012084961 32.23584938049316 33.27050399780273  35.47460595602411 32.29487691619611 33.34993996840568  35.10441970825195 31.84066486358643 33.48908042907715  35.16804885864258 31.46805000305176 33.32376098632812  35.01626968383789 32.25841903686523 32.8866081237793  35.46234551901239 32.31744657256818 32.96604409438224  35.90842135418689 32.37647410827113 33.04548006498518  39.89416122436523 29.22612953186035 34.76615142822266  39.57429858244544 28.87908441695551 34.96179848895014  39.89416122436523 28.8028450012207 35.0991039276123  39.89416122436523 28.86724472045898 34.68060493469238  39.89416122436523 29.16172981262207 35.18465042114258  39.57429858244544 29.23796922835688 35.04734498248042  39.89416122436523 29.09733009338379 35.6031494140625  39.57429858244544 29.1735695091186 35.46584397540034  39.89416122436523 28.50835990905762 34.59505844116211  39.25443594052563 29.24980892485341 35.32853853673818  38.87078857421875 37.69176864624023 33.95344924926758  39.47188448056896 37.18552369374935 33.79003224795687  38.96019815549572 37.23936814565365 33.8818367523514  39.08245468139648 37.54582977294922 33.6109790802002  39.38247489929199 37.63792419433594 33.86164474487305  39.29412078857422 37.3998908996582 33.26850891113281  39.17186426267345 37.09342927236263 33.53936658328401  39.59414100646973 37.49198532104492 33.51917457580566  39.89416122436523 37.58407974243164 33.76984024047852  39.04960773677269 36.78696764506707 33.81022425543522  37.71429061889648 31.30958938598633 37.71371841430664  38.30958633661031 31.18472513027046 38.12914721390573  37.88388061523438 31.42060947418213 38.13443946838379  37.7999095916748 30.99548435211182 38.02011489868164  37.88552856445312 30.6813793182373 38.32651138305664  38.39520530938863 30.87062009639595 38.43554369828073  37.9694995880127 31.10650444030762 38.44083595275879  38.05347061157227 31.53162956237793 38.55516052246094  38.4791763329482 31.29574521846627 38.54986826798288  38.90488205432413 31.0598608745546 38.54457601350482  31.57391929626465 37.62862014770508 31.39550971984863  32.41699563771257 37.79774973518988 31.3695816042818  32.01203938172968 37.33254264434378 31.37214685073928  31.8451644961706 37.59464286407034 31.09423661819533  31.74079418182373 37.36651992797852 31.67341995239258  32.14575043780662 37.83172701882461 31.6708547059351  31.90766906738281 37.10441970825195 31.95133018493652  32.3126253233657 37.56962679909805 31.94876493847904  32.71758157934859 38.03483388994415 31.94619969202157  32.11640969607655 37.56066558043561 30.79296351654203  39.89416122436523 28.33259963989258 30.17427062988281  39.52080353694676 28.23938458040852 29.85930396131727  39.25119762248916 28.31902135478968 30.32913432502428  39.45256851685571 27.814582636502 30.14061905465497  39.01097580934619 27.29656563311142 30.10696747942713  39.07921082943724 27.72136757701794 29.82565238608943  38.80960491497964 27.8010043513991 30.29548274979644  38.60823402061308 28.30544306968679 30.48399802016575  38.87783993507068 28.22580629530562 30.01416765645874  39.14744584952829 28.14616952092445 29.54433729275172  38.16693878173828 33.83240127563477 39.27764129638672  38.54129877982973 33.83577406347859 38.82875144726444  38.80857467651367 33.80350494384766 39.28738975524902  38.36537933349609 33.43305969238281 39.1883659362793  38.56381988525391 33.03371810913086 39.09909057617188  38.73973933158754 33.43643248022664 38.73947608715702  39.00701522827148 33.4041633605957 39.1981143951416  39.45021057128906 33.77460861206055 39.29713821411133  39.18293467460512 33.80687773169148 38.83849990612675  38.91565877792118 33.83914685132241 38.37986159814217  38.28754043579102 39.26924133300781 35.21352005004883  38.02538749261831 39.21144890658987 35.62887651410242  38.3018391941727 38.85318194533107 35.56893294667663  38.61059951782227 39.38745498657227 35.81841087341309  38.93365859985352 39.50566864013672 36.42330169677734  38.34844657464956 39.32966256015432 36.23376733746667  38.62489827620395 38.97139559889553 36.17382377004089  38.31613795255438 38.43712255765434 35.92434584330444  38.03968625099999 38.79538951891313 35.98428941073021  37.7632345494456 39.15365648017191 36.044232978156  36.63248062133789 27.96948051452637 37.93989181518555  36.71085671547679 27.40969135532783 37.77059044942213  36.25338211959726 27.69550168822859 37.80582780744995  36.64296531677246 27.64218521118164 38.08907127380371  36.65345001220703 27.31488990783691 38.23825073242188  36.33175821373617 27.13571252903005 37.63652644168653  36.72134141091136 27.0823960519831 37.91976990804029  36.26386681503183 27.36820638488386 37.95500726606812  35.87428361785663 27.42152286193081 37.67176379971436  36.7892328096157 26.84990219612929 37.60128908365871  35.57104110717773 38.15782165527344 39.89208984375  36.10644038472254 38.32393106594707 39.45637414621087  35.96285708699305 38.7131217397752 39.45637414621087  35.72647174153406 38.2929271139207 39.45637414621087  35.95100975036621 38.1888256072998 39.89208984375  35.80742645263672 38.57801628112793 39.89208984375  36.0438117980957 38.99821090698242 39.89208984375  36.1873950958252 38.6090202331543 39.89208984375  36.33097839355469 38.21982955932617 39.89208984375  35.88190237589039 38.42803257256797 39.02065844867174  36.94641876220703 34.55345916748047 39.34410095214844  37.62411089499317 34.94074495454524 39.4429781747327  37.13587542136036 34.94035967012141 39.16898372893192  37.54479974123398 34.59227559550891 39.18633001295412  37.43465423583984 34.5538444519043 39.61809539794922  37.92288970947266 34.55422973632812 39.89208984375  38.03303521486679 34.59266087993274 39.4603244587549  38.14318072026093 34.63109202353735 39.02855907375981  37.73425640038731 34.97917609814985 39.01121278973761  37.32533208051369 35.32726017276235 38.9938665057154  35.20320129394531 31.15176963806152 34.98698043823242  35.78186854022869 30.62848573034794 35.36204423649777  35.65476243791262 30.63173006078715 35.00452186846112  35.70763453143963 31.08512597387821 35.41756524785031  35.27743530273438 30.69512939453125 34.93145942687988  35.35166931152344 30.23848915100098 34.87593841552734  35.72899644670169 30.17508981725688 34.94900085710858  36.21206776893395 31.0184823096949 35.8481500574682  36.15919567540694 30.56508639660384 35.43510667807901  36.10632358187993 30.11169048351278 35.02206329868982  39.00642013549805 24.03589057922363 36.7138786315918  39.01233059461053 24.39433967019429 36.88962115743957  39.45029067993164 24.3214750289917 36.86345863342285  39.17356491088867 24.06231021881104 37.02668380737305  39.3407096862793 24.08872985839844 37.3394889831543  39.45620113904413 24.67992411996236 37.03920115927063  39.17947537000116 24.42075930978169 37.20242633322082  39.61743545532227 24.3478946685791 37.1762638092041  39.89416122436523 24.60705947875977 37.01303863525391  39.01824105372302 24.75278876116495 37.06536368328734  39.89416122436523 35.10208892822266 30.31151962280273  39.54538091734052 34.49240499395601 29.90186476283694  39.54538091734052 34.94993024725191 29.88610910945559  39.89416122436523 34.68869972229004 29.8988151550293  39.89416122436523 34.64456367492676 30.32727527618408  39.89416122436523 34.18703842163086 30.34303092956543  39.89416122436523 34.23117446899414 29.91457080841064  39.89416122436523 34.27531051635742 29.48611068725586  39.54538091734052 34.53654104131929 29.47340464168215  39.19660061031581 34.79777156628116 29.46069859610845  38.11120986938477 30.64794921875 30.9111499786377  38.60996067277937 31.0216178169557 31.18123099737505  38.46858024597168 30.87131500244141 30.78112983703613  38.19311904907227 31.11309432983398 30.94062042236328  38.27502822875977 31.57823944091797 30.97009086608887  38.69186985246687 31.48676292803968 31.21070144110064  38.55048942565918 31.33646011352539 30.81060028076172  38.82595062255859 31.09468078613281 30.65110969543457  38.96733104936628 31.2449836006471 31.05121085577349  39.10871147617397 31.3952864151614 31.45131201611241  36.66721499773695 24.83161409795436 37.90682271289907  35.95386977557595 24.95867119060198 37.21491586495475  36.14766025494255 24.98682037678231 37.82071731062585  36.06236193511949 24.49542718321948 37.61713193264467  36.47342451837035 24.80346491177403 37.30102126722797  36.27963403900376 24.7753157255937 36.69521982155686  35.8685714557529 24.46727799703915 37.01133048697356  35.45750887250203 24.15924026848461 37.32744115239027  35.54280719232509 24.65063346204743 37.53102653037145  35.62810551214815 25.14202665561025 37.73461190835263  37.56468634142218 31.20564709858988 34.41556262872378  38.40275614774531 31.17412237545654 34.41704613474262  38.39922414535102 31.51520765832875 34.6653032066655  38.28177773035543 31.7436684831775 34.62094970663449  38.99886911928867 32.28168986776513 34.82633678454521  39.11984753667855 31.71214376004416 34.62243321265333  39.11631553428427 32.05322904291638 34.87069028457621  39.23376194927986 31.82476821806762 34.91504378460722  39.23729395167415 31.48368293519541 34.66678671268434  39.24082595406843 31.1425976523232 34.41852964076146  38.94287872314453 23.46665954589844 34.97412872314453  39.04261776074571 23.96932457860727 34.83510751882494  39.61880493164062 23.86756038665771 34.74897003173828  38.84233280285996 23.67365406926889 34.63443155446947  39.14316368103027 23.76233005523682 35.1748046875  39.41851997375488 23.57188987731934 34.54829406738281  39.34344863891602 24.0580005645752 35.37548065185547  39.89416122436523 23.67712020874023 34.12245941162109  39.31797405347032 23.77888440068979 34.20859689870775  38.7417868825754 23.8
[...]
<PointData  Vectors="u"> 
<DataArray  type="Float64"  Name="u"  NumberOfComponents="3" format="ascii">2.4517069471790891e+00 4.7641438218250563e+01 -9.9156388486637340e+01  1.0666533855483268e+01 3.6204079507233914e+01 -7.1730925835142102e+01  -6.8977288778435319e+00 3.3591634925967021e+01 -6.7725061541244642e+01  -1.4092472030172671e+00 3.2937462300524416e+01 -7.2794020054370833e+01  1.3767252461708454e+01 4.4007123209305085e+01 -7.3636433352191489e+01  -8.8720967350037283e-01 3.9651255603510414e+01 -9.7630170464563676e+01  -2.6253647897944039e+00 2.2141276856681859e+01 -8.5978531530471642e+01  4.1629181981781332e-01 3.3453571167476376e+01 -5.8241337782620441e+01  1.0149069526947926e+01 3.6703457817346838e+01 -5.9117868285704169e+01  2.1643370488714346e+01 4.0130395636672191e+01 -5.5737468662022550e+01  2.0246530732916924e+02 -5.1810948858734591e+01 2.6584170892642231e+01  1.7158441688218576e+02 -1.0384158163629582e+00 -5.5025990455301939e+00  1.7685794729320938e+02 2.1949003815363235e+00 -4.7529251729169558e-01  1.7555103533455781e+02 7.6108106173647521e+00 -3.2493344778772606e+00  1.8249557321829121e+02 1.4336640791920978e+01 -1.3492718002215511e+01  1.6882657978455399e+02 -9.6576282984561885e+00 3.4742362792695101e+00  1.8635371233804801e+02 -6.2942709469389913e-01 1.1114769341954596e+00  1.8166137425048439e+02 3.2980073415122941e+00 -4.7010865599418636e+00  1.6811531394203664e+02 -1.6054467258540110e+00 -8.8502948200486639e-02  1.6900303515327843e+02 7.2198831545731652e+00 -1.0989639870586497e+01  1.6205439055292839e+01 -7.4764180028503571e+00 -1.9869414957260808e+01  3.8199848043058218e+01 -6.4292356981440095e+00 8.4041328512550206e-01  2.7238060015153263e+01 -2.4997604876034294e+00 -7.5806243831700337e+00  2.3092190452707449e+01 -9.3591707234255972e-01 -5.6604668616512246e+00  3.3966568617710344e+01 -2.7143226822959492e+00 -1.2951091958109023e+01  2.0780686861852601e+01 8.9089314921585583e-01 5.8757224836226554e+00  3.0066408181441641e+01 -8.3911662999097203e-01 2.0856917765784382e+00  3.1919809457299699e+01 -5.3822971109325426e+00 1.7365400800109320e+01  6.6387928082727981e+01 -8.6046805134234443e+00 -1.2844834275001565e+01  3.2873840153758564e+01 -2.6820302674566614e+00 4.3514811900242339e-02  2.3063106635216297e+02 1.8767009552629034e+02 1.0387123326301378e+02  1.0081456695148367e+02 8.6121008897062708e+01 7.4857988458605462e+01  3.9192688345403226e+01 1.2825441964065254e+02 1.2941983736233198e+02  2.5519065887404443e+02 2.0029688482749251e+02 1.5672655741441577e+02  2.2331287955586347e+02 1.2497392472420448e+02 1.7753397049090592e+02  9.2655923571978690e+01 6.1868696104319689e+01 7.6843626554907459e+01  5.3981373059769112e+01 1.0343457294616975e+02 1.0992381731138941e+02  4.1530882962651482e+01 7.5836047052105314e+01 6.3447985340280205e+01  6.8054514733398435e+01 5.6181590246980399e+01 4.5752197954049848e+01  8.1446961328960640e+01 4.0619068581069428e+01 1.6565747957474258e+01  9.1415755550678113e-01 -4.4568572378395714e+00 -4.8883431555764094e+00  1.4264892177955242e+00 -4.4564647688584937e+00 -5.0011621319242163e+00  1.1670627191216718e+00 -5.1694638955366967e+00 -4.4001398863690389e+00  1.0766701533897538e+00 -4.3158029433601239e+00 -3.7913588008788759e+00  1.2198527872629514e+00 -5.5581793469432306e+00 -5.5336068764233772e+00  1.0444702121121654e+00 -4.4510077575250167e+00 -5.7767655447187130e+00  9.4892958981424025e-01 -6.3235073671836179e+00 -5.6236151113846633e+00  1.1695687140178783e+00 -5.3890557672762016e+00 -6.3445561995648836e+00  1.0521565058127604e+00 -4.8726043275329003e+00 -7.1898635342280510e+00  1.5759412273732787e+00 -4.2336409679857168e+00 -3.1462070472925285e+00  6.1826891357896059e+01 -1.8279671063470495e+01 8.0507185846803395e+00  4.4288448203737119e+01 -1.2293645720442617e+01 -3.4245956059746607e+00  4.8046184337759946e+01 -5.4048204835666880e+00 -7.9744131695937064e+00  5.0159691831102734e+01 -1.5280634231608596e+00 -6.2121718436337527e+00  4.5527702668169496e+01 -5.9318709174307627e-01 -1.6206793998921349e+01  3.9238918671386472e+01 -2.5437437895962440e+00 -1.1808250036409843e+01  4.6932224815463925e+01 -9.5171829498210891e-01 -1.9215855415771916e+01  4.7445015879949842e+01 4.2200558434510538e-01 -2.2181908577241789e+01  3.9573285455732766e+01 -3.2190444908737459e+00 -1.5346664126776384e+01  3.2233252966672708e+01 -5.8048294090970876e+00 -8.2845925087795766e+00  2.6901618711306632e+01 -2.7643388165982273e+01 -5.7449158036968537e+00  2.8549462316239961e+01 -1.3439983590529216e+01 -7.8418389391265917e+00  2.3656347871136784e+01 -1.6254978514916480e+01 -1.1207689603915822e+01  1.3770695038672446e+01 -1.7359232144775280e+01 3.1884581447527602e+00  1.1065444250033620e+01 7.0256417938567601e+00 6.5309404921232508e+00  2.7765341697880753e+01 -4.6660066939134304e-01 -3.7023907022837519e+00  2.5485623210330093e+01 -5.6994550256954426e+00 -1.0493512222435834e+01  2.4265961824417182e+01 -9.3740572618195372e+00 -3.2251977664625308e+01  4.2361247105947200e+01 -5.8871083915194005e+00 -1.9229398407285601e+01  4.1874152843634867e+01 -2.9819168375001350e+00 -1.0640722994691915e+01  5.6094795329040274e+01 -3.0762981718034624e+01 -1.0309634616768736e+01  6.1316295362618725e+01 -2.6735732563292785e+01 -1.6578196744718166e+01  6.5960715170020435e+01 -3.9248184186111203e+01 -1.5123590061752985e+01  5.3456995826006320e+01 -3.4521327746390824e+01 -1.2907244300465774e+01  5.2268256369773084e+01 -3.5320507100764111e+01 -2.4111124536255168e+01  6.1041217467997875e+01 -2.7320198110581444e+01 -2.2846368672415490e+01  6.5594962970210688e+01 -3.9104625117329839e+01 -2.0253460778377026e+01  7.1227918929594821e+01 -4.1926993398655128e+01 -2.2073033879923511e+01  6.9062333805454060e+01 -3.3961018538493995e+01 -2.2748553770327170e+01  6.6049961913526218e+01 -2.2532119614558848e+01 -2.4323743106049299e+01  2.5184617133935933e+02 -1.9591884245002188e+01 -1.9462929831565290e+02  2.6834375837447323e+02 2.1314592885221785e+01 -1.4204106229250505e+02  2.1766145829883806e+02 7.6055034154998502e+00 -1.5627972545276222e+02  2.7921717713232101e+02 -1.3046324348793991e+01 -1.9067216326148025e+02  2.5157518328573366e+02 7.0860498530437726e+00 -1.8730040452111234e+02  2.3258096544935182e+02 3.1929184539831418e+01 -1.2647294587256866e+02  2.5973518811638928e+02 2.9447214346803367e+01 -1.5207464702226932e+02  2.1775342201610653e+02 1.2130274759994954e+01 -1.5055314611708900e+02  2.0349260363255013e+02 2.7135840744881989e+01 -1.2765701095691442e+02  2.7138089572807809e+02 3.8953395259236117e+01 -1.2002931637063176e+02  2.2089389516209624e+02 -1.7091668606698323e+02 3.5928368667235880e+01  2.1760798790215225e+02 -8.0654365407838526e+01 -7.9874336919394082e+00  2.4429240310548951e+02 -4.1232381254242782e+01 -7.2175778541654125e+00  2.6027935544053901e+02 -1.0656821069914071e+02 5.0935175061240727e+00  2.1611254428512456e+02 -1.0504380267709092e+02 3.9053444813922195e-01  2.5796535562314483e+02 -6.5574924651620151e+01 -5.1424029726720750e+00  2.0039697545231840e+02 -5.9716020589974939e+00 2.5998986569236853e+00  2.0818595609197496e+02 -6.2039222908748656e+01 1.0294697799455199e+00  1.8450265710502083e+02 -8.1939340513666579e+01 1.3608844944998510e+00  2.5865538117931681e+02 -7.7394242825207172e+01 -2.0865494754404384e+01  3.5713697099385165e+01 -3.2163294485453648e+01 -8.4849109430631096e+00  3.8128471615545060e+01 -3.4140448217638813e+01 -7.7717357432011207e+00  3.7380376029569938e+01 -3.7400503729103121e+01 -1.0554134899108352e+01  3.5752607523807590e+01 -3.0414112835446012e+01 -1.1487306038627631e+01  3.5062918859972463e+01 -2.9203457697620848e+01 -5.6380038465655318e+00  3.4280054459003928e+01 -2.6382900608776339e+01 -7.3306231050706205e-01  3.4698725942949359e+01 -2.7254866668421791e+01 -8.1885331202260865e+00  3.5294551367888424e+01 -2.6464456123584661e+01 -1.3056341762566705e+01  3.8747710301242932e+01 -3.3281465641641248e+01 -1.3765260499600965e+01  4.1625717280105356e+01 -4.2880583725208524e+01 -1.3645272073819507e+01  1.2471733669722022e+02 1.5432123968587717e+02 -3.4761871321332228e+02  1.8400819096071427e+02 5.5983398648867023e+01 -2.1623692403088481e+02  1.6029081134789186e+02 7.1612194053212761e+01 -2.2010407642115317e+02  1.9382565134098326e+02 8.5669798686611969e+01 -2.4837327523296170e+02  1.6911497389009074e+02 9.9670652731806726e+01 -2.5746187972354721e+02  1.4749291121436758e+02 4.5877794603325100e+01 -2.2359269668607556e+02  1.4529939593404512e+02 5.3545564282695075e+01 -1.9449965845591626e+02  2.2715300596046376e+02 6.3821649552331820e+01 -1.9153019424280143e+02  1.8320558948850453e+02 5.3919562243683878e+01 -1.7966162259797883e+02  1.4775936409753527e+02 5.4188116977914682e+01 -1.6506681777539666e+02  1.6102616036307984e+02 5.7836245746723087e+01 -4.2977875962685141e+00  2.1147593273322991e+02 7.7605362593896501e+01 -2.4398431170755458e+01  2.0646832790408786e+02 1.7181449204748034e+02 -3.0520320417535743e+01  1.4175899470702882e+02 7.1139793553842793e+01 3.1236259328446723e+00  1.3209988597782936e+02 7.3987825224349422e+01 -2.9329671851159187e+01  2.9257010310145358e+02 1.4345340457837091e+02 -4.6751823968793907e+01  2.0251458257582590e+02 9.5563513114480159e+01 -3.0347579491335829e+01  2.0504751992497418e+02 2.3554895419823481e+02 -1.4459168304867603e+02  6.6749075331380118e+02 2.1545300712360807e+02 -9.3163108149701586e+01  2.5918243579098800e+02 7.8258018844245839e+01 -2.8959062678049168e+01  4.3325031980873831e+01 -4.1228805638614208e-01 -2.1867207058460195e-02  4.2009362630860281e+01 1.5937974767752106e+00 3.5512496398688982e+00  4.2368038084413222e+01 1.1834941945358396e-01 2.5925414662387674e+00  4.6204266763887198e+01 -1.6335565031828096e+00 -3.9202356245829630e+00  4.2212336022481686e+01 -2.4552949187555916e-02 9.1355075992236093e-02  4.5000831866234762e+01 9.2867645982010882e-01 6.7593015630482700e-01  4.7084340924123602e+01 -2.0343939157253916e+00 -3.2611632764773075e+00  6.4240447074010504e+01 6.8488273327205196e+00 1.7193578910849293e+01  4.0090652182015816e+01 4.8158737638689191e+00 1.3733564541865952e+01  3.5893578917655212e+01 1.3067886362446122e+00 4.4837837979080470e+00  5.5779074455949740e+01 3.7493732072752115e+00 -2.0805551447396454e+01  5.2899259421604050e+01 6.6387930847974284e+00 -1.5936198029926226e+01  4.9640538058147463e+01 6.6798845934019111e+00 -2.6182839462362001e+01  6.1710900038469788e+01 5.4787372926269891e+00 -1.5390476722257249e+01  5.6636167141139360e+01 7.1811274601564969e+00 -1.3442229267998533e+01  5.0546136046440402e+01 6.0577598379614033e+00 -1.3316573450835460e+01  4.7641053081119011e+01 6.9693664148479186e+00 -2.4537753686121594e+01  3.8958383091107422e+01 5.5515780194421591e+00 -1.8292772421063376e+01  4.8608127489727011e+01 4.1869661372154416e+00 -9.6996564256765883e+00  5.4705350633778281e+01 4.2244093636224100e+00 -7.1637366571663526e+00  2.8633372889289654e+02 7.2004850029479627e+01 -1.0572631703671236e+02  2.5932228731787234e+02 9.3771412765141946e+01 -6.9240513680551089e+01  2.4397815275373989e+02 8.1184154861863675e+01 -8.2015544342943443e+01  2.6330703586428240e+02 1.0355496288985009e+02 -6.7637402620959136e+01  2.8523245686493925e+02 8.3969119673362584e+01 -7.6186404884887608e+01  2.8167613139694191e+02 9.6669239901495359e+01 -7.0742833623937415e+01  2.7429207664102717e+02 1.1901178400219599e+02 -6.1994113661878387e+01  2.4858523303405971e+02 1.3878341515056633e+02 -4.1608307171845951e+01  2.4363217041089069e+02 1.0651298722795808e+02 -5.1873241770300460e+01  2.3318902945299459e+02 8.6106074490648624e+01 -6.2206365012360571e+01  1.0632279445449448e+02 4.4956865166553250e+01 -6.3469548222199990e+01  1.0875664345969800e+02 3.1751235934018805e+01 -3.5690772794153943e+01  1.0929096715142678e+02 3.5155392525691013e+01 -3.1845236066257620e+01  1.0494943842490342e+02 3.7860217687145649e+01 -3.3418813731735490e+01  9.2528791069758427e+01 2.3439085504543495e+01 -1.0802552437671030e+01  1.0219561866617457e+02 1.8574701420606200e+01 -1.3723728203969170e+01  9.8571502599696871e+01 2.0422456867478296e+01 -1.1210607467310275e+01  1.0493058631897563e+02 1.7703361306133345e+01 -1.0246450428954370e+01  1.0809070983007959e+02 1.6805317634340682e+01 -1.2552086965203246e+01  1.0995034618072673e+02 1.7945686925591421e+01 -1.4411343054195763e+01  1.5568249409553195e+02 3.8310584380747974e+00 -1.0608223353969878e+02  1.9344312059098243e+02 4.4389771180098151e+01 -9.4159152760927356e+01  1.5492930145271291e+02 9.4692691180335672e+01 -1.7237896615315955e+02  1.8727310705076573e+02 9.5365852453780349e+00 -9.3704187016981408e+01  1.6148017485174566e+02 5.3223223021870702e+01 -9.9765577347592810e+01  1.6613257146362898e+02 6.0573568253317745e+01 -1.2120652620053156e+02  1.3693878858947861e+02 8.3313872739291924e+01 -9.7550128600275372e+01  3.5641612566273926e+02 7.9610753222639019e+01 -9.6614518457419365e+01  2.0044704716575637e+02 4.1157121274999852e+01 -9.4306724236527515e+01  2.0398248103721792e+02 1.0146151387120716e+01 -8.5827190521712510e+01  4.3776652631109351e+02 -1.5360881167667293e+02 -1.7579397240610117e+01  3.7027252876853265e+02 3.2638826239748902e+01 -1.6493404039742916e+01  3.8221024129801879e+02 -5.9223280169434513e+00 -2.4387856095196334e+01  4.9411055405890704e+02 1.6768189861767180e+01 -3.6007086820125870e+01  4.9305349098511141e+02 -1.1086247967819389e+02 -4.4405699999160504e+01  5.1162521090505930e+02 4.5108561187248934e+00 -1.0555238382509209e+01  5.0227137788491444e+02 1.4779921557809229e+02 -8.2252106526195483e+00  4.5817118235444087e+02 1.4049514413432979e+02 -3.2808891550705624e+01  3.6714780787443271e+02 4.5200351278577628e+01 -2.8596035734353208e+01  3.1978644688520711e+02 4.6195118447636297e+01 -2.1926966438908952e+01  -1.3339122361781342e+01 5.1280373044740443e+01 -1.3819335975041471e+02  1.6944744680098371e+01 7.8538406927506969e+01 -1.3865881054878486e+02  1.4699632676380887e+01 5.8998607251870006e+01 -1.2380183322464636e+02  -8.4953407987188587e+00 5.8478699909085975e+01 -1.2084955898962998e+02  -2.2696199534186917e+01 7.4847272555339217e+01 -1.4668519903793850e+02  -3.7112777204110408e+01 9.5179506964683512e+01 -1.6182816385071342e+02  -9.9508899772274972e+00 7.6810079148039677e+01 -1.2616945090139006e+02  6.9478030532565835e+00 4.1041084967598124e+01 -1.0491103354122303e+02  2.7548711197823557e+01 5.5454669225535859e+01 -1.1157397089408433e+02  3.6872746876838995e+01 6.4853850669439581e+01 -1.0953431800102463e+02  1.9868635657466921e+01 -2.5032956054682129e+00 -4.0566578628787214e-01  1.4483270608963862e+01 -6.7186768952674996e+00 2.4302268159919351e+00  1.5730877398045596e+01 -4.5868887598348218e+00 -9.6665781274993604e-02  1.9539805578010125e+01 -6.2741414401352582e+00 7.3694615609538194e-01  1.8964822552463254e+01 -5.3943155608947846e+00 2.4049095618409453e+00  1.8645505516017622e+01 -9.2213500443875880e+00 1.1409508384188096e+00  1.5038150973254988e+01 -7.3836267439690761e+00 5.0782657754821092e-01  1.8214912399147661e+01 -8.1732520736838818e+00 3.7991791232291199e+00  1.7302669864373122e+01 -8.2088248758272861e+00 6.1965339881956627e+00  1.1946395420291481e+01 -5.9934999800053701e+00 -3.1257494644655420e-01  -6.7769761246619109e-01 2.6859841652052036e-01 3.2161134660288537e-01  -1.4129550337327357e+00 -4.7057387678013929e-01 1.4011412690386362e+00  -9.2625014325300814e-01 -3.0950945599296353e-01 8.8559908951112987e-01  -2.1718039097143644e+00 3.3943787202535980e-01 8.8462201286295550e-01  -1.4676555489711989e+00 5.1435392550289782e-01 4.9074458513336383e-01  -2.6448747270263988e+00 2.0762473555013805e-01 2.2664517227435144e+00  -3.3390481554905653e+00 -5.1164318313508450e-01 2.5060098268703292e+00  -3.5627146123618996e+00 -1.0573004327791318e+00 2.3796226442623611e+00  -1.6221460804445040e+00 -9.9796208231703154e-01 1.6244265007040517e+00  -5.7769711804906076e-01 -9.5928894107562690e-01 1.1884604966401420e+00  1.1594497044978494e+01 -5.8759777953115364e+00 -9.7072530657162232e-02  1.5820668767885710e+01 -2.8589887093564919e+00 -2.5184739378670149e+00  1.3180476220515189e+01 -5.9429732312804946e+00 -3.7104703209346184e+00  1.5751840374947539e+01 -5.6080119189956568e+00 -8.2754975843162781e-01  1.0600269009144348e+01 -2.5209450037082632e+00 -6.2917159966116876e-01  1.3747565685360698e+01 -8.6845885690395388e+00 -3.5328268426431211e+00  1.3913237644541343e+01 -1.2777289336354411e+01 -6.4906857076590816e+00  1.7470837474333901e+01 -1.0369153096722112e+01 -4.2450827221748204e+00  1.1153224966065860e+01 7.2515787037322987e-01 -3.2250621781886419e+00  2.0732910198729041e+01 -6.6701085679977412e+00 -2.0178368917700023e+00  -7.2868997944150493e+00 -1.2237608246346033e+01 1.5755193697504856e+01  1.2042932449281971e+00 -8.5852473949920523e+00 1.5553694189678525e+01  1.3654960874391999e+00 -1.1631217724003321e+01 1.4036268655142862e+01  -1.1940283329893937e+00 -9.7703599951108657e+00 1.1527460792302634e+01  -3.1122269494861734e+00 -9.6477926952016109e+00 2.1309313537242680e+01  1.5464734596872527e+00 -1.0592178752009040e+01 2.4027207956881579e+01  -4.3487050196281825e+00 -1.5914011132839819e+01 2.2074287282301942e+01  -2.3422707779939381e-01 -1.6082029668480438e+01 2.2921492828102942e+01  2.0057437808595386e+00 -8.1887109302883019e+00 2.3409938828652354e+01  1.9847190996626731e+00 -8.0650707362370575e+00 9.1585194736380213e+00  6.9328879745600517e+01 4.2381424130256536e-02 -1.2333041949643891e-01  5.8552185301584160e+01 2.0674489462210421e+00 -2.5276510699357733e+00  6.2658878300230867e+01 2.6311157839880872e+00 -4.0385474941845052e+00  6.6216892402496867e+01 3.7210933882044896e+00 -6.5449309005508223e+00  6.5761722281308479e+01 3.1896252188178265e-02 -3.0203570353262543e-01  6.4469076058445125e+01 2.3696467923756653e-02 7.1874778189712740e-01  6.2300264587146216e+01 3.0830300303480493e+00 -5.0880136792777062e+00  6.0824911155546118e+01 5.8027091012798930e+00 -1.3376515015389460e+01  5.8144044547539544e+01 5.4286187870466875e+00 -1.0411731836762938e+01  1.3084946839313344e+02 7.2577246428094185e+01 -1.8256474135889570e+02  1.6729661037354697e+02 7.0137324231763856e+01 -1.4830258480370847e+02  1.6903561477794017e+02 2.3080504218491704e+01 -1.4370548984457648e+02  1.6495944612324266e+02 8.1815867185749696e+01 -1.2650930432879355e+02  1.8256683360148037e+02 8.4723534654812738e+01 -9.5989510104925344e+01  1.8843586204177956e+02 3.6017410922183714e+01 -1.3321513097796051e+02  1.9041675469901332e+02 7.8087601579754775e+01 -1.1656361042123709e+02  1.7478445520025306e+02 3.6541871046442068e+01 -1.2003965742415488e+02  1.8025327835722604e+02 5.1488451229525793e+00 -1.3181567399614462e+02  1.9448839908211153e+02 6.9239824083913987e+01 -1.2707558330165831e+02  1.2184974559081432e+01 2.8599757427833268e+01 1.1887756546434952e+01  2.1677740994635908e+01 4.9988041106389902e+00 -4.2442574317432884e+00  2.9573029920570587e+01 1.6418881601122440e+01 2.0395012676310396e+00  2.1481251062230189e+01 7.7753981829814629e+00 4.8247768250594036e-01  5.0988792938167800e+00 2.5607825074029847e+01 4.6281119623489611e+00  5.5394166088599270e+00 2.0104163226747851e+01 3.5701015826023197e-01  2.9307447237271077e+01 1.5366817707239354e+01 -5.0887236591274954e-01  3.2190038635667200e+01 -1.1701440851307578e+00 -3.5279202543256099e+00  3.5579619840961101e+01 3.9744161036595722e+00 -1.8809667557498946e+00  4.0160415879191035e+01 8.8060571053779793e+00 -2.7501862030578444e-01  1.5779283232160000e+02 1.8113617938303781e+02 5.7278559802949886e+01  1.1119353118015508e+02 8.5073202883159979e+01 2.4490738974225614e+00  1.4830973394312682e+02 1.1713678498357150e+02 3.2197173952195044e+01  8.7456136400635515e+01 6.4189364302569103e+01 7.6850129600617052e+00  3.0044829042208363e+01 1.1818282396924866e+02 4.8534724415342518e+00  4.9440813745908336e+01 -4.5293473908529398e+00 -5.4932575312935455e+01  9.9712537401662047e+01 1.5514445291915900e+01 -2.9713026615031318e+01  1.0971928623548770e+02 1.1306106533469855e+01 -3.6536427751832186e+01  1.2108499473373645e+02 5.2673235667721926e+01 -1.1220047618722687e+01  1.5153639410190019e+02 8.4997758707927446e+01 1.3240788922529029e+01  2.5644145276662761e+0