<?xml version="1.0"?>
<VTKFile type="UnstructuredGrid"  version="0.1"  >
<UnstructuredGrid>
<Piece  NumberOfPoints="9380" NumberOfCells="42873">
<Points>
<DataArray  type="Float64"  NumberOfComponents="3"  format="ascii">39.89416122436523 23.64730072021484 31.08106994628906  39.3225218353681 24.28324800496666 31.40071236505224  39.08982089598655 23.62915056202875 31.33548326329699  39.08982089598655 23.93852537129388 31.73495359258166  38.28548056760786 23.61100040384265 31.58989658030493  39.89416122436523 25.79088020324707 30.64838981628418  39.32662677670834 25.61809038621552 31.07039223990809  39.32662677670834 25.88451551896699 30.66719685874354  39.32662677670834 26.18891024095185 31.14587651572596  38.75909232905145 25.9781508346869 30.6860039012029  39.32662677670834 25.2980906913913 30.75344716391932  38.26087644809021 26.69984770870887 30.13703003261581  38.67875823985113 26.15358723921515 30.16314116005246  38.88503406919882 26.63735823389916 30.39648569031502  39.01097580934619 27.29656563311142 30.10696747942713  38.8046999799985 26.81279463842741 29.87362294916458  38.59842415065082 26.3290236437434 29.64027841890202  39.89416122436523 27.20146942138672 30.73483085632324  39.45256851685571 26.89546756997368 30.12397362313642  39.32662677670834 26.58981012803681 30.71041737876307  39.89416122436523 26.84791946411133 30.43790531158447  39.89416122436523 26.49436950683594 30.1409797668457  39.32662677670834 26.23626017076142 30.4134918340243  37.76884841918945 26.81764030456543 29.61537933349609  37.96407756909983 26.19478144467443 29.7647889058011  38.18363628492014 26.57333197415441 29.62782887619905  37.54928970336914 26.43908977508545 29.75233936309814  37.32973098754883 26.06053924560547 29.8892993927002  39.08982089598655 23.44998567555414 31.85363359288684  39.89416122436523 27.29850959777832 30.18642044067383  39.89416122436523 27.39554977416992 29.63801002502441  39.89416122436523 26.94495964050293 29.88949489593506  38.04441165830013 26.01934504014618 30.28765164695155  37.03807067871094 25.33995056152344 30.35730934143066  37.32056594238087 25.22941106787484 30.64192561735435  37.02406120300293 25.03728485107422 30.69421005249023  37.01249122619629 25.27920913696289 31.11663055419922  37.01005172729492 24.734619140625 31.0311107635498  37.30655646667286 24.92674535742562 30.97882632841392  37.6030612060508 25.11887157422623 30.92654189327802  39.89416122436523 26.49617481231689 30.69161033630371  39.89416122436523 26.1426248550415 30.39468479156494  38.38991211426782 27.05710296883842 29.86117340646161  38.88113021850586 35.38135147094727 22.06880950927734  38.88750172562009 34.73355448198606 22.3124538865093  39.23108863830566 34.98581504821777 22.36330032348633  38.77924252457029 35.11309015703489 22.39038338327443  38.98938941955566 35.00181579589844 21.99088001251221  39.12282943725586 35.3653507232666 22.44122982025146  39.36452865600586 35.34934997558594 22.81365013122559  39.02094174332029 35.09708940935423 22.76280369424855  39.09764862060547 34.62228012084961 21.91295051574707  38.67735483063471 34.84482884312251 22.71195725727152  38.21146011352539 32.85988998413086 25.64524078369141  38.997790497984 33.11017686093586 25.81180930671881  38.771240234375 32.92330551147461 26.14447498321533  38.46484565734863 32.63723564147949 25.87420558929443  38.69139592095763 32.82410699094074 25.54153991279792  38.51785469055176 33.14595985412598 25.9155101776123  38.82424926757812 33.43202972412109 26.1857795715332  38.71823120117188 32.41458129882812 26.10317039489746  38.94478146478087 32.60145264828937 25.77050471840094  39.17133172838988 32.78832399775062 25.43783904190442  34.75746917724609 31.61702919006348 22.11128997802734  34.96962031121171 31.70495792484995 21.35768502045448  35.11820801586872 31.86186848742515 21.93397291465217  34.70867928356891 32.05425797564537 21.59860285087044  34.34794044494629 31.80941867828369 21.77591991424561  35.47894685449135 32.10670778478683 21.756655851277  35.33035914983434 31.94979722221163 21.18036795707931  35.73963339225408 32.51652886671918 21.07611710820538  35.06289421902434 32.472179448555 21.38974435699062  34.60824607335081 34.94585524769541 21.92918466615566  34.28271577702453 35.16601796954732 21.31068635375821  34.36959479173616 35.40283003799559 21.76681315607672  34.82534041692509 35.18549822065553 21.2774348165179  35.04243476049936 35.42514119361567 20.62568496688014  34.49981012059881 35.40566094250745 20.65893650412045  34.58668913531044 35.64247301095571 21.11506330643896  34.1309435101215 35.85980482829576 21.60444164599777  34.04406449540988 35.6229927598475 21.14831484367927  33.95718548069826 35.38618069139923 20.69218804136077  39.89416122436523 37.34516143798828 26.13582038879395  39.47420849993436 38.00666947994764 25.72187891563792  39.47420849993436 37.50932069454725 25.77375403007884  39.89416122436523 37.49211120605469 25.73282527923584  39.89416122436523 37.84251022338867 26.08394527435303  39.89416122436523 38.33985900878906 26.03207015991211  39.89416122436523 37.98945999145508 25.68095016479492  39.89416122436523 37.63906097412109 25.32983016967773  39.47420849993436 37.65627046261366 25.37075892052074  39.05425577550348 37.67347995110622 25.41168767136374  38.8188923193761 33.86580640215719 22.75098396067709  37.8330026399415 34.24656545710513 22.4820726277691  38.27954660645023 34.03344909981294 23.06386823267908  38.32098823804124 34.42439065144168 22.68624374216618  38.37234835286736 34.07892275944937 22.1691883557671  37.92580438635863 34.29203911674156 21.58739275085712  37.8744442715325 34.63750700873386 22.10444813725619  37.82308415670638 34.98297490072618 22.62150352365526  37.78164252511537 34.59203334909743 22.99912801416817  37.74020089352436 34.2010917974687 23.37675250468108  36.38518823492192 32.31526005147992 22.49170785072072  37.1489839413108 31.37984215895746 21.97738560059116  36.81625455794936 31.23838619756273 22.53896188690123  36.77576003179165 31.96990806212931 22.82908090840765  37.10848941515309 32.11136402352404 22.26750462209759  36.42568276107963 31.58373818691334 22.20158882921429  36.46617728723734 30.85221632234675 21.91146980770786  37.16633182866138 31.6245560727787 23.16645396609459  37.49906121202282 31.76601203417343 22.60487767978452  37.83179059538426 31.90746799556816 22.04330139347446  36.026853500484 33.37420932960789 21.3600873871377  35.63747990565724 32.6960698939304 22.21096692133201  35.75290017748767 32.74045855719736 21.55837161920735  36.20602086770296 32.8447346905439 21.92589761892921  35.91143322865358 33.32982066634093 22.01268268926236  35.93206754470663 32.21098391813337 22.12418185099886  36.09060059587253 32.80034602727694 22.57849292105386  35.79601295682315 33.28543200307397 22.66527799138701  38.83012219774152 31.74156057651599 23.35257845636281  37.86162571680981 31.19823850292175 22.58827480142958  38.36079151798843 31.11528479339567 23.24291333287376  38.9329994696331 31.46146303789541 22.92454172224647  38.33095639656289 31.82451428604208 22.69793992491864  38.43383366845447 31.54441674742149 22.26990319080229  39.03587674152468 31.18136549927481 22.49650498813012  38.46366878988002 30.83518725477508 22.81487659875742  37.89146083823535 30.48900901027535 23.13324820938471  37.94187927246094 30.99961090087891 24.45389938354492  38.4521604728662 30.71241770737614 24.15579328338672  38.200439453125 30.82614517211914 24.66660499572754  38.04195404052734 30.62977027893066 24.41481494903564  38.14202880859375 30.25992965698242 24.37573051452637  38.71072065353026 30.53895197861637 24.36849889556934  38.5522352409326 30.3425770854279 24.11670884887744  38.30051422119141 30.4563045501709 24.62752056121826  38.45899963378906 30.65267944335938 24.87931060791016  38.96244167327145 30.42522451387337 23.85768718322852  37.93942883496791 37.72658920308131 24.86314258897129  38.45277021598069 37.86534997387707 24.46186906078512  38.46788787861135 37.32285822970903 24.43807109358159  38.10293182492923 37.71973333686539 24.21584302812702  38.26643481489054 37.71287747064946 23.56854346728274  38.616273205942 37.85849410766114 23.81456949994084  38.63139086857267 37.31600236349311 23.79077153273732  38.99634692225478 36.91912725633676 24.01299959819189  38.98122925962412 37.46161900050479 24.03679756539542  38.96611159699346 38.00411074467282 24.06059553259895  36.17031860351562 35.33715057373047 20.03672027587891  36.62557152681166 35.66208885436017 20.61276385921496  36.86393547058105 35.70915985107422 20.31902980804443  36.62821006774902 35.28335571289062 20.17234992980957  36.40604400634766 35.76295471191406 20.18340015411377  36.16768006257826 35.71588371520001 20.47713420528429  36.64176940917969 36.18875885009766 20.33008003234863  36.40340546541029 36.14168785338361 20.62381408351916  37.08610153198242 35.22956085205078 20.30797958374023  36.1650415216409 36.09461685666956 20.91754813468968  36.16524101974056 37.41779748889144 23.45452500540751  36.74713244863473 37.11919096359217 24.55163097334955  36.77881249792878 37.08621527474861 23.84848160811207  36.16854007058681 36.94063572696753 24.13164802156435  36.13356097044651 37.450773177735 24.15767437064498  36.10188092115246 37.48374886657857 24.86082373588246  36.13686002129276 36.97361141581109 24.83479738680182  36.17183912143307 36.46347396504363 24.80877103772118  36.78211154877503 36.60905351282471 24.5256046242689  37.392383976117 36.75463306060579 24.24243821081663  36.71489133848101 31.92788076167086 20.90267669742536  36.61944142401823 30.97626563999933 21.04540715252924  36.16719813719077 31.48285220235521 20.92861413019352  36.74379844964007 31.51409785966138 20.54101059738799  36.59053431285918 31.39004854200881 21.40707325256661  36.04284111156893 30.94501998269316 21.43301068533476  36.77270556079912 31.1003149576519 20.17934449735062  35.61950493590052 31.03782364303957 20.95455156296167  34.95724868774414 38.25611877441406 23.80796051025391  35.56534651752247 38.51064441229744 23.561381487
[...]
<PointData  Vectors="u"> 
<DataArray  type="Float64"  Name="u"  NumberOfComponents="3" format="ascii">7.7977622907622091e+01 3.4548233992459837e-01 3.6136123152543970e-01  8.9755142163440155e+01 -7.0972434368062420e-01 -2.2148903323028410e+01  8.2524997274694314e+01 -4.5800758362473806e+00 -2.7564343725327305e+01  1.0144341572619736e+02 -4.5749437574806393e+00 -3.2956666776259524e+01  8.9897045763202200e+01 -1.4178920245557165e+01 -6.5552909442352473e+01  6.4350442306634505e+01 -5.7771946875251667e-02 2.9668602171078473e-02  7.5341182214357659e+01 2.0076444833419482e+00 -1.8014211997727021e+01  6.3522821439336774e+01 1.4342115090484844e+00 -1.5588933583235523e+01  7.5529308697957205e+01 2.0520015331862393e+00 -1.7273797068861246e+01  5.8125624192444654e+01 2.8395452073472534e+00 -3.0758095005355809e+01  6.6430451601264750e+01 1.2466689779980771e+00 -1.6201438843948285e+01  3.9127202330686060e+01 8.2114269025458186e-01 -3.3100106074007414e+01  4.4851441979660784e+01 1.5046296656099489e+00 -2.6285380144176678e+01  5.1598785529854347e+01 1.3003394728203173e+00 -2.2846236727645660e+01  4.5527702668169496e+01 -5.9318709174307627e-01 -1.6206793998921349e+01  3.9687948682285580e+01 -1.8184967710785849e-01 -2.0191906175181899e+01  3.3955084083178029e+01 6.1493595247543031e-01 -2.2869219434110125e+01  6.3423105517587665e+01 -1.3903418927340522e-01 1.9163181663998705e-02  4.8967692216719612e+01 -7.1165451271844551e-02 -8.4620887318146547e+00  6.2015148451217101e+01 1.5074723965852697e+00 -1.4513249663981316e+01  5.6857542524483492e+01 -7.9680800894247117e-02 3.1451087853201681e-01  5.1243467147490776e+01 -1.7527626308155184e-01 2.0235335915133282e-01  5.5610356012924100e+01 1.0210172058380598e+00 -1.3447142646379319e+01  2.6011897409582687e+01 -3.6914379861346744e+00 -3.5834133227340423e+01  2.8622277629761481e+01 7.5583274299316106e-01 -3.4505774782323272e+01  2.9324878093585962e+01 -5.4277047933014660e-02 -2.9866581128275019e+01  2.3045353127924439e+01 -2.1231561151300568e-01 -4.0614495690352285e+01  1.9089377066931199e+01 -2.5708982888935457e+00 -4.2706250921331765e+01  1.0198442592874017e+02 -9.3911031907676428e+00 -3.2463403083513143e+01  5.2340763192386092e+01 1.5498286084592813e-01 -5.2391637608936081e-01  4.8852584944647596e+01 -4.1798494272834956e+00 5.7899288374806579e+00  4.5732755188469014e+01 5.6002890486405066e-01 -7.9898833698754623e-01  3.7152386512444345e+01 1.8194546745690747e+00 -4.0863550439438612e+01  6.4784914445322004e+00 -1.4860632691743780e+00 -5.5024333873989107e+01  1.8299735417046975e+01 4.3438262912164198e+00 -6.9686232011261211e+01  1.0205879611200657e+00 4.1600409755151651e+00 -7.8507870034896257e+01  2.8130825564149196e+00 1.4047036285231995e+01 -1.0222130805623380e+02  1.2200883546478122e+01 1.2506806461429626e+01 -1.1983102280456880e+02  2.7506226742853027e+01 1.1665826611067944e+01 -9.8663775707269778e+01  4.1491867401643262e+01 7.3923681166251249e+00 -7.8057615305517416e+01  6.3482882957510569e+01 -3.3503875645348596e-02 -8.2950820675062112e-02  5.7307064637293472e+01 2.6842937583086861e-02 1.0275055010699501e-01  3.6190216630647193e+01 -7.3132395446964138e-01 -2.7008588975891396e+01  8.6170693497166198e+01 -2.0305863973130780e+01 1.0070195802747271e+02  1.1787530077151277e+02 -3.6055289429743482e+01 1.0788834195883135e+02  1.1788976308693204e+02 -5.3780143124765402e+01 1.1791228845996719e+02  1.0575411914097499e+02 -2.7976104219452676e+01 1.0351733302790335e+02  9.1095211425088991e+01 -3.9038374005046663e+01 1.0571741048371962e+02  8.7424123065952685e+01 -3.6491073369187113e+01 1.1933987628996140e+02  9.5362006123142464e+01 -3.6150154999811996e+01 1.0935878284857824e+02  1.2011266370644242e+02 -3.6707608133754427e+01 1.0400812877849685e+02  1.1896874609560992e+02 -3.8903475212652246e+01 1.1747102623235124e+02  1.2396329814665364e+02 -2.5569538822642595e+01 9.5425877635002365e+01  6.9520157287824773e+01 -2.8994880759591595e+01 5.7216087689554733e+01  6.1183976284980531e+01 -1.5008074653269645e+01 1.6481853401510548e+01  3.4907883636083881e+01 -1.7927820906226732e+01 3.3025294471006660e+01  4.6289913617381806e+01 -2.3894136778109981e+01 4.7589440228510576e+01  6.8361343201763844e+01 -1.7842153356452108e+01 3.5539111653447236e+01  5.8986214816936815e+01 -2.3724560836811136e+01 4.6431957121998266e+01  3.7442950747224700e+01 -2.6138935217529390e+01 1.1148069337330814e+01  3.2045359934119354e+01 -1.5359803301281008e+01 3.0977729996447056e+01  5.6858986217725239e+01 -1.3767088665812553e+01 2.1570918325449057e+01  7.7787159646358717e+01 -1.0191406442491749e+01 1.4936876825332620e+01  1.5232798199187428e+02 -3.7410061580094613e+01 1.2238233486613304e+02  1.6596739641099626e+02 -4.9915844329419471e+01 1.0948228820155985e+02  1.5286081123331834e+02 -4.0138755350582457e+01 1.1623804520538073e+02  1.6983207901797985e+02 -4.7423346816058121e+01 1.2510394431195074e+02  1.6558440063263814e+02 -4.9806988450385873e+01 1.4091632552612850e+02  1.5285148710906532e+02 -3.8668561420498833e+01 1.0909337130335305e+02  1.6475813101228863e+02 -4.6786181358039876e+01 1.0675762128834953e+02  1.6176459278185143e+02 -3.7260851610575720e+01 1.0699926065490656e+02  1.7069800063505522e+02 -3.9811062584347589e+01 1.1839549157903205e+02  1.6180376584800794e+02 1.1841286415062503e-01 1.5480783513586439e+02  1.9823179091717174e+02 3.8903386863270066e+00 1.6001351685681121e+02  1.7331885435548929e+02 5.2082790834874535e+00 1.6373005311136600e+02  1.8376148590744373e+02 4.1242390405703544e+00 1.3976425976843754e+02  2.0141808505304726e+02 1.4589989210383658e+01 1.2619830687750900e+02  2.1293724244622391e+02 1.1090871399469874e+01 1.4411857218281656e+02  1.9590805428199766e+02 1.2994934102006571e+01 1.4338074567903456e+02  1.8669124153419583e+02 1.2294525815483830e+01 1.6885376014381026e+02  2.1225069102903697e+02 1.3012276367865352e+01 1.6721195212494194e+02  2.3144461837775935e+02 7.3442369436101425e+00 1.5996945753529698e+02  9.3149753088785758e+01 -3.3043385370183627e+00 -5.6651620924807611e-01  1.0623625823648206e+02 -1.7026668788904185e+01 8.2957965725997607e+00  9.6519334737352281e+01 -7.7654367260054631e+00 1.0439711478572665e+01  1.0224127269162226e+02 1.0650137687456425e+00 -4.6868323157625180e-01  1.0905645036952093e+02 3.2181487926822281e+00 2.7833995329959843e-01  1.5049610413331396e+02 -5.5855549764732572e+01 -1.3742485629172124e+01  1.2385399940422487e+02 4.2828915112567589e+00 2.6433239389846475e+00  1.1963350703628052e+02 -3.8907049989734306e+00 8.4206162551864050e-01  1.0882934287402698e+02 -9.0890050215543070e+00 1.2973636325269531e+01  9.4279337431139652e+01 -1.1753251475573274e+01 2.2887226162235287e+01  1.4889231787095966e+02 -2.7044978418460602e+01 8.3770810734353063e+01  1.2370096880806808e+02 -1.9671480007074948e+01 8.7971120918126800e+01  1.2963022304445971e+02 -2.0503487828776670e+01 7.7831910036903722e+01  1.2616491321676004e+02 -2.2207461362655220e+01 8.7762819489186654e+01  1.2446349355208535e+02 -2.7548312955732637e+01 9.5271965305508957e+01  1.1797945093147155e+02 -2.4095701684550178e+01 8.9926647451881507e+01  1.1927808034335762e+02 -1.7991837390319841e+01 9.1683882967449819e+01  1.1807351341649884e+02 -1.1499326044973184e+01 9.0363615528914593e+01  1.2105761770213685e+02 -1.2870419645458735e+01 8.3746626248155593e+01  1.2203425644262354e+02 -1.3338476624308212e+01 7.5921725315019998e+01  1.3233908571790280e+02 -2.9968687488717912e+01 9.1558167314656373e+01  1.3674181665624837e+02 -3.7344775037371001e+01 7.8695288846551477e+01  1.2858526733525198e+02 -3.5901846089091983e+01 7.9238971950087461e+01  1.2647496123388690e+02 -3.0376904206826712e+01 8.1174600841299039e+01  1.3465770436668757e+02 -3.1703722195208808e+01 8.1553558691409322e+01  1.3588204627131660e+02 -3.6883644377584702e+01 8.9006394197246024e+01  1.3717080916739192e+02 -4.3760671265833558e+01 8.3970273443603958e+01  1.2213330003409369e+02 -2.9598403657467031e+01 7.1137422132171253e+01  1.3172652479211268e+02 -3.0658132710688601e+01 7.2102626852086843e+01  1.3990445279121241e+02 -3.3825961280783233e+01 7.4265181613779419e+01  1.5712290313943456e+02 -2.2875637102596759e+01 1.0423571306186963e+02  1.4289654910658024e+02 -2.8825273297024694e+01 1.1016648281509239e+02  1.5559762533744947e+02 -3.1686149948113606e+01 1.0776143129929501e+02  1.4409901591325169e+02 -2.8004402235123369e+01 9.9766906774838120e+01  1.4447318839406273e+02 -2.1824402451952452e+01 1.0698042260123162e+02  1.4140071283758829e+02 -3.3748484253264664e+01 1.0138523623378073e+02  1.3224081382814825e+02 -2.5941820639705270e+01 9.8624756436989799e+01  1.3081017406346498e+02 -2.0104818588840150e+01 1.0580870852463869e+02  1.3021727246223836e+02 -1.7438941295518067e+01 4.0010711724044022e+01  1.3074393525127820e+02 -3.0432664060506163e+01 6.4834047173687978e+01  1.2175181294698764e+02 -2.2669997382316073e+01 4.9721113109838065e+01  1.4024145877004429e+02 -1.8588407221190099e+01 3.9978401804714039e+01  1.3812943691078061e+02 -2.7189468068526928e+01 6.0188526651752817e+01  1.4507078966572357e+02 -2.8805197592616768e+01 6.0860575870920400e+01  1.5129594685942726e+02 -1.8924396364764693e+01 4.1731869012964466e+01  1.2866869819196188e+02 -2.3736942820204423e+01 4.9491290193474995e+01  1.1667965828125236e+02 -2.7926403814450300e+01 5.6362643223092384e+01  9.3771355786732030e+01 -2.8555945338242481e+01 7.0530529363722565e+01  9.1448724181694942e+01 -2.0038699275941838e+01 4.8875875658472289e+01  6.9948229979270977e+01 -2.7347476205528487e+01 6.5236977817491606e+01  8.9484556426468671e+01 -2.5160117318731501e+01 7.1105415490314854e+01  8.3850365658022284e+01 -2.4042978398102996e+01 6.4601374920828334e+01  7.9040645914715256e+01 -1.6792827764872033e+01 3.8429106563884218e+01  8.7597583053782472e+01 -1.8304498789701618e+01 4.5408218338287050e+01  6.5031770950804372e+01 -2.4026178346012330e+01 6.0939294765803794e+01  5.6100475325318904e+01 -2.2018500693001752e+01 4.8028651407139300e+01  9.7744818067626952e+01 -1.2825028426924366e+01 2.9744880665468145e+01  7.5006089282673244e+01 4.0992114940925504e+00 4.9897116117241929e+01  8.7857621960941586e+01 -3.5828350845314896e+00 4.8313951645573930e+01  9.8520134233145342e+01 8.3304828979035184e-01 5.2343318394560619e+01  8.7328361572708218e+01 7.9949137723127039e+00 5.7029339567580280e+01  9.6225863995701729e+01 1.4806196443377750e+01 6.5497741834424588e+01  9.5865725461520910e+01 1.7019964554468214e+00 5.6535932381985070e+01  1.0926226672753492e+02 4.4778825467716139e+00 6.4953909051908767e+01  1.2727539535418512e+02 -1.8083601223958836e+00 5.8393595123360960e+01  1.1767645720280744e+02 -7.7989581648866055e+00 5.5299826133577035e+01  1.0538754364830689e+02 -1.3116410966132731e+01 4.9751486980453819e+01  1.9244218493524502e+02 4.8402395845703223e+00 6.4457636998552118e+01  1.3738773414447974e+02 -2.2415119836815145e+00 7.0617246510737488e+01  1.1422890884105448e+02 -1.2560495359832213e+01 5.2660272296090838e+01  1.5685809170186525e+02 -6.2140337798043257e+00 4.7641620212604806e+01  1.6370830098628173e+02 5.2677244893782671e+00 5.2748134641767926e+01  1.6637155544859814e+02 9.4777868312851687e+00 7.6316970482464711e+01  1.1886833974556177e+02 1.9744655478263355e+00 5.9627638713166142e+01  1.3967220695526919e+02 8.2558290942454686e+00 7.4847720461306068e+01  1.1843642221169117e+02 -2.1017689806934182e+01 5.6611326936146298e+01  1.4936652644228332e+02 1.0626519283438711e+01 8.8838462312955969e+01  1.0049344239289967e+02 3.8067975023686735e+01 1.1027290335775015e+02  7.6175553397648670e+01 2.2937540935457786e+01 8.2494923707198836e+01  9.2082001143361296e+01 2.5790178261762843e+01 9.1332428221298883e+01  8.7871388307077908e+01 3.1147244561803209e+01 1.0085527578420174e+02  7.8297765842731351e+01 3.9647502590152051e+01 1.0240322682421009e+02  5.5091881628716983e+01 3.5927684455518950e+01 9.5140217191951905e+01  7.0081763882897988e+01 3.2579194709935969e+01 9.6975140294973684e+01  8.0496316358576266e+01 2.8778500655866992e+01 9.6081072420375307e+01  8.3757200483754289e+01 1.9539970713638219e+01 8.3879508868189916e+01  9.1090979018181159e+01 1.3691281903298837e+01 7.5111026881635397e+01  1.5302392054793526e+02 -3.9453004925619119e+01 9.2407589093500107e+01  1.4561055922219040e+02 -4.9273829867017909e+01 8.5847274557225305e+01  1.5175211447388935e+02 -4.8630437958610038e+01 9.4377814497726220e+01  1.5390176876282425e+02 -4.5564974995160206e+01 9.6878823797455297e+01  1.4484169922530921e+02 -4.3097820173073579e+01 8.8169462112257563e+01  1.4524017187182056e+02 -4.9708117388457147e+01 8.9351590861761380e+01  1.5348230131238316e+02 -5.3099330814680506e+01 1.0308504331684117e+02  1.5340189433936212e+02 -5.7771099779103118e+01 9.2661285410790782e+01  7.6654386969937903e+01 1.1231999065326360e+02 1.8217360247999576e+02  6.3383497106339675e+01 8.7444574622015367e+01 1.2435345969821172e+02  5.0218458429452689e+01 7.8139589812311669e+01 1.2751222285640948e+02  4.5291435238985819e+01 9.4135695001797217e+01 1.3924457444473447e+02  1.1829098374018025e+02 1.3087723846891416e+02 1.9398452685224734e+02  1.4713915531698458e+02 9.5259437716235880e+01 2.0131460918032627e+02  9.1340227654740616e+01 1.0282933589803848e+02 1.3030592781516640e+02  6.4050036002818231e+01 8.4562482610372840e+01 1.0771305544195441e+02  5.8311819853734249e+01 6.9951571478403764e+01 1.0272967426611726e+02  5.4127714146945173e+01 5.7430118424638550e+01 9.7967190307517868e+01  1.0346075063791680e+02 -2.9545324537114155e+01 7.1313171207885063e+01  8.5579692652040038e+01 -2.3887986542281361e+01 5.5504765645511561e+01  1.0537724132318044e+02 -2.6180647080279410e+01 6.3566110739764355e+01  9.8134548777808362e+01 -3.0062032954091421e+01 7.3560921871496774e+01  7.3960663880836208e+01 -2.7435762575467187e+01 6.3434611858475890e+01  7.0234312299901504e+01 -2.8595982786217757e+01 6.0534215089180279e+01  1.0140842850782136e+02 -2.5182136895556312e+01 6.1777768105275932e+01  5.5582735968015236e+01 -2.0953959412111629e+01 4.6259440926774097e+01  1.0990369293000005e+02 -2.3636766880797040e+01 5.6605492927449632e+01  3.8421870487634052e+01 -4.1993259870627853e+01 9.3759405310963579e+00  5.2588571441585302e+01 -1.9720801321531219e+01 2.0190028842922107e+01  4.4620741365455586e+01 -2.5198048745816603e+01 1.9976554764184776e+01  7.6633490905570753e+01 -3.7790173198411821e+01 1.3744717578282184e+01  4.9861920131350914e+01 -3.9443361100692748e+01 1.0612474091625264e+01  6.1604142741741676e+01 -2.3853492993961439e+01 1.2214625676063839e+01  6.8220305924986960e+01 -1.7037477412489380e+01 2.6783207038347097e+01  7.7485450296657007e+01 -1.8475396544070950e+01 1.6489417294920372e+01  4.4527615661791131e+01 -1.0800697372594563e+01 2.6834048119108061e+01  -2.4100586592568231e+01 6.2061795066202547e+00 6.1783423640677327e+01  1.0188514918101683e+00 2.2372815589343290e+01 7.7484928231440477e+01  4.9497078417920557e+00 1.3279145815883840e+01 6.5187285757937417e+01  -3.5429708136160802e+00 1.6264281423020339e+01 6.6310212850417500e+01  -2.2971647330051976e+01 4.7994149898109804e+00 7.6272440111394914e+01  -1.4727461899394938e+00 1.0497245293228286e+01 5.7227889227919555e+01  -1.3684627812092883e+01 1.3013451432586544e+01 9.8950457610410268e+01  1.3314693838358982e+01 8.9315143142469218e+00 4.9911072319021379e+01  1.0890849397554009e+01 1.5556617893327473e+01 5.6390051695267253e+01  8.0751452161709949e+00 2.3126066257030686e+01 6.2863288228582810e+01  6.2696194083013943e+01 2.7158201835028844e+01 7.1476858408451960e+01  5.8777575002730629e+01 3.9813156259946489e+01 8.2127856432218650e+01  4.7464245767844787e+01 2.8192518390219160e+01 6.4235060543390716e+01  4.7731288022043117e+01 2.9396516153270390e+01 7.6620688029051806e+01  2.8630545319437985e+01 3.0113346453762546e+01 8.3240294219776359e+01  4.0179676716536882e+01 4.2565258463307231e+01 8.8595922003879565e+01  3.0969164164835409e+01 2.8183750648814520e+01 6.9229756279902674e+01  3.3496694100622484e+01 2.5424307542726474e+01 5.5749471031093002e+01  3.9878649555913171e+01 4.0477125628367908e+01 7.2930284031968000e+01  6.9748432956298501e+01 6.0176128590311883e+01 9.0896202459984167e+01  4.5886340172451476e+01 5.5954828893573008e+01 8.1676734013504358e+01  6.2337286569839229e+01 5.9597892210672285e+01 7.6561186617722214e+01  7.5231086469955571e+01 7.0259757925376732e+01 9.4096735571922366e+01  4.8505361613102856e+01 6.4524621225430252e+01 8.6404869978284793e+01  4.5825227641958811e+01 5.6869610126117244e+01 6.9603820224574989e+01  8.4444662460140677e+01 6.5055244934287018e+01 8.2842882558670169e+01  1.1211859413125069e+02 -4.5055417213380615e+01 5.9256584671562507e+01  1.3743243087123915e+02 -4.2802437968155594e+01 8.1713112036536188e+01  1.3237559122899754e+02 -5.0211380537078028e+01 9.0828030500384315e+01  1.3097143059702248e+02 -4.3156132376131424e+01 7.2462434124216287e+01  1.1679415328766311e+02 -5.1702080814518091e+01 8.9018861459365226e+01  1.2626353868628323e+02 -4.7539115208525068e+01 8.1527411928278781e+01  1.3626900376366626e+02 -6.3340293492035862e+01 9.9442489593512349e+01  1.2811462588025177e+02 -5.6888127980570403e+01 9.2017994740533439e+01  1.4290965398831875e+02 -4.1497717004783354e+01 7.6778893727024709e+01  1.3102437792676776e+02 -4.1196129225627274e+01 8.6268189133256740e+01  1.2150435733624786e+02 -2.3040993673438635e+01 5.3042099075125869e+01  1.3019563307147718e+02 -2.6781947514034410e+01 8.3496357158007598e+01  1.2960310637135620e+02 -3.4159618352994194e+01 7.6086934598938115e+01  1.3978291225206524e+02 -2.3605738831623725e+01 6.9542869227720729e+01  1.1772999270635333e+02 -3.6247187718814232e+01 7.1495178600608313e+01  1.1810774629177237e+02 -2.7031918146253723e+01 7.8071505949453083e+01  9.9750570729966483e+01 -4.9796269301791803e+01 7.1358924852505581e+01  1.0987692517730741e+02 -3.3415468895885240e+01 8.7410252694319539e+01  1.4678960291599429e+02 -2.7296952863483700e+01 8.2673026601492197e+01  -1.8820690351726018e+01 -6.0595633142219203e+00 3.1713486839965380e+01  -6.0909156569900107e+00 1.4247974895842426e+00 5.3090330725128482e+01  -9.6887076498707891e+00 2.9050169371260788e+00 4.6562654119655704e+01  -1.9669276042079154e+01 -1.0513099654486111e-01 4.3858276704982103e+01  -2.1217694418626259e+01 -5.4528504613450579e+00 4.6261017773695279e+01  1.1190068904107748e+02 1.1719592680478145e+01 1.0062801037689138e+02  1.1582616986411196e+02 -1.8491992478972232e+00 9.5151731301659268e+01  1.1671238820911100e+02 5.5431815335497934e+00 9.8441290902691478e+01  1.1522795056856202e+02 1.4000141252777669e+00 9.7661537344952706e+01  1.1030315742297944e+02 3.6383372588140581e+00 9.7907838483670702e+01  1.1968030368829457e+02 -7.7825674579014343e+00 9.1982980909407857e+01  1.2256704774070859e+02 -3.2991332704945551e+00 9.5424243724521574e+01  1.1312286135858433e+02 -6.6071100026692333e+00 9.5939063893920419e+01  1.0909710433137279e+02 -3.7813373555995868e+00 9.6980525463982190e+01  1.2224833264906788e+02 5.2327244511332482e-01 9.8059501584702232e+01  9.1515391895805436e+01 7.8967987387927985e-01 3.0551028462759238e+01  7.4717663556957604e+01 1.8817862876383601e-01 3.6266522049686628e+01  8.3026041533670139e+01 2.9775598970059813e+00 4.4782697275914963e+01  7.8923612258878904e+01 1.0650771004672173e+00 3.1836132901662648e+01  8.4466513480611908e+01 1.7235986835198977e-01 2.3446408516977058e+01  7.8552564757965058e+01 -2.1309013950117537e+00 1.6752415639510339e+01  7.2447625928351002e+01 -1.0466578385654179e+00 2.4484630428984552e+01  6.6965881737149900e+01 -5.0247377012958816e-01 3.3884592733699705e+01  7.0569602288573734e+01 2.2607706883180945e+00 4.4894427042705708e+01  7.1482643526369174e+01 6.8865840467202792e+00 5.6853060752085845e+01  1.1446775678211868e+02 -5.1461378436547584e+01 9.4111931847732905e+01  1.3851093696703714e+02 -5.6105041448612681e+01 1.0287912997638092e+02  1.3991890123205695e+02 -4.8762521741376162e+01 1.0460061737367825e+02  1.3724157515131540e+02 -4.4645751195691012e+01 8.7616582601344078e+01  1.6674523729401469e+02 -2.6410491078520955e+01 1.0422252605281585e+02  1.7137699885481337e+02 -3.0860239117778097e+01 1.1661433364161182e+02  1.9297