<?xml version="1.0"?>
<VTKFile type="UnstructuredGrid"  version="0.1"  >
<UnstructuredGrid>
<Piece  NumberOfPoints="9054" NumberOfCells="42221">
<Points>
<DataArray  type="Float64"  NumberOfComponents="3"  format="ascii">37.18999862670898 30.35770988464355 16.5711498260498  36.60782692953923 29.80255172513469 16.25957671271279  36.47949342403552 30.16864518873246 15.87795831433745  37.10151100526126 29.99741047970622 16.0892102976786  36.69631455098695 30.16285113007203 16.74151624108399  36.20263047526492 29.96799237550051 16.91188265611817  37.01302338381353 29.63711107476888 15.6072707693074  36.96229934692383 30.39982986450195 17.81784057617188  36.87295982991762 29.9226262918152 16.9558259334668  36.58246491109438 30.18391112000123 17.36486161614502  37.07614898681641 30.37876987457275 17.19449520111084  37.25279426574707 30.13854503631592 17.40880489349365  37.36664390563965 30.11748504638672 16.78545951843262  37.54328918457031 29.87726020812988 16.99976921081543  35.94059829731228 28.93556138218733 16.86972382525079  35.26239150806672 29.09730096489919 16.50847721213295  35.83696704177454 29.59447473795473 16.31194795595822  36.51517383102011 29.43273515524287 16.67319456907606  35.6280549415571 29.47081860244497 17.1084119122929  35.05347940784927 28.97364482938943 17.30494116846763  35.47130360828417 29.22095710040895 15.71201325579828  36.14951039752973 29.05921751769709 16.07325986891612  36.82771718677529 28.89747793498523 16.43450648203396  36.24216349604885 29.42903408758891 15.65964201255284  35.70863353627084 29.96056820155249 15.93032955758289  36.92037028529441 29.26729450487706 16.02088862567068  37.00885790674214 29.62759390981439 16.50282815404188  35.61074250210395 27.72381046945204 16.85725142213332  36.21922984443962 28.31064420221863 16.64587895208363  35.54102305519406 28.47238378493049 16.2846323389658  35.33211095497661 28.34872764942073 17.08109629530048  37.1855031856728 29.38736907155756 16.71713784642469  36.92459003432116 29.57293078911026 17.39743751785214  36.305890884072 29.26860137009064 17.79510582488886  36.56680403542364 29.08303965253794 17.11480615346141  36.25426067966846 29.61829687279558 17.35349424050352  37.62331008911133 29.58073997497559 17.76740074157715  37.58329963684082 29.72900009155273 17.38358497619629  36.49949470857713 28.00051847015333 17.30828417314322  35.95831669308797 28.49620591977134 17.32617862351109  37.10798205091281 28.58735220291993 17.09691170309355  36.84706889956117 28.77291392047264 17.77721137452099  37.38824691505032 28.27722647085463 17.75931692415313  34.80344822838502 28.29504479094339 16.72481585977263  37.22551363794331 29.23910895498041 17.10095361180555  37.50577850208083 28.92898322291511 17.76335883286514  36.77602005004883 30.88171005249023 17.05948066711426  36.48932526265688 30.42485121399537 16.98568166161621  36.98300933837891 30.61970996856689 16.81531524658203  36.63409511549791 29.8342156172963 17.80647320053037  37.85675048828125 29.16394996643066 18.74233055114746  38.14798817099484 28.24647939979418 18.05484070681349  37.97660581672411 28.25846527505397 18.57732840107224  38.3822399576103 28.68984114758219 18.54634752031065  37.62249870166579 28.72058821864265 18.2508237376503  37.74235403010864 27.81510352726595 18.08582158757508  38.90772942693935 28.21573232873372 18.35036448947385  38.50209528605316 27.7843564562055 18.38134537023543  38.09646114516697 27.35298058367728 18.41232625099702  32.98635864257812 27.3306999206543 19.30184936523438  33.48703121509055 26.86402228380614 19.28359898495705  33.32528828078374 27.13567153346455 19.60942269336496  33.49440121020774 27.19795706774168 19.13244351315529  32.97898864746094 26.99676513671875 19.45300483703613  32.97161865234375 26.6628303527832 19.60416030883789  33.31791828566655 26.801736749529 19.76057816516671  34.00244377783736 27.06521421482907 18.9630376610762  33.83333084841335 27.00292868055194 19.44001684128586  33.66421791898935 26.9406431462748 19.91699602149553  35.27018673635618 26.37340484163968 18.4950228480206  34.9585678067785 26.4915976150488 19.11226399248976  34.77577297301363 25.94357027126552 18.7933412877403  35.31959338018325 25.97751125228844 19.21865039300064  35.36900002401031 25.58161766293719 19.94227793798068  35.00797445060556 26.09570402569755 19.8358915374698  34.8251796168407 25.54767668191428 19.51696883272034  34.28135920967108 25.51373570089137 19.09165972746001  34.46415404343595 26.06176304467464 19.41058243220946  34.64694887720081 26.60979038845791 19.72950513695891  35.35532858693038 26.65823211945728 19.92743496157183  35.71635416033513 26.14414575669692 20.03382136208271  35.14925540393287 26.07162485291271 20.49153059208149  36.06370829665995 26.70667385045665 20.12536478618475  33.04261016845703 26.2802791595459 20.21219062805176  33.36987481459379 25.77467772545422 19.58490033001467  33.28480897291898 26.2535118776759 19.77155537457033  33.01509094238281 26.09925937652588 19.75785541534424  33.12767601013184 25.80144500732422 20.02553558349609  33.21274185180664 25.32261085510254 19.83888053894043  33.10015678405762 25.6204252243042 19.57120037078857  32.98757171630859 25.91823959350586 19.30352020263672  33.25728974684476 26.07249209465588 19.31722016186281  33.52700777738093 26.2267445958059 19.33092012108891  33.28759002685547 25.19931030273438 18.82344055175781  33.4072989021182 25.71302744927014 19.07718033642336  33.53732738829812 25.54355615291319 18.59122766215791  33.78447461826327 25.35652300181287 18.95755013960891  33.90418349352601 25.87024014834864 19.21128992427445  34.03421197970593 25.70076885199168 18.725337250009  33.78706474974077 25.887802003092 18.359014772558  33.65703626356085 26.05727329944895 18.84496744682345  36.56381883146744 28.69962124483693 18.84896488439176  36.97603287325889 28.48842385784578 18.30414090427244  37.24488754138747 29.00619841761726 18.19862818863907  34.0836418617629 25.77197082785997 20.35141189552578  34.45990548249208 25.65138043053012 20.82640827338092  34.50657632280917 26.16680143537409 20.69609757085404  34.14352075998301 25.97414020671563 21.05829624164717  34.83616910322124 25.53079003320027 21.30140465123606  34.46411688212376 24.83959749066364 18.86138395278958  34.78780958072753 25.15208133247395 18.90306373710987  34.47157517060118 25.12738412679366 19.31486725319654  34.27390092119365 25.22594906476134 18.63817642705304  34.26644263271622 24.93816242863132 18.18469312664608  34.7803512922501 24.86429469634392 18.44958043670291  34.6617911315313 24.74103255269596 19.53807477893308  34.97802554165763 24.76572975837624 19.12627126284642  35.29425995178397 24.79042696405653 18.71446774675975  33.25016593933105 25.26096057891846 19.33116054534912  33.13758087158203 25.55877494812012 19.06348037719727  35.26129150390625 23.93400001525879 20.53902053833008  35.77505612442345 24.39653942774094 20.49091944412408  35.22987582556444 24.31044393760138 20.50399784277098  35.51082401476194 24.2862833162812 21.00664471174908  35.19846014722263 24.68688785994397 20.46897514721188  34.3727164966471 25.25650169027796 19.94474333722943  35.0153955777708 25.16132510781657 19.74017635845688  34.7263209428866 25.67679424539858 20.14684491675323  34.18250053571699 25.64285326437567 19.72153581149289  35.08730866111576 27.21916106124105 17.4165462410245  35.23277076263162 27.15237594561501 16.81489693810265  35.44046461923006 27.04860765554586 17.67613713507696  35.46528040058809 27.79059558507807 17.45890072505517  35.06249287975774 26.47717313170883 17.63378265104629  35.2950025177142 27.11539277117189 18.27778643799881  35.31981829907222 27.8573807007041 18.06055002797703  34.85479902315929 26.58094142177799 16.77254245407197  38.00772628221507 26.60830987352672 19.32880589722284  38.17848442428068 26.03966759902175 19.28404403412364  38.61464071328063 26.31653711582413 19.24252663571438  38.42496824210546 26.34838680974794 18.67501453602496  38.84221020199586 26.08846374596916 18.02122317482708  38.59572638417107 25.77974453524297 18.63025267292576  39.03188267317103 26.05661405204535 18.58873527451649  39.22155514434618 26.02476435812154 19.15624737420591  38.78539885534623 25.74789484131916 19.19776477261517  38.34924256634628 25.47102532451677 19.23928217102444  32.97819900512695 26.40653991699219 17.87231063842773  33.27257292049008 26.77282594561292 17.4608237916864  33.3259773535092 26.40365466428815 17.2759119310039  33.43000509657859 26.66912686537969 17.86154237247986  33.88181118803023 26.93171381376719 17.85077410653199  33.72437901194171 27.03541289400042 17.45005552573853  33.77778344496083 26.66624161267566 17.26514366505602  33.67375570189144 26.40076941158412 16.67951322358006  33.62035126887231 26.76994069290888 16.86442508426257  33.56694683585319 27.13911197423365 17.04933694494508  38.58233700040603 26.82953659501264 18.96490336433532  38.99957896029642 26.56961353123386 18.31111200313744  39.18925143147158 26.53776383731005 18.87862410282685  39.15694771859697 27.05076331649856 18.6010008314478  36.7598940083607 25.67363330222765 19.28114368311759  36.02707698007234 25.23203013314209 18.99780571493867  36.06444701618551 25.62762548258242 19.61171081054913  36.01504037235844 26.02351907193366 18.88808326556909  35.28222334407008 25.5819159028481 18.60474529739017  35.33162998789714 25.18602231349686 19.32837284237021  38.49853134155273 24.78595924377441 18.71879959106445  38.72137039816337 25.31296722921395 18.80305077636915  38.38535578407182 25.35953649025944 18.37777394538379  38.42388695394951 25.12849228414559 18.97904088104445  38.7960147857666 24.97043418884277 18.54280948638916  38.08787233985795 25.17506154519108 18.55376405005908  39.09349822998047 25.15490913391113 18.36681938171387  37.67721333816316 25.56416384660774 18.38872850905371  38.01322795225472 25.51759458556226 18.81400534003907  39.89416122436523 26.91994094848633 19.17601013183594  39.09488122248597 26.80446040512128 19.322643557063  38.91452351803564 27.29263306800499 19.7279122
[...]
<PointData  Vectors="u"> 
<DataArray  type="Float64"  Name="u"  NumberOfComponents="3" format="ascii">1.1187401943838078e+02 -1.7754606328027103e+02 3.9899701934376452e+01  1.1378652384768675e+02 -1.3162992556623351e+02 3.1636218752174667e+01  1.0496838905724763e+02 -1.4019606648126754e+02 2.6055534943146078e+01  1.2408604657409607e+02 -1.5149995893430091e+02 2.5372334222713036e+01  1.0591577640313440e+02 -1.4473419846701964e+02 4.0540818202840761e+01  1.0300903990431864e+02 -1.2736185669821057e+02 4.2112434975327403e+01  1.3323778703918856e+02 -1.3098492714049462e+02 1.7359556098553874e+01  8.8733954460271576e+01 -1.4359518382213460e+02 4.1214168665983422e+01  1.1675758099563222e+02 -1.3758890038599907e+02 4.1006575119821143e+01  1.0197822535201126e+02 -1.3556135444901975e+02 4.8837123942674083e+01  1.1152495315188641e+02 -1.5766264751419379e+02 4.7884276501767218e+01  1.0933362674956743e+02 -1.4785013119722473e+02 3.5885392242927132e+01  1.2943453213042363e+02 -1.5296970365172788e+02 4.0060530196957714e+01  1.4152370457116024e+02 -1.4985234650020595e+02 3.4382991205894264e+01  1.0567031518910494e+02 -9.9069413849461768e+01 3.9879685911002248e+01  9.3848232616213053e+01 -1.0404636225068748e+02 3.9013147194284322e+01  1.0257786471523799e+02 -1.1593755345726743e+02 3.6104347853720512e+01  1.1583675991610433e+02 -1.1719470887996697e+02 3.6740007266653016e+01  9.9990192373154841e+01 -1.1107732818000815e+02 4.2081282087175936e+01  8.9219027586847616e+01 -1.0413578271938803e+02 4.0613189266461767e+01  1.0125612853674325e+02 -1.0490608424964267e+02 3.4520991967619132e+01  1.1270919022333707e+02 -1.0236477068366325e+02 3.2700290892861290e+01  1.2757683354806626e+02 -9.9906453205120698e+01 3.2800741602107685e+01  1.1571079099995262e+02 -1.1384250538147057e+02 2.6734183528563907e+01  9.9204676724586164e+01 -1.2204598679234201e+02 3.2864875837754980e+01  1.3102593870392829e+02 -1.1473266633970030e+02 2.5863961823901878e+01  1.2534981189216569e+02 -1.3069228751530912e+02 3.3276904437654174e+01  9.2408191491144223e+01 -6.7162864740255515e+01 4.3030265265363198e+01  1.1176487502843283e+02 -8.0054158022324614e+01 3.8561956549150935e+01  9.7234902855413594e+01 -8.6271664348185297e+01 3.9397894504752905e+01  9.0147195993600718e+01 -8.6723286675374510e+01 4.1798517899244622e+01  1.3463394408077178e+02 -1.2157835423317231e+02 3.5072842262115692e+01  1.1935828318732956e+02 -1.2680113745509802e+02 4.2921764046083965e+01  1.1120001647347978e+02 -1.0809071820277083e+02 4.8594055958229056e+01  1.1839798223541956e+02 -1.0486902466673399e+02 4.1273338449346532e+01  1.0720033698389955e+02 -1.1756515552342641e+02 4.5459664310522847e+01  1.5799950304106403e+02 -1.4088834831636805e+02 4.9720951768636780e+01  1.4261034246332915e+02 -1.5903834054325634e+02 3.3730659658910540e+01  1.1558652566608446e+02 -7.0944190916536812e+01 4.1952865187546571e+01  1.0510039490480467e+02 -8.6893120040320781e+01 4.3208258776461385e+01  1.3267311986809202e+02 -8.8673096177347389e+01 3.9468531275427743e+01  1.2448975536976288e+02 -9.3577587489962241e+01 4.7466382887412792e+01  1.3744905850217125e+02 -7.4600987944841222e+01 4.4522492163478802e+01  7.5598623235730727e+01 -8.9046265725724354e+01 4.2061442255291261e+01  1.3412768984068609e+02 -1.1581007592189168e+02 3.9247373092935888e+01  1.4583537569250174e+02 -9.6581854675025710e+01 4.9273479477758322e+01  8.0280465858999719e+01 -1.6133308354997686e+02 5.6926612620054655e+01  9.4419022589396675e+01 -1.4267201615156640e+02 4.7523154863306921e+01  8.5886012767455597e+01 -1.7516067250864441e+02 5.2982143717005442e+01  1.0492975842933284e+02 -1.2583538496871851e+02 4.9015669892791763e+01  1.7177068757674033e+02 -8.2383609432920778e+01 7.3861023799497275e+01  1.5124793597946388e+02 -6.6528063542973229e+01 4.3601878997580151e+01  1.4568616962829736e+02 -5.8978014823954652e+01 4.8131814404296385e+01  1.5195539222132703e+02 -5.0605819830999287e+01 5.3786164467296416e+01  1.4700942594728693e+02 -8.3516641030956293e+01 5.3349246344070799e+01  1.4228829288723634e+02 -5.6465271443102409e+01 4.2586343816813752e+01  1.6454610275917551e+02 -7.2368142081672772e+01 3.5708910749694098e+01  1.5895051742541892e+02 -5.0872600929203472e+01 3.6571509199949716e+01  1.4588802664563593e+02 -3.8443116728417280e+01 3.8227664201231171e+01  1.3037034597283188e+01 -1.2698271253873267e+02 1.1853221065128588e+01  2.7441840970125615e+01 -8.3627937330755188e+01 3.4722333195663971e+01  2.7234795285137459e+01 -1.0887599223425639e+02 2.7891683019603676e+01  3.2501429130188136e+01 -9.6600886293213264e+01 2.9212907480466363e+01  -2.7163507885162610e+00 -1.0136175634474054e+02 2.9035450912306874e+01  2.4992276281969468e+00 -8.0181187514735669e+01 3.2107544763271981e+01  2.4893940593896392e+01 -8.9969720797571441e+01 3.4514832535237190e+01  4.8490343413322826e+01 -7.9896925832936674e+01 3.8244382001741151e+01  4.7154157234282827e+01 -8.6248798548865906e+01 3.7066951580976529e+01  4.6476759551602065e+01 -9.3501798980574577e+01 3.8198874326540782e+01  7.1755956066176267e+01 -4.2517715664077286e+01 5.1306604717715906e+01  6.8130889899991416e+01 -5.2353233403527398e+01 5.0111315987936166e+01  5.7401422189098589e+01 -3.9731548830930990e+01 5.2921199453332051e+01  7.0427470084582566e+01 -3.8245668351965548e+01 5.4219952832671282e+01  6.9803323964696688e+01 -3.5703330933995083e+01 5.7746349485811784e+01  6.7682086384054287e+01 -4.6836930187864297e+01 5.3313676651450436e+01  5.8500070987262760e+01 -3.6204688512267552e+01 5.5233597018650642e+01  4.4435910852406970e+01 -3.6531387972962705e+01 5.3560320583298413e+01  5.4301896909564270e+01 -4.9415718296358612e+01 5.0240795537320786e+01  6.6150318682598950e+01 -6.2265935435955001e+01 4.8855261099708265e+01  8.1049483819304911e+01 -5.4230799959757363e+01 5.2948055996733601e+01  8.0147545651057413e+01 -4.1388567200750366e+01 5.5617161362121827e+01  7.3215799543990684e+01 -4.7625457835774078e+01 5.6465744231623724e+01  9.1069325259795662e+01 -4.6455880826458028e+01 5.4255162440252555e+01  1.5288837921842468e+01 -6.7389946220636133e+01 3.7514866153851514e+01  2.4286812704487499e+01 -4.6005962428020815e+01 4.3832908456698966e+01  1.9771309777904140e+01 -6.2496118913574314e+01 4.0066758747584572e+01  1.3501327617945075e+01 -5.1488235604617429e+01 3.9031504895526652e+01  1.4522912931217721e+01 -4.9552665136460320e+01 4.4419261711688733e+01  2.1431752298138683e+01 -3.1127011882865041e+01 3.8943069532953992e+01  1.6734945012582969e+01 -4.5034145345531762e+01 4.3341591642478797e+01  1.0259916004457887e+01 -4.3597054296779845e+01 4.0382306566844846e+01  1.6072308894720727e+01 -5.1538257461360914e+01 4.1688281794874761e+01  2.7047766898998358e+01 -5.8215831054012554e+01 4.2475060975147393e+01  1.8642985637750616e+01 -2.9709653325903869e+01 5.2992571421860752e+01  2.2294635112543450e+01 -4.2572941132169106e+01 4.7520160836268474e+01  2.4153649388811434e+01 -3.4330178297785928e+01 5.2486146922803997e+01  3.1481807001031935e+01 -3.4518373374009414e+01 5.2565238127810083e+01  3.7042347775726292e+01 -4.6353142800811781e+01 4.8048073032971679e+01  3.7233686873438067e+01 -3.8165878409957621e+01 5.2160609065325609e+01  2.9469994502375105e+01 -3.9261988842396001e+01 5.1106468778488278e+01  2.7659934607196547e+01 -4.9007261109648077e+01 4.6589353045985021e+01  1.2101180881080202e+02 -8.4002379842531795e+01 5.7184837965762881e+01  1.2623490868354007e+02 -8.1634025275610426e+01 4.9977365932771264e+01  1.3758316988222450e+02 -1.0068186598427889e+02 5.4979361120042228e+01  5.1554875383569062e+01 -4.6797502032749108e+01 4.8232770796734258e+01  6.3033282884783624e+01 -4.4021610630969448e+01 5.4314881174638252e+01  6.5021427578056588e+01 -5.5211902370787314e+01 5.3685522350083389e+01  6.1240441901226895e+01 -5.1415762921828758e+01 5.2791474362904843e+01  7.0643574246549662e+01 -4.1456929782725794e+01 6.0472422717321116e+01  4.2191507637639042e+01 -2.2872887729919913e+01 6.1177519472860908e+01  5.1811448537065644e+01 -2.5321154610957176e+01 5.9591892560805313e+01  4.7876738814556816e+01 -3.0300169599610403e+01 5.6087295344361486e+01  4.0313217788949110e+01 -2.7843701754616490e+01 5.8089092718375248e+01  3.7363314786654897e+01 -1.7250578872013744e+01 6.4830116911025272e+01  4.7974431293448255e+01 -1.5446275947490092e+01 6.4493958117946420e+01  5.0453101790302760e+01 -2.5255454577730251e+01 5.8823511257826475e+01  5.3307205574969174e+01 -1.9511489884822165e+01 6.3817899905417072e+01  5.8010295691749818e+01 -1.2344198565500298e+01 6.5814488713964096e+01  1.8818410616741325e+01 -3.3304217000137221e+01 4.5624171660966567e+01  1.7339590257676225e+01 -4.1297052939370118e+01 4.8935043065219482e+01  8.2415374573379864e+01 -3.3876498343283899e+01 7.2424252975792740e+01  6.9825722684674204e+01 -3.1237989896832168e+01 6.7033336730920666e+01  7.3418973068920437e+01 -2.5667668895436876e+01 6.5729684096014580e+01  7.1136411816313739e+01 -3.6798566445838283e+01 6.8523174549813064e+01  6.7580232772147966e+01 -2.9170745827384124e+01 6.2474056908686748e+01  5.2083824086762085e+01 -3.5972196682205947e+01 5.2416284888578659e+01  6.0825643191935143e+01 -3.0265470330087528e+01 5.8352570588147941e+01  6.1839511612446941e+01 -4.2212228289169921e+01 5.4001829961600059e+01  4.7405383074602135e+01 -4.2728241284382896e+01 4.9604420428831155e+01  7.4114663970599622e+01 -5.9825211089171638e+01 4.5756325930569673e+01  7.7901105133328983e+01 -5.3804459154076234e+01 4.6311368544220663e+01  8.1756646838357540e+01 -5.3312909942637120e+01 4.6754494355632552e+01  8.9061372605721203e+01 -7.1822084639119595e+01 4.3885200998937052e+01  6.6857401376104420e+01 -4.1282005113679467e+01 5.0115063157300227e+01  8.0098974431829788e+01 -5.9053928207023787e+01 4.6937867914179428e+01  8.8011399689917582e+01 -7.6376361248554844e+01 4.4668223832600702e+01  6.2199097684128333e+01 -4.0259867056324744e+01 5.0118294844736852e+01  1.2517792146714066e+02 -1.7796699070038166e+01 4.1622388019510822e+01  1.2014601661245278e+02 -1.1239902053973556e+00 4.4110130776573264e+01  1.3745334410438204e+02 4.5304745466564317e-01 3.5311044161311408e+01  1.3978526281400764e+02 9.4108223232611266e-01 3.5304301746661814e+01  1.6011339031943484e+02 2.6298484926758444e+01 2.7045933469570219e+01  1.2971997445249255e+02 2.6527048638786454e+01 3.9392827311340689e+01  1.6118069628210918e+02 3.2063039240114982e+01 2.7611319110680725e+01  1.5803183139575830e+02 2.5605835636030037e+01 2.9178734195450449e+01  1.2692267774138801e+02 2.4453377092131081e+01 4.2959949332453476e+01  1.1133604932541951e+02 1.5663028220529551e+01 5.1752029846114482e+01  1.4649884008049241e+00 -4.6766220738402090e+01 4.6104631587011077e+01  9.9216245117734978e+00 -5.6450161418672522e+01 4.3032544070640462e+01  1.1150572135160607e+01 -4.1693164501704011e+01 4.7350463792787473e+01  1.6507589729657788e+01 -5.7314116056736630e+01 4.3901417209994044e+01  3.4505858355598328e+01 -6.4517060060698384e+01 4.2834519957988121e+01  2.6509049445814430e+01 -6.4803439118835655e+01 4.2801166628013675e+01  2.7030117889940943e+01 -5.0444808663953999e+01 4.6807394291051523e+01  2.1012547034952728e+01 -3.7353509840244513e+01 5.2944213737435064e+01  1.8736491426245731e+01 -5.0968101255877791e+01 4.7867571483516684e+01  1.8422154117446738e+01 -6.5420839728449565e+01 4.3323611416038183e+01  1.4806297080897033e+02 -1.6336859709785159e+01 3.2034406343435364e+01  1.7440997194198027e+02 4.5238748129424700e+00 2.3301888970597854e+01  1.6916716607179279e+02 5.1376801846786764e+00 2.1018139409624677e+01  1.8074441065003171e+02 -1.8916209040298007e+01 1.9862276853753528e+01  9.0229867575126192e+01 -1.7250308841900733e+01 5.5924950422553536e+01  7.4437598439037274e+01 -1.6102396396820705e+01 6.1370939800875568e+01  7.9190267420235230e+01 -2.7363571751897538e+01 5.7698060157495938e+01  8.3104144139422303e+01 -2.9753752531089130e+01 5.4288044690020477e+01  6.4884773469830392e+01 -2.6104832502148977e+01 5.7263273028680231e+01  6.4238679093073813e+01 -2.5183844393721458e+01 6.0432392479434100e+01  9.4741388455508414e+01 5.0852376011890129e+01 6.0640557003507652e+01  1.0950434183292863e+02 4.2948471284485706e+01 4.9082704096555894e+01  1.1363871084008275e+02 3.5444740103422731e+01 4.4183355252457446e+01  1.0324761481001477e+02 3.2490564173144570e+01 5.6479778919169583e+01  1.0474621932103396e+02 5.3613406323694569e+01 5.4748372726606128e+01  1.0222676824104855e+02 2.8163998525477016e+01 5.1041259877002446e+01  1.0319702857595412e+02 7.4587081634898396e+01 3.8214579282298764e+01  1.0781569521853231e+02 8.9166164857063546e+00 4.8164833619980328e+01  1.0869704729057159e+02 1.4240507252734441e+01 4.9760627997354995e+01  1.8571343985399920e+02 -4.3583566468207637e+00 -1.1717199478710502e-01  1.5799801484529570e+02 -9.8290811879177866e+00 2.2861008262095066e+01  1.4736778214642061e+02 -2.7789096078036010e+01 2.7447479003797493e+01  1.8698802783527248e+02 -8.8189981117204717e+00 1.0930403956076830e+01  1.7201451888017195e+02 -2.6581816785712007e+01 1.8683911589614457e+01  1.4705454293924581e+02 -4.8553990846620678e+01 3.6102735112450212e+01  1.6003452070054374e+02 -3.8404531582233943e+01 2.6022958006751335e+01  1.0056955650080155e+02 -2.8971692783712362e+00 5.3688218562874290e+01  1.1798499997328236e+02 -4.5411338669524168e+00 4.4884013063680335e+01  1.0643825858116934e+02 -1.6681794090749481e+01 4.9245695096624772e+01  9.8062000847009017e+01 -5.2016934299865083e+00 5.3534887792583113e+01  1.9367758877123487e+02 -1.9977616369154849e+00 1.0206528913463695e+01  1.9023544361141560e+02 1.8728408896448009e+01 1.0789850166851195e+01  1.7065014114487172e+02 2.7309161492629213e+00 1.2410603685354820e+01  1.9408025204397771e+02 -1.2772141974877080e+00 6.5208938881970369e-01  2.1524454264732410e+02 5.5936117154074223e+00 8.8525465853053675e-01  4.4725000341964140e+01 -2.7659843910733052e+01 4.6232679163813152e+01  4.1789023592060509e+01 -3.6175791892211535e+01 4.7308586194008946e+01  4.9135421389976500e+01 -3.5263257615682512e+01 4.7367349456483723e+01  4.2621576810371188e+01 -3.2275094645704279e+01 5.1841346563534302e+01  3.7352094594939842e+01 -2.9495675507250027e+01 5.0468411780273527e+01  3.0584088343140046e+01 -2.9250590237667510e+01 4.9503838544084928e+01  3.6987415884534094e+01 -3.2188840020335036e+01 5.3030338697117024e+01  4.8339946522604713e+01 -5.1749933526496420e+01 4.8074926573229078e+01  4.2766802998176793e+01 -5.3130098615775111e+01 4.8619650962046336e+01  4.3339137702293968e+01 -3.9985611448343192e+01 5.1973482165087368e+01  9.9274808247506897e+01 -5.9600434283951273e+01 4.6965243396123874e+01  1.0070816258581662e+02 -5.8178694980906045e+01 4.9533418222263300e+01  9.0841083734291928e+01 -4.2583632928996913e+01 4.9635110162847930e+01  8.3482537608317330e+01 -5.9750790397878092e+01 4.8458270606037829e+01  9.7341224323442646e+01 -7.2892523427361610e+01 5.0098725865336483e+01  9.2626737769411420e+01 -7.4725894010984263e+01 4.6771326689201629e+01  1.0971690123368973e+02 -4.2797336867369935e+01 4.7082196136462144e+01  2.7793320250103701e+01 -2.2518418936156728e+01 6.6877768501249022e+01  3.8867162920535314e+01 -2.4274676455216131e+01 5.9390925219230574e+01  3.6696919264809253e+01 -2.8694698142724192e+01 5.8236533963671135e+01  3.2682090255967623e+01 -1.9885684735707667e+01 6.5567183897265664e+01  6.9797252737098134e+01 -3.9766991195746790e+01 5.7956125320778170e+01  7.3798239945010565e+01 -3.8623924190008943e+01 5.9159179475245530e+01  7.4890147344794300e+01 -3.9600020834981642e+01 6.2156920671820338e+01  7.3619953568178204e+01 -4.1225118771973115e+01 6.2273448827550432e+01  2.7535584447427203e+02 7.1591277410768043e+01 1.1133747299817415e+01  1.7841127916832809e+02 6.3654373516952028e+01 1.9767225798507067e+01  3.4205456255693042e+02 8.3551950967283219e+01 -4.4312904021146107e+00  2.2816090100461670e+02 -1.8045917859743124e+01 5.5219684904457766e+00  1.9211073067731752e+02 2.4488764139871808e+01 1.7135308842099576e+01  2.4015883157389541e+02 -1.4989847792016583e+01 -6.9603286855868589e+00  3.1745762153762126e+02 9.9727874241116439e+01 4.6257754712822745e+00  1.9346722375744372e+02 5.9707281448541366e+01 1.7199844871532839e+01  5.4903711648058064e+01 -1.2959185981068400e+01 7.0970044226167914e+01  6.4703022434997621e+01 -1.3115388968739893e+01 6.8396475574600501e+01  5.4497496843239837e+01 -1.2730447736936624e+01 6.9302426428656929e+01  5.7943716336197113e+01 -1.0251914047739302e+01 7.8746014170022391e+01  6.3330079501192920e+01 -1.5781173054783158e+01 7.1710493530066074e+01  5.4936382240031740e+01 4.5442930875308782e+00 8.8324845159800915e+01  5.6658259482696359e+01 -3.1743045022881362e+00 7.3860753531636036e+01  6.3170182673212565e+01 -9.2980179282360229e+00 7.6663933048891664e+01  6.8911077934878151e+01 -1.5422748278420073e+01 7.0855143514657470e+01  5.6745616414085340e+01 -1.1430914727677563e+02 3.9526927336722494e+01  7.0626414140229926e+01 -9.8859151881294963e+01 3.9012085283347851e+01  5.0747047666407759e+01 -1.0434001495202432e+02 3.8841315531392418e+01  5.4507585532183377e+01 -1.1643157885110730e+02 2.9303211687827336e+01  4.5866770799924879e+01 -9.2639539312497902e+01 3.8413629694300518e+01  6.2366296273434038e+01 -2.0067382827811162e+01 6.5868697435898355e+01  6.9838758361168132e+01 -2.4740861520556606e+01 6.2795019975746293e+01  1.4032548394866206e+01 -4.7647206516466504e+01 4.4376372445857321e+01  8.9038050447815404e+00 -3.5043692722913846e+01 4.4627977008789102e+01  1.6056819161352617e+01 -3.5744764785924211e+01 5.0993055082670693e+01  6.8324811025541736e+00 -3.6091750084046694e+01 4.6053655244087821e+01  1.2645907308322320e+02 -5.3064778495015716e+01 5.0943598461678263e+01  1.3069382768070452e+02 -5.4035980702824745e+01 5.3763713116209047e+01  1.4309794300848654e+02 -6.3732988487978510e+01 5.6985780558260295e+01  1.3751641218483772e+02 -6.5218840927397480e+01 5.9772295475792440e+01  1.3449557423789952e+02 -5.2913287234516801e+01 5.5756920730991560e+01  1.4427719061836834e+02 -4.5502952093264497e+01 4.8792238029833669e+01  1.6198468452228499e+02 -3.2751329608793540e+01 6.1178385016319581e+01  1.2928154994616466e+02 -2.8849128903803724e+01 4.8269308063640928e+01  1.3725275168233952e+02 -5.6042195948681453e+01 4.2968506682981570e+01  1.3476907619882704e+02 -5.1252233957104565e+01 4.1077294159443220e+01  1.5122419515231579e+02 -5.9561423497463544e+01 3.4739796533238319e+01  1.3328555449364922e+01 -6.1806201497607447e+01 4.0217512033976519e+01  1.6030897916843323e+01 -6.8572414438787547e+01 3.7930009132821610e+01  -1.1228435897627480e+00 -7.1817163758272585e+01 3.5109417740283476e+01  2.0120631638425612e-01 -6.4605246114062368e+01 3.8448055832514157e+01  2.3431383180622920e+01 -7.4500896035757506e+01 3.7582866373792413e+01  3.5877485259893604e+01 -7.0098068976149392e+01 4.0579110904734257e+01  4.1034676208837439e+01 -5.0671866896380571e+01 4.4585399336435621e+01  4.1568126562487755e+01 -4.3807256536547349e+01 4.0384833228857779e+01  4.8396202637882375e+01 -4.9335554472767249e+01 4.6034241347725875e+01  5.5079416225439537e+01 -3.9773041584047256e+01 4.0973725824529183e+01  3.0185611084286840e+01 -3.2102333638073503e+01 3.5160993693450756e+01  1.8416480747091974e+01 -3.1036729171953247e+01 2.6632412574913140e+01  4.3435717522461090e+01 -3.6265111320899017e+01 3.1686389082857417e+01  4.8225643273392969e+01 -3.3225448054296756e+01 3.9200152772963037e+01  4.8685184429916077e+01 -4.0224505607472054e+01 4.4710914169855869e+01  4.2561134631280176e+01 -1.7756700219991995e+01 6.5831183655599261e+01  5.4748914456419961e+01 -6.8627323715138289e+01 4.8951352536312378e+01  4.6268244098593179e+01 -6.5589757269030642e+01 4.5089134630842253e+01  5.7423650707413003e+01 -7.5224684701709876e+01 4.4585850527984142e+01  5.7327778534616755e+01 -5.6081354896543111e+01 4.9638782065956214e+01  -2.2196065190225776e+00 -6.7974097635695699e+01 3.7690708354992914e+01  -7.4713965634915054e+00 -6.5093333529249151e+01 3.4893682729241171e+01  7.8907537203131604e+00 -6.6972243508712580e+01 4.0290396789600216e+01  -1.8324068639862889e+00 -5.7897666300387371e+01 3.9416176189454660e+01  -4.3966047184987822e+00 -7.393833803078