<?xml version="1.0"?>
<VTKFile type="UnstructuredGrid"  version="0.1"  >
<UnstructuredGrid>
<Piece  NumberOfPoints="9107" NumberOfCells="42712">
<Points>
<DataArray  type="Float64"  NumberOfComponents="3"  format="ascii">33.08535003662109 16.7292308807373 10.72609043121338  33.58992607813627 17.37433843460251 11.29501031094672  33.6094797439617 16.81010480106541 10.95864593477711  33.694179374699 17.25939412296483 10.67595588655934  34.1336094513023 16.89097872139353 11.19120143834085  33.37500937653006 16.84427972019383 11.28949558229909  32.61640930175781 16.79758071899414 11.38778972625732  33.46088011932791 16.45759911716649 11.3474856564568  32.9367504119873 16.37672519683838 11.11493015289307  32.85087966918945 16.76340579986572 11.05694007873535  32.70228004455566 16.4109001159668 11.44577980041504  32.78815078735352 16.02421951293945 11.50376987457275  33.74076707282636 16.76940763995574 11.91717029605418  32.98216699805411 16.72270863875605 12.01546444001242  33.06803774085196 16.3360280357287 12.07345451417014  33.34792469435042 16.64783655851795 12.64313915376752  32.14123916625977 16.6457405090332 12.3954496383667  32.74458193030509 16.64678853377558 12.51929439606711  32.46469497680664 16.33498001098633 11.94960975646973  37.49216068403028 12.21648981040125 8.095694586986866  38.32857882343121 12.76088951826553 7.662516863849856  37.72596752893017 12.2500195962564 7.546906245750904  37.67538188048195 12.78230404265796 7.710752303809349  38.09477197853133 12.72735973241038 8.211305205085818  38.69738327303237 13.23822965441951 8.32691582318477  38.27799317498299 13.29317396466709 7.8263629219083  37.85860307693361 13.34811827491466 7.325810020631831  37.90918872538183 12.8158338285131 7.161963962573386  37.95977437383005 12.28354938211154 6.998117904514942  30.15699005126953 6.171529769897461 1.042019009590149  30.19187086922878 6.947148783711171 1.224238525604145  29.97421153999711 6.799382792124219 0.9095689798347172  30.41346750847595 6.514499027188792 0.9445114579989207  29.93539341202236 6.60417952641984 1.321746077195373  29.71379677277519 7.036829282942218 1.601473144800597  29.75261490074995 7.232032548646598 1.189296047439941  30.66994496568236 6.857468284480124 0.8470039064076924  30.23068899720353 7.142352049415551 0.8120614282434889  29.7914330287247 7.427235814350977 0.7771189500792854  35.84092518447877 11.16655659155479 12.30099509291965  36.63147891116142 11.58998281579962 11.79924662860359  36.00614690163071 11.68040224598828 11.68261713056488  35.75804302495757 11.73899462123854 12.1856160549424  35.67516086543636 12.3114326509223 12.07023701696516  36.54859675164022 12.16242084548337 11.68386759062635  35.92326474210951 12.25284027567203 11.56723809258764  36.17136861878267 12.19424790042177 11.06423916821011  36.79670062831337 12.1038284702331 11.18086866624882  37.42203263784408 12.01340904004444 11.29749816428754  35.29422912211865 13.2232571463952 13.2240134562381  36.1317993264711 13.18039648651801 12.80543740680542  36.23044890240021 13.57154248027585 13.28569523582619  35.82533471286109 12.96050559272932 13.28637620940802  35.60069373572865 13.44314804018389 12.7430746536355  35.69934331165777 13.83429403394173 13.22333248265628  36.10445750119688 14.44533092148826 13.22265150907445  36.00580792526777 14.05418492773042 12.74239368005367  35.90715834933867 13.66303893397257 12.2621358510329  36.35644030360353 12.69775403906344 13.34873896257793  38.59587860107422 9.887117385864258 7.719407081604004  37.95599753934775 10.23163860221262 8.072740517776943  38.17576293870272 9.752457963769956 7.998655237335422  38.10858005983224 10.1625982174695 7.686196974237862  38.44329608058973 9.956157770607378 8.105950625143084  38.29071356010524 10.0251981553505 8.492494168682166  38.02318041821823 9.821498348513078 8.385198780874504  37.62128151859026 10.43807904907475 7.65298686687172  37.68846439746074 10.0279387953752 7.96544512996928  37.75564727633122 9.617798541675656 8.27790339306684  36.82065527882757 14.70724381072298 11.77208122874694  35.95667240113505 15.14332609287119 11.06510919625685  36.38838726446482 14.95211635620788 10.99255675399395  36.06241542111663 14.59409182667349 11.30339300904417  36.714912258846 15.25647807692069 11.53379741595961  36.60916923886442 15.80571234311839 11.29551360317229  36.28264424448324 15.50135062240559 10.75427294120662  35.30417556340569 14.48093984262399 10.83470478934141  35.63014740675388 14.83896437215839 10.52386853429118  35.95611925010207 15.19698890169278 10.21303227924096  36.8985710144043 13.49016952514648 14.60649967193604  36.62750565900392 13.09396178210496 13.97761931725698  37.00492310281714 13.67711484957864 13.91785679495939  36.48240051261743 13.62237425662879 14.3317153959857  36.06623001083057 13.7545789881111 14.05693112003537  36.73385774741676 13.28090710653712 13.28897644028034  36.58875260103028 13.80931958106095 13.64307251900906  37.11127519122999 13.86406017401079 13.22921391798275  33.66947937011719 3.937901020050049 4.193717002868652  33.77516909647022 4.354825682761933 3.934709744620258  33.9167823305244 4.473236940648135 4.372771139583444  34.0707893371582 4.022398471832275 4.1573805809021  34.47209930419922 4.106895923614502 4.121044158935547  34.17647906351124 4.43932313454416 3.898373322653705  34.31809229756541 4.557734392430362 4.336434717616891  34.16408529093161 5.008572861246223 4.551825276298236  34.02247205687743 4.890161603360021 4.11376388133505  33.88085882282325 4.771750345473817 3.675702486371863  32.71181704407387 6.344657647902548 6.532548241273835  32.39512116785005 5.394968810150809 6.373814841063145  32.62921731967133 5.627597506798914 6.052610282237682  32.92790556339239 5.744581206717172 6.516634053258328  32.17903264853153 5.995045251336187 6.389729029078651  31.6462482529892 5.645432854769825 6.246909816883468  32.09643292412899 5.277985110232552 5.909791070042498  33.14399408271091 5.144504765531794 6.500719865242822  32.84530583898985 5.027521065613536 6.036696094222176  32.54661759526879 4.910537365695279 5.572672323201529  34.95782089233398 4.765946865081787 4.135313987731934  34.43845912027393 5.056424088599946 3.606681780981952  34.89792442321777 4.878175497055054 3.429216027259827  34.87880516052246 4.59060001373291 3.728042483329773  34.41933985757862 4.768848605277802 3.905508237051898  34.9769401550293 5.053522348403931 3.836487531661987  34.99605941772461 5.341097831726074 3.537661075592041  34.79978942871094 4.415253162384033 3.320770978927612  34.3403241257671 4.593501753928925 3.498236732649738  39.89416122436523 13.85678958892822 11.46578979492188  39.66260329515359 13.46229105753362 11.1852707077534  39.89416122436523 13.45230960845947 11.13778972625732  39.89416122436523 13.49068975448608 11.55015468597412  39.89416122436523 13.12458992004395 11.63451957702637  39.66260329515359 13.09619122309148 11.26963559880565  39.89416122436523 13.08620977401733 11.22215461730957  39.89416122436523 13.04782962799072 10.80978965759277  39.66260329515359 13.05781107706487 10.85727063908885  39.43104536594193 13.06779252613901 10.90475162058492  30.50325965881348 5.991970062255859 2.06486701965332  30.96790045048543 6.23331049704208 1.512488975484493  30.58660231224792 6.424719173367992 1.455935463030506  30.77675437927246 5.947262525558472 1.563378512859344  31.05024909973145 5.902554988861084 1.061890006065369  31.24139517094441 6.188602960344692 1.011000468690517  30.8600970327069 6.380011636670604 0.9544469562365305  31.05124310391987 6.666059608154212 0.9035574188616791  31.43254124215738 6.474650931828301 0.9601109313156658  39.13047027587891 15.04164028167725 12.80552005767822  38.83194643191779 14.66437900484894 12.00030707844455  38.4395968908273 14.70148357314639 12.35354278107801  38.61878005570873 15.15826560924585 12.55454121847023  39.01112959679921 15.1211610409484 12.20130551583678  38.95128711099748 14.58485824557779 12.604521620286  38.77210394611606 14.12807620947834 12.40352318289377  38.10708983553855 15.27489093681445 12.30356237926225  38.49943937662903 15.237786368517 11.95032667662879  38.89178891771952 15.20068180021955 11.59709097399534  30.9451904296875 9.143291473388672 5.195538997650146  31.72497939661002 8.788094532150861 4.87512704054405  31.64769079979368 8.87584150047233 5.309204817805899  31.22131636436887 8.664808633040689 5.227877379451407  31.3715648651123 9.354324340820312 5.276866436004639  31.44885346192865 9.266577372498844 4.84278865874279  31.79793930053711 9.565357208251953 5.358193874359131  31.87522789735345 9.477610239930485 4.924116097097282  31.49744229905025 8.186325792692704 5.260215761252667  31.95251649416979 9.389863271609016 4.490038319835433  34.17594875092542 15.12032090524468 12.77623294834007  34.56001714271669 14.65363727517122 12.83572479339396  34.79000284885474 15.17998020237643 13.08149742050059  34.82328215528091 15.08008868652581 12.37450752300827  35.4706155596364 15.03985646780694 11.97278209767646  35.20735054707218 14.61340505645235 12.43399936806216  35.43733625321023 15.13974798365756 12.67977199516879  35.40405694678407 15.23963949950818 13.38676189266111  35.17407124064601 14.71329657230297 13.14098926555448  34.94408553450796 14.18695364509775 12.89521663844785  32.74834060668945 8.58505916595459 0.1048400029540062  32.86914757825922 7.651222159315899 0.5391427223050318  32.98717812635492 8.253707339217023 0.5391427223050318  32.97561454772949 8.08257007598877 0.1048400029540062  32.63031005859375 7.982573986053467 0.1048400029540062  32.51227951049805 7.380088806152344 0.1048400029540062  32.85758399963379 7.480084896087646 0.1048400029540062  33.20288848876953 7.580080986022949 0.1048400029540062  33.21445206739496 7.751218249251202 0.5391427223050318  33.22601564602039 7.922355512479454 0.9734454416560575  32.17095947265625 8.187406539916992 7.709639072418213  32.45269847441681 8.420286321775933 7.229455242753158  32.19728100607807 8.087290976393158 7.018703779009225  32.15106964111328 8.533780097961426 
[...]
<PointData  Vectors="u"> 
<DataArray  type="Float64"  Name="u"  NumberOfComponents="3" format="ascii">3.1731335383663794e+01 3.1427132794318396e+01 -5.7897906238971537e+01  3.5197462305191692e+01 2.8825187660430924e+01 -4.7329826317556233e+01  3.9678103435736389e+01 3.2573115212616941e+01 -5.8715942539973312e+01  3.9983997797420457e+01 2.0225154516680124e+01 -5.1153921611761568e+01  4.6690371474693286e+01 3.2299930498937037e+01 -5.7609042521063223e+01  3.4291694645157833e+01 4.1195088143526917e+01 -5.6948406618817344e+01  1.5311561768491508e+01 5.0250109145870773e+01 -5.5794706731060018e+01  3.9417505224375653e+01 5.0316651088654751e+01 -6.5184664124228249e+01  2.9131744045210674e+01 5.2525186294636711e+01 -6.8257501001138948e+01  2.1367327081577116e+01 4.1658742375820118e+01 -5.8176522507359714e+01  2.0554105404710999e+01 6.4935672236705614e+01 -6.6052885814112528e+01  3.7396769097241368e+01 7.9543712988994528e+01 -7.4880202020515085e+01  4.0183364404319448e+01 5.1733321860537224e+01 -5.6343101894834064e+01  2.4122091418213198e+01 6.3398397457158978e+01 -5.4808710170837386e+01  3.3043531541321798e+01 7.5303264392212299e+01 -6.2081369827195353e+01  3.0089308771154126e+01 7.6480677657265275e+01 -5.1107346225487959e+01  3.7656246015002548e+00 9.3676152194069800e+01 -4.4378894851373310e+01  1.8938434822499076e+01 8.2441373583105133e+01 -4.7695872439084390e+01  2.8023226300157742e+01 9.5046205886120845e+01 -6.5219218720887952e+01  1.5743382244984411e+02 7.7478668019448236e+01 3.8913440407781067e+01  1.9515853946765816e+02 4.9052236397671813e+01 5.4057369294453565e+01  1.6535916594726569e+02 7.5434180019276653e+01 5.3835742322873749e+01  1.5514389150375129e+02 5.9304468873648986e+01 4.7287009767277887e+01  1.8479065861593602e+02 5.1359575862812093e+01 3.5067298276797196e+01  2.1164757864238894e+02 2.6962870021594252e+01 2.9595013008896895e+01  1.8335279268771154e+02 3.3903767591100639e+01 4.8185356432817763e+01  1.5073980372954657e+02 4.0600343183355392e+01 5.8361428708002421e+01  1.6195741692854685e+02 5.5585713818835451e+01 6.3865237804173248e+01  1.6671719498693452e+02 7.2778284290849243e+01 6.9131311913992008e+01  2.0132702240066621e+02 -2.6793433731222351e+01 -4.7086654878695377e+01  1.8813661776878945e+02 -4.7016614753555297e+00 -2.3535233184863742e+01  1.9157668291602752e+02 -1.3871582202194869e+01 -2.9498310617208627e+01  1.7646188651418780e+02 -3.0092376345780330e+01 -3.3807376222472669e+01  1.9372098399116996e+02 -8.2265681757920035e+00 -3.4240781616241549e+01  2.0089729237492574e+02 4.0482022068089112e+00 -2.0508057564995767e+01  1.9695279291136754e+02 -4.2589217322885702e+00 -2.1197102306079206e+01  1.6959808801839267e+02 -1.3663964515558680e+01 -1.8249764133700836e+01  1.8184869273532851e+02 -1.1927316443207404e+01 -1.7572159167195821e+01  1.9392117567384869e+02 -1.0887723933034469e+01 -1.6409923266637527e+01  1.7112217122807760e+02 8.1873213630004400e+01 -1.3809979509863732e+02  1.8246832433318920e+02 7.0167775458196587e+01 -1.1521647530383734e+02  1.6113424196504241e+02 7.8420746013376430e+01 -1.2438022298205571e+02  1.6042408535145233e+02 8.1587846646902307e+01 -1.3626314022668367e+02  1.4916526155447050e+02 8.0862245443588662e+01 -1.3299224019051999e+02  1.6886207804132485e+02 6.6747556547898768e+01 -1.1468243613385202e+02  1.4918098547308784e+02 7.5824705667286622e+01 -1.2427644771323193e+02  1.4031927754312818e+02 7.3195918048815372e+01 -1.1353314226112748e+02  1.6926628936345537e+02 6.4342803422719157e+01 -9.6309005429536413e+01  2.0223967005648674e+02 5.2860933514493006e+01 -8.8253482198035044e+01  1.3402603291709971e+02 9.9910067303594005e+01 -1.4603454404046218e+02  1.5035344049856721e+02 7.9320180766148013e+01 -1.3527519394898593e+02  1.4799890733399820e+02 8.6640012756350629e+01 -1.3785807704189594e+02  1.4797773469805287e+02 9.2214042742499245e+01 -1.5080221566900605e+02  1.3387492934833369e+02 8.5943757918132491e+01 -1.3201481927163420e+02  1.3181838394042609e+02 9.1991548598561238e+01 -1.3259067912301532e+02  1.3067524056311927e+02 7.9535120151652691e+01 -1.1675216340849029e+02  1.3287504692360002e+02 7.5144063355732754e+01 -1.1876912883027516e+02  1.3458900811134984e+02 7.1962559506068970e+01 -1.1907421331612501e+02  1.6230906499554135e+02 8.3970007078398609e+01 -1.5760492305211451e+02  1.9721676710357073e+02 1.1371698163370317e+02 8.7875705455986562e+01  2.0851399960764559e+02 1.1501681972891346e+02 6.8801107911646241e+01  2.1752120817333579e+02 1.1680722659371399e+02 8.0637485654478112e+01  2.0492283627213189e+02 1.1540788563407183e+02 7.3443198284372670e+01  2.1766693779903841e+02 1.1306687736480553e+02 8.4917359220025517e+01  2.2937004822828231e+02 1.0677603196184552e+02 7.6734141903078296e+01  2.2177417447691329e+02 1.1347216511081588e+02 7.3678607429609357e+01  1.8707035805403851e+02 1.2154862753591563e+02 6.4960119492131980e+01  2.0105142162587026e+02 1.2384472084649784e+02 6.7782995335416359e+01  2.1820875497685557e+02 1.2498530008786010e+02 7.4319501535674178e+01  1.4207067284158714e+02 3.7621557521885670e+01 -8.9609584044089175e+01  1.0418528872899903e+02 3.4134617444868084e+01 -7.8362602146385854e+01  1.1881154116712584e+02 3.0805761551323148e+01 -7.5549136886733052e+01  1.1624416130084020e+02 4.2688857603320415e+01 -8.9570817036701669e+01  1.3002854781193534e+02 2.7219547785259035e+01 -8.0520161365931116e+01  1.1717716027867188e+02 1.5990198575191059e+01 -7.4811303084263713e+01  1.0772869092077916e+02 2.2851891056712176e+01 -6.5831460057849867e+01  9.2337004078765801e+01 4.4986386650712795e+01 -9.6656829999622758e+01  9.0883090773542975e+01 3.1430537933595406e+01 -7.8397736123706039e+01  9.3566851154863912e+01 2.1674227311287328e+01 -6.1308738035837536e+01  1.6488769885239040e+02 1.2763467917977542e+02 -1.8189365575133397e+02  1.6186038051991974e+02 9.9371233504825582e+01 -1.6963079031843031e+02  1.6865136138097674e+02 9.6620226731420203e+01 -1.4860024236635843e+02  1.5495873296854018e+02 1.1622152300348552e+02 -1.6216170553161518e+02  1.4304942737660605e+02 1.0855076042088346e+02 -1.5152590638933791e+02  1.6474892611804660e+02 8.0742218499951221e+01 -1.4428918113480853e+02  1.5522953932624324e+02 9.0488348601738949e+01 -1.3884059502217511e+02  1.6734750067576670e+02 7.2348177777035190e+01 -1.2772798147129575e+02  3.1538966752142105e+01 3.3759417718342437e+00 -1.9257040579703581e+01  3.3092330135955059e+01 7.8556121087116910e+00 -1.1615784429003185e+01  3.8704465882076640e+01 1.9267155617732922e+01 -8.2564621827831388e+00  2.8977700530506382e+01 8.5585368543596481e+00 -1.3068914085780117e+01  1.7481530907011845e+01 1.2152401842151976e+01 -5.6922850407649301e+00  2.5925037572189069e+01 1.4653812733953824e+01 -3.9144084289464600e+00  3.0721700176720315e+01 2.6702455509993925e+01 -6.2876924251297317e-01  4.4737569141046478e+01 4.0941598041341202e+01 4.4596600190522278e+00  3.8940906282660016e+01 2.7680750731467612e+01 5.2760799058849694e-01  3.3026500943423990e+01 1.5169248146957052e+01 -3.5119544604608497e+00  1.5342991209908703e+02 6.9193854677851661e+01 -1.2558942292416290e+01  1.3387360387208460e+02 2.8090569773106374e+01 -2.6512617827925272e+01  1.2898248894296626e+02 3.8937281246617360e+01 -1.8444595593971961e+01  1.3164898133056113e+02 5.6224637914124585e+01 -1.4455909601196559e+01  1.5640866245826422e+02 4.3555027627952278e+01 -2.3102984238222678e+01  1.6272000137526175e+02 1.6833715656499553e+01 -3.1494919121007786e+01  1.3374730737129551e+02 8.4111008948310406e+00 -2.9461468260908656e+01  1.0852719446972226e+02 4.4834017902396724e+01 -1.7818362839057929e+01  1.0426927653464411e+02 2.6087926216780801e+01 -2.2531800921417911e+01  1.0059539523627305e+02 4.7693328208353796e+00 -2.6798762126319929e+01  8.9683460089089237e+00 3.0499562380987772e+01 1.1893463872952013e+01  2.0951153182438656e+01 2.9127052331487519e+01 1.0512911851006548e+01  5.6850127129298675e+00 2.3661282079688895e+01 1.2938835640423230e+01  7.3926963096800549e+00 1.9488477068838232e+01 9.1090224618579239e+00  2.3104462278065849e+01 2.5581142990162995e+01 5.1082606142843003e+00  6.8645631729965579e+00 3.6883806296838706e+01 1.5537012094701037e+01  7.7729892148639890e-01 3.7750358008424726e+01 2.6725558035541141e+01  3.6922352266119454e+00 9.3020136839361331e+00 6.2876803892940707e+00  1.7760826548866241e+01 1.4108156743238679e+01 2.0870864697702074e+00  3.2056676205553845e+02 -9.1281713614891358e-01 -1.1071731897430494e+01  2.8611544879700836e+02 2.9099888912871514e+00 -1.8533868733189614e+01  2.8522812214982963e+02 2.2757863818887322e-01 5.3001654446504221e-01  3.3493222776258665e+02 -3.0537152143611873e-01 -3.7940916419017880e+00  3.5004775639383621e+02 9.3136638677225092e-01 -2.4645059314135311e+00  2.9935008583156491e+02 3.6284307414330170e+00 -2.3159324248468600e+01  3.0156181802824193e+02 -1.9321760334619587e-01 -1.7874907725321540e-01  2.7442261576912114e+02 -4.9121400835911537e-03 -1.0024447237123712e-02  2.7420246149242615e+02 4.1354978359292494e+00 -1.2311852711699599e+01  2.7245283228265782e+02 7.9412582874665762e+00 -2.5199220980487482e+01  1.9688936095934724e+02 -9.5801943429399428e-01 -4.7913469242167572e+01  1.6334766499549153e+02 -1.7515908668287540e+01 -2.8759908710718040e+01  1.8035075968379422e+02 -1.7374736660633346e+01 -3.2308303021534307e+01  1.5708649981827057e+02 -4.8020695527830988e+01 -4.2732477786581178e+01  1.5472635995758458e+02 -4.5545044403508314e+01 -3.5091892700274606e+01  1.4851840432276384e+02 -3.3877172404990510e+01 -2.3226879400694397e+01  1.5580359885282681e+02 -2.6271503272308930e+01 -2.4418773451336406e+01  1.5620709984306842e+02 -1.4566749139726088e+01 -1.6934790134234373e+01  1.4035068709260369e+02 -1.5152441629610889e+01 -1.5576365498136010e+01  1.6143447776817587e+02 1.1544200328864202e+01 -1.4282255744855291e+02  2.2644617309453281e+02 8.5579939026352729e+00 -1.0904555308509764e+02  1.9426705500748804e+02 2.4155833454365272e+01 -1.0558188030713028e+02  1.7869196385618247e+02 1.5803739272211825e+01 -1.0463775208880824e+02  2.0035538718419789e+02 -3.6056971300250393e+00 -1.2211899977430370e+02  1.9116705633728245e+02 1.7643033973335367e+01 -1.4585277834195051e+02  2.1820722868184473e+02 2.2667779926270750e+01 -1.3639246236512534e+02  1.7799313282510957e+02 2.1327518322358745e+01 -8.8364106855704307e+01  1.9302824014274421e+02 9.6193183838840071e+00 -8.9128773160431194e+01  2.1895977701075006e+02 -7.4990347087443148e+00 -8.2373304988198583e+01  2.5070703652791428e+02 1.1862794269956891e+02 -5.9617721655411895e+00  2.0182412815157832e+02 1.1563584417477627e+02 5.6859556192238356e+00  2.0879807627813693e+02 1.2006449939310495e+02 2.1993263614794616e+00  2.2140471829123911e+02 1.0400813542099955e+02 -2.2783191034752770e+00  2.2266208297321202e+02 1.3126863333155603e+02 -1.7608368227600204e+00  2.1433934875501151e+02 1.3133698235824752e+02 6.0961272959904020e+00  2.1283055218475343e+02 1.5706010029550700e+02 9.6972669664436424e+00  2.0476129752704210e+02 1.4368458818588093e+02 1.3912083048071155e+01  2.0181218059868033e+02 9.3897098705468949e+01 -4.1673294453980088e+00  2.0035511115614011e+02 1.3325382058088707e+02 1.7172018744059521e+01  7.0927414827526050e+01 9.9645008244004046e+01 -9.8869891262445378e+01  8.8909065236345484e+01 9.9461869435288065e+01 -1.1223263515531920e+02  8.2917728342297096e+01 9.4707143134662019e+01 -9.9856484234616360e+01  8.5067007543787284e+01 7.7404316094416274e+01 -9.7234661616253945e+01  9.8498599946993878e+01 5.6986145311106000e+01 -9.3555921534222733e+01  1.0248747410084060e+02 7.7304903208555899e+01 -1.0710285348411490e+02  9.7998216926951798e+01 7.1269410655214756e+01 -9.6996445009605637e+01  9.5626488983535211e+01 8.7732474118148929e+01 -1.0038275913501082e+02  1.0204041579913212e+02 9.3336521964377596e+01 -1.1222352693792045e+02  1.0725702611132517e+02 9.7245678263529101e+01 -1.2296824438710679e+02  1.6744653941229851e+02 1.0232022196527518e+02 1.6051369076489941e-01  1.1544133550461868e+02 8.1146711674007477e+01 1.6665298030188396e+00  1.4318849884103011e+02 1.0847532882350900e+02 3.5922736180617965e+00  1.3292698152812673e+02 1.0180536930991050e+02 1.7033668391518714e-01  1.4109784778891103e+02 8.0886995118554296e+01 6.5533045908541851e-02  1.1933183682006762e+02 5.3895210836222518e+01 -3.9649784874197180e-01  1.0873987290311253e+02 7.2634230288144337e+01 -1.4559541067508874e-01  9.5488248933386132e+01 9.2927807698104957e+01 -9.6662082398401555e-03  1.0442930486752167e+02 1.0211809922804584e+02 2.3948589501221411e+00  1.1493177533957102e+02 1.1258238238728912e+02 5.1344720079485793e+00  2.2883044980982319e+02 1.3715612030018210e+02 -1.0215538321054536e+01  2.0214361644789801e+02 1.2775841397658421e+02 -7.7385330942557184e-01  2.0635059663521866e+02 1.2077122728829458e+02 -1.0132033745392858e+01  2.0298412256541454e+02 1.3842356385355765e+02 4.4435725793673259e-01  1.9421666530855833e+02 1.3325931592119895e+02 -1.5905675914119810e+00  1.9948258913187462e+02 1.2872416888610400e+02 -2.3726780656409137e+00  2.0030047566136017e+02 1.2579331381214381e+02 -5.5361644136498214e+00  1.9316504893298833e+02 1.0807497157826477e+02 -6.4243293892991815e+00  1.9431315487483940e+02 1.2119168218844035e+02 -1.0709406593668240e+00  1.9550640865992213e+02 1.2912937865397762e+02 1.9060233335094363e+00  2.5462320963997232e+02 8.3697783612991159e+01 -1.8437003689890226e+00  2.1221842257386859e+02 7.0634404027261013e+01 -1.2266481584136686e+01  2.3101934110231713e+02 6.9314923822624607e+01 -1.0699712389773063e+01  2.2238288452302436e+02 9.3181922721836727e+01 -5.1048460786149636e+00  2.2605917936068946e+02 6.1102054604804863e+01 -1.7982930771453340e+01  2.6078161969893870e+02 8.9387738472795419e+01 6.7907756249612161e+00  2.1118265134057143e+02 4.8960354596099442e+01 -1.7382265262549854e+01  1.8174770430214485e+02 2.5719851036807391e+01 -3.6557274508142079e+00  1.8416913197817772e+02 2.0728916940121135e+01 -2.4374206372467979e+00  1.7712037958705352e+02 3.9185840331169700e+01 2.6478353579862941e+00  1.6773241225363017e+02 2.9181763773538844e+01 -2.1360052447518107e+00  1.5178850672672814e+02 3.7126942568701558e+01 -4.2371966934296068e-01  1.8298471767950241e+02 3.6507049054706471e+01 2.1322205585911131e+00  1.7216049416550879e+02 2.7157322444566645e+01 -1.0964953423780668e+00  1.6444708698001602e+02 5.0438760015412996e+01 2.1076388610774610e+00  1.7811943655222518e+02 6.0268307888067888e+01 4.2710970060223348e+00  1.8708307659149096e+02 1.6373496687479836e+01 -8.7813215757781926e-01  2.3451013081121428e+02 1.6594834191729623e+02 2.4893714878404889e+01  1.8110958736375096e+02 1.3899392070515458e+02 1.6978184451546525e+01  1.7105000706372365e+02 1.5488677043157773e+02 3.0858967777451809e+01  1.9968832981544358e+02 1.5665101616742177e+02 2.3394105665681813e+01  1.9070218703360848e+02 1.6148473257140719e+02 3.6450753170574025e+01  2.0016302424305005e+02 1.3691315457032150e+02 1.6256215698975854e+01  1.6501427686690232e+02 1.5863343889643033e+02 4.0639422045468343e+01  1.7497008316198662e+02 1.4255814004361869e+02 2.6747434511507517e+01  1.8406330031651879e+02 1.2666683480784522e+02 1.2432752765243201e+01  1.8023664719814872e+02 1.5514649467969394e+02 2.1390338380624165e+01  1.9205312600470975e+02 4.0430390125944221e+01 -2.1184959414181289e+01  1.9251769815797761e+02 2.7698311015631532e+01 -2.1414273958736562e+01  1.9736509354421133e+02 3.4842217053653023e+01 -2.7805211917995450e+01  1.9787628518678352e+02 3.6019948320530084e+01 -1.9259953312486626e+01  1.9694389336606682e+02 3.0413364424238644e+01 -3.2559580594096026e+01  1.9808737879182812e+02 2.8594825960329874e+01 -2.4927917359283924e+01  1.9892132663547071e+02 2.1594064156690056e+01 -1.9828486900256252e+01  1.0874012407683315e+01 -7.4796548565910852e+00 6.4513272925152609e+00  1.1203241689198526e+01 1.8998051749497635e+00 4.3285622197241729e+00  1.6399670840802809e+01 1.0118035026400900e+00 5.3118346048059042e+00  7.7402418112019644e+00 2.3786059473972096e-01 3.9539604818471084e+00  5.2438767486844027e+00 -3.7598156433622369e+00 5.1987367261733146e+00  2.6709869030151920e+00 -1.7812489252852577e+00 3.4383284303957415e+00  4.7530867529955980e+00 2.2423802982229382e+00 3.7042948232582749e+00  2.1787155892933887e+00 3.0904738299874848e+00 3.2681926288197873e+00  6.6309152720929658e+00 6.7011654961395717e+00 4.7423200091788855e+00  1.5843359834042056e+01 1.4345356685027095e+01 5.7880105307822607e+00  2.0749249774383526e+02 1.8016715468387082e+02 1.2893407180204864e+01  1.7623185725782096e+02 1.7369552409832664e+02 1.9401869483621308e+01  1.8946537233836401e+02 1.7831096384849855e+02 1.8540324696553053e+01  1.9188244187121867e+02 1.6374271922901508e+02 1.4716862368527032e+01  1.8836366903732281e+02 1.7953468393067138e+02 1.9093556371019901e+01  1.7995418585246455e+02 1.7731366800691805e+02 1.7647254483645487e+01  1.8517430154078545e+02 1.6441556815486695e+02 1.7610914206230756e+01  1.8318662922823091e+02 1.5185667339374416e+02 1.6191668253104996e+01  1.8131634050997533e+02 1.6323656847592520e+02 1.7044704797517412e+01  1.7729350561481485e+02 1.7366494348146657e+02 2.2512123542313706e+01  2.9204301720140415e+02 1.1047917114130279e+02 2.9656012086642254e+00  2.4200978624360835e+02 7.9138607502039036e+01 1.3538929179482714e+01  2.4202917143897145e+02 4.1248668608395654e+01 8.7617818433878796e+00  2.6097664722943387e+02 5.6134470412551366e+01 -4.8333171358773521e+00  2.7047161959488386e+02 6.0918325968482492e+01 1.8366225383808345e+01  2.4362749808389242e+02 1.2068430021519052e+02 3.3288873424174341e+01  2.4513198109974451e+02 2.4911739639897231e+01 1.5484889737765904e+01  2.4938612159521205e+02 6.5770476768691722e+01 2.8711423784070803e+01  2.3060616312806164e+02 9.7217408544992139e+01 3.3290672420526334e+01  2.3422213520243059e+02 4.6802592902477940e+01 -1.8013462022299671e+00  2.0620062542402169e+02 5.2421299287488857e+01 -1.4661253930449595e+02  2.4606498158160665e+02 3.3076448043624225e+01 -1.0425269469393567e+02  2.0843203864986867e+02 4.9514863986716726e+01 -1.1705496443599064e+02  2.1802169958474335e+02 3.9212402589857312e+01 -1.1157131693042055e+02  2.3612282390166902e+02 2.9917782237853938e+01 -1.4632298208489325e+02  2.2752872321931000e+02 2.6833366117159709e+01 -6.9720622129912243e+01  2.1380329808399642e+02 3.8902729029191327e+01 -7.9501803923996178e+01  2.5964820852377954e+02 2.1389746115191219e+01 -1.0152514726265944e+02  2.9524913042223403e+02 5.9630825072004683e+00 -1.4518347331282993e+02  1.2868878521313994e+02 2.3358756065462060e+02 1.4839560317591220e+01  1.3985977106786422e+02 1.8896819807706288e+02 2.1321096125581278e+01  1.1049176431295128e+02 2.0543827850747437e+02 3.1499570457572343e+01  1.2375575176802006e+02 2.0550296247652997e+02 2.6862310976487581e+01  1.4606465229459539e+02 2.0591190494987518e+02 1.4782737550439236e+01  1.4993976709434318e+02 1.9069989215598497e+02 1.6993631405192332e+01  1.3241840820079116e+02 1.9092299159872201e+02 2.6694506770123340e+01  1.3009277208309103e+02 1.8137667909010824e+02 2.6165233924241807e+01  1.2200542108399513e+02 1.8106185102329911e+02 2.8742265165396521e+01  1.1370908664215072e+02 1.8224240796140853e+02 3.4031505341364486e+01  1.8106584930295395e+02 1.2182829017224698e+02 7.6179721672458712e+01  1.6917005732858138e+02 1.0482293415481249e+02 8.1349667629363864e+01  1.7021038699606549e+02 1.1327421086872471e+02 8.5513059479302072e+01  1.9097015253415796e+02 9.8050437630293303e+01 8.5573855809761000e+01  1.6636773584199187e+02 1.0256070715836051e+02 9.6444793548820940e+01  1.7330390108046814e+02 1.1005425466075064e+02 9.6623072835372838e+01  1.6342742288258435e+02 9.4291212254377612e+01 9.8104709373020071e+01  1.3165316352988043e+02 1.0425023744964447e+02 9.8608901691350354e+01  1.5652725731794374e+02 1.0335589520854136e+02 9.8057405083612835e+01  1.7336887813114387e+02 9.7908817228808999e+01 9.4491264882000507e+01  7.0715380280018877e+01 1.0650092257914110e+02 -1.3020723241123287e+02  8.3455650627765067e+01 8.9901754885562497e+01 -1.2365627361948586e+02  7.6804717458550911e+01 8.1354363411994498e+01 -1.1382752852340991e+02  7.7010425235040955e+01 9.65447