<?xml version="1.0"?>
<VTKFile type="UnstructuredGrid"  version="0.1"  >
<UnstructuredGrid>
<Piece  NumberOfPoints="8910" NumberOfCells="42013">
<Points>
<DataArray  type="Float64"  NumberOfComponents="3"  format="ascii">19.41248936551407 29.96702314932147 19.78441468244  19.00691882824029 30.42504340146002 19.48131082018984  19.39948848068375 30.26192180711236 18.80303259530177  19.60853293761743 30.56610522405741 19.60866629808022  19.80457650972078 31.16518729879334 19.43291791372044  19.20296240034365 31.02412547619596 19.30556243583006  19.59553205278711 30.8610038818483 18.62728421094199  19.38648759585343 30.55682046490325 17.82165050816355  18.99391794340997 30.71994205925091 18.49992873305161  18.60134829096651 30.88306365359857 19.17820695793968  24.35322952270508 25.77181053161621 20.2296199798584  23.84355520808224 25.51950246760548 20.18921568538401  23.89604312867078 25.44343771336307 20.17777522782065  24.03353952967647 25.84366781184377 20.02547552730295  24.16324520111084 25.44764518737793 20.39336013793945  23.9732608795166 25.12347984313965 20.55710029602051  23.70605880707654 25.11927236912479 20.34151538590171  23.71384953664787 25.91552509207132 19.8213310747475  23.57635313564218 25.51529499359063 19.97363077526521  23.43885673463649 25.11506489510993 20.12593047578291  24.18917083740234 29.50247001647949 18.38702011108398  23.56607810419133 29.58333464964225 18.71894997876051  23.82238586522976 29.85677929515131 18.30981374379611  23.63612761702461 29.40514256388118 18.07571272568156  23.08308439664687 29.30781511128287 17.76440534027913  23.0130348838136 29.48600719704394 18.40764259335808  23.26934264485202 29.75945184255299 17.99850635839368  23.45560089305717 30.21108857382312 18.23260737650823  23.19929313201875 29.93764392831406 18.64174361147263  22.94298537098031 29.664199282805 19.05087984643702  21.41310393009661 29.36629552135026 14.19924124031513  21.76105455130414 30.2041442670426 14.98386448660748  21.53205230445727 29.69114988012143 15.02694745515916  21.17856679217605 30.00822234416021 14.44557439837044  21.64210617694348 29.87928990827144 14.15615827176346  21.87110842379035 30.39228429519261 14.11307530321178  21.40756903902292 30.52121673108139 14.40249142981877  20.94402965425549 30.65014916697016 14.69190755642576  21.29751516653671 30.33307670293137 15.27328061321447  21.65100067881792 30.01600423889259 15.85465367000318  21.50028891272076 33.72740869118979 15.88374886116869  21.36250766773685 33.90732669112339 16.88565003328673  21.57356363422707 33.29041398322751 16.43216931454363  21.12878381658164 33.74433869940511 16.34458962111051  20.75727872044252 33.76126870762044 16.80543038105233  21.20205853808795 33.30734399144283 16.89301007448545  21.64683835573338 32.85341927526522 16.98058976791857  21.80728748538228 33.45340197494578 16.97322972671985  21.96773661503119 34.05338467462634 16.96586968552114  23.87555975219768 27.17160529182351 16.65008344865056  23.17569052371038 27.37923227191846 16.92273187597355  23.64627535110641 27.62184464348632 17.20054814940205  23.76342831252481 27.18250443954946 17.11090243730677  23.75840679077928 27.61094549576037 16.73972916074585  23.28782196338325 27.36833312419251 16.46191288731735  23.64125382936088 28.05028569969723 16.82937487284113  23.17066900196485 27.80767332812937 16.55155859941263  23.65129687285194 27.19340358727541 17.57172142596298  22.70008417456881 27.5650609565615 16.27374232598413  22.43511313452115 23.74535430098671 18.48876022960372  22.03917175897708 24.03306099223418 17.77945381618484  22.3303063501387 24.31660111670204 18.2209234256069  21.91756369977522 23.88626038278272 18.27225772090003  22.55672119372301 23.89215491043818 17.99595632488854  22.67832925292487 24.03895551988965 17.50315242017336  22.45191440934056 24.46340172615351 17.72811952089172  21.40001426502928 24.02716646457872 18.05575521219633  21.81275691539277 24.45750719849804 18.00442091690321  22.22549956575625 24.88784793241737 17.95308662161008  22.17668115461976 26.5052760919611 16.84519432229425  21.95738713442729 25.87222203006507 17.62431174930437  22.47064007549312 25.71858105437672 17.49524994584345  22.24334488004813 26.34343762954063 17.47051303708741  21.89072340899893 26.03406049248555 16.99899303451122  22.40397635006475 25.8804195167972 16.8699312310503  22.63127154550974 25.25556294163329 16.89466813980635  22.11801860444392 25.40920391732164 17.02372994326726  21.6047656633781 25.56284489301 17.15279174672818  22.31000860547649 26.18159916712015 18.09583175188056  24.50307083129883 30.00312995910645 20.53074073791504  24.26672722910141 29.78043844342677 19.92850364591209  24.62957000732422 29.7587947845459 20.19182014465332  24.37890529632568 29.6389102935791 20.47496509552002  24.25473976135254 29.27469062805176 20.419189453125  24.14256169412826 29.41621877789943 19.87272800351708  24.50540447235107 29.39457511901855 20.1360445022583  24.75606918334961 29.51445960998535 19.8528995513916  24.3932264051268 29.53610326886622 19.58958305265038  24.03038362690399 29.5577469277471 19.32626655390915  21.81675262664701 31.77062442868207 15.87637439325689  22.688754302257 30.85231818388287 15.92445457958686  21.73387665273247 30.89331433378733 15.86551403163003  22.37603268235804 31.24466448448467 15.45410902235237  22.12947424654597 31.37827812808028 16.34671995049138  22.44219586644493 30.98593182747848 16.81706550772588  22.04659827263142 30.50096803318554 16.33585958886453  22.93531273806907 30.71870454028726 15.03184365144785  22.2931567084435 30.36735438958992 15.44324866072552  23.44865877528473 26.7894793404234 16.90479134961769  22.91398901373585 26.84933983961826 17.20845787412862  22.43838266459429 27.0351685242613 16.55946832413919  22.71135091616864 26.44541559276625 16.54152779778332  23.24602067771752 26.38555509357139 16.23786127327239  22.97305242614317 26.97530802506645 16.25580179962826  24.06665760535251 29.93985507781172 20.21650294093091  24.19082314032566 30.30407474333906 20.27227858332593  23.87857544935248 30.60501952757168 20.01381642873682  23.95447953812823 30.08138322765939 19.67004149132298  21.33962059020996 24.1615104675293 17.30558013916016  21.99962493546602 24.72719861678242 17.26765334956237  21.78256007798311 24.52467919997333 17.62933338038512  21.47219312679403 24.86217768026965 17.22918594294417  21.55668544769287 24.36402988433838 16.9439001083374  21.77375030517578 24.56654930114746 16.58222007751465  21.68925798427694 25.06469709707873 16.86750591212141  21.91513261456717 25.22534641271368 17.55293918416913  21.03264999389648 32.81552886962891 20.69906044006348  21.32368904485772 33.08299634544777 19.92939932117827  21.54962833118176 33.34184070544933 20.4836229774324  21.05820377063489 33.25481983142589 20.33620304792801  21.29813526811932 32.64370538365078 20.29225671331374  21.78955982866619 32.73072625767422 20.43967664281814  21.52407455444336 32.90254974365234 20.84648036956787  22.01549911499023 32.98957061767578 20.99390029907227  21.56362054234215 32.47188189767266 19.88545298656401  21.0837575473733 33.69411079322288 19.97334565579254  22.28807519775039 27.85222532689295 17.74411560958416  23.32934170994806 27.61774119591825 18.47537821413302  22.94631129527884 28.08647541003703 17.86619016611372  22.81970158387671 28.16682825308629 18.53072023625879  22.67110561241962 27.38349111277417 18.35330365760346  23.35132797000303 28.48143117927964 19.31732486293344  23.47793768140516 28.40107833623038 18.65279479278836  23.20273199854594 27.69809403896751 19.1399082842781  23.05413602708883 26.91475689865538 18.96249170562276  23.60454739280728 28.32072549318111 17.98826472264328  23.16647911071777 28.98159027099609 20.98299026489258  23.49732139986961 28.95351277683688 20.46667262039787  23.81484508514404 29.26708507537842 20.80047988891602  23.16624096316306 29.10298787449313 20.61370249710685  23.49755954742432 28.83211517333984 20.83596038818359  23.48352650088279 29.53795777653171 20.57822199783927  23.4837646484375 29.41656017303467 20.947509765625  23.80105018615723 29.85153007507324 20.91202926635742  23.82863998413086 28.68264007568359 20.68893051147461  23.16600281560835 29.22438547799016 20.24441472932113  21.97636032104492 33.62340927124023 13.99886989593506  22.27362707547461 33.28012072627635 14.89542429452411  22.74090264142756 32.99662599579289 14.71519587991315  21.83754159322575 33.23532453259681 14.39190580683853  22.3048171591787 32.95182980211334 14.21167739222758  22.63327399731248 32.28025033298645 14.42448488852009  22.16599843135953 32.56374506346992 14.60471330313105  21.69872286540658 32.84723979395338 14.78494171774201  20.32904052734375 33.09302139282227 14.79778957366943  21.14698661385876 32.84851715909786 15.28867290149863  20.8012253016999 33.23855693008991 15.1094569712165  21.01388169637517 32.97013059338782 14.79136564570572  20.46214544482735 32.9714079585323 15.29509682946235  20.66812038421631 33.36017036437988 14.61214971542358  21.00720024108887 33.6273193359375 14.42650985717773  21.35296155324772 33.23727956494544 14.60572578745987  20.59525036231094 32.84979452424233 15.79240408525526  19.99748039245605 27.73398017883301 14.84626007080078  20.58319612664013 28.16543496797161 15.39267060745853  20.13530806106534 27.68320356981287 15.54913106532369  20.56171914418464 27.61830066061519 14.99816715297801  20.01895737491154 28.28111448618943 15.2407635252813  20.04043435736703 28.82824879354585 15.63526697976181  20.15678504352083 28.23033787716929 15.94363451980421  21.12595789591323 27.50262114239737 15.15007423515525  20.69954681279394 27.56752405159506 15.70103814750092  20.27313572967464 27.63242696079274 16.2520020598466  21.09566224275608 32.28931334820821 16.87919571327114  21.73179549119019 32.31202185197365 16.42848208058773  21.96668145108113 31.82354068758247 16.79687911794623  21.1806193782129 31.74791592491663 16.3270880259403  20.54448612977878 31.7252074211512 16.77780165862372  21.33054820264702 31.80083218381704 17.24
[...]
<PointData  Vectors="u"> 
<DataArray  type="Float64"  Name="u"  NumberOfComponents="3" format="ascii">1.0387933663935567e+02 8.1609498616132356e+01 -6.7455934953048873e+00  1.0460830618046670e+02 8.0992865456353499e+01 9.4311714660870682e-01  1.1680334990577344e+02 8.5690869536243738e+01 8.1717245720638232e+00  1.1731770148904437e+02 8.7665535095633942e+01 -1.0659791305419160e+01  1.2997894029215055e+02 1.0355244061208292e+02 -7.4138228349575783e+00  1.1937644693441102e+02 8.9459334503020301e+01 -2.2784595289751595e+00  1.2784966049401059e+02 9.5358035786385500e+01 8.8008286659764376e+00  1.3705149207053344e+02 8.7933822103876750e+01 2.0508451745006440e+01  1.2459308584900867e+02 8.6002357199560606e+01 1.9151259693272955e+01  1.0845422664449563e+02 8.0943636792221511e+01 1.4347456515149842e+01  2.9505219853288846e+01 4.5863514112265477e+01 -3.0797926681958725e+01  4.2439214203529630e+01 4.8064851981685138e+01 -3.0482125381697720e+01  4.2178924791861533e+01 4.6928881739174614e+01 -3.0978501526797984e+01  3.6873945096229129e+01 4.8370176516584756e+01 -3.2151972792492664e+01  3.5000864110356893e+01 4.6070196747299811e+01 -3.3267084083602946e+01  3.9711798868975151e+01 4.2128745485823977e+01 -2.1664983182811685e+01  4.9833643162635177e+01 4.7435658411271525e+01 -2.5679207113442317e+01  4.4139306551786518e+01 5.0855199471196727e+01 -3.2529590723032236e+01  5.0079194647620483e+01 4.9575493660359648e+01 -3.1460008107662663e+01  5.7159926119428533e+01 5.1337862995752829e+01 -3.0601613224113926e+01  -1.2534560167984973e+01 1.0696040706305487e+02 1.3791332876423384e+01  2.9637959477922333e+01 1.0656773938206571e+02 4.7939157384387610e+00  1.1893410082942115e+01 1.1104175586124919e+02 8.0172417337353377e+00  1.3937355372828177e+01 9.2797059663114197e+01 -1.0226022074794608e+01  4.2027393474581693e+01 8.4354466483341895e+01 -2.3331506586319584e+01  4.7168799882864462e+01 9.6710298197032628e+01 -7.7462995973505953e+00  3.5049530863376930e+01 9.8342899588551390e+01 -1.0642184027827968e+01  3.2985225148220835e+01 1.1284875047318073e+02 3.2517923507796387e+00  4.5857986252985405e+01 1.1055305809360567e+02 3.6036364161099756e+00  5.6290710191641487e+01 1.0848797758154893e+02 1.7973621050552284e+00  1.2793337375933875e+02 5.0686386889346544e+01 -5.2183088513378451e+01  1.2716398294589484e+02 7.7610377525091735e+01 -4.4060939080766886e+01  1.2825127673833748e+02 6.1081454795418360e+01 -4.4907017446773068e+01  1.5388235472175111e+02 6.1895135532894258e+01 -5.1932872964778149e+01  1.2945869949937702e+02 6.6925731781741362e+01 -5.3998204273350368e+01  1.2828565410658214e+02 8.0963608758302954e+01 -5.3946010651638090e+01  1.5037284338654774e+02 7.9356721579933264e+01 -5.1261652285262961e+01  1.8034122748700469e+02 8.0946317887422282e+01 -3.4819630883316627e+01  1.4509408123536085e+02 7.8592171616510626e+01 -3.1837694611549058e+01  1.1759281543233071e+02 7.7053468028464579e+01 -3.2348824962881295e+01  9.1996540768525364e+01 1.5124963984064951e+02 -2.8785689793689230e+01  9.1336338542125674e+01 1.4717444220438185e+02 -2.1725068843768259e+01  9.6928964403078723e+01 1.4701686076170324e+02 -2.1763644100962122e+01  9.2141017418343367e+01 1.5574154664923702e+02 -2.6004074947350286e+01  9.5942009248809057e+01 1.5933193477681928e+02 -2.6100747990976785e+01  1.0143421669784838e+02 1.4831454315360327e+02 -1.8056676248796492e+01  9.8250084205542279e+01 1.3991355291085577e+02 -1.4336225304107018e+01  9.1372049692843731e+01 1.4257862562619133e+02 -1.6891834665323699e+01  8.6220222366865599e+01 1.4079973169790017e+02 -1.8840824824662519e+01  4.4876764810874768e+01 2.1979858960842172e+01 -7.6998299630936060e+01  5.5524582340108999e+01 3.5675533450672731e+01 -6.3284628026142222e+01  3.5311869365666119e+01 3.5553192530272483e+01 -6.0411307756746972e+01  4.0985846571785366e+01 2.8065079117040220e+01 -6.8259960359588760e+01  3.9436954641855792e+01 2.9774552458710357e+01 -7.1097593926726589e+01  5.8135338298294208e+01 3.0361330522956532e+01 -6.8752484496482509e+01  3.3318451530217878e+01 3.9184961480053452e+01 -6.4543671641174967e+01  5.6747463276487899e+01 3.8755680524208586e+01 -6.3017994869894387e+01  3.9358541681323750e+01 3.5769256097017731e+01 -5.7737501697106993e+01  7.0812614271452816e+01 3.3541985344280846e+01 -6.4087008332063448e+01  1.0628156788231853e+02 6.3779091695157753e+01 -6.5202202326619201e+01  1.2689001161252449e+02 5.7904264093906356e+01 -9.5509739065341080e+01  1.0564469921177854e+02 5.5324446204571089e+01 -7.1355069228469588e+01  1.2517218093706431e+02 6.7903695163858458e+01 -6.5241104290068236e+01  1.0794967041519949e+02 5.6615314641643415e+01 -8.9553913199586304e+01  1.0240896663706590e+02 4.2085487646728943e+01 -1.1158137625490916e+02  1.0426796617385112e+02 4.5013341654321465e+01 -9.2111041701192690e+01  1.4992077303487321e+02 7.6963484566483245e+01 -5.6741278854925575e+01  1.2549731430335923e+02 5.9397064705666175e+01 -7.3305434459446900e+01  1.0361768858915947e+02 4.9113917155062261e+01 -7.4152788112999161e+01  8.4774694182837877e+01 3.1330005111737499e+01 -7.7347373812715773e+01  1.0035515672287963e+02 4.6447909459111656e+01 -6.9631755522925957e+01  8.6225517346602757e+01 3.7208868541919045e+01 -7.6474348086841502e+01  8.6136944945259387e+01 4.1605315906430341e+01 -6.6430396434598109e+01  9.7388229033409488e+01 3.4750394371790932e+01 -8.6574218973615345e+01  8.3514120276893536e+01 2.6653109742220124e+01 -8.6939092624331124e+01  8.4025076072530695e+01 2.1945535965075912e+01 -9.9141745598134037e+01  9.7757143929338952e+01 3.0444225938794752e+01 -9.8795587492074930e+01  1.2167259057442433e+02 4.4490215560441605e+01 -9.4883846486532704e+01  8.4300268856482433e+01 4.9391999596026757e+01 -5.5160663633468239e+01  4.2384452047487962e+01 1.7414557893012142e+02 5.2583947184706240e+01  3.6758484333724624e+01 1.4787251263512650e+02 3.1785532507130320e+01  3.6594454330490173e+01 1.5421405447880610e+02 4.4012483057167735e+01  5.1523478662830939e+01 1.6135319663789002e+02 3.2219987909958270e+01  3.1491607847669471e+01 1.5066741916750487e+02 1.1268807849132580e+01  2.9412410121375043e+01 1.3403970695684924e+02 1.8645608136660123e+01  1.8331701710047081e+01 1.6133863427902932e+02 2.4433571382748333e+01  1.0266751213639040e+01 1.5542968255900772e+02 3.5099195506384859e+01  1.8494947543506768e+01 1.3774849044253540e+02 2.6175175872645784e+01  2.4517306682907037e+01 1.2422907786025456e+02 1.9197055500062099e+01  1.1362010671713007e+02 1.2234667999665059e+02 -2.6649916164252840e+01  8.1868179816616333e+01 1.0152479978785628e+02 -4.4777386350121660e+01  1.1791601960380535e+02 1.0010794782368211e+02 -2.8420106374552105e+01  1.0238404468845270e+02 1.0766821761112523e+02 -4.3227451379908409e+01  9.5897735379933096e+01 1.1381415585708318e+02 -2.6179086478371030e+01  7.7637037067250517e+01 1.0803912271261787e+02 -2.4042100297218273e+01  9.7619878752846120e+01 9.4354308888743418e+01 -2.9169655509065016e+01  9.2155002282743567e+01 9.6545832770033996e+01 -6.0346134719957000e+01  1.0292925186610996e+02 8.6679092241034994e+01 -4.5521727251492777e+01  5.5463062259763682e+01 2.5592352590849615e+01 -7.2837232819864582e+01  6.5494631629671915e+01 3.5537481176417380e+01 -6.4761643710085096e+01  7.5399540447506070e+01 2.9798009773208204e+01 -6.9334586048520606e+01  7.1930702778341413e+01 2.3032416649462750e+01 -7.8389887277116742e+01  6.5652139540740720e+01 1.5550055069976498e+01 -8.0145356997938649e+01  6.7573148056257210e+01 2.4603162364983437e+01 -7.1812593004953285e+01  5.1433375333166346e+01 1.5534150355238668e+02 3.2248962584767455e+01  5.4991782437023147e+01 1.6745081606059301e+02 4.6506422630877992e+01  6.4355229203772566e+01 1.5957433869338232e+02 4.4228909847887863e+01  4.3664925734170829e+01 1.4259515671214513e+02 3.0197799551257035e+01  1.9216269750327430e+02 6.5169301491814707e+01 -1.2592430651111292e+02  1.1675822725809810e+02 3.8964467900965474e+01 -1.0634433375150330e+02  1.3139022982677400e+02 5.3097390395153248e+01 -9.3713314011712825e+01  1.4437119106137123e+02 4.6794524088644721e+01 -1.1161958524109336e+02  1.4227215516438886e+02 3.4335401156093667e+01 -1.4944940997067440e+02  1.1470875246708202e+02 8.4060922940913372e+00 -1.6418500958910155e+02  1.2369307983497052e+02 3.2898871852265188e+01 -1.2158422584168471e+02  1.1241479237259215e+02 4.6000465101078035e+01 -8.3913054369516061e+01  7.6786094818242077e+01 1.2781221982827620e+02 5.6335192429552528e+01  1.0928998807420547e+02 1.2796836764751795e+02 3.2930872259495182e+01  1.0510805559099160e+02 1.1754520145020989e+02 3.8286980173853458e+01  9.8603770434073581e+01 1.1643000047940023e+02 4.6788109522738559e+01  9.8729628590234014e+01 1.3540489366314873e+02 4.1815816524629824e+01  1.0726183994002784e+02 1.3654734375998208e+02 3.3334783667982506e+01  9.4287620398649693e+01 1.3988584622521589e+02 4.7114986809317692e+01  1.1440451683153435e+02 1.3565560187088889e+02 4.0832044300875424e+01  1.0724810290420169e+02 1.3685539265403557e+02 3.0346487829257601e+01  1.0830244488174938e+02 1.1652950201537929e+02 2.7601922577636699e+01  7.3891547158646361e+01 5.8834479804974059e+01 -3.9574340847317771e+01  4.1578252243304895e+01 5.8161234882149202e+01 -3.2815781265364684e+01  5.2000524841972883e+01 6.0507697151316968e+01 -3.6718873890079124e+01  5.4458413639442767e+01 7.1140654260189450e+01 -2.4796758897142524e+01  6.3318055723805507e+01 5.8487083574292285e+01 -3.6973916360576347e+01  3.9691932328717023e+01 8.7211354637520913e+01 -9.8451613119170602e+00  3.0726995289735157e+01 7.4290430670401449e+01 -1.6691609200995003e+01  4.5539223443855271e+01 6.9436198582722909e+01 -2.2779658661854679e+01  5.4959046750657166e+01 5.7775626855529886e+01 -3.4310340681207315e+01  2.2608578081047771e+01 5.9880517868867265e+01 -3.0582090991288723e+01  5.4345454035955029e+01 1.1576157631679173e+02 -4.4324004019365209e+00  4.4874831657716591e+01 1.1853028911235131e+02 -2.3912807621420309e-01  3.9198049155468581e+01 1.3754358755521841e+02 3.9778409935420762e+00  5.7174623113225572e+01 1.1692930750825221e+02 -7.1222906043017908e-01  4.6950619926845164e+01 1.2555301837450004e+02 -4.0654423768831718e+00  5.7227743118319793e+01 1.3778527421093000e+02 3.6392273590897846e+00  6.0479062095420488e+01 1.3149040845517050e+02 -6.8456379301631562e+00  7.4062433643051676e+01 1.7640929403622280e+02 1.7734029668823343e+01  2.8919956906138143e+01 1.1858078858152321e+02 -5.5229985322065600e+00  5.5943939275149454e+01 1.1772921279682386e+02 1.7600910728109538e+00  1.2182531369670335e+02 1.6224364310677399e+02 -2.7774364660523233e+01  1.0383149698087513e+02 1.3995590473841801e+02 -3.9920819209726538e+01  1.0563660810183480e+02 1.3276297387276429e+02 -4.9880411998063721e+01  1.2282442682696748e+02 1.4849132641561928e+02 -2.3428181564925008e+01  1.2572808160770977e+02 1.3338327815177095e+02 -3.8882280116734947e+01  1.1612420619806068e+02 1.2406203861962562e+02 -5.1378896456323581e+01  1.2080897030748842e+02 1.3110102520602820e+02 -3.9790089609198809e+01  1.2181974345927810e+02 1.4504888458896667e+02 -2.8676289755216875e+01  1.2444982994180364e+02 2.1322874636451806e+02 -2.7013766366798069e+00  1.2244860947648377e+02 1.5974036111774970e+02 -2.0449490715876816e+01  1.1159159645565902e+02 1.7932186918777396e+02 -1.7898899972048788e+01  1.2678171621286032e+02 1.6830871553616177e+02 -1.5616993782215511e+01  1.2659852479810483e+02 1.9667465475093658e+02 -1.6030542726321730e+01  1.1569106864382026e+02 1.8655763295917345e+02 -7.6470043298652266e+00  1.0374250792490146e+02 1.9879994450382657e+02 -1.3344489434442179e+01  1.1983980266709560e+02 1.6243838578027231e+02 -1.5814041855984458e+01  1.3164174136374189e+02 1.7786372784419433e+02 -1.4697969125754538e+01  1.1855846359484806e+02 -9.1834164392617325e+01 -1.2566482620226111e+02  1.3666306939988183e+02 -3.7786002538992309e+00 -6.2524030618480054e+01  1.4683997482656656e+02 -3.9000301577122613e+01 -9.9296926078779819e+01  8.6744477951126669e+01 -4.1088356224257431e+01 -7.8792684085833457e+01  1.7725640038791846e+02 -3.2065783050578830e+01 -6.7752985730476283e+01  1.8036522768654285e+02 2.4639551553846413e+01 -2.3648990374777100e+01  1.6087544977893756e+02 1.6822677442631917e+01 -4.6936472560674417e+01  8.8740981630760857e+01 -8.0762935316564732e+00 -6.4895951398067751e+01  1.1262916764607644e+02 -9.6764462195040650e+00 -8.4787520564167309e+01  1.5100785115107232e+02 2.0413611892108211e+01 -7.0545888053305632e+01  1.1918838733690413e+02 1.3646382019913932e+02 -8.1151347846223061e+00  1.0484005034022115e+02 1.3375596549368697e+02 -1.9033215826242319e+01  9.5846073144184302e+01 1.2367829971171712e+02 -1.6789359186978444e+01  1.2813371021679151e+02 1.2545386881900825e+02 -1.1824877728681752e+01  1.4270365508157184e+02 1.2686286684935484e+02 2.1230648204145486e+00  1.1135337142666052e+02 1.2534307591083899e+02 -6.1455747455326781e+00  8.6956702234832477e+01 1.2647613439991746e+02 -2.6875521914051537e+00  9.4630662617011851e+01 1.3218069730498800e+02 -7.5285499301794374e+00  4.5619248850766773e+01 1.2902235630464034e+02 2.1611597838129956e+01  5.6483141053254585e+01 1.3171875987841116e+02 1.9165393693576888e+01  6.3347118682287885e+01 1.4278601803231274e+02 3.3216797493937733e+01  4.1109036793660898e+01 1.1527038374119519e+02 9.7323804934627329e+00  6.3312887522687269e+01 1.3093616819356413e+02 2.2083643874316106e+01  5.9712568143104242e+01 1.2120921331970173e+02 1.2277223768448467e+01  -7.2378345717751005e+00 1.0093026773978202e+02 -1.7945048846240631e+01  1.8502203442567893e+01 8.0472388300381283e+01 -3.3095324071078267e+01  2.4348824616619524e+01 8.6940459291950518e+01 -3.6381991871804196e+01  1.9346948458547992e+01 9.1443754979962321e+01 -2.0216814444568826e+01  -7.5111482043700759e+00 9.3599660004903313e+01 -3.7011431953185266e+01  2.3460759456909280e+01 9.6530022270164167e+01 -2.4098678368243490e+01  -5.1211610797794744e+00 7.9013231615644131e+01 -5.1602826659715532e+01  4.7978314276898168e+01 9.5242830894074046e+01 -2.7288159217320651e+01  4.4199492938039874e+01 8.9805296576437783e+01 -2.5328872709029568e+01  1.4712402157946585e+02 5.3474729973923424e+01 -1.2238707375706585e+02  1.3065861148954724e+02 5.4605468388673167e+01 -1.3594561045173864e+02  1.4078315037524570e+02 4.6758217746464339e+01 -1.4136726428377040e+02  2.0467705675065554e+02 7.6024970533088464e+01 -1.1849245102256560e+02  1.7151941695648145e+02 7.6538539171845088e+01 -7.7097401245668266e+01  1.7928768417701454e+02 9.3748418843610366e+01 -1.0298041844140174e+02  1.6467996851064456e+02 8.2892638635932244e+01 -7.4940989172059417e+01  1.2148824545541969e+02 3.6415312755036901e+01 -1.6804427986357553e+02  1.1964108580303035e+02 1.5845561937011306e+02 1.1338469503267001e+02  9.2699836668871583e+01 1.4858834484292163e+02 5.8287937478616875e+01  1.1549224460022245e+02 1.5883229003394146e+02 7.3388127602565575e+01  1.1589004264080231e+02 1.4662202543596459e+02 8.2189810172309052e+01  8.8453496256241323e+01 1.6036206371784709e+02 7.8933112183645250e+01  6.5496374002494434e+01 1.5033874991197726e+02 5.5218880192168818e+01  9.0935996099858841e+01 1.4975984476029518e+02 4.7934082703264686e+01  1.1451299010814940e+02 1.4046467769292522e+02 5.9579939616504653e+01  1.1406017223195339e+02 1.4977936309656138e+02 4.9365746772615246e+01  1.0943989391803107e+02 1.5186708342231930e+02 3.5531039073659478e+01  8.7599135072357385e+01 1.3687395045978170e+02 2.7745624410474015e+01  9.4298018466041597e+01 1.4372143411857152e+02 5.8897060731682814e+01  7.8540322068181837e+01 1.4214171527133780e+02 4.1453017540199937e+01  8.6443473461641190e+01 1.3926422273945963e+02 3.7693381936868278e+01  9.8405727187913200e+01 1.4022921069786199e+02 4.1010939879535059e+01  7.1231296911468192e+01 1.4956611612987746e+02 6.0741323253235791e+01  1.4482659304517543e+02 7.5289842414654643e+01 -8.9618758203189202e+01  1.2024804654395632e+02 8.3361115319755925e+01 -5.7917271712939268e+01  1.3835465674869442e+02 8.1090308330311501e+01 -6.4070305570505028e+01  1.4300095449245538e+02 7.2107388200197704e+01 -6.8911848211662587e+01  7.5333962982552450e+01 4.8839119285643683e+01 -5.2339127324622751e+01  4.6672871118204199e+01 4.1775061963269792e+01 -4.9445159740183165e+01  6.1451736325950904e+01 4.1863362830309292e+01 -5.5804633153749869e+01  5.8906492912733341e+01 4.8445790112378624e+01 -4.1799643450831176e+01  6.4065324935663355e+01 3.9238931738998161e+01 -6.3052976499563698e+01  5.1367401553689533e+01 2.9022641264381217e+01 -7.0121484666771067e+01  4.8188235073306416e+01 3.1710037334357054e+01 -6.4977528113718535e+01  4.4789638777305477e+01 4.2672326493851536e+01 -4.3708113464292303e+01  4.5999860242485511e+01 3.3752468171303754e+01 -5.7800544395280212e+01  1.1154081196797098e+02 3.2183690764814912e+01 -5.0598350961251001e+01  9.9507234971378224e+01 6.9096723644972371e+01 -4.8882297997213961e+01  9.5151916769977134e+01 6.7908997234002783e+01 -3.9975315125369498e+01  1.1785502587054101e+02 5.5640221067455620e+01 -4.0451378019264027e+01  7.8647602298068819e+01 5.8256078087901841e+01 -5.6010685482155793e+01  9.5411438504678515e+01 4.6841659184215992e+01 -4.8385620269599045e+01  7.5555373265410338e+01 5.7853185164605506e+01 -4.7065689080136750e+01  9.3151149634432528e+01 1.3483676429946638e+02 6.2031241500011740e+00  1.0590581719528886e+02 1.3618938799207521e+02 -2.3161297146090800e+00  1.0240663021548401e+02 1.3446187486597969e+02 7.2523178260561911e+00  8.9471806665375624e+01 1.3469657287139725e+02 3.5814137495587381e+00  9.3139627234864165e+01 1.3815227989866213e+02 -5.0942343074436751e+00  1.0234725369652951e+02 1.3025937035007928e+02 4.4144062523578018e+00  1.1487487531945358e+02 1.3369020099377715e+02 8.5722847733961878e+00  3.9455925005661108e+01 9.5656905778948442e+01 -6.6444296963678413e+00  4.3196761936814291e+01 7.8355730727222422e+01 -1.5827247872764204e+01  5.5789018557486564e+01 8.7732664193939016e+01 -7.5502098478109492e+00  4.0751054810033466e+01 8.1680330751307082e+01 -1.2195074835539126e+01  4.3166394985950085e+01 9.3772658454904573e+01 -8.4058774404331853e+00  5.6464495794950764e+01 8.4584292849635162e+01 -1.2711604981380523e+01  4.5392802662877997e+01 7.0259936018781801e+01 -1.8388821386874376e+01  5.7163257861908896e+01 7.6692338403484698e+01 -1.4395154589155721e+01  6.9336585538367984e+01 8.1343445345163971e+01 -1.1092020083716385e+01  -2.4500393172594624e+01 7.1536146813173588e+01 -2.4475941635626540e+01  2.7122257949438996e+01 5.7644879645598188e+01 -4.1526216952775613e+01  3.0533376205519257e+01 7.3520926831607881e+01 -2.6413942100495877e+01  6.6646759053416504e+00 6.2899926551295010e+01 -4.2939096892401025e+01  1.9886801007651886e+00 6.2622004701121270e+01 -2.6854503998453264e+01  1.5417169245482828e+01 8.0593357680712117e+01 -2.5077529607085033e+01  3.5824909289014165e+01 7.1348424291837858e+01 -3.6828474155475000e+01  3.4685721759174420e+01 5.7426450246861179e+01 -5.2189733593854555e+01  1.4025680929920959e+01 1.3743263471003615e+02 4.2695584416242703e+01  2.2602308389225325e+01 1.3221577008449086e+02 8.7766255029726405e+00  -2.0863648469531446e+00 1.3123815636726840e+02 1.2280106758610488e+01  1.2176254338910573e+00 1.2978139229441391e+02 1.6159015091772552e+01  2.8584103520281605e+00 1.1767543029389437e+02 -4.2901493628965408e+00  2.1167872991801836e+01 1.2226347826901956e+02 -8.3391495628557006e+00  1.5697541074703683e+00 1.2499548950074056e+02 -6.8509779350845106e+00  -2.2292505914932912e+00 1.2994359047747238e+02 -1.0919876077333189e+01  2.1159435166563924e+01 1.2920602028123062e+02 -1.1131822199279531e+01  3.9967158972482935e+01 1.2663630901570986e+02 -1.1094278359442709e+01  8.9125066385197798e+01 1.2133802580194569e+02 -4.3225166649617229e+01  1.1280422582481224e+02 1.2309598650149074e+02 -3.9475019126652285e+01  9.5500690979933097e+01 1.2299581056012089e+02 -5.8296252214300743e+01  1.0666084599141355e+02 1.1096668918999833e+02 -5.6325068011036890e+01  8.2747672348306068e+01 1.1029257347001430e+02 -6.2951209959496929e+01  7.0016227280258562e+01 1.2316470191762313e+02 -6.6558837399122368e+01  -2.4215078975986682e+01 2.9981568488208310e+01 -3.4134957446424728e+01  1.15