<?xml version="1.0"?>
<VTKFile type="UnstructuredGrid"  version="0.1"  >
<UnstructuredGrid>
<Piece  NumberOfPoints="585" NumberOfCells="5255">
<Points>
<DataArray  type="Float64"  NumberOfComponents="3"  format="ascii">20 25 25  20 27.5 27.5  20 27.5 25  17.5 27.5 27.5  20 30 25  20 30 27.5  20 30 30  20 25 27.5  20 25 30  20 27.5 30  25 30 25  25 30 27.5  25 27.5 27.5  22.5 27.5 27.5  25 30 30  25 27.5 30  22.5 27.5 30  22.5 30 27.5  22.5 30 25  22.5 30 30  17.5 27.5 30  17.5 30 30  20 27.5 32.5  17.5 27.5 32.5  20 30 32.5  20 30 35  20 25 35  20 27.5 35  17.5 27.5 35  17.5 30 32.5  17.5 30 35  25 30 32.5  25 27.5 32.5  22.5 27.5 32.5  25 30 35  25 27.5 35  22.5 27.5 35  22.5 30 32.5  22.5 30 35  20 27.5 37.5  17.5 27.5 37.5  20 30 37.5  20 30 40  17.5 30 37.5  25 30 37.5  25 27.5 37.5  22.5 27.5 37.5  25 30 40  22.5 30 37.5  20 32.5 32.5  20 32.5 30  17.5 32.5 32.5  17.5 32.5 30  20 35 30  20 35 32.5  20 35 35  20 32.5 35  17.5 32.5 35  15 35 30  17.5 35 32.5  17.5 35 30  17.5 35 35  22.5 32.5 32.5  22.5 32.5 30  25 32.5 32.5  25 32.5 30  25 35 30  25 35 32.5  25 35 35  25 32.5 35  22.5 32.5 35  22.5 35 32.5  22.5 35 30  22.5 35 35  17.5 37.5 32.5  17.5 37.5 30  20 37.5 32.5  20 37.5 30  20 40 30  20 40 32.5  20 40 35  20 37.5 35  17.5 37.5 35  17.5 40 32.5  22.5 37.5 32.5  22.5 37.5 30  25 37.5 32.5  25 37.5 30  25 40 30  25 40 32.5  25 40 35  25 37.5 35  22.5 37.5 35  22.5 40 32.5  22.5 40 30  22.5 40 35  20 42.5 32.5  20 42.5 30  17.5 42.5 32.5  20 45 30  20 45 32.5  20 45 35  20 42.5 35  22.5 42.5 32.5  22.5 42.5 30  25 42.5 32.5  25 42.5 30  25 45 30  25 45 32.5  25 45 35  25 42.5 35  22.5 45 32.5  22.5 45 30  22.5 47.5 32.5  22.5 47.5 30  25 47.5 32.5  25 47.5 30  25 50 30  25 50 32.5  20 47.5 30  20 50 30  22.5 50 32.5  22.5 50 30  20 47.5 32.5  27.5 47.5 32.5  27.5 47.5 30  27.5 50 32.5  27.5 50 30  30 50 30  20 32.5 37.5  17.5 32.5 37.5  17.5 35 37.5  22.5 32.5 37.5  25 32.5 37.5  25 35 37.5  22.5 35 37.5  17.5 37.5 37.5  22.5 37.5 37.5  25 37.5 37.5  22.5 32.5 25  22.5 32.5 22.5  25 32.5 25  25 35 25  20 32.5 25  20 35 25  22.5 35 25  22.5 35 22.5  17.5 30 27.5  20 32.5 27.5  17.5 32.5 27.5  20 35 27.5  17.5 35 27.5  22.5 32.5 27.5  25 32.5 27.5  25 35 27.5  22.5 35 27.5  25 40 25  25 40 22.5  25 37.5 22.5  22.5 37.5 22.5  25 37.5 25  22.5 37.5 25  22.5 40 22.5  20 37.5 25  20 40 25  22.5 40 25  25 45 25  25 45 22.5  25 42.5 22.5  22.5 42.5 22.5  25 42.5 25  22.5 42.5 25  22.5 45 22.5  20 42.5 25  20 42.5 22.5  20 45 25  22.5 45 25  20 45 22.5  25 50 25  25 50 22.5  25 47.5 22.5  22.5 47.5 22.5  25 47.5 25  22.5 47.5 25  22.5 50 22.5  20 47.5 25  20 50 25  22.5 50 25  27.5 47.5 25  27.5 47.5 22.5  27.5 50 25  30 50 25  27.5 50 22.5  20 37.5 27.5  17.5 37.5 27.5  20 40 27.5  22.5 37.5 27.5  25 37.5 27.5  25 40 27.5  22.5 40 27.5  22.5 42.5 27.5  25 42.5 27.5  25 45 27.5  22.5 45 27.5  20 42.5 27.5  20 45 27.5  20 47.5 27.5  17.5 47.5 27.5  20 50 27.5  17.5 50 27.5  22.5 47.5 27.5  25 47.5 27.5  25 50 27.5  22.5 50 27.5  27.5 47.5 27.5  27.5 50 27.5  30 50 27.5  30 50 22.5  30 30 25  30 30 27.5  30 27.5 27.5  27.5 27.5 27.5  30 30 30  30 25 30  30 27.5 30  27.5 27.5 30  27.5 30 27.5  27.5 30 25  27.5 30 30  35 30 25  35 30 27.5  35 27.5 27.5  32.5 27.5 27.5  35 30 30  35 27.5 30  32.5 27.5 30  32.5 30 27.5  32.5 30 25  32.5 30 30  40 30 30  40 27.5 30  37.5 27.5 30  37.5 27.5 27.5  37.5 30 27.5  37.5 30 25  40 30 25  40 30 27.5  37.5 30 30  27.5 32.5 27.5  30 32.5 27.5  30 32.5 30  30 35 30  27.5 32.5 30  27.5 35 30  32.5 32.5 27.5  35 32.5 27.5  35 32.5 30  35 35 30  32.5 32.5 30  32.5 35 30  37.5 32.5 27.5  40 32.5 27.5  40 32.5 30  40 35 30  37.5 32.5 30  37.5 35 30  30 27.5 32.5  27.5 27.5 32.5  30 30 32.5  30 30 35  30 27.5 35  27.5 27.5 35  27.5 30 32.5  27.5 30 35  35 30 32.5  35 27.5 32.5  32.5 27.5 32.5  35 30 35  35 27.5 35  32.5 27.5 35  32.5 30 32.5  32.5 30 35  37.5 27.5 32.5  37.5 30 32.5  37.5 30 35  37.5 27.5 35  27.5 32.5 32.5  30 32.5 32.5  30 35 32.5  30 35 35  30 32.5 35  27.5 32.5 35  27.5 35 32.5  27.5 35 35  32.5 32.5 32.5  35 32.5 32.5  35 35 32.5  35 35 35  35 32.5 35  32.5 32.5 35  32.5 35 32.5  32.5 35 35  37.5 32.5 32.5  37.5 32.5 35  37.5 35 32.5  40 35 32.5  40 35 35  37.5 35 35  27.5 37.5 32.5  30 37.5 32.5  30 37.5 35  30 40 35  27.5 37.5 35  27.5 40 35  32.5 37.5 32.5  35 37.5 32.5  35 37.5 35  35 40 35  32.5 37.5 35  32.5 40 35  37.5 37.5 32.5  40 37.5 32.5  40 37.5 35  40 40 35  37.5 37.5 35  37.5 40 35  30 30 37.5  30 27.5 37.5  27.5 27.5 37.5  27.5 30 37.5  35 30 37.5  35 27.5 37.5  32.5 27.5 37.5  32.5 30 37.5  27.5 32.5 37.5  30 32.5 37.5  30 35 37.5  27.5 35 37.5  32.5 32.5 37.5  35 32.5 37.5  35 35 37.5  32.5 35 37.5  27.5 37.5 37.5  30 37.5 37.5  32.5 37.5 37.5  35 37.5 37.5  35 40 37.5  32.5 40 37.5  32.5 42.5 37.5  32.5 42.5 35  35 42.5 37.5  35 42.5 35  35 45 35  30 42.5 35  30 45 35  32.5 45 35  42.5 37.5 32.5  37.5 30 37.5  37.5 27.5 37.5  37.5 32.5 37.5  37.5 35 37.5  40 35 37.5  40 35 40  37.5 37.5 37.5  40 37.5 37.5  40 40 37.5  40 40 40  40 37.5 40  37.5 40 37.5  42.5 37.5 37.5  37.5 42.5 37.5  37.5 42.5 35  40 42.5 35  40 45 35  37.5 45 35  30 35 25  30 35 22.5  30 32.5 22.5  27.5 32.5 22.5  30 32.5 25  27.5 32.5 25  27.5 35 22.5  27.5 35 25  35 35 25  35 35 22.5  35 32.5 22.5  32.5 32.5 22.5  35 32.5 25  32.5 32.5 25  32.5 35 22.5  32.5 35 25  30 40 25  30 40 22.5  30 37.5 22.5  27.5 37.5 22.5  30 37.5 25  27.5 37.5 25  27.5 40 22.5  27.5 40 25  35 40 25  35 40 22.5  35 37.5 22.5  32.5 37.5 22.5  35 37.5 25  32.5 37.5 25  32.5 40 22.5  32.5 40 25  40 40 25  40 40 22.5  37.5 40 22.5  37.5 37.5 22.5  37.5 37.5 25  37.5 40 25  30 45 25  30 45 22.5  30 42.5 22.5  27.5 42.5 22.5  30 42.5 25  27.5 42.5 25  27.5 45 22.5  27.5 45 25  35 45 25  35 45 22.5  35 42.5 22.5  32.5 42.5 22.5  35 42.5 25  32.5 42.5 25  32.5 45 22.5  32.5 45 25  40 45 25  40 45 22.5  40 42.5 22.5  37.5 42.5 22.5  40 42.5 25  37.5 42.5 25  37.5 45 22.5  37.5 45 25  30 47.5 22.5  30 47.5 25  35 50 25  35 50 22.5  35 47.5 22.5  32.5 47.5 22.5  35 47.5 25  32.5 47.5 25  32.5 50 22.5  32.5 50 25  40 50 25  40 50 22.5  40 47.5 22.5  37.5 47.5 22.5  40 47.5 25  37.5 47.5 25  37.5 50 22.5  37.5 50 25  30 35 27.5  27.5 35 27.5  35 35 27.5  32.5 35 27.5  37.5 35 27.5  27.5 37.5 27.5  30 37.5 27.5  30 40 27.5  30 40 30  30 37.5 30  27.5 37.5 30  27.5 40 27.5  27.5 40 30  32.5 37.5 27.5  35 37.5 27.5  35 40 27.5  35 40 30  35 37.5 30  32.5 37.5 30  32.5 40 27.5  32.5 40 30  37.5 37.5 27.5  37.5 37.5 30  40 37.5 30  40 40 30  37.5 40 27.5  40 40 27.5  37.5 40 30  27.5 42.5 27.5  30 42.5 27.5  30 45 27.5  30 45 30  30 42.5 30  27.5 42.5 30  27.5 45 27.5  27.5 45 30  32.5 42.5 27.5  35 42.5 27.5  35 45 27.5  35 45 30  35 42.5 30  32.5 42.5 30  32.5 45 27.5  32.5 45 30  37.5 42.5 27.5  40 42.5 27.5  40 45 27.5  40 45 30  40 42.5 30  37.5 42.5 30  37.5 45 27.5  37.5 45 30  30 47.5 27.5  30 47.5 30  32.5 47.5 27.5  35 47.5 27.5  35 50 27.5  35 50 30  35 47.5 30  32.5 47.5 30  32.5 50 27.5  32.5 50 30  37.5 47.5 27.5  40 47.5 27.5  40 50 27.5  40 50 30  40 47.5 30  37.5 47.5 30  37.5 50 27.5  37.5 50 30  30 40 32.5  27.5 40 32.5  35 40 32.5  32.5 40 32.5  40 40 32.5  37.5 40 32.5  42.5 40 32.5  27.5 42.5 32.5  30 42.5 32.5  30 45 32.5  27.5 42.5 35  27.5 45 32.5  27.5 45 35  32.5 42.5 32.5  35 42.5 32.5  35 45 32.5  32.5 45 32.5  37.5 42.5 32.5  40 42.5 32.5  40 45 32.5  37.5 45 32.5  42.5 42.5 32.5  30 47.5 32.5  32.5 47.5 32.5  35 47.5 32.5  37.5 47.5 32.5  40 47.5 32.5  37.5 32.5 25  37.5 32.5 22.5  40 32.5 25  40 35 25  40 35 22.5  37.5 35 22.5  37.5 35 25  40 37.5 22.5  40 37.5 25  42.5 37.5 25  42.5 37.5 22.5  42.5 40 25  42.5 40 22.5  42.5 42.5 25  42.5 42.5 22.5  42.5 45 25  45 45 25  42.5 45 22.5  42.5 47.5 25  42.5 47.5 22.5  42.5 50 25  42.5 50 22.5  40 35 27.5  40 37.5 27.5  42.5 37.5 27.5  42.5 40 27.5  42.5 37.5 30  42.5 40 30  42.5 42.5 27.5  42.5 42.5 30  42.5 45 27.5  42.5 47.5 27.5  42.5 50 27.5  </DataArray>
</Points>
<Cells>
[...]
<CellData  Scalars="f">
<DataArray  type="Float64"  Name="f"  format="ascii">3 3 3 3 3 3 3 3 3 3 3 3 3 3 3 3 3 3 3 3 3 3 3 3 3 3 3 3 3 3 3 3 3 3 3 3 3 3 3 3 3 3 3 3 3 3 3 3 3 3 3 3 3 3 3 3 3 3 3 3 3 3 3 3 3 3 3 3 3 3 3 3 3 3 3 3 3 3 3 3 3 3 3 3 3 3 3 3 3 3 3 3 3 3 3 3 3 3 3 3 3 3 3 3 3 3 3 3 3 3 3 3 3 3 3 3 3 3 3 3 3 3 3 3 3 3 3 3 3 3 3 3 3 3 3 3 3 3 3 3 3 3 3 3 3 3 3 3 3 3 3 3 3 3 3 3 3 3 3 3 3 3 3 3 3 3 3 3 3 3 3 3 3 3 3 3 3 3 3 3 3 3 3 3 3 3 3 3 3 3 3 3 3 3 3 3 3 3 3 3 3 3 3 3 3 3 3 3 3 3 3 3 3 3 3 3 3 3 3 3 3 3 3 3 3 3 3 3 3 3 3 3 3 3 3 3 3 3 3 3 3 3 3 3 3 3 3 3 3 3 3 3 3 3 3 3 3 3 3 3 3 3 3 3 3 3 3 3 3 3 3 3 3 3 3 3 3 3 3 3 3 3 3 3 3 3 3 3 3 3 3 3 3 3 3 3 3 3 3 3 3 3 3 3 3 3 3 3 3 3 3 3 3 3 3 3 3 3 3 3 3 3 3 3 3 3 3 3 3 3 3 3 3 3 3 3 3 3 3 3 3 3 3 3 3 3 3 3 3 3 3 3 3 3 3 3 3 3 3 3 3 3 3 3 3 3 3 3 3 3 3 3 3 3 3 3 3 3 3 3 3 3 3 3 3 3 3 3 3 3 3 3 3 3 3 3 3 3 3 3 3 3 3 3 3 3 3 3 3 3 3 3 3 3 3 3 3 3 3 3 3 3 3 3 3 3 3 3 3 3 3 3 3 3 3 3 3 3 3 3 3 3 3 3 3 3 3 3 3 3 3 3 3 3 3 3 3 3 3 3 3 3 3 3 3 3 3 3 3 3 3 3 3 3 3 3 3 3 3 3 3 3 3 3 3 3 3 3 3 3 3 3 3 3 3 3 3 3 3 3 3 3 3 3 3 3 3 3 3 3 3 3 3 3 3 3 3 3 3 3 3 3 3 3 3 3 3 3 3 3 3 3 3 3 3 3 3 3 3 3 3 3 3 3 3 3 3 3 3 3 3 3 3 3 3 3 3 3 3 3 3 3 3 3 3 3 3 3 3 3 3 3 3 3 3 3 3 3 3 3 3 3 3 3 3 3 3 3 3 3 3 3 3 3 3 3 3 3 3 3 3 3 3 3 3 3 3 3 3 3 3 3 3 3 3 3 3 3 3 3 3 3 3 3 3 3 3 3 3 3 3 3 3 3 3 3 3 3 3 3 3 3 3 3 3 3 3 3 3 3 3 3 3 3 3 3 3 3 3 3 3 3 3 3 3 3 3 3 3 3 3 3 3 3 3 3 3 3 3 3 3 3 3 3 3 3 3 3 3 3 3 3 3 3 3 3 3 3 3 3 3 3 3 3 3 3 3 3 3 3 3 3 3 3 3 3 3 3 3 3 3 3 3 3 3 3 3 3 3 3 3 3 3 3 3 3 3 3 3 3 3 3 3 3 3 3 3 3 3 3 3 3 3 3 3 3 3 3 3 3 3 3 3 3 3 3 3 3 3 3 3 3 3 3 3 3 3 3 3 3 3 3 3 3 3 3 3 3 3 3 3 3 3 3 3 3 3 3 3 3 3 3 3 3 3 3 3 3 3 3 3 3 3 3 3 3 3 3 3 3 3 3 3 3 3 3 3 3 3 3 3 3 3 3 3 3 3 3 3 3 3 3 3 3 3 3 3 3 3 3 3 3 3 3 3 3 3 3 3 3 3 3 3 3 3 3 3 3 3 3 3 3 3 3 3 3 3 3 3 3 3 3 3 3 3 3 3 3 3 3 3 3 3 3 3 3 3 3 3 3 3 3 3 3 3 3 3 3 3 3 3 3 3 3 3 3 3 3 3 3 3 3 3 3 3 3 3 3 3 3 3 3 3 3 3 3 3 3 3 3 3 3 3 3 3 3 3 3 3 3 3 3 3 3 3 3 3 3 3 3 3 3 3 3 3 3 3 3 3 3 3 3 3 3 3 3 3 3 3 3 3 3 3 3 3 3 3 3 3 3 3 3 3 3 3 3 3 3 3 3 3 3 3 3 3 3 3 3 3 3 3 3 3 3 3 3 3 3 3 3 3 3 3 3 3 3 3 3 3 3 3 3 3 3 3 3 3 3 3 3 3 3 3 3 3 3 3 3 3 3 3 3 3 3 3 3 3 3 3 3 3 3 3 3 3 3 3 3 3 3 3 3 3 3 3 3 3 3 3 3 3 3 3 3 3 3 3 3 3 3 3 3 3 3 3 3 3 3 3 3 3 3 3 3 3 3 3 3 3 3 3 3 3 3 3 3 3 3 3 3 3 3 3 3 3 3 3 3 3 3 3 3 3 3 3 3 3 3 3 3 3 3 3 3 3 3 3 3 3 3 3 3 3 3 3 3 3 3 3 3 3 3 3 3 3 3 3 3 3 3 3 3 3 3 3 3 3 3 3 3 3 3 3 3 3 3 3 3 3 3 3 3 3 3 3 3 3 3 3 3 3 3 3 3 3 3 3 3 3 3 3 3 3 3 3 3 3 3 3 3 3 3 3 3 3 3 3 3 3 3 3 3 3 3 3 3 3 3 3 3 3 3 3 3 3 3 3 3 3 3 3 3 3 3 3 3 3 3 3 3 3 3 3 3 3 3 3 3 3 3 3 3 3 3 3 3 3 3 3 3 3 3 3 3 3 3 3 3 3 3 3 3 3 3 3 3 3 3 3 3 3 3 3 3 3 3 3 3 3 3 3 3 3 3 3 3 3 3 3 3 3 3 3 3 3 3 3 3 3 3 3 3 3 3 3 3 3 3 3 3 3 3 3 3 3 3 3 3 3 3 3 3 3 3 3 3 3 3 3 3 3 3 3 3 3 3 3 3 3 3 3 3 3 3 3 3 3 3 3 3 3 3 3 3 3 3 3 3 3 3 3 3 3 3 3 3 3 3 3 3 3 3 3 3 3 3 3 3 3 3 3 3 3 3 3 3 3 3 3 3 3 3 3 3 3 3 3 3 3 3 3 3 3 3 3 3 3 3 3 3 3 3 3 3 3 3 3 3 3 3 3 3 3 3 3 3 3 3 3 3 3 3 3 3 3 3 3 3 3 3 3 3 3 3 3 3 3 3 3 3 3 3 3 3 3 3 3 3 3 3 3 3 3 3 3 3 3 3 3 3 3 3 3 3 3 3 3 3 3 3 3 3 3 3 3 3 3 3 3 3 3 3 3 3 3 3 3 3 3 3 3 3 3 3 3 3 3 3 3 3 3 3 3 3 3 3 3 3 3 3 3 3 3 3 3 3 3 3 3 3 3 3 3 3 3 3 3 3 3 3 3 3 3 3 3 3 3 3 3 3 3 3 3 3 3 3 3 3 3 3 3 3 3 3 3 3 3 3 3 3 3 3 3 3 3 3 3 3 3 3 3 3 3 3 3 3 3 3 3 3 3 3 3 3 3 3 3 3 3 3 3 3 3 3 3 3 3 3 3 3 3 3 3 3 3 3 3 3 3 3 3 3 3 3 3 3 3 3 3 3 3 3 3 3 3 3 3 3 3 3 3 3 3 3 3 3 3 3 3 3 3 3 3 3 3 3 3 3 3 3 3 3 3 3 3 3 3 3 3 3 3 3 3 3 3 3 3 3 3 3 3 3 3 3 3 3 3 3 3 3 3 3 3 3 3 3 3 3 3 3 3 3 3 3 3 3 3 3 3 3 3 3 3 3 3 3 3 3 3 3 3 3 3 3 3 3 3 3 3 3 3 3 3 3 3 3 3 3 3 3 3 3 3 3 3 3 3 3 3 3 3 3 3 3 3 3 3 3 3 3 3 3 3 3 3 3 3 3 3 3 3 3 3 3 3 3 3 3 3 3 3 3 3 3 3 3 3 3 3 3 3 3 3 3 3 3 3 3 3 3 3 3 3 3 3 3 3 3 3 3 3 3 3 3 3 3 3 3 3 3 3 3 3 3 3 3 3 3 3 3 3 3 3 3 3 3 3 3 3 3 3 3 3 3 3 3 3 3 3 3 3 3 3 3 3 3 3 3 3 3 3 3 3 3 3 3 3 3 3 3 3 3 3 3 3 3 3 3 3 3 3 3 3 3 3 3 3 3 3 3 3 3 3 3 3 3 3 3 3 3 3 3 3 3 3 3 3 3 3 3 3 3 3 3 3 3 3 3 3 3 3 3 3 3 3 3 3 3 3 3 3 3 3 3 3 3 3 3 3 3 3 3 3 3 3 3 3 3 3 3 3 3 3 3 3 3 3 3 3 3 3 3 3 3 3 3 3 3 3 3 3 3 3 3 3 3 3 3 3 3 3 3 3 3 3 3 3 3 3 3 3 3 3 3 3 3 3 3 3 3 3 3 3 3 3 3 3 3 3 3 3 3 3 3 3 3 3 3 3 3 3 3 3 3 3 3 3 3 3 3 3 3 3 3 3 3 3 3 3 3 3 3 3 3 3 3 3 3 3 3 3 3 3 3 3 3 3 3 3 3 3 3 3 3 3 3 3 3 3 3 3 3 3 3 3 3 3 3 3 3 3 3 3 3 3 3 3 3 3 3 3 3 3 3 3 3 3 3 3 3 3 3 3 3 3 3 3 3 3 3 3 3 3 3 3 3 3 3 3 3 3 3 3 3 3 3 3 3 3 3 3 3 3 3 3 3 3 3 3 3 3 3 3 3 3 3 3 3 3 3 3 3 3 3 3 3 3 3 3 3 3 3 3 3 3 3 3 3 3 3 3 3 3 3 3 3 3 3 3 3 3 3 3 3 3 3 3 3 3 3 3 3 3 3 3 3 3 3 3 3 3 3 3 3 3 3 3 3 3 3 3 3 3 3 3 3 3 3 3 3 3 3 3 3 3 3 3 3 3 3 3 3 3 3 3 3 3 3 3 3 3 3 3 3 3 3 3 3 3 3 3 3 3 3 3 3 3 3 3 3 3 3 3 3 3 3 3 3 3 3 3 3 3 3 3 3 3 3 3 3 3 3 3 3 3 3 3 3 3 3 3 3 3 3 3 3 3 3 3 3 3 3 3 3 3 3 3 3 3 3 3 3 3 3 3 3 3 3 3 3 3 3 3 3 3 3 3 3 3 3 3 3 3 3 3 3 3 3 3 3 3 3 3 3 3 3 3 3 3 3 3 3 3 3 3 3 3 3 3 3 3 3 3 3 3 3 3 3 3 3 3 3 3 3 3 3 3 3 3 3 3 3 3 3 3 3 3 3 3 3 3 3 3 3 3 3 3 3 3 3 3 3 3 3 3 3 3 3 3 3 3 3 3 3 3 3 3 3 3 3 3 3 3 3 3 3 3 3 3 3 3 3 3 3 3 3 3 3 3 3 3 3 3 3 3 3 3 3 3 3 3 3 3 3 3 3 3 3 3 3 3 3 3 3 3 3 3 3 3 3 3 3 3 3 3 3 3 3 3 3 3 3 3 3 3 3 3 3 3 3 3 3 3 3 3 3 3 3 3 3 3 3 3 3 3 3 3 3 3 3 3 3 3 3 3 3 3 3 3 3 3 3 3 3 3 3 3 3 3 3 3 3 3 3 3 3 3 3 3 3 3 3 3 3 3 3 3 3 3 3 3 3 3 3 3 3 3 3 3 3 3 3 3 3 3 3 3 3 3 3 3 3 3 3 3 3 3 3 3 3 3 3 3 3 3 3 3 3 3 3 3 3 3 3 3 3 3 3 3 3 3 3 3 3 3 3 3 3 3 3 3 3 3 3 3 3 3 3 3 3 3 3 3 3 3 3 3 3 3 3 3 3 3 3 3 3 3 3 3 3 3 3 3 3 3 3 3 3 3 3 3 3 3 3 3 3 3 3 3 3 3 3 3 3 3 3 3 3 3 3 3 3 3 3 3 3 3 3 3 3 3 3 3 3 3 3 3 3 3 3 3 3 3 3 3 3 3 3 3 3 3 3 3 3 3 3 3 3 3 3 3 3 3 3 3 3 3 3 3 3 3 3 3 3 3 3 3 3 3 3 3 3 3 3 3 3 3 3 3 3 3 3 3 3 3 3 3 3 3 3 3 3 3 3 3 3 3 3 3 3 3 3 3 3 3 3 3 3 3 3 3 3 3 3 3 3 3 3 3 3 3 3 3 3 3 3 3 3 3 3 3 3 3 3 3 3 3 3 3 3 3 3 3 3 3 3 3 3 3 3 3 3 3 3 3 3 3 3 3 3 3 3 3 3 3 3 3 3 3 3 3 3 3 3 3 3 3 3 3 3 3 3 3 3 3 3 3 3 3 3 3 3 3 3 3 3 3 3 3 3 3 3 3 3 3 3 3 3 3 3 3 3 3 3 3 3 3 3 3 3 3 3 3 3 3 3 3 3 3 3 3 3 3 3 3 3 3 3 3 3 3 3 3 3 3 3 3 3 3 3 3 3 3 3 3 3 3 3 3 3 3 3 3 3 3 3 3 3 3 3 3 3 3 3 3 3 3 3 3 3 3 3 3 3 3 3 3 3 3 3 3 3 3 3 3 3 3 3 3 3 3 3 3 3 3 3 3 3 3 3 3 3 3 3 3 3 3 3 3 3 3 3 3 3 3 3 3 3 3 3 3 3 3 3 3 3 3 3 3 3 3 3 3 3 3 3 3 3 3 3 3 3 3 3 3 3 3 3 3 3 3 3 3 3 3 3 3 3 3 3 3 3 3 3 3 3 3 3 3 3 3 3 3 3 3 3 3 3 3 3 3 3 3 3 3 3 3 3 3 3 3 3 3 3 3 3 3 3 3 3 3 3 3 3 3 3 3 3 3 3 3 3 3 3 3 3 3 3 3 3 3 3 3 3 3 3 3 3 3 3 3 3 3 3 3 3 3 3 3 3 3 3 3 3 3 3 3 3 3 3 3 3 3 3 3 3 3 3 3 3 3 3 3 3 3 3 3 3 3 3 3 3 3 3 3 3 3 3 3 3 3 3 3 3 3 3 3 3 3 3 3 3 3 3 3 3 3 3 3 3 3 3 3 3 3 3 3 3 3 3 3 3 3 3 3 3 3 3 3 3 3 3 3 3 3 3 3 3 3 3 3 3 3 3 3 3 3 3 3 3 3 3 3 3 3 3 3 3 3 3 3 3 3 3 3 3 3 3 3 3 3 3 3 3 3 3 3 3 3 3 3 3 3 3 3 3 3 3 3 3 3 3 3 3 3 3 3 3 3 3 3 3 3 3 3 3 3 3 3 3 3 3 3 3 3 3 3 3 3 3 3 3 3 3 3 3 3 3 3 3 3 3 3 3 3 3 3 3 3 3 3 3 3 3 3 3 3 3 3 3 3 3 3 3 3 3 3 3 3 3 3 3 3 3 3 3 3 3 3 3 3 3 3 3 3 3 3 3 3 3 3 3 3 3 3 3 3 3 3 3 3 3 3 3 3 3 3 3 3 3 3 3 3 3 3 3 3 3 3 3 3 3 3 3 3 3 3 3 3 3 3 3 3 3 3 3 3 3 3 3 3 3 3 3 3 3 3 3 3 3 3 3 3 3 3 3 3 3 3 3 3 3 3 3 3 3 3 3 3 3 3 3 3 3 3 3 3 3 3 3 3 3 3 3 3 3 3 3 3 3 3 3 3 3 3 3 3 3 3 3 3 3 3 3 3 3 3 3 3 3 3 3 3 3 3 3 3 3 3 3 3 3 3 3 3 3 3 3 3 3 3 3 3 3 3 3 3 3 3 3 3 3 3 3 3 3 3 3 3 3 3 3 3 3 3 3 3 3 3 3 3 3 3 3 3 3 3 3 3 3 3 3 3 3 3 3 3 3 3 3 3 3 3 3 3 3 3 3 3 3 3 3 3 3 3 3 3 3 3 3 3 3 3 3 3 3 3 3 3 3 3 3 3 3 3 3 3 3 3 3 3 3 3 3 3 3 3 3 3 3 3 3 3 3 3 3 3 3 3 3 3 3 3 3 3 3 3 3 3 3 3 3 3 3 3 3 3 3 3 3 3 3 3 3 3 3 3 3 3 3 3 3 3 3 3 3 3 3 3 3 3 3 3 3 3 3 3 3 3 3 3 3 3 3 3 3 3 3 3 3 3 3 3 3 3 3 3 3 3 3 3 3 3 3 3 3 3 3 3 3 3 3 3 3 3 3 3 3 3 3 3 3 3 3 3 3 3 3 3 3 3 3 3 3 3 3 3 3 3 3 3 3 3 3 3 3 3 3 3 3 3 3 3 3 3 3 3 3 3 3 3 3 3 3 3 3 3 3 3 3 3 3 3 3 3 3 3 3 3 3 3 3 3 3 3 3 3 3 3 3 3 3 3 3 3 3 3 3 3 3 3 3 3 3 3 3 3 3 3 3 3 3 3 3 3 3 3 3 3 3 3 3 3 3 3 3 3 3 3 3 3 3 3 3 3 3 3 3 3 3 3 3 3 3 3 3 3 3 3 3 3 3 3 3 3 3 3 3 3 3 3 3 3 3 3 3 3 3 3 3 3 3 3 3 3 3 3 3 3 3 3 3 3 3 3 3 3 3 3 3 3 3 3 3 3 3 3 3 3 3 3 3 3 3 3 3 3 3 3 3 3 3 3 3 3 3 3 3 3 3 3 3 3 3 3 3 3 3 3 3 3 3 3 3 3 3 3 3 3 3 3 3 3 3 3 3 3 3 3 3 3 3 3 3 3 3 3 3 3 3 3 3 3 3 3 3 3 3 3 3 3 3 3 3 3 3 3 3 3 3 3 3 3 3 3 3 3 3 3 3 3 3 3 3 3 3 3 3 3 3 3 3 3 3 3 3 3 3 3 3 3 3 3 3 3 3 3 3 3 3 3 3 3 3 3 3 3 3 3 3 3 3 3 3 3 3 3 3 3 3 3 3 3 3 3 3 3 3 3 3 3 3 3 3 3 3 3 3 3 3 3 3 3 3 3 3 3 3 3 3 3 3 3 3 3 3 3 3 3 3 3 3 3 3 3 3 3 3 3 3 3 3 3 3 3 3 3 3 3 3 3 3 3 3 3 3 3 3 3 3 3 3 3 3 3 3 3 3 3 3 3 3 3 3 3 3 3 3 3 3 3 3 3 3 3 3 3 3 3 3 3 3 3 3 3 3 3 3 3 3 3 3 3 3 3 3 3 3 3 3 3 3 3 3 3 3 3 3 3 3 3 3 3 3 3 3 3 3 3 3 3 3 3 3 3 3 3 3 3 3 3 3 3 3 3 3 3 3 3 3 3 3 3 3 3 3 3 3 3 3 3 3 3 3 3 3 3 3 3 3 3 3 3 3 3 3 3 3 3 3 3 3 3 3 3 3 3 3 3 3 3 3 3 3 3 3 3 3 3 3 3 3 3 3 3 3 3 3 3 3 3 3 3 3 3 3 3 3 3 3 3 3 3 3 3 3 3 3 3 3 3 3 3 3 3 3 3 3 3 3 3 3 3 3 3 3 3 3 3 3 3 3 3 3 3 3 3 3 3 3 3 3 3 3 3 3 3 3 3 3 3 3 3 3 3 3 3 3 3 3 3 3 3 3 3 3 3 3 3 3 3 3 3 3 3 3 3 3 3 3 3 3 3 3 3 3 3 3 3 3 3 3 3 3 3 3 3 3 3 3 3 3 3 3 3 3 3 3 3 3 3 3 3 3 3 3 3 3 3 3 3 3 3 3 3 3 3 3 3 3 3 3 3 3 3 3 3 3 3 3 3 3 3 3 3 3 3 3 3 3 3 3 3 3 3 3 3 3 3 3 3 3 3 3 3 3 3 3 3 3 3 3 3 3 3 3 3 3 3 3 3 3 3 3 3 3 3 3 3 3 3 3 3 3 3 3 3 3 3 3 3 3 3 3 3 3 3 3 3 3 3 3 3 3 3 3 3 3 3 3 3 3 3 3 3 3 3 3 3 3 3 3 3 3 3 3 3 3 3 3 3 3 3 3 3 3 3 3 3 3 3 3 3 3 3 3 3 3 3 3 3 3 3 3 3 3 3 3 3 3 3 3 3 3 3 3 3 3 3 3 3 3 3 3 3 3 3 3 3 3 3 3 3 3 3 3 3 3 3 3 3 3 3 3 3 3 3 3 3 3 3 3 3 3 3 3 3 3 3 3 3 3 3 3 3 3 3 3 3 3 3 3 3 3 3 3 3 3 3 3 3 3 3 3 3 3 3 3 3 3 3 3 3 3 3 3 3 3 3 3 3 3 3 3 3 3 3 3 3 3 3 3 3 3 3 3 3 3 3 3 3 3 3 3 3 3 3 3 3 3 3 3 3 3 3 3 3 3 3 3 3 3 3 3 3 3 3 3 3 3 3 3 3 3 3 3 3 3 3 3 3 3 3 3 3 3 3 3 3 3 3 3 3 3 3 3 3 3 3 3 3 3 3 3 3 3 3 3 3 3 3 3 3 3 3 3 3 3 3 3 3 3 3 3 3 3 3 3 3 3 3 3 3 3 3 3 3 3 3 3 3 3 3 3 3 3 3 3 3 3 3 3 3 3 3 3 3 3 3 3 3 3 3 3 3 3 3 3 3 3 3 3 3 3 3 3 3 3 3 3 3 3 3 3 3 3 3 3 3 3 3 3 3 3 3 3 3 3 3 3 3 3 3 3 3 3 3 3 3 3 3 3 3 3 3 3 3 3 3 3 3 3 3 3 3 3 3 3 3 3 3 3 3 3 3 3 3 3 3 3 3 3 3 3 3 3 3 3 3 3 3 3 3 3 3 3 3 3 3 3 3 3 3 3 3 3 3 3 3 3 3 3 3 3 3 3 3 3 3 3 3 3 3 3 3 3 3 3 3 3 3 3 3 3 3 3 3 3 3 3 3 3 3 3 3 3 3 3 3 3 3 3 3 3 3 3 3 3 3 3 3 3 3 3 3 3 3 3 3 3 3 3 3 3 3 3 3 3 3 3 3 3 3 3 3 3 3 3 3 3 3 3 3 3 3 3 3 3 3 3 3 3 3 3 3 3 3 3 3 3 3 3 3 3 3 3 3 3 3 3 3 3 3 3 3 3 3 3 3 3 3 3 3 3 3 3 3 3 3 3 3 3 3 3 3 3 3 3 3 3 3 3 3 3 3 3 3 3 3 3 3 3 3 3 3 3 3 3 3 3 3 3 3 3 3 3 3 3 3 3 3 3 3 3 3 3 3 3 3 3 3 3 3 3 3 3 3 3 3 3 3 3 3 3 3 3 3 3 3 3 3 3 3 3 3 3 3 3 3 3 3 3 3 3 3 3 3 3 3 3 3 3 3 3 3 3 3 3 3 3 3 3 3 3 3 3 3 3 3 3 3 3 3 3 3 3 3 3 3 3 3 3 3 3 3 3 3 3 3 3 3 3 3 3 3 3 3 3 3 3 3 3 3 3 3 3 3 3 3 3 3 3 3 3 3 3 3 3 3 3 3 3 3 3 3 3 3 3 3 3 3 3 3 3 3 3 3 3 3 3 3 3 3 3 3 3 3 3 3 3 3 3 3 3 3 3 3 3 3 3 3 3 3 3 3 3 3 3 3 3 3 3 3 3 3 3 3 3 3 3 3 3 3 3 3 3 3 3 3 3 3 3 3 3 3 3 3 3 3 3 3 3 3 3 3 3 3 3 3 3 3 3 3 3 3 </DataArray>
</CellData>
</Piece>
</UnstructuredGrid>
</VTKFile>