<?xml version="1.0"?>
<VTKFile type="UnstructuredGrid"  version="0.1"  >
<UnstructuredGrid>
<Piece  NumberOfPoints="581" NumberOfCells="4921">
<Points>
<DataArray  type="Float64"  NumberOfComponents="3"  format="ascii">40 30 25  40 27.5 25  40 27.5 22.5  37.5 27.5 22.5  37.5 27.5 25  35 30 25  37.5 30 25  40 30 27.5  40 27.5 27.5  37.5 27.5 27.5  40 30 30  40 27.5 30  40 30 32.5  40 27.5 32.5  37.5 27.5 32.5  40 30 35  40 27.5 35  37.5 27.5 35  37.5 30 32.5  37.5 30 35  40 32.5 32.5  40 32.5 30  37.5 32.5 32.5  40 35 30  40 35 32.5  40 35 35  40 32.5 35  37.5 32.5 35  45 30 25  45 27.5 25  42.5 27.5 25  42.5 27.5 22.5  42.5 30 25  45 30 27.5  45 27.5 27.5  42.5 27.5 27.5  45 30 30  45 27.5 30  42.5 27.5 30  42.5 30 27.5  42.5 30 30  47.5 30 30  47.5 27.5 30  47.5 27.5 27.5  50 30 30  47.5 30 27.5  42.5 32.5 27.5  45 32.5 27.5  45 32.5 30  45 35 30  42.5 32.5 30  40 32.5 27.5  42.5 35 30  47.5 32.5 27.5  47.5 30 25  50 30 25  50 32.5 27.5  50 30 27.5  50 32.5 30  50 35 30  47.5 32.5 30  47.5 35 30  45 30 32.5  45 27.5 32.5  42.5 27.5 32.5  45 30 35  45 27.5 35  42.5 27.5 35  42.5 30 32.5  42.5 30 35  50 30 32.5  50 27.5 32.5  47.5 27.5 32.5  50 27.5 30  50 30 35  47.5 30 32.5  47.5 30 35  47.5 27.5 35  42.5 32.5 32.5  45 32.5 32.5  45 35 32.5  45 35 35  45 32.5 35  42.5 32.5 35  42.5 35 32.5  42.5 35 35  47.5 32.5 32.5  50 32.5 32.5  50 35 32.5  50 35 35  50 32.5 35  47.5 32.5 35  47.5 35 32.5  47.5 35 35  42.5 37.5 32.5  45 37.5 32.5  45 37.5 35  45 40 35  42.5 37.5 35  40 37.5 35  40 40 35  42.5 40 35  47.5 37.5 32.5  50 37.5 32.5  50 37.5 35  50 40 35  47.5 37.5 35  47.5 40 35  40 30 37.5  40 27.5 37.5  37.5 27.5 37.5  40 30 40  40 27.5 40  37.5 30 37.5  45 30 37.5  45 27.5 37.5  42.5 27.5 37.5  45 30 40  45 27.5 40  42.5 27.5 40  42.5 30 37.5  42.5 30 40  50 30 37.5  50 27.5 37.5  47.5 27.5 37.5  50 30 40  47.5 30 37.5  47.5 30 40  47.5 27.5 40  40 32.5 37.5  37.5 32.5 37.5  40 35 37.5  40 35 40  40 32.5 40  37.5 32.5 40  42.5 32.5 37.5  45 32.5 37.5  45 35 37.5  45 35 40  45 32.5 40  42.5 32.5 40  42.5 35 37.5  42.5 35 40  47.5 32.5 37.5  50 32.5 37.5  50 35 37.5  50 35 40  50 32.5 40  47.5 32.5 40  47.5 35 37.5  47.5 35 40  42.5 37.5 37.5  45 37.5 37.5  45 40 37.5  45 40 40  45 37.5 40  42.5 37.5 40  42.5 40 37.5  40 37.5 40  40 40 40  42.5 40 40  40 40 37.5  47.5 37.5 37.5  50 37.5 37.5  50 40 37.5  50 40 40  50 37.5 40  47.5 37.5 40  47.5 40 37.5  47.5 40 40  40 42.5 37.5  40 42.5 35  37.5 42.5 37.5  40 45 35  40 45 37.5  40 45 40  40 42.5 40  42.5 42.5 37.5  42.5 42.5 35  45 42.5 37.5  45 42.5 35  45 45 35  45 45 37.5  45 45 40  45 42.5 40  42.5 42.5 40  42.5 45 37.5  42.5 45 35  42.5 45 40  47.5 42.5 37.5  47.5 42.5 35  50 42.5 37.5  50 42.5 35  50 45 35  50 45 37.5  50 45 40  50 42.5 40  47.5 42.5 40  47.5 45 37.5  47.5 45 35  47.5 45 40  42.5 47.5 37.5  42.5 47.5 35  45 47.5 37.5  45 47.5 35  45 50 35  45 50 37.5  45 50 40  45 47.5 40  42.5 47.5 40  40 47.5 35  40 50 35  42.5 50 37.5  42.5 50 35  40 47.5 37.5  40 47.5 40  40 50 40  42.5 50 40  40 50 37.5  47.5 47.5 37.5  47.5 47.5 35  50 47.5 37.5  50 47.5 35  50 50 35  50 50 37.5  50 50 40  50 47.5 40  47.5 47.5 40  47.5 50 37.5  47.5 50 35  47.5 50 40  45 30 42.5  45 27.5 42.5  42.5 27.5 42.5  45 30 45  45 27.5 45  42.5 27.5 45  42.5 30 42.5  40 30 45  42.5 30 45  40 27.5 45  40 30 42.5  47.5 30 42.5  47.5 27.5 42.5  50 30 42.5  50 30 45  47.5 30 45  47.5 27.5 45  40 32.5 42.5  37.5 32.5 42.5  40 35 42.5  40 35 45  40 32.5 45  37.5 32.5 45  37.5 35 42.5  42.5 32.5 42.5  45 32.5 42.5  45 35 42.5  45 35 45  45 32.5 45  42.5 32.5 45  42.5 35 42.5  42.5 35 45  47.5 32.5 42.5  50 32.5 42.5  50 35 42.5  50 35 45  50 32.5 45  47.5 32.5 45  47.5 35 42.5  47.5 35 45  40 37.5 42.5  37.5 37.5 42.5  40 40 42.5  40 40 45  40 37.5 45  42.5 37.5 42.5  45 37.5 42.5  45 40 42.5  45 40 45  45 37.5 45  42.5 37.5 45  42.5 40 42.5  42.5 40 45  47.5 37.5 42.5  50 37.5 42.5  50 40 42.5  50 40 45  50 37.5 45  47.5 37.5 45  47.5 40 42.5  47.5 40 45  42.5 42.5 42.5  45 42.5 42.5  45 45 42.5  45 45 45  45 42.5 45  42.5 42.5 45  42.5 45 42.5  40 42.5 45  40 45 45  42.5 45 45  40 45 42.5  47.5 42.5 42.5  50 42.5 42.5  50 45 42.5  50 45 45  50 42.5 45  47.5 42.5 45  47.5 45 42.5  47.5 45 45  40 47.5 42.5  37.5 47.5 42.5  40 50 42.5  40 50 45  40 47.5 45  42.5 47.5 42.5  45 47.5 42.5  45 50 42.5  45 50 45  45 47.5 45  42.5 47.5 45  42.5 50 42.5  42.5 50 45  47.5 47.5 42.5  50 47.5 42.5  50 50 42.5  50 50 45  50 47.5 45  47.5 47.5 45  47.5 50 42.5  47.5 50 45  40 30 47.5  40 27.5 47.5  37.5 27.5 47.5  40 30 50  40 25 50  40 27.5 50  37.5 27.5 50  37.5 30 47.5  45 30 47.5  45 27.5 47.5  42.5 27.5 47.5  45 30 50  45 27.5 50  42.5 27.5 50  42.5 30 47.5  42.5 30 50  47.5 30 47.5  47.5 27.5 47.5  50 30 47.5  50 30 50  47.5 30 50  47.5 27.5 50  40 32.5 47.5  37.5 32.5 47.5  40 35 47.5  40 35 50  40 32.5 50  42.5 32.5 47.5  45 32.5 47.5  45 35 47.5  45 35 50  45 32.5 50  42.5 32.5 50  42.5 35 47.5  42.5 35 50  47.5 32.5 47.5  50 32.5 47.5  50 35 47.5  50 35 50  50 32.5 50  47.5 32.5 50  47.5 35 47.5  47.5 35 50  42.5 37.5 47.5  45 37.5 47.5  45 40 47.5  45 40 50  45 37.5 50  42.5 37.5 50  42.5 40 47.5  42.5 40 50  47.5 37.5 47.5  50 37.5 47.5  50 40 47.5  50 40 50  50 37.5 50  47.5 37.5 50  47.5 40 47.5  47.5 40 50  42.5 42.5 47.5  45 42.5 47.5  45 45 47.5  45 45 50  45 42.5 50  42.5 42.5 50  42.5 45 47.5  42.5 45 50  47.5 42.5 47.5  50 42.5 47.5  50 45 47.5  50 45 50  50 42.5 50  47.5 42.5 50  47.5 45 47.5  47.5 45 50  42.5 47.5 47.5  45 47.5 47.5  45 50 47.5  45 50 50  45 47.5 50  42.5 47.5 50  42.5 50 47.5  42.5 50 50  47.5 47.5 47.5  50 47.5 47.5  50 50 47.5  50 50 50  50 47.5 50  47.5 47.5 50  47.5 50 47.5  47.5 50 50  45 27.5 22.5  50 27.5 25  50 27.5 22.5  47.5 27.5 22.5  47.5 27.5 25  50 27.5 27.5  50 27.5 40  50 27.5 42.5  50 27.5 45  50 27.5 47.5  50 27.5 50  42.5 40 32.5  42.5 42.5 32.5  40 45 30  42.5 45 32.5  40 45 32.5  42.5 47.5 32.5  40 47.5 32.5  40 47.5 30  40 50 30  42.5 50 32.5  40 50 32.5  40 30 22.5  37.5 30 22.5  45 30 22.5  42.5 30 22.5  50 30 22.5  47.5 30 22.5  40 35 25  40 35 22.5  40 32.5 22.5  37.5 32.5 22.5  40 32.5 25  45 35 25  45 35 22.5  45 32.5 22.5  42.5 32.5 22.5  45 32.5 25  42.5 32.5 25  42.5 35 22.5  42.5 35 25  50 35 25  50 35 22.5  50 32.5 22.5  47.5 32.5 22.5  50 32.5 25  47.5 32.5 25  47.5 35 22.5  47.5 35 25  45 40 25  45 40 22.5  45 37.5 22.5  42.5 37.5 22.5  45 37.5 25  42.5 37.5 25  42.5 40 22.5  42.5 40 25  50 37.5 25  50 37.5 22.5  47.5 37.5 22.5  50 40 25  47.5 37.5 25  47.5 40 25  47.5 40 22.5  45 42.5 25  45 42.5 22.5  42.5 42.5 22.5  45 45 25  42.5 42.5 25  47.5 42.5 25  47.5 42.5 22.5  50 42.5 25  50 45 25  47.5 45 25  45 50 25  45 50 22.5  45 47.5 22.5  42.5 47.5 22.5  45 47.5 25  42.5 47.5 25  42.5 50 22.5  42.5 50 25  50 50 25  50 50 22.5  50 47.5 22.5  47.5 47.5 22.5  50 47.5 25  47.5 47.5 25  47.5 50 22.5  47.5 50 25  45 35 27.5  42.5 35 27.5  40 35 27.5  50 35 27.5  47.5 35 27.5  42.5 37.5 27.5  45 37.5 27.5  45 40 27.5  45 40 30  45 37.5 30  42.5 37.5 30  42.5 40 27.5  42.5 40 30  47.5 37.5 27.5  50 37.5 27.5  50 40 27.5  50 40 30  50 37.5 30  47.5 37.5 30  47.5 40 27.5  47.5 40 30  45 42.5 27.5  42.5 42.5 27.5  45 45 27.5  45 45 30  45 42.5 30  42.5 42.5 30  42.5 45 27.5  42.5 45 30  47.5 42.5 27.5  50 42.5 27.5  50 45 27.5  50 45 30  50 42.5 30  47.5 42.5 30  47.5 45 27.5  47.5 45 30  45 47.5 27.5  42.5 47.5 27.5  45 50 27.5  45 50 30  45 47.5 30  42.5 47.5 30  42.5 50 27.5  42.5 50 30  47.5 47.5 27.5  50 47.5 27.5  50 50 27.5  50 50 30  50 47.5 30  47.5 47.5 30  47.5 50 27.5  47.5 50 30  45 40 32.5  50 40 32.5  47.5 40 32.5  45 42.5 32.5  45 45 32.5  47.5 42.5 32.5  50 42.5 32.5  50 45 32.5  47.5 45 32.5  45 47.5 32.5  45 50 32.5  47.5 47.5 32.5  50 47.5 32.5  50 50 32.5  47.5 50 32.5  </DataArray>
</Points>
<Cells>
[...]
<CellData  Scalars="f">
<DataArray  type="Float64"  Name="f"  format="ascii">3 3 3 3 3 3 3 3 3 3 3 3 3 3 3 3 3 3 3 3 3 3 3 3 3 3 3 3 3 3 3 3 3 3 3 3 3 3 3 3 3 3 3 3 3 3 3 3 3 3 3 3 3 3 3 3 3 3 3 3 3 3 3 3 3 3 3 3 3 3 3 3 3 3 3 3 3 3 3 3 3 3 3 3 3 3 3 3 3 3 3 3 3 3 3 3 3 3 3 3 3 3 3 3 3 3 3 3 3 3 3 3 3 3 3 3 3 3 3 3 3 3 3 3 3 3 3 3 3 3 3 3 3 3 3 3 3 3 3 3 3 3 3 3 3 3 3 3 3 3 3 3 3 3 3 3 3 3 3 3 3 3 3 3 3 3 3 3 3 3 3 3 3 3 3 3 3 3 3 3 3 3 3 3 3 3 3 3 3 3 3 3 3 3 3 3 3 3 3 3 3 3 3 3 3 3 3 3 3 3 3 3 3 3 3 3 3 3 3 3 3 3 3 3 3 3 3 3 3 3 3 3 3 3 3 3 3 3 3 3 3 3 3 3 3 3 3 3 3 3 3 3 3 3 3 3 3 3 3 3 3 3 3 3 3 3 3 3 3 3 3 3 3 3 3 3 3 3 3 3 3 3 3 3 3 3 3 3 3 3 3 3 3 3 3 3 3 3 3 3 3 3 3 3 3 3 3 3 3 3 3 3 3 3 3 3 3 3 3 3 3 3 3 3 3 3 3 3 3 3 3 3 3 3 3 3 3 3 3 3 3 3 3 3 3 3 3 3 3 3 3 3 3 3 3 3 3 3 3 3 3 3 3 3 3 3 3 3 3 3 3 3 3 3 3 3 3 3 3 3 3 3 3 3 3 3 3 3 3 3 3 3 3 3 3 3 3 3 3 3 3 3 3 3 3 3 3 3 3 3 3 3 3 3 3 3 3 3 3 3 3 3 3 3 3 3 3 3 3 3 3 3 3 3 3 3 3 3 3 3 3 3 3 3 3 3 3 3 3 3 3 3 3 3 3 3 3 3 3 3 3 3 3 3 3 3 3 3 3 3 3 3 3 3 3 3 3 3 3 3 3 3 3 3 3 3 3 3 3 3 3 3 3 3 3 3 3 3 3 3 3 3 3 3 3 3 3 3 3 3 3 3 3 3 3 3 3 3 3 3 3 3 3 3 3 3 3 3 3 3 3 3 3 3 3 3 3 3 3 3 3 3 3 3 3 3 3 3 3 3 3 3 3 3 3 3 3 3 3 3 3 3 3 3 3 3 3 3 2 2 2 3 3 2 3 2 3 3 3 2 3 2 3 3 2 3 3 3 3 3 3 3 3 3 3 3 3 3 3 3 3 3 3 3 3 3 3 3 3 3 3 3 3 3 3 3 3 3 3 3 3 3 3 3 3 3 3 3 3 3 3 3 3 3 3 3 3 3 3 3 3 3 3 3 3 3 3 3 3 3 3 3 3 3 3 3 3 3 3 3 3 3 3 3 3 3 3 3 3 3 3 3 3 3 3 3 3 3 3 3 3 3 3 3 3 3 3 3 3 3 3 3 3 3 3 3 3 3 3 3 3 3 3 3 3 3 3 3 3 3 3 3 3 3 3 3 3 3 3 3 3 3 3 3 3 3 3 3 3 3 3 3 3 3 3 3 3 3 3 3 3 3 3 3 3 3 3 3 3 3 3 3 3 3 2 2 2 2 3 3 2 3 2 3 3 3 3 2 3 3 3 2 3 3 3 2 2 2 2 3 3 2 3 3 3 3 3 3 3 3 3 3 3 3 3 2 3 3 2 3 3 3 3 2 3 3 2 3 3 3 3 2 3 3 3 3 3 3 3 3 3 3 3 3 3 3 3 3 3 3 3 3 3 3 3 3 3 3 3 3 3 3 3 3 3 3 3 3 3 3 3 3 3 3 3 3 3 3 3 3 3 3 3 3 3 3 3 3 3 3 3 3 3 3 3 3 3 3 3 3 3 3 3 3 3 3 3 3 3 3 3 3 3 3 3 3 3 3 3 3 3 3 3 3 3 3 3 3 3 3 3 3 3 3 3 3 2 3 3 3 3 2 3 3 3 3 3 3 3 3 3 3 3 3 3 3 3 3 3 3 3 3 3 2 3 3 2 3 2 3 3 3 2 3 3 3 3 3 3 3 3 3 3 3 3 3 3 3 3 3 3 3 3 3 3 3 3 3 3 3 3 3 3 3 3 3 3 3 3 3 3 3 3 3 3 3 3 3 3 3 3 3 3 3 3 3 3 3 3 3 3 3 3 3 3 3 3 3 3 3 3 3 3 3 3 3 3 3 3 3 3 3 3 3 3 3 3 3 3 3 3 3 3 3 3 3 3 3 3 3 3 3 3 3 3 3 3 3 3 3 3 3 3 3 3 3 3 3 3 3 3 2 2 3 3 2 3 3 3 3 2 3 3 3 3 3 3 3 3 3 3 3 3 2 3 3 2 3 3 3 3 2 3 3 2 3 3 3 3 3 3 3 3 3 3 3 3 3 3 3 3 3 3 3 3 3 3 3 3 3 3 3 3 3 3 3 3 3 3 3 3 3 3 3 3 3 3 3 3 3 3 3 3 3 3 3 3 3 3 3 3 3 3 3 3 3 3 3 3 3 3 3 3 3 3 3 3 3 3 3 3 3 3 3 3 3 3 3 3 3 3 3 3 3 3 3 3 3 3 3 3 3 3 3 3 3 3 3 3 3 3 3 3 3 3 3 3 3 3 3 3 3 3 3 3 3 3 3 3 3 3 3 3 3 3 3 3 3 3 3 3 3 3 3 3 3 3 3 3 3 3 3 3 3 3 3 3 3 3 3 3 3 3 3 3 3 3 3 3 3 3 3 3 3 3 3 3 3 3 3 3 3 2 2 2 2 3 3 2 3 3 3 3 3 3 3 3 3 3 3 3 3 2 3 3 2 3 3 3 3 3 3 2 3 2 3 3 2 3 3 3 3 3 3 3 3 3 3 3 3 3 3 3 3 3 3 3 3 3 3 3 3 3 3 3 3 3 3 3 3 3 3 3 3 3 3 3 3 3 3 3 3 3 3 3 3 3 3 3 3 3 3 3 3 3 3 3 3 3 3 3 3 3 3 3 3 3 3 3 3 3 3 3 3 3 3 3 3 3 3 3 3 3 3 3 3 3 3 3 3 3 3 3 3 3 3 3 3 3 3 3 3 3 3 3 3 3 3 3 3 3 3 3 3 3 3 3 3 3 3 3 3 3 3 3 3 3 3 3 3 3 3 3 3 3 3 3 3 3 3 3 3 3 3 3 3 3 3 3 3 3 3 3 3 3 3 3 3 3 3 3 3 3 3 3 3 3 2 3 3 3 3 2 3 3 3 3 2 3 3 3 3 3 3 3 3 3 3 3 3 3 3 3 3 3 3 3 3 2 3 3 2 3 3 3 3 3 3 3 3 2 2 3 2 3 3 3 3 3 3 3 3 3 3 3 3 3 3 3 3 3 3 3 3 3 3 3 3 3 3 3 3 3 3 3 3 3 3 3 3 3 3 3 3 3 3 3 3 3 3 3 3 3 3 3 3 3 3 3 3 3 3 3 3 3 3 3 3 3 3 3 3 3 3 3 3 3 3 3 3 3 3 3 3 3 3 3 3 3 3 3 3 3 3 3 3 3 3 3 3 3 3 3 3 3 3 3 3 3 3 3 3 3 3 3 3 3 3 3 3 3 3 3 3 3 3 3 3 3 3 3 3 3 3 3 3 3 3 3 3 3 3 3 3 3 3 3 3 3 3 3 3 3 3 3 3 3 3 3 3 3 3 3 3 3 3 3 3 3 3 3 3 3 3 3 3 3 3 3 3 3 3 3 2 2 3 3 2 3 3 3 3 2 3 3 3 3 3 3 3 3 3 3 3 3 2 3 3 2 3 3 3 3 2 3 3 2 3 3 3 3 3 3 3 3 3 3 3 3 3 3 3 3 3 3 3 3 3 3 3 3 3 3 3 3 3 3 3 3 3 3 3 3 3 3 3 3 3 3 3 3 3 3 3 3 3 3 3 3 3 3 3 3 3 3 3 3 3 3 3 3 3 3 3 3 3 3 3 3 3 3 3 3 3 3 3 3 3 3 3 3 3 3 3 3 3 3 3 3 3 3 3 3 3 3 3 3 3 3 3 3 3 3 3 3 3 3 3 3 3 3 3 3 3 3 3 3 3 3 3 3 3 3 3 3 3 3 3 3 3 3 3 3 3 3 3 3 3 3 3 3 3 3 3 3 3 3 3 3 3 3 3 3 3 3 3 3 3 3 3 3 3 3 2 2 3 3 2 3 3 3 3 2 3 3 3 3 3 3 3 3 3 3 3 3 2 3 3 2 3 3 3 3 2 3 3 2 3 3 3 3 3 3 3 3 3 3 3 3 3 3 3 3 3 3 3 3 3 3 3 3 3 3 3 3 3 3 3 3 3 3 3 3 3 3 3 3 3 3 3 3 3 3 3 3 3 3 3 3 3 3 3 3 3 3 3 3 3 3 3 3 3 3 3 3 3 3 3 3 3 3 3 3 3 3 3 3 3 3 3 3 3 3 3 3 3 3 3 3 3 3 3 3 3 3 3 3 3 3 3 3 3 3 3 3 3 3 3 3 3 3 3 3 3 3 3 3 3 3 3 3 3 3 3 3 3 3 3 3 3 3 3 3 3 3 3 3 3 3 3 3 3 3 3 3 3 3 3 3 3 3 3 3 3 3 3 3 3 3 3 3 3 3 3 3 3 3 3 3 3 3 3 3 3 3 3 3 3 3 3 3 3 3 3 3 3 3 3 3 3 3 3 3 3 3 3 3 3 3 3 3 3 3 3 3 3 3 3 3 3 3 3 3 3 3 3 3 3 3 3 3 3 3 3 3 3 3 3 3 3 3 3 3 3 3 3 3 3 3 3 3 3 3 3 3 3 3 3 3 3 3 3 3 3 3 3 3 3 3 3 3 3 3 3 3 3 3 3 3 3 3 3 3 3 3 3 3 3 3 3 3 3 3 3 3 3 3 3 3 3 3 3 3 3 3 3 3 3 3 3 3 3 3 3 3 3 3 3 3 3 3 3 3 3 2 2 2 2 3 2 3 3 3 2 3 3 3 3 3 3 3 3 3 3 3 3 2 3 2 3 3 3 2 3 3 2 3 3 3 3 2 3 3 3 3 2 3 3 3 3 3 3 3 3 3 3 3 3 2 3 3 2 3 3 3 3 2 3 3 2 3 3 3 3 3 3 3 3 3 3 3 3 3 3 3 3 3 3 3 3 3 3 3 3 3 3 3 3 3 3 3 3 3 3 3 3 3 3 3 3 3 3 3 3 3 3 3 3 3 3 3 3 3 3 3 3 3 3 3 3 3 3 3 3 3 3 3 3 3 3 3 3 3 3 3 3 3 3 3 3 3 3 3 3 3 3 3 3 3 3 3 3 3 3 3 3 3 3 3 3 3 3 3 3 3 3 3 3 3 3 3 3 3 3 3 3 3 3 3 3 3 3 3 3 3 3 3 3 3 3 3 3 3 3 3 3 3 3 3 3 3 3 3 3 3 3 3 3 3 3 3 3 3 3 3 3 3 3 3 3 3 3 3 3 3 3 3 3 3 3 3 3 3 3 3 3 3 3 3 3 3 3 3 3 3 3 3 3 3 3 3 3 3 3 3 3 3 3 3 3 3 3 3 3 3 3 3 3 2 2 2 2 3 2 3 3 3 3 3 3 3 3 2 3 3 3 3 2 3 3 3 3 3 3 3 3 2 3 3 3 3 3 3 3 3 3 3 3 3 3 3 3 3 3 3 3 3 3 3 3 3 3 3 3 3 3 3 3 3 3 3 3 3 3 3 3 3 3 3 3 3 3 3 3 3 3 3 3 3 3 3 3 3 3 3 3 3 3 3 3 3 3 3 3 3 3 3 3 3 3 3 3 3 3 3 3 3 3 3 3 3 3 3 3 3 3 3 3 3 3 3 3 3 3 3 3 3 3 3 3 3 3 3 3 3 3 3 3 3 3 3 3 3 3 3 3 3 3 3 3 3 3 3 3 3 3 3 3 3 3 3 3 3 3 3 3 3 3 3 3 3 3 3 3 3 3 3 3 3 3 3 3 3 3 3 3 3 3 3 3 3 3 3 3 3 3 3 3 3 3 3 3 3 3 3 3 3 3 2 2 3 3 3 3 3 3 3 3 3 3 3 3 2 3 3 2 3 3 3 3 3 3 3 3 2 2 3 2 2 3 3 3 3 3 3 3 3 3 3 3 3 3 3 3 3 3 3 3 3 3 3 3 3 3 3 3 3 3 3 3 3 3 3 3 3 3 3 3 3 3 3 3 3 3 3 3 3 3 3 3 3 3 3 3 3 3 3 3 3 3 3 3 3 3 3 3 3 3 3 3 3 3 3 3 3 3 3 3 3 3 3 3 3 3 3 3 3 3 3 3 3 3 3 3 3 3 3 3 3 3 3 3 3 3 3 3 3 3 3 3 3 3 3 3 3 3 3 3 3 3 3 3 3 3 3 3 3 3 3 3 3 3 3 3 3 3 3 3 3 3 3 3 3 3 3 3 3 3 3 3 3 3 3 3 3 3 3 3 3 3 3 3 3 3 3 3 3 3 3 3 3 3 3 3 3 3 3 3 3 3 3 2 2 3 3 2 3 3 3 3 2 3 3 3 3 3 3 3 3 3 3 3 3 2 3 3 2 3 3 3 3 2 3 3 2 3 3 3 3 3 3 3 3 3 3 3 3 3 3 3 3 3 3 3 3 3 3 3 3 3 3 3 3 3 3 3 3 3 3 3 3 3 3 3 3 3 3 3 3 3 3 3 3 3 3 3 3 3 3 3 3 3 3 3 3 3 3 3 3 3 3 3 3 3 3 3 3 3 3 3 3 3 3 3 3 3 3 3 3 3 3 3 3 3 3 3 3 3 3 3 3 3 3 3 3 3 3 3 3 3 3 3 3 3 3 3 3 3 3 3 3 3 3 3 3 3 3 3 3 3 3 3 3 3 3 3 3 3 3 3 3 3 3 3 3 3 3 3 3 3 3 3 3 3 3 3 3 3 3 3 3 3 2 2 3 3 2 3 3 3 3 2 3 3 3 3 3 3 3 3 3 3 3 3 2 3 3 2 3 3 3 3 2 3 3 2 3 3 3 3 3 3 3 3 3 3 3 3 3 3 3 3 3 3 3 3 3 3 3 3 3 3 3 3 3 3 3 3 3 3 3 3 3 3 3 3 3 3 3 3 3 3 3 3 3 3 3 3 3 3 3 3 3 3 3 3 3 3 3 3 3 3 3 3 3 3 3 3 3 3 3 3 3 3 3 3 3 3 3 3 3 3 3 3 3 3 3 3 3 3 3 3 3 3 3 3 3 3 3 3 3 3 3 3 3 3 3 3 3 3 3 3 3 3 3 3 3 3 3 3 3 3 3 3 3 3 3 3 3 3 3 3 3 3 3 3 3 3 3 3 3 3 3 3 3 3 3 3 3 3 3 2 2 3 3 2 3 3 3 3 2 3 3 3 3 3 3 3 3 3 3 3 3 2 3 3 2 3 3 3 3 2 3 3 2 3 3 3 3 3 3 3 3 3 3 3 3 3 3 3 3 3 3 3 3 3 3 3 3 3 3 3 3 3 3 3 3 3 3 3 3 3 3 3 3 3 3 3 3 3 3 3 3 3 3 3 3 3 3 3 3 3 3 3 3 3 3 3 3 3 3 3 3 3 3 3 3 3 3 3 3 3 3 3 3 3 3 3 3 3 3 3 3 3 3 3 3 3 3 3 3 3 3 3 3 3 3 3 3 3 2 2 3 3 3 2 3 3 3 3 3 3 3 3 2 3 3 3 3 3 3 3 3 3 3 3 3 3 3 3 3 3 3 3 3 3 3 3 3 3 3 3 3 3 3 3 3 3 3 3 3 3 3 3 3 3 3 3 3 3 3 3 3 3 3 3 3 3 3 3 3 3 3 3 3 3 3 3 3 3 3 3 3 3 3 3 3 3 3 3 3 3 3 3 3 3 3 3 3 3 3 3 3 3 3 3 3 3 3 3 3 3 3 3 3 3 3 3 3 3 3 3 3 3 3 3 3 3 3 3 3 3 3 3 3 3 3 3 3 3 3 3 3 3 3 3 3 3 3 2 2 3 3 3 3 3 3 3 3 2 3 2 3 3 3 3 3 3 3 3 3 3 3 3 3 3 3 3 3 3 3 3 3 3 3 3 3 3 3 3 3 3 3 3 3 3 3 3 3 3 3 3 3 3 3 3 3 3 3 3 3 3 3 3 3 3 3 3 3 3 3 3 3 3 3 3 3 3 3 3 3 3 3 3 3 3 3 3 3 3 3 3 3 3 3 3 3 3 3 3 3 3 3 3 3 3 3 3 2 2 3 3 2 3 3 3 3 3 3 3 3 3 3 3 2 3 3 3 3 3 3 3 3 3 3 3 3 3 3 3 3 3 3 3 3 3 3 3 3 3 3 3 3 3 3 3 3 3 3 3 3 3 3 3 3 3 3 3 3 3 3 3 3 3 3 3 3 3 3 3 3 3 3 3 3 3 3 3 3 3 3 3 3 3 3 3 2 2 3 3 2 3 3 3 3 3 3 3 3 3 3 3 2 3 3 3 3 3 3 3 3 3 3 3 3 3 3 3 3 3 3 3 3 3 3 3 3 3 3 3 3 3 3 3 3 3 3 3 3 3 3 3 3 3 3 3 3 3 3 3 3 3 3 3 3 3 3 3 3 3 3 3 3 3 3 3 3 3 3 3 3 3 3 3 2 2 3 3 2 3 3 3 3 3 3 3 3 3 3 3 2 3 3 3 3 3 3 3 3 3 3 3 3 3 3 3 3 3 3 3 3 3 3 3 3 3 3 3 3 3 3 3 3 3 3 3 3 3 3 3 3 3 3 3 3 3 3 3 2 2 3 3 3 3 3 3 3 3 3 3 3 3 3 3 3 3 3 3 3 3 3 3 3 3 3 3 3 3 3 3 3 3 3 3 3 3 3 3 3 3 3 3 3 3 3 3 3 3 3 3 3 3 3 3 3 3 3 3 3 3 3 3 3 3 3 3 3 3 3 3 3 3 3 3 3 3 3 3 3 3 3 3 3 3 3 3 3 3 3 3 3 3 3 3 3 3 3 3 3 3 3 3 3 3 3 3 3 3 3 3 3 3 3 3 3 3 3 3 3 3 3 3 3 3 3 3 3 3 3 3 3 3 3 3 3 3 3 3 3 3 3 3 3 3 3 3 3 3 3 3 3 3 3 3 3 3 3 3 3 3 3 3 3 3 3 3 3 3 3 3 3 3 3 3 3 3 3 3 3 3 3 3 3 3 3 3 3 3 3 3 3 3 3 3 3 3 3 3 3 3 3 3 3 3 3 3 3 3 3 3 3 3 3 3 3 3 3 3 3 3 3 3 3 3 3 3 3 3 3 2 3 3 2 3 3 2 3 3 3 3 3 3 3 3 3 3 3 3 2 3 3 3 2 3 3 3 3 3 2 3 3 3 3 3 3 3 3 3 3 3 3 3 3 3 3 3 3 3 3 3 3 3 3 3 3 3 3 3 3 3 3 3 3 3 3 3 3 3 3 3 3 3 3 3 3 3 3 3 3 3 3 3 3 3 3 3 3 3 3 3 3 3 3 3 3 3 3 3 3 3 3 3 3 3 3 3 3 3 3 3 3 3 3 3 3 3 3 3 3 3 3 3 3 3 3 3 3 3 3 3 3 3 3 3 3 3 3 3 3 3 2 3 3 3 3 2 3 3 3 3 3 3 3 3 3 3 3 3 3 3 3 3 3 3 3 3 3 3 2 3 3 3 2 3 3 2 3 3 3 3 3 3 3 3 3 3 3 3 3 3 3 3 3 3 3 3 3 3 3 3 3 3 3 3 3 3 3 3 3 3 3 3 3 3 3 3 3 3 3 3 3 3 3 3 3 3 3 3 3 3 3 3 3 3 3 3 3 3 3 3 3 3 3 3 3 3 3 3 3 3 3 3 3 3 2 3 3 3 3 3 3 3 2 3 3 3 3 2 3 3 3 3 2 3 3 2 3 3 3 3 3 3 3 3 3 3 3 3 3 3 3 3 3 3 3 3 3 3 3 3 3 3 3 3 3 3 3 3 3 3 3 3 3 3 3 3 3 3 3 3 3 3 3 3 3 3 3 3 3 3 3 3 3 3 3 3 3 3 2 3 3 3 2 3 3 3 3 3 3 2 3 3 3 3 3 3 3 3 2 3 3 3 3 3 3 3 3 3 3 3 3 3 3 3 3 3 3 3 3 3 3 3 3 3 3 3 3 3 3 3 3 3 3 3 3 3 3 3 3 3 3 3 3 3 3 3 3 3 3 3 3 3 3 3 3 3 3 3 3 3 3 3 3 3 3 3 3 3 3 3 3 3 3 3 3 3 3 3 3 3 3 3 3 3 3 3 3 3 3 3 3 3 3 3 3 2 2 3 3 2 3 3 3 3 3 3 3 3 3 3 3 3 3 2 3 3 2 3 3 3 2 3 3 3 3 3 3 3 3 3 3 3 3 3 3 3 3 3 3 3 3 3 3 3 3 3 3 3 3 3 3 3 3 3 3 3 3 3 3 3 3 3 3 3 3 3 3 3 3 3 3 3 3 3 3 3 3 3 3 3 3 3 3 3 3 3 3 3 3 3 3 3 3 3 3 3 3 3 3 3 3 3 3 3 3 3 3 3 3 3 3 3 3 3 3 2 2 3 3 2 3 3 3 3 2 3 3 3 3 3 3 3 3 3 3 3 3 2 3 3 2 3 3 3 3 2 3 3 2 3 3 3 3 3 3 3 3 3 3 3 3 3 3 3 3 3 3 3 3 3 3 3 3 3 3 3 3 3 3 3 3 3 3 3 3 3 3 3 3 3 3 3 3 3 3 3 3 3 3 3 3 3 3 3 3 3 3 3 3 3 3 3 3 3 3 2 2 3 3 3 2 3 3 3 3 3 3 3 3 2 3 3 3 3 3 3 3 3 3 3 3 3 3 3 3 3 3 3 3 3 3 </DataArray>
</CellData>
</Piece>
</UnstructuredGrid>
</VTKFile>