<?xml version="1.0"?>
<VTKFile type="UnstructuredGrid"  version="0.1"  >
<UnstructuredGrid>
<Piece  NumberOfPoints="616" NumberOfCells="5380">
<Points>
<DataArray  type="Float64"  NumberOfComponents="3"  format="ascii">15 0 20  15 2.5 22.5  15 2.5 20  12.5 2.5 22.5  15 5 20  15 5 22.5  15 5 25  15 0 22.5  12.5 0 22.5  15 0 25  15 2.5 25  20 5 25  20 5 22.5  20 2.5 22.5  17.5 2.5 22.5  20 0 25  20 2.5 25  17.5 0 22.5  17.5 2.5 25  17.5 0 25  17.5 5 22.5  17.5 5 25  25 5 25  25 5 22.5  22.5 5 22.5  22.5 2.5 22.5  22.5 2.5 25  22.5 5 25  20 10 25  20 10 22.5  20 7.5 22.5  17.5 7.5 22.5  20 7.5 25  17.5 7.5 25  17.5 10 22.5  15 7.5 22.5  15 7.5 25  15 10 25  17.5 10 25  15 10 22.5  25 10 25  25 10 22.5  25 7.5 22.5  22.5 7.5 22.5  25 7.5 25  22.5 7.5 25  22.5 10 22.5  22.5 10 25  20 15 25  20 15 22.5  20 12.5 22.5  17.5 12.5 22.5  20 12.5 25  17.5 12.5 25  17.5 15 22.5  15 12.5 25  15 12.5 22.5  15 15 25  17.5 15 25  15 15 22.5  25 15 25  25 15 22.5  25 12.5 22.5  22.5 12.5 22.5  25 12.5 25  22.5 12.5 25  22.5 15 22.5  22.5 15 25  20 20 25  20 20 22.5  20 17.5 22.5  17.5 17.5 22.5  20 17.5 25  17.5 17.5 25  17.5 20 22.5  15 17.5 25  15 17.5 22.5  15 20 25  17.5 20 25  25 17.5 25  25 17.5 22.5  22.5 17.5 22.5  25 20 25  22.5 17.5 25  22.5 20 25  22.5 20 22.5  20 25 25  20 25 22.5  20 22.5 22.5  17.5 22.5 22.5  20 22.5 25  17.5 22.5 25  15 22.5 25  15 25 25  17.5 25 25  25 22.5 25  25 22.5 22.5  22.5 22.5 22.5  25 25 25  22.5 22.5 25  22.5 25 25  22.5 2.5 27.5  22.5 5 27.5  25 5 27.5  25 5 30  22.5 7.5 27.5  25 7.5 27.5  25 10 27.5  25 10 30  25 7.5 30  22.5 10 27.5  22.5 12.5 27.5  25 12.5 27.5  25 15 27.5  25 15 30  25 12.5 30  22.5 15 27.5  22.5 17.5 27.5  25 17.5 27.5  25 20 27.5  25 20 30  25 17.5 30  22.5 20 27.5  17.5 22.5 27.5  20 22.5 27.5  20 25 27.5  20 25 30  17.5 25 27.5  22.5 22.5 27.5  25 22.5 27.5  25 25 27.5  25 25 30  25 22.5 30  22.5 25 27.5  22.5 25 30  17.5 27.5 27.5  22.5 27.5 27.5  25 27.5 27.5  25 27.5 30  22.5 27.5 30  12.5 5 22.5  12.5 7.5 22.5  12.5 10 22.5  12.5 12.5 22.5  12.5 15 22.5  12.5 17.5 22.5  5 20 25  5 20 22.5  5 17.5 22.5  2.5 17.5 22.5  5 15 25  5 17.5 25  0 15 25  2.5 17.5 25  2.5 15 25  2.5 20 22.5  0 17.5 25  0 17.5 22.5  0 20 25  2.5 20 25  0 20 20  0 20 22.5  7.5 17.5 25  7.5 17.5 22.5  7.5 20 25  10 20 25  7.5 20 22.5  5 22.5 25  5 22.5 22.5  2.5 22.5 22.5  5 25 25  2.5 22.5 25  0 22.5 22.5  0 22.5 25  0 25 25  2.5 25 25  7.5 22.5 25  7.5 22.5 22.5  10 22.5 25  10 25 25  7.5 25 25  2.5 17.5 27.5  5 17.5 27.5  5 20 27.5  5 20 30  2.5 15 27.5  5 15 27.5  5 15 30  5 17.5 30  0 15 27.5  0 15 30  2.5 17.5 30  2.5 15 30  2.5 20 27.5  0 17.5 27.5  0 17.5 30  0 20 30  2.5 20 30  0 20 27.5  7.5 17.5 27.5  7.5 20 27.5  10 20 27.5  10 20 30  7.5 17.5 30  7.5 20 30  2.5 22.5 27.5  5 22.5 27.5  5 25 27.5  5 25 30  5 22.5 30  2.5 22.5 30  0 22.5 27.5  0 22.5 30  0 25 30  2.5 25 30  7.5 22.5 27.5  10 22.5 27.5  10 25 27.5  10 25 30  10 22.5 30  7.5 22.5 30  7.5 25 27.5  7.5 25 30  2.5 17.5 32.5  5 17.5 32.5  2.5 15 32.5  5 15 32.5  5 15 35  0 15 32.5  0 15 35  2.5 15 35  2.5 20 32.5  0 17.5 32.5  7.5 17.5 32.5  7.5 20 32.5  10 20 32.5  10 20 35  2.5 22.5 32.5  5 22.5 32.5  2.5 25 32.5  0 22.5 32.5  0 25 32.5  7.5 22.5 32.5  10 22.5 32.5  12.5 22.5 32.5  12.5 20 32.5  12.5 20 35  15 20 35  0 10 35  2.5 12.5 37.5  2.5 12.5 35  2.5 10 35  5 10 35  5 12.5 35  0 12.5 35  0 12.5 37.5  20 15 35  20 17.5 37.5  20 17.5 35  17.5 17.5 37.5  17.5 17.5 35  20 20 35  17.5 20 35  22.5 17.5 37.5  22.5 17.5 35  22.5 15 35  25 15 35  25 17.5 37.5  25 17.5 35  25 20 35  22.5 20 35  5 5 20  5 5 22.5  5 2.5 22.5  2.5 2.5 22.5  5 5 25  5 0 25  5 2.5 25  5 0 22.5  2.5 0 22.5  0 0 25  2.5 2.5 25  2.5 0 25  0 0 22.5  2.5 5 22.5  0 2.5 25  0 2.5 22.5  0 5 25  2.5 5 25  0 5 22.5  10 5 25  10 5 22.5  10 2.5 22.5  7.5 2.5 22.5  10 0 25  10 2.5 25  10 0 22.5  7.5 0 22.5  7.5 2.5 25  7.5 0 25  7.5 5 22.5  7.5 5 25  12.5 2.5 25  12.5 0 25  12.5 5 25  5 10 25  5 10 22.5  5 7.5 22.5  2.5 7.5 22.5  5 7.5 25  2.5 7.5 25  2.5 10 22.5  0 7.5 25  0 7.5 22.5  0 10 25  2.5 10 25  0 10 22.5  10 10 25  10 10 22.5  10 7.5 22.5  7.5 7.5 22.5  10 7.5 25  7.5 7.5 25  7.5 10 22.5  7.5 10 25  12.5 7.5 25  12.5 10 25  5 12.5 25  5 12.5 22.5  2.5 12.5 22.5  2.5 12.5 25  0 12.5 25  0 12.5 22.5  10 15 25  10 15 22.5  10 12.5 22.5  7.5 12.5 22.5  10 12.5 25  7.5 12.5 25  7.5 15 22.5  7.5 15 25  12.5 12.5 25  12.5 15 25  10 17.5 25  10 17.5 22.5  12.5 17.5 25  12.5 20 25  2.5 2.5 27.5  5 2.5 27.5  5 5 27.5  5 5 30  2.5 0 27.5  5 0 27.5  5 0 30  5 2.5 30  0 0 27.5  0 0 30  2.5 2.5 30  2.5 0 30  2.5 5 27.5  0 2.5 27.5  0 2.5 30  0 5 30  2.5 5 30  0 5 27.5  7.5 2.5 27.5  10 2.5 27.5  10 5 27.5  10 5 30  7.5 0 27.5  10 0 27.5  10 0 30  10 2.5 30  7.5 2.5 30  7.5 0 30  7.5 5 27.5  7.5 5 30  12.5 2.5 27.5  15 2.5 27.5  15 5 27.5  15 5 30  12.5 0 27.5  15 0 27.5  15 0 30  15 2.5 30  12.5 2.5 30  12.5 0 30  12.5 5 27.5  12.5 5 30  17.5 2.5 27.5  20 2.5 27.5  20 5 27.5  20 5 30  17.5 0 27.5  20 0 27.5  20 0 30  20 2.5 30  17.5 2.5 30  17.5 0 30  17.5 5 27.5  17.5 5 30  2.5 7.5 27.5  5 7.5 27.5  5 10 27.5  5 10 30  5 7.5 30  2.5 7.5 30  2.5 10 27.5  0 7.5 27.5  0 7.5 30  0 10 30  2.5 10 30  0 10 27.5  7.5 7.5 27.5  10 7.5 27.5  10 10 27.5  10 10 30  10 7.5 30  7.5 7.5 30  7.5 10 27.5  7.5 10 30  12.5 7.5 27.5  15 7.5 27.5  15 10 27.5  15 10 30  15 7.5 30  12.5 7.5 30  12.5 10 27.5  12.5 10 30  17.5 7.5 27.5  20 7.5 27.5  20 10 27.5  20 10 30  20 7.5 30  17.5 7.5 30  17.5 10 27.5  17.5 10 30  22.5 10 30  2.5 12.5 27.5  5 12.5 27.5  5 12.5 30  2.5 12.5 30  0 12.5 27.5  0 12.5 30  7.5 12.5 27.5  10 12.5 27.5  10 15 27.5  10 15 30  10 12.5 30  7.5 12.5 30  7.5 15 27.5  7.5 15 30  12.5 12.5 27.5  15 12.5 27.5  15 15 27.5  15 15 30  15 12.5 30  12.5 12.5 30  12.5 15 27.5  12.5 15 30  17.5 12.5 27.5  20 12.5 27.5  20 15 27.5  20 15 30  20 12.5 30  17.5 12.5 30  17.5 15 27.5  17.5 15 30  22.5 12.5 30  22.5 15 30  10 17.5 27.5  10 17.5 30  12.5 17.5 27.5  15 17.5 27.5  15 20 27.5  15 20 30  15 17.5 30  12.5 17.5 30  12.5 20 27.5  12.5 20 30  17.5 17.5 27.5  20 17.5 27.5  20 20 27.5  20 20 30  20 17.5 30  17.5 17.5 30  17.5 20 27.5  17.5 20 30  22.5 17.5 30  22.5 20 30  12.5 22.5 27.5  12.5 22.5 25  15 22.5 27.5  15 25 27.5  15 25 30  15 22.5 30  12.5 22.5 30  12.5 25 27.5  12.5 25 25  12.5 25 30  20 22.5 30  17.5 22.5 30  17.5 25 30  22.5 22.5 30  12.5 27.5 27.5  12.5 27.5 30  2.5 2.5 32.5  5 2.5 32.5  5 5 32.5  2.5 5 32.5  7.5 2.5 32.5  10 2.5 32.5  10 5 32.5  10 5 35  7.5 5 32.5  12.5 2.5 32.5  15 2.5 32.5  15 5 32.5  12.5 5 32.5  17.5 2.5 32.5  17.5 5 32.5  2.5 7.5 32.5  5 7.5 32.5  5 10 32.5  2.5 10 32.5  0 10 32.5  7.5 7.5 32.5  10 7.5 32.5  10 10 32.5  7.5 10 32.5  12.5 7.5 32.5  15 7.5 32.5  15 10 32.5  12.5 10 32.5  17.5 7.5 32.5  17.5 10 32.5  2.5 12.5 32.5  5 12.5 32.5  0 12.5 32.5  7.5 12.5 32.5  10 12.5 32.5  10 15 32.5  7.5 15 32.5  12.5 12.5 32.5  15 12.5 32.5  12.5 15 32.5  17.5 12.5 32.5  20 12.5 32.5  20 15 32.5  17.5 15 32.5  22.5 12.5 32.5  25 12.5 32.5  25 15 32.5  22.5 15 32.5  10 17.5 32.5  12.5 17.5 32.5  15 17.5 32.5  15 20 32.5  17.5 17.5 32.5  20 17.5 32.5  20 20 32.5  17.5 20 32.5  22.5 17.5 32.5  25 17.5 32.5  25 20 32.5  22.5 20 32.5  15 22.5 32.5  12.5 25 32.5  17.5 22.5 32.5  20 22.5 32.5  22.5 22.5 32.5  25 22.5 32.5  25 25 32.5  22.5 25 32.5  12.5 27.5 32.5  22.5 27.5 32.5  25 27.5 32.5  27.5 22.5 25  27.5 20 25  27.5 22.5 22.5  27.5 25 25  27.5 22.5 27.5  27.5 20 27.5  27.5 22.5 30  27.5 20 30  27.5 25 27.5  27.5 25 30  27.5 27.5 27.5  27.5 27.5 30  27.5 22.5 32.5  27.5 25 32.5  27.5 27.5 32.5  27.5 12.5 25  27.5 12.5 22.5  27.5 15 25  27.5 15 22.5  27.5 17.5 25  27.5 17.5 22.5  22.5 0 27.5  27.5 7.5 27.5  27.5 10 27.5  27.5 10 30  27.5 12.5 27.5  27.5 12.5 30  27.5 15 27.5  27.5 15 30  27.5 17.5 27.5  27.5 17.5 30  27.5 12.5 32.5  27.5 15 32.5  27.5 15 35  27.5 17.5 32.5  27.5 17.5 35  27.5 20 32.5  27.5 20 35  27.5 17.5 37.5  </DataArray>
</Points>
<Cells>
[...]
<CellData  Scalars="f">
<DataArray  type="Float64"  Name="f"  format="ascii">3 3 3 3 3 3 3 3 3 3 3 3 3 3 3 3 3 3 3 3 3 3 3 3 3 3 3 3 3 3 3 3 3 3 3 3 3 3 3 3 3 3 3 3 3 3 3 3 3 3 3 3 3 3 3 3 3 3 3 3 3 3 3 3 3 3 3 3 3 3 3 3 3 3 3 3 3 3 3 3 3 3 3 3 3 3 3 3 3 3 3 3 3 3 3 3 3 3 3 3 3 3 3 3 3 3 3 3 3 3 3 3 3 3 3 3 3 3 3 3 3 3 3 3 3 3 3 3 3 3 3 3 3 3 3 3 3 3 3 3 3 3 3 3 3 3 3 3 3 3 3 3 3 3 3 3 3 3 3 3 3 3 3 3 3 3 3 3 3 3 3 3 3 3 3 3 3 3 3 3 3 3 3 3 3 3 3 3 3 3 3 3 3 3 3 3 3 3 3 3 3 3 3 3 3 3 3 3 3 3 3 3 3 3 3 3 3 3 3 3 3 3 3 3 3 3 3 3 3 3 3 3 3 3 3 3 3 3 3 3 3 3 3 3 3 3 3 3 3 3 3 3 3 3 3 3 3 3 3 3 3 3 3 3 3 3 3 3 3 3 3 3 3 3 3 3 3 3 3 3 3 3 3 3 3 3 3 3 3 3 3 3 3 3 3 3 3 3 3 3 3 3 3 3 3 3 3 3 3 3 3 3 3 3 3 3 3 3 3 3 3 3 3 3 3 3 3 3 3 3 3 3 3 3 3 3 3 3 3 3 3 3 3 3 3 3 3 3 3 3 3 3 3 3 3 3 3 3 3 3 3 3 3 3 3 3 3 3 3 3 3 3 3 3 3 3 3 3 3 3 3 3 3 3 3 3 3 3 3 3 3 3 3 3 3 3 3 3 3 3 3 3 3 3 3 3 3 3 3 3 3 3 3 3 3 3 3 3 3 3 3 3 3 3 3 3 3 3 3 3 3 3 3 3 3 3 3 3 3 3 3 3 3 3 3 3 3 3 3 3 3 3 3 3 3 3 3 3 3 3 3 3 3 3 3 3 3 3 3 3 3 3 3 3 3 3 3 3 3 3 3 3 3 3 3 3 3 3 3 3 3 3 3 3 3 3 3 3 3 3 3 3 3 3 3 3 3 3 3 3 3 3 3 3 3 3 3 3 3 3 3 3 3 3 3 3 3 3 3 3 3 3 3 3 3 3 3 3 3 3 3 3 3 3 3 3 3 3 3 3 3 3 3 3 3 3 3 3 3 3 3 3 3 3 3 3 3 3 3 3 3 3 3 3 3 3 3 3 3 3 3 3 3 3 3 3 3 3 3 3 3 3 3 3 3 3 3 3 3 3 3 3 3 3 3 3 3 3 3 3 3 3 3 3 3 3 3 3 3 3 3 3 3 3 3 3 3 3 3 3 3 3 3 3 3 3 3 3 3 3 3 3 3 3 3 3 3 3 3 3 3 3 3 3 3 3 3 3 3 3 3 3 3 3 3 3 3 3 3 3 3 3 3 3 3 3 3 3 3 3 3 3 3 3 3 3 3 3 3 3 3 3 3 3 3 3 3 3 3 3 3 3 3 3 3 3 3 3 3 3 3 3 3 3 3 3 3 3 3 3 3 3 3 3 3 3 3 3 3 3 3 3 3 3 3 3 3 3 3 3 3 3 3 3 3 3 3 3 3 3 3 3 3 3 3 3 3 3 3 3 3 3 3 3 3 3 3 3 3 3 3 3 3 3 3 3 3 3 3 3 3 3 3 3 3 3 3 3 3 3 3 3 3 3 3 3 3 3 3 3 3 3 3 3 3 3 3 3 3 3 3 3 3 3 3 3 3 3 3 3 3 3 3 3 3 3 3 3 3 3 3 3 3 3 3 3 3 3 3 3 3 3 3 3 3 3 3 3 3 3 3 3 3 3 3 3 3 3 3 3 3 3 3 3 3 3 3 3 3 3 3 3 3 3 3 3 3 3 3 3 3 3 3 3 3 3 3 3 3 3 3 3 3 3 3 3 3 3 3 3 3 3 3 3 3 3 3 3 3 3 3 3 3 3 3 3 3 3 3 3 3 3 3 3 3 3 3 3 3 3 3 3 3 3 3 3 3 3 3 3 3 3 3 3 3 3 3 3 3 3 3 3 3 3 3 3 3 3 3 3 3 3 3 3 3 3 3 3 3 3 3 3 3 3 3 3 3 3 3 3 3 3 3 3 3 3 3 3 3 3 3 3 3 3 3 3 3 3 3 3 3 3 3 3 3 3 3 3 3 3 3 3 3 3 3 3 3 3 3 3 3 3 3 3 3 3 3 3 3 3 3 3 3 3 3 3 3 3 3 3 3 3 3 3 3 3 3 3 3 3 3 3 3 3 3 3 3 3 3 3 3 3 3 3 3 3 3 3 3 3 3 3 3 3 3 3 3 3 3 3 3 3 3 3 3 3 3 3 3 3 3 3 3 3 3 3 3 3 3 3 3 3 3 3 3 3 3 3 3 3 3 3 3 3 3 3 3 3 3 3 3 3 3 3 3 3 3 3 3 3 3 3 3 3 3 3 3 3 3 3 3 3 3 3 3 3 3 3 3 3 3 3 3 3 3 3 3 3 3 3 3 3 3 3 3 3 3 3 3 3 3 3 3 3 3 3 3 3 3 3 3 3 3 3 3 3 3 3 3 3 3 3 3 3 3 3 3 3 3 3 3 3 3 3 3 3 3 3 3 3 3 3 3 3 3 3 3 3 3 3 3 3 3 3 3 3 3 3 3 3 3 3 3 3 3 3 3 3 3 3 3 3 3 3 3 3 3 3 3 3 3 3 3 3 3 3 3 3 3 3 3 3 3 3 3 3 3 3 3 3 3 3 3 3 3 3 3 3 3 3 3 3 3 3 3 3 3 3 3 3 3 3 3 3 3 3 3 3 3 3 3 3 3 3 3 3 3 3 3 3 3 3 3 3 3 3 3 3 3 3 3 3 3 3 3 3 3 3 3 3 3 3 3 3 3 3 3 3 3 3 3 3 3 3 3 3 3 3 3 3 3 3 3 3 3 3 3 3 3 3 3 3 3 3 3 3 3 3 3 3 3 3 3 3 3 3 3 3 3 3 3 3 3 3 3 3 3 3 3 3 3 3 3 3 3 3 3 3 3 3 3 3 3 3 3 3 3 3 3 3 3 3 3 3 3 3 3 3 3 3 3 3 3 3 3 3 3 3 3 3 3 3 3 3 3 3 3 3 3 3 3 3 3 3 3 3 3 3 3 3 3 3 3 3 3 3 3 3 3 3 3 3 3 3 3 3 3 3 3 3 3 3 3 3 3 3 3 3 3 3 3 3 3 3 3 3 3 3 3 3 3 3 3 3 3 3 3 3 3 3 3 3 3 3 3 3 3 3 3 3 3 3 3 3 3 3 3 3 3 3 3 3 3 3 3 3 3 3 3 3 3 3 3 3 3 3 3 3 3 3 3 3 3 3 3 3 3 3 3 3 3 3 3 3 3 3 3 3 3 3 3 3 3 3 3 3 3 3 3 3 3 3 3 3 3 3 3 3 3 3 3 3 3 3 3 3 3 3 3 3 3 3 3 3 3 3 3 3 3 3 3 3 3 3 3 3 3 3 3 3 3 3 3 3 3 3 3 3 3 3 3 3 3 3 3 3 3 3 3 3 3 3 3 3 3 3 3 3 3 3 3 3 3 3 3 3 3 3 3 3 3 3 3 3 3 3 3 3 3 3 3 3 3 3 3 3 3 3 3 3 3 3 3 3 3 3 3 3 3 3 3 3 3 3 3 3 3 3 3 3 3 3 3 3 3 3 3 3 3 3 3 3 3 3 3 3 3 3 3 3 3 3 3 3 3 3 3 3 3 3 3 3 3 3 3 3 3 3 3 3 3 3 3 3 3 3 3 3 3 3 3 3 3 3 3 3 3 3 3 3 3 3 3 3 3 3 3 3 3 3 3 3 3 3 3 3 3 3 3 3 3 3 3 3 3 3 3 3 3 3 3 3 3 3 3 3 3 3 3 3 3 3 3 3 3 3 3 3 3 3 3 3 3 3 3 3 3 3 3 3 3 3 3 3 3 3 3 3 3 3 3 3 3 3 3 3 3 3 3 3 3 3 3 3 3 3 3 3 3 3 3 3 3 3 3 3 3 3 3 3 3 3 3 3 3 3 3 3 3 3 3 3 3 3 3 3 3 3 3 3 3 3 3 3 3 3 3 3 3 3 3 3 3 3 3 3 3 3 3 3 3 3 3 3 3 3 3 3 3 3 3 3 3 3 3 3 3 3 3 3 3 3 3 3 3 3 3 3 3 3 3 3 3 3 3 3 3 3 3 3 3 3 3 3 3 3 3 3 3 3 3 3 3 3 3 3 3 3 3 3 3 3 3 3 3 3 3 3 3 3 3 3 3 3 3 3 3 3 3 3 3 3 3 3 3 3 3 3 3 3 3 3 3 3 3 3 3 3 3 3 3 3 3 3 3 3 3 3 3 3 3 3 3 3 3 3 3 3 3 3 3 3 3 3 3 3 3 3 3 3 3 3 3 3 3 3 3 3 3 3 3 3 3 3 3 3 3 3 3 3 3 3 3 3 3 3 3 3 3 3 3 3 3 1 3 1 3 3 3 3 3 1 3 1 3 3 3 3 3 1 3 1 3 3 3 3 3 3 3 3 3 3 3 3 3 3 3 3 3 3 1 3 1 3 1 1 3 3 3 3 3 3 1 3 3 3 3 3 1 3 1 3 3 3 3 3 1 3 1 3 3 3 3 3 3 1 3 3 3 3 3 3 3 3 3 3 3 3 3 3 3 3 3 3 3 3 3 3 3 3 3 3 3 3 3 3 3 3 3 3 3 3 3 3 3 3 3 3 3 3 3 3 3 3 3 3 3 3 3 3 3 3 3 3 3 3 3 3 3 3 3 3 3 3 3 3 3 3 3 3 3 3 3 3 3 3 3 3 3 3 3 3 3 3 3 3 3 3 3 3 3 3 3 3 3 3 3 3 3 3 3 3 3 3 3 3 3 3 3 3 3 3 3 3 3 3 3 3 3 3 3 3 1 3 1 3 3 3 3 3 3 3 3 3 3 3 3 3 3 3 3 3 3 3 3 3 3 3 3 3 3 3 3 3 3 3 3 3 3 3 3 3 3 3 3 3 3 3 3 3 3 3 3 3 3 3 3 3 3 3 3 3 3 3 3 3 3 3 3 3 3 3 3 3 3 3 3 3 3 3 3 3 3 3 3 3 3 3 3 3 3 3 3 3 3 3 3 3 3 3 3 3 3 3 3 3 3 3 3 3 3 3 3 3 3 3 3 3 3 3 3 3 3 3 3 3 3 3 3 3 3 3 3 3 3 3 3 3 3 3 3 3 3 3 3 3 3 3 3 3 3 3 3 3 3 3 3 3 3 3 3 3 3 3 3 3 3 3 3 3 3 3 3 3 3 3 3 3 3 3 3 3 3 3 3 3 3 3 3 3 3 3 3 3 3 3 3 3 3 3 3 3 3 3 3 3 3 3 3 3 3 3 3 3 3 3 3 3 3 3 3 3 3 3 3 3 3 3 3 3 3 1 3 1 3 3 3 3 3 3 3 3 3 1 3 1 3 3 3 3 3 1 3 1 3 3 3 3 3 1 3 1 3 3 3 3 3 3 3 3 3 3 3 3 3 3 3 3 1 1 3 1 3 3 3 3 3 3 3 1 3 3 3 3 3 1 3 1 3 3 3 3 3 3 3 3 3 3 3 3 3 3 3 3 3 3 3 3 3 3 3 3 3 3 3 3 3 3 3 3 3 3 3 3 3 3 3 3 3 3 3 3 3 3 3 3 3 3 3 3 3 3 3 3 3 3 3 3 3 3 3 3 3 3 3 3 3 3 3 3 3 3 3 3 3 3 3 3 3 3 3 3 3 3 3 3 3 3 3 3 3 3 3 3 3 3 3 3 3 3 3 3 3 3 3 3 3 3 3 3 3 3 3 3 3 3 3 3 3 3 3 3 3 3 3 3 3 3 3 3 3 3 3 3 3 3 3 3 3 3 3 3 3 3 3 3 3 3 3 3 3 3 3 3 3 3 3 3 3 3 3 3 3 3 3 3 3 3 3 3 3 3 1 3 1 3 3 3 3 3 3 3 1 3 3 3 3 3 3 3 3 3 3 3 3 3 3 3 3 3 3 3 3 3 3 3 3 3 3 3 3 3 3 3 3 3 3 3 3 3 3 3 3 3 3 3 3 3 3 3 3 3 3 3 3 3 3 3 3 3 3 3 3 3 3 3 3 3 3 3 3 3 3 3 3 3 3 3 3 3 3 3 3 3 3 3 3 3 3 3 3 3 3 3 3 3 3 3 3 3 3 3 3 3 3 3 3 3 3 1 3 1 3 3 3 3 3 3 3 3 3 1 3 1 3 3 3 3 3 3 3 3 3 3 3 3 3 3 3 3 3 3 3 3 3 3 3 3 3 3 3 3 3 3 3 3 3 3 3 3 3 3 3 3 3 3 3 3 3 3 3 3 3 3 3 3 3 3 3 3 3 3 3 3 3 3 3 3 3 3 3 3 3 3 3 3 3 3 3 3 3 3 3 3 3 3 3 3 3 3 3 3 3 3 3 3 3 3 3 3 3 3 3 3 3 3 3 1 3 1 3 3 3 3 3 1 3 3 3 3 3 3 3 3 3 3 3 3 3 3 3 3 3 3 3 3 3 3 3 3 3 3 3 3 3 3 3 3 3 3 3 3 3 3 3 3 3 3 3 3 3 3 3 3 3 3 3 3 3 3 3 3 3 3 3 3 3 3 3 3 3 3 3 3 3 3 3 3 3 3 3 3 3 3 3 3 3 3 3 3 3 3 3 3 3 3 3 3 3 3 3 3 3 3 3 3 3 3 3 3 3 3 3 3 3 3 3 3 3 3 3 3 3 3 3 3 3 3 3 3 3 3 3 3 3 3 3 3 3 3 3 3 3 3 3 3 3 3 3 3 3 3 3 3 3 3 3 3 3 3 3 3 3 3 3 3 3 3 3 3 3 3 3 3 3 3 3 3 3 3 3 3 3 3 3 3 3 3 3 3 3 3 3 3 3 3 3 3 3 3 3 3 3 3 3 3 3 3 3 3 3 3 3 3 3 3 3 3 3 3 3 3 3 3 3 3 3 3 3 3 3 3 3 3 3 3 3 3 3 3 3 3 3 3 3 3 3 3 3 3 3 3 3 3 3 3 3 3 3 3 3 3 3 3 3 3 3 3 3 3 3 3 3 3 3 3 3 3 3 3 3 3 3 3 3 3 3 3 3 3 3 3 3 3 3 3 3 3 3 3 3 3 3 3 3 3 3 3 3 3 3 3 3 3 3 3 3 3 3 3 3 3 3 3 3 3 3 3 3 3 3 3 3 3 3 3 3 3 3 3 3 3 3 3 3 3 3 3 3 3 3 3 3 3 3 3 3 3 3 3 3 3 3 3 3 3 3 3 3 3 3 3 3 3 3 3 3 3 3 3 3 3 3 3 3 3 3 3 3 3 3 3 3 3 3 3 3 3 3 3 3 3 3 3 3 3 3 1 1 3 1 3 3 3 3 1 3 3 3 3 3 3 3 3 3 3 3 3 1 3 1 3 1 3 3 3 3 3 3 1 3 3 3 3 3 1 3 1 3 3 3 3 3 1 3 1 3 3 3 3 3 3 3 3 3 3 3 3 3 3 3 3 3 3 3 3 3 3 3 3 3 3 3 3 3 3 3 3 3 3 3 3 3 3 3 3 3 3 3 3 3 3 3 3 3 3 3 3 3 3 3 3 3 3 3 3 3 3 3 3 3 3 3 3 3 3 3 3 3 3 3 3 3 3 3 3 3 3 3 3 3 3 3 3 3 3 3 3 3 3 3 3 3 3 3 3 3 3 3 3 3 3 3 3 3 3 3 3 3 3 3 3 3 3 3 3 3 3 3 3 3 3 3 3 3 3 3 3 3 3 3 3 3 3 3 3 3 3 3 3 3 3 3 3 3 3 3 3 3 3 3 3 3 3 3 3 3 3 3 3 3 3 3 3 3 3 3 3 3 3 3 3 3 3 3 3 3 3 3 3 3 3 3 3 3 3 3 3 3 3 3 3 3 3 3 3 3 3 3 3 3 3 3 3 3 3 3 3 3 3 3 3 3 3 3 3 3 3 3 3 3 3 3 3 3 3 3 3 3 3 3 3 1 3 1 3 1 3 3 3 3 3 3 1 3 3 3 3 3 1 3 1 3 3 3 3 3 1 3 1 3 3 3 3 3 3 3 3 3 3 3 3 3 3 3 3 3 3 3 3 3 3 3 3 3 3 3 3 3 3 3 3 3 3 3 3 3 3 3 3 3 3 3 3 3 3 3 3 3 3 3 3 3 3 3 3 3 3 3 3 3 3 3 3 3 3 3 3 3 3 3 3 3 3 3 3 3 3 3 3 3 3 3 3 3 3 3 3 3 3 3 3 3 3 3 3 3 3 3 3 3 3 3 3 3 3 3 3 3 3 3 3 3 3 3 3 3 3 3 3 3 3 3 3 3 3 3 3 3 3 3 3 3 3 3 3 3 3 3 3 3 3 3 3 3 3 3 3 3 3 3 3 3 3 3 3 3 3 3 3 3 3 3 3 3 3 3 3 3 3 3 3 3 3 3 3 3 3 3 3 3 3 3 3 3 3 3 3 3 3 3 3 3 3 3 3 3 3 3 3 3 3 3 3 3 3 3 3 3 3 3 3 3 3 3 3 3 3 3 3 3 3 3 3 3 3 3 3 3 3 3 3 3 3 3 3 3 3 3 3 3 3 3 3 3 3 3 3 3 3 3 3 3 3 3 3 3 3 3 3 3 3 3 3 3 3 3 3 3 3 3 3 3 3 3 3 3 3 3 3 3 3 3 3 3 3 3 3 3 3 3 3 3 3 3 3 3 3 3 3 3 3 3 3 3 3 3 3 3 3 3 1 3 3 3 3 1 3 3 3 3 3 3 3 3 3 3 3 3 1 1 3 3 3 3 3 3 3 1 3 3 3 3 3 1 3 3 3 3 3 3 3 3 3 3 3 3 3 3 3 3 3 3 3 3 3 3 3 3 3 3 3 3 3 3 3 3 3 3 3 3 3 3 3 3 3 3 3 3 3 3 3 3 3 3 3 3 3 3 3 3 3 3 3 3 3 3 3 3 3 3 3 3 3 3 3 3 3 3 3 3 3 3 3 3 3 3 3 3 3 3 3 3 3 3 3 3 3 3 3 3 3 3 3 3 3 3 3 3 3 3 3 3 3 3 3 3 3 3 3 3 3 3 3 3 3 3 3 3 3 3 3 3 3 3 3 3 3 3 3 3 3 3 3 3 3 3 3 3 3 3 3 3 3 3 3 3 3 3 3 3 3 3 3 3 3 3 3 3 3 3 3 3 3 3 3 3 3 3 3 3 3 3 3 3 3 3 3 3 3 3 3 3 3 3 3 3 3 3 3 3 3 3 3 3 3 3 3 3 3 3 3 3 3 3 3 3 3 3 3 3 3 3 3 3 3 3 3 3 3 3 3 3 3 3 3 3 3 3 3 3 3 3 3 3 3 3 3 3 3 3 3 3 3 3 3 3 3 3 3 3 3 3 3 3 3 3 3 3 3 3 3 3 3 3 3 3 3 3 3 3 3 3 3 3 3 3 3 3 3 3 3 3 3 3 3 3 3 3 3 3 3 3 3 3 3 3 3 3 3 3 3 3 3 3 3 3 3 3 3 3 3 3 3 3 3 3 3 3 3 3 3 3 3 3 3 3 3 3 3 3 3 3 3 3 3 3 3 3 3 3 3 3 3 3 3 3 3 3 3 3 3 3 3 3 3 3 3 3 3 3 3 3 3 3 3 3 3 3 3 3 3 3 3 3 3 3 3 3 3 3 3 3 3 3 3 3 3 3 3 3 3 3 3 3 3 3 3 3 3 3 3 3 3 3 3 3 3 3 3 3 3 3 3 3 3 3 3 3 3 3 3 3 3 3 3 3 3 3 3 3 3 3 3 3 3 3 3 3 3 3 3 3 3 3 3 3 3 1 1 3 3 3 3 3 3 3 1 3 3 3 3 3 1 3 1 3 3 3 3 3 1 3 3 3 3 3 3 3 3 3 3 3 3 3 3 3 3 3 3 3 3 3 3 3 3 3 3 3 3 3 3 3 3 3 3 3 3 3 3 3 3 3 3 3 3 3 3 3 3 3 3 3 3 3 3 3 3 3 3 3 3 3 3 3 3 3 3 3 3 3 3 3 3 3 3 3 3 3 3 3 3 3 3 3 3 3 3 3 3 3 3 3 3 3 3 3 3 3 3 3 3 3 3 3 3 3 3 3 3 3 3 3 3 3 3 3 3 3 3 3 3 3 3 3 3 3 3 3 3 3 3 3 3 3 3 3 3 3 3 3 3 3 3 3 3 3 3 3 3 3 3 3 3 3 3 3 3 3 3 3 3 3 3 3 3 3 3 3 3 3 3 3 3 3 3 3 3 3 3 3 3 3 3 3 3 3 3 3 3 3 3 3 3 3 3 3 3 3 3 3 3 3 3 3 3 3 3 3 3 3 3 3 3 3 3 3 3 3 3 3 3 3 3 3 3 3 3 3 3 3 3 3 3 3 3 3 3 3 3 3 3 3 3 3 3 3 3 3 3 3 3 3 3 3 3 3 3 3 3 3 3 3 3 3 3 3 3 3 3 3 3 3 3 3 3 3 3 3 3 3 3 3 3 3 3 3 3 3 3 3 3 3 3 3 3 3 3 3 3 3 3 3 3 3 3 3 3 3 3 3 3 3 3 3 3 3 3 3 3 3 3 3 3 3 3 3 3 3 3 3 3 3 3 3 3 3 3 3 3 3 3 3 3 3 3 3 3 3 3 3 3 3 3 3 3 3 3 3 3 3 3 3 3 3 3 3 3 3 3 3 3 3 3 3 3 3 3 3 3 3 3 3 3 3 3 3 3 3 3 3 3 3 3 3 3 3 3 3 3 3 3 3 3 3 3 3 3 3 3 3 3 3 3 3 3 3 3 3 3 3 3 3 3 3 3 3 3 3 3 3 3 3 3 3 3 3 3 3 3 3 3 3 3 3 3 3 3 3 3 3 3 3 3 3 3 3 3 3 3 3 3 3 3 3 3 3 3 3 3 3 3 3 3 3 3 3 3 3 3 3 3 3 3 3 3 3 3 3 3 3 3 3 3 3 3 3 3 3 3 3 3 3 3 3 3 3 3 3 3 3 3 3 3 3 3 3 3 3 3 3 3 3 3 3 3 3 3 3 3 3 3 3 3 3 3 3 3 3 3 3 3 3 3 3 3 3 3 3 3 3 3 3 3 3 3 3 3 3 3 3 3 3 3 3 3 3 3 3 3 3 3 3 3 3 3 3 3 3 3 3 3 3 3 3 3 3 3 3 3 3 3 3 3 3 3 3 3 3 3 3 3 3 3 3 3 3 3 3 3 3 3 3 3 3 3 3 3 3 3 3 3 3 3 3 3 3 3 3 3 3 3 3 3 3 3 3 3 3 3 3 3 3 3 3 3 3 3 3 3 3 3 3 3 3 3 3 3 3 3 3 3 3 3 3 3 3 3 3 3 3 3 3 3 3 3 3 3 3 3 3 3 3 3 3 3 3 3 3 3 3 3 3 3 3 3 3 3 3 3 3 3 3 3 3 3 3 3 3 3 3 3 3 3 3 3 3 3 3 3 3 3 3 3 3 3 3 3 3 3 3 3 3 3 3 3 3 3 3 3 3 3 3 3 3 3 3 3 3 3 3 3 3 3 3 3 3 3 3 3 3 3 3 3 3 3 3 3 3 3 3 3 3 3 3 3 3 3 3 3 3 3 3 3 3 3 3 3 3 3 3 3 3 3 3 3 3 3 3 3 3 3 3 3 3 3 3 3 3 3 3 3 3 3 3 3 3 3 3 3 3 3 3 3 3 3 3 3 3 3 3 3 3 3 3 3 3 3 3 3 3 3 3 3 3 3 3 3 3 3 3 3 3 3 3 3 3 3 3 3 3 3 3 3 3 3 3 3 3 3 3 3 3 3 3 3 3 3 3 3 </DataArray>
</CellData>
</Piece>
</UnstructuredGrid>
</VTKFile>