<?xml version="1.0"?>
<VTKFile type="UnstructuredGrid"  version="0.1"  >
<UnstructuredGrid>
<Piece  NumberOfPoints="609" NumberOfCells="5304">
<Points>
<DataArray  type="Float64"  NumberOfComponents="3"  format="ascii">0 0 30  2.5 2.5 32.5  2.5 0 32.5  2.5 0 30  5 0 30  5 2.5 32.5  5 0 32.5  5 0 35  5 2.5 35  5 5 35  0 0 32.5  0 0 35  2.5 2.5 35  2.5 0 35  0 2.5 32.5  0 2.5 35  0 5 35  2.5 5 35  0 2.5 30  0 5 30  2.5 5 32.5  0 5 32.5  7.5 2.5 32.5  7.5 0 32.5  7.5 0 30  10 0 30  10 2.5 32.5  10 0 32.5  10 0 35  10 2.5 35  10 5 35  7.5 2.5 35  7.5 0 35  7.5 5 35  12.5 2.5 32.5  12.5 0 32.5  12.5 0 30  15 0 30  15 2.5 32.5  15 0 32.5  15 0 35  15 2.5 35  15 5 35  12.5 2.5 35  12.5 0 35  12.5 5 35  17.5 2.5 32.5  17.5 0 32.5  17.5 0 30  20 0 30  20 2.5 32.5  20 0 32.5  20 0 35  20 2.5 35  20 5 35  17.5 2.5 35  17.5 0 35  17.5 5 35  22.5 2.5 32.5  22.5 2.5 35  22.5 5 35  25 5 35  2.5 7.5 32.5  2.5 7.5 35  5 7.5 35  5 10 35  0 7.5 32.5  0 7.5 35  0 10 35  2.5 10 35  2.5 2.5 37.5  5 2.5 37.5  5 5 37.5  5 5 40  2.5 0 37.5  5 0 37.5  5 0 40  5 2.5 40  0 0 37.5  0 0 40  2.5 2.5 40  2.5 0 40  2.5 5 37.5  0 2.5 37.5  0 2.5 40  0 5 40  2.5 5 40  0 5 37.5  7.5 2.5 37.5  10 2.5 37.5  10 5 37.5  10 5 40  7.5 0 37.5  10 0 37.5  10 0 40  10 2.5 40  7.5 2.5 40  7.5 0 40  7.5 5 37.5  7.5 5 40  12.5 2.5 37.5  15 2.5 37.5  15 5 37.5  15 5 40  12.5 0 37.5  15 0 37.5  15 0 40  15 2.5 40  12.5 2.5 40  12.5 0 40  12.5 5 37.5  12.5 5 40  17.5 2.5 37.5  20 2.5 37.5  20 5 37.5  20 5 40  17.5 0 37.5  20 0 37.5  20 0 40  20 2.5 40  17.5 2.5 40  17.5 0 40  17.5 5 37.5  17.5 5 40  22.5 2.5 37.5  22.5 5 37.5  25 5 37.5  25 5 40  22.5 2.5 40  22.5 5 40  2.5 7.5 37.5  5 7.5 37.5  5 10 37.5  5 10 40  5 7.5 40  2.5 7.5 40  2.5 10 37.5  0 7.5 37.5  0 7.5 40  0 10 40  2.5 10 40  0 10 37.5  7.5 7.5 37.5  7.5 7.5 35  10 7.5 37.5  10 7.5 35  10 10 35  10 10 37.5  10 10 40  10 7.5 40  7.5 7.5 40  7.5 10 37.5  7.5 10 35  7.5 10 40  12.5 7.5 37.5  12.5 7.5 35  15 7.5 37.5  15 7.5 35  15 10 35  15 10 37.5  15 10 40  15 7.5 40  12.5 7.5 40  12.5 10 37.5  12.5 10 35  12.5 10 40  17.5 7.5 37.5  17.5 7.5 35  20 7.5 37.5  20 7.5 35  20 10 35  20 10 37.5  20 10 40  20 7.5 40  17.5 7.5 40  17.5 10 37.5  17.5 10 35  17.5 10 40  22.5 7.5 37.5  22.5 7.5 35  25 7.5 37.5  25 7.5 35  25 10 35  25 10 37.5  25 10 40  25 7.5 40  22.5 7.5 40  22.5 10 37.5  22.5 10 35  22.5 10 40  2.5 12.5 37.5  5 12.5 37.5  5 12.5 40  5 15 40  2.5 12.5 40  0 12.5 37.5  7.5 12.5 37.5  10 12.5 37.5  10 12.5 40  10 15 40  7.5 12.5 40  7.5 15 40  12.5 12.5 37.5  15 12.5 37.5  15 12.5 40  15 15 40  12.5 12.5 40  12.5 15 40  17.5 12.5 37.5  20 12.5 37.5  20 12.5 40  17.5 12.5 40  22.5 12.5 37.5  25 12.5 37.5  25 12.5 40  25 15 40  22.5 12.5 40  2.5 2.5 42.5  5 2.5 42.5  5 5 42.5  5 5 45  2.5 0 42.5  5 0 42.5  5 0 45  5 2.5 45  0 0 42.5  0 0 45  2.5 2.5 45  2.5 0 45  2.5 5 42.5  0 2.5 42.5  0 2.5 45  0 5 45  2.5 5 45  0 5 42.5  7.5 2.5 42.5  10 2.5 42.5  10 5 42.5  10 5 45  7.5 0 42.5  10 0 42.5  10 0 45  10 2.5 45  7.5 2.5 45  7.5 0 45  7.5 5 42.5  7.5 5 45  12.5 2.5 42.5  15 2.5 42.5  15 5 42.5  15 5 45  12.5 0 42.5  15 0 42.5  15 0 45  15 2.5 45  12.5 2.5 45  12.5 0 45  12.5 5 42.5  12.5 5 45  17.5 2.5 42.5  20 2.5 42.5  20 5 42.5  20 5 45  17.5 0 42.5  20 0 42.5  20 0 45  20 2.5 45  17.5 2.5 45  17.5 0 45  17.5 5 42.5  17.5 5 45  22.5 2.5 42.5  22.5 0 42.5  22.5 2.5 45  22.5 0 45  25 0 45  25 2.5 45  25 5 45  22.5 5 42.5  25 5 42.5  22.5 5 45  2.5 7.5 42.5  5 7.5 42.5  5 10 42.5  5 10 45  5 7.5 45  2.5 7.5 45  2.5 10 42.5  0 7.5 42.5  0 7.5 45  0 10 45  2.5 10 45  0 10 42.5  7.5 7.5 42.5  10 7.5 42.5  10 10 42.5  10 10 45  10 7.5 45  7.5 7.5 45  7.5 10 42.5  7.5 10 45  12.5 7.5 42.5  15 7.5 42.5  15 10 42.5  15 10 45  15 7.5 45  12.5 7.5 45  12.5 10 42.5  12.5 10 45  17.5 7.5 42.5  20 7.5 42.5  20 10 42.5  20 10 45  20 7.5 45  17.5 7.5 45  17.5 10 42.5  17.5 10 45  22.5 7.5 42.5  25 7.5 42.5  25 10 42.5  25 10 45  25 7.5 45  22.5 7.5 45  22.5 10 42.5  22.5 10 45  2.5 12.5 42.5  5 12.5 42.5  5 12.5 45  2.5 12.5 45  0 12.5 42.5  7.5 12.5 42.5  10 12.5 42.5  7.5 12.5 45  12.5 12.5 42.5  17.5 12.5 42.5  20 12.5 42.5  22.5 12.5 42.5  25 12.5 42.5  2.5 2.5 47.5  5 2.5 47.5  5 5 47.5  5 5 50  2.5 0 47.5  5 0 47.5  5 0 50  5 2.5 50  0 0 47.5  0 0 50  2.5 2.5 50  2.5 0 50  2.5 5 47.5  0 2.5 47.5  0 2.5 50  0 5 50  2.5 5 50  0 5 47.5  7.5 2.5 47.5  10 2.5 47.5  10 5 47.5  10 5 50  7.5 0 47.5  10 0 47.5  10 0 50  10 2.5 50  7.5 2.5 50  7.5 0 50  7.5 5 47.5  7.5 5 50  12.5 2.5 47.5  15 2.5 47.5  15 5 47.5  15 5 50  12.5 0 47.5  15 0 47.5  15 0 50  15 2.5 50  12.5 2.5 50  12.5 0 50  12.5 5 47.5  12.5 5 50  17.5 2.5 47.5  20 2.5 47.5  20 5 47.5  20 5 50  17.5 0 47.5  20 0 47.5  20 0 50  20 2.5 50  17.5 2.5 50  17.5 0 50  17.5 5 47.5  17.5 5 50  22.5 2.5 47.5  25 2.5 47.5  25 5 47.5  25 5 50  22.5 0 47.5  25 0 47.5  25 0 50  25 2.5 50  22.5 2.5 50  22.5 0 50  22.5 5 47.5  22.5 5 50  2.5 7.5 47.5  5 7.5 47.5  5 10 47.5  5 10 50  5 7.5 50  2.5 7.5 50  2.5 10 47.5  0 7.5 47.5  0 7.5 50  0 10 50  2.5 10 50  0 10 47.5  7.5 7.5 47.5  10 7.5 47.5  10 10 47.5  10 10 50  10 7.5 50  7.5 7.5 50  7.5 10 47.5  7.5 10 50  12.5 7.5 47.5  15 7.5 47.5  15 10 47.5  15 10 50  15 7.5 50  12.5 7.5 50  12.5 10 47.5  12.5 10 50  17.5 7.5 47.5  20 7.5 47.5  20 10 47.5  20 10 50  20 7.5 50  17.5 7.5 50  17.5 10 47.5  17.5 10 50  22.5 7.5 47.5  25 7.5 47.5  25 7.5 50  22.5 7.5 50  2.5 12.5 47.5  5 12.5 47.5  7.5 12.5 47.5  10 12.5 47.5  12.5 12.5 47.5  5 12.5 35  5 15 35  5 15 37.5  7.5 12.5 35  10 12.5 35  10 15 35  10 15 37.5  7.5 15 37.5  7.5 15 35  12.5 12.5 35  15 12.5 35  15 15 35  15 15 37.5  12.5 15 37.5  12.5 15 35  17.5 12.5 35  20 12.5 35  20 15 35  20 15 37.5  17.5 15 37.5  17.5 15 35  22.5 15 37.5  7.5 17.5 37.5  7.5 17.5 35  10 17.5 37.5  10 17.5 35  10 20 35  12.5 17.5 37.5  12.5 17.5 35  15 17.5 37.5  15 17.5 35  15 20 35  12.5 20 35  17.5 17.5 37.5  17.5 17.5 35  20 17.5 37.5  22.5 17.5 37.5  22.5 15 35  25 15 35  25 17.5 37.5  25 15 37.5  22.5 2.5 30  20 2.5 30  22.5 2.5 27.5  20 5 30  22.5 5 30  25 5 30  22.5 5 27.5  22.5 7.5 30  22.5 7.5 27.5  25 7.5 30  25 10 30  20 7.5 30  20 10 30  22.5 10 30  5 5 32.5  7.5 5 32.5  15 5 32.5  12.5 5 32.5  20 5 32.5  17.5 5 32.5  22.5 5 32.5  25 5 32.5  5 7.5 32.5  0 7.5 30  0 10 30  0 10 32.5  10 10 32.5  10 7.5 32.5  7.5 7.5 32.5  7.5 10 32.5  15 10 32.5  15 7.5 32.5  12.5 7.5 32.5  12.5 10 32.5  20 7.5 32.5  17.5 7.5 32.5  20 10 32.5  17.5 10 32.5  22.5 7.5 32.5  25 7.5 32.5  25 10 32.5  22.5 10 32.5  10 15 32.5  10 12.5 32.5  7.5 12.5 32.5  7.5 15 32.5  15 15 30  15 15 32.5  15 12.5 32.5  12.5 12.5 32.5  12.5 15 32.5  20 12.5 32.5  17.5 12.5 32.5  17.5 15 32.5  22.5 12.5 32.5  25 12.5 32.5  25 12.5 35  22.5 12.5 35  10 17.5 32.5  7.5 17.5 32.5  15 17.5 32.5  12.5 17.5 32.5  17.5 17.5 32.5  22.5 0 30  22.5 0 27.5  25 0 30  25 2.5 30  27.5 7.5 30  27.5 7.5 27.5  27.5 10 30  25 2.5 32.5  22.5 0 32.5  25 0 32.5  25 0 35  25 2.5 35  22.5 0 35  27.5 2.5 32.5  27.5 5 32.5  27.5 7.5 32.5  27.5 10 32.5  27.5 7.5 35  27.5 10 35  27.5 12.5 32.5  27.5 12.5 35  27.5 15 35  25 2.5 37.5  22.5 0 37.5  25 0 37.5  25 0 40  25 2.5 40  22.5 0 40  27.5 2.5 37.5  27.5 5 37.5  27.5 7.5 37.5  27.5 10 37.5  27.5 7.5 40  27.5 10 40  27.5 12.5 37.5  27.5 12.5 40  27.5 15 37.5  27.5 15 40  27.5 17.5 37.5  25 2.5 42.5  25 0 42.5  27.5 2.5 42.5  27.5 2.5 45  27.5 7.5 42.5  27.5 10 42.5  27.5 7.5 45  27.5 10 45  27.5 12.5 42.5  27.5 2.5 47.5  27.5 0 47.5  27.5 2.5 50  27.5 0 50  27.5 5 50  27.5 5 47.5  27.5 7.5 47.5  27.5 7.5 50  </DataArray>
</Points>
<Cells>
[...]
<CellData  Scalars="f">
<DataArray  type="Float64"  Name="f"  format="ascii">3 3 3 3 3 3 3 1 1 3 3 3 3 3 3 3 3 3 3 3 3 3 3 3 3 3 3 3 3 3 3 3 3 3 3 3 3 3 3 3 3 3 3 3 3 3 3 3 3 3 3 3 3 3 3 3 3 3 3 3 3 3 3 3 3 3 3 3 3 3 3 3 3 3 3 3 3 3 3 3 3 3 3 3 3 3 3 3 3 3 3 3 3 3 3 3 3 3 3 3 3 3 3 3 3 3 3 3 3 3 3 3 3 3 3 3 3 3 3 3 3 3 3 3 3 3 3 3 3 3 3 3 3 3 3 3 3 3 3 3 3 3 3 3 3 3 3 3 3 3 3 3 3 3 3 3 3 3 3 3 3 3 3 3 3 3 3 3 3 3 3 3 3 3 3 3 3 3 3 1 3 3 3 3 3 1 3 1 3 3 3 3 1 3 3 3 3 3 3 3 1 1 1 1 3 1 3 3 3 3 3 3 3 3 3 3 1 3 3 3 3 3 1 3 1 3 3 3 3 3 1 3 1 3 3 3 3 3 3 3 3 3 1 3 3 1 3 3 3 3 3 3 3 3 3 3 3 3 3 3 3 3 3 3 3 3 3 3 3 3 3 3 3 3 3 3 3 3 3 3 3 3 3 3 3 3 3 3 3 3 3 3 3 3 3 3 3 3 3 3 3 3 3 3 3 3 3 3 3 3 3 3 3 3 3 3 3 3 3 3 3 3 3 3 3 3 3 3 3 3 3 3 3 3 3 3 3 3 3 3 3 3 3 3 3 3 3 3 3 3 3 3 3 3 3 3 3 3 3 3 3 3 3 3 3 3 3 3 3 3 3 3 3 3 3 3 3 3 3 3 3 3 3 3 3 3 3 3 3 3 3 3 3 3 3 3 3 3 3 3 3 3 3 3 3 3 3 3 3 3 3 3 3 3 3 3 3 3 3 3 3 3 3 3 3 3 3 3 3 3 3 3 3 3 3 3 3 3 3 3 3 3 3 3 3 3 3 3 3 3 3 3 3 3 3 3 3 3 3 3 3 3 3 3 3 3 3 3 3 3 3 3 3 3 3 3 3 3 3 3 3 3 3 3 3 3 3 3 3 3 3 3 3 3 3 3 3 3 3 3 3 3 3 3 3 3 3 3 3 3 3 3 3 3 3 3 3 3 3 3 3 3 3 3 3 3 3 3 3 3 3 3 3 3 3 3 3 3 3 3 3 3 3 3 3 3 3 3 3 3 3 3 3 3 3 3 3 3 3 3 3 3 3 3 3 3 3 3 3 3 3 3 3 3 3 3 3 3 3 3 3 3 3 3 3 3 3 3 3 3 3 3 3 3 3 3 3 3 3 3 3 3 3 3 3 3 3 3 3 3 3 3 3 3 3 3 3 3 3 3 3 3 3 3 3 3 3 3 3 3 3 3 3 3 3 3 3 3 3 3 3 3 3 3 3 3 3 3 3 3 3 3 3 3 3 3 3 3 3 3 3 3 3 3 3 3 3 3 3 3 3 3 3 3 3 3 3 3 3 3 3 3 3 3 3 3 3 3 3 3 3 3 3 3 3 3 3 3 3 3 3 3 3 3 3 3 3 3 3 3 3 3 3 3 3 3 3 3 3 3 3 3 3 3 3 3 3 3 3 3 3 3 3 3 3 3 3 3 3 3 3 3 3 3 3 3 3 3 3 3 3 3 3 3 3 3 3 3 3 3 3 3 3 3 3 3 3 3 3 3 3 3 3 3 3 3 3 3 3 3 3 3 3 3 3 3 3 3 3 3 3 3 3 3 3 3 3 3 3 3 3 3 3 3 3 3 3 3 3 3 3 3 3 3 3 3 3 3 3 3 3 3 3 3 3 3 3 3 3 3 3 3 3 3 3 3 3 3 3 3 3 3 3 3 3 3 3 3 3 3 3 3 3 3 3 3 3 3 3 3 3 3 3 3 3 3 3 3 3 3 3 3 3 3 3 3 3 3 3 3 3 3 3 3 3 3 3 3 3 3 3 3 3 3 3 3 3 3 3 3 3 3 3 3 3 3 3 3 3 3 3 1 1 1 1 3 1 3 3 3 3 3 3 3 3 3 1 3 1 3 3 3 3 3 3 3 3 3 3 3 3 3 3 3 3 3 3 3 3 3 3 3 3 3 3 3 3 3 3 3 3 3 3 3 3 3 3 3 3 3 3 3 3 3 3 3 3 3 3 3 3 3 3 3 3 3 3 3 3 3 3 3 3 3 3 3 3 3 3 3 3 3 3 3 3 3 3 3 3 3 3 3 3 3 3 3 3 3 3 3 3 3 3 3 3 3 3 3 3 3 3 3 3 3 3 3 3 3 3 3 3 3 3 3 3 3 3 3 3 3 3 3 3 3 3 3 3 3 3 3 3 3 3 3 3 3 3 3 3 3 3 3 3 3 3 3 3 3 3 3 3 3 3 3 3 3 3 3 1 3 3 3 3 3 1 3 1 3 3 3 3 1 3 3 3 3 3 3 3 3 3 3 3 3 1 1 3 1 3 3 3 3 3 3 3 1 3 3 3 3 3 1 3 1 3 3 3 3 3 1 3 1 3 3 3 3 3 3 3 3 3 3 3 3 3 3 3 3 3 3 3 3 3 3 3 3 3 3 3 3 3 3 3 3 3 3 3 3 3 3 3 3 3 3 3 3 3 3 3 3 3 3 3 3 3 3 3 3 3 3 3 3 3 3 3 3 3 3 3 3 3 3 3 3 3 3 3 3 3 3 3 3 3 3 3 3 3 3 3 3 3 3 3 3 3 3 3 3 3 3 3 3 3 3 3 3 3 3 3 3 3 3 3 3 3 3 3 3 3 3 3 3 3 3 3 3 3 3 3 3 3 3 3 3 3 3 3 3 3 3 3 3 3 3 3 3 3 3 3 3 3 3 3 3 3 3 3 3 3 3 3 3 3 3 3 3 3 3 3 3 3 3 3 3 3 3 3 3 3 3 3 3 3 3 3 3 3 3 3 3 3 3 3 3 3 3 3 3 3 3 3 3 3 3 3 3 3 3 3 3 3 3 3 3 3 3 3 3 3 3 3 3 3 3 3 3 3 3 3 3 3 3 3 3 3 3 3 3 3 3 3 3 3 3 3 3 3 3 3 3 3 3 3 3 3 3 3 3 3 3 3 3 3 3 3 3 3 3 3 3 3 3 3 3 3 3 3 3 3 3 3 3 3 3 3 3 3 3 3 3 3 3 3 3 3 3 3 3 3 3 3 3 3 3 3 3 3 3 3 3 3 3 3 3 3 3 3 3 3 3 3 3 3 3 3 3 3 3 3 3 3 3 3 3 3 3 3 3 3 3 3 3 3 3 3 3 3 3 3 3 3 3 3 3 3 3 3 3 3 3 3 3 3 3 3 3 3 3 3 3 3 3 3 3 3 3 3 3 3 3 3 3 3 3 3 3 3 3 3 3 3 3 3 3 3 3 3 3 3 3 3 3 3 3 3 3 3 3 3 3 3 3 3 3 3 3 3 3 3 3 3 3 3 3 3 3 3 3 3 3 3 3 3 3 3 3 3 3 3 3 3 3 3 3 3 3 3 3 3 3 3 3 3 3 3 3 3 3 3 3 3 3 3 3 3 3 3 3 3 3 3 3 3 3 3 3 3 3 3 3 3 3 3 3 3 3 3 3 3 3 3 3 3 3 3 3 3 3 3 3 3 3 3 3 3 3 3 3 3 3 3 3 3 3 3 3 3 3 3 3 3 3 3 3 3 3 3 3 3 3 3 3 3 3 3 3 3 3 3 3 3 3 3 3 3 3 3 3 3 3 3 3 3 3 3 3 3 3 3 3 3 3 3 3 3 3 3 3 3 3 3 3 3 3 3 3 3 3 3 3 3 3 3 3 3 3 3 3 3 3 3 3 3 3 3 3 3 3 3 3 3 3 3 3 3 3 3 3 3 3 3 3 3 3 3 3 3 3 3 3 3 3 3 3 3 3 3 3 3 3 3 3 3 3 3 3 3 3 3 3 3 3 3 3 3 3 3 3 1 1 3 1 3 3 3 3 3 3 3 1 3 3 3 3 3 3 3 3 1 3 1 3 3 3 3 3 3 3 3 3 3 3 3 3 3 3 3 3 3 3 3 3 3 3 3 3 3 3 3 3 3 3 3 3 3 3 3 3 3 3 3 3 3 3 3 3 3 3 3 3 3 3 3 3 3 3 3 3 3 3 3 3 3 3 3 3 3 3 3 3 3 3 3 3 3 3 3 3 3 3 3 3 3 3 3 3 3 3 3 3 3 3 3 3 3 3 3 3 3 3 3 3 3 3 3 3 3 3 3 3 3 3 3 3 3 3 3 3 3 3 3 3 3 3 3 3 3 3 3 3 3 3 3 3 3 3 3 3 3 3 3 3 3 3 3 3 3 3 3 3 3 3 3 3 3 3 3 3 3 3 3 3 3 3 3 3 3 3 3 3 3 3 3 3 3 3 3 3 3 3 3 3 3 3 3 3 3 3 3 3 3 3 3 3 3 3 3 3 3 3 3 3 3 3 3 3 3 3 3 3 3 3 3 3 3 3 3 3 3 3 3 3 3 3 3 3 3 3 3 3 3 3 3 3 3 3 3 3 3 3 3 3 3 3 3 3 3 3 3 3 3 3 3 3 3 3 3 3 3 3 3 3 3 3 3 3 3 3 3 3 3 3 3 3 3 3 3 3 3 3 3 3 3 3 3 3 3 3 3 3 3 3 3 3 3 3 3 3 3 3 3 3 3 3 3 3 3 3 3 3 3 3 3 3 3 3 3 3 3 3 3 3 3 3 3 3 3 3 3 3 3 3 3 3 3 3 3 3 3 3 3 3 3 3 3 3 3 3 3 3 3 3 3 3 3 3 3 3 3 3 3 3 3 3 3 3 3 3 3 3 3 3 3 3 3 3 3 3 3 3 3 3 3 3 3 3 3 3 3 3 3 3 3 3 3 3 3 3 3 3 3 3 3 3 3 3 3 3 3 3 3 3 3 3 3 3 3 3 3 3 3 3 3 3 3 3 3 3 3 3 3 3 3 3 3 3 3 3 3 3 3 3 3 3 3 3 3 3 3 3 3 3 3 3 3 3 3 3 3 3 3 3 3 3 3 3 3 3 3 3 3 3 3 3 3 3 3 3 3 3 3 3 3 3 3 3 3 3 3 3 3 3 3 3 3 3 3 3 3 3 3 3 3 3 3 3 3 3 3 3 3 3 3 3 3 3 3 3 3 3 3 3 3 3 3 3 3 3 3 3 3 3 3 3 3 3 3 3 3 3 3 3 3 3 3 3 3 3 3 3 3 3 3 3 3 3 3 3 3 3 3 3 3 3 3 3 3 3 3 3 3 3 3 3 3 3 3 3 3 3 3 3 3 3 3 3 3 3 3 3 3 3 3 3 3 3 3 3 3 3 3 3 3 3 3 3 3 3 3 3 3 3 3 3 3 3 3 3 3 3 3 3 3 3 3 3 3 3 3 3 3 3 3 3 3 3 3 3 3 3 3 3 3 3 3 3 3 3 3 3 3 3 3 3 3 3 3 3 3 3 3 3 3 3 3 3 3 3 3 3 3 3 3 3 3 3 3 3 3 3 3 3 3 3 3 3 3 3 3 3 3 3 3 3 3 3 3 3 3 3 3 3 3 3 3 3 3 3 3 3 3 3 3 3 3 3 3 3 3 3 3 3 3 3 3 3 3 3 3 3 3 3 3 3 3 3 3 3 3 3 3 3 3 3 3 3 3 3 3 3 3 3 3 3 3 3 3 3 3 3 3 3 3 3 3 3 3 3 3 3 3 3 3 3 3 3 3 3 3 3 3 3 3 3 3 3 3 3 3 3 3 3 3 3 3 3 3 3 3 3 3 3 3 3 3 3 3 3 3 3 3 3 3 3 3 3 3 3 3 3 3 3 3 3 3 3 3 3 3 3 3 3 3 3 3 3 3 3 3 3 3 3 3 3 3 3 3 3 3 3 3 3 3 3 3 3 3 3 3 3 3 3 3 3 3 3 3 3 3 3 3 3 3 3 3 3 3 3 3 3 3 3 3 3 3 3 3 3 3 3 3 3 3 3 3 3 3 3 3 3 3 3 3 3 3 3 3 3 3 3 3 3 3 3 3 3 3 3 3 3 3 3 3 3 3 3 3 3 3 3 3 3 3 3 3 3 3 3 3 3 3 3 3 3 3 3 3 3 3 3 3 3 3 3 3 3 3 3 3 3 3 3 3 3 3 3 3 3 3 3 3 3 3 3 3 3 3 3 3 3 3 3 3 3 3 3 3 3 3 3 3 3 3 3 3 3 3 3 3 3 3 3 3 3 3 3 3 3 3 3 3 3 3 3 3 3 3 3 3 3 3 3 3 3 3 3 3 3 3 3 3 3 3 3 3 3 3 3 3 3 3 3 3 3 3 3 3 3 3 3 3 3 3 3 3 3 3 3 3 3 3 3 3 3 3 3 3 3 3 3 3 3 3 3 3 3 3 3 3 3 3 3 3 3 3 3 3 3 3 3 3 3 3 3 3 3 3 3 3 3 3 3 3 3 3 3 3 3 3 3 3 3 3 3 3 3 3 3 3 3 3 3 3 3 3 3 3 3 3 3 3 3 3 3 3 3 3 3 3 3 3 3 3 3 3 3 3 3 3 3 3 3 3 3 3 3 3 3 3 3 3 3 3 3 3 3 3 3 3 3 3 3 3 3 1 3 3 3 3 3 1 3 1 3 3 3 3 1 3 3 3 3 3 3 3 3 3 3 3 3 1 1 3 1 3 3 3 3 3 3 3 1 3 3 3 3 3 1 3 1 3 3 3 3 3 1 3 1 3 3 3 3 3 3 3 3 3 3 3 3 3 3 3 3 3 3 3 3 3 3 3 3 3 3 3 3 3 3 3 3 3 3 3 3 3 3 3 3 3 3 3 3 3 3 3 3 3 3 3 3 3 3 3 3 3 3 3 3 3 3 3 3 3 3 3 3 3 3 3 3 3 3 3 3 3 3 3 3 3 3 3 3 3 3 3 3 3 3 3 3 3 3 3 3 3 3 3 3 3 3 3 3 3 3 3 3 3 3 3 3 3 3 3 3 3 3 3 3 3 3 3 3 3 3 3 3 3 3 3 3 3 3 3 3 3 3 3 3 3 3 3 3 3 3 3 3 3 3 3 3 3 3 3 3 3 3 3 3 3 3 3 3 3 3 3 3 3 3 3 3 3 3 3 3 3 3 3 3 3 3 3 3 3 3 3 3 3 3 3 3 3 3 3 3 3 3 3 3 3 3 3 3 3 3 3 3 3 3 3 3 3 3 3 3 3 3 3 3 3 3 3 3 3 3 3 3 3 3 3 3 3 3 3 3 3 3 3 3 3 3 3 3 3 3 3 3 3 3 3 3 3 3 3 3 3 3 3 3 3 3 3 3 3 3 3 3 3 3 3 3 3 3 3 3 3 3 3 3 3 3 3 3 3 3 3 3 3 3 3 3 3 3 3 3 3 3 3 3 3 3 3 3 3 3 3 3 3 3 3 3 3 3 3 3 3 3 3 3 3 3 3 3 3 3 3 3 3 3 3 3 3 3 3 3 3 3 3 3 3 3 3 3 3 3 3 3 3 3 3 3 3 3 3 3 3 3 3 3 3 3 3 3 3 3 3 3 3 3 3 3 3 3 3 3 3 3 3 3 3 3 3 3 3 3 3 3 3 3 3 3 3 3 3 3 3 3 3 3 3 3 3 3 3 3 3 3 3 3 3 3 3 3 3 3 3 3 3 3 3 3 3 3 3 3 3 3 3 3 3 3 3 3 3 3 3 3 3 3 3 3 3 3 3 3 3 3 3 3 3 3 3 3 3 3 3 3 3 3 3 3 3 3 3 3 3 3 3 3 3 3 3 3 3 3 3 3 3 3 3 3 3 3 3 3 3 3 3 3 3 3 3 3 3 3 3 3 3 3 3 3 3 3 3 3 3 3 3 3 3 3 3 3 3 3 3 3 3 3 3 3 3 3 3 3 3 3 3 3 3 3 3 3 3 3 3 3 3 3 3 3 3 3 3 3 3 3 3 3 3 3 3 3 3 3 3 3 3 3 3 3 3 3 3 3 3 3 3 3 3 3 3 3 3 3 3 3 3 3 3 3 3 3 3 3 3 3 3 3 3 3 3 3 3 3 3 3 3 3 3 3 3 3 3 3 3 3 3 3 3 3 3 3 3 3 3 3 3 3 3 3 3 3 3 3 3 3 3 3 3 3 3 3 3 3 3 3 3 3 3 3 3 3 3 3 3 3 3 3 3 3 3 3 3 3 3 3 3 3 3 3 3 3 3 3 3 3 3 3 3 3 3 3 3 3 3 3 3 1 1 3 1 3 3 3 3 3 3 3 1 3 3 3 3 3 3 3 3 1 3 3 3 3 3 3 3 3 3 3 3 3 3 3 3 3 3 3 3 3 3 3 3 3 3 3 3 3 3 3 3 3 3 3 3 3 3 3 3 3 3 3 3 3 3 3 3 3 3 3 3 3 3 3 3 3 3 3 3 3 3 3 3 3 3 3 3 3 3 3 3 3 3 3 3 3 3 3 3 3 3 3 3 3 3 3 3 3 3 3 3 3 3 3 3 3 3 3 3 3 3 3 3 3 3 3 3 3 3 3 3 3 3 3 3 3 3 3 3 3 3 3 3 3 3 3 3 3 3 3 3 3 3 3 3 3 3 3 3 3 3 3 3 3 3 3 3 3 3 3 3 3 3 3 3 3 3 3 3 3 3 3 3 3 3 3 3 3 3 3 3 3 3 3 3 3 3 3 3 3 3 3 3 3 3 3 3 3 3 3 3 3 3 3 3 3 3 3 3 3 3 3 3 3 3 3 3 3 3 3 3 3 3 3 3 3 3 3 3 3 3 3 3 3 3 3 3 3 3 3 3 3 3 3 3 3 3 3 3 3 3 3 3 3 3 3 3 3 3 3 3 3 3 3 3 3 3 3 3 3 3 3 3 3 3 3 3 3 3 3 3 3 3 3 3 3 3 3 3 3 3 3 3 3 3 3 3 3 3 3 3 3 3 3 3 3 3 3 3 3 3 3 3 3 3 3 3 3 3 3 3 3 3 3 3 3 3 3 3 3 3 3 3 3 3 3 3 3 3 3 3 3 3 3 3 3 3 3 3 3 3 3 3 3 3 3 3 3 3 3 3 3 3 3 3 3 3 3 3 3 3 3 3 3 3 3 3 3 3 3 3 3 3 3 3 3 3 3 3 3 3 3 3 3 3 3 3 3 3 3 3 3 3 3 3 3 3 1 3 3 1 3 3 3 3 3 3 3 1 1 3 3 3 1 3 3 3 3 1 3 3 3 3 3 3 3 3 3 3 3 3 3 3 3 3 3 3 3 3 3 3 3 3 3 3 3 3 3 3 3 3 3 3 3 3 3 3 3 3 3 3 3 3 3 3 3 3 3 3 3 3 3 3 3 3 3 3 3 3 3 3 3 3 3 3 3 3 3 3 3 3 3 3 3 3 3 3 3 3 3 3 3 3 3 3 3 3 3 3 3 3 3 3 3 3 3 3 3 3 3 3 3 3 3 3 3 3 3 3 3 3 3 3 3 3 3 3 3 3 3 3 3 3 3 3 3 3 3 3 3 3 3 3 3 3 3 3 3 3 3 3 3 3 3 3 3 3 3 3 3 3 3 3 3 3 3 3 3 3 3 3 3 3 3 3 3 3 3 3 3 3 3 3 3 3 3 3 3 3 3 3 3 3 3 3 3 3 3 3 3 3 3 3 3 3 3 3 3 3 3 3 3 3 3 3 3 3 3 3 3 3 3 3 3 3 3 3 3 3 3 3 3 3 3 3 3 3 3 3 3 3 3 3 3 3 3 3 3 3 3 3 3 3 3 3 3 3 3 3 3 3 3 3 3 3 3 3 3 3 3 3 3 3 3 3 3 3 3 3 3 3 3 3 3 3 3 3 3 3 3 3 3 3 3 3 3 3 3 3 3 3 3 3 3 3 3 3 3 3 3 3 3 3 3 3 3 3 3 3 3 3 3 3 3 3 3 3 3 3 3 3 3 3 3 3 3 3 3 3 3 3 3 3 3 3 3 3 3 3 3 3 3 3 3 3 3 3 3 3 3 3 3 3 3 3 3 3 3 3 3 3 3 3 3 3 3 3 3 3 3 3 3 3 3 3 3 3 3 3 3 3 3 3 3 3 3 3 3 3 3 3 3 3 3 3 3 3 3 3 1 1 3 3 3 3 3 3 3 3 3 3 3 3 3 3 3 3 3 3 3 3 3 3 3 3 3 3 3 3 3 3 3 3 3 3 3 3 3 3 3 3 3 3 3 3 3 3 3 3 3 3 3 3 3 3 3 3 3 3 3 3 3 3 3 3 3 3 3 3 3 3 3 3 3 3 3 3 3 3 3 3 3 3 3 3 3 3 3 3 3 3 3 3 3 3 3 3 3 3 3 3 3 3 3 3 3 3 3 3 3 3 3 3 3 3 3 3 3 3 3 3 3 3 3 3 3 3 3 3 3 3 3 3 3 3 3 3 3 3 3 3 3 3 3 3 3 3 3 3 3 3 3 3 3 3 3 3 3 3 3 3 3 3 3 3 3 3 3 3 3 3 3 3 3 3 3 3 3 3 3 3 3 3 3 3 3 3 3 3 3 3 3 3 3 3 3 3 3 3 3 3 3 3 3 3 3 3 3 3 3 3 3 3 3 3 3 3 3 3 3 3 3 3 3 3 3 3 3 3 3 3 3 3 3 3 3 3 3 3 3 3 3 3 3 3 3 3 3 3 3 3 3 3 3 3 3 3 3 3 3 3 3 3 3 3 3 3 3 3 3 3 3 3 3 3 3 3 3 3 3 3 3 3 3 3 3 3 3 3 3 3 3 3 3 3 3 3 3 3 3 3 3 3 3 3 3 3 3 3 3 3 3 3 3 3 3 3 3 3 3 3 3 3 3 3 3 3 3 3 3 3 3 3 3 3 3 3 3 3 3 3 3 3 3 3 3 3 3 3 3 3 3 3 3 3 3 3 3 3 3 3 3 3 3 3 3 3 3 3 3 3 3 3 3 3 3 3 3 3 3 3 3 3 3 3 3 3 3 3 3 3 3 3 3 3 3 3 3 3 3 3 3 3 3 3 3 3 3 3 3 3 3 3 3 3 3 3 3 3 3 3 3 3 3 3 3 3 3 3 3 3 3 3 3 3 3 3 3 3 3 3 3 3 3 3 3 3 3 3 3 3 3 3 3 3 3 3 3 3 3 3 3 3 3 3 3 3 3 3 3 3 3 3 3 3 3 3 3 3 3 3 3 3 3 3 3 3 3 3 3 3 3 3 3 3 3 3 3 3 3 3 3 3 3 3 3 3 3 3 3 3 3 3 3 3 3 3 3 3 3 3 3 3 3 3 3 3 3 3 3 3 3 3 3 3 3 3 3 3 3 3 3 3 3 3 3 3 3 3 3 3 3 3 3 3 3 3 3 3 3 3 3 3 3 3 3 3 3 3 3 3 3 3 3 3 3 3 3 3 3 3 3 3 3 3 3 3 3 3 3 3 3 3 3 3 3 3 3 3 3 3 3 3 3 3 3 3 3 3 3 3 3 3 3 3 3 3 3 3 3 3 3 3 3 3 3 3 3 3 3 3 3 3 3 3 3 3 3 3 3 3 3 3 3 3 3 3 3 3 3 3 3 3 3 3 3 3 3 3 3 3 3 3 3 3 3 3 3 3 3 3 3 3 3 3 3 3 3 3 3 3 3 3 3 3 3 3 3 3 3 3 3 3 3 3 3 3 3 3 3 3 3 3 3 3 3 3 3 3 3 3 3 3 3 3 3 3 3 3 3 3 3 3 3 3 3 3 3 3 3 3 3 3 3 3 3 3 3 3 3 3 3 3 3 3 3 </DataArray>
</CellData>
</Piece>
</UnstructuredGrid>
</VTKFile>