<?xml version="1.0"?>
<VTKFile type="UnstructuredGrid"  version="0.1"  >
<UnstructuredGrid>
<Piece  NumberOfPoints="573" NumberOfCells="5003">
<Points>
<DataArray  type="Float64"  NumberOfComponents="3"  format="ascii">10 25 40  10 27.5 40  10 27.5 37.5  7.5 27.5 37.5  10 30 40  5 25 40  7.5 27.5 40  7.5 25 40  15 30 40  15 30 37.5  15 27.5 37.5  12.5 27.5 37.5  15 27.5 40  12.5 27.5 40  12.5 30 40  17.5 30 40  17.5 27.5 40  17.5 27.5 37.5  17.5 30 37.5  5 30 45  5 27.5 45  5 27.5 42.5  2.5 27.5 42.5  2.5 27.5 45  0 30 45  2.5 30 45  0 27.5 45  0 27.5 42.5  7.5 27.5 42.5  10 27.5 42.5  10 30 42.5  10 30 45  10 27.5 45  7.5 27.5 45  7.5 30 45  15 30 42.5  15 27.5 42.5  12.5 27.5 42.5  15 30 45  15 27.5 45  12.5 27.5 45  12.5 30 42.5  12.5 30 45  20 30 45  20 27.5 45  17.5 27.5 45  17.5 27.5 42.5  17.5 30 42.5  17.5 30 45  5 30 47.5  5 27.5 47.5  2.5 27.5 47.5  5 30 50  5 27.5 50  2.5 27.5 50  2.5 30 47.5  0 30 50  2.5 30 50  0 27.5 50  0 27.5 47.5  0 30 47.5  10 30 47.5  10 27.5 47.5  7.5 27.5 47.5  10 30 50  10 27.5 50  7.5 27.5 50  7.5 30 47.5  7.5 30 50  15 30 47.5  15 27.5 47.5  12.5 27.5 47.5  15 30 50  15 27.5 50  12.5 27.5 50  12.5 30 47.5  12.5 30 50  20 30 47.5  20 27.5 47.5  17.5 27.5 47.5  20 30 50  20 27.5 50  17.5 27.5 50  17.5 30 47.5  17.5 30 50  0 40 35  2.5 42.5 35  2.5 40 35  2.5 42.5 32.5  5 40 35  5 42.5 35  5 45 35  0 42.5 35  0 45 35  2.5 45 35  2.5 47.5 35  2.5 47.5 32.5  5 47.5 35  5 50 35  0 47.5 35  0 47.5 32.5  0 50 35  2.5 50 35  5 30 35  5 30 37.5  5 27.5 37.5  2.5 27.5 37.5  5 30 40  5 25 35  5 25 37.5  5 27.5 40  2.5 27.5 40  2.5 30 37.5  0 30 40  2.5 30 40  0 27.5 40  0 27.5 37.5  0 30 35  0 30 37.5  10 30 37.5  7.5 30 37.5  7.5 30 40  12.5 30 37.5  5 35 35  5 35 37.5  5 32.5 37.5  2.5 32.5 37.5  5 35 40  5 32.5 40  2.5 32.5 40  2.5 35 37.5  0 32.5 37.5  0 32.5 40  0 35 40  2.5 35 40  0 32.5 35  0 35 35  0 35 37.5  10 35 40  10 35 37.5  10 32.5 37.5  7.5 32.5 37.5  10 32.5 40  7.5 32.5 40  7.5 35 37.5  7.5 35 40  15 35 35  15 35 37.5  15 32.5 37.5  12.5 32.5 37.5  15 35 40  15 32.5 40  12.5 32.5 40  12.5 35 37.5  12.5 35 40  5 37.5 37.5  5 37.5 35  2.5 37.5 37.5  5 40 37.5  5 40 40  5 37.5 40  2.5 37.5 40  2.5 40 37.5  0 37.5 37.5  0 37.5 40  0 40 40  2.5 40 40  0 37.5 35  0 40 37.5  10 40 40  10 40 37.5  10 37.5 37.5  7.5 37.5 37.5  10 37.5 40  7.5 37.5 40  7.5 40 37.5  7.5 40 40  2.5 42.5 37.5  5 42.5 37.5  5 45 37.5  5 45 40  5 42.5 40  2.5 42.5 40  2.5 45 37.5  0 42.5 37.5  0 42.5 40  0 45 40  2.5 45 40  0 45 37.5  10 45 35  10 45 37.5  10 42.5 37.5  7.5 42.5 37.5  10 45 40  10 42.5 40  7.5 42.5 40  7.5 45 37.5  7.5 45 35  7.5 45 40  2.5 47.5 37.5  5 47.5 37.5  5 50 37.5  5 50 40  5 47.5 40  2.5 47.5 40  2.5 50 37.5  0 47.5 37.5  0 47.5 40  0 50 40  2.5 50 40  0 50 37.5  7.5 47.5 37.5  7.5 47.5 35  10 47.5 37.5  10 47.5 35  10 50 35  10 50 37.5  10 50 40  10 47.5 40  7.5 47.5 40  7.5 50 37.5  7.5 50 35  7.5 50 40  15 50 40  15 50 37.5  12.5 50 37.5  12.5 47.5 37.5  12.5 47.5 40  12.5 50 40  5 30 42.5  2.5 30 42.5  0 30 42.5  7.5 30 42.5  2.5 32.5 42.5  5 32.5 42.5  5 35 42.5  5 35 45  5 32.5 45  2.5 32.5 45  2.5 35 42.5  0 32.5 42.5  0 32.5 45  0 35 45  2.5 35 45  0 35 42.5  7.5 32.5 42.5  10 32.5 42.5  10 35 42.5  10 35 45  10 32.5 45  7.5 32.5 45  7.5 35 42.5  7.5 35 45  2.5 37.5 42.5  5 37.5 42.5  5 40 42.5  5 40 45  5 37.5 45  2.5 37.5 45  2.5 40 42.5  0 37.5 42.5  0 37.5 45  0 40 45  2.5 40 45  0 40 42.5  7.5 37.5 42.5  10 37.5 42.5  10 40 42.5  10 40 45  10 37.5 45  7.5 37.5 45  7.5 40 42.5  7.5 40 45  2.5 42.5 42.5  5 42.5 42.5  5 45 42.5  5 45 45  5 42.5 45  2.5 42.5 45  2.5 45 42.5  0 42.5 42.5  0 42.5 45  0 45 45  2.5 45 45  0 45 42.5  7.5 42.5 42.5  10 42.5 42.5  10 45 42.5  10 45 45  10 42.5 45  7.5 42.5 45  7.5 45 42.5  7.5 45 45  2.5 47.5 42.5  5 47.5 42.5  5 50 42.5  5 50 45  5 47.5 45  2.5 47.5 45  2.5 50 42.5  0 47.5 42.5  0 47.5 45  0 50 45  2.5 50 45  0 50 42.5  7.5 47.5 42.5  10 47.5 42.5  10 50 42.5  10 50 45  10 47.5 45  7.5 47.5 45  7.5 50 42.5  7.5 50 45  12.5 47.5 42.5  12.5 50 42.5  15 50 42.5  15 50 45  12.5 47.5 45  12.5 50 45  2.5 32.5 47.5  5 32.5 47.5  5 35 47.5  5 35 50  5 32.5 50  2.5 32.5 50  2.5 35 47.5  0 32.5 47.5  0 32.5 50  0 35 50  2.5 35 50  0 35 47.5  7.5 32.5 47.5  10 32.5 47.5  10 35 47.5  10 35 50  10 32.5 50  7.5 32.5 50  7.5 35 47.5  7.5 35 50  2.5 37.5 47.5  5 37.5 47.5  5 40 47.5  5 40 50  5 37.5 50  2.5 37.5 50  2.5 40 47.5  0 37.5 47.5  0 37.5 50  0 40 50  2.5 40 50  0 40 47.5  7.5 37.5 47.5  10 37.5 47.5  10 40 47.5  10 40 50  10 37.5 50  7.5 37.5 50  7.5 40 47.5  7.5 40 50  2.5 42.5 47.5  5 42.5 47.5  5 45 47.5  5 45 50  5 42.5 50  2.5 42.5 50  2.5 45 47.5  0 42.5 47.5  0 42.5 50  0 45 50  2.5 45 50  0 45 47.5  7.5 42.5 47.5  10 42.5 47.5  10 45 47.5  10 45 50  10 42.5 50  7.5 42.5 50  7.5 45 47.5  7.5 45 50  2.5 47.5 47.5  5 47.5 47.5  5 50 47.5  5 50 50  5 47.5 50  2.5 47.5 50  2.5 50 47.5  0 47.5 47.5  0 47.5 50  0 50 50  2.5 50 50  0 50 47.5  7.5 47.5 47.5  10 47.5 47.5  10 50 47.5  10 50 50  10 47.5 50  7.5 47.5 50  7.5 50 47.5  7.5 50 50  12.5 47.5 47.5  12.5 50 47.5  15 50 47.5  15 50 50  12.5 47.5 50  12.5 50 50  17.5 32.5 40  17.5 32.5 37.5  17.5 35 40  17.5 35 37.5  15 37.5 37.5  15 37.5 35  12.5 37.5 37.5  15 40 35  15 40 37.5  15 40 40  15 37.5 40  12.5 37.5 40  12.5 40 37.5  12.5 40 40  17.5 37.5 37.5  17.5 37.5 40  20 40 40  20 40 37.5  17.5 40 37.5  17.5 40 40  15 45 40  15 45 37.5  15 42.5 37.5  12.5 42.5 37.5  15 42.5 40  12.5 42.5 40  12.5 45 37.5  12.5 45 40  20 45 40  20 45 37.5  20 42.5 37.5  17.5 42.5 37.5  20 42.5 40  17.5 42.5 40  17.5 45 37.5  17.5 45 40  15 47.5 37.5  15 47.5 40  20 50 40  20 50 37.5  20 47.5 37.5  17.5 47.5 37.5  20 47.5 40  17.5 47.5 40  17.5 50 37.5  17.5 50 40  12.5 32.5 42.5  15 32.5 42.5  15 35 42.5  15 35 45  15 32.5 45  12.5 32.5 45  12.5 35 42.5  12.5 35 45  17.5 32.5 42.5  17.5 32.5 45  20 32.5 45  20 35 45  17.5 35 42.5  17.5 35 45  12.5 37.5 42.5  15 37.5 42.5  15 40 42.5  15 40 45  15 37.5 45  12.5 37.5 45  12.5 40 42.5  12.5 40 45  17.5 37.5 42.5  17.5 37.5 45  20 37.5 45  20 40 45  17.5 40 42.5  20 40 42.5  17.5 40 45  12.5 42.5 42.5  15 42.5 42.5  15 45 42.5  15 45 45  15 42.5 45  12.5 42.5 45  12.5 45 42.5  12.5 45 45  17.5 42.5 42.5  20 42.5 42.5  20 45 42.5  20 45 45  20 42.5 45  17.5 42.5 45  17.5 45 42.5  17.5 45 45  22.5 42.5 42.5  22.5 42.5 45  22.5 45 45  22.5 45 42.5  15 47.5 42.5  15 47.5 45  17.5 47.5 42.5  20 47.5 42.5  20 50 42.5  20 50 45  20 47.5 45  17.5 47.5 45  17.5 50 42.5  17.5 50 45  22.5 47.5 42.5  22.5 47.5 45  12.5 32.5 47.5  15 32.5 47.5  15 35 47.5  15 35 50  15 32.5 50  12.5 32.5 50  12.5 35 47.5  12.5 35 50  17.5 32.5 47.5  20 32.5 47.5  20 35 47.5  20 35 50  20 32.5 50  17.5 32.5 50  17.5 35 47.5  17.5 35 50  12.5 37.5 47.5  15 37.5 47.5  15 40 47.5  15 40 50  15 37.5 50  12.5 37.5 50  12.5 40 47.5  12.5 40 50  17.5 37.5 47.5  20 37.5 47.5  20 40 47.5  20 40 50  20 37.5 50  17.5 37.5 50  17.5 40 47.5  17.5 40 50  12.5 42.5 47.5  15 42.5 47.5  15 45 47.5  15 45 50  15 42.5 50  12.5 42.5 50  12.5 45 47.5  12.5 45 50  17.5 42.5 47.5  20 42.5 47.5  20 45 47.5  20 45 50  20 42.5 50  17.5 42.5 50  17.5 45 47.5  17.5 45 50  22.5 42.5 47.5  22.5 45 47.5  15 47.5 47.5  15 47.5 50  17.5 47.5 47.5  20 47.5 47.5  20 50 47.5  20 50 50  20 47.5 50  17.5 47.5 50  17.5 50 47.5  17.5 50 50  22.5 47.5 47.5  </DataArray>
</Points>
<Cells>
[...]
<CellData  Scalars="f">
<DataArray  type="Float64"  Name="f"  format="ascii">3 3 3 3 3 3 3 3 3 3 3 3 3 3 3 3 3 3 3 3 3 3 3 3 3 3 3 3 3 3 3 3 3 3 3 3 3 3 3 3 3 3 3 3 3 3 3 3 3 3 3 3 3 3 3 3 3 3 3 3 3 3 3 3 3 3 3 3 3 3 3 3 3 3 3 3 3 3 3 3 3 3 3 3 3 3 3 3 3 3 3 3 3 3 3 3 3 3 3 3 3 3 3 3 3 3 3 3 3 3 3 3 3 3 3 3 3 3 3 3 3 3 3 3 3 3 3 3 3 3 3 3 3 3 3 3 3 3 3 3 3 3 3 3 3 3 3 3 3 3 3 3 3 3 3 3 3 3 3 3 3 3 3 3 3 3 3 3 3 3 3 3 3 3 3 3 3 3 3 3 3 3 3 3 3 3 3 3 3 3 3 3 3 3 3 3 3 3 3 3 3 3 3 3 3 3 3 3 3 3 3 3 3 3 3 3 3 3 3 3 3 3 3 3 3 3 3 3 3 3 3 3 3 3 3 3 3 3 3 3 3 3 3 3 3 3 3 3 3 3 3 3 3 3 3 3 3 3 3 3 3 3 3 3 3 3 3 3 3 3 3 3 3 3 3 3 3 3 3 3 3 3 3 3 3 3 3 3 3 3 3 3 3 3 3 3 3 3 3 3 3 3 3 3 3 3 3 3 3 3 3 3 3 3 3 3 3 3 3 3 3 3 3 3 3 3 3 3 3 3 3 3 3 3 3 3 3 3 3 3 3 3 3 3 3 3 3 3 3 3 3 3 3 3 3 3 3 3 3 3 3 3 3 3 3 3 3 3 3 3 3 3 3 3 3 3 3 3 3 3 3 3 1 3 1 1 3 3 3 3 3 1 3 1 3 3 3 1 3 3 3 3 3 1 3 1 3 3 3 3 3 3 3 1 1 3 3 3 3 3 3 3 3 3 3 3 3 3 3 3 3 3 3 3 3 3 3 3 3 3 3 3 3 3 3 3 3 3 3 3 3 3 3 3 3 3 3 3 3 3 3 3 3 3 3 3 3 3 3 3 3 3 3 3 3 3 3 3 3 3 3 3 3 3 3 3 3 3 3 3 3 3 3 3 3 3 3 3 3 3 3 3 3 3 3 3 3 3 3 3 3 3 3 3 3 3 3 3 3 3 3 3 3 3 3 3 3 3 3 3 3 3 3 3 3 3 3 3 3 3 3 3 3 3 3 3 3 3 3 3 3 3 3 3 3 3 3 3 3 3 3 3 3 3 3 3 3 3 3 3 3 3 3 3 3 3 3 3 3 3 3 3 3 3 3 3 3 3 3 3 3 3 3 3 3 3 3 3 3 3 3 3 3 3 3 3 3 3 3 3 3 3 3 3 3 3 3 3 3 3 3 3 3 3 3 3 3 3 3 3 3 3 3 3 3 3 3 3 3 3 3 3 3 3 3 3 3 3 3 3 3 3 3 3 3 3 3 3 3 3 3 3 3 3 3 3 3 3 3 3 3 3 3 3 3 3 3 3 3 3 3 3 3 3 3 3 3 3 3 3 3 3 3 3 3 3 3 3 3 3 3 3 3 3 3 3 3 3 3 3 3 3 3 3 3 3 3 3 3 3 3 3 3 3 3 3 3 3 1 1 3 1 3 3 3 3 1 3 3 3 3 3 3 3 3 3 3 3 3 3 3 3 3 3 3 3 3 3 3 3 3 3 3 3 3 3 3 3 3 3 3 3 3 3 3 3 3 3 3 3 3 3 3 3 3 3 3 3 3 3 3 3 3 3 3 3 3 3 3 3 3 3 3 3 3 3 3 3 3 3 3 3 3 3 3 3 3 3 3 3 3 3 3 3 3 3 3 3 3 3 3 3 3 3 3 3 3 3 3 3 3 3 3 3 3 3 3 3 3 3 3 3 3 3 3 3 3 3 3 3 3 3 3 3 3 3 3 3 3 3 3 3 3 3 3 3 3 3 3 3 3 3 3 3 3 3 3 3 3 3 3 3 3 1 3 3 3 3 3 3 1 1 3 1 3 3 3 3 3 3 3 3 3 3 3 3 3 3 3 3 3 3 3 3 3 3 3 3 3 3 3 3 3 3 3 3 3 3 3 3 3 3 3 3 3 3 3 3 3 3 3 3 3 3 3 3 3 3 3 3 3 3 3 3 3 3 3 3 3 3 3 3 3 3 3 3 3 3 3 3 3 3 3 3 3 3 3 3 3 3 3 3 3 3 3 3 3 3 1 3 3 3 3 3 3 3 3 3 3 3 1 3 1 3 3 3 3 3 1 3 1 3 3 3 3 3 3 3 3 3 3 3 3 3 3 3 3 3 3 3 3 3 3 3 3 3 3 3 3 3 3 3 3 3 3 3 3 3 3 3 3 3 3 3 3 3 3 3 1 3 1 3 3 3 3 3 3 3 1 3 3 3 3 3 3 3 3 3 3 3 3 3 3 3 3 3 3 3 3 3 3 3 3 3 3 3 3 3 3 3 3 3 3 3 3 3 3 3 3 3 3 3 3 3 3 3 3 3 3 3 3 3 3 3 3 3 3 3 3 3 3 3 3 3 3 3 3 3 3 3 3 3 3 3 3 3 3 3 3 3 3 3 3 3 3 3 3 3 3 3 3 3 3 3 3 3 3 3 3 3 3 3 3 1 1 3 1 3 3 3 3 3 1 3 1 3 3 3 1 3 3 3 3 1 3 1 3 3 1 3 3 3 3 3 3 3 3 3 3 3 3 3 3 3 3 3 3 3 3 3 3 3 3 3 3 3 3 3 3 3 3 3 3 3 3 3 3 3 3 3 3 3 3 3 3 3 3 3 3 3 3 3 3 3 3 3 3 3 3 3 3 3 3 3 3 3 3 3 3 3 3 3 3 3 3 3 3 3 3 3 3 3 3 3 3 3 3 3 3 3 3 3 3 3 3 3 3 3 3 3 3 3 3 3 3 3 3 3 3 3 3 3 3 3 3 3 3 3 3 3 3 3 3 3 3 3 3 3 3 3 3 3 3 3 3 3 3 3 3 3 3 3 3 3 1 1 1 1 3 1 3 3 3 3 3 3 3 1 3 3 3 3 3 1 3 1 3 3 3 3 3 1 3 1 3 3 3 3 3 3 1 3 3 1 3 3 3 3 3 3 3 3 3 3 3 3 3 3 3 3 3 3 3 3 3 3 3 3 3 3 3 3 3 3 3 3 3 3 3 3 3 3 3 3 3 3 3 3 3 3 3 3 3 3 3 3 3 3 3 3 3 3 3 3 3 3 3 3 3 3 3 3 3 3 3 3 3 3 3 3 3 3 3 3 3 3 3 3 3 3 3 3 3 3 3 3 3 3 3 3 3 3 3 3 3 3 3 3 3 3 3 3 3 3 3 3 3 3 3 3 3 3 3 3 3 3 3 3 3 3 3 3 3 3 3 3 3 3 3 3 3 3 3 3 3 3 3 3 3 3 3 3 3 3 3 3 3 3 3 3 3 3 3 3 3 3 3 3 3 3 3 3 3 3 3 3 3 3 3 3 3 3 3 3 3 3 3 3 3 3 3 3 3 3 3 3 3 3 3 3 3 3 3 3 3 3 3 3 3 3 3 3 3 3 3 3 3 3 3 3 3 3 3 3 3 3 3 3 3 3 3 3 3 3 3 3 3 3 3 3 3 3 3 3 3 3 3 3 3 3 3 3 3 3 3 3 3 3 3 3 3 3 3 3 3 3 3 3 3 3 3 3 3 3 3 3 3 3 3 3 3 3 3 3 3 3 3 3 3 3 3 3 3 3 3 3 3 3 3 3 3 3 3 3 3 3 3 3 3 3 3 3 3 3 3 3 3 3 3 3 3 3 3 3 3 3 3 3 3 1 1 3 1 3 3 3 3 3 3 3 1 3 3 3 3 3 1 3 1 3 3 3 3 3 1 3 1 3 3 3 3 3 3 3 3 3 3 3 3 3 3 3 3 3 3 3 3 3 3 3 3 3 3 3 3 3 3 3 3 3 3 3 3 3 3 3 3 3 3 3 3 3 3 3 3 3 3 3 3 3 3 3 3 3 3 3 3 3 3 3 3 3 3 3 3 3 3 3 3 3 3 3 3 3 3 3 3 3 3 3 3 3 3 3 3 3 3 3 3 3 3 3 3 3 3 3 3 3 3 3 3 3 3 3 3 3 3 3 3 3 3 3 3 3 3 3 3 3 3 3 3 3 3 3 3 3 3 3 3 3 3 3 3 3 3 3 3 3 3 3 3 3 3 3 3 3 3 3 3 3 3 3 3 3 3 3 3 3 3 3 3 3 3 3 3 3 3 3 3 3 3 3 3 3 3 3 3 3 3 3 3 3 3 3 3 3 3 3 3 3 3 3 3 3 3 3 3 3 3 3 3 3 3 3 3 3 3 3 3 1 1 3 1 3 3 3 3 3 3 3 1 3 3 3 3 3 1 3 1 3 3 3 3 3 1 3 1 3 3 3 3 3 3 3 3 3 3 3 3 3 3 3 3 3 3 3 3 3 3 3 3 3 3 3 3 3 3 3 3 3 3 3 3 3 3 3 3 3 3 3 3 3 3 3 3 3 3 3 3 3 3 3 3 3 3 3 3 3 3 3 3 3 3 3 3 3 3 3 3 3 3 3 3 3 3 3 3 3 3 3 3 3 3 3 3 3 3 3 3 3 3 3 3 3 3 3 3 3 3 3 3 3 3 3 3 3 3 3 3 3 3 3 3 3 3 3 3 3 3 3 3 3 3 3 3 3 3 3 3 3 3 3 3 3 3 3 3 3 3 3 3 3 3 3 3 3 3 3 3 3 3 3 3 3 3 3 3 3 3 3 3 3 3 3 3 3 3 3 3 3 3 3 3 3 3 3 3 3 3 3 3 3 3 3 3 3 3 3 3 3 3 3 3 3 3 3 3 3 1 1 3 1 3 3 3 3 3 3 3 1 3 3 3 3 3 3 3 3 3 3 3 3 3 3 3 3 3 3 3 3 3 3 3 3 3 3 3 3 3 3 3 3 3 3 3 3 3 3 3 3 3 3 3 3 3 3 3 3 3 3 3 3 3 3 3 3 3 3 3 3 3 3 3 3 3 3 3 3 3 3 3 3 3 3 3 3 3 3 3 3 3 3 3 3 3 3 3 3 3 3 3 3 3 3 3 3 3 3 3 3 3 3 3 3 3 3 3 3 3 3 3 3 3 3 3 3 3 3 3 3 3 3 3 3 3 3 3 3 3 3 3 3 3 3 3 3 3 3 3 3 3 3 3 3 3 3 3 3 3 3 3 3 3 3 3 3 3 3 3 3 3 3 3 3 3 3 3 3 3 3 3 3 3 3 3 3 3 3 3 3 3 3 3 3 3 3 3 3 3 3 3 3 3 3 3 3 3 3 3 3 3 3 3 3 3 3 3 3 3 3 3 3 3 3 3 3 3 3 3 3 3 3 3 3 3 3 3 3 3 3 3 3 3 3 3 3 3 3 3 3 3 3 3 3 3 3 3 3 3 3 3 3 3 3 3 3 3 3 3 3 1 1 3 1 3 3 3 3 3 3 3 1 3 3 3 3 3 1 3 1 3 3 3 3 3 1 3 1 3 3 3 3 3 3 3 3 3 3 3 3 3 3 3 3 3 3 3 3 3 3 3 3 3 3 3 3 3 3 3 3 3 3 3 3 3 3 3 3 3 3 3 3 3 3 3 3 3 3 3 3 3 3 3 3 3 3 3 3 3 3 3 3 3 3 3 3 3 3 3 3 3 3 3 3 3 3 3 3 3 3 3 3 3 3 3 3 3 3 3 3 3 3 3 3 3 3 3 3 3 3 3 3 3 3 3 3 3 3 3 3 3 3 3 3 3 3 3 3 3 3 3 3 3 3 3 3 3 3 3 3 3 3 3 3 3 3 3 3 3 3 3 3 3 3 3 3 3 3 3 3 3 3 3 3 3 3 3 3 3 3 3 3 3 3 3 3 3 3 3 3 3 3 3 3 3 3 3 3 3 3 3 3 3 3 3 3 3 3 3 3 3 3 3 3 3 3 3 3 3 3 3 3 3 3 3 3 3 3 3 3 1 1 3 1 3 3 3 3 3 3 3 1 3 3 3 3 3 1 3 1 3 3 3 3 3 1 3 1 3 3 3 3 3 3 3 3 3 3 3 3 3 3 3 3 3 3 3 3 3 3 3 3 3 3 3 3 3 3 3 3 3 3 3 3 3 3 3 3 3 3 3 3 3 3 3 3 3 3 3 3 3 3 3 3 3 3 3 3 3 3 3 3 3 3 3 3 3 3 3 3 3 3 3 3 3 3 3 3 3 3 3 3 3 3 3 3 3 3 3 3 3 3 3 3 3 3 3 3 3 3 3 3 3 3 3 3 3 3 3 3 3 3 3 3 3 3 3 3 3 3 3 3 3 3 3 3 3 3 3 3 3 3 3 3 3 3 3 3 3 3 3 3 3 3 3 3 3 3 3 3 3 3 3 3 3 3 3 3 3 3 3 3 3 3 3 3 3 3 3 3 3 3 3 3 3 3 3 3 3 3 3 3 3 3 3 3 3 3 3 3 3 3 3 3 3 3 3 3 3 3 3 3 3 3 3 3 3 3 3 3 1 1 3 1 3 3 3 3 3 3 3 1 3 3 3 3 3 1 3 1 3 3 3 3 3 1 3 1 3 3 3 3 3 3 3 3 3 3 3 3 3 3 3 3 3 3 3 3 3 3 3 3 3 3 3 3 3 3 3 3 3 3 3 3 3 3 3 3 3 3 3 3 3 3 3 3 3 3 3 3 3 3 3 3 3 3 3 3 3 3 3 3 3 3 3 3 3 3 3 3 3 3 3 3 3 3 3 3 3 3 3 3 3 3 3 3 3 3 3 3 3 3 3 3 3 3 3 3 3 3 3 3 3 3 3 3 3 3 3 3 3 3 3 3 3 3 3 3 3 3 3 3 3 3 3 3 3 3 3 3 3 3 3 3 3 3 3 3 3 3 3 3 3 3 3 3 3 3 3 3 3 3 3 3 3 3 3 3 3 3 3 3 3 3 3 3 3 3 3 3 3 1 1 3 1 3 3 3 3 3 3 3 1 3 3 3 3 3 3 3 3 3 3 3 3 3 3 3 3 3 3 3 3 3 3 3 3 3 3 3 3 3 3 3 3 3 3 3 3 3 3 3 3 3 3 3 3 3 3 3 3 3 3 3 3 3 3 3 3 3 3 3 3 3 3 3 3 3 3 3 3 3 3 3 3 3 3 3 3 3 3 3 3 3 3 3 3 3 3 3 3 3 3 3 3 3 3 3 3 3 3 3 3 3 3 3 3 3 3 3 3 3 3 3 3 3 3 3 3 3 3 3 3 3 3 3 3 3 3 3 3 3 3 3 3 3 3 3 3 3 3 3 3 3 3 3 3 3 3 3 3 3 3 3 3 3 3 3 3 3 3 3 3 3 3 3 3 3 3 3 3 3 3 3 3 3 3 3 3 3 3 3 3 3 3 3 3 3 3 3 3 3 3 3 3 3 3 3 3 3 3 3 3 1 1 3 3 3 1 3 3 3 3 1 3 3 3 3 3 3 3 3 3 3 3 3 3 3 3 3 3 3 3 3 3 3 3 3 3 3 3 3 3 3 3 3 3 3 3 3 3 3 3 3 3 3 3 3 3 3 3 3 3 3 3 3 3 3 3 3 3 3 3 3 3 3 3 3 3 3 3 3 3 3 3 3 3 3 3 3 3 3 3 3 3 3 3 3 3 3 3 3 3 3 3 3 3 3 3 3 3 3 3 3 3 3 3 3 3 3 3 3 3 3 3 3 3 3 3 3 3 3 3 3 3 3 3 3 3 3 3 3 3 1 1 3 3 3 1 3 3 3 3 1 3 3 3 3 3 3 3 3 3 3 3 3 3 3 3 3 3 3 3 3 3 3 3 3 3 3 3 3 3 3 3 3 3 3 3 3 3 3 3 3 3 3 3 3 3 3 3 3 3 3 3 3 3 3 3 3 3 3 3 3 3 3 3 3 3 3 3 3 3 3 3 3 3 3 3 3 3 3 3 3 3 3 3 3 3 3 3 3 3 3 3 3 3 3 3 3 3 3 3 3 3 3 3 3 3 3 3 3 3 3 3 3 3 3 3 3 3 3 3 3 3 3 3 3 3 3 3 3 3 1 1 3 3 3 1 3 3 3 3 1 3 3 3 3 3 3 3 3 3 3 3 3 3 3 3 3 3 3 3 3 3 3 3 3 3 3 3 3 3 3 3 3 3 3 3 3 3 3 3 3 3 3 3 3 3 3 3 3 3 3 3 3 3 3 3 3 3 3 3 3 3 3 3 3 3 3 3 3 3 3 3 3 3 3 3 3 3 3 3 3 3 3 3 3 3 3 3 3 3 3 3 3 3 3 3 3 3 3 3 3 3 3 3 3 1 1 3 3 3 3 3 3 3 3 3 3 3 3 3 3 3 3 3 3 3 3 3 3 3 3 3 3 3 3 3 3 3 3 3 3 3 3 3 3 3 3 3 3 3 3 3 3 3 3 3 3 3 3 3 3 3 3 3 3 3 3 3 3 3 3 3 3 3 3 3 3 3 3 3 3 3 3 3 3 3 3 3 3 3 3 3 3 3 3 3 3 3 3 3 3 3 3 3 3 3 3 3 3 3 3 3 3 3 3 3 3 3 3 3 3 3 3 3 3 3 3 3 3 3 3 3 3 3 3 3 3 3 3 3 3 3 3 3 3 3 3 3 3 3 3 3 3 3 3 3 3 3 3 3 3 3 3 3 3 3 3 3 3 3 3 3 3 3 3 3 3 3 3 3 3 3 3 3 3 3 3 3 3 3 3 3 3 3 3 3 3 3 3 3 3 3 3 3 3 3 3 3 3 3 3 3 3 3 3 3 3 3 3 3 3 3 3 3 3 3 3 3 3 3 3 3 3 3 3 3 3 3 3 3 3 3 3 3 3 3 3 3 3 3 3 3 3 3 3 3 3 3 3 3 3 3 3 3 3 3 3 3 3 3 3 3 3 3 3 3 3 3 3 3 3 3 3 3 3 3 3 3 3 3 3 3 3 3 3 3 3 3 3 3 3 3 3 3 3 3 3 3 3 3 3 3 3 3 3 3 3 3 3 3 3 3 3 3 3 3 3 3 3 3 3 3 3 3 3 3 3 3 3 3 3 3 3 3 3 3 3 3 3 3 3 3 3 3 3 3 3 3 3 3 3 3 3 3 3 3 3 3 3 3 3 3 3 3 3 3 3 3 3 3 3 3 3 3 3 3 3 3 3 3 3 3 3 3 3 3 3 3 3 3 3 3 3 3 3 3 3 3 3 3 3 3 3 3 3 3 3 3 3 3 3 3 3 3 3 3 3 3 3 3 3 3 3 3 3 3 3 3 3 3 3 3 3 3 3 3 3 3 3 3 3 3 3 3 3 3 3 3 3 3 3 3 3 3 3 3 3 3 3 3 3 3 3 3 3 3 3 3 3 3 3 3 3 3 3 3 3 3 3 3 3 3 3 3 3 3 3 3 3 3 3 3 3 3 3 3 3 3 3 3 3 3 3 3 3 3 3 3 3 3 3 3 3 3 3 3 3 3 3 3 3 3 3 3 3 3 3 3 3 3 3 3 3 3 3 3 3 3 3 3 3 3 3 3 3 3 3 3 3 3 3 3 3 3 3 3 3 3 3 3 3 3 3 3 3 3 3 3 3 3 3 3 3 3 3 3 3 3 3 3 3 3 3 3 3 3 3 3 3 3 3 3 3 3 3 3 3 3 3 3 3 3 3 3 3 3 3 3 3 3 3 3 3 3 3 3 3 3 3 3 3 3 3 3 3 3 3 3 3 3 3 3 3 3 3 3 3 3 3 3 3 3 3 3 3 3 3 3 3 3 3 3 3 3 3 3 3 3 3 3 3 3 3 3 3 3 3 3 3 3 3 3 3 3 3 3 3 3 3 3 3 3 3 3 3 3 3 3 3 3 3 3 3 3 3 3 3 3 3 3 3 3 3 3 3 3 3 3 3 3 3 3 3 3 3 3 3 3 3 3 3 3 3 3 3 3 3 3 3 3 3 3 3 3 3 3 3 3 3 3 3 3 3 3 3 3 3 3 3 3 3 3 3 3 3 3 3 3 3 3 3 3 3 3 3 3 3 3 3 3 3 3 3 3 3 3 3 3 3 3 3 3 3 3 3 3 3 3 3 3 3 3 3 3 3 3 3 3 3 3 3 3 3 3 3 3 3 3 3 3 3 3 3 3 3 3 3 3 3 3 3 3 3 3 3 3 3 3 3 3 3 3 3 3 3 3 3 3 3 3 3 3 3 3 3 3 3 3 3 3 3 3 3 3 3 3 3 3 3 3 3 3 3 3 3 3 3 3 3 3 3 3 3 3 3 3 3 3 3 3 3 3 3 3 3 3 3 3 3 3 3 3 3 3 3 3 3 3 3 3 3 3 3 3 3 3 3 3 3 3 3 3 3 3 3 3 3 3 3 3 3 3 3 3 3 3 3 3 3 3 3 3 3 3 3 3 3 3 3 3 3 3 3 3 3 3 3 3 3 3 3 3 3 3 3 3 3 3 3 3 3 3 3 3 3 3 3 3 3 3 3 3 3 3 3 3 3 3 3 3 3 3 3 3 3 3 3 3 3 3 3 3 3 3 3 3 3 3 3 3 3 3 3 3 3 3 3 3 3 3 3 3 3 3 3 3 3 3 3 3 3 3 3 3 3 3 3 3 3 3 3 3 3 3 3 3 3 3 3 3 3 3 3 3 3 3 3 3 3 3 3 3 3 3 3 3 3 3 3 3 3 3 3 3 3 3 3 3 3 3 3 3 3 3 3 3 3 3 3 3 3 3 3 3 3 3 3 3 3 3 3 3 3 3 3 3 3 3 3 3 3 3 3 3 3 3 3 3 3 3 3 3 3 3 3 3 3 3 3 3 3 3 3 3 3 3 3 3 3 3 3 3 3 3 3 3 3 3 3 3 3 3 3 3 3 3 3 3 3 3 3 3 3 3 3 3 3 3 3 3 3 3 3 3 3 3 3 3 3 3 3 3 3 3 3 3 3 3 3 3 3 3 3 3 3 3 3 3 3 3 3 3 3 3 3 3 3 3 3 3 3 3 3 3 3 3 3 3 3 3 3 3 3 3 3 3 3 3 3 3 3 3 3 3 3 3 3 3 3 3 3 3 3 3 3 3 3 3 3 3 3 3 3 3 3 3 3 3 3 3 </DataArray>
</CellData>
</Piece>
</UnstructuredGrid>
</VTKFile>