<?xml version="1.0"?>
<VTKFile type="UnstructuredGrid"  version="0.1"  >
<UnstructuredGrid>
<Piece  NumberOfPoints="587" NumberOfCells="5139">
<Points>
<DataArray  type="Float64"  NumberOfComponents="3"  format="ascii">45 30 0  45 32.5 2.5  45 32.5 0  42.5 32.5 2.5  42.5 32.5 0  45 35 0  45 35 2.5  45 35 5  40 35 0  42.5 35 2.5  42.5 35 0  40 35 2.5  40 35 5  42.5 35 5  50 35 0  50 35 2.5  50 32.5 2.5  47.5 32.5 2.5  50 32.5 0  47.5 32.5 0  50 35 5  50 32.5 5  47.5 32.5 5  47.5 35 2.5  47.5 35 0  47.5 35 5  30 35 0  30 37.5 2.5  30 37.5 0  27.5 37.5 2.5  30 40 0  30 40 2.5  30 40 5  30 35 2.5  30 35 5  30 37.5 5  27.5 37.5 5  27.5 40 2.5  27.5 40 5  32.5 37.5 2.5  32.5 37.5 0  32.5 35 0  35 35 0  35 37.5 2.5  35 37.5 0  35 40 0  35 40 2.5  35 40 5  32.5 35 2.5  35 35 2.5  35 35 5  35 37.5 5  32.5 37.5 5  32.5 35 5  32.5 40 2.5  32.5 40 0  32.5 40 5  37.5 37.5 2.5  37.5 37.5 0  37.5 35 0  40 37.5 2.5  40 37.5 0  40 40 0  40 40 2.5  40 40 5  37.5 35 2.5  40 37.5 5  37.5 37.5 5  37.5 35 5  37.5 40 2.5  37.5 40 0  37.5 40 5  42.5 37.5 2.5  42.5 37.5 0  45 37.5 2.5  45 37.5 0  45 40 0  45 40 2.5  45 40 5  45 37.5 5  42.5 37.5 5  42.5 40 2.5  42.5 40 0  42.5 40 5  47.5 37.5 2.5  47.5 37.5 0  50 37.5 2.5  50 37.5 0  50 40 0  50 40 2.5  50 40 5  50 37.5 5  47.5 37.5 5  47.5 40 2.5  47.5 40 0  47.5 40 5  30 42.5 2.5  30 42.5 0  27.5 42.5 2.5  30 45 0  30 45 2.5  30 45 5  30 42.5 5  27.5 42.5 5  32.5 42.5 2.5  32.5 42.5 0  35 42.5 2.5  35 42.5 0  35 45 0  35 45 2.5  35 45 5  35 42.5 5  32.5 42.5 5  32.5 45 2.5  32.5 45 0  32.5 45 5  37.5 42.5 2.5  37.5 42.5 0  40 42.5 2.5  40 42.5 0  40 45 0  40 45 2.5  40 45 5  40 42.5 5  37.5 42.5 5  37.5 45 2.5  37.5 45 0  37.5 45 5  42.5 42.5 2.5  42.5 42.5 0  45 42.5 2.5  45 42.5 0  45 45 0  45 45 2.5  45 45 5  45 42.5 5  42.5 42.5 5  42.5 45 2.5  42.5 45 0  42.5 45 5  47.5 42.5 2.5  47.5 42.5 0  50 42.5 2.5  50 42.5 0  50 45 0  50 45 2.5  50 45 5  50 42.5 5  47.5 42.5 5  47.5 45 2.5  47.5 45 0  47.5 45 5  32.5 47.5 2.5  32.5 47.5 0  35 47.5 2.5  35 47.5 0  35 50 0  35 50 2.5  35 50 5  35 47.5 5  32.5 47.5 5  32.5 50 2.5  32.5 50 0  32.5 50 5  37.5 47.5 2.5  37.5 47.5 0  40 47.5 2.5  40 47.5 0  40 50 0  40 50 2.5  40 50 5  40 47.5 5  37.5 47.5 5  37.5 50 2.5  37.5 50 0  37.5 50 5  42.5 47.5 2.5  42.5 47.5 0  45 47.5 2.5  45 47.5 0  45 50 0  45 50 2.5  45 50 5  45 47.5 5  42.5 47.5 5  42.5 50 2.5  42.5 50 0  42.5 50 5  47.5 47.5 2.5  47.5 47.5 0  50 47.5 2.5  50 47.5 0  50 50 0  50 50 2.5  50 50 5  50 47.5 5  47.5 47.5 5  47.5 50 2.5  47.5 50 0  47.5 50 5  50 35 7.5  50 32.5 7.5  47.5 32.5 7.5  50 35 10  50 32.5 10  47.5 32.5 10  47.5 35 7.5  45 35 10  47.5 35 10  45 35 7.5  30 37.5 7.5  27.5 37.5 7.5  30 40 7.5  30 40 10  27.5 40 7.5  32.5 37.5 7.5  35 37.5 7.5  35 40 7.5  35 40 10  32.5 40 7.5  32.5 40 10  37.5 37.5 7.5  40 37.5 7.5  40 40 7.5  40 40 10  40 35 7.5  40 35 10  40 37.5 10  37.5 37.5 10  37.5 40 7.5  37.5 40 10  42.5 37.5 7.5  45 37.5 7.5  45 40 7.5  45 40 10  42.5 35 7.5  45 37.5 10  42.5 37.5 10  42.5 35 10  42.5 40 7.5  42.5 40 10  47.5 37.5 7.5  50 37.5 7.5  50 40 7.5  50 40 10  50 37.5 10  47.5 37.5 10  47.5 40 7.5  47.5 40 10  30 42.5 7.5  27.5 42.5 7.5  30 45 7.5  30 45 10  30 42.5 10  32.5 42.5 7.5  35 42.5 7.5  35 45 7.5  35 45 10  35 42.5 10  32.5 42.5 10  32.5 45 7.5  32.5 45 10  37.5 42.5 7.5  40 42.5 7.5  40 45 7.5  40 45 10  40 42.5 10  37.5 42.5 10  37.5 45 7.5  37.5 45 10  42.5 42.5 7.5  45 42.5 7.5  45 45 7.5  45 45 10  45 42.5 10  42.5 42.5 10  42.5 45 7.5  42.5 45 10  47.5 42.5 7.5  50 42.5 7.5  50 45 7.5  50 45 10  50 42.5 10  47.5 42.5 10  47.5 45 7.5  47.5 45 10  32.5 47.5 7.5  35 47.5 7.5  35 50 7.5  35 50 10  35 47.5 10  32.5 47.5 10  32.5 50 7.5  32.5 50 10  37.5 47.5 7.5  40 47.5 7.5  40 50 7.5  40 50 10  40 47.5 10  37.5 47.5 10  37.5 50 7.5  37.5 50 10  42.5 47.5 7.5  45 47.5 7.5  45 50 7.5  45 50 10  45 47.5 10  42.5 47.5 10  42.5 50 7.5  42.5 50 10  47.5 47.5 7.5  50 47.5 7.5  50 50 7.5  50 50 10  50 47.5 10  47.5 47.5 10  47.5 50 7.5  47.5 50 10  32.5 47.5 12.5  35 47.5 12.5  35 50 12.5  35 50 15  32.5 50 12.5  32.5 50 15  37.5 47.5 12.5  37.5 50 12.5  40 50 12.5  40 50 15  37.5 50 15  35 40 12.5  35 37.5 12.5  32.5 37.5 12.5  35 40 15  35 37.5 15  32.5 37.5 15  32.5 40 12.5  30 40 15  32.5 40 15  30 40 12.5  32.5 42.5 12.5  35 42.5 12.5  35 45 12.5  35 45 15  35 42.5 15  32.5 42.5 15  32.5 45 12.5  32.5 45 15  37.5 42.5 12.5  37.5 42.5 15  37.5 45 15  40 45 15  37.5 45 12.5  35 47.5 15  32.5 47.5 15  37.5 47.5 15  40 47.5 15  35 40 17.5  35 37.5 17.5  32.5 37.5 17.5  35 40 20  35 37.5 20  32.5 37.5 20  32.5 40 17.5  30 40 20  32.5 40 20  30 37.5 20  37.5 40 20  37.5 37.5 20  37.5 37.5 17.5  40 40 20  37.5 40 17.5  32.5 42.5 17.5  35 42.5 17.5  35 45 17.5  35 45 20  35 42.5 20  32.5 42.5 20  32.5 45 17.5  32.5 45 20  37.5 42.5 17.5  37.5 42.5 20  40 42.5 20  40 45 20  37.5 45 17.5  40 45 17.5  37.5 45 20  35 47.5 17.5  32.5 47.5 17.5  35 50 17.5  35 50 20  35 47.5 20  32.5 47.5 20  32.5 50 17.5  32.5 50 20  37.5 47.5 17.5  40 47.5 17.5  40 50 17.5  40 50 20  40 47.5 20  37.5 47.5 20  37.5 50 17.5  37.5 50 20  35 40 22.5  35 37.5 22.5  32.5 37.5 22.5  32.5 40 22.5  30 40 22.5  37.5 40 22.5  37.5 37.5 22.5  40 40 22.5  32.5 42.5 22.5  35 42.5 22.5  35 45 22.5  32.5 45 22.5  37.5 42.5 22.5  40 42.5 22.5  40 45 22.5  37.5 45 22.5  35 47.5 22.5  32.5 47.5 22.5  35 50 22.5  32.5 50 22.5  37.5 47.5 22.5  40 47.5 22.5  40 50 22.5  37.5 50 22.5  45 35 12.5  45 32.5 12.5  42.5 32.5 12.5  45 35 15  42.5 35 12.5  40 35 12.5  40 35 15  42.5 35 15  50 35 12.5  50 32.5 12.5  47.5 32.5 12.5  50 35 15  47.5 35 12.5  47.5 35 15  40 37.5 12.5  37.5 37.5 12.5  40 40 12.5  40 40 15  40 37.5 15  37.5 37.5 15  37.5 40 12.5  37.5 40 15  42.5 37.5 12.5  45 37.5 12.5  45 40 12.5  45 40 15  45 37.5 15  42.5 37.5 15  42.5 40 12.5  42.5 40 15  47.5 37.5 12.5  50 37.5 12.5  50 40 12.5  50 40 15  50 37.5 15  47.5 37.5 15  47.5 40 12.5  47.5 40 15  40 42.5 12.5  40 45 12.5  40 42.5 15  42.5 42.5 12.5  45 42.5 12.5  45 45 12.5  45 45 15  45 42.5 15  42.5 42.5 15  42.5 45 12.5  42.5 45 15  47.5 42.5 12.5  50 42.5 12.5  50 45 12.5  50 45 15  50 42.5 15  47.5 42.5 15  47.5 45 12.5  47.5 45 15  40 47.5 12.5  42.5 47.5 12.5  45 47.5 12.5  45 50 12.5  45 50 15  45 47.5 15  42.5 47.5 15  42.5 50 12.5  42.5 50 15  47.5 47.5 12.5  50 47.5 12.5  50 50 12.5  50 50 15  50 47.5 15  47.5 47.5 15  47.5 50 12.5  47.5 50 15  40 37.5 17.5  40 40 17.5  40 35 17.5  40 35 20  40 37.5 20  42.5 37.5 17.5  45 37.5 17.5  45 40 17.5  45 40 20  45 35 17.5  45 35 20  45 37.5 20  42.5 37.5 20  42.5 40 17.5  42.5 40 20  47.5 37.5 17.5  50 37.5 17.5  50 40 17.5  50 40 20  50 37.5 20  47.5 37.5 20  47.5 40 17.5  47.5 40 20  40 42.5 17.5  42.5 42.5 17.5  45 42.5 17.5  45 45 17.5  45 45 20  45 42.5 20  42.5 42.5 20  42.5 45 17.5  42.5 45 20  47.5 42.5 17.5  50 42.5 17.5  50 45 17.5  50 45 20  50 42.5 20  47.5 42.5 20  47.5 45 17.5  47.5 45 20  42.5 47.5 17.5  45 47.5 17.5  45 50 17.5  45 50 20  45 47.5 20  42.5 47.5 20  42.5 50 17.5  42.5 50 20  47.5 47.5 17.5  50 47.5 17.5  50 50 17.5  50 50 20  50 47.5 20  47.5 47.5 20  47.5 50 17.5  47.5 50 20  40 37.5 22.5  40 35 22.5  45 37.5 22.5  42.5 37.5 22.5  45 40 22.5  42.5 40 22.5  50 40 22.5  50 37.5 22.5  47.5 37.5 22.5  50 40 25  47.5 40 22.5  42.5 42.5 22.5  45 42.5 22.5  45 45 22.5  45 45 25  42.5 45 22.5  47.5 42.5 22.5  50 42.5 22.5  50 45 22.5  50 45 25  50 42.5 25  47.5 45 22.5  47.5 45 25  42.5 47.5 22.5  45 47.5 22.5  45 50 22.5  42.5 50 22.5  47.5 47.5 22.5  50 47.5 22.5  50 50 22.5  47.5 50 22.5  </DataArray>
</Points>
<Cells>
[...]
<CellData  Scalars="f">
<DataArray  type="Float64"  Name="f"  format="ascii">3 3 3 3 3 3 3 3 3 3 3 3 3 3 3 3 3 3 3 3 3 3 3 3 3 3 3 3 3 3 3 3 3 3 3 3 3 3 3 3 3 3 3 3 3 3 3 3 3 3 3 3 3 3 3 3 3 3 3 3 3 3 3 3 3 3 3 3 3 3 3 3 3 3 3 3 3 3 3 3 3 3 3 3 3 3 3 3 3 3 3 3 3 3 3 3 3 3 3 3 3 3 3 3 3 3 3 3 3 3 3 3 3 3 3 3 3 3 3 3 3 3 3 3 3 3 3 3 3 3 3 3 3 3 3 3 3 3 3 3 3 3 3 3 3 3 3 3 3 3 3 3 3 3 3 3 3 3 3 3 3 3 3 3 3 3 3 3 3 3 3 3 3 3 3 3 3 3 3 3 3 3 3 3 3 3 3 3 3 3 3 3 3 3 3 3 3 2 3 3 3 2 3 2 3 3 3 3 3 3 3 3 3 3 3 3 3 3 2 3 2 3 3 3 3 2 3 3 3 3 3 2 3 3 3 3 3 3 3 3 3 3 3 2 3 3 3 3 3 3 3 3 3 3 3 3 3 2 3 3 2 3 2 3 3 3 2 3 3 3 3 3 3 3 3 3 3 3 3 3 3 3 3 3 3 3 3 3 3 3 3 3 3 3 3 3 3 3 3 3 3 3 3 3 3 3 3 3 3 3 3 3 3 3 3 3 3 3 3 3 3 3 3 3 3 3 3 3 3 3 3 3 3 3 3 3 3 3 3 3 3 3 3 3 3 3 3 3 3 3 3 3 3 3 3 3 3 3 3 3 3 3 3 3 3 3 3 3 3 3 3 3 3 3 3 3 3 3 3 3 3 3 3 3 3 3 3 3 3 3 3 3 3 3 3 3 3 3 3 3 3 3 3 3 3 3 3 3 3 3 3 3 3 3 3 3 3 3 3 3 3 3 3 3 3 3 3 3 3 3 3 3 3 3 3 3 3 3 3 3 3 3 3 3 3 3 3 3 3 3 3 3 3 3 3 3 3 3 3 3 3 3 3 3 3 3 3 3 3 3 3 3 3 3 3 3 3 3 3 3 3 3 3 3 3 3 3 3 3 3 3 3 3 3 3 3 3 3 3 3 3 3 3 3 3 3 3 3 3 3 3 3 3 3 3 3 3 3 3 3 3 3 3 3 3 3 3 3 3 3 3 3 3 3 3 3 3 3 3 3 3 3 3 3 3 3 3 3 3 3 3 3 3 3 3 3 3 3 3 3 3 3 3 3 3 3 3 3 3 3 3 3 3 3 3 3 3 3 3 3 3 3 3 3 3 3 3 3 3 3 3 3 3 3 3 3 3 3 3 3 3 3 3 3 3 3 3 3 3 3 3 3 3 3 3 3 3 3 3 3 3 3 3 3 3 3 3 3 3 3 3 3 3 3 3 3 3 3 3 3 3 3 3 3 3 3 3 3 3 3 3 3 3 3 3 3 3 3 3 3 3 3 3 3 3 3 3 3 3 3 3 3 3 3 3 3 3 3 3 3 3 3 3 3 3 3 3 3 3 3 3 3 3 3 3 3 3 3 3 3 3 3 3 3 3 3 3 3 3 3 3 3 3 3 3 3 3 3 3 3 3 3 3 3 3 3 3 3 3 3 3 3 3 3 3 3 3 3 3 3 3 3 3 3 3 3 3 3 3 3 3 3 3 3 3 3 3 3 3 3 3 3 3 3 3 3 3 3 3 3 3 3 3 3 3 3 3 3 3 3 3 3 3 3 3 3 3 3 3 3 3 3 3 3 3 3 3 3 3 3 3 3 3 3 3 3 3 3 3 3 3 3 3 3 3 3 3 3 3 3 3 3 3 3 3 3 3 3 3 3 3 3 3 3 3 3 3 3 3 3 3 3 3 3 3 3 3 3 3 3 3 3 3 3 3 3 3 3 3 3 3 3 3 3 3 3 3 3 3 3 3 3 3 3 3 3 3 3 3 3 3 3 3 3 3 3 3 3 3 3 3 3 3 3 3 3 3 3 3 3 3 3 3 3 3 3 3 3 3 3 3 3 3 3 3 3 3 3 3 3 3 3 3 3 3 3 3 3 3 3 3 3 3 3 3 3 3 3 3 3 3 3 3 3 3 3 3 3 3 3 3 3 3 3 3 3 3 3 3 3 3 3 3 3 3 3 3 3 3 3 3 3 3 3 3 3 3 2 2 2 2 3 3 2 3 3 3 3 3 3 3 3 2 3 3 2 3 3 3 3 2 3 3 3 3 3 3 3 3 3 3 3 3 2 3 3 2 3 3 3 3 2 3 3 2 3 3 3 3 3 3 3 3 3 3 3 3 3 3 3 3 3 3 3 3 3 3 3 3 3 3 3 3 3 3 3 3 3 3 3 3 3 3 3 3 3 3 3 3 3 3 3 3 3 3 3 3 3 3 3 3 3 3 3 3 3 3 3 3 3 3 3 3 3 3 3 3 3 3 3 3 3 3 3 3 3 3 3 3 3 3 3 3 3 3 3 3 3 3 3 3 3 3 3 3 3 3 3 3 3 3 3 3 3 3 3 3 3 3 3 3 3 3 3 3 3 3 3 3 3 3 3 3 3 3 3 3 3 3 3 3 3 3 3 3 3 3 3 3 3 3 3 3 3 3 3 3 3 3 3 3 3 3 3 3 3 3 3 3 3 3 3 3 3 3 3 3 3 3 3 3 3 3 3 3 3 3 3 3 3 3 3 3 3 3 3 3 3 3 3 3 3 3 3 3 3 3 3 3 3 3 3 3 3 3 3 3 3 3 3 3 3 3 3 3 3 3 3 3 3 3 3 3 3 3 3 3 3 3 3 3 3 3 3 3 3 3 3 3 3 3 3 3 3 3 3 3 3 3 3 3 3 3 3 3 3 3 3 3 3 3 3 3 3 3 3 3 3 3 3 3 3 3 3 3 3 3 3 3 3 3 3 3 3 3 3 3 3 3 3 3 3 3 3 3 3 3 3 3 3 3 3 3 3 3 3 3 3 3 3 3 3 3 3 3 3 3 3 3 3 3 3 3 3 3 3 3 3 3 3 3 3 3 3 3 3 3 3 3 3 3 3 3 3 3 3 3 3 3 3 3 3 3 3 3 3 3 3 3 3 3 3 3 3 3 3 3 3 3 3 3 3 3 3 3 3 3 3 3 3 3 3 3 3 3 3 3 3 3 3 3 3 3 3 3 3 3 3 3 3 3 3 3 3 3 3 3 3 3 3 3 3 3 3 3 3 3 3 3 3 3 3 3 3 3 3 3 3 3 3 3 3 3 3 3 3 3 3 3 3 3 3 3 3 3 3 3 3 3 3 3 3 3 3 3 3 3 3 3 3 3 3 3 3 3 3 3 3 3 3 3 3 3 3 3 3 3 3 3 3 3 3 3 3 3 3 3 3 3 3 3 3 3 3 3 3 3 3 3 3 3 3 3 3 3 3 3 3 3 3 3 3 3 3 3 3 3 3 3 3 3 3 3 3 3 3 3 3 3 3 3 3 3 3 3 3 3 3 2 2 2 2 3 3 2 3 3 3 3 3 3 3 3 2 3 3 2 3 3 3 3 2 3 3 3 3 3 3 3 3 3 3 3 3 2 3 3 2 3 3 3 3 2 3 3 2 3 3 3 3 3 3 3 3 3 3 3 3 3 3 3 3 3 3 3 3 3 3 3 3 3 3 3 3 3 3 3 3 3 3 3 3 3 3 3 3 3 3 3 3 3 3 3 3 3 3 3 3 3 3 3 3 3 3 3 3 3 3 3 3 3 3 3 3 3 3 3 3 3 3 3 3 3 3 3 3 3 3 3 3 3 3 3 3 3 3 3 3 3 3 3 3 3 3 3 3 3 3 3 3 3 3 3 3 3 3 3 3 3 3 3 3 3 3 3 3 3 3 3 3 3 3 3 3 3 3 3 3 3 3 3 3 3 3 3 3 3 3 3 3 3 3 3 3 3 3 3 3 3 3 3 3 3 3 3 3 3 3 3 3 3 3 3 3 3 3 3 3 3 3 3 3 3 3 3 3 3 3 3 3 3 3 3 3 3 3 3 3 3 3 3 3 3 3 3 3 3 3 3 3 3 3 3 3 3 3 3 3 3 3 3 3 3 3 3 3 3 3 3 3 3 3 3 3 3 3 3 3 3 3 3 3 3 3 3 3 3 3 3 3 3 3 3 3 3 3 3 3 3 3 3 3 3 3 3 3 3 3 3 3 3 3 3 3 3 3 3 3 3 3 3 3 3 3 3 3 3 3 3 3 3 3 3 3 2 2 2 2 3 3 3 3 3 2 3 3 3 3 3 3 3 3 2 3 3 3 3 3 3 2 3 3 3 3 2 3 3 3 3 2 3 3 3 3 3 3 3 3 3 3 3 3 3 2 3 3 3 3 3 3 3 3 3 3 3 3 3 2 3 3 2 3 2 3 3 3 2 3 3 3 3 3 3 3 3 3 3 3 3 3 3 3 3 3 3 3 3 3 3 3 3 3 3 3 3 3 3 3 3 3 3 3 3 3 3 3 3 3 3 3 3 3 3 3 3 3 3 3 3 3 3 3 3 3 3 3 3 3 3 3 3 3 3 3 3 3 3 3 3 3 3 3 3 3 3 3 3 3 3 3 3 3 3 3 3 3 3 3 3 3 3 3 3 3 3 3 3 3 3 3 3 3 3 3 3 3 3 3 3 3 3 3 3 3 3 3 3 3 3 3 3 3 3 3 3 3 3 3 3 3 3 3 3 3 3 3 3 3 3 3 3 3 3 3 3 3 3 3 3 3 3 3 3 3 3 3 3 3 3 3 3 3 3 3 3 3 3 3 3 3 3 3 3 3 3 3 3 3 3 3 3 3 3 3 3 3 3 3 3 3 3 3 3 3 3 3 3 3 3 3 3 3 3 3 3 3 3 3 3 3 3 3 3 3 3 3 3 3 3 3 3 3 3 3 3 3 3 3 3 3 3 3 3 3 3 3 3 3 3 3 3 3 3 3 3 3 3 3 3 3 3 3 3 3 3 3 3 3 3 3 3 3 3 3 3 3 3 3 3 3 3 3 3 3 3 3 3 3 3 3 3 3 3 3 3 3 3 3 3 3 3 3 3 3 3 3 3 3 3 3 3 3 3 3 3 3 3 3 3 3 3 3 3 3 3 3 3 3 3 3 3 3 3 3 3 3 3 3 3 3 3 3 3 3 3 3 3 3 3 3 3 3 3 3 3 3 3 3 3 3 3 3 3 3 3 3 3 3 3 3 3 3 3 3 3 3 3 3 3 3 3 3 3 3 3 3 3 3 3 3 3 3 3 3 3 3 3 3 3 3 3 3 3 3 3 3 3 3 3 3 3 3 3 3 3 3 3 3 3 3 3 3 3 3 3 3 3 3 3 3 3 3 3 3 3 3 3 3 2 2 3 3 2 3 3 3 3 2 3 3 3 3 3 3 3 3 3 3 3 3 2 3 3 2 3 3 3 3 2 3 3 2 3 3 3 3 3 3 3 3 3 3 3 3 3 3 3 3 3 3 3 3 3 3 3 3 3 3 3 3 3 3 3 3 3 3 3 3 3 3 3 3 3 3 3 3 3 3 3 3 3 3 3 3 3 3 3 3 3 3 3 3 3 3 3 3 3 3 3 3 3 3 3 3 3 3 3 3 3 3 3 3 3 3 3 3 3 3 3 3 3 3 3 3 3 3 3 3 3 3 3 3 3 3 3 3 3 3 3 3 3 3 3 3 3 3 3 3 3 3 3 3 3 3 3 3 3 3 3 3 3 3 3 3 3 3 3 3 3 3 3 3 3 3 3 3 3 3 3 3 3 3 3 3 3 3 3 3 3 3 3 3 3 3 3 3 3 3 3 3 3 3 3 3 3 3 3 3 3 3 3 3 3 3 3 3 3 3 3 3 3 3 3 3 3 3 3 3 3 3 3 3 3 3 3 3 3 3 3 3 3 3 3 3 3 3 3 3 3 3 3 3 3 3 3 3 3 3 3 3 3 3 3 3 3 3 3 3 3 3 3 3 3 3 3 3 3 3 3 3 3 3 3 3 3 3 3 3 3 3 3 3 3 3 3 3 3 3 3 3 3 3 3 3 3 3 3 3 3 3 3 3 3 3 3 3 3 3 3 3 3 3 3 3 3 3 3 3 3 3 3 3 3 3 3 3 3 3 3 3 3 3 3 3 3 3 3 3 3 3 3 3 3 3 3 3 3 3 3 3 3 3 3 3 3 3 3 3 3 3 3 3 3 3 3 3 3 3 2 2 3 3 2 3 3 3 3 2 3 3 3 3 3 3 3 3 3 3 3 3 2 3 3 2 3 3 3 3 2 3 3 2 3 3 3 3 3 3 3 3 3 3 3 3 3 3 3 3 3 3 3 3 3 3 3 3 3 3 3 3 3 3 3 3 3 3 3 3 3 3 3 3 3 3 3 3 3 3 3 3 3 3 3 3 3 3 3 3 3 3 3 3 3 3 3 3 3 3 3 3 3 3 3 3 3 3 3 3 3 3 3 3 3 3 3 3 3 3 3 3 3 3 3 3 3 3 3 3 3 3 3 3 3 3 3 3 3 3 3 3 3 3 3 3 3 3 3 3 3 3 3 3 3 3 3 3 3 3 3 3 3 3 3 3 3 3 3 3 3 3 3 3 3 3 3 3 3 3 3 3 3 3 3 3 3 3 3 3 3 3 3 3 3 3 3 3 3 3 3 3 3 3 3 3 3 3 3 3 3 3 3 3 3 3 3 3 3 3 3 3 3 3 2 2 3 3 3 2 3 3 3 3 3 3 3 3 2 3 3 3 3 3 3 3 3 3 3 3 3 3 3 3 3 3 3 3 3 3 3 3 3 3 3 3 3 3 3 3 3 3 3 3 3 3 3 3 3 3 3 3 3 3 3 3 3 3 3 3 3 3 3 3 3 3 3 3 3 3 3 3 3 3 3 3 3 3 3 3 3 3 3 3 3 3 3 3 3 3 3 3 3 3 3 3 3 3 3 3 3 3 3 3 3 3 3 3 3 3 3 3 3 3 3 3 3 3 3 3 3 3 3 3 3 3 3 3 3 3 3 3 3 3 3 3 3 3 3 3 3 3 3 3 3 3 3 3 3 3 3 3 3 3 3 3 3 3 3 3 3 3 3 3 3 3 3 3 3 3 3 3 3 3 3 3 3 3 3 3 3 3 3 3 3 3 3 3 3 3 3 3 3 3 3 3 3 3 3 3 3 3 3 3 3 3 3 3 3 3 3 3 3 3 3 3 3 3 3 3 3 3 3 3 3 3 3 3 3 3 3 3 3 3 3 3 3 3 3 3 3 3 3 3 3 3 3 3 3 3 3 3 3 3 3 3 3 3 3 3 3 3 3 3 3 3 3 3 3 3 3 3 3 3 3 3 3 3 3 3 3 3 3 3 3 3 3 3 3 3 3 3 3 3 3 3 3 3 3 3 3 3 3 3 3 3 3 3 3 3 3 3 3 3 3 3 3 3 3 3 3 3 3 3 3 3 3 3 3 3 3 3 3 3 3 3 3 3 3 3 3 3 3 3 3 3 3 3 3 3 3 3 3 3 3 3 3 3 3 3 3 3 3 3 3 3 3 3 3 3 3 3 3 3 3 3 3 3 3 3 3 3 3 3 3 3 3 3 3 3 3 3 3 3 3 3 3 3 3 3 3 3 3 3 3 3 3 3 3 3 3 3 3 3 3 3 3 3 3 3 3 3 3 3 3 3 3 3 3 3 3 3 3 3 3 3 3 3 3 3 3 3 3 3 3 3 3 3 3 3 3 3 3 3 3 3 3 3 3 3 3 3 3 3 3 3 3 3 3 3 3 3 3 3 3 3 3 3 3 3 3 3 3 3 3 3 3 3 3 3 3 3 3 3 3 3 3 3 3 3 3 3 3 3 3 3 3 3 3 3 3 3 3 3 3 3 3 3 3 3 3 3 3 3 3 3 3 3 3 3 3 3 3 3 3 3 3 3 3 3 3 3 3 3 3 3 3 3 3 3 3 3 3 3 3 3 3 3 3 3 3 3 3 3 3 3 3 3 3 3 3 3 3 3 3 3 3 3 3 3 3 3 3 3 3 3 3 3 3 3 3 3 3 3 3 3 3 3 3 3 3 3 3 3 3 3 3 3 3 3 3 3 3 3 3 3 3 3 3 3 3 3 3 3 3 3 3 3 3 3 3 3 3 3 3 3 3 3 3 3 3 3 3 3 3 3 3 3 3 3 3 3 3 3 3 3 3 3 3 3 3 3 3 3 3 3 3 3 3 3 3 3 3 3 3 3 3 3 3 3 3 3 3 3 3 3 3 3 3 3 3 3 3 3 3 3 3 3 3 3 3 3 3 3 3 3 3 3 3 3 3 3 3 3 3 3 3 3 3 3 3 3 3 3 3 3 3 3 3 3 3 3 3 3 3 3 3 3 3 3 3 3 3 3 3 3 3 3 3 3 3 3 3 3 3 3 3 3 3 3 3 3 3 3 3 3 3 3 3 3 3 3 3 3 3 3 3 3 3 3 3 3 3 3 3 3 3 3 3 3 3 3 3 3 3 3 3 3 3 3 3 3 3 3 3 3 3 3 3 3 3 3 3 3 3 3 3 3 3 3 3 3 3 3 3 3 3 3 3 3 3 3 3 3 3 3 3 3 3 3 3 3 3 3 3 3 3 3 3 3 3 3 3 3 3 3 3 3 3 3 3 3 3 3 3 3 3 3 3 3 3 3 3 3 3 3 3 3 3 3 3 3 3 3 3 3 3 3 3 3 3 3 3 3 3 3 3 3 3 3 3 3 3 3 3 3 3 3 3 3 3 3 3 3 3 3 3 3 3 3 3 3 3 3 3 3 3 3 3 3 3 3 3 3 3 3 3 3 3 3 3 3 3 3 3 3 3 3 3 3 3 3 3 3 3 3 3 3 3 3 3 3 3 3 3 3 3 3 3 3 3 3 3 3 3 3 3 3 3 3 3 3 3 3 3 3 3 3 3 3 3 3 3 3 3 3 3 3 3 3 3 3 3 3 3 3 3 3 3 3 3 3 3 3 3 3 3 3 3 3 3 3 3 3 3 3 3 3 3 3 3 3 3 3 3 3 3 3 3 3 3 3 3 3 3 3 3 3 3 3 3 3 3 3 3 3 3 3 3 3 3 3 3 3 3 3 3 3 3 3 3 3 3 3 3 3 3 3 3 3 3 3 3 3 3 3 3 3 3 3 3 3 3 3 3 3 3 3 3 3 3 3 3 3 3 3 3 3 3 3 3 3 3 3 3 2 3 3 3 3 2 3 3 3 3 3 3 3 3 3 3 3 3 3 3 2 3 3 2 3 3 3 3 3 3 3 3 3 3 3 3 3 3 3 3 3 3 3 3 3 3 3 3 3 3 3 3 3 3 3 3 3 3 3 3 3 3 3 3 3 3 3 3 3 3 3 3 3 3 3 3 3 3 3 3 3 3 3 3 3 3 3 3 3 3 3 3 3 3 3 3 3 3 3 3 3 3 3 3 3 3 3 3 3 3 3 3 3 3 3 3 3 3 3 3 3 3 3 3 3 3 3 3 3 3 3 3 3 3 3 3 3 3 3 3 3 3 3 3 3 3 3 3 3 3 3 3 3 3 3 3 3 3 3 3 3 3 3 3 3 3 3 3 3 3 3 3 3 3 3 3 3 3 3 3 3 3 3 3 3 3 3 3 3 3 3 3 3 3 3 3 3 3 3 3 3 2 2 3 3 2 3 3 3 3 2 3 3 3 3 3 3 3 3 3 3 3 3 2 3 3 2 3 3 3 3 2 3 3 2 3 3 3 3 3 3 3 3 3 3 3 3 3 3 3 3 3 3 3 3 3 3 3 3 3 3 3 3 3 3 3 3 3 3 3 3 3 3 3 3 3 3 3 3 3 3 3 3 3 3 3 3 3 3 3 3 3 3 3 3 3 3 3 3 3 3 3 3 3 3 3 3 3 3 3 3 3 3 3 3 3 3 3 3 3 3 3 3 3 3 3 3 3 3 3 3 3 3 3 3 3 3 3 3 3 3 3 3 3 3 3 3 3 3 3 3 3 3 3 3 3 3 3 3 3 3 2 2 3 3 2 3 3 3 3 2 3 3 3 3 3 3 3 3 3 3 3 3 2 3 3 2 3 3 3 3 2 3 3 2 3 3 3 3 3 3 3 3 3 3 3 3 3 3 3 3 3 3 3 3 3 3 3 3 3 3 3 3 3 3 3 3 3 3 3 3 3 3 3 3 3 3 3 3 3 3 3 3 3 3 3 3 3 3 3 3 3 3 3 3 3 3 3 3 3 3 3 3 3 3 3 3 3 3 3 3 3 3 2 2 3 3 3 2 3 3 3 3 3 3 3 3 2 3 3 3 3 3 3 3 3 3 3 3 3 3 3 3 3 3 3 3 3 3 3 3 3 3 3 3 3 3 3 3 3 3 3 3 3 3 3 3 3 3 3 3 3 3 3 3 3 3 3 3 3 3 3 3 3 3 3 3 3 3 3 3 3 3 3 3 3 3 3 3 3 3 3 3 3 3 3 3 3 3 3 3 3 3 3 3 3 3 3 3 3 3 3 3 3 3 3 3 3 3 3 3 3 3 3 3 3 3 3 3 3 3 3 3 3 3 3 3 3 3 3 3 3 3 3 3 3 3 3 3 3 3 3 3 3 3 3 3 3 3 3 3 3 3 3 3 3 3 3 3 3 3 3 3 3 2 2 3 3 2 3 3 3 2 3 3 3 3 3 3 3 3 3 3 3 3 3 2 3 3 2 3 2 3 3 3 2 3 3 3 3 3 3 3 3 3 3 3 3 3 3 3 3 3 3 3 3 3 3 3 3 3 3 3 3 3 3 3 3 3 3 3 3 3 3 3 3 3 3 3 3 3 3 3 3 3 3 3 3 3 3 3 3 3 3 3 3 3 3 3 3 3 3 3 3 3 3 3 3 3 3 3 3 3 3 3 3 3 3 3 3 3 3 3 3 3 3 3 3 3 3 3 3 3 3 3 3 3 3 3 3 3 3 3 3 3 3 3 3 3 3 3 3 3 3 3 3 2 2 3 3 2 3 3 3 3 2 3 3 3 3 3 3 3 3 3 3 3 3 2 3 3 2 3 3 3 3 2 3 3 2 3 3 3 3 3 3 3 3 3 3 3 3 3 3 3 3 3 3 3 3 3 3 3 3 3 3 3 3 3 3 3 3 3 3 3 3 3 3 3 3 3 3 3 3 3 3 3 3 3 3 3 3 3 3 3 3 3 3 3 3 3 3 3 3 3 3 3 3 3 3 3 3 3 3 3 3 3 3 2 2 3 3 3 2 3 3 3 3 3 3 3 3 2 3 3 3 3 3 3 3 3 3 3 3 3 3 3 3 2 3 3 3 3 2 3 3 3 3 3 3 3 2 3 3 3 3 3 3 3 3 3 3 3 3 3 3 3 3 3 3 3 3 3 3 3 3 3 3 3 3 3 3 3 3 3 3 3 3 2 2 3 3 2 3 3 3 3 3 3 3 3 3 3 3 3 3 </DataArray>
</CellData>
</Piece>
</UnstructuredGrid>
</VTKFile>