<?xml version="1.0"?>
<VTKFile type="UnstructuredGrid"  version="0.1"  >
<UnstructuredGrid>
<Piece  NumberOfPoints="610" NumberOfCells="5342">
<Points>
<DataArray  type="Float64"  NumberOfComponents="3"  format="ascii">30 25 35  30 25 37.5  27.5 25 37.5  27.5 22.5 37.5  30 25 40  25 25 40  27.5 25 40  30 27.5 37.5  27.5 27.5 37.5  30 27.5 40  27.5 27.5 40  32.5 27.5 37.5  32.5 25 37.5  32.5 27.5 40  32.5 25 40  35 25 40  35 27.5 40  27.5 27.5 42.5  30 27.5 42.5  27.5 25 42.5  30 25 42.5  30 25 45  30 27.5 45  27.5 27.5 45  27.5 25 45  32.5 27.5 42.5  35 27.5 42.5  32.5 25 42.5  35 25 42.5  35 25 45  35 27.5 45  32.5 27.5 45  32.5 25 45  30 27.5 47.5  27.5 27.5 47.5  30 25 47.5  27.5 25 47.5  30 25 50  30 27.5 50  27.5 27.5 50  27.5 25 50  32.5 27.5 47.5  35 27.5 47.5  32.5 25 47.5  35 25 47.5  35 25 50  35 27.5 50  32.5 27.5 50  32.5 25 50  37.5 27.5 40  37.5 25 40  37.5 27.5 37.5  40 25 40  40 27.5 40  42.5 27.5 40  42.5 25 40  42.5 27.5 37.5  45 25 40  45 27.5 40  37.5 27.5 42.5  40 27.5 42.5  37.5 25 42.5  40 25 42.5  40 25 45  40 27.5 45  37.5 27.5 45  37.5 25 45  42.5 27.5 42.5  45 27.5 42.5  42.5 25 42.5  45 25 42.5  45 25 45  45 27.5 45  42.5 27.5 45  42.5 25 45  47.5 27.5 42.5  47.5 27.5 45  37.5 27.5 47.5  40 27.5 47.5  37.5 25 47.5  40 25 47.5  40 25 50  37.5 27.5 50  37.5 25 50  42.5 27.5 47.5  45 27.5 47.5  42.5 25 47.5  45 25 47.5  45 25 50  45 27.5 50  42.5 27.5 50  42.5 25 50  47.5 27.5 47.5  47.5 27.5 50  30 20 35  30 20 37.5  30 17.5 37.5  27.5 17.5 37.5  30 20 40  30 15 40  30 17.5 40  27.5 17.5 40  27.5 15 40  27.5 20 37.5  27.5 20 35  25 20 40  27.5 20 40  35 20 35  35 20 37.5  35 17.5 37.5  32.5 17.5 37.5  35 20 40  35 15 40  35 17.5 40  32.5 17.5 40  32.5 15 40  32.5 20 37.5  32.5 20 40  30 22.5 37.5  30 22.5 40  27.5 22.5 40  25 22.5 40  35 22.5 37.5  32.5 22.5 37.5  35 22.5 40  32.5 22.5 40  35 10 40  35 10 42.5  35 7.5 42.5  32.5 7.5 42.5  35 10 45  35 5 45  35 7.5 45  30 5 45  32.5 7.5 45  32.5 5 45  32.5 10 42.5  30 7.5 45  30 10 45  32.5 10 45  30 15 42.5  30 12.5 42.5  27.5 12.5 42.5  30 15 45  30 12.5 45  27.5 12.5 45  27.5 10 45  27.5 15 42.5  27.5 15 45  35 12.5 42.5  35 12.5 40  32.5 12.5 42.5  35 15 42.5  35 15 45  35 12.5 45  32.5 12.5 45  32.5 15 42.5  32.5 15 45  30 17.5 42.5  27.5 17.5 42.5  30 20 42.5  30 20 45  30 17.5 45  27.5 17.5 45  27.5 20 42.5  27.5 20 45  32.5 17.5 42.5  35 17.5 42.5  35 20 42.5  35 20 45  35 17.5 45  32.5 17.5 45  32.5 20 42.5  32.5 20 45  27.5 22.5 42.5  30 22.5 42.5  30 22.5 45  27.5 22.5 45  32.5 22.5 42.5  35 22.5 42.5  35 22.5 45  32.5 22.5 45  35 0 45  35 2.5 47.5  35 2.5 45  32.5 2.5 47.5  35 5 47.5  35 5 50  35 0 47.5  35 0 50  35 2.5 50  32.5 2.5 50  32.5 5 47.5  30 5 50  32.5 5 50  30 5 47.5  30 7.5 47.5  27.5 7.5 47.5  30 10 47.5  30 10 50  30 7.5 50  27.5 7.5 50  27.5 10 47.5  27.5 10 50  32.5 7.5 47.5  35 7.5 47.5  35 10 47.5  35 10 50  35 7.5 50  32.5 7.5 50  32.5 10 47.5  32.5 10 50  30 12.5 47.5  27.5 12.5 47.5  30 15 47.5  30 15 50  30 12.5 50  27.5 12.5 50  27.5 15 47.5  27.5 15 50  32.5 12.5 47.5  35 12.5 47.5  35 15 47.5  35 15 50  35 12.5 50  32.5 12.5 50  32.5 15 47.5  32.5 15 50  30 17.5 47.5  27.5 17.5 47.5  30 20 47.5  30 20 50  30 17.5 50  27.5 17.5 50  27.5 20 47.5  27.5 20 50  32.5 17.5 47.5  35 17.5 47.5  35 20 47.5  35 20 50  35 17.5 50  32.5 17.5 50  32.5 20 47.5  32.5 20 50  30 22.5 47.5  27.5 22.5 47.5  30 22.5 50  27.5 22.5 50  32.5 22.5 47.5  35 22.5 47.5  35 22.5 50  32.5 22.5 50  45 5 40  45 5 37.5  45 2.5 37.5  42.5 2.5 37.5  45 0 40  45 2.5 40  45 0 37.5  42.5 0 37.5  40 0 40  42.5 2.5 40  42.5 0 40  42.5 5 37.5  40 2.5 40  40 5 40  42.5 5 40  50 5 40  50 5 37.5  50 2.5 37.5  47.5 2.5 37.5  50 0 40  50 2.5 40  50 0 37.5  47.5 0 37.5  47.5 2.5 40  47.5 0 40  47.5 5 37.5  47.5 5 40  40 10 40  40 10 37.5  40 7.5 37.5  37.5 7.5 37.5  40 7.5 40  37.5 7.5 40  37.5 10 37.5  37.5 10 40  45 10 40  45 10 37.5  45 7.5 37.5  42.5 7.5 37.5  45 7.5 40  42.5 7.5 40  42.5 10 37.5  42.5 10 40  50 10 40  50 10 37.5  50 7.5 37.5  47.5 7.5 37.5  50 7.5 40  47.5 7.5 40  47.5 10 37.5  47.5 10 40  40 15 35  40 15 37.5  40 12.5 37.5  37.5 12.5 37.5  40 15 40  40 12.5 40  37.5 12.5 40  37.5 15 37.5  37.5 15 40  45 15 35  45 15 37.5  45 12.5 37.5  42.5 12.5 37.5  45 15 40  45 12.5 40  42.5 12.5 40  42.5 15 37.5  42.5 15 35  42.5 15 40  50 15 35  50 15 37.5  50 12.5 37.5  47.5 12.5 37.5  50 15 40  50 12.5 40  47.5 12.5 40  47.5 15 37.5  47.5 15 35  47.5 15 40  40 17.5 37.5  37.5 17.5 37.5  40 17.5 40  40 20 40  37.5 17.5 40  37.5 20 40  37.5 20 37.5  42.5 17.5 37.5  45 17.5 37.5  45 17.5 40  45 20 40  42.5 17.5 40  42.5 20 40  42.5 20 37.5  47.5 17.5 37.5  50 17.5 37.5  50 17.5 40  50 20 40  47.5 17.5 40  47.5 20 40  37.5 22.5 37.5  37.5 22.5 40  40 22.5 40  42.5 22.5 40  42.5 22.5 37.5  45 22.5 40  40 2.5 42.5  37.5 2.5 42.5  40 5 42.5  40 5 45  40 0 42.5  37.5 0 42.5  40 0 45  40 2.5 45  37.5 2.5 45  37.5 0 45  37.5 5 42.5  37.5 5 45  42.5 2.5 42.5  45 2.5 42.5  45 5 42.5  45 5 45  42.5 0 42.5  45 0 42.5  45 0 45  45 2.5 45  42.5 2.5 45  42.5 0 45  42.5 5 42.5  42.5 5 45  47.5 2.5 42.5  50 2.5 42.5  50 5 42.5  50 5 45  47.5 0 42.5  50 0 42.5  50 0 45  50 2.5 45  47.5 2.5 45  47.5 0 45  47.5 5 42.5  47.5 5 45  40 7.5 42.5  37.5 7.5 42.5  40 10 42.5  40 10 45  40 7.5 45  37.5 7.5 45  37.5 10 42.5  37.5 10 45  42.5 7.5 42.5  45 7.5 42.5  45 10 42.5  45 10 45  45 7.5 45  42.5 7.5 45  42.5 10 42.5  42.5 10 45  47.5 7.5 42.5  50 7.5 42.5  50 10 42.5  50 10 45  50 7.5 45  47.5 7.5 45  47.5 10 42.5  47.5 10 45  37.5 12.5 42.5  40 12.5 42.5  40 15 42.5  40 15 45  40 12.5 45  37.5 12.5 45  37.5 15 42.5  37.5 15 45  42.5 12.5 42.5  45 12.5 42.5  45 15 42.5  45 15 45  45 12.5 45  42.5 12.5 45  42.5 15 42.5  42.5 15 45  47.5 12.5 42.5  50 12.5 42.5  50 15 42.5  50 15 45  50 12.5 45  47.5 12.5 45  47.5 15 42.5  47.5 15 45  37.5 17.5 42.5  40 17.5 42.5  40 20 42.5  40 20 45  40 17.5 45  37.5 17.5 45  37.5 20 42.5  37.5 20 45  42.5 17.5 42.5  45 17.5 42.5  45 20 42.5  45 20 45  45 17.5 45  42.5 17.5 45  42.5 20 42.5  42.5 20 45  47.5 17.5 42.5  50 17.5 42.5  50 20 42.5  50 20 45  50 17.5 45  47.5 17.5 45  47.5 20 42.5  47.5 20 45  37.5 22.5 42.5  40 22.5 42.5  40 22.5 45  37.5 22.5 45  42.5 22.5 42.5  45 22.5 42.5  45 22.5 45  42.5 22.5 45  50 25 45  50 25 42.5  50 22.5 42.5  47.5 22.5 42.5  50 22.5 45  47.5 22.5 45  47.5 25 42.5  47.5 25 45  50 27.5 45  50 27.5 42.5  37.5 2.5 47.5  40 2.5 47.5  40 5 47.5  40 5 50  37.5 0 47.5  40 0 47.5  40 0 50  40 2.5 50  37.5 2.5 50  37.5 0 50  37.5 5 47.5  37.5 5 50  42.5 2.5 47.5  45 2.5 47.5  45 5 47.5  45 5 50  42.5 0 47.5  45 0 47.5  45 0 50  45 2.5 50  42.5 2.5 50  42.5 0 50  42.5 5 47.5  42.5 5 50  47.5 2.5 47.5  50 2.5 47.5  50 5 47.5  50 5 50  47.5 0 47.5  50 0 47.5  50 0 50  50 2.5 50  47.5 2.5 50  47.5 0 50  47.5 5 47.5  47.5 5 50  37.5 7.5 47.5  40 7.5 47.5  40 10 47.5  40 10 50  40 7.5 50  37.5 7.5 50  37.5 10 47.5  37.5 10 50  42.5 7.5 47.5  45 7.5 47.5  45 10 47.5  45 10 50  45 7.5 50  42.5 7.5 50  42.5 10 47.5  42.5 10 50  47.5 7.5 47.5  50 7.5 47.5  50 10 47.5  50 10 50  50 7.5 50  47.5 7.5 50  47.5 10 47.5  47.5 10 50  37.5 12.5 47.5  40 12.5 47.5  40 15 47.5  40 15 50  40 12.5 50  37.5 12.5 50  37.5 15 47.5  37.5 15 50  42.5 12.5 47.5  45 12.5 47.5  45 15 47.5  45 15 50  45 12.5 50  42.5 12.5 50  42.5 15 47.5  42.5 15 50  47.5 12.5 47.5  50 12.5 47.5  50 15 47.5  50 15 50  50 12.5 50  47.5 12.5 50  47.5 15 47.5  47.5 15 50  37.5 17.5 47.5  40 17.5 47.5  40 20 47.5  40 20 50  40 17.5 50  37.5 17.5 50  37.5 20 47.5  37.5 20 50  42.5 17.5 47.5  45 17.5 47.5  45 20 47.5  45 20 50  45 17.5 50  42.5 17.5 50  42.5 20 47.5  42.5 20 50  47.5 17.5 47.5  50 17.5 47.5  50 20 47.5  50 20 50  50 17.5 50  47.5 17.5 50  47.5 20 47.5  47.5 20 50  37.5 22.5 47.5  40 22.5 47.5  40 22.5 50  37.5 22.5 50  42.5 22.5 47.5  45 22.5 47.5  45 22.5 50  42.5 22.5 50  47.5 22.5 47.5  50 22.5 47.5  50 25 47.5  50 25 50  50 22.5 50  47.5 22.5 50  47.5 25 47.5  47.5 25 50  50 27.5 47.5  50 27.5 50  </DataArray>
</Points>
<Cells>
[...]
<CellData  Scalars="f">
<DataArray  type="Float64"  Name="f"  format="ascii">3 3 3 3 3 3 3 3 3 3 3 3 3 3 3 3 3 3 3 3 3 3 3 3 3 3 3 3 3 3 3 3 3 3 3 3 3 3 3 3 3 3 3 3 3 3 3 3 3 3 3 3 3 3 3 3 3 3 3 3 3 3 3 3 3 3 3 3 3 3 3 3 3 3 3 3 3 3 3 3 3 3 3 3 3 3 3 3 3 3 3 3 3 3 3 3 3 3 3 3 3 3 3 3 3 3 3 3 3 3 3 3 3 3 3 3 3 3 3 3 3 3 3 3 3 3 3 3 3 3 3 3 3 3 3 3 3 3 3 3 3 3 3 3 3 3 3 3 3 3 3 3 3 3 3 3 3 3 3 3 3 3 3 3 3 3 3 3 3 3 3 3 3 3 3 3 3 3 3 3 3 3 3 3 3 3 3 3 3 3 3 3 3 3 3 3 3 3 3 3 3 3 3 3 3 3 3 3 3 3 3 3 3 3 3 3 3 3 3 3 3 3 3 3 3 3 3 3 3 3 3 3 3 3 3 3 3 3 3 3 3 3 3 3 3 3 3 3 3 3 3 3 3 3 3 3 3 3 3 3 3 3 3 3 3 3 3 3 3 3 3 3 3 3 3 3 3 3 3 3 3 3 3 3 3 3 3 3 3 3 3 3 3 3 3 3 3 3 3 3 3 3 3 3 3 3 3 3 3 3 3 3 3 3 3 3 3 3 3 3 3 3 3 3 3 3 3 3 3 3 3 3 3 3 3 3 3 3 3 3 3 3 3 3 3 3 3 3 3 3 3 3 3 3 3 3 3 3 3 3 3 3 3 3 3 3 3 3 3 3 3 3 3 3 3 3 3 3 3 3 3 3 3 3 3 3 3 3 3 3 3 3 3 3 3 3 3 3 3 3 3 3 3 3 3 3 3 3 3 3 3 3 3 3 3 3 3 3 3 3 3 3 3 3 3 3 3 3 3 3 3 3 3 3 3 3 3 3 3 3 3 3 3 3 3 3 3 3 3 3 3 3 3 3 3 3 3 3 3 3 3 3 3 3 3 3 3 3 3 3 3 3 3 3 3 3 3 3 3 3 3 3 3 3 3 3 3 3 3 3 3 3 3 3 3 3 3 3 3 3 3 3 3 3 3 3 3 3 3 3 3 3 3 3 3 3 3 3 3 3 3 3 3 3 3 3 3 3 3 3 3 3 3 3 3 3 3 3 3 3 3 3 3 3 3 3 3 3 3 3 3 3 3 3 3 3 3 3 3 3 3 3 3 3 3 3 3 3 3 3 3 3 3 3 3 3 3 3 3 3 3 3 3 3 3 3 3 3 3 3 3 3 3 3 3 3 3 3 3 3 3 3 3 3 3 3 3 3 3 3 3 3 3 3 3 3 3 3 3 3 3 3 3 3 3 3 3 3 3 3 3 3 3 3 3 3 3 3 3 3 3 3 3 3 3 3 3 3 3 3 3 3 3 3 3 3 3 3 3 3 3 3 3 3 3 3 3 3 3 3 3 3 3 3 3 3 3 3 3 3 3 3 3 3 3 3 3 3 3 3 3 3 3 3 3 3 3 3 3 3 3 3 3 3 3 3 3 3 3 3 3 3 3 3 3 3 3 3 3 3 3 3 3 3 3 3 3 3 3 3 3 3 3 3 3 3 3 3 3 3 3 3 3 3 3 3 3 3 3 3 3 3 3 3 3 3 3 3 3 3 3 3 3 3 3 3 3 3 3 3 3 3 3 3 3 3 3 3 3 3 3 3 3 3 3 3 3 3 3 3 3 3 3 3 3 3 3 3 3 3 3 3 3 3 3 3 3 3 3 3 3 3 3 3 3 3 3 3 3 3 3 3 3 3 3 3 3 3 3 3 3 3 3 3 3 3 3 3 3 3 3 3 3 3 3 3 3 3 3 3 3 3 3 3 3 3 3 3 3 3 3 3 3 3 3 3 3 3 3 3 3 3 3 3 3 3 3 3 3 3 3 3 3 3 3 3 3 3 3 3 3 3 3 3 3 3 3 3 3 3 3 3 3 3 3 3 3 3 3 3 3 3 3 3 3 3 3 3 3 3 3 3 3 3 3 3 3 3 3 3 3 3 3 3 3 3 3 3 3 3 3 3 3 3 3 3 3 3 3 3 3 3 3 3 3 3 3 3 3 3 3 3 3 3 3 3 3 3 3 3 3 3 3 3 3 3 3 3 3 3 3 3 3 3 3 3 3 3 3 3 3 3 3 3 3 3 3 3 3 3 3 3 3 3 3 3 3 3 3 3 3 3 3 3 3 3 3 3 3 3 3 3 3 3 3 3 3 3 3 3 3 3 3 3 3 3 3 3 3 3 3 3 3 3 3 3 3 3 3 3 3 3 3 3 3 3 3 3 3 3 3 3 3 3 3 3 3 3 3 3 3 3 3 3 3 3 3 3 3 3 3 3 3 3 3 3 3 3 3 3 3 3 3 3 3 3 3 3 3 3 3 3 3 3 3 3 3 3 3 3 3 3 3 3 3 3 3 3 3 3 3 3 3 3 3 3 3 3 3 3 3 3 3 3 3 3 3 3 3 3 3 3 3 3 3 3 3 3 3 3 3 3 3 3 3 3 3 3 3 3 3 3 3 3 3 3 3 3 3 3 3 3 3 3 3 3 3 3 3 3 3 3 3 3 3 3 3 3 3 3 3 3 3 3 3 3 3 3 3 3 3 3 3 3 3 3 3 3 3 3 3 3 3 3 3 3 3 3 3 3 3 3 3 3 3 3 3 3 3 3 3 3 3 3 3 3 3 3 3 3 3 3 3 3 3 3 3 3 3 3 3 3 3 3 3 3 3 3 3 3 3 3 3 3 3 3 3 3 3 3 3 3 3 3 3 3 3 3 3 3 3 3 3 3 3 3 3 3 3 3 3 3 3 3 3 3 3 3 3 3 3 3 3 3 3 3 3 3 3 3 3 3 3 3 3 3 3 3 3 3 3 3 3 3 3 3 3 3 3 3 3 3 3 3 3 3 3 3 3 3 3 3 3 3 3 3 3 3 3 3 3 3 3 3 3 3 3 3 3 3 3 3 3 3 3 3 3 3 3 3 3 3 3 3 3 3 3 3 3 3 3 3 3 3 3 3 3 3 3 3 3 3 3 3 3 3 3 3 3 3 3 3 3 3 3 3 3 3 3 3 3 3 3 3 3 3 3 3 3 3 3 3 3 3 3 3 3 3 3 3 3 3 3 3 3 3 3 3 3 3 3 3 3 3 3 3 3 3 3 3 3 3 3 3 3 3 3 3 3 3 3 3 3 3 3 3 3 3 3 3 3 3 3 3 3 3 3 3 3 3 3 3 3 3 3 3 3 3 3 3 3 3 3 3 3 3 3 3 3 3 3 3 3 3 3 3 3 3 3 3 3 3 3 3 3 3 3 3 3 3 3 3 3 3 3 3 3 3 3 3 3 3 3 3 3 3 3 3 3 3 3 3 3 3 3 3 3 3 3 3 3 3 3 3 3 3 3 3 3 3 3 3 3 3 3 3 3 3 3 3 3 3 3 3 3 3 3 3 3 3 3 3 3 3 3 3 3 3 3 3 3 3 3 3 3 3 3 3 3 3 3 3 3 3 3 3 3 3 3 3 3 3 3 3 3 3 3 3 3 3 3 3 3 3 3 3 3 3 3 3 3 3 3 3 3 3 3 3 3 3 3 3 3 3 3 3 3 3 3 3 3 3 3 3 3 3 3 3 3 3 3 3 3 3 3 3 3 3 3 3 3 3 3 3 3 3 3 3 3 3 3 3 3 3 3 3 3 3 3 3 3 3 3 3 3 3 3 3 3 3 3 3 3 3 3 3 3 3 3 3 3 3 3 3 3 3 3 3 3 3 3 3 3 3 3 3 3 3 3 3 3 3 3 3 3 3 3 3 3 3 3 3 3 3 3 3 3 3 3 3 3 3 3 3 3 3 3 3 3 3 3 3 3 3 3 3 3 3 3 3 3 3 3 3 3 3 3 3 3 3 3 3 3 3 3 3 3 3 3 3 3 3 3 3 3 3 3 3 3 3 3 3 3 3 3 3 3 3 3 3 3 3 3 3 3 3 3 3 3 3 3 3 3 3 3 3 3 3 3 3 3 3 3 3 3 3 3 3 3 3 3 3 3 3 3 3 3 3 3 3 3 3 3 3 3 3 3 3 3 3 3 3 3 3 3 3 3 3 3 3 3 3 3 3 3 3 3 3 3 3 3 3 3 3 3 3 3 3 3 3 3 3 3 3 3 3 3 3 3 3 3 3 3 3 3 3 3 3 3 3 3 3 3 3 3 3 3 3 3 3 3 3 3 3 3 3 3 3 3 3 3 3 3 3 3 3 3 3 3 3 3 3 3 3 3 3 3 3 3 3 3 3 3 3 3 3 3 3 3 3 3 3 3 3 3 3 3 3 3 3 3 3 3 3 3 3 3 3 3 3 3 3 3 3 3 3 3 3 3 3 3 3 3 3 3 3 3 3 3 3 3 3 3 3 3 3 3 3 3 3 3 3 3 3 3 3 3 3 3 3 3 3 3 3 3 3 3 3 3 3 3 3 3 3 3 3 3 3 3 3 3 3 3 3 3 3 3 3 3 3 3 3 3 3 3 3 3 3 3 3 3 3 3 3 3 3 3 3 3 3 3 3 3 3 3 3 3 3 3 3 3 3 3 3 3 3 3 3 3 3 3 3 3 3 3 3 3 3 3 3 3 3 3 3 3 3 3 3 3 3 3 3 3 3 3 3 3 3 3 3 3 3 3 3 3 3 3 3 3 3 3 3 3 3 3 3 3 3 3 3 3 3 3 3 3 3 3 3 3 3 3 3 3 3 3 3 3 3 3 3 3 3 3 3 3 3 3 3 3 3 3 3 3 3 3 3 3 3 3 3 3 3 3 3 3 3 3 3 3 3 3 3 3 3 3 3 3 3 3 3 3 3 3 3 3 3 3 3 3 3 3 3 3 3 3 3 3 3 3 3 3 3 3 3 3 3 3 3 3 3 3 3 3 3 3 3 3 3 3 3 3 3 3 3 3 3 3 3 3 3 3 3 3 3 3 3 3 3 3 3 3 3 3 3 3 3 3 3 3 3 3 3 3 3 3 3 3 3 3 3 3 3 3 3 3 3 3 3 3 3 3 3 3 3 3 3 3 3 3 3 3 3 3 3 3 3 3 3 3 3 3 3 3 3 3 3 3 3 3 3 3 3 3 3 3 3 3 3 3 3 3 3 3 3 3 3 3 3 3 3 3 3 3 3 3 3 3 3 3 3 3 3 3 3 3 3 3 3 3 3 3 3 3 3 3 3 3 3 3 3 3 3 3 3 3 3 3 3 3 3 3 3 3 3 3 3 3 3 3 3 3 3 3 3 3 3 3 3 3 3 3 3 3 3 3 3 3 3 3 3 3 3 3 3 3 3 3 3 3 3 3 3 3 3 3 3 3 3 3 3 3 3 3 3 3 3 3 3 3 3 3 3 3 3 3 3 3 3 3 3 3 3 3 3 3 3 3 3 3 3 3 3 3 3 3 3 3 3 3 3 3 3 3 3 3 3 3 3 3 3 3 3 3 3 3 3 3 3 3 3 3 3 3 3 3 3 3 3 3 3 3 3 3 3 3 3 3 3 3 3 3 3 3 3 3 3 3 3 3 3 3 3 3 3 3 3 3 3 3 3 3 3 3 3 3 3 3 3 3 3 3 3 3 3 3 3 3 3 3 3 3 3 3 3 3 3 3 3 3 3 3 3 3 3 3 3 3 3 3 3 3 3 3 3 3 3 3 3 3 3 3 3 3 3 3 3 3 3 3 3 3 3 3 3 3 3 3 3 3 3 3 3 3 3 3 3 3 3 3 3 3 3 3 3 3 3 3 3 3 3 3 3 3 3 3 3 3 3 3 3 3 3 3 3 3 3 3 3 3 3 3 3 3 3 3 3 3 3 3 3 3 3 3 3 3 3 3 3 3 3 3 3 3 3 3 3 3 3 3 3 3 3 3 3 3 3 2 3 3 2 3 3 2 3 3 3 3 3 3 2 3 3 3 3 3 3 3 3 3 3 2 3 3 3 3 2 3 3 3 3 2 3 3 2 3 3 3 3 3 3 3 3 3 2 2 3 3 3 3 3 3 3 3 3 3 3 3 3 2 3 3 3 3 3 3 3 3 3 2 3 3 3 3 3 3 3 3 3 3 3 3 3 3 3 3 3 3 3 3 3 3 3 3 3 3 3 3 3 3 3 3 3 3 3 3 3 3 3 3 3 3 3 3 3 3 3 3 3 3 3 3 3 3 3 3 3 3 3 3 3 3 3 3 3 3 3 3 3 3 3 3 3 3 3 3 3 3 3 3 3 3 3 3 3 3 3 3 3 3 3 3 3 3 3 3 3 3 3 3 3 3 3 3 3 3 3 3 3 3 3 3 3 3 3 3 3 3 3 3 3 3 3 3 3 3 3 3 3 3 3 3 3 3 3 3 3 3 3 3 3 3 3 3 3 3 3 3 3 3 3 3 3 3 3 3 3 3 3 3 3 3 3 3 3 3 3 3 3 3 3 3 3 3 3 3 3 3 3 3 3 3 3 3 3 3 3 3 3 3 3 3 3 3 3 3 3 3 3 3 3 3 3 2 3 3 2 3 3 2 3 3 3 3 3 3 2 3 3 3 3 3 3 3 3 3 3 2 3 3 3 3 2 3 3 3 3 2 3 3 2 3 3 3 3 3 3 3 3 3 3 3 3 3 3 3 3 3 3 3 3 3 3 3 3 3 3 3 3 3 3 3 3 3 3 3 3 3 3 3 3 3 3 3 3 3 3 3 3 3 3 3 3 3 3 3 3 3 3 3 3 3 3 3 3 3 3 3 3 3 3 3 3 3 3 3 3 3 3 3 3 3 3 3 3 3 3 3 3 3 3 3 3 3 3 3 3 3 3 3 3 3 3 3 3 3 3 3 3 3 3 3 3 3 3 3 3 3 3 3 3 3 3 3 3 3 3 3 3 3 3 3 3 3 3 3 3 3 3 3 3 3 3 3 3 3 3 3 3 3 3 3 3 3 3 3 3 3 3 3 3 3 3 3 3 3 3 3 3 3 3 3 3 3 3 3 3 3 3 3 3 3 3 3 3 3 3 3 3 3 3 3 3 3 3 3 3 3 3 3 3 3 3 3 3 3 3 3 3 3 3 3 3 3 3 3 3 3 3 3 3 3 3 3 3 3 3 3 3 3 3 3 3 3 3 3 3 3 3 3 3 3 3 3 3 3 3 3 3 3 3 3 3 3 2 3 3 3 2 3 3 3 3 3 3 3 3 2 3 3 3 3 2 3 3 3 3 2 3 3 3 3 3 3 3 3 3 3 2 3 3 3 3 3 3 3 3 3 3 3 3 2 3 3 2 3 3 3 3 2 3 3 2 3 3 3 3 3 3 3 3 3 3 3 3 3 3 3 3 3 3 3 3 3 3 3 3 3 3 3 3 3 3 3 3 3 3 3 3 3 3 3 3 3 3 3 3 3 3 3 3 3 3 3 3 3 3 3 3 3 3 3 3 3 3 3 3 3 3 3 3 3 3 3 3 3 3 3 3 3 3 3 3 3 3 3 3 3 3 3 3 3 3 3 3 3 3 3 3 3 3 3 3 3 3 3 3 3 3 3 3 3 3 3 3 3 3 3 3 3 3 3 3 3 3 3 3 3 3 3 3 3 3 3 3 3 3 3 3 3 3 3 3 3 3 3 3 3 3 3 3 3 3 3 3 3 3 3 3 3 3 3 3 3 3 3 2 3 3 2 3 3 3 3 3 3 3 3 3 3 2 3 2 3 3 3 3 3 3 3 3 3 3 3 3 3 3 3 3 3 3 3 3 3 3 3 3 3 3 3 3 3 3 3 3 3 3 3 3 3 3 3 3 3 3 3 3 3 3 3 3 3 3 3 3 3 3 3 3 3 3 3 3 3 3 3 3 3 3 3 3 3 3 3 3 3 3 3 3 3 3 3 3 3 3 3 3 3 3 3 3 3 3 3 3 3 3 3 3 3 3 3 3 3 3 3 3 3 3 3 3 3 3 3 3 3 3 3 3 3 3 3 3 3 3 3 3 3 3 3 3 3 3 3 3 3 3 3 3 3 3 3 3 3 3 3 3 3 3 3 3 3 3 3 3 3 3 3 3 3 3 3 3 3 3 3 3 3 3 3 3 3 3 3 3 3 3 3 3 3 3 3 3 3 3 3 3 3 3 3 3 3 3 3 3 3 3 3 3 3 3 3 3 3 3 3 3 3 3 3 3 3 3 3 3 3 3 3 3 3 3 3 3 3 3 3 3 3 3 3 3 3 3 3 3 3 3 3 3 3 3 3 3 3 3 3 3 3 3 3 3 3 3 3 3 3 3 3 3 3 3 3 3 3 3 3 3 3 3 3 3 3 3 3 3 3 3 3 3 3 3 3 3 3 3 3 3 3 3 3 3 3 3 3 3 3 3 3 3 3 3 3 3 3 3 3 3 3 3 3 3 3 3 3 3 3 3 3 3 3 3 3 3 3 3 3 3 3 3 2 2 2 2 3 3 2 3 3 3 3 2 3 3 3 3 3 3 3 3 3 3 3 3 2 3 3 2 3 3 3 3 2 3 3 2 3 3 3 3 3 3 2 3 3 3 3 3 3 3 2 3 3 3 3 3 3 3 3 3 3 3 3 3 3 3 3 3 3 3 3 3 3 3 3 3 3 3 3 3 3 3 3 3 3 3 3 3 3 3 3 3 3 3 3 3 3 3 3 3 3 3 3 3 3 3 3 3 3 3 3 3 3 3 3 3 3 3 3 3 3 3 3 3 3 3 3 3 3 3 3 3 3 3 3 3 3 3 3 3 3 3 3 3 3 3 3 3 3 3 3 3 3 3 3 3 3 3 3 3 3 3 3 3 3 3 3 3 3 3 3 3 3 3 3 3 3 3 3 3 3 3 3 3 3 3 3 3 3 3 3 3 3 3 3 3 3 3 3 3 3 3 3 3 3 3 3 3 3 3 3 3 3 3 3 3 3 3 3 3 3 3 3 3 3 3 3 3 3 3 3 3 3 3 3 3 3 3 3 3 3 3 3 3 3 3 3 3 3 3 3 3 3 3 3 3 3 3 3 3 3 3 3 3 3 3 2 2 3 3 2 3 3 3 3 2 3 3 3 3 3 3 3 3 3 3 3 3 2 3 3 2 3 3 3 3 2 3 3 2 3 3 3 3 3 3 3 3 3 3 3 3 3 3 3 3 3 3 3 3 3 3 3 3 3 3 3 3 3 3 3 3 3 3 3 3 3 3 3 3 3 3 3 3 3 3 3 3 3 3 3 3 3 3 3 3 3 3 3 3 3 3 3 3 3 3 3 3 3 3 3 3 3 3 3 3 3 3 3 3 3 3 3 3 3 3 3 3 3 3 3 3 3 3 3 3 3 3 3 3 3 3 3 3 3 3 3 3 3 3 3 3 3 3 3 3 3 3 3 3 3 3 3 3 3 3 3 3 3 3 3 3 3 3 3 3 3 3 3 3 3 3 3 3 3 3 3 3 3 3 3 3 3 3 3 3 3 3 3 3 3 3 3 3 3 3 3 3 3 3 3 3 3 3 3 3 3 3 3 3 3 3 3 3 3 3 3 3 3 3 3 3 3 3 3 3 3 3 3 3 3 3 3 3 3 3 3 3 3 3 3 3 3 3 2 2 3 3 2 3 3 3 3 2 3 3 3 3 3 3 3 3 3 3 3 3 2 3 3 2 3 3 3 3 2 3 3 2 3 3 3 3 3 3 3 3 3 3 3 3 3 3 3 3 3 3 3 3 3 3 3 3 3 3 3 3 3 3 3 3 3 3 3 3 3 3 3 3 3 3 3 3 3 3 3 3 3 3 3 3 3 3 3 3 3 3 3 3 3 3 3 3 3 3 3 3 3 3 3 3 3 3 3 3 3 3 3 3 3 3 3 3 3 3 3 3 3 3 3 3 3 3 3 3 3 3 3 3 3 3 3 3 3 3 3 3 3 3 3 3 3 3 3 3 3 3 3 3 3 3 3 3 3 3 3 3 3 3 3 3 3 3 3 3 3 3 3 3 3 3 3 3 3 3 3 3 3 3 3 3 3 3 3 3 3 3 3 3 3 3 3 3 3 3 3 3 3 3 3 3 3 3 3 3 3 3 3 3 3 3 3 3 3 3 3 3 3 3 3 3 3 3 3 3 3 3 3 3 3 3 3 3 3 3 3 3 3 3 3 3 3 3 2 2 3 2 3 3 3 3 3 2 3 3 3 3 3 3 3 3 3 3 2 3 3 3 3 2 3 3 3 3 2 3 3 2 3 3 3 3 3 3 3 3 3 3 3 3 3 3 3 3 3 3 3 3 3 3 3 3 3 3 2 3 3 2 3 2 3 3 3 3 3 3 2 3 3 3 3 3 2 2 3 3 3 2 3 2 3 3 3 3 3 3 3 3 3 3 3 3 3 3 3 3 3 3 3 3 3 3 3 3 3 3 3 3 3 3 3 3 3 3 3 3 3 3 3 3 3 3 3 3 3 3 3 3 3 3 3 3 3 3 3 3 3 3 3 3 3 3 3 3 3 3 3 3 3 3 3 3 3 3 3 3 3 3 3 3 3 3 3 3 3 3 3 3 3 3 3 3 3 3 3 3 3 3 3 3 3 3 3 3 3 3 3 3 3 3 3 3 3 3 3 3 3 3 3 3 3 3 3 3 3 3 3 3 3 3 3 3 3 3 3 3 3 3 3 3 3 3 3 3 3 3 3 3 3 3 3 3 3 3 3 3 3 3 3 3 3 3 3 3 3 3 3 3 3 3 3 3 3 3 3 3 3 3 3 3 3 3 3 3 3 3 3 3 3 3 3 3 3 3 3 3 3 3 3 3 2 2 2 2 3 3 2 3 3 3 3 3 3 3 3 3 3 3 2 3 3 3 3 3 3 3 3 3 3 3 3 3 3 3 3 3 3 3 3 3 3 3 3 3 3 3 3 3 3 3 3 3 3 3 3 3 3 3 3 3 3 3 3 3 3 3 3 3 3 3 3 3 3 3 3 3 3 3 3 3 3 3 3 3 3 3 3 3 3 3 3 3 3 3 3 3 3 3 3 3 3 3 3 3 3 3 3 3 3 3 3 3 3 3 3 3 3 3 3 3 3 3 3 3 3 3 3 3 3 3 3 3 3 3 3 3 3 3 3 3 3 3 3 3 3 3 3 3 3 3 2 2 3 3 2 3 3 3 3 3 3 3 3 3 3 3 2 3 3 3 3 3 3 3 3 3 3 3 3 3 3 3 3 3 3 3 3 3 3 3 3 3 3 3 3 3 3 3 3 3 3 3 3 3 3 3 3 3 3 3 3 3 3 3 3 3 3 3 3 3 3 3 3 3 3 3 3 3 3 3 3 3 3 3 3 3 3 3 3 3 3 3 3 3 3 3 3 3 3 3 3 3 3 3 3 3 3 3 3 3 3 3 3 3 3 3 3 3 3 3 3 3 3 3 3 3 3 3 3 3 3 3 3 3 3 3 3 3 3 3 3 3 3 3 2 2 3 3 2 3 3 3 3 3 3 3 3 3 3 3 2 3 3 3 3 3 3 3 3 3 3 3 3 3 3 3 3 3 3 3 3 3 3 3 3 3 3 3 3 3 3 3 3 3 3 3 3 3 3 3 3 3 3 3 3 3 3 3 3 3 3 3 3 3 3 3 3 3 3 3 3 3 3 3 3 3 3 3 3 3 3 3 3 3 3 3 3 3 3 3 3 3 3 3 3 3 3 3 3 3 3 3 3 3 3 3 3 3 3 3 3 3 3 3 3 3 3 3 3 3 3 3 3 3 3 3 3 3 3 3 3 3 3 3 3 3 3 3 2 2 3 3 2 3 3 3 3 3 3 3 3 3 3 3 2 3 3 3 3 3 3 3 3 3 3 3 3 3 3 3 3 3 3 3 3 3 3 3 2 2 3 2 3 3 3 2 </DataArray>
</CellData>
</Piece>
</UnstructuredGrid>
</VTKFile>