<?xml version="1.0"?>
<VTKFile type="UnstructuredGrid"  version="0.1"  >
<UnstructuredGrid>
<Piece  NumberOfPoints="584" NumberOfCells="5104">
<Points>
<DataArray  type="Float64"  NumberOfComponents="3"  format="ascii">30 25 20  32.5 27.5 22.5  32.5 25 22.5  32.5 25 20  35 25 20  35 27.5 22.5  35 25 22.5  35 25 25  35 27.5 25  35 30 25  30 25 22.5  30 25 25  32.5 27.5 25  32.5 25 25  30 27.5 25  30 30 25  32.5 30 25  37.5 27.5 22.5  37.5 27.5 25  32.5 27.5 27.5  35 27.5 27.5  37.5 27.5 27.5  30 25 10  30 22.5 10  30 22.5 7.5  27.5 22.5 7.5  27.5 22.5 10  35 25 10  35 22.5 10  35 22.5 7.5  32.5 22.5 7.5  32.5 22.5 10  32.5 25 10  37.5 25 10  37.5 22.5 10  37.5 22.5 7.5  40 25 10  30 25 12.5  30 22.5 12.5  27.5 22.5 12.5  30 25 15  30 22.5 15  27.5 22.5 15  27.5 25 15  35 25 12.5  35 22.5 12.5  32.5 22.5 12.5  35 25 15  35 22.5 15  32.5 22.5 15  32.5 25 12.5  32.5 25 15  37.5 25 12.5  37.5 22.5 12.5  40 25 12.5  40 25 15  37.5 25 15  37.5 22.5 15  30 25 17.5  30 22.5 17.5  27.5 22.5 17.5  27.5 25 17.5  35 25 17.5  35 22.5 17.5  32.5 22.5 17.5  32.5 25 17.5  37.5 25 17.5  37.5 22.5 17.5  40 25 17.5  40 25 20  37.5 25 20  40 25 0  40 25 2.5  40 22.5 2.5  37.5 22.5 2.5  40 25 5  40 22.5 5  37.5 22.5 5  45 25 0  45 25 2.5  45 22.5 2.5  42.5 22.5 2.5  45 22.5 0  42.5 22.5 0  45 25 5  45 22.5 5  42.5 22.5 5  42.5 25 2.5  42.5 25 0  42.5 25 5  50 20 0  50 22.5 2.5  50 22.5 0  47.5 22.5 2.5  47.5 22.5 0  50 25 0  50 25 2.5  50 25 5  50 22.5 5  47.5 22.5 5  47.5 25 2.5  47.5 25 0  47.5 25 5  40 25 7.5  40 22.5 7.5  40 22.5 10  45 25 7.5  45 22.5 7.5  42.5 22.5 7.5  45 25 10  45 22.5 10  42.5 22.5 10  42.5 25 7.5  42.5 25 10  50 25 7.5  50 22.5 7.5  47.5 22.5 7.5  50 25 10  50 22.5 10  47.5 22.5 10  47.5 25 7.5  47.5 25 10  40 22.5 12.5  45 25 12.5  45 22.5 12.5  42.5 22.5 12.5  45 25 15  42.5 25 12.5  42.5 25 15  50 25 12.5  50 22.5 12.5  47.5 22.5 12.5  50 25 15  47.5 25 12.5  47.5 25 15  30 20 0  30 22.5 2.5  30 22.5 0  27.5 22.5 2.5  27.5 22.5 0  30 25 0  30 25 2.5  30 25 5  30 22.5 5  27.5 22.5 5  27.5 25 2.5  27.5 25 0  25 25 5  27.5 25 5  35 25 0  35 25 2.5  35 22.5 2.5  32.5 22.5 2.5  35 22.5 0  32.5 22.5 0  35 25 5  35 22.5 5  32.5 22.5 5  32.5 25 2.5  32.5 25 0  32.5 25 5  37.5 25 2.5  37.5 25 0  37.5 22.5 0  37.5 25 5  30 27.5 2.5  30 27.5 0  27.5 27.5 2.5  27.5 27.5 0  30 30 0  30 30 2.5  30 30 5  30 27.5 5  27.5 27.5 5  32.5 27.5 2.5  32.5 27.5 0  35 27.5 2.5  35 27.5 0  35 30 0  35 30 2.5  35 30 5  35 27.5 5  32.5 27.5 5  32.5 30 2.5  32.5 30 0  32.5 30 5  37.5 27.5 2.5  37.5 27.5 0  40 27.5 2.5  40 27.5 0  40 30 0  40 30 2.5  40 30 5  40 27.5 5  37.5 27.5 5  37.5 30 2.5  37.5 30 0  37.5 30 5  42.5 27.5 2.5  42.5 27.5 0  45 27.5 2.5  45 27.5 0  45 30 0  45 30 2.5  45 30 5  45 27.5 5  42.5 27.5 5  42.5 30 2.5  42.5 30 0  42.5 30 5  47.5 27.5 2.5  47.5 27.5 0  50 27.5 2.5  50 27.5 0  50 30 0  50 30 2.5  50 30 5  50 27.5 5  47.5 27.5 5  47.5 30 2.5  47.5 30 0  47.5 30 5  30 32.5 2.5  30 32.5 0  27.5 32.5 2.5  30 35 0  30 35 2.5  30 35 5  30 32.5 5  27.5 35 2.5  32.5 32.5 2.5  32.5 32.5 0  35 32.5 2.5  35 32.5 0  35 35 0  35 35 2.5  35 35 5  35 32.5 5  32.5 32.5 5  32.5 35 2.5  32.5 35 0  32.5 35 5  37.5 32.5 2.5  37.5 32.5 0  40 32.5 2.5  40 32.5 0  40 35 0  40 35 2.5  40 35 5  40 32.5 5  37.5 32.5 5  37.5 35 2.5  37.5 35 0  37.5 35 5  42.5 32.5 2.5  42.5 32.5 0  45 32.5 2.5  45 32.5 5  45 35 5  42.5 32.5 5  42.5 35 5  47.5 32.5 2.5  47.5 32.5 0  50 32.5 2.5  50 32.5 0  50 32.5 5  47.5 32.5 5  27.5 37.5 2.5  30 25 7.5  27.5 25 7.5  35 25 7.5  32.5 25 7.5  37.5 25 7.5  27.5 27.5 7.5  30 27.5 7.5  30 30 7.5  30 30 10  30 27.5 10  32.5 27.5 7.5  35 27.5 7.5  35 30 7.5  35 30 10  35 27.5 10  32.5 27.5 10  32.5 30 7.5  32.5 30 10  37.5 27.5 7.5  40 27.5 7.5  40 30 7.5  40 30 10  40 27.5 10  37.5 27.5 10  37.5 30 7.5  37.5 30 10  42.5 27.5 7.5  45 27.5 7.5  45 30 7.5  45 30 10  45 27.5 10  42.5 27.5 10  42.5 30 7.5  42.5 30 10  47.5 27.5 7.5  50 27.5 7.5  50 30 7.5  50 30 10  50 27.5 10  47.5 27.5 10  47.5 30 7.5  47.5 30 10  30 32.5 7.5  27.5 32.5 7.5  30 35 7.5  30 35 10  30 32.5 10  27.5 35 7.5  32.5 32.5 7.5  35 32.5 7.5  35 35 7.5  35 35 10  35 32.5 10  32.5 32.5 10  32.5 35 7.5  32.5 35 10  37.5 32.5 7.5  40 32.5 7.5  40 35 7.5  40 35 10  40 32.5 10  37.5 32.5 10  37.5 35 7.5  37.5 35 10  42.5 32.5 7.5  45 32.5 7.5  45 35 7.5  45 35 10  45 32.5 10  42.5 32.5 10  42.5 35 7.5  42.5 35 10  47.5 32.5 7.5  50 32.5 7.5  50 32.5 10  47.5 32.5 10  30 37.5 7.5  27.5 37.5 7.5  30 37.5 10  30 40 10  32.5 37.5 7.5  35 37.5 7.5  35 37.5 10  35 40 10  32.5 37.5 10  32.5 40 10  37.5 37.5 7.5  37.5 37.5 10  27.5 25 10  27.5 27.5 10  27.5 32.5 10  27.5 35 10  27.5 37.5 10  27.5 25 12.5  30 27.5 12.5  27.5 27.5 12.5  30 30 12.5  30 30 15  30 27.5 15  27.5 27.5 15  27.5 30 12.5  27.5 30 15  32.5 27.5 12.5  32.5 30 12.5  35 30 12.5  35 30 15  32.5 27.5 15  32.5 30 15  30 32.5 12.5  27.5 32.5 12.5  30 35 12.5  30 35 15  30 32.5 15  27.5 32.5 15  27.5 35 12.5  32.5 32.5 12.5  35 32.5 12.5  35 35 12.5  35 35 15  35 32.5 15  32.5 32.5 15  32.5 35 12.5  32.5 35 15  30 37.5 12.5  27.5 37.5 12.5  30 40 12.5  30 40 15  30 37.5 15  32.5 37.5 12.5  35 37.5 12.5  35 37.5 15  32.5 37.5 15  30 27.5 17.5  27.5 27.5 17.5  30 30 17.5  30 30 20  30 27.5 20  27.5 30 17.5  32.5 27.5 17.5  32.5 30 17.5  35 30 17.5  35 30 20  32.5 27.5 20  32.5 30 20  30 32.5 17.5  27.5 32.5 17.5  30 35 17.5  30 35 20  30 32.5 20  32.5 32.5 17.5  35 32.5 17.5  35 35 17.5  35 35 20  35 32.5 20  32.5 32.5 20  32.5 35 17.5  32.5 35 20  32.5 37.5 17.5  35 37.5 17.5  35 37.5 20  32.5 37.5 20  30 37.5 20  37.5 37.5 17.5  37.5 37.5 20  32.5 30 22.5  35 30 22.5  30 30 22.5  30 32.5 22.5  27.5 32.5 22.5  30 35 22.5  32.5 32.5 22.5  35 32.5 22.5  35 35 22.5  32.5 35 22.5  32.5 37.5 22.5  35 37.5 22.5  37.5 37.5 22.5  35 27.5 12.5  35 27.5 15  37.5 27.5 12.5  40 27.5 12.5  40 30 12.5  40 30 15  40 27.5 15  37.5 27.5 15  37.5 30 12.5  37.5 30 15  42.5 27.5 12.5  45 27.5 12.5  45 30 12.5  45 30 15  45 27.5 15  42.5 27.5 15  42.5 30 12.5  42.5 30 15  47.5 27.5 12.5  50 27.5 12.5  50 30 12.5  50 30 15  50 27.5 15  47.5 27.5 15  47.5 30 12.5  47.5 30 15  37.5 32.5 12.5  40 32.5 12.5  40 35 12.5  40 35 15  40 32.5 15  37.5 32.5 15  37.5 35 12.5  37.5 35 15  42.5 32.5 12.5  45 32.5 12.5  45 32.5 15  45 35 15  42.5 32.5 15  42.5 35 15  47.5 32.5 12.5  50 32.5 12.5  50 32.5 15  50 35 15  47.5 32.5 15  47.5 35 15  37.5 37.5 12.5  37.5 37.5 15  35 27.5 17.5  35 27.5 20  37.5 27.5 17.5  40 27.5 17.5  40 30 17.5  40 30 20  40 27.5 20  37.5 27.5 20  37.5 30 17.5  37.5 30 20  42.5 27.5 17.5  45 27.5 17.5  45 30 17.5  45 30 20  42.5 25 17.5  45 25 17.5  45 25 20  45 27.5 20  42.5 27.5 20  42.5 25 20  42.5 30 17.5  42.5 30 20  47.5 27.5 17.5  50 27.5 17.5  50 30 17.5  50 30 20  47.5 25 17.5  50 25 17.5  50 25 20  50 27.5 20  47.5 27.5 20  47.5 25 20  47.5 30 17.5  47.5 30 20  37.5 32.5 17.5  40 32.5 17.5  40 35 17.5  40 35 20  40 32.5 20  37.5 32.5 20  37.5 35 17.5  37.5 35 20  42.5 32.5 17.5  45 32.5 17.5  45 35 17.5  45 35 20  45 32.5 20  42.5 32.5 20  42.5 35 17.5  42.5 35 20  47.5 32.5 17.5  50 32.5 17.5  50 35 17.5  50 35 20  50 32.5 20  47.5 32.5 20  47.5 35 17.5  47.5 35 20  42.5 37.5 17.5  42.5 37.5 20  47.5 37.5 17.5  50 37.5 17.5  50 37.5 20  47.5 37.5 20  40 27.5 22.5  40 30 22.5  37.5 30 22.5  42.5 27.5 22.5  45 27.5 22.5  45 30 22.5  42.5 30 22.5  47.5 27.5 22.5  50 27.5 22.5  50 30 22.5  47.5 30 22.5  37.5 32.5 22.5  40 32.5 22.5  40 35 22.5  37.5 35 22.5  42.5 32.5 22.5  45 32.5 22.5  45 35 22.5  42.5 35 22.5  47.5 32.5 22.5  50 32.5 22.5  50 35 22.5  47.5 35 22.5  42.5 37.5 22.5  45 37.5 22.5  47.5 37.5 22.5  50 37.5 22.5  </DataArray>
</Points>
<Cells>
[...]
<CellData  Scalars="f">
<DataArray  type="Float64"  Name="f"  format="ascii">3 3 3 3 3 3 3 3 3 3 3 3 3 3 3 3 3 3 3 3 3 3 3 3 3 3 3 3 3 3 3 3 3 3 3 3 3 3 3 3 3 3 3 3 3 3 3 3 3 3 3 3 3 3 3 3 3 3 3 3 3 3 3 3 3 3 3 3 3 3 3 3 3 3 3 3 3 3 3 3 3 3 3 3 3 3 3 3 3 3 3 3 3 3 3 3 3 3 3 3 3 3 3 3 3 3 3 3 3 3 3 3 3 3 3 3 3 3 3 3 3 3 3 3 3 3 3 3 3 3 3 3 3 3 3 3 3 3 3 3 3 3 3 3 3 3 3 3 3 3 3 3 3 3 3 3 3 3 3 3 3 3 3 3 3 3 3 3 3 3 3 3 3 3 3 3 3 3 3 3 3 3 3 3 3 3 3 3 3 3 3 3 3 3 3 3 3 3 3 3 3 3 3 3 3 3 3 3 3 3 3 3 3 3 3 3 3 3 3 3 3 3 3 3 3 3 3 3 3 3 3 3 3 3 3 3 3 3 3 3 3 3 3 3 3 3 3 3 3 3 3 3 3 3 3 3 3 3 3 3 3 3 3 3 3 3 3 3 3 3 3 3 3 3 3 3 3 3 3 3 3 3 3 3 3 3 3 3 3 3 3 3 3 3 3 3 3 3 3 3 3 3 3 3 3 3 3 3 3 3 3 3 3 3 3 3 3 3 3 3 3 3 3 3 3 3 3 3 3 3 3 3 3 3 3 3 3 3 3 3 3 3 3 3 3 3 3 3 3 3 3 3 3 3 3 3 3 3 3 3 3 3 3 3 3 3 3 3 3 3 3 3 3 3 3 3 3 3 3 3 3 3 3 3 3 3 3 3 3 3 3 3 3 3 3 3 3 3 3 3 3 3 3 3 3 3 3 3 3 3 3 3 3 3 3 3 3 3 3 3 3 3 3 3 3 3 3 3 3 3 3 3 3 3 3 3 3 3 3 3 3 3 3 3 3 3 3 3 3 3 3 3 3 3 3 3 3 3 3 3 3 3 3 3 3 3 3 3 3 3 3 3 3 3 3 3 3 3 3 3 3 3 3 3 3 3 3 3 3 3 3 3 3 3 3 3 3 3 3 3 3 3 3 3 3 3 3 3 3 3 3 3 3 3 3 3 3 3 3 3 3 3 3 3 3 3 3 3 3 3 3 3 3 3 3 3 3 3 3 3 3 3 3 3 3 3 3 3 3 3 3 3 3 3 3 3 3 3 3 3 3 3 3 3 3 3 3 3 3 3 3 3 3 3 3 3 3 3 3 3 3 3 3 3 3 3 3 3 3 3 3 3 3 3 3 3 3 3 3 3 3 3 3 3 3 3 3 3 3 3 3 3 3 3 3 3 3 3 3 3 3 3 3 3 3 3 3 3 3 3 3 3 3 3 3 3 3 3 3 3 3 3 3 3 3 3 3 3 3 3 3 3 3 3 3 3 3 3 3 3 3 3 3 3 3 3 3 3 3 3 3 3 3 3 3 3 3 3 3 3 3 3 3 3 3 3 3 3 3 3 3 3 3 3 3 3 3 3 3 3 3 3 3 3 3 3 3 3 3 3 3 3 3 3 3 3 3 3 3 3 3 3 3 3 3 3 3 3 3 3 3 3 3 3 3 3 3 3 3 3 3 3 3 3 3 3 3 3 3 3 3 3 3 3 3 3 3 3 3 3 3 3 3 3 3 3 3 3 3 3 3 3 3 3 3 3 3 3 3 3 3 3 3 3 3 3 3 3 3 3 3 3 3 3 3 3 3 3 3 3 3 3 3 3 3 3 3 3 3 3 3 3 3 3 3 3 3 3 3 3 3 3 3 3 3 3 3 3 3 3 3 3 3 3 3 3 3 3 3 3 3 3 3 3 3 3 3 3 3 3 3 3 3 3 3 3 3 3 3 3 3 3 3 3 3 3 3 3 3 3 3 3 3 3 3 3 3 3 3 3 3 3 3 3 3 3 3 3 3 3 3 3 3 3 3 3 3 3 3 3 3 3 3 3 3 3 3 3 3 3 3 3 3 3 3 3 3 3 3 3 3 3 3 3 3 3 3 3 3 3 3 3 3 3 3 3 3 3 3 3 3 3 3 3 3 3 3 3 3 3 3 3 3 3 3 3 3 3 3 3 3 3 3 3 3 3 3 3 3 3 3 3 3 3 3 3 3 3 3 3 3 3 3 3 3 3 3 3 3 3 3 3 3 3 3 3 3 3 3 3 3 3 3 3 3 3 3 3 3 3 3 3 3 3 3 3 3 3 3 3 3 3 3 3 3 3 3 3 3 3 3 3 3 3 3 3 3 3 3 3 3 3 3 3 3 3 3 3 3 3 3 3 3 3 3 3 3 3 3 3 3 3 3 3 3 3 3 3 3 3 3 3 3 3 3 3 3 3 3 3 3 3 3 3 3 3 3 3 3 3 3 3 3 3 3 3 3 3 3 3 3 3 3 3 3 3 3 3 3 3 3 3 3 3 3 3 3 3 3 3 3 3 3 3 3 3 3 3 3 3 3 3 3 3 3 3 3 3 3 3 3 3 3 3 3 3 3 3 3 3 3 3 3 3 3 3 3 3 3 3 3 3 2 3 3 3 3 3 2 3 3 3 3 2 2 2 3 3 3 3 3 3 3 3 3 3 3 3 3 3 3 3 3 3 3 3 3 2 3 3 3 3 3 3 3 3 2 3 3 2 3 3 3 2 3 3 3 3 3 3 3 3 3 3 2 3 3 3 2 3 3 3 3 3 3 2 3 3 2 3 3 3 3 3 3 3 3 3 3 3 3 3 3 3 3 3 3 3 3 3 3 3 3 3 3 3 3 3 3 3 3 3 3 3 3 3 3 3 3 3 3 3 3 3 3 3 3 3 3 3 3 3 3 3 3 3 3 3 3 3 3 3 3 3 3 3 3 3 3 3 3 3 3 3 3 3 3 3 3 3 3 3 3 3 3 3 3 3 3 3 3 3 3 3 3 3 3 3 3 3 3 3 3 3 3 3 3 3 3 3 3 3 3 3 3 3 3 3 2 3 3 3 3 2 3 3 3 3 2 3 3 3 3 3 3 3 3 2 3 3 3 3 3 3 3 3 3 3 2 3 3 3 2 3 3 3 3 3 3 2 3 3 2 3 3 3 3 3 3 3 3 3 3 3 3 3 3 3 3 3 3 3 3 3 3 3 3 3 3 3 3 3 3 3 3 3 3 3 3 3 3 3 3 3 3 3 3 3 3 3 3 3 3 3 3 3 3 3 3 3 3 3 3 3 3 3 3 3 3 3 3 3 3 3 3 3 2 3 3 3 3 2 3 3 3 3 3 3 3 3 3 3 3 3 3 3 3 2 3 3 2 3 3 3 3 2 3 3 3 3 3 3 3 3 3 3 3 3 3 3 3 3 3 3 3 3 3 3 3 3 3 3 3 3 3 3 3 3 3 3 3 3 3 3 3 3 3 3 3 3 3 3 3 3 3 3 3 3 3 3 3 3 3 3 3 3 3 3 3 3 3 3 3 3 3 3 3 3 3 3 3 3 3 3 3 3 3 3 3 3 3 3 3 3 3 3 3 3 3 3 3 3 3 3 3 3 3 3 3 3 3 3 3 3 3 3 3 3 3 3 3 3 3 3 3 3 3 3 3 3 3 3 3 3 3 3 3 3 3 3 3 3 3 3 3 3 3 3 3 3 3 3 3 3 3 3 3 3 3 3 3 3 3 3 3 3 3 3 3 3 3 3 3 3 3 3 3 3 3 3 3 3 3 3 3 3 3 3 3 3 3 3 3 3 3 3 3 3 3 3 3 3 3 3 3 3 3 3 3 3 3 3 3 3 3 3 3 3 3 3 3 3 3 3 3 3 3 3 3 3 3 3 3 3 3 3 3 3 3 3 3 3 3 3 3 3 3 3 3 3 3 3 3 3 3 3 3 3 3 3 3 3 3 3 3 3 3 3 3 3 3 3 3 3 3 3 3 3 3 3 3 3 3 3 3 3 3 3 3 3 3 3 3 3 3 3 3 3 3 3 3 3 3 3 3 3 3 3 3 3 3 3 3 3 3 3 3 3 3 3 3 3 3 3 3 3 3 3 3 3 3 3 3 3 3 3 3 3 3 3 3 3 3 3 3 3 3 3 3 3 3 3 3 3 3 3 3 3 3 3 3 3 3 3 3 3 3 3 3 3 3 3 3 3 3 3 3 3 3 3 3 3 3 3 3 3 3 3 3 3 3 3 3 3 3 3 3 3 3 3 3 3 3 3 3 3 3 3 3 3 3 3 3 3 3 3 3 3 3 3 3 3 3 3 3 3 3 3 3 3 3 3 3 3 3 3 3 3 3 3 3 3 3 3 3 3 3 3 3 3 3 3 3 3 3 3 3 3 3 3 3 3 3 3 3 3 3 3 3 3 3 3 3 3 3 3 3 3 3 3 3 3 3 3 3 3 3 3 3 3 3 3 3 3 3 3 3 3 3 3 3 3 3 3 3 3 3 3 3 3 3 3 3 3 3 3 3 3 3 3 3 3 3 3 3 3 3 3 3 3 3 3 3 3 3 3 3 3 3 3 3 3 3 3 3 3 3 3 3 3 3 3 3 3 3 3 3 3 3 3 3 3 3 3 3 3 3 3 3 3 3 3 3 3 3 3 3 3 3 3 3 3 3 3 3 3 3 3 3 3 3 3 3 3 3 3 3 3 3 3 3 3 3 3 3 3 3 3 3 3 3 3 3 3 3 3 3 3 3 3 3 3 3 3 3 3 3 3 3 3 3 3 3 3 3 3 3 3 3 3 3 3 3 3 3 3 3 3 3 3 3 3 3 3 3 3 3 3 3 3 3 3 3 3 3 3 3 3 3 3 3 3 3 3 3 3 3 3 3 3 3 3 3 3 3 3 3 3 3 3 3 3 3 3 3 3 3 3 3 3 3 3 3 3 3 3 3 3 3 3 3 3 3 3 3 3 3 3 3 3 3 3 3 3 3 3 3 3 3 3 3 3 3 3 3 3 3 3 3 3 3 3 3 3 3 3 3 3 3 3 3 3 3 3 3 3 3 3 3 3 3 3 3 3 3 3 3 3 3 3 3 3 3 3 3 3 3 3 3 3 3 3 3 3 3 3 3 3 3 3 3 3 3 3 3 3 3 3 3 3 3 3 3 3 3 3 3 3 3 3 3 3 3 3 3 3 3 3 3 3 3 2 2 2 2 3 3 2 3 3 3 3 3 3 3 3 2 3 3 2 3 3 3 3 2 3 3 3 3 3 3 3 3 3 3 3 3 2 3 3 2 3 3 3 3 2 3 3 2 3 3 3 3 3 3 3 3 3 3 3 3 3 3 3 3 3 3 3 3 3 3 3 3 3 3 3 3 3 3 3 3 3 3 3 3 3 3 3 3 3 3 3 3 3 3 3 3 3 3 3 3 3 3 3 3 3 3 3 3 3 3 3 3 3 3 3 3 3 3 3 3 3 3 3 3 3 3 3 3 3 3 3 3 3 3 3 3 3 3 3 3 3 3 3 3 3 3 3 3 3 3 3 3 3 3 3 3 3 3 3 3 3 3 3 3 3 3 3 3 3 3 3 3 3 3 3 3 3 3 3 3 3 3 3 3 3 3 3 3 3 3 3 3 3 3 3 3 3 3 3 3 3 3 3 3 3 3 3 3 3 3 3 3 3 3 3 3 3 3 3 3 3 3 3 3 3 3 3 3 3 3 3 3 3 3 3 3 3 3 3 3 3 3 3 3 3 3 3 3 3 3 3 3 3 3 3 3 3 3 3 3 3 3 3 3 3 3 3 3 3 3 3 3 3 3 3 3 3 3 3 3 3 3 3 3 3 3 3 3 3 3 3 3 3 3 3 3 3 3 3 3 3 3 3 3 3 3 3 3 3 3 3 3 3 3 3 3 3 3 3 3 3 3 3 3 3 3 3 3 3 3 3 3 3 3 3 3 3 3 3 3 3 3 3 3 3 3 3 3 3 3 3 3 3 3 3 3 3 3 3 3 3 3 3 3 3 3 3 3 3 3 3 3 3 3 3 3 3 3 3 3 3 3 3 3 3 3 3 3 3 3 3 3 3 3 3 3 3 3 3 3 3 3 3 3 3 3 3 3 3 3 3 3 3 3 3 3 3 3 3 3 3 3 3 3 3 3 3 3 3 3 3 3 3 3 3 3 3 3 3 3 3 3 3 3 3 3 3 3 3 3 3 3 3 3 3 3 3 3 3 3 3 3 3 3 3 3 3 3 3 3 3 3 3 3 3 3 3 3 3 3 3 3 3 3 3 3 3 3 3 3 3 3 3 3 3 3 3 3 3 3 3 3 3 3 3 3 3 3 3 3 3 3 3 3 3 3 3 3 3 3 3 3 3 3 3 3 3 3 3 3 3 3 3 3 3 3 3 3 3 3 3 3 3 3 3 3 3 3 3 3 3 3 3 3 3 3 3 3 3 3 3 3 3 3 3 3 3 3 3 3 3 3 3 3 3 3 3 3 3 3 3 3 3 3 3 3 3 3 3 3 3 3 3 3 3 3 3 3 3 3 3 3 3 3 3 3 3 3 3 3 3 3 3 3 3 3 3 3 3 3 3 3 3 3 3 3 3 3 3 3 3 3 3 3 3 3 3 3 3 3 3 3 3 3 3 3 3 3 3 3 3 3 3 3 3 3 3 3 3 3 3 3 3 3 3 3 3 3 3 3 3 3 3 3 3 3 3 3 3 3 3 3 3 3 3 3 3 3 3 3 3 3 3 3 3 3 3 3 3 3 3 3 3 3 3 3 3 3 3 3 3 3 3 3 3 3 3 3 3 3 3 3 3 3 3 3 3 3 3 3 3 3 3 3 3 2 2 3 3 2 3 3 3 3 2 3 3 3 3 3 3 3 3 3 3 3 3 2 3 3 2 3 3 3 3 2 3 3 2 3 3 3 3 3 3 3 3 3 3 3 3 3 3 3 3 3 3 3 3 3 3 3 3 3 3 3 3 3 3 3 3 3 3 3 3 3 3 3 3 3 3 3 3 3 3 3 3 3 3 3 3 3 3 3 3 3 3 3 3 3 3 3 3 3 3 3 3 3 3 3 3 3 3 3 3 3 3 3 3 3 3 3 3 3 3 3 3 3 3 3 3 3 3 3 3 3 3 3 3 3 3 3 3 3 3 3 3 3 3 3 3 3 3 3 3 3 3 3 3 3 3 3 3 3 3 3 3 3 3 3 3 3 3 3 3 3 3 3 3 3 3 3 3 3 3 3 3 3 3 3 3 3 3 3 3 3 3 3 3 3 3 3 3 3 3 3 3 3 3 3 3 3 3 3 3 3 3 3 3 3 3 3 3 3 3 3 3 3 3 3 3 3 3 3 3 3 3 3 3 3 3 3 3 3 3 3 3 3 3 3 3 3 3 3 3 3 3 3 3 3 3 3 3 3 3 3 3 3 3 3 3 3 3 3 3 3 3 3 3 3 3 3 3 3 3 3 3 3 3 3 3 3 3 3 3 3 3 3 3 3 3 3 3 3 3 3 3 3 3 3 3 3 3 3 3 3 3 3 3 3 3 3 3 3 3 3 3 3 3 3 3 3 3 3 3 3 3 3 3 3 3 3 3 3 3 3 3 3 3 3 3 3 3 3 3 3 3 3 3 3 3 3 3 3 3 3 3 3 3 3 3 3 3 3 3 3 3 3 3 3 3 3 3 3 3 3 3 3 3 3 3 3 3 3 3 3 3 3 3 3 3 3 3 3 3 3 3 3 3 3 3 3 3 3 3 3 3 3 3 3 3 3 3 3 3 3 3 3 3 3 3 3 3 3 3 3 3 3 3 3 3 3 3 3 3 3 3 3 3 3 3 3 3 3 3 3 3 3 3 3 3 3 3 3 3 3 3 3 3 3 3 3 3 3 3 3 3 3 3 3 3 3 3 3 3 3 3 3 3 3 3 3 3 3 3 3 3 3 3 3 3 3 3 3 3 3 3 3 3 3 3 3 3 3 3 3 3 3 3 3 3 3 3 3 3 3 3 3 3 3 3 3 3 3 3 3 3 3 3 3 3 3 3 3 3 3 3 3 3 3 3 3 3 3 3 3 3 3 3 3 3 3 3 3 3 3 3 3 3 3 3 3 3 3 3 3 3 3 3 3 3 3 3 3 3 3 3 3 3 3 3 3 3 3 3 3 3 3 3 3 3 3 3 3 3 3 3 3 3 3 3 3 3 3 3 3 3 3 3 3 3 3 3 3 3 3 3 3 3 3 3 3 3 3 3 3 3 3 3 3 3 3 3 3 3 3 3 3 3 3 3 3 3 3 3 3 3 3 3 3 3 3 3 3 3 3 3 3 3 3 3 3 3 3 3 3 3 3 3 3 3 3 3 3 3 3 3 3 3 3 3 3 3 3 3 3 3 3 3 3 3 3 3 3 3 3 3 3 3 3 3 3 3 3 3 3 3 3 3 3 3 3 3 3 3 3 3 3 3 3 3 3 3 3 3 3 3 3 3 3 3 3 3 3 3 3 3 3 3 3 3 3 3 3 3 3 3 3 3 3 3 3 3 3 3 3 3 3 3 3 3 3 3 3 3 3 3 3 3 3 3 3 3 3 3 3 3 3 3 3 3 3 3 3 3 3 3 3 3 3 3 3 3 3 3 3 3 3 3 3 3 3 3 3 3 3 3 3 3 3 3 3 3 3 3 3 3 3 3 3 3 3 3 3 3 3 3 3 3 3 3 3 3 3 3 3 3 3 3 3 3 3 3 3 3 3 3 3 3 3 3 3 3 3 3 3 3 3 3 3 3 3 3 3 3 3 3 3 3 3 3 3 3 3 3 3 3 3 3 3 3 3 3 3 3 3 3 3 3 3 3 3 3 3 3 3 3 3 3 3 3 3 3 3 3 3 3 3 3 3 3 3 3 3 3 3 3 3 3 3 3 3 3 3 3 3 3 3 3 3 3 3 3 3 3 3 3 3 3 3 3 3 3 3 3 3 3 3 3 3 3 3 3 3 3 3 3 3 3 3 3 3 3 3 3 3 3 3 3 3 3 3 3 3 3 3 3 3 3 3 3 3 3 3 3 3 3 3 3 3 3 3 3 3 3 3 3 3 3 3 3 3 3 3 3 3 3 3 3 3 3 3 3 3 3 3 3 3 3 3 3 3 3 3 3 3 3 3 3 3 3 3 3 3 3 3 3 3 3 3 3 3 3 3 3 3 3 3 3 3 3 3 3 3 3 3 3 3 3 3 3 3 3 3 3 3 3 3 3 3 3 3 3 3 3 3 3 3 3 3 3 3 3 3 3 3 3 3 3 3 3 3 3 3 3 3 3 3 3 3 3 3 3 3 3 3 3 3 3 3 3 3 3 3 3 3 3 3 3 3 3 3 3 3 3 3 3 3 3 3 3 3 3 3 3 3 3 3 3 3 3 3 3 3 3 3 3 3 3 3 3 3 3 3 3 3 3 3 3 3 3 3 3 3 3 3 3 3 3 3 3 3 3 3 3 3 3 3 3 3 3 3 3 3 3 3 3 3 3 3 3 3 3 3 3 3 3 3 3 3 3 3 3 3 3 3 3 3 3 3 3 3 3 3 3 3 3 3 3 3 3 3 3 3 3 3 3 3 3 3 3 3 3 3 3 3 3 3 3 3 3 3 3 3 3 3 3 3 3 3 3 3 3 3 3 3 3 3 3 3 3 3 3 3 3 3 3 3 3 3 3 3 3 3 3 3 3 3 3 3 3 3 3 3 3 3 3 3 3 3 3 3 3 3 3 3 3 3 3 3 3 3 3 3 3 3 3 3 3 3 3 3 3 2 2 3 3 2 3 3 3 3 2 3 3 3 3 3 3 3 3 3 3 3 3 2 3 3 2 3 3 3 3 2 3 3 2 3 3 3 3 3 3 3 3 3 3 3 3 3 3 3 3 3 3 3 3 3 3 3 3 3 3 3 3 3 3 3 3 3 3 3 3 3 3 3 3 3 3 3 3 3 3 3 3 3 3 3 3 3 3 3 3 3 3 3 3 3 3 3 3 3 3 3 3 3 3 3 3 3 3 3 3 3 3 3 3 3 3 3 3 3 3 3 3 3 3 3 3 3 3 3 3 3 3 3 3 3 3 3 3 3 3 3 3 3 3 3 3 3 3 3 3 3 3 3 3 3 3 3 3 3 3 3 3 3 2 3 3 2 3 3 3 3 3 3 3 3 3 3 2 3 3 2 3 3 3 3 3 3 3 3 3 3 3 3 3 3 3 3 3 3 3 3 3 3 3 3 3 3 3 3 3 3 3 3 3 3 3 3 3 3 3 3 3 3 3 3 3 3 3 3 3 3 3 3 3 3 3 3 3 3 3 3 3 3 3 3 3 3 3 3 3 3 3 3 3 3 3 3 3 3 3 3 3 3 3 3 3 3 3 3 3 3 3 3 3 3 3 3 3 3 3 3 3 3 3 3 3 3 3 3 3 3 3 3 3 3 3 3 3 3 3 3 3 3 3 3 3 3 3 3 3 3 3 3 3 3 3 3 3 3 3 3 3 3 3 3 3 3 3 3 3 3 3 3 3 3 3 3 3 3 3 3 3 3 3 3 3 3 3 3 3 3 3 3 3 3 3 3 3 3 3 3 3 3 3 3 3 3 3 3 3 3 3 3 3 3 3 3 3 3 3 3 3 3 3 3 3 3 3 3 3 3 3 3 3 3 3 3 3 3 3 3 3 3 3 3 3 3 3 3 3 3 3 3 3 3 3 3 3 3 3 3 3 3 3 3 3 3 3 3 3 2 2 2 2 3 3 2 3 3 3 3 2 3 3 3 3 3 3 3 3 3 3 3 3 2 3 3 2 3 3 3 3 2 3 3 2 3 3 3 3 3 3 2 3 3 3 3 3 3 3 3 3 3 3 3 3 3 3 3 3 3 3 3 3 3 3 3 3 3 3 3 3 3 3 3 3 3 3 3 3 3 3 3 3 3 3 3 3 3 3 3 3 3 3 3 3 3 3 3 3 3 3 3 3 3 3 3 3 3 3 3 3 3 3 3 3 3 3 3 3 3 3 3 3 3 3 3 3 3 3 3 3 3 3 3 3 3 3 3 3 3 3 3 3 3 3 3 3 3 3 3 3 3 3 3 3 3 3 3 3 3 3 3 3 3 3 3 3 3 3 3 3 3 3 3 3 3 3 3 3 3 3 3 3 3 3 3 3 3 3 3 3 3 3 3 3 3 3 3 3 3 3 3 3 3 3 3 3 3 3 3 3 3 3 3 3 3 2 2 3 3 2 3 3 3 3 2 3 3 3 3 3 3 3 3 3 3 3 3 2 3 3 2 3 3 3 3 2 3 3 2 3 3 3 3 3 3 3 3 3 3 3 3 3 3 3 3 3 3 3 3 3 3 3 3 3 3 3 3 3 3 3 3 3 3 3 3 3 3 3 3 3 3 3 3 3 3 3 3 3 </DataArray>
</CellData>
</Piece>
</UnstructuredGrid>
</VTKFile>