<?xml version="1.0"?>
<VTKFile type="UnstructuredGrid"  version="0.1"  >
<UnstructuredGrid>
<Piece  NumberOfPoints="588" NumberOfCells="5128">
<Points>
<DataArray  type="Float64"  NumberOfComponents="3"  format="ascii">35 0 20  35 2.5 22.5  35 2.5 20  32.5 2.5 22.5  35 5 20  35 5 22.5  35 5 25  35 0 22.5  32.5 0 22.5  35 0 25  35 2.5 25  30 0 25  32.5 2.5 25  32.5 0 25  32.5 5 22.5  30 2.5 25  30 5 25  32.5 5 25  37.5 2.5 22.5  37.5 2.5 20  37.5 0 20  40 0 20  40 2.5 22.5  40 2.5 20  40 5 20  40 5 22.5  40 5 25  37.5 0 22.5  40 0 22.5  40 0 25  40 2.5 25  37.5 2.5 25  37.5 0 25  37.5 5 22.5  37.5 5 20  37.5 5 25  42.5 2.5 22.5  42.5 2.5 20  42.5 0 20  45 0 20  45 2.5 22.5  45 2.5 20  45 5 20  45 5 22.5  45 5 25  42.5 0 22.5  45 0 22.5  45 0 25  45 2.5 25  42.5 2.5 25  42.5 0 25  42.5 5 22.5  42.5 5 20  42.5 5 25  47.5 2.5 22.5  47.5 2.5 20  47.5 0 20  50 0 20  50 2.5 22.5  50 2.5 20  50 5 20  50 5 22.5  50 5 25  47.5 0 22.5  50 0 22.5  50 0 25  50 2.5 25  47.5 2.5 25  47.5 0 25  47.5 5 22.5  47.5 5 20  47.5 5 25  35 7.5 22.5  35 7.5 20  32.5 7.5 22.5  35 10 20  35 10 22.5  35 10 25  35 7.5 25  32.5 7.5 25  30 7.5 25  30 10 25  32.5 10 25  37.5 7.5 22.5  37.5 7.5 20  40 7.5 22.5  40 7.5 20  40 10 20  40 10 22.5  40 10 25  40 7.5 25  37.5 7.5 25  37.5 10 22.5  37.5 10 20  37.5 10 25  42.5 7.5 22.5  42.5 7.5 20  45 7.5 22.5  45 7.5 20  45 10 20  45 10 22.5  45 10 25  45 7.5 25  42.5 7.5 25  42.5 10 22.5  42.5 10 20  42.5 10 25  47.5 7.5 22.5  47.5 7.5 20  50 7.5 22.5  50 7.5 20  50 10 20  50 10 22.5  50 10 25  50 7.5 25  47.5 7.5 25  47.5 10 22.5  47.5 10 20  47.5 10 25  32.5 2.5 27.5  35 2.5 27.5  35 5 27.5  35 5 30  32.5 0 27.5  35 0 27.5  35 0 30  35 2.5 30  32.5 5 27.5  37.5 2.5 27.5  40 2.5 27.5  40 5 27.5  40 5 30  37.5 0 27.5  40 0 27.5  40 0 30  40 2.5 30  37.5 2.5 30  37.5 0 30  37.5 5 27.5  37.5 5 30  42.5 2.5 27.5  45 2.5 27.5  45 5 27.5  45 5 30  42.5 0 27.5  45 0 27.5  45 0 30  45 2.5 30  42.5 2.5 30  42.5 0 30  42.5 5 27.5  42.5 5 30  47.5 2.5 27.5  50 2.5 27.5  50 5 27.5  50 5 30  47.5 0 27.5  50 0 27.5  50 0 30  50 2.5 30  47.5 2.5 30  47.5 0 30  47.5 5 27.5  47.5 5 30  32.5 7.5 27.5  35 7.5 27.5  35 10 27.5  35 10 30  35 7.5 30  32.5 10 27.5  37.5 7.5 27.5  40 7.5 27.5  40 10 27.5  40 10 30  40 7.5 30  37.5 7.5 30  37.5 10 27.5  37.5 10 30  42.5 7.5 27.5  45 7.5 27.5  45 10 27.5  45 10 30  45 7.5 30  42.5 7.5 30  42.5 10 27.5  42.5 10 30  47.5 7.5 27.5  50 7.5 27.5  50 10 27.5  50 10 30  50 7.5 30  47.5 7.5 30  47.5 10 27.5  47.5 10 30  32.5 12.5 27.5  35 12.5 27.5  35 12.5 30  35 15 30  37.5 12.5 27.5  40 12.5 27.5  40 12.5 30  37.5 12.5 30  42.5 12.5 27.5  45 12.5 27.5  45 12.5 30  42.5 12.5 30  47.5 12.5 27.5  50 12.5 27.5  50 12.5 30  50 15 30  47.5 12.5 30  37.5 2.5 32.5  40 2.5 32.5  40 5 32.5  40 5 35  37.5 5 32.5  42.5 2.5 32.5  45 2.5 32.5  45 5 32.5  45 5 35  42.5 0 32.5  45 0 32.5  45 0 35  45 2.5 35  42.5 5 32.5  42.5 5 35  47.5 2.5 32.5  50 2.5 32.5  50 5 32.5  50 5 35  47.5 0 32.5  50 0 32.5  50 0 35  50 2.5 35  47.5 2.5 35  47.5 0 35  47.5 5 32.5  47.5 5 35  37.5 7.5 32.5  40 7.5 32.5  40 10 32.5  40 10 35  40 7.5 35  37.5 10 32.5  42.5 7.5 32.5  45 7.5 32.5  45 10 32.5  45 10 35  45 7.5 35  42.5 7.5 35  42.5 10 32.5  42.5 10 35  47.5 7.5 32.5  50 7.5 32.5  50 10 32.5  50 10 35  50 7.5 35  47.5 7.5 35  47.5 10 32.5  47.5 10 35  37.5 12.5 32.5  40 12.5 32.5  40 12.5 35  40 15 35  42.5 12.5 32.5  45 12.5 32.5  45 12.5 35  45 15 35  42.5 12.5 35  42.5 15 35  47.5 12.5 32.5  50 12.5 32.5  50 15 32.5  50 15 35  50 12.5 35  47.5 12.5 35  47.5 15 35  30 2.5 27.5  27.5 2.5 27.5  30 5 27.5  30 5 30  30 0 27.5  27.5 0 27.5  30 0 30  30 2.5 30  25 0 30  27.5 2.5 30  27.5 0 30  27.5 5 27.5  25 2.5 30  25 5 30  27.5 5 30  32.5 2.5 30  32.5 0 30  32.5 5 30  30 7.5 27.5  27.5 7.5 27.5  30 10 27.5  30 10 30  30 7.5 30  27.5 7.5 30  27.5 10 27.5  27.5 10 30  32.5 7.5 30  32.5 10 30  27.5 12.5 27.5  30 12.5 30  27.5 12.5 30  30 15 30  27.5 15 30  32.5 12.5 30  32.5 15 30  27.5 2.5 32.5  30 2.5 32.5  30 5 32.5  30 5 35  27.5 0 32.5  30 0 32.5  30 0 35  30 2.5 35  25 0 32.5  25 0 35  27.5 2.5 35  27.5 0 35  27.5 5 32.5  25 2.5 35  25 5 35  27.5 5 35  32.5 2.5 32.5  35 2.5 32.5  35 5 32.5  35 5 35  32.5 0 32.5  35 0 32.5  35 0 35  35 2.5 35  32.5 2.5 35  32.5 0 35  32.5 5 32.5  32.5 5 35  27.5 7.5 32.5  30 7.5 32.5  30 10 32.5  30 10 35  30 7.5 35  27.5 7.5 35  27.5 10 32.5  27.5 10 35  32.5 7.5 32.5  35 7.5 32.5  35 10 32.5  35 10 35  35 7.5 35  32.5 7.5 35  32.5 10 32.5  32.5 10 35  30 12.5 32.5  27.5 12.5 32.5  30 15 32.5  30 15 35  30 12.5 35  27.5 12.5 35  27.5 15 32.5  27.5 15 35  32.5 12.5 32.5  35 12.5 32.5  35 15 32.5  35 15 35  35 12.5 35  32.5 12.5 35  32.5 15 32.5  32.5 15 35  30 17.5 32.5  27.5 17.5 32.5  30 17.5 35  30 20 35  27.5 17.5 35  27.5 20 35  32.5 17.5 32.5  35 17.5 32.5  35 17.5 35  35 20 35  32.5 17.5 35  32.5 20 35  27.5 2.5 37.5  30 2.5 37.5  30 5 37.5  30 5 40  27.5 0 37.5  30 0 37.5  30 0 40  30 2.5 40  25 0 37.5  25 0 40  27.5 2.5 40  27.5 0 40  27.5 5 37.5  25 2.5 40  25 5 40  27.5 5 40  32.5 2.5 37.5  35 2.5 37.5  35 5 37.5  35 5 40  32.5 0 37.5  35 0 37.5  35 0 40  35 2.5 40  32.5 2.5 40  32.5 0 40  32.5 5 37.5  32.5 5 40  27.5 7.5 37.5  30 7.5 37.5  30 10 37.5  30 10 40  30 7.5 40  27.5 7.5 40  27.5 10 37.5  27.5 10 40  32.5 7.5 37.5  35 7.5 37.5  35 10 37.5  35 10 40  35 7.5 40  32.5 7.5 40  32.5 10 37.5  32.5 10 40  30 12.5 37.5  27.5 12.5 37.5  30 15 37.5  30 15 40  30 12.5 40  27.5 12.5 40  27.5 15 37.5  27.5 15 40  32.5 12.5 37.5  35 12.5 37.5  35 15 37.5  35 15 40  35 12.5 40  32.5 12.5 40  32.5 15 37.5  32.5 15 40  30 17.5 37.5  27.5 17.5 37.5  32.5 17.5 37.5  35 17.5 37.5  32.5 20 37.5  32.5 22.5 37.5  27.5 2.5 42.5  30 2.5 42.5  30 5 42.5  30 5 45  27.5 0 42.5  30 0 42.5  30 0 45  30 2.5 45  25 0 42.5  25 0 45  27.5 2.5 45  27.5 0 45  27.5 5 42.5  25 5 45  27.5 5 45  25 5 42.5  32.5 2.5 42.5  35 2.5 42.5  35 5 42.5  35 5 45  32.5 0 42.5  35 0 42.5  35 0 45  35 2.5 45  32.5 2.5 45  32.5 0 45  32.5 5 42.5  32.5 5 45  27.5 7.5 42.5  30 7.5 42.5  30 10 42.5  30 10 45  30 7.5 45  27.5 7.5 45  27.5 10 42.5  27.5 10 45  32.5 7.5 42.5  35 7.5 42.5  32.5 10 42.5  30 12.5 42.5  27.5 12.5 42.5  32.5 12.5 42.5  27.5 2.5 47.5  30 2.5 47.5  30 5 47.5  30 5 50  27.5 0 47.5  30 0 47.5  30 0 50  30 2.5 50  27.5 2.5 50  27.5 0 50  27.5 5 47.5  27.5 5 50  32.5 2.5 47.5  32.5 0 47.5  35 0 47.5  35 0 50  32.5 2.5 50  32.5 0 50  27.5 7.5 47.5  27.5 7.5 50  37.5 0 32.5  40 0 32.5  40 0 35  40 2.5 35  37.5 2.5 35  37.5 0 35  37.5 5 35  42.5 2.5 35  42.5 0 35  37.5 7.5 35  37.5 10 35  37.5 12.5 35  37.5 15 35  37.5 15 32.5  37.5 17.5 32.5  37.5 17.5 35  37.5 2.5 37.5  40 2.5 37.5  40 5 37.5  40 5 40  37.5 0 37.5  40 0 37.5  40 0 40  40 2.5 40  37.5 2.5 40  37.5 0 40  37.5 5 37.5  37.5 5 40  42.5 2.5 37.5  45 2.5 37.5  45 5 37.5  42.5 0 37.5  45 0 37.5  42.5 5 37.5  47.5 2.5 37.5  50 2.5 37.5  50 5 37.5  47.5 0 37.5  50 0 37.5  47.5 5 37.5  37.5 7.5 37.5  40 7.5 37.5  40 10 37.5  37.5 7.5 40  37.5 10 37.5  42.5 7.5 37.5  45 7.5 37.5  45 10 37.5  42.5 10 37.5  47.5 7.5 37.5  50 7.5 37.5  50 10 37.5  47.5 10 37.5  37.5 12.5 37.5  40 12.5 37.5  37.5 15 37.5  42.5 12.5 37.5  45 12.5 37.5  47.5 12.5 37.5  50 12.5 37.5  37.5 17.5 37.5  37.5 2.5 42.5  37.5 0 42.5  37.5 5 42.5  37.5 7.5 42.5  40 2.5 17.5  37.5 2.5 17.5  37.5 5 17.5  42.5 2.5 17.5  42.5 5 17.5  40 7.5 17.5  37.5 7.5 17.5  42.5 7.5 17.5  45 2.5 17.5  42.5 0 17.5  47.5 2.5 17.5  </DataArray>
</Points>
<Cells>
[...]
<CellData  Scalars="f">
<DataArray  type="Float64"  Name="f"  format="ascii">3 3 3 3 3 3 3 3 3 3 3 3 3 3 3 3 3 3 3 3 3 3 3 3 3 3 3 3 3 3 3 3 3 3 3 3 3 3 3 3 3 3 3 3 3 3 3 3 3 3 3 3 3 3 3 3 3 3 3 3 3 3 3 3 3 3 3 3 3 3 3 3 3 3 3 3 3 3 3 3 3 3 3 3 3 3 3 3 3 3 3 3 3 3 3 3 3 3 3 3 3 3 3 3 3 3 3 3 3 3 3 3 3 3 3 3 3 3 3 3 3 3 3 3 3 3 3 3 3 3 3 3 3 3 3 3 3 3 3 3 3 3 3 3 3 3 3 3 3 3 3 3 3 3 3 3 3 3 3 3 3 3 3 3 3 3 3 3 3 3 3 3 3 3 3 3 3 3 3 3 3 3 3 3 3 3 3 3 3 3 3 3 3 3 3 3 3 3 3 3 3 3 3 3 3 3 3 3 3 3 3 3 3 3 3 3 3 3 3 3 3 3 3 3 3 3 3 3 3 3 3 3 3 3 3 3 3 3 3 3 3 3 3 3 3 3 3 3 3 3 3 3 3 3 3 3 3 3 3 3 3 3 3 3 3 3 3 3 3 3 3 3 3 3 3 3 3 3 3 3 3 3 3 3 3 3 3 3 3 3 3 3 3 3 3 3 3 3 3 3 3 3 3 3 3 3 3 3 3 3 3 3 3 3 3 3 3 3 3 3 3 3 3 3 3 3 3 3 3 3 3 3 3 3 3 3 3 3 3 3 3 3 3 3 3 3 3 3 3 3 3 3 3 3 3 3 3 3 3 3 3 3 3 3 3 3 3 3 3 3 3 3 3 3 3 3 3 3 3 3 3 3 3 3 3 3 3 3 3 3 3 3 3 3 3 3 3 3 3 3 3 3 3 3 3 3 3 3 3 3 3 3 3 3 3 3 3 3 3 3 3 3 3 3 3 3 3 3 3 3 3 3 3 3 3 3 3 3 3 3 3 3 3 3 3 3 3 3 3 3 3 3 3 3 3 3 3 3 3 3 3 3 3 3 3 3 3 3 3 3 3 3 3 3 3 3 3 3 3 3 3 3 3 3 3 3 3 3 3 3 3 3 3 3 3 3 3 3 3 3 3 3 3 3 3 3 3 3 3 3 3 3 3 3 3 3 3 3 3 3 3 3 3 3 3 3 3 3 3 3 3 3 3 3 3 3 3 3 3 3 3 3 3 3 3 3 3 3 3 3 3 3 3 3 3 3 3 3 3 3 3 3 3 3 3 3 3 3 3 3 3 3 3 3 3 3 3 3 3 3 3 3 3 3 3 3 3 3 3 3 3 3 3 3 3 3 3 3 3 3 3 3 3 3 3 3 3 3 3 3 3 3 3 3 3 3 3 3 3 3 3 3 3 3 3 3 3 3 3 3 3 3 3 3 3 3 3 3 3 3 3 3 3 3 3 3 3 3 3 3 3 3 3 3 3 3 3 3 3 3 3 3 3 3 3 3 3 3 3 3 3 3 3 3 3 3 3 3 3 3 3 3 3 3 3 3 3 3 3 3 3 3 3 3 3 3 3 3 3 3 3 3 3 3 3 3 3 3 3 3 3 3 3 3 3 3 3 3 3 3 3 3 3 3 3 3 3 3 3 3 3 3 3 3 3 3 3 3 3 3 3 3 3 3 3 3 3 3 3 3 3 3 3 3 3 3 3 3 3 3 3 3 3 3 3 3 3 3 3 3 3 3 3 3 3 3 3 3 3 3 3 3 3 3 3 3 3 3 3 3 3 3 3 3 3 3 3 3 3 3 3 3 3 3 3 3 3 3 3 3 3 3 3 3 3 3 3 3 3 3 3 3 3 3 3 3 3 3 3 3 3 3 3 3 3 3 3 2 2 3 3 2 2 2 2 2 2 3 3 3 2 3 3 3 3 3 3 3 3 3 2 3 3 2 3 3 3 3 2 3 3 3 3 3 3 3 3 3 3 3 3 2 3 3 2 3 3 3 3 2 3 3 2 3 3 3 3 3 3 2 3 3 3 3 3 3 3 2 3 3 3 3 3 3 3 3 3 3 3 3 3 3 3 3 3 3 3 3 3 3 3 3 3 3 3 3 3 3 3 3 3 3 3 3 3 3 3 3 3 3 3 3 3 3 3 3 3 3 3 3 3 3 3 3 3 3 3 3 3 3 3 3 3 3 3 3 3 3 3 3 3 3 3 3 3 3 3 3 3 3 3 3 3 3 3 3 3 3 3 3 3 3 3 3 3 3 3 3 3 3 3 3 3 3 3 3 3 3 3 3 3 3 3 3 3 3 3 3 3 3 3 3 3 3 3 3 3 3 3 3 3 3 3 3 3 3 3 3 3 3 3 3 3 3 3 3 3 3 3 3 3 3 3 3 3 3 3 3 3 3 3 3 3 3 3 3 3 3 3 3 3 3 3 3 3 3 3 3 3 3 3 3 3 3 3 3 3 3 3 3 3 3 3 3 3 3 3 3 3 3 3 3 3 3 3 3 3 3 3 3 3 3 3 3 3 3 3 3 3 3 3 3 3 3 3 3 3 3 3 3 3 3 3 3 3 3 3 3 3 3 3 3 3 3 3 3 3 3 3 3 3 3 3 3 3 3 3 3 3 3 3 3 3 3 3 3 3 3 3 3 3 3 3 3 3 3 3 3 3 3 3 3 3 3 3 3 3 3 3 3 3 3 3 3 3 3 3 3 3 3 3 3 3 3 3 3 3 3 3 3 3 3 3 3 3 3 3 3 3 3 3 3 3 3 3 3 3 3 3 3 3 3 3 3 3 3 3 3 3 3 3 3 3 3 3 3 3 3 3 3 3 3 3 3 2 2 2 2 3 3 3 3 3 2 3 3 3 3 3 3 3 3 3 2 3 3 2 3 3 3 3 3 3 3 3 3 3 3 3 3 3 3 3 3 3 3 3 3 3 3 3 3 3 3 3 3 3 3 3 3 3 3 3 3 3 3 3 3 3 3 3 3 3 3 3 3 3 3 3 3 3 3 3 3 3 3 3 3 3 3 3 3 3 3 3 3 3 3 3 3 3 3 3 3 3 3 3 3 3 3 3 3 3 3 3 3 3 3 3 3 3 3 3 3 3 3 3 3 3 3 3 3 3 3 3 3 3 3 3 3 3 3 3 3 3 3 3 3 3 3 3 3 3 3 3 3 3 3 3 3 3 3 3 3 3 3 3 3 3 3 3 3 3 3 3 3 3 3 3 3 3 3 3 3 3 3 3 3 3 3 3 3 3 3 3 3 3 3 3 3 3 3 3 3 3 3 3 3 3 3 3 3 3 3 3 3 3 3 3 3 3 3 3 3 3 3 3 3 3 3 3 3 3 3 3 3 3 3 3 3 3 3 3 3 3 3 3 3 3 3 3 3 3 3 3 3 3 3 3 3 3 3 3 3 3 3 3 3 3 3 3 3 3 3 3 3 3 3 3 3 3 3 3 3 3 3 3 3 3 3 3 3 3 3 3 3 3 3 3 3 3 3 3 3 3 3 3 3 3 3 3 3 3 3 3 3 3 3 3 3 3 3 3 3 3 3 3 3 3 3 3 3 3 3 3 3 3 3 3 3 3 3 3 3 3 3 3 3 3 3 3 3 3 3 3 3 3 3 3 3 3 3 3 3 3 3 3 3 3 3 3 3 3 3 3 3 3 3 3 3 3 3 3 3 3 3 3 3 3 3 3 3 3 3 3 3 3 3 3 3 3 3 3 3 3 3 3 3 3 3 3 3 3 3 3 3 3 3 3 3 3 3 3 3 3 3 3 3 3 3 3 3 3 3 3 3 3 3 3 3 3 3 3 3 3 3 3 3 3 3 3 3 3 3 3 3 3 3 3 3 3 3 3 3 3 3 3 3 3 3 3 3 3 3 3 3 3 3 3 3 3 3 3 3 3 3 3 3 3 3 3 3 3 3 3 3 3 3 3 3 3 3 3 3 3 2 2 2 2 3 3 2 3 3 3 3 2 3 3 3 3 3 3 3 3 3 3 3 3 2 3 3 2 3 3 3 3 2 3 3 2 3 3 3 3 3 3 2 3 3 3 3 3 3 3 2 3 3 3 3 3 3 3 3 3 3 3 3 3 3 3 3 3 3 3 3 3 3 3 3 3 3 3 3 3 3 3 3 3 3 3 3 3 3 3 3 3 3 3 3 3 3 3 3 3 3 3 3 3 3 3 3 3 3 3 3 3 3 3 3 3 3 3 3 3 3 3 3 3 3 3 3 3 3 3 3 3 3 3 3 3 3 3 3 3 3 3 3 3 3 3 3 3 3 3 3 3 3 3 3 3 3 3 3 3 3 3 3 3 3 3 3 3 3 3 3 3 3 3 3 3 3 3 3 3 3 3 3 3 3 3 3 3 3 3 3 3 3 3 3 3 3 3 3 3 3 3 3 3 3 3 3 3 3 3 3 3 3 3 3 3 3 3 3 3 3 3 3 3 3 3 3 3 3 3 3 3 3 3 3 3 3 3 3 3 3 3 3 3 3 3 3 3 3 3 3 3 3 3 3 3 3 3 3 3 3 3 3 3 3 3 3 3 3 3 3 3 3 3 3 3 3 3 3 3 3 3 3 3 3 3 3 3 3 3 3 3 3 3 3 3 3 3 3 3 3 3 3 3 3 3 3 3 3 3 3 3 3 3 3 3 3 3 3 3 3 3 3 3 3 3 3 3 3 3 3 3 3 3 3 3 3 3 3 3 3 3 3 3 3 3 3 3 3 3 3 3 3 3 3 3 3 3 3 3 3 3 3 3 3 3 3 3 3 3 3 3 3 3 3 3 3 3 2 2 3 3 2 3 3 3 3 2 3 3 3 3 3 3 3 3 3 3 3 3 2 3 3 2 3 3 3 3 2 3 3 2 3 3 3 3 3 3 3 3 3 3 3 3 3 3 3 3 3 3 3 3 3 3 3 3 3 3 3 3 3 3 3 3 3 3 3 3 3 3 3 3 3 3 3 3 3 3 3 3 3 3 3 3 3 3 3 3 3 3 3 3 3 3 3 3 3 3 3 3 3 3 3 3 3 3 3 3 3 3 3 3 3 3 3 3 2 3 3 2 3 3 3 3 3 2 3 3 3 3 3 3 3 3 3 3 3 3 3 3 3 3 3 3 3 3 3 3 3 3 3 3 3 3 3 3 3 3 3 3 3 3 3 3 3 3 3 3 3 3 3 3 3 3 3 3 3 3 3 3 3 3 3 3 3 3 3 3 3 3 3 3 3 3 3 3 3 3 3 3 3 3 3 3 3 3 3 3 3 3 3 3 3 3 3 3 3 3 3 3 3 3 3 3 3 3 3 3 3 3 3 3 3 3 3 3 3 3 3 3 3 3 3 3 3 3 3 3 3 3 3 3 3 3 3 3 3 3 3 3 3 3 3 3 3 3 3 3 3 3 3 3 3 3 3 3 3 3 3 3 3 3 3 3 3 3 3 3 3 3 3 3 3 3 3 3 3 3 3 3 3 3 3 3 3 3 3 3 3 3 3 3 3 3 3 3 3 3 3 3 3 3 3 3 3 3 3 3 3 3 3 3 3 3 3 3 3 3 3 3 3 3 3 3 3 3 3 3 3 3 3 3 3 3 3 3 3 3 3 3 3 3 3 3 3 3 3 3 3 3 3 3 3 3 3 3 3 3 3 3 3 3 3 3 3 3 3 3 3 3 3 3 3 3 3 3 3 3 3 3 3 3 3 3 3 3 3 3 3 3 3 3 3 3 3 3 3 3 3 3 3 2 2 2 2 3 3 2 3 3 3 3 2 3 3 3 3 3 3 3 3 3 3 3 3 2 3 3 2 3 3 3 3 2 3 3 2 3 3 3 3 3 3 2 3 3 3 3 3 3 3 2 3 3 3 3 3 3 3 3 3 3 3 3 3 3 3 3 3 3 3 3 3 3 3 3 3 3 3 3 3 3 3 3 3 3 3 3 3 3 3 3 3 3 3 3 3 3 3 3 3 3 3 3 3 3 3 3 3 3 3 3 3 3 3 3 3 3 3 3 3 3 3 3 3 3 3 3 3 3 3 3 3 3 3 3 3 3 3 3 3 3 3 3 3 3 3 3 3 3 3 3 3 3 3 3 3 3 3 3 3 3 3 3 3 3 3 3 3 3 3 3 3 3 3 3 3 3 3 3 3 3 3 3 3 3 3 3 3 3 3 3 3 3 3 3 3 3 3 3 3 3 3 3 3 3 3 3 3 3 3 3 3 3 3 3 3 3 3 3 3 3 3 3 3 3 3 3 3 3 3 3 3 3 3 3 3 3 3 3 3 3 3 3 3 3 3 3 3 3 3 3 3 3 3 3 3 3 3 3 3 3 3 3 3 3 3 3 3 3 3 3 3 3 3 3 3 3 3 3 3 3 3 2 2 3 3 2 3 3 3 3 2 3 3 3 3 3 3 3 3 3 3 3 3 2 3 3 2 3 3 3 3 2 3 3 2 3 3 3 3 3 3 3 3 3 3 3 3 3 3 3 3 3 3 3 3 3 3 3 3 3 3 3 3 3 3 3 3 3 3 3 3 3 3 3 3 3 3 3 3 3 3 3 3 3 3 3 3 3 3 3 3 3 3 3 3 3 3 3 3 3 3 3 3 3 3 3 3 3 3 3 3 3 3 3 3 3 3 3 3 3 3 3 3 3 3 3 3 3 3 3 3 3 3 3 3 3 3 3 3 3 3 3 3 3 3 3 2 2 3 3 2 3 3 3 3 3 3 3 3 3 3 3 3 3 3 3 3 3 3 3 3 3 3 3 3 3 3 3 3 3 3 3 3 3 3 3 3 3 3 3 3 3 3 3 3 3 3 3 3 3 3 3 3 3 3 3 3 3 3 3 3 3 3 3 3 3 3 3 3 3 3 3 3 3 3 3 3 3 3 3 3 3 3 3 3 3 3 3 3 3 3 3 3 3 3 3 3 3 3 3 3 3 3 3 3 3 3 3 3 3 3 3 3 3 3 3 3 3 3 3 3 3 3 3 3 3 3 3 3 3 3 3 3 3 3 3 3 3 3 3 3 3 3 3 3 3 3 3 3 3 3 3 3 3 3 3 3 3 3 3 3 3 3 3 3 3 3 3 3 3 3 3 3 3 3 3 3 3 3 3 3 3 3 3 3 3 3 3 3 3 3 3 3 3 3 3 3 3 3 3 3 3 3 3 3 3 3 3 3 3 3 3 3 3 3 3 3 3 3 3 3 3 3 3 3 3 3 3 3 3 3 3 3 3 3 3 3 3 3 3 3 3 3 3 3 3 3 3 3 3 3 3 3 3 3 3 3 3 3 3 3 3 3 3 3 3 3 3 3 3 3 3 3 3 3 3 3 3 3 3 3 3 3 3 3 3 3 3 3 3 3 3 3 3 3 3 3 3 3 3 3 3 3 3 3 3 3 3 3 3 3 3 3 3 3 3 3 3 3 3 3 3 3 3 3 3 3 3 3 3 3 3 3 3 3 3 3 3 3 3 3 3 3 3 3 3 3 3 3 3 3 3 3 3 3 3 3 3 3 3 3 3 3 3 3 3 3 3 3 3 3 3 3 3 3 3 3 3 3 3 3 3 3 3 3 3 3 3 3 3 3 3 3 3 3 3 3 3 3 3 3 3 3 3 3 3 3 3 3 3 3 3 3 3 3 3 3 3 3 3 3 3 3 3 3 3 3 3 3 3 3 3 3 3 3 3 3 3 3 3 3 3 3 3 3 3 3 3 3 3 3 3 3 3 3 3 3 3 3 3 3 3 3 3 3 3 3 3 3 3 3 3 3 3 3 3 3 3 3 3 3 3 3 3 3 3 3 3 3 3 3 3 3 3 3 3 3 3 3 3 3 3 3 3 3 3 3 3 3 3 3 3 3 3 3 3 3 3 3 3 3 3 3 3 3 3 3 3 3 3 3 3 3 3 3 3 3 3 3 3 3 3 3 3 3 3 3 3 3 3 3 3 3 3 3 3 3 3 3 3 3 3 3 3 3 3 3 3 3 3 3 3 3 3 3 3 3 3 3 3 3 3 3 3 3 3 3 3 3 3 3 3 3 3 3 3 3 3 3 3 3 3 3 3 3 3 3 3 3 3 3 3 3 3 3 3 3 3 3 3 3 3 3 3 3 3 3 3 3 3 3 3 3 3 3 3 3 3 3 3 3 3 3 3 3 3 3 3 3 3 3 3 3 3 3 3 3 3 3 3 3 3 3 3 3 3 3 3 3 3 3 3 3 3 3 3 3 3 3 3 3 3 3 3 3 3 3 3 3 3 3 3 3 3 3 3 3 3 3 3 3 3 3 3 3 3 3 3 3 3 3 3 3 3 3 3 3 3 3 3 3 3 3 3 3 3 3 3 3 3 3 3 3 3 3 3 3 3 3 3 3 3 3 3 3 3 3 3 3 3 3 3 3 3 3 3 3 3 3 3 3 3 3 3 3 3 3 3 3 3 3 3 3 3 3 3 3 3 3 3 3 3 3 3 3 3 3 3 3 3 3 3 3 3 3 3 3 3 3 3 3 3 3 3 3 3 3 3 3 3 3 3 3 3 3 3 3 3 3 3 3 3 3 3 3 3 3 3 3 3 3 3 3 3 3 3 3 3 3 3 3 3 3 3 3 3 3 3 3 3 3 3 3 3 3 3 3 3 3 3 3 3 3 3 3 3 3 3 3 3 3 3 3 3 3 3 3 3 3 3 3 3 3 3 3 3 3 3 3 3 3 3 3 3 3 3 3 3 3 3 3 3 3 3 3 3 3 3 3 3 3 3 3 3 3 3 3 3 3 3 3 3 3 3 3 3 3 3 3 3 3 3 3 3 3 3 3 3 3 3 3 3 3 3 3 3 3 3 3 3 3 3 3 3 3 3 3 3 3 3 3 3 3 3 3 3 3 3 3 3 3 3 3 3 3 3 3 3 3 3 3 3 3 3 3 3 3 3 3 3 3 3 3 3 3 3 3 3 3 3 3 3 3 3 3 3 3 3 3 3 3 3 3 3 3 3 3 3 3 3 3 3 3 3 3 3 3 3 3 3 3 3 3 3 3 3 3 3 3 3 3 3 3 3 3 3 3 3 3 3 3 3 3 3 3 3 3 3 3 3 3 3 3 3 3 3 3 3 3 3 3 3 3 3 3 3 3 3 3 3 3 3 3 3 3 3 3 3 3 3 3 3 3 3 3 3 3 3 3 3 3 3 3 3 3 3 3 3 3 3 3 3 3 3 3 3 3 3 3 3 3 3 3 3 3 3 3 3 3 3 3 3 3 3 3 3 3 3 3 3 3 3 3 3 3 3 3 3 3 3 3 3 3 3 3 3 3 3 3 3 3 3 3 3 3 3 3 3 3 3 3 3 3 3 3 3 3 3 3 3 3 3 3 3 3 3 3 3 3 3 3 3 3 3 3 3 3 3 3 3 3 3 3 3 3 3 3 3 3 3 3 3 3 3 3 3 3 3 3 3 3 3 3 3 3 3 3 3 3 3 3 3 3 3 3 3 3 3 3 3 3 3 3 3 3 3 3 3 3 3 3 3 3 3 3 3 3 3 3 3 3 3 3 3 3 3 3 3 3 3 3 3 3 3 3 3 3 3 3 3 3 3 3 3 3 3 3 3 3 3 3 3 3 3 3 3 3 3 3 3 3 3 3 3 3 3 3 3 3 3 3 3 3 3 3 3 3 3 3 3 3 3 3 3 3 3 3 3 3 3 3 3 3 3 3 3 3 3 3 3 3 3 3 3 3 3 3 3 3 3 3 3 3 3 3 3 3 3 3 3 3 3 3 3 3 3 3 3 3 3 3 3 3 3 3 3 3 3 3 3 3 3 3 3 3 3 3 3 3 3 3 3 3 3 3 3 3 3 3 3 3 3 3 3 3 3 3 3 3 3 3 3 3 3 3 3 3 3 3 3 3 3 3 3 3 3 3 3 3 3 3 3 3 3 3 3 3 3 3 3 3 3 3 3 3 3 3 3 3 3 3 3 3 3 3 3 3 3 3 3 3 3 3 3 3 3 3 3 3 3 3 3 3 3 3 3 3 3 3 3 3 3 3 3 3 3 3 3 3 3 3 3 3 3 3 3 3 3 3 3 3 3 3 3 3 3 3 3 3 3 3 3 3 3 3 3 3 3 3 3 3 3 3 3 3 3 3 3 3 3 3 3 3 3 3 3 3 3 3 3 3 3 3 3 3 3 3 3 3 3 3 3 3 3 3 3 3 3 3 3 3 3 3 3 3 3 3 3 3 3 3 3 3 3 3 3 3 3 3 3 3 3 3 3 3 3 3 3 3 3 3 3 3 3 3 3 3 3 3 3 3 3 3 3 3 3 3 3 3 3 3 3 3 3 3 3 3 3 3 3 3 3 3 3 3 3 3 3 3 3 3 3 3 3 3 3 3 3 3 3 3 3 3 3 3 3 3 3 3 3 3 3 3 3 3 3 3 3 3 3 3 3 3 3 3 3 3 3 3 3 3 3 3 3 3 3 3 3 3 3 3 3 3 3 3 3 3 3 3 3 3 3 3 3 3 3 3 3 3 3 3 3 3 3 3 3 3 3 3 3 3 3 3 3 3 3 3 3 3 3 3 3 3 3 3 3 3 3 3 3 3 3 3 3 3 3 3 3 3 3 3 3 3 3 3 3 3 3 3 3 3 3 3 3 3 3 3 3 3 3 3 3 3 3 3 3 3 3 3 3 3 3 3 3 3 3 3 3 3 3 3 3 3 3 3 3 3 3 3 3 3 3 3 3 3 3 3 3 3 3 3 3 3 3 3 3 3 3 3 3 3 3 3 3 3 3 3 3 3 3 3 3 3 3 3 3 3 3 3 3 3 3 3 3 3 3 3 3 3 3 3 3 3 3 3 3 3 3 3 3 3 3 3 3 3 3 3 3 3 3 3 3 3 3 3 3 3 3 3 3 3 3 3 3 3 3 3 3 3 3 3 3 3 3 3 3 3 3 3 3 3 3 3 3 3 3 3 3 3 3 3 3 3 3 3 3 3 3 3 3 3 3 3 3 3 3 3 3 3 3 3 3 3 3 3 3 3 3 3 3 3 3 3 3 3 3 3 3 3 3 3 3 3 3 3 3 3 3 3 3 3 3 3 3 3 3 3 3 3 3 3 3 3 3 3 3 3 3 3 3 3 3 3 3 3 3 3 3 3 3 3 3 3 3 3 3 3 3 3 3 3 3 3 3 3 3 3 3 3 3 3 3 3 3 3 3 3 3 3 3 3 3 3 3 3 3 3 3 3 3 3 3 3 3 3 3 3 3 3 3 3 3 3 3 3 3 3 3 3 3 3 3 3 3 3 3 3 3 3 3 3 3 3 3 3 3 3 3 3 3 3 3 3 3 3 3 3 3 3 3 3 3 3 3 3 3 3 3 3 3 3 3 3 3 3 3 3 3 3 3 3 3 3 3 3 3 3 3 3 3 3 3 3 3 3 3 3 3 3 3 3 3 3 3 3 3 3 3 3 3 3 3 3 3 3 3 3 3 3 3 3 </DataArray>
</CellData>
</Piece>
</UnstructuredGrid>
</VTKFile>