<?xml version="1.0"?>
<VTKFile type="UnstructuredGrid"  version="0.1"  >
<UnstructuredGrid>
<Piece  NumberOfPoints="8007" NumberOfCells="31820">
<Points>
<DataArray  type="Float64"  NumberOfComponents="3"  format="ascii">5.645654201507568 21.17927932739258 37.23579025268555  5.056466102600098 20.50606918334961 36.96971130371094  4.851836235526027 21.33507962380647 37.68239085381686  4.698966385913749 21.05992757480884 36.50151520458071  24.62417984008789 32.21992874145508 30.89274978637695  24.1805305480957 33.10403060913086 31.40691947937012  23.65111516659351 33.00036059922646 30.19650565994206  23.29684940580348 32.03880840657664 31.19202063549403  12.2485680832481 36.34376549340885 36.34260710065332  12.38605976104736 34.70022964477539 36.07826995849609  11.53387144660103 35.02077575383205 36.73175429694053  11.6065409293136 35.07260164603684 35.56695154921104  17.55693355860406 26.05910250479342 37.29993235865359  17.95992602331125 27.39468892653674 37.02409534569711  19.12274346035662 25.78523458263155 37.48924588683091  18.94267829131832 26.51088337050286 35.91344019987373  2.211963415145874 36.93383026123047 39.80255126953125  2.037676572799683 37.81325531005859 39.83066558837891  2.797188282012939 37.66729354858398 39.89125061035156  1.971482767138679 37.70497172946749 39.16728459313786  25.62509945650099 30.0783948218949 36.03052666330976  25.37401962280273 29.74086952209473 36.82929992675781  25.74884986877441 30.66513061523438 37.26541137695312  25.16315078735352 30.49622917175293 36.68424987792969  23.66309951991002 37.55972881432952 28.79998990031553  23.18651897942468 35.91797202856242 29.82352594463852  21.8010651694571 37.18613362373468 29.03427286212382  23.05051402047161 36.14147452211896 28.01301550002965  34.09026107313191 16.55571440184556 30.51268137688902  33.88375854492188 17.18732070922852 29.55645942687988  33.11483001708984 17.28025054931641 29.95257949829102  34.57072406613248 17.48280827298325 30.42666791858331  2.172826438458049 39.01558168694685 22.92397749628122  1.584525942802429 39.89572906494141 22.92720031738281  1.102702021598816 39.2034797668457 22.40666961669922  1.296501994132996 38.96308135986328 23.04791069030762  35.50333023071289 12.68857955932617 24.29021072387695  34.68006896972656 13.06538009643555 24.51547050476074  34.72109337889442 11.85350323099136 24.43751351647833  35.36427935633157 12.32520363328645 25.13113254348877  21.0169792175293 32.11265182495117 27.0190601348877  20.85755920410156 31.2291202545166 27.01577949523926  21.82953071594238 31.82776069641113 26.99846076965332  20.6947046925945 31.54533495889583 27.8194461798149  19.94610977172852 9.857664108276367 38.18770980834961  19.91542053222656 10.74433040618896 38.49259948730469  21.14235550672289 10.27471129123756 38.79845195042704  20.81327712105984 10.70207556178925 37.35253039738533  19.64200526690917 28.95742389238147 36.44174933835306  20.3646297454834 29.41546058654785 36.3160514831543  20.01637396612465 29.96269456608093 35.33585737525393  19.38423168353742 30.22112701403402 36.07878872933914  32.91257858276367 18.3771800994873 37.8048095703125  32.82822036743164 19.20314979553223 38.07062149047852  33.27568501011447 19.18917403450212 37.28318304680815  32.58183381278117 18.93603798961593 37.25466432556418  26.56778907775879 28.11483955383301 31.504150390625  26.35972132125508 27.0113475837152 30.9406377410691  27.05536079406738 27.5013599395752 31.70583915710449  25.75052237529727 27.67669242631254 31.13787314631691  8.121655464172363 37.74383163452148 33.07558059692383  8.706639289855957 37.42276000976562 32.6844596862793  8.748313178825397 38.15181894944418 32.17171915469483  8.909582792962354 37.96457008788087 33.44744387728456  29.3667003772865 19.30805498465221 37.53760497674538  28.68825344041529 18.64242730791512 38.22939435134327  28.40289657100666 18.85270406141872 36.76068964139638  29.2414801781897 18.32468399005903 37.59526936959428  32.20977020263672 32.47356033325195 36.51670074462891  31.53544044494629 31.99403953552246 36.05831146240234  32.6685791015625 31.90727996826172 36.38888168334961  32.16336059570312 31.27301025390625 36.31119155883789  19.56262016296387 26.66131019592285 30.48493957519531  19.12948036193848 26.00860977172852 29.73154067993164  18.93540954589844 26.75423049926758 30.36422920227051  19.03023378604545 26.87284410524174 29.61528028995385  29.0504207611084 26.53302001953125 33.53047943115234  29.17655944824219 27.23356056213379 33.71850967407227  28.43837001310416 27.2775126714665 33.92865151458757  28.93357311570495 26.68516650769414 34.24204954931464  29.50457000732422 10.9754695892334 35.53081893920898  29.8074893951416 10.90530014038086 34.70655059814453  29.50317931132104 12.34687554127081 34.60804769156135  30.2639361831956 12.26682612572651 35.45012590987027  3.445698976516724 20.14925003051758 32.04328918457031  2.919678926467896 20.72513961791992 32.09609985351562  3.812129534549468 20.55776518127621 33.16413435645816  4.012580218219198 20.99977661651681 32.00676129884497  36.7947998046875 7.939727783203125 25.97591018676758  36.39913940429688 7.861127853393555 26.6499195098877  37.13685989379883 8.569181442260742 26.28104019165039  36.37075892412741 8.932036658771425 26.54225885579558  38.59210968017578 14.19577980041504 30.99505996704102  37.87430072551417 14.5708273334112 30.2976787008023  38.90797302070094 14.66776824976421 30.4175588810007  38.90328749360128 13.70292122800763 30.06569794024073  9.506823258741134 38.65936742356441 31.16827756190667  10.08242034912109 37.74050140380859 30.72151947021484  10.40416923441926 38.83660594420363 30.68629455363521  10.57034548532746 38.06650251163888 31.63533326396238  27.27416038513184 32.49850845336914 37.94029998779297  26.94993019104004 33.22652053833008 37.66476058959961  27.49921534445176 33.51692304291213 37.18881462350147  26.59507535555418 32.89995277897684 36.83903586280976  2.859983157894381 33.78091226475991 29.99482525734578  3.995953790161748 34.55346957294583 29.65131932477753  3.581475019454956 34.61917877197266 30.97784996032715  4.171729004993799 33.60093488815438 29.92050816511257  27.23146057128906 26.22598075866699 39.32600021362305  27.36519050598145 27.22282981872559 39.25796890258789  28.05776977539062 26.53463935852051 39.89208984375  27.96105083585012 26.47899713946307 38.73555299015274  23.6962127204534 22.39323790604518 32.91993982650639  25.17153902069803 21.37187163051845 31.75863278938518  23.82684091539933 23.31767721300477 31.56443624665931  25.22215903288461 23.279768923619 31.89096764127279  20.00617980957031 9.197901725769043 38.76840972900391  20.09869956970215 9.995880126953125 39.02400970458984  20.34049034118652 9.423279762268066 39.36502075195312  20.74946028058507 9.466475520521664 38.03348222514362  15.05440998077393 39.89572906494141 33.37648010253906  14.12905979156494 39.89572906494141 33.02558135986328  15.06770038604736 39.89572906494141 32.61352920532227  14.40671646310702 39.04737392536023 32.93765656128942  25.92009730430738 31.55765084527573 34.00518718381603  25.30589387869204 30.44203580374674 34.77869003927009  25.98551539701602 30.38632709922596 33.74563944779613  26.79094092892896 31.01517719220019 35.08989083161331  39.89416122436523 10.65517997741699 29.59099960327148  39.89416122436523 11.33504009246826 30.20170974731445  39.89416122436523 11.5145902633667 29.39339065551758  39.05332083169912 11.02842963527597 29.9070251238138  34.49996948242188 20.07081031799316 37.45333099365234  33.73038864135742 19.90756988525391 37.95827865600586  34.45394134521484 20.59691047668457 37.8654899597168  33.80634696699604 20.82579157783631 36.90764718905221  24.35688903084363 30.07969926470127 32.44322332169924  24.08733234525855 28.11174577457565 32.15123212058749  24.11053153965659 29.31929201706184 33.28445515380274  23.22133075391989 29.77349662272414 31.97177311997158  12.9337100982666 35.28232955932617 31.89193916320801  12.09739017486572 35.96720123291016 31.83163070678711  12.06365966796875 35.03582000732422 32.03065872192383  12.20199763002288 35.61908211795688 32.52631607285277  30.20044039209425 15.32791496938898 33.91520740967427  29.92716808294223 14.10402943890873 34.82199210514282  29.45680956135388 15.44918809802281 35.19804777674647  29.64365030550715 14.42570135600475 33.73521239957319  13.00804042816162 31.26049041748047 31.82843017578125  13.68900966644287 30.93679046630859 31.40644073486328  13.79193348024008 30.98411229337798 32.67922743374642  12.99602042634161 30.22571293579004 32.28677705478716  0.3503492176532745 35.25662231445312 32.41926193237305  0.5222272872924805 35.12524032592773 32.89327239990234  0.936135340252557 34.82043177038629 32.43307306580542  0.889519976991153 35.45002115845495 32.70207415163502  37.76517868041992 6.823711395263672 38.85606002807617  37.30613708496094 7.357527732849121 38.35615539550781  36.97259902954102 7.092794418334961 38.98308181762695  37.46072418317019 7.831738043801661 39.1493187805933  20.26705932617188 39.31787872314453 31.79626083374023  20.37162971496582 39.89572906494141 30.88445091247559  20.87800322035305 38.79101211507489 30.83838374607323  20.12434620241509 38.47179813791236 31.2854590277715  27.46312808869176 11.79467216657777 38.24595007010387  26.78860857419974 12.51687203797752 37.14997344568989  27.73514197886697 11.35795874035866 36.35883065614445  26.64272946621096 10.52093492425368 37.53785348082197  5.372900009155273 39.89572906494141 33.43682098388672  5.775423049926758 39.89572906494141 34.44112014770508  4.71952486038208 39.89572906494141 34.21279144287109  4.985116925923335 38.97372286927905 33.4877438663203  6.004600771874833 37.4575206249816 29.07192080302629  5.690604209899902 37.01855087280273 30.52218055725098  5.828961339408133 36.43663974139247 29.30666107926708  6.880218833928257 36.57421721761881 29.46176893902981  22.27211952209473 33.25748062133789 26.4819393157959  22.84893869210471 34.60953218207978 27.08051086268512  21.87319291765421 33.45080806845724 2
[...]
<PointData  Vectors="u"> 
<DataArray  type="Float64"  Name="u"  NumberOfComponents="3" format="ascii">2.9969190997201283e+00 3.5466413512637969e+00 6.9903691309380607e+00  3.2614357063172728e+00 3.2926797034159212e+00 8.9490404338798655e+00  2.7002845514505935e+00 4.1967328373206936e+00 6.3508707437067908e+00  3.3653712005297667e+00 3.8562732527249302e+00 8.7378702011799056e+00  -5.4817590048243776e+00 -1.3477210442689305e+01 1.7917590543189021e+01  6.1099281960263108e+00 1.4556620802337628e+01 8.4943152949714374e+01  3.8308247357305149e+01 9.4314061092440404e-01 1.1287401969617274e+01  5.8482547034502346e+01 1.2672250609100377e+00 4.2827753206858745e+01  1.3876045633006191e+02 9.2444638003867023e+00 -2.8990769182582582e+01  1.5748409695494840e+02 6.7073948099653862e+01 -2.8127719981242809e+01  1.4851866755967677e+02 3.5237950630211252e+01 1.7586477956439886e-01  1.6466980022803500e+02 4.2141540855781805e+01 -2.3455989401133692e+01  2.1332320627998097e+01 -6.0425883706153492e+01 3.6196552198279003e-01  3.2622941387053288e+01 -7.4101427454625977e+01 -2.6777012925490542e+00  4.0748381856673788e+01 -5.7892123235526483e+01 -3.3004580113358983e+00  5.0408130228464231e+01 -6.0639967737465561e+01 4.0406135363977924e+00  1.9771786548970653e+00 7.1044062851553091e-01 -5.2205071285827709e-01  2.4637949823892802e+00 -1.0569455667258185e+00 7.6505788223794713e-01  5.7073404057873729e+00 7.6022554313885757e-02 -4.5538766897385830e-01  2.5999392936031818e+00 -1.1688404722027823e+00 2.4707569925487292e+00  1.2763910521893675e+02 -1.5548566028799936e+01 1.0289834465336752e+02  1.1623840453653891e+02 -2.8352887382452604e+01 1.1795507733396843e+02  1.0659867968000621e+02 -1.9409005867216241e+01 1.0445810307117455e+02  1.2877885796450300e+02 -2.0924421817137482e+01 1.1935598268837015e+02  5.9249375923285641e+01 4.4954901248247729e+00 -1.2878786461003328e+01  6.2958257074189248e+01 6.1905467946034056e+00 5.1343492042338825e+00  9.5718412672717108e+01 -3.9578376808497797e+00 -2.1087980072786998e+01  6.6915849620042053e+01 1.1953601257673452e+00 -3.1345215802099155e+01  2.6431701489445612e+02 -4.1053255061284140e+01 -1.8215408135563229e+02  3.1447494117417256e+02 -8.5737136474187267e+01 -2.1351759973452209e+02  2.5926698255554453e+02 -4.7892005793589568e+01 -1.2946953683694215e+02  2.9090934005271191e+02 -7.5036124761269889e+01 -2.0410140926853407e+02  1.3270894240957207e+02 2.1268573318786085e+01 3.7006878018882043e+02  9.2012139240629821e+01 -2.4740344635382252e+00 3.4859902584298209e+02  1.1304671129175891e+02 6.2361682192839943e+01 3.2620288536038788e+02  1.3103233267847639e+02 8.1294698386744642e+01 4.0152717227235780e+02  1.9180958154058069e+02 8.4358418624854878e+01 2.8428514220937683e+02  2.0328929669590210e+02 7.3303973846320943e+01 2.7252683679174510e+02  1.7948345691050903e+02 7.4408261479589328e+01 1.9709071615242630e+02  1.9823825129531838e+02 1.2013875454295894e+02 2.5500378377798680e+02  7.4676275857206477e+01 1.6516416552174757e+01 1.2304495973386624e+00  7.0747603794248732e+01 1.8274837700358049e+01 -1.3331282759227194e+00  8.8069378936158870e+01 2.2563139562487578e+01 -1.5466085736114765e+01  6.7349841391164460e+01 2.0126100090438513e+01 -8.1619451901076054e+00  -1.6023739127869527e+00 1.6912151476044619e+02 4.8190648898132146e+01  -1.7139422037848988e+00 1.2476811547391635e+02 2.2903790083140326e+01  4.3589751243153451e+01 1.3341134947739448e+02 1.8728993877795197e+01  4.6202129189653817e+01 1.5483750884583313e+02 2.5820933461758536e+01  5.0887736177200921e+01 -6.8750177797168604e+01 -2.8337478178834086e+01  4.8918514517058561e+01 -6.3724171305926752e+01 -5.9087963845918914e+01  8.9385210468261619e+01 -4.0166849188628753e+01 -4.3391438972674337e+01  6.5454807023855352e+01 -5.5543886144917408e+01 -4.2760516332410276e+01  6.5191803884230524e+01 3.4897423908554174e+01 1.7326961593753783e+01  7.0619894337199739e+01 6.3143829748648571e+01 8.5916843253581376e+00  6.7536436056456807e+01 7.7284063560913140e+01 -3.2629957428045686e+00  8.7637017502767932e+01 5.4018037893331709e+01 5.0498523524009098e+00  8.0578705711143172e+01 -1.6702430212043001e+01 1.6861408372505250e+02  3.8142799883961793e+01 -6.8336258577140407e+00 1.2037379265339983e+02  1.0253055447697011e+02 4.3741774295796249e-01 1.8548600018206650e+02  5.7208133385756952e+01 -1.2851456901503528e+01 1.0223853536534943e+02  1.4393111782733880e+02 -9.4018659844029116e+01 7.1774696997774541e+01  6.6618176845925319e+01 -8.2636940343122220e+01 2.2945477180834366e+01  2.0137289466820212e+02 -6.4106346925961091e+01 1.0253471578710227e+02  1.2402528444660783e+02 -1.8553684762205314e+01 3.7012360309214053e+01  1.3145924521873852e+02 5.4051733661213504e+01 -4.0179277374077856e+01  9.3253189078917146e+01 6.0761906689697284e+01 -3.3119476488467768e+01  1.2642250052200359e+02 3.8305695806974889e+01 -1.1938518002010886e+01  1.1987009692727020e+02 6.5297287240923723e+01 -5.5151343534176000e+01  2.7142284102434854e+02 -1.4104425798763319e+02 8.1830255607378916e+01  2.4702728262272487e+02 -7.4720017197186237e+01 1.0992980221811104e+02  3.7869458938931621e+02 -1.3364435325810052e+02 -4.7230612482213914e+00  3.7571529413796355e+02 -9.8427195396353468e+01 3.2116539934965836e+01  1.2077399935814141e+02 -6.7397831621584894e+00 7.8428751505787162e+01  8.7584540826642950e+01 8.0297463365503177e+01 4.9169097510909232e+01  1.1125607948494248e+02 4.2029399931474920e+01 5.2699211216264494e+01  8.1575727774993638e+01 3.8809498027664183e+01 5.1150181023337545e+01  1.7342838592359530e+02 -3.1767436244023056e+01 1.5126307185462096e+02  1.5648566571920162e+02 -1.7974032408132306e+01 1.1299886051047200e+02  1.4185290634719800e+02 -7.9396603862423154e+00 1.1261647706617364e+02  1.6279671601536560e+02 -3.0476004571632149e+01 1.0398957476394608e+02  2.7832678684381568e+02 1.3236684238194576e+02 -8.5267696291187008e+01  3.2335528598814949e+02 1.1366170402423121e+02 -2.0536727994706261e+01  2.2124779977565663e+02 7.2169965870643068e+01 -3.6625825336739055e+01  2.7488505484470159e+02 3.2981966139383474e+01 -4.2185761295242536e+01  2.3505595916420486e+01 -9.4407903313089303e+00 -2.2451689971842590e+01  1.5239154039138198e+01 -2.0998814783645031e+01 -1.9945410651133657e+00  8.2671257557680775e+00 -7.0786291472493890e+00 -3.8090787959827415e+00  2.7832503454313333e+01 -2.9198230355647510e+01 -1.2005164876244944e+01  1.0396314340781831e+02 3.0144986874420937e+02 2.3668997871345275e+02  2.4420916594323512e+02 3.1922709776115477e+02 3.2253572686836424e+02  3.0383211105903649e+02 2.2691489506324157e+02 4.0975270456706198e+02  2.6654580457009558e+02 1.6775905694238142e+02 2.8194184908544031e+02  2.3854108171824731e+02 5.7061870158735573e+01 -1.6030717379130863e+01  2.6547682737165582e+02 5.4616631160332879e+01 -2.6839316521160686e+01  2.2664896909390689e+02 2.9180165051176978e+01 -6.1352324293167619e+01  2.8831434303882537e+02 1.7813860086704860e+01 -4.7783710774566181e+01  2.7942714878411277e+02 -1.0527383355031063e+01 6.2734414584692530e+01  2.2688367546357298e+02 -2.9548797482094987e+01 1.5542654211300080e+01  2.6284351022721870e+02 6.1936653486138260e+00 7.5933107932910078e+00  2.2492936899650218e+02 4.5065670143752117e+00 -2.5319319612192976e+00  1.2085278541225044e+02 -1.2697181973209435e+01 4.0100335649705848e+01  1.0054497292936826e+02 8.4951167676410417e+00 4.4444845637876021e+01  1.1613843364453433e+02 1.4153262556483750e+00 6.4200553673300206e+01  1.0997304061802583e+02 -2.1180292470229023e-01 8.2792566733112096e+01  1.4526915994412533e+02 -2.2273792335344570e+01 1.1388802839296775e+02  1.5139901739227454e+02 -2.1064235734902784e+01 1.3554378831214476e+02  2.0609730460120772e+02 -1.3213480896914406e+01 1.3180826536085723e+02  1.4641747841895705e+02 -1.7137814335967697e+01 1.2299152456489422e+02  2.2668525726436563e+01 1.1893289958270014e+01 3.6522156158734198e+01  2.8542504007841856e+01 8.9246193270266758e+00 4.2420381545384643e+01  4.2484593387837918e+01 1.2949915982064466e+01 8.7850938828280167e+00  5.7678296749850226e+01 8.2072227695361946e+00 4.3026774085100293e+01  6.8270141103133895e+01 -1.6767240615808202e+01 6.4343449167359807e+01  8.0691902198097694e+01 -2.1610603691120211e+01 9.4950129247327283e+01  5.9392093504966653e+01 -1.2446485280274047e+01 8.2216657098227472e+01  6.4916089049470571e+01 -1.4446397169034542e+01 9.4228227001338098e+01  4.7991841651050393e+00 1.5745540338537003e+02 4.3072153970813297e+01  8.2444016509216631e+00 1.5078342808447272e+02 2.7563924698346980e+01  2.1019145579863061e+01 1.5003245269946899e+02 2.8691593482472648e+01  5.6504077558957846e+01 1.7091062871339966e+02 5.8047118981955606e+01  1.8190326798559229e+02 -7.8769580721605159e-01 -9.4945399202834494e+01  1.8348721035356732e+02 3.7120239642261704e-01 -8.0631567419083893e+01  1.8858725964457946e+02 1.4708584864367905e-01 -8.7307829563869348e+01  1.8598560604450816e+02 -6.5781339552807090e+00 -8.3754106472891380e+01  1.4153304599901435e+02 5.7964099839553791e+00 5.2791045558696624e+01  1.4511555500076008e+02 -1.3926548728495144e-01 8.5488054643059655e+01  1.5048680293832626e+02 3.8463665944841119e-01 4.6658889199810872e+01  1.1997205275057836e+02 -1.3081525586852856e+00 7.6302315270483575e+01  3.6766564724099123e+02 2.3980226722421123e+00 7.3051368827483127e+00  3.6587036803643628e+02 7.1090716774042004e+00 1.0790592942109491e+01  3.8494765348134990e+02 -3.5943394919879399e+00 4.6245456904371025e+00  3.3899442642696687e+02 -1.2374819430822440e+01 1.7703706714227177e+01  8.0264817611852024e+01 1.2007460601774139e+02 -7.0601283813516424e+00  8.3085779708952529e+01 1.0304276237428654e+02 -1.0678053563759565e+01  7.4783907788935508e+01 1.0499406058717854e+02 -1.6498206965940309e+01  1.1218266206636206e+02 1.2830930148123204e+02 -2.4371581117530770e+01  6.5344691333602000e+01 -1.3139299312541357e+00 9.8417650305804870e+01  9.2121335157348113e+01 -8.7000701010988664e+00 6.5304700450572327e+01  1.2283370190080240e+02 1.9213115633785240e+00 8.4929352802942120e+01  8.5379471928086772e+01 -4.9898522342069773e+00 5.2506011504445894e+01  2.9733165055346137e+02 -2.1598152630251047e+01 -5.9360703169738386e+01  2.6076636977482264e+02 2.6039551922236811e+01 -7.3286029971144899e+01  3.1057768667819977e+02 2.3248037821330588e+01 -2.1056687729783132e+01  2.6728596372595035e+02 9.7890411671473920e+00 -4.3805412855407617e+01  1.8476320049597308e+02 1.7385796269652904e+01 -5.1653249562576534e+01  2.0006117670486796e+02 3.3920766076920302e+01 -4.7765118329540734e+01  1.7389604754960041e+02 2.9339852732350504e+01 -5.0349074259860473e+01  1.9471102351874890e+02 4.0059279948961915e+01 -4.1239149907524791e+01  2.8580905163717051e+02 -2.1843893515484945e+02 -1.5059382713683340e+02  1.6684928393536563e+02 -1.2290684776978745e+02 -9.9962562830532008e+01  2.1626964825780897e+02 -1.6022083680204230e+02 -3.2753288334675219e+01  1.7663090121163975e+02 -2.0578134546316016e+02 -6.5393939584152861e+01  3.9361085570532119e+01 6.0336830719348832e+01 7.1956912295831799e+01  2.7450148109678405e+01 7.3245579268040473e+01 1.8610577106244875e+01  3.0278632101591860e+01 3.4732732185356944e+01 6.3520498680607488e+01  -1.2068420773397295e+00 1.3847626484064486e+02 6.0432946561402225e+01  6.3930239835813663e-01 1.2970594304811886e-01 -4.9242874086577076e-01  1.2174808852563703e+00 2.2130345753331138e-01 -1.1166322967051883e+00  6.8018851446546558e-01 -6.6574172823906441e-01 -9.5943219576299851e-02  1.2979751482518809e+00 -6.9728305201134411e-01 -8.8326387962189912e-01  3.2614286615682056e+02 -6.2908110731570757e+00 -3.6600504051769114e+01  2.1570519290720711e+02 1.0027974177735945e+00 -2.6363649972059363e+01  1.7593394601900317e+02 1.0959927684802027e+00 -1.4504751930080087e-01  2.2222490895619043e+02 -1.0855103358596828e+01 -4.3309602360209709e+01  8.4000888325729932e+01 9.5177930303277591e+01 -1.5649940730101827e+01  8.6640480124393989e+01 8.6855398384376073e+01 -3.3141861633508931e+01  1.0429502705296919e+02 1.2076171104899095e+02 -4.9587680714252073e+01  7.6311684891822011e+01 1.1770642734798551e+02 -1.6680340156283830e+01  7.6935101875625964e+00 -1.1697510403318170e+00 5.9621884452126920e+01  4.2803102865136026e+01 3.5388832211323577e-03 4.3083345411096239e+01  2.0966622169463363e+01 -1.1400697663689532e+00 2.6910362476806277e+01  2.8556033296310357e+00 -2.5751867689819337e+00 4.3955334300801852e+01  1.2834687831597608e+02 1.3638170848355506e+01 1.9290636129266974e+02  1.2101209725853010e+02 4.3361410402492254e+01 1.2502349018696853e+02  1.1932722200230289e+02 -4.7569373090408460e+00 1.6783010242767119e+02  9.9835353790287726e+01 1.0797166839100433e+01 1.6540109539963805e+02  9.7937812319938118e+01 7.3688458771813607e+00 -5.8742850917895922e+01  7.3658082014202023e+01 2.1131545564355094e+00 -4.5123299549831387e+01  7.3741071506127284e+01 6.4209126077689325e+00 -2.2978771971860414e+01  7.5672675804871020e+01 1.2852084147447258e+01 -3.6356863023817148e+01  1.6361615917758431e+01 1.5091878171741635e+01 -2.3113883093108334e+00  1.6846552340128660e+01 1.2786125726158039e+01 5.2119102047649546e-01  5.5811946910294816e+00 8.2266767704499770e+00 -1.3244305976907149e+00  9.5011876187850657e+00 -1.4373049327805820e+00 -3.6121640702587338e-01  1.3819262068149231e+02 1.2707831224528691e+01 7.1380080655892186e+01  1.4583862084535875e+02 4.2252256827985557e-01 7.7477089557569158e+01  1.4861786636526992e+02 8.8238092570372828e+00 7.6598180450813985e+01  1.5045250073416494e+02 1.0803683002001236e+01 8.1214575229146448e+01  1.4739906687734987e+02 -2.5049344602722247e+01 1.5282912902065848e+02  1.5865843697162850e+02 -2.1468918729965964e+01 1.1413410003791864e+02  1.7262038635025357e+02 -1.6943846894281481e+01 1.3699635274370888e+02  1.9991377321292191e+02 -3.7203655636918462e+01 1.0309825728053552e+02  4.4624423496729122e+01 -6.7842139766909966e+01 1.5406919360575683e+01  6.2158290720555854e+01 -6.1692296596671689e+01 7.2546800328942807e+00  4.5791450299812531e+01 -6.8944697945855154e+01 -1.3931512333832806e+01  6.4662900073259593e+01 -4.9743827534913699e+01 -4.4656017900080648e-02  1.0982467192452896e+01 3.1903710116193420e+01 1.4517304271440881e+02  -1.7763654944764674e+01 -9.2295567026765923e-01 9.6808806929102090e+01  4.5839949337844381e+01 -1.7187975661083352e-01 9.2227288306833131e+01  4.6816673724379612e+01 1.6809728774378180e-01 1.1924276163032316e+02  2.3758526895146724e+02 -1.3079939754977136e+01 -9.7143540731040119e+01  1.8975097079372077e+02 1.2521028128678616e+01 -1.1706982445581710e+02  2.6397666563716831e+02 3.7523927843832880e+01 -8.8678543503139792e+01  2.0313524966178522e+02 4.3435963910908193e+01 -2.6716584365891862e+01  7.0099700885097491e+01 3.6021965477462182e+01 8.3372399156670085e+01  2.4369255337669934e-01 6.0157523266874975e+00 3.4145457196529435e+01  2.9739775406660353e+01 1.2092521058483675e+02 1.4547767080749313e+02  4.7510479566959852e+01 3.0485435861202756e+01 9.3169061202651207e+01  1.7178324278459439e+02 -7.5674876695951099e+01 1.7496379546075281e+02  1.4997741877003475e+02 -5.5385609885093579e+01 2.2179620901091292e+02  2.0061101129596969e+02 -8.1364344017318018e+01 2.4354663591213387e+02  1.6492265423380607e+02 -7.5316659294858823e+01 1.7710266339682246e+02  1.3565988965456521e+02 3.0776339556785171e+01 -3.5125121871177458e+00  1.2939459671038543e+02 4.8363329210816595e+01 5.6542047668908573e+01  9.5382660887926576e+01 2.4006609892256460e+01 2.8301790559187054e+01  9.8436999346681176e+01 3.5542254014741950e+01 2.3702567100075868e+01  2.3897315380494950e+00 4.8616403614365140e+00 3.9611665472035176e+00  2.2083648250373007e+00 2.6845602534317923e+00 7.6258611817643125e+00  1.4778581699132480e+00 2.0049270371047365e+00 3.2035272783572273e+00  4.4714680629798337e+01 -6.4041917805149623e+01 -1.0608550283250257e+02  8.3621686072569517e+01 -3.0543609659485721e+01 -1.0662556852518226e+02  5.6910073120033069e+01 -2.4052821277454377e+01 -5.3758211786046381e+01  7.9759842842139875e+01 -3.2778869547184883e+01 -7.5113577031191724e+01  2.4466284848120856e+02 1.7175683021530782e+02 7.4229741295286814e+01  2.3275452007573699e+02 9.2014680199258152e+01 1.4571630220346160e+01  1.8067234182470523e+02 1.3484038360175379e+02 -5.4501095295475945e+00  2.9935320466718544e+01 -8.2792028256492713e+01 -4.0951103007714821e+01  4.5734701954392385e+01 -7.7448732357246101e+01 -1.4346764191757874e+01  3.7489408989903055e+01 -9.9073332432334098e+01 -2.2132925143657825e+01  3.9712953103383988e+01 -8.6892968773742155e+01 -1.7867821444644324e+01  1.4170716418312475e+02 -1.1654523703623573e+01 1.0400668698457702e+02  1.3749807692764568e+02 -1.5003781329496830e+00 1.2110690195286821e+02  2.3123234991550149e+02 4.5829081766551667e+00 1.5093578271270147e+02  1.3875186576345001e+02 1.9997968979880348e+01 2.0177979193692460e+02  1.3924892468911167e+02 1.9980269408435539e-01 -5.5847818443760602e+00  1.0275533110587429e+02 -5.3714932990328093e+00 -9.5668366145236092e+00  1.2513719424210791e+02 -1.5303077120558388e+01 -2.7131221621706452e+00  9.2074681526941205e+01 -1.6302815739988610e+01 -2.7875587921557130e+01  9.9880281224213462e+01 1.1190619085194037e+02 1.5557074992214408e+01  1.1746095891225893e+02 1.0115353799624825e+02 1.7996024377442815e+01  7.8787946546019427e+01 1.2616022183448237e+02 2.0116539592341947e+00  9.7340898848549259e+01 1.5856741962571220e+02 1.3231237776140597e+01  1.1426761308521375e+02 -4.3384899557029897e+01 4.0136865543721058e+01  1.1607405259258269e+02 -1.7261162586687840e+02 4.7998522066875090e+01  1.0416977903101422e+02 -4.6281552132082425e+01 7.4645863645429117e+01  1.8990104178471292e+01 -5.3870547008344616e+01 5.8969366462239414e+01  1.7593482567978248e+02 -6.8432180612710823e+01 -1.4268924152237190e+02  1.7677730964464232e+02 -6.3175574572863276e+01 -1.1688730003373161e+02  1.9420159753989358e+02 -1.0209470588212407e+02 -1.1190173978699528e+02  1.8745358882224718e+02 -5.1384885820739058e+01 -1.0512501871412231e+02  2.2654136706160256e+02 -9.9984574921676170e+01 4.0650149028637117e+01  1.5764727705693153e+02 -5.4984596686375731e+01 7.2284126398628331e+01  2.3285824667936774e+02 -4.7254447827551623e+01 3.8594278882497854e+01  1.7194104049853308e+02 -2.4112081584380711e+01 4.6569119913718183e+01  1.5096909603259138e+02 -9.8302072520502417e+00 8.8193023561065957e+01  1.4223061847539188e+02 -2.2599077494854189e+01 7.5210868435034058e+01  1.2899015652251239e+02 -1.8959183583332806e+01 8.1808753119014170e+01  1.2972189668383211e+02 -8.7862846726835464e+00 8.3431214478786970e+01  4.9599121463448931e+01 -2.4768360180108576e+01 -4.2990164486216457e+01  4.6006968323779311e+01 -1.5003652878249540e+01 -3.3489769487215007e+01  4.8364625476682860e+01 -3.0346634123264447e+01 -2.6120684053885213e+01  4.8060754257530959e+01 -3.5207718467785654e+01 -3.0319852189924212e+01  1.1874831668455320e+02 7.8116706564153034e+01 -6.1685021554584679e+01  1.5304410749506712e+02 6.0282033879905789e+01 -6.7590901581348646e+01  1.4542040976850296e+02 9.7210190479903574e+01 -5.3240914000849635e+01  1.0529596637119646e+02 6.8645156265665477e+01 -4.7591653050163806e+01  2.7516043114860455e+01 -2.1372764219648154e+01 -1.1620271820536082e+01  3.4264988593349521e+01 -7.4337325819010317e+01 -1.7780552506333791e+01  4.8532585363235953e+01 -4.1392763589793560e+01 1.7388957450658105e+00  5.8958222520437623e+01 -1.3355189923202900e+01 2.8112851697332520e+01  6.2956907994548381e+01 -1.4527476830546030e+01 -1.9818302365280775e+01  2.9679400605765093e+01 1.0041386062504685e+01 -1.2052968170120311e+01  4.2194689232503436e+01 4.6251476906494853e+00 -1.1569740989701915e+01  8.6510010548365187e+01 -4.6666572575068566e+00 -5.2054123940098535e+01  2.7122546571259676e+02 3.2724332908342404e+02 3.2214142376713966e+02  1.9048815246055770e+02 2.1465846234579249e+02 3.1978752550370109e+02  1.9971712600238729e+02 1.9484277750324600e+02 2.4044199776905890e+02  2.2632236424227227e+02 1.4508012457644998e+02 2.0979551773940534e+02  8.5607052410702636e+01 -1.4772973366356352e+01 5.6464588760761758e-01  9.0345192877414760e+01 -3.5059100083864514e+01 -9.8855766649617083e-01  1.0212230766192597e+02 -8.7539294144900737e