<?xml version="1.0"?>
<VTKFile type="UnstructuredGrid"  version="0.1"  >
<UnstructuredGrid>
<Piece  NumberOfPoints="13574" NumberOfCells="64022">
<Points>
<DataArray  type="Float64"  NumberOfComponents="3"  format="ascii">16.94401931762695 33.495849609375 37.8160400390625  16.96632946437779 32.6446546697249 38.22348877102345  16.55980385250035 32.97623387809892 38.1872834792754  17.06546497344971 33.29185485839844 38.36572456359863  17.18691062927246 33.08786010742188 38.91540908813477  16.68124950832311 32.77223912712236 38.73696800381153  16.17558838737375 32.45661814682284 38.5585269194883  15.58012008666992 32.29833984375 37.36251831054688  16.35417927211705 32.31596318718096 37.72066780239552  16.23400391048375 32.7848085546126 37.82778259426563  15.87785423702184 32.37747899528642 37.96052261501759  15.93626976013184 32.70566940307617 37.22977828979492  16.29241943359375 33.11299896240234 37.09703826904297  16.14286888545934 31.91134397026201 37.84277816921681  16.61821937561035 33.30442428588867 37.45653915405273  14.7152795791626 32.12464904785156 38.14585113525391  15.49308490753174 31.78473472595215 37.64920997619629  15.44543398326817 32.29063359733721 38.3521890273711  15.06066465377808 31.69788932800293 38.0408763885498  15.14769983291626 32.21149444580078 37.75418472290039  15.79081905788365 31.86387387748857 38.247214280667  15.40604972839355 31.2711296081543 37.9359016418457  15.77385992034957 31.84489880353521 38.82357906168781  15.04370551624399 31.67891425404957 38.61724116957061  14.58524990081787 31.42827033996582 38.63462829589844  14.97869067707163 31.3307249001067 38.86162974989288  14.7646050453186 30.90801048278809 38.68435859680176  14.55679988861084 31.25351524353027 38.87493324279785  14.52834987640381 31.07876014709473 39.11523818969727  15.41448974609375 31.94405937194824 39.89208984375  15.85904603519541 31.660128777365 39.49036052381866  15.39331059970957 31.58861941609791 39.49036052381866  15.79503906673375 32.20033875938555 39.22530838161915  15.88022518157959 32.01556873321533 39.89208984375  16.34596061706543 32.08707809448242 39.89208984375  16.26077450221959 32.27184812065263 39.22530838161915  15.37213145332539 31.23317946024758 39.08863120388732  14.65026473999023 31.77645969390869 38.39023971557617  14.99564981460571 31.34969997406006 38.28526496887207  5.645654201507568 21.17927932739258 37.23579025268555  4.775401310719888 21.19750359930765 37.09195302919878  4.954151169063062 20.92057440357804 37.3260510787639  5.248745218516797 21.25717947559952 37.4590905532512  5.351060152053833 20.84267425537109 37.10275077819824  5.172310293710659 21.11960345110071 36.86865272863313  5.056466102600098 20.50606918334961 36.96971130371094  4.877716244256924 20.78299837907922 36.73561325414583  4.851836235526027 21.33507962380647 37.68239085381686  4.698966385913749 21.05992757480884 36.50151520458071  3.581475019454956 34.61917877197266 30.97784996032715  3.788714404808352 34.58632417245924 30.31458464255234  3.220729088674669 34.20004551836628 30.48633760883646  3.876602012224378 34.11005683006352 30.44917906271986  4.171729004993799 33.60093488815438 29.92050816511257  3.427968474028065 34.16719091885287 29.82307229106166  4.083841397577773 34.07720223055011 29.78591374494505  3.51585608144409 33.69092357645714 29.95766671122918  2.859983157894381 33.78091226475991 29.99482525734578  3.995953790161748 34.55346957294583 29.65131932477753  0.5222272872924805 35.12524032592773 32.89327239990234  0.6199345973222138 35.35332173645403 32.56066804200404  0.6432422789529157 35.03852704241971 32.42616749908923  0.7058736321418168 35.28763074219134 32.79767327576869  0.4362882524728775 35.19093132019043 32.6562671661377  0.7291813137725187 34.97283604815701 32.66317273285388  0.3503492176532745 35.25662231445312 32.41926193237305  0.936135340252557 34.82043177038629 32.43307306580542  0.912827658621855 35.13522646442063 32.56757360872022  0.889519976991153 35.45002115845495 32.70207415163502  4.71952486038208 39.89572906494141 34.21279144287109  5.380269987925047 39.43472596711023 33.96443200701269  5.574161529541016 39.89572906494141 33.9389705657959  5.046212434768677 39.89572906494141 33.82480621337891  5.247473955154419 39.89572906494141 34.32695579528809  5.775423049926758 39.89572906494141 34.44112014770508  5.372900009155273 39.89572906494141 33.43682098388672  5.690604209899902 37.01855087280273 30.52218055725098  6.28541152191408 36.79638404521077 29.99197474814039  5.759782774654018 36.7275953070976 29.91442081825903  5.847602490887368 37.23803574889217 29.79705068013863  6.004600771874833 37.4575206249816 29.07192080302629  6.442409802901546 37.01586892130021 29.26684487102805  5.916781055641483 36.94708018318704 29.18929094114669  5.828961339408133 36.43663974139247 29.30666107926708  6.354590086668195 36.50542847950564 29.38421500914845  6.880218833928257 36.57421721761881 29.46176893902981  3.633425951004028 32.3714599609375 27.86569023132324  2.919146936235254 32.29199117178648 27.87313800235514  3.301542918977563 32.20579045767515 28.16347842593913  3.353808522224426 32.04137516021729 27.75113010406494  3.251029968261719 32.45766067504883 27.57534980773926  2.868633985519409 32.54386138916016 27.28500938415527  2.971412539482117 32.12757587432861 27.46078968048096  3.074191093444824 31.71129035949707 27.63656997680664  3.021925490197961 31.87570565695493 28.04891829868082  2.969659886951098 32.04012095441279 28.461266620555  4.079413989049415 21.73354684061378 38.57134112651785  4.018583618535373 20.83391852096471 38.23322760410399  4.533730509309239 21.02123904167301 38.26399343137142  4.147519386070934 21.22047265007667 38.70846856772192  3.950478221513855 21.34699271150182 38.09610016289993  4.465625112287722 21.53431323221012 38.12686599016735  4.33668934475216 21.14775910309817 37.65162502654943  3.821542453978294 20.96043858238987 37.620859199282  4.215624783092452 20.70739845953955 38.84559600892599  5.888777453142604 28.2273549627222 35.45604724379769  5.894779147248088 27.73888127775278 35.64446798468752  5.860542626219384 27.84755865771577 35.21779011708809  5.482696240390546 27.63932920434787 35.46558999609505  5.076615027638488 27.05130344597354 35.4751327483924  5.48869793449603 27.15085551937845 35.65401073698487  5.454461413467326 27.25953289934144 35.22733286938544  5.832307799296164 27.46776235270935 34.97953299037847  5.866544320324868 27.35908497274636 35.40621085797791  5.900780841353572 27.25040759278336 35.83288872557735  9.285566329956055 32.53252029418945 34.36931991577148  9.587490277919155 32.63127463447987 33.80854549549632  9.320153909358364 32.93767493355213 33.99075069569163  9.608108043670654 32.60665512084961 34.32971000671387  9.552902698516846 32.22611999511719 34.18711471557617  9.930649757385254 32.68078994750977 34.29010009765625  9.642695623072964 33.01180976021229 33.95114078663401  9.875444412231445 32.30025482177734 34.14750480651855  9.820239067077637 31.91971969604492 34.00490951538086  9.354741488760673 33.34282957291482 33.61218147561178  7.559475322291052 34.45189939147296 36.82791008884215  7.753312610074239 35.09659315789838 36.69851029097418  7.332427528438562 35.12040221805452 36.70182554347635  7.657314192194625 34.6482242440464 36.44046177293923  7.755153062098199 34.84454909661983 36.05301345703631  7.851151479977814 35.29291801047181 36.31106197507127  7.430266398342136 35.31672707062795 36.31437722757343  7.105379734586073 35.78890504463607 36.57574099811055  7.526264816221751 35.76509598447993 36.57242574560838  7.947149897857428 35.74128692432379 36.56911049310622  8.292165152171812 34.78214512276334 28.91609571722865  7.527097701738786 34.88548298887393 28.10112490395013  8.156590165622028 35.13572932997522 28.40074276592838  8.292087195189733 34.58435250782363 28.41220728852197  7.66267268828857 34.53189878166206 28.6164778552504  8.292009238207653 34.38655989288392 27.90831885981528  8.156512208639949 34.93793671503551 27.8968543372217  7.662594731306489 34.33410616672235 28.11258942654371  7.033180224405327 34.28165244056078 28.31685999327215  8.021015179072245 35.48931353718709 27.88538981462811  4.392319862514311 27.99618566888295 33.1749877713079  4.305773094220532 27.12421663785307 33.57003077179859  3.992570702370395 27.63478974807821 33.14135465622233  3.995551885892703 27.6673464318812 33.61656611388241  4.705522254364448 27.48561255865781 33.60366388688415  5.018724646214585 26.97503944843267 34.03234000246041  4.30875427774284 27.15677332165606 34.04524222945867  3.598783909271095 27.33850719487945 34.05814445645692  3.595802725748787 27.30595051107646 33.58293299879684  3.592821542226479 27.27339382727346 33.10772154113676  0.6044865846633911 35.16376113891602 31.11257362365723  1.137505160137719 34.87115594453213 31.1563978473435  0.8142726028409175 34.65781879546584 30.90916473230896  0.8350299461332027 34.84360238618252 31.34770968358617  0.9069617986679077 35.19131469726562 30.92126178741455  1.209437012672424 35.21886825561523 30.72994995117188  1.116747816845434 34.68537235381545 30.71785289606628  1.065573307603014 34.52344363344904 31.58284574351512  1.044815964310729 34.33766004273235 31.1443007922379  1.024058621018444 34.15187645201566 30.70575584096068  4.151772022247314 27.92696952819824 29.46505928039551  3.880770424297436 27.56926129070927 30.07278496208964  3.488633290482752 27.70608266320015 29.86259284929641  4.042981110796143 27.51107868595469 29.67757433489593  3.989561335748607 27.98515213295282 29.86026990758922  3.650843976981458 27.64790005844557 29.4673822221027  3.149915931715603 27.36883058869289 29.46970516380989  3.542053065530288 27.23200921620202 29.67989727660313  3.8273506492499 28.0433347377074 30.25548053478293  3.934190199344972 27.09518784371115 29.89008938939636  10.15417003631592 31.96574020385742 38.55546188354492  9.630271796429557 32.10080246778025 39.07074143236517  10.11477951964327 32.2054364245726 38.82474431843232  9.628695635571091 32.31871730435978 38.
[...]
<PointData  Vectors="u"> 
<DataArray  type="Float64"  Name="u"  NumberOfComponents="3" format="ascii">2.3326197136445967e+02 -2.3088958063301530e+02 -8.4554981552719553e+01  1.7254508490138696e+02 -1.6692689272334769e+02 -6.5538159489301918e+01  1.8690968237461195e+02 -1.9811392298543274e+02 -5.3179965991359936e+01  1.9600744054816985e+02 -2.1722603248313322e+02 -7.1128420369684804e+01  1.6689662185426826e+02 -1.8818415322214599e+02 -5.7807199833297297e+01  1.6491379492992570e+02 -1.8418255652784225e+02 -4.3969118983402083e+01  1.6902770745966578e+02 -1.9205369514599255e+02 -4.1029408825206417e+01  1.9804089456541692e+02 -2.4278455191803249e+02 -6.4418185677331508e+01  1.7151720348940796e+02 -1.8455894399484640e+02 -7.9833833341839153e+01  1.9388535472721671e+02 -2.0994414902429540e+02 -5.3556465269618123e+01  1.8113264671671564e+02 -2.0698948617985386e+02 -5.4593390629793547e+01  2.4598970763910052e+02 -2.6370368085497358e+02 -5.5853033276609708e+01  2.8460379714632478e+02 -2.7133391580159059e+02 -7.6212107723283296e+01  1.5821164378902620e+02 -1.9019592429203939e+02 -6.9188189326852807e+01  2.7511394665253135e+02 -2.7943281216663109e+02 -8.6664901386978087e+01  2.0986254192508426e+02 -2.2656574919838408e+02 -5.3734838651203916e+01  1.7653083652121870e+02 -2.1999180088050244e+02 -7.7337359934227067e+01  1.8391249123627603e+02 -2.0850717196671678e+02 -4.1316765988051969e+01  1.7963295423581596e+02 -2.2408315660007514e+02 -5.4469014183637071e+01  1.8777178374409243e+02 -2.2475629606776278e+02 -5.2141481819172981e+01  1.6320456125923877e+02 -1.9812531928571735e+02 -5.4564790646531108e+01  1.5392388726820690e+02 -2.1429518849759069e+02 -7.5118886834066885e+01  1.6001935962830831e+02 -1.9535843888321230e+02 -3.2087696421956878e+01  1.8438936430677683e+02 -2.2664806340356768e+02 -3.9028952784199824e+01  2.1209853074909657e+02 -2.6572452741403657e+02 -4.3333948048008935e+01  1.6045580723134282e+02 -2.4407137909251250e+02 -3.2011318469144435e+01  1.1318873574404054e+02 -2.5569997550031388e+02 -2.3871184073727473e+01  2.2753094331168060e+02 -2.9784382456694999e+02 -4.9075208513854776e+01  1.9155116504174751e+02 -3.2701136356812788e+02 -1.2796946863569394e+01  1.7402482885985822e+02 -2.0424297203349016e+02 -1.9649259103087624e-01  1.4863851613129427e+02 -1.9200370263045943e+02 -1.2149654752258078e+01  1.6316937621022700e+02 -2.1190538700402158e+02 -1.2240812387393673e+01  1.6803595322480274e+02 -1.9300684567597358e+02 -1.9476877517741407e+01  1.5865130960142196e+02 -1.9247984354937472e+02 -3.0894282113536498e-01  1.4517348963150366e+02 -1.8054082497549376e+02 -5.4713422103913489e-01  1.5505794148154021e+02 -1.8309414347664929e+02 -2.2580592557901934e+01  1.4595506639634308e+02 -2.1289254406469172e+02 -2.2779549273809064e+01  2.2502526037729132e+02 -2.3377175220018202e+02 -5.3221802894399396e+01  1.6098899102293026e+02 -2.3433264283854052e+02 -4.3919437194523340e+01  2.8736855453301722e+00 3.4101947744170742e+00 6.8880757870558913e+00  3.1237987825820253e+00 3.9127827116144673e+00 7.9001681337688527e+00  2.9669320738358476e+00 3.2404916996759976e+00 7.3811895510778420e+00  2.8425343396578966e+00 3.8837820963691372e+00 6.6071161643329868e+00  3.6439227539890533e+00 3.2355087015637718e+00 7.6775401055165693e+00  3.4289457833322228e+00 3.7823232219832903e+00 7.9819763982477303e+00  3.1627726170659169e+00 3.3605764873029842e+00 8.9168650912023928e+00  3.0865835014472043e+00 3.8083021399008885e+00 8.5679588204916524e+00  2.6304231304410348e+00 4.1208917004859797e+00 6.3166460568947604e+00  3.3538537736662137e+00 3.7814437011716699e+00 8.7460770267290489e+00  2.1881394631431797e+02 -1.2338860549206117e+01 1.3333941501540841e+02  1.7177928873993332e+02 -8.0943871897881241e+00 1.3836522557305057e+02  1.6354765074201595e+02 -2.8488549724750669e+01 1.1550117539764277e+02  1.6057827452941106e+02 -1.0038901106899401e+01 1.3128813777343348e+02  1.4805525611806925e+02 -1.8164983634771250e+01 1.2193855813831219e+02  1.5329834018169601e+02 -2.3581987787885591e+01 1.2164770393455510e+02  1.4969439576128764e+02 -1.9337648383011356e+01 1.2834822588809649e+02  1.5217796781605233e+02 -2.1047454413825921e+01 1.1886239163285440e+02  1.4951921108124643e+02 -2.2859439918364277e+01 1.1473904510175872e+02  1.5244655427535730e+02 -2.1985547831182842e+01 1.3404497787915372e+02  2.0709018409422825e+01 8.3439236463057341e+01 2.7441678266586649e+01  2.9882548522899224e+01 1.1020875240562515e+02 7.8363760538869698e+01  2.5732156094582137e+01 6.1191188778362182e+01 7.1613007815183138e+01  1.8063028208761175e+01 1.1847516788669802e+02 4.4860314730622214e+01  3.2265882503662958e+01 8.4835368466122048e+01 5.9427343793622725e+01  2.2929655383495021e+01 5.7183311176301672e+01 4.8830967933889710e+01  3.2704455864636792e+01 7.2744460946761251e+01 7.8598034400533322e+01  3.0178034785808300e+01 3.2688519585066231e+01 6.2914380386019722e+01  1.2060693311155436e+01 6.6942091797760170e+01 5.6453866609762756e+01  -4.6290964188922405e+00 1.4607361723816203e+02 7.4605236748634965e+01  2.2013491874976893e+01 -9.8244740442994716e-01 2.4848389241881286e+01  2.4298927633632683e+01 -4.7544593801052454e-01 4.6183648334422202e+01  2.7348642464670831e+01 2.5996244085168946e-01 5.2617992052917302e+01  1.3614444124731003e+01 -1.9049590843314489e-02 3.9929769335926061e+01  2.9180132889977703e+01 -3.5595594579021894e-01 3.6181474368933614e+01  4.1913276381220989e+01 -3.0420120598338313e-01 4.2534511168947681e+01  7.0787855016913124e+00 -8.1102110437258623e-02 5.9983280242727673e+01  1.1372499976483053e+02 4.6264371945451494e+01 1.2049416406579235e+02  1.1263289829876221e+02 2.8573610816808785e+01 1.5414205668470555e+02  1.1730939720666757e+02 1.1090634862825762e+01 1.6097297243282097e+02  1.3031582247649061e+02 3.2523783651655904e+01 1.8050446665529307e+02  1.2810557092156927e+02 1.4281938752999345e+01 1.8934773020953750e+02  1.1310247813198249e+02 1.7272580968892495e+01 1.7853230456069605e+02  1.2555607571378792e+02 5.8424953382237215e+00 1.7640623064960829e+02  1.2019000424364434e+02 -5.8496709394156552e+00 1.6435123191389246e+02  1.1059620071754885e+02 1.1891641814731353e+00 1.6328104558728850e+02  9.7126745660363440e+01 7.3524981640311200e+00 1.6214591540479157e+02  2.0131037868127166e+02 -3.6888634217183473e+01 1.0604162950544665e+02  1.6107693807909115e+02 -2.3627172219629557e+01 1.2705560440835275e+02  1.7281046978458673e+02 -2.5491676696606543e+01 1.1303518300470320e+02  1.8639802639008300e+02 -2.6940337109304522e+01 1.2604155239711582e+02  1.7829566374583607e+02 -3.4954108624183512e+01 1.3062684475102591e+02  1.5081165381274448e+02 -2.6940577068328949e+01 1.5377948801717650e+02  1.7022220152363860e+02 -1.4008436258636664e+01 1.5029513843275265e+02  1.7325542800949651e+02 -1.7555855486210010e+01 1.4008173361542649e+02  1.6623576326172764e+02 -2.0923365551247898e+01 1.1873345631166748e+02  1.5826698896072716e+02 -2.1164023635127428e+01 1.1415804068704468e+02  2.2397948564676997e+00 4.8833647560863493e+00 4.0301321062235500e+00  1.7244510582247639e+00 2.2068348333691201e+00 5.4042153001429289e+00  2.0396392171988156e+00 2.9773040247166795e+00 4.8093266443959548e+00  1.6994113075113286e+00 3.3209424797214377e+00 3.6474318507172514e+00  2.1985938412006174e+00 3.6796073128566285e+00 5.8004645296134338e+00  2.3565180773582712e+00 4.6360432038735668e+00 5.2355857548075440e+00  2.6135930053488683e+00 3.4750173475663289e+00 6.8989555031319387e+00  2.3188515333688877e+00 2.7479201328493770e+00 7.6924019101136132e+00  1.3371350067434895e+00 1.9367037477011455e+00 3.1643734834618900e+00  4.3589373567335343e+01 4.3445619420083453e+01 4.8885156853684137e+01  4.1790310091668118e+01 4.4572480071714303e+01 4.5868841003006835e+01  4.3675133972268497e+01 4.3402716066011095e+01 5.0166880321086097e+01  3.6659185385649771e+01 4.2049958101178454e+01 4.7984641549331798e+01  2.6771274604902739e+01 3.7727281572486824e+01 4.4885842701532532e+01  3.2216768902272896e+01 4.3020977342636087e+01 4.4642972555684267e+01  3.1578445119438047e+01 4.1640314152468314e+01 4.9814047662658695e+01  4.0228518931817199e+01 4.6100341118787007e+01 5.4306493198665883e+01  3.9832389198013765e+01 4.6675652221141171e+01 4.7961367230569898e+01  3.8379560093078197e+01 4.7550571010394556e+01 4.3878423803955776e+01  2.4366518508858505e+02 1.0873792737454158e+02 -2.8642214808901329e+01  2.7204628927088078e+02 6.5674388046749655e+01 2.3411168969118709e+01  2.4331613320018027e+02 7.8191419285053655e+01 2.8813704314295187e+01  2.7789204015317574e+02 9.4878279624061619e+01 -1.2008299671076403e+01  2.7527946610460737e+02 8.2289429877414037e+01 -2.5045311637594939e+01  2.9804122009141935e+02 7.3016363917524558e+01 1.2364608760335477e+01  2.6419057608532574e+02 7.0086099727825570e+01 2.7842782229131366e+01  3.0472027713561681e+02 7.4672129150621444e+01 -1.7750953228067051e+01  3.0214917056865914e+02 7.3007287762752611e+01 -2.1103750271380303e+01  2.4559798203678551e+02 6.3977705216462638e+01 6.5385757745049446e+01  9.9845680421996363e+01 8.6157412115069604e+01 5.0529730604399575e+01  1.1036195356587166e+02 8.3581187592036486e+01 4.2987144623607684e+01  9.7280625094036623e+01 8.2359341431716260e+01 5.3413906291313239e+01  1.1262266260073076e+02 8.5840422780407337e+01 5.7217946494617784e+01  1.2883697675539179e+02 8.8078573542449107e+01 6.9337905529836789e+01  1.2597103715506340e+02 9.1042423774828976e+01 4.9227108199859472e+01  1.1207452874930392e+02 8.8746161807352436e+01 5.9317091726519600e+01  9.3199308059490264e+01 8.0367001950638823e+01 4.9839754765416593e+01  1.0819465530771119e+02 8.0651037918529639e+01 3.7471189720342274e+01  1.1678327169541016e+02 7.8911491015034471e+01 2.4474637472755177e+01  6.9800756164108066e+01 -5.7958783618218995e+01 1.4323629723053571e+02  9.5178616382975846e+01 -5.6112329235505534e+01 1.3550083560219122e+02  7.2353436927392281e+01 -5.4011789253051106e+01 1.3473812047626663e+02  7.6243348194892519e+01 -6.6350209722206245e+01 1.2871262321668979e+02  9.2768572074159877e+01 -5.5983229424331007e+01 1.3447180133698456e+02  8.5141898743094927e+01 -7.5711708960998578e+01 1.1953341790495880e+02  8.1480697377101905e+01 -6.3713324179793446e+01 1.2894705966398050e+02  9.6706126001453541e+01 -6.7330854210245917e+01 1.2719515910477682e+02  1.0808423421708622e+02 -6.0207637234851546e+01 1.2930754487514756e+02  8.1163005685850919e+01 -5.0260996854814536e+01 1.3514291663504525e+02  2.8033796438969478e+01 1.6206286805320385e+01 7.7718114088277133e+01  1.7356551575886957e+01 1.6882712716453266e+01 6.3225737718408475e+01  1.8515217507371961e+01 1.1740802816646919e+01 7.6542172517975189e+01  1.6622633854868560e+01 1.6932287510204027e+01 6.8761302232579567e+01  2.3246313643682146e+01 2.2827020496681143e+01 6.5983099061477617e+01  1.8371353754353226e+01 2.7417369409340164e+01 5.7904899863645930e+01  1.7607391725708297e+01 2.1497289295700650e+01 5.7767830418583429e+01  1.0266947907899894e+01 1.9595451436984117e+01 5.7184847427449114e+01  9.3704364903171129e+00 1.5680101795000279e+01 6.5687717000073278e+01  1.1084150183713639e+01 9.6228525400202969e+00 7.5516262237959765e+01  1.6001756724774403e+01 5.4995382824264929e+01 1.6399229471805904e+02  6.6478909896159763e+01 2.1404634568857063e+01 1.2517643402744862e+02  8.2757676316061904e+01 3.7048738747478410e+01 1.4249684026476152e+02  4.4715601168085897e+01 4.3247170231117600e+01 1.2620514324545067e+02  5.8501077268413503e+01 2.2589924930077725e+01 1.5941331558727092e+02  6.4052341760615576e+01 -2.0458988836189689e+00 1.4844750085406741e+02  9.3518907722569182e+01 1.3363594939877446e+01 1.3393076607201809e+02  7.3622227063417526e+01 2.0448370889748894e+01 1.1005377089763348e+02  9.7844595110818815e+01 2.1110637969468712e+01 1.2616020455080863e+02  1.2833612969228599e+02 1.5860494077714549e+01 1.2899566474288625e+02  6.8009858949521956e+01 -5.0220307480701699e+01 1.2253614714747451e+02  6.9554914446356477e+01 -3.8543514948397096e+01 9.8244771642509818e+01  7.4852889250344901e+01 -4.5087891016718494e+01 1.0340324085206905e+02  7.2668747653441443e+01 -4.7317761788064537e+01 9.8213246198298265e+01  7.4014537821699335e+01 -3.7605119060656037e+01 1.1098906510207117e+02  7.1175537598839057e+01 -5.3260400243781298e+01 1.0518273094325035e+02  7.6675008517619986e+01 -5.6850846484417083e+01 9.7745133469759168e+01  7.1931927637403973e+01 -5.1929640761578916e+01 9.4602688582584321e+01  7.5982694566830844e+01 -3.0530090483968735e+01 1.0770316523682985e+02  6.6530419185540950e+01 -4.5206285722602971e+01 8.8296064269937858e+01  1.2130192162687550e+02 1.6581425667778566e+02 2.3459390027550985e+01  1.0602753410439846e+02 1.3207039628001922e+02 1.2603671841532277e+01  1.3130246259245754e+02 1.5620653070991207e+02 7.2964247589252285e+00  1.1713953179352892e+02 1.3309729926041874e+02 1.8024731188162395e+01  9.9888527984653166e+01 1.3299682573179888e+02 2.2678205059600486e+01  1.0895838956919550e+02 1.1461854745641199e+02 1.4239673186197054e+01  1.2108433945357760e+02 1.2736402284587365e+02 1.0692846539876781e+01  1.0039696720022749e+02 1.1905727273016608e+02 1.5755821023330416e+01  9.0760733308468147e+01 1.1717027692196115e+02 1.6928929548885360e+01  1.3789750705985637e+02 1.4878063188149622e+02 4.8365470613322774e+00  4.2734456268198908e+00 1.7697438780706332e+00 1.1298076164605753e+01  3.2196131689438379e+00 -3.1961566419822431e-02 7.4443842314466835e+00  4.1290183853752840e+00 -7.5033927012514456e-01 9.6980073140931751e+00  3.4356190785181480e+00 -4.3182500885753684e-02 8.8371752862158015e+00  3.9591658975353181e+00 1.3872044850152245e+00 9.6986669430318369e+00  4.3675157701236769e+00 -6.3781713331224266e-01 1.1789184677010413e+01  4.6027556487608710e+00 -3.5975458535642941e+00 1.2396660066773087e+01  3.7677135177448440e+00 -2.7017130990364651e+00 8.3253887185746915e+00  3.8313002364559665e+00 1.1456570418384440e+00 8.3633287636466047e+00  2.3887578936137581e+00 -1.0198370289569347e+00 5.7155080778549827e+00  1.7030344868760710e+02 -9.9506591528544519e+01 1.5851388036962172e+02  1.4667407144304886e+02 -5.2954573856317950e+01 1.7102943171673061e+02  1.3804018419931310e+02 -4.2295371258846636e+01 1.6762818937810189e+02  1.4494590953580692e+02 -5.6162716100086520e+01 1.6288493581519322e+02  1.8270767367101965e+02 -8.1568081525961219e+01 2.0531130804872228e+02  1.5879734736673953e+02 -1.7569154315332852e+01 2.1414237518296304e+02  1.5665153945946707e+02 -6.2743693662709255e+01 1.9682088400509753e+02  1.3926741572083793e+02 -1.5394246717083760e+01 1.9867125594391050e+02  1.7587993481181158e+02 -7.9108920116942485e+01 2.2030685125912811e+02  1.3405022698721228e+02 -4.7719261718088397e+01 1.5672751842776583e+02  9.0933093832533118e+01 2.4749272047310512e+01 1.8861061408693604e+02  9.2549195957579016e+01 -8.4146310146140877e+00 1.6253227735123434e+02  9.9353760335250968e+01 -2.0753939113995967e+00 1.6491336614069760e+02  7.6187315270588044e+01 6.7599135306044289e-01 1.7132746030177279e+02  7.1112382087894360e+01 -1.5716029901167976e+01 1.5609064313660275e+02  8.8403398251028420e+01 -2.1184283256037457e+01 1.5138425277111884e+02  9.8264266820995118e+01 -1.0074574412333284e+01 1.5679500437866338e+02  1.1009923065006134e+02 -1.2434769024957212e+01 1.5406032945886113e+02  1.0394509948347896e+02 -1.6254458285432911e+01 1.4904521938193963e+02  9.9357571646642540e+01 -2.3260214495130651e+01 1.5132082505709766e+02  1.4152646137273268e+02 -3.3729209621226445e+01 1.0524262090488394e+02  1.3593394818921126e+02 -2.8614662422750278e+01 1.2602906018613132e+02  1.3152898510106573e+02 -2.5181162860836086e+01 1.0276330201442444e+02  1.4609696705697056e+02 -3.0604498113831301e+01 1.0415819052733440e+02  1.0228478988234043e+02 -1.9241436961526617e+01 9.5505708598355199e+01  1.2243344701804662e+02 -2.3246725725144611e+01 1.2589999773806241e+02  1.2747298707697126e+02 -2.4473887095325303e+01 1.4465139432417206e+02  8.4417501480299549e+01 1.1323083638159081e+02 3.2809413488006509e+00  8.8675307823669073e+01 7.5469283119100780e+01 4.3307721943546667e+01  1.1288750056539706e+02 9.9058634773320676e+01 2.6962178948460078e+01  6.8767577325979346e+01 9.3497764289641935e+01 2.3437466519368932e+01  6.6007508934541249e+01 7.3611009900849851e+01 3.5983377578637189e+01  7.2044106968365810e+01 7.8670337137634846e+01 4.0546402469380091e+01  9.5854503124044285e+01 8.4312743153310478e+01 3.5737765580187528e+01  7.0273403375149670e+01 6.8877991053777961e+01 4.4152585252344778e+01  7.0580203414783213e+01 5.7639089198866245e+01 4.8244933966890578e+01  1.2358033932170099e+02 8.3967502822974993e+01 4.2899638339941049e+01  7.6793180890572273e+01 5.2320460910368496e+01 7.4867267649140857e+01  7.2852454363813877e+01 4.4840620904931377e+01 7.4790643914751854e+01  8.5995018493333973e+01 4.5265546360385734e+01 6.7495442881151789e+01  7.4696893136534385e+01 4.2965925543010137e+01 6.7573157480853936e+01  8.0674848441104203e+01 4.4033415624992706e+01 7.3273801946863699e+01  8.2249815765583108e+01 3.7274457290115627e+01 7.7297888701626633e+01  9.0615905500897597e+01 4.5764660367789354e+01 7.1207287219015157e+01  9.9192796165981662e+01 4.8393700947311501e+01 7.0414318137236791e+01  9.0194894648854230e+01 4.0558838491210899e+01 7.5368535806163891e+01  8.2276195721397826e+01 3.2489419220268765e+01 8.0740245316810757e+01  1.2913019586819996e+02 -3.8216843479079547e+00 1.2830364964933418e+02  1.3083849822214702e+02 3.7660802870024619e+00 1.1998022729268344e+02  1.3014830002202078e+02 1.2397881464139266e+01 1.2689093879182369e+02  1.2467817779798018e+02 1.3741161199356725e+01 1.3127849343000500e+02  1.1870722415172084e+02 3.3482636967293686e+01 1.3179317977664419e+02  1.2741858778195807e+02 2.1135316174315310e+01 1.2537582500934124e+02  1.2489258900803449e+02 3.0630920668752637e+01 1.3099036713249305e+02  1.3190723953743822e+02 2.2627234835682771e+01 1.2837276518285611e+02  1.3158107647085188e+02 1.5265233665744265e+01 1.2127976625084575e+02  1.3055778071918496e+02 8.4304919408559886e+00 1.1431322650700102e+02  1.0345991458211248e+02 -3.7189946102307644e+01 1.0462275133624297e+02  1.2824610957734274e+02 -1.7803188611814289e+01 1.0449624826280962e+02  1.1461414662140326e+02 -4.9009288424441834e+01 1.0005744901828346e+02  1.1427423594598667e+02 -4.3385548952632263e+01 8.1908565963514064e+01  1.2245233027468831e+02 -1.9027383730327376e+01 1.1828004231880062e+02  1.2540137763323240e+02 -2.6256780017382511e+01 1.1662738096188664e+02  1.2746984731834708e+02 -4.7076263866601963e+01 6.2115578681826776e+01  1.2628035302738900e+02 -5.2846908498907020e+01 8.2829548292582388e+01  1.2319743666771934e+02 -5.5883364846197054e+01 1.0071458211973655e+02  9.2991520810704117e+01 -8.5536051923076016e+01 1.1498299659183093e+02  9.1974005113335181e+01 -9.0859529013440692e+01 1.1447060331698218e+02  9.7265800402663984e+01 -9.1776534634968925e+01 1.1428729148911737e+02  8.9268100419801343e+01 -8.1213785633465875e+01 1.1646488587988277e+02  8.5056063875278483e+01 -9.7424676305652440e+01 1.1101412106254790e+02  1.0350996608817788e+02 -1.1579656779470629e+02 9.9753935501065641e+01  1.0047779063219033e+02 -1.0208584233225608e+02 1.0390287066273362e+02  9.4438098198053638e+01 -8.3293231196733373e+01 1.1405930547824492e+02  1.0023521592413468e+02 -9.4117302610376115e+01 1.0717075311622578e+02  6.1589679928608305e+00 -5.9781457425143714e+01 5.2603405850273383e+01  5.5048936514166371e+01 -7.1736490576278868e+01 6.0967389881043673e+01  2.5451559695775991e+01 -8.3870031811473368e+01 2.8531887499731710e+01  2.2398984084678922e+01 -3.5708158912645445e+01 8.4223479314524354e+01  3.3855288164612524e+01 -5.9630955856516636e+01 8.5961687952190957e+01  5.9005463278475816e+01 -1.0181275092499014e+01 1.0473684499692035e+02  4.8787346414317057e+01 -4.6508676938467836e+01 4.8160497027521934e+01  5.6506808031682844e+01 -3.7121128059165493e+01 1.0155824966238984e+02  5.7283737415969156e+01 -5.5482954075039309e+01 1.0314428544524135e+02  6.5902665641450014e+01 -1.0096543594145466e+02 6.3361542027380739e+00  2.3677558544363144e+01 5.3046110004886472e+01 1.5051754202892015e+01  2.0453588793743624e+01 4.7797007470