<?xml version="1.0"?>
<VTKFile type="UnstructuredGrid"  version="0.1"  >
<UnstructuredGrid>
<Piece  NumberOfPoints="13277" NumberOfCells="62061">
<Points>
<DataArray  type="Float64"  NumberOfComponents="3"  format="ascii">19.10965919494629 18.25015068054199 26.71386909484863  19.32982735892642 18.67787252303297 27.28631578720466  19.28499837937539 18.69416299254991 26.88933763185001  19.32960414886475 18.30970001220703 26.76971912384033  19.15448817449732 18.23386021102506 27.11084725020328  19.5495491027832 18.36924934387207 26.82556915283203  19.37443312841577 18.2934095426901 27.16669727919498  19.19931715404834 18.21756974150812 27.50782540555793  18.96104049682617 18.07943916320801 30.38702964782715  19.01108597139644 17.37571873603956 30.4186347864774  18.77783753338044 17.67589808600712 29.98982537964771  18.64813041687012 17.8253698348999 30.50724506378174  18.33522033691406 17.5713005065918 30.62746047973633  19.34745025634766 15.57701015472412 30.32935905456543  18.99041550894072 15.59304390390961 29.7963564308275  19.46846913419617 15.79930694926416 29.97800576600089  19.30630493164062 15.36383485794067 29.86744976043701  19.26515960693359 15.15065956115723 29.40554046630859  19.11143438678923 15.81534069844964 29.44500314226297  18.94927018423369 15.37986860712616 29.33444713669908  19.42732380948914 15.58613165248071 29.51609647187248  19.58948801204468 16.0216037438042 29.62665247743636  18.63338076153378 15.60907765309509 29.26335380708958  19.36602973937988 20.71834945678711 25.53133010864258  19.22720589355463 20.32982693554011 26.16335717453505  19.32950973510742 20.25263500213623 25.74228477478027  19.03748512268066 20.42162990570068 25.56568050384521  18.70894050598145 20.12491035461426 25.60003089904785  19.0009651184082 19.9559154510498 25.77663516998291  19.29298973083496 19.78692054748535 25.95323944091797  17.78372955322266 19.36870956420898 28.96714019775391  18.05479208752004 18.87143789182212 28.7877017250094  17.96301460266113 18.8729944229126 29.38030529022217  18.20842933654785 19.32333946228027 29.11440467834473  18.63312911987305 19.27796936035156 29.26166915893555  18.23407713695851 18.37572275052574 29.20086681747766  18.47949187084523 18.82606778989341 28.93496620560022  18.38771438598633 18.82762432098389 29.52756977081299  18.14229965209961 18.37727928161621 29.79347038269043  18.32585462181742 18.37416621943526 28.6082632522649  18.60042254253713 18.51606355557945 29.19527637863489  18.68137719097322 18.07888747351932 29.57283033112476  18.50864505767822 18.51762008666992 29.78787994384766  18.77315467583212 18.07733094242885 28.98022676591199  19.22045472984682 17.78049566542244 29.35219027955909  19.21702003479004 18.97158050537109 26.35330963134766  19.02532035193543 19.29606662574816 26.87091419573299  18.90835895885523 18.82699670820136 27.09096986939351  18.9036615874282 19.2127692261548 26.51516592698113  19.33867879929727 19.05487790496446 26.70905790009952  18.786700194348 18.74369930860799 26.73522160064164  19.4603375638045 19.13817530455783 27.06480616885138  18.35638035390596 18.51581811184488 27.11713356993563  18.47334174698616 18.98488802939169 26.89707789627511  18.59030314006637 19.4539579469385 26.6770222226146  18.89862015695889 16.89872842665091 30.39249172993243  18.44700577707608 17.02795320387259 30.24422207661211  18.44132995605469 17.20205497741699 30.82756519317627  18.78683471679688 17.44207572937012 30.77573013305664  18.54743957519531 16.83280944824219 31.02766990661621  18.5531153962167 16.65870767469779 30.44432679005206  18.5587912172381 16.48460590115339 29.8609836734879  19.81914520263672 15.24290466308594 29.62658977508545  19.25797129663893 18.04845171561912 28.44520722518856  19.19813089501526 17.79165772767871 27.81768489028198  19.59536086300865 17.81416626316479 28.10885727472758  19.19694463598217 17.3657457138493 28.12754437500604  19.74383219260629 17.44791699457993 28.90238968446072  19.27199491331837 17.17517599715945 29.13992444475267  19.84494501475366 17.30873199541973 29.38368601689386  19.32353509678992 16.56985632889646 28.92765860994626  19.05090654354671 19.58663110506836 28.62481201069713  18.97606353858436 19.00456353887025 29.01226961715331  18.73080575924495 19.31225042116943 28.69838130848765  18.82848239861686 19.34653148198731 28.13509345803976  19.07374017795627 19.03884459968813 28.44898176670542  19.31899795729568 18.73115771738895 28.76287007537108  19.39329433441162 17.91635513305664 26.90489482879639  19.43812331396265 17.90006466353971 27.30187298415103  18.55167007446289 18.22835922241211 30.09025001525879  18.70939276934161 19.4002447144629 27.40605784032718  18.59243137626141 18.9311747969161 27.6261135139877  19.14440998121068 19.24235339327257 27.59994981344557  19.50524335133437 16.87499664719189 29.56873385158237  18.94116315701401 16.52723111502493 29.39432114171708  18.88962297354246 17.13255078328791 29.6065869765235  19.12287141155846 16.83237143332036 30.03539638335319  18.99663594217618 16.46900754804984 30.38782730885088  18.99096012115479 16.64310932159424 30.97117042541504  19.43448066711426 16.45340919494629 30.91467094421387  18.47141108287157 20.79508063797071 26.13819170431409  18.30610597591976 19.35762052309815 28.55111682789683  18.57716851021714 18.86034885071128 28.37167835515233  18.59113502502441 16.41306972503662 30.97912979125977  18.63483047485352 15.99333000183105 30.93058967590332  18.59681084604581 16.23896795149222 30.39578667469561  19.03465557098389 16.22336959838867 30.92263031005859  18.95312073679288 16.03080802793875 30.09517136402667  18.99114036560059 15.78517007827759 30.62997436523438  19.39096546173096 16.01520967483521 30.62201499938965  18.82242628955655 18.5526619684121 28.68556666381799  19.06574528951933 15.58204374750702 28.98586677628649  19.54379891477478 15.78830679286157 29.16751611145988  19.38163471221924 15.35283470153809 29.056960105896  19.49810981750488 15.55500984191895 28.7083797454834  19.16788721059709 19.99435073170223 26.70185283631842  18.94164643545066 19.62043924721193 26.31513083176628  19.37666364731973 19.46254792602159 26.50902280488468  18.34111748786169 18.44499216564007 27.86269841110026  18.76258588793288 18.29586798047169 28.05804432891141  19.0138997763326 18.78205061174771 27.82145943179884  18.77784875397715 18.3666939266765 27.31247948774678  18.73301977442613 18.38298439619344 26.91550133239213  19.07413961464139 16.25310482247879 29.74381807546213  19.4565115544173 16.29573003635033 29.27715554369131  17.77482032775879 20.38714027404785 28.38919067382812  18.65762101682638 20.23925710859785 28.17028587677904  18.27422582181905 20.35384679975996 27.94114082673021  18.16422557830811 20.78129005432129 28.44123077392578  18.15821552276611 20.27255058288574 28.61833572387695  18.54161071777344 20.15796089172363 28.84748077392578  19.2550048828125 19.37925052642822 26.15327453613281  18.7613996288998 17.86995596664228 28.36790381363547  19.25915755567201 18.47436372944853 28.1353477404645  19.2086996829145 17.57312068963587 28.73986732728256  19.26972634357125 18.25582669140569 29.05753017746508  18.97845792916185 16.08946699099577 29.09550620851792  19.4108224571474 16.0624330854077 28.81801917771483  18.16267013549805 19.76333522796631 28.90731048583984  18.68504655819515 19.75224618685547 28.49128711598277  18.58736991882324 19.7179651260376 29.05457496643066  18.59608598938594 16.04684177712424 29.56216874028874  18.74128591093038 20.22273184004316 26.54656093934008  19.38328456878662 18.67041492462158 26.58943939208984  19.16333961486816 18.61086559295654 26.53358936309814  18.77363131587932 20.32055332547206 27.4930909796323  18.68196722797285 19.88725563620528 27.08505660112345  19.11698443984191 19.72936431501494 27.27894857424184  19.63604545593262 19.16159534454346 26.29859447479248  19.03331052335714 20.05373693647871 26.72316521027513  18.30165136318782 19.86683587801758 28.26214206593394  18.80105685724809 19.83354240372968 27.81409221883603  17.64447021484375 21.25761032104492 27.96274948120117  18.20905076536154 20.78908182325849 27.72792023041674  17.70964527130127 20.82237529754639 28.17597007751465  19.67692947387695 17.58255958557129 27.09592056274414  19.43693705492956 17.4741526497103 27.61173246887509  19.83535328195604 17.92257319902578 27.59304536859663  17.77927494049072 19.87792491912842 28.67816543579102  18.23875999450684 17.974289894104 30.21046543121338  2.919678926467896 20.72513961791992 32.09609985351562  3.466129572343547 20.86245811721837 32.05143057618029  3.365904230508682 20.64145239959807 32.63011710498689  3.18268895149231 20.43719482421875 32.06969451904297  3.445698976516724 20.14925003051758 32.04328918457031  3.912354876384333 20.77877089889651 32.58544782765156  3.729139597367961 20.57451332351719 32.02502524170764  3.628914255533096 20.35350760589689 32.60371177051424  3.812129534549468 20.55776518127621 33.16413435645816  4.012580218219198 20.99977661651681 32.00676129884497  2.885749101638794 26.69099998474121 27.27729034423828  2.916931253034953 26.03469020515513 27.7220685809175  2.957330051967192 26.54534239166721 27.93732046479402  2.598317246992472 26.26305991798472 27.49657419615188  3.204363107681274 26.46263027191162 27.50278472900391  3.522977113723755 26.23426055908203 27.72827911376953  3.275944058009672 26.31697267883762 28.16281484955964  2.310885392346151 25.83511985122824 27.71585804806547  2.66989819732087 26.11740232491072 28.15660431670761  3.028911002295589 26.39968479859321 28.59735058534976  2.078997654983052 23.93007984683385 29.21135479393065  2.32675501533865 24.39471733199241 29.47951320175045  1.833487807946105 24.24791688428869 29.42971628452569  2.001551797622503 24.60161284618619 29.14521899696164  1.924105940261954 25.27314584553852 29.07908319999263  2.081245168301703 24.71255436944726 29.69787469234549  2.249309157978101 25.06625033134475 29.41337740478144  1.756041950585556 24.91944988364103 29.36358048755668  1.587977960909159 24.56575392174354 2
[...]
<PointData  Vectors="u"> 
<DataArray  type="Float64"  Name="u"  NumberOfComponents="3" format="ascii">2.7704127006326695e+02 9.6999560266234397e+01 6.9741184141923696e+01  2.4791917614052372e+02 6.6958742690406922e+01 4.9393067126031632e+01  2.5866693289576273e+02 7.5559069539572477e+01 4.9744217657107953e+01  2.8114122475627585e+02 8.6842599887022374e+01 6.2868710451461666e+01  2.6895621141892121e+02 8.6198207876775086e+01 6.2519561642186424e+01  2.9491373625964258e+02 6.6791170996682183e+01 4.0046140814978422e+01  2.7215417259051827e+02 7.2485878047256918e+01 5.3035329813379676e+01  2.6089957405634306e+02 7.7749991199933447e+01 5.9060971528228642e+01  2.4480428260130634e+02 5.5998634047642554e+01 2.0625952782475728e+01  2.4389041633209814e+02 6.3557071070885883e+01 1.9711561932893090e+01  2.3243066410106684e+02 6.3320191557592949e+01 4.1652496651277062e+01  2.1429128065533445e+02 5.4009360359087111e+01 5.8173737413173390e+00  1.7678858644182861e+02 6.3994372327506788e+01 2.3854935121034810e+01  3.2759800330881438e+02 8.8185041629041578e+01 -1.1208238034072659e+01  2.9513489216077340e+02 1.1814273050300135e+02 6.3748800638257961e+01  3.2877464517651964e+02 5.0392483561802571e+01 2.8452146348840898e+01  4.0078341067672841e+02 9.2257175609628106e+01 3.7493574861746652e+01  4.4510064266674590e+02 1.4180673247587208e+02 1.2074030563641520e+02  3.1466165462694369e+02 9.2335699294101872e+01 8.3272876324875995e+01  3.1180842046691293e+02 1.5249223053552092e+02 1.3809696228530228e+02  3.9286771483329159e+02 5.4789257863359474e+01 5.7525404627683521e+01  3.3252716398759259e+02 4.4686261530743806e+01 3.9746314987769559e+01  2.6794129511133565e+02 1.3598922684246975e+02 1.3954710491784746e+02  2.1035666929672783e+02 3.7397511016541515e+01 3.7168728446454054e+01  2.0743066819988638e+02 4.8140909049489323e+01 4.2145889789301933e+01  2.3113536071154959e+02 3.9124241374171220e+01 3.4249519166947294e+01  2.1620704159238821e+02 5.5401026711962963e+01 5.2465199782840550e+01  2.2386116202617902e+02 7.1447023227378452e+01 5.9282620819554182e+01  2.2981076851250199e+02 6.0669235598924274e+01 4.9089035126315174e+01  2.3991768700601213e+02 4.4948442656425613e+01 3.3797307321434602e+01  1.8398111654238065e+02 8.7554049522885222e+01 4.0397728890674479e+01  2.0732431012089506e+02 7.7886072429877103e+01 5.1226300369535004e+01  1.8166711897391539e+02 5.4478197944966510e+01 4.2853693276220199e+01  2.0576866696037047e+02 6.8245977024444102e+01 1.4593094063973359e+01  2.2158115950013314e+02 5.6155650216698291e+01 2.1313900570037763e+01  2.1234935311185913e+02 6.7213708059337335e+01 5.8190915568251128e+01  2.2189029471747676e+02 6.7925298535331478e+01 4.4917292453160385e+01  2.1708068040980058e+02 4.0033976045374764e+01 2.3281385009138138e+01  1.9128008653595441e+02 5.1463352116336786e+01 5.3623004172591486e+01  2.2596511555375471e+02 8.1449252874234844e+01 6.3577103301629641e+01  2.2753723958533544e+02 6.1354481859519474e+01 4.9049181986899761e+01  2.3048530432576922e+02 6.0407561879722543e+01 5.2820019719025744e+01  2.2426463828645410e+02 3.8709976560923472e+01 3.6484092763852793e+01  2.3751339069756287e+02 7.0545154079245421e+01 6.1128523565260380e+01  2.5200933043792887e+02 6.3145924189141944e+01 5.7709160599627495e+01  2.6894515233945526e+02 8.0322986716809126e+01 3.9281349961247876e+01  2.2993291388801762e+02 7.1689368974748518e+01 4.9247014411503905e+01  2.4098400373842034e+02 8.3738874118995682e+01 5.6460345547984446e+01  2.3993456794621466e+02 8.1377982949555800e+01 5.1646706136178317e+01  2.4842223415581498e+02 6.5410872483934682e+01 3.7723862089131217e+01  2.4603039075626987e+02 9.6115037351663688e+01 5.9887830518169487e+01  2.3339120336416519e+02 5.5882326646613699e+01 4.1391387836193218e+01  2.3619642820195079e+02 1.0606068948227788e+02 6.8869492687108647e+01  2.2936521852938961e+02 9.5489138573753934e+01 6.0384535316144898e+01  2.2177361963651072e+02 8.4459484903540769e+01 5.5693724505760116e+01  2.3489067175817902e+02 7.1319408329265585e+01 2.1757675020914462e+01  2.0841249676308652e+02 7.0472493014776504e+01 4.4236119654356592e+01  1.9432474943658980e+02 6.3338278966258201e+01 7.8700742357455660e+00  2.2559133925141944e+02 5.5009384800176839e+01 6.6246682277938218e+00  1.8393980658505092e+02 7.2510426976198303e+01 -3.6561603708259871e+00  2.0928744714391681e+02 7.2325001937948912e+01 3.2639386241800906e+01  2.3008807948635393e+02 8.1767927406581478e+01 6.7856768187138641e+01  4.0912151759124168e+02 2.4129297728018528e+01 3.1593890050395135e+01  2.5042798577485425e+02 6.5761605467532561e+01 6.1538233946774206e+01  2.7210640342518235e+02 8.2097892135167541e+01 6.5885354761573652e+01  2.6836354097246971e+02 5.7407045425196536e+01 5.5987636165470150e+01  2.8689815490228455e+02 8.6112820732545558e+01 7.3880150382535646e+01  2.6767740213929886e+02 4.7932896369922354e+01 5.6848764158326112e+01  2.6880537191224516e+02 6.6198807232773461e+01 6.4028120910969449e+01  2.6582645306076711e+02 4.6081397559644749e+01 5.3168076571624034e+01  3.1425756334394254e+02 7.1882596127441147e+01 7.6642511273254996e+01  2.1665035410720034e+02 6.3320491657275468e+01 4.4583884661654373e+01  2.2996565032991481e+02 5.8411483474326047e+01 4.3846097858810140e+01  2.1584524376186869e+02 6.7579838949692501e+01 4.4514378722189790e+01  2.1411069862600033e+02 7.1810357251584222e+01 5.1458022302107466e+01  2.2399135934225185e+02 6.4286934738781483e+01 5.2848333130002189e+01  2.3535119770589085e+02 5.8566213928350351e+01 5.6549361048256856e+01  2.9444664657414825e+02 8.5209610802135771e+01 7.5831051079583574e+01  2.8845636957327082e+02 7.5554779936594400e+01 6.0455134674814651e+01  2.2013855335263932e+02 4.7190210263448726e+01 3.6468615433706333e+01  2.1511985099537014e+02 7.8334521332814504e+01 5.4943546681957152e+01  2.2489693810489854e+02 8.5880746861575176e+01 5.9776154736856064e+01  2.2045257037053949e+02 6.6330575119601647e+01 5.2406897232260675e+01  2.7980841117897978e+02 5.7171756572594518e+01 4.8337681238594605e+01  2.7160125264101515e+02 8.5179601913768096e+01 7.7878791224237034e+01  2.4667221110295745e+02 7.2510565250103326e+01 5.9358264422770475e+01  2.5255081326553722e+02 7.0651655344796438e+01 3.9835333110861754e+01  2.4233171724334485e+02 8.0962641847322331e+01 2.1816911666930633e+01  2.3039290322421323e+02 7.0058203977703727e+01 -2.4637942112099946e+01  2.8717489800720045e+02 7.4321955242595081e+01 -1.2281629406507408e+01  1.8690712093032150e+02 6.9646700636149347e+01 5.8762888324573261e+01  2.0455012480245333e+02 8.0483444901442439e+01 4.5425770720814960e+01  2.2074787710369804e+02 7.7415407675807927e+01 5.5964227245442125e+01  1.9004616608848556e+02 7.8495467214732969e+01 -4.9571993357034456e+00  1.7860125355312954e+02 9.2373456680507289e+01 -6.4248892799854813e+00  2.0796854880245084e+02 8.0547886156815380e+01 3.5214575510767844e+01  2.2675315394609203e+02 1.0855818870771824e+02 -2.1570375226003705e+01  2.5953600704667065e+02 8.6104467983726749e+01 3.9062374955651578e+01  2.2608983314477052e+02 1.1618260253141953e+02 -2.1467143874515511e+01  3.1398337397884211e+02 9.0539134621359736e+01 -1.9103225340958037e+01  2.3064349766285707e+02 6.9948004521767203e+01 5.7123314315946438e+01  3.4033800873158833e+02 1.7509397701886152e+02 1.7153209152373645e+02  4.0955557576390879e+02 3.6888032762375602e+01 6.0289526097121772e+01  5.7687025175433780e+02 1.4138107473535297e+02 1.8814622604206301e+02  5.7281142159953095e+02 1.5642201802429270e+02 1.7390040599473357e+02  2.0785798994410783e+02 5.6488719790456614e+01 4.6157243265374404e+01  2.3021633812380438e+02 6.9398911114512472e+01 4.9447651337569972e+01  2.3656236440875517e+02 5.1149372187139761e+01 3.0112332852412312e+01  2.3005593007100930e+02 9.3737119472661490e+01 6.7427622071625976e+01  2.4038747860797270e+02 8.1946375680188183e+01 6.3782098932583374e+01  2.3283015777871128e+02 7.3285220985739642e+01 5.6652314486690258e+01  2.4927896013699038e+02 9.3811404457697549e+01 6.6263410454262356e+01  2.5439170082556078e+02 1.0478283514617948e+02 7.0353349366884729e+01  2.8034165801960830e+02 7.7872512379922100e+01 5.6779878382206675e+01  3.2375852626155898e+02 5.8477476033683956e+01 6.1835785139796222e+01  1.6314503369459635e+02 1.0758204359368276e+02 4.7504426431416647e+01  1.8762595081721824e+02 7.7427914181191852e+01 5.2908901837735449e+01  1.7826602866751739e+02 8.6483858223258594e+01 5.4167867199456403e+01  1.6568505039683444e+02 8.9872282236762970e+01 5.1651725068698290e+01  1.8477457674389601e+02 9.9276535775367293e+01 3.8667552372373983e+01  1.9232798972593670e+02 8.7495440631679500e+01 3.1626674619490757e+01  2.7401236187771042e+02 5.3869720858845916e+01 3.2026453778606246e+01  2.4762602496760252e+02 8.5747701101914501e+01 7.1351308843249981e+01  2.4069899925375523e+02 6.5169336806500723e+01 5.6671918809573036e+01  2.6111094468628448e+02 7.0511050722259654e+01 6.5951302412627811e+01  2.4416942834815964e+02 6.1506184668392628e+01 5.9749242078788185e+01  3.0252073843995834e+02 1.1031332853388140e+02 1.0696988680274181e+02  3.9660726406565499e+02 8.2355122650323551e+01 1.0362003094915919e+02  1.9031229153324733e+02 8.5009234021283916e+01 2.7065907739865640e+01  2.0348061933104069e+02 7.5258371198159395e+01 4.2030041135172411e+01  2.0166630961113037e+02 6.4844975272577798e+01 1.0992871520327293e+01  2.4880470693314987e+02 9.8455022989607471e+01 9.4093634774140568e+01  2.0064213408979364e+02 6.8347985378219335e+01 5.3204597582765921e+01  2.7944271833056615e+02 8.0454293990144521e+01 4.2564868581320560e+01  2.6634698247495965e+02 9.3869048302134161e+01 5.7615364460290436e+01  1.8736039866427828e+02 7.0206351758871946e+01 5.5283095829253163e+01  2.0319094937033242e+02 7.4437779605775503e+01 5.3936490866108066e+01  2.0888115549672543e+02 6.2799288390943211e+01 4.9898868653208048e+01  2.4331663301006421e+02 3.9698604150993404e+01 2.3468750019535447e+00  2.0498206212888510e+02 6.0648134479643701e+01 4.9102511708570184e+01  1.9323728228867176e+02 8.6208113193830243e+01 4.7657347442042273e+01  1.9999356941508984e+02 7.2972059116783001e+01 5.2677885541708164e+01  1.3123422569669623e+02 9.7050687562760203e+01 6.4944795154407032e+01  1.6517153725201203e+02 8.3987513135399055e+01 5.9577972113455530e+01  1.3801187501438241e+02 9.8642550173375341e+01 5.8842494593900369e+01  3.3478383088539255e+02 5.8223181838245665e+01 3.8855479018245205e+01  3.0307683268043769e+02 7.9460167248898713e+01 6.3245425881534111e+01  2.7682056049174321e+02 4.5477888228343531e+01 3.9633537692005298e+01  1.7413620843973450e+02 9.4749918654982778e+01 4.0408347391487830e+01  1.7978861559710575e+02 5.5325859725350888e+01 5.0638006423408420e+01  1.5359201665300278e+01 -2.0736891459106431e+01 -1.8030881761663871e+00  2.1658793973801245e+01 -2.5737944775739916e+01 -5.8515739591252389e+00  1.2917091968319033e+01 -1.2381255874363243e+01 -3.6464199918531390e+00  1.9960914354941782e+01 -1.7516885612488089e+01 -1.1661252696585953e+01  2.2493309284712538e+01 -9.9745732110633334e+00 -2.2572095545193289e+01  1.6591296643973550e+01 -1.5574994460210050e+01 -1.1168213950844706e+01  2.5850770010711379e+01 -2.2100187651671764e+01 -1.7217656503409948e+01  1.4613140971505565e+01 -7.8919974057303985e+00 -1.0541962391174385e+01  8.1482647555420229e+00 -7.1322337960280198e+00 -4.1590816539770996e+00  2.7792689186130925e+01 -2.9886138511128795e+01 -1.3173021931321223e+01  8.3997946800487526e+01 -1.0261178163911710e+02 7.0055250407157274e+01  9.1710923248297092e+01 -7.1110141519103664e+01 5.9554737416543645e+01  8.8242249441938711e+01 -7.8944086060996369e+01 7.0049665189161516e+01  9.4507103650831937e+01 -7.7816959795387703e+01 5.6750980700602852e+01  9.6404403231859661e+01 -8.6263543824821468e+01 5.7884864625693162e+01  1.0128820874521332e+02 -7.6962666038985134e+01 5.5189339073588769e+01  8.9732017546944462e+01 -7.1758432189547520e+01 6.5292096817273261e+01  9.2908727368481678e+01 -6.4984231842215365e+01 6.1696502110113151e+01  8.8744216988695058e+01 -6.7811054958476419e+01 6.9294405173396513e+01  8.3200829116050485e+01 -6.7395515893835906e+01 7.6143594974387540e+01  8.1902107270212611e+01 -4.1363590896274189e+01 8.9588057669762065e+01  7.0911027209477808e+01 -4.4171376053043481e+01 8.6566389143201761e+01  7.6051184509650071e+01 -3.9589848893789117e+01 1.0046929026304375e+02  7.9954924704347775e+01 -4.4623436510972063e+01 9.1662674310097472e+01  7.9428521651213813e+01 -5.2580578646816498e+01 9.2684836361909674e+01  6.3626519581565709e+01 -4.4436511619921539e+01 9.8436497588185077e+01  7.1104538445972480e+01 -4.9810615443682615e+01 9.0605224997597873e+01  7.3218006423221482e+01 -4.7881803098491751e+01 1.0320828329473700e+02  6.7236638710738831e+01 -3.9304169974948678e+01 1.1381811941393450e+02  6.2232930482503093e+01 -4.6138947519960446e+01 8.5575503627945778e+01  9.8130006026492076e+00 -1.7172014354849377e+01 9.1926146557762216e+00  2.4949226199612124e+01 -3.4041863247152243e+01 7.8652541966985110e+00  1.4211690435727235e+01 -2.5822157941235606e+01 1.4693651468874336e+01  2.0514595887326713e+01 -3.0939008139789554e+01 5.0224098533012409e+00  1.6194488110487576e+01 -2.2260115086246451e+01 -4.7829191443699418e-02  2.0973818748654089e+01 -3.5180921326601769e+01 2.6358528415108378e+01  1.0285182712976886e+02 -4.3097968968070141e+01 6.9031415378653165e+01  9.0686949204777235e+01 -4.2987712715298812e+01 9.8121489091500493e+01  1.0827401983853264e+02 -3.8440688299967704e+01 8.2854511463387070e+01  9.4575965469401595e+01 -4.2017545685046990e+01 8.4034233625468431e+01  9.2599139439724240e+01 -4.8064650788192367e+01 8.3337234858158538e+01  9.5580132021180603e+01 -3.8434451540466142e+01 9.6077271357304141e+01  1.1420464078525420e+02 -3.3019403299880160e+01 1.0101439521676231e+02  8.9892198343331245e+01 -5.9782730235472336e+01 5.1172870680541621e+01  9.1519283256199756e+01 -5.8180207973771267e+01 5.5393731607965158e+01  1.0247691584141089e+02 -6.2650356792726619e+01 4.1924677499092368e+01  9.0118774702133862e+01 -5.5258190979121302e+01 4.0426505742916177e+01  8.4943472033298008e+01 -5.6397236515712827e+01 4.9085904676282048e+01  8.8317192078769637e+01 -5.4483422603013288e+01 5.2951023258719708e+01  8.7919640747645701e+01 -5.0625746534169522e+01 6.1638523275688620e+01  8.2803658267021646e+01 -5.3997082940695940e+01 5.7084693451497849e+01  7.8781961820981564e+01 -5.5297188510077909e+01 5.4015222841809084e+01  -2.7620824279917295e+00 -2.8115907046676703e+01 1.4646283605319981e+01  1.2292475648025803e+01 -2.6158304753046075e+01 1.6257671814687320e+01  6.7271900782460312e+00 -2.2244330009305624e+01 1.8802527853316217e+01  7.7529247715855272e+00 -2.9150824463423042e+01 1.8114166702441782e+01  8.8692076129587800e+00 -3.3924224388051051e+01 7.2706293884254283e+00  1.5642563942983182e+01 -2.9864455568945097e+01 2.6006769441175141e+01  1.1712146993095947e+01 -2.4091478428280698e+01 2.4658661650954112e+01  1.6946950357327911e+01 -3.3420381196918747e+01 1.5973242925372295e+01  1.9102387077788510e+01 -3.5378354402005797e+01 5.6842319026977011e+00  8.8958679373042546e+00 -1.8439940397661989e+01 2.3349791596168849e+01  1.1383671783632582e+01 -3.3893917603824278e+01 1.3250683148199434e+02  2.6033042620852079e+01 -4.0901298072939689e+01 1.2606628927518562e+02  3.4571457121735136e+01 -4.7144019542676119e+01 1.2358501755627287e+02  3.0223760342791071e+01 -3.5726667235642438e+01 1.0885038978447537e+02  1.0060181237676643e+01 -2.2482444859894237e+01 1.3692292504301361e+02  4.7430618279863346e+00 -2.1354471294612598e+01 1.2825927583561051e+02  2.7998188205932578e+01 -3.1502972896631853e+01 1.1051492839119442e+02  4.3764496908761544e+01 -3.6494929378340998e+01 9.7337148395503675e+01  4.3336951619070085e+01 -3.9722431544680866e+01 1.0595946490273872e+02  4.9924618577190479e+01 -5.0919747708378672e+01 1.1458077429034488e+02  7.0009061562863110e+01 -7.3871534790525004e+01 1.0915463792620579e+02  8.5704601351355365e+01 -6.8144607578335126e+01 1.0208862901570643e+02  8.1867455964973075e+01 -6.9251465820906233e+01 1.0250060382343024e+02  8.0210676674255410e+01 -7.4977081522411154e+01 1.0960304863741088e+02  7.2404727994114822e+01 -7.3631344410656581e+01 1.1796656822475900e+02  9.5564364926498484e+01 -9.4957258354630653e+01 1.0617270408795871e+02  9.4781493510581399e+01 -7.7194588575514217e+01 9.9595060264447710e+01  8.2738935420617892e+01 -7.2889979265830675e+01 1.1167524355184530e+02  7.3866031988048690e+01 -5.6524685566068932e+01 1.1942364671899497e+02  8.9747115931163236e+01 -6.9869085585596466e+01 9.1318878335832750e+01  2.1323800917361634e+01 -1.0472909592795657e+01 4.8290860481798816e+01  1.7607489269715025e+01 -2.5460962882777274e+01 3.7215442128106972e+01  1.0025708953099556e+01 -2.2216816735572152e+01 3.9330652240998674e+01  2.0216289526506312e+01 -1.7432738135933750e+01 3.7617969186498385e+01  2.7536544912960149e+01 -2.3276296198696219e+01 4.2596196439541416e+01  1.4700659859028841e+01 -1.2931924120948455e+01 4.4874305439965894e+01  6.1166024415775375e+00 -1.2005619863328731e+01 3.6188680496307263e+01  1.5944580602002357e+01 -2.5690196539093989e+01 3.0667275002457089e+01  2.7923523859668730e+01 -3.1619035819141786e+01 3.4120292871661654e+01  3.4269982620831406e+01 -3.6474852391818537e+01 3.8385693367335058e+01  7.2072258056449073e+01 -5.5992614152735008e+01 8.5891515413357098e+01  7.8566208398611806e+01 -6.3572291259964430e+01 7.6691454321646731e+01  7.5095515795234007e+01 -5.8149306197222984e+01 9.4940878025143903e+01  7.7228728956442353e+01 -6.0396126594249949e+01 8.5460150966319631e+01  7.0429957593015970e+01 -5.8566544899328015e+01 9.7913446486010713e+01  7.4676307198676668e+01 -5.9134146680018958e+01 7.7033361926792338e+01  8.9680110064390632e+01 -7.8756748180905674e+01 5.6335778340853778e+01  8.2275807954297591e+01 -6.0856737912522256e+01 6.3746899342563609e+01  8.4777294812073308e+01 -5.8102047127976462e+01 5.3869759327344049e+01  1.0122804087146213e+02 -7.6612250187706124e+01 5.2951290185333455e+01  8.3838264077825642e+01 -7.0423812454438149e+01 6.8271883921737313e+01  6.3618245970575082e+01 -4.9077172603083234e+01 7.2979025792681497e+01  5.2102615964451523e+01 -4.5642787284624077e+01 5.0859142698577593e+01  6.3895424257139844e+01 -5.1612804559052179e+01 4.7500375470627631e+01  6.1823063335370364e+01 -4.6988248404077638e+01 6.4307636849228970e+01  5.1601114324479667e+01 -4.3055233608907507e+01 6.8556081799718598e+01  6.2785185200303211e+01 -4.9555368102186030e+01 5.6827778810680194e+01  6.1317719784726577e+01 -5.5295233104649029e+01 4.0654938631169024e+01  6.2811826450650621e+01 -4.8770406090915046e+01 5.5964189838019287e+01  5.0823495823111500e+01 -4.3802963693630737e+01 5.7729969510747175e+01  3.9920138807141448e+01 -3.8044194326681662e+01 6.0899044826169131e+01  1.6902301340443067e+01 -3.7400917219181046e+01 2.7372385712407738e+01  8.6460028662632222e+00 -3.7173060392257739e+01 2.7864350071020855e+01  4.2684462722065435e+00 -2.0962020964546809e+01 2.6344224721604185e+01  -9.7434902482654007e-01 -3.0268658008608931e+01 8.3883169605389298e+00  8.0434267367374346e+01 -5.7627184947111502e+01 5.0004252472038225e+01  6.9823341182006132e+01 -5.3572581568226248e+01 4.9297176245838777e+01  7.6876441459469689e+01 -5.3589927233812006e+01 5.5026066472123887e+01  7.8056301442500796e+01 -6.3132512894087704e+01 3.9153934107572994e+01  8.8285250488681655e+01 -5.4166922116294877e+01 5.4942686423967530e+01  9.7804160221443283e+01 -6.5484804315148239e+01 4.4614554538573813e+01  5.0814312978267381e+01 -4.8834064936956089e+01 3.7104141423810603e+01  4.9473959112819408e+01 -4.7017950251806390e+01 3.9642191399034893e+01  3.4005852830941777e+01 -4.4942409414390220e+01 2.2367383168275971e+01  3.8936041829344781e+01 -4.1123926989677386e+01 4.0863296887305992e+01  3.3561269651421000e+01 -4.6332293883160993e+01 1.9751748661369344e+01  3.7196176167150242e+01 -3.9746862403951539e+01 4.2670164967603419e+01  3.1512076801748918e+01 -4.7702069910490742e+01 1.7412578113446045e+01  7.9565943952104988e+01 -6.7702894072321357e+01 6.9881395723002498e+01  8.5646903631571547e+01 -8.4808926981036478e+01 8.1628667656604563e+01  7.04