<?xml version="1.0"?>
<VTKFile type="UnstructuredGrid"  version="0.1"  >
<UnstructuredGrid>
<Piece  NumberOfPoints="13024" NumberOfCells="61670">
<Points>
<DataArray  type="Float64"  NumberOfComponents="3"  format="ascii">29.14584922790527 26.64089965820312 11.44569969177246  29.64494604747475 26.52397486404188 11.03273323627756  29.3407096862793 26.34274005889893 11.05626487731934  29.12557506561279 26.66671466827393 10.92884969711304  29.10530090332031 26.69252967834473 10.41199970245361  29.62467188518227 26.54978987411268 10.51588324161814  29.32043552398682 26.36855506896973 10.53941488265991  29.53557014465332 26.04458045959473 10.66683006286621  29.83980650584877 26.22581526473768 10.64329842182443  30.14404286704422 26.40705006988062 10.61976678078266  33.79529719572293 37.82231186645824 3.864786625055443  34.44197281548734 37.16540524133805 4.75896020175462  34.14270168335025 37.13117686804678 4.087322890748937  33.61286012438775 37.60313883204941 4.411207093168267  34.09456832786002 37.85654023974951 4.536423936061125  34.3938394599971 37.89076861304078 5.208061247066808  33.91213125652484 37.63736720534068 5.08284440417395  33.43042305305257 37.38396579764058 4.957627561281092  33.96026461201507 36.91200383363795 4.633743358861762  34.49010617097758 36.44004186963532 4.309859156442432  34.47758744981274 20.15803175558824 11.96646133278214  34.42578812043152 20.11871918395986 11.33599086342459  33.8418051394622 20.63943339330745 11.59516497475194  33.81094984387445 20.01451553470407 11.52388192163039  33.14431223793618 19.87099931381992 11.08130251047864  33.79000581008098 20.60012082167907 10.96469450539438  33.75915051449324 19.9752029630757 10.89341145227284  33.17516753352392 20.49591717242329 11.15258556360019  33.20602282911165 21.12083503102667 11.22386861672173  34.37398879105031 20.07940661233148 10.70552039406703  29.25046920776367 27.57793998718262 11.8153600692749  29.95023891908465 27.80117844951294 11.39733037183691  29.79577798869133 27.79400920291357 11.69083303858073  29.55039598898707 27.99577379219263 11.5077973820843  29.65031213786126 27.38334464450293 11.70489305902751  29.39593505859375 27.98860454559326 11.80130004882812  29.54140090942383 28.39926910400391 11.78724002838135  29.69586183981714 28.40643835060327 11.49373736163752  30.05015506795884 27.18874930182324 11.59442604878012  29.85032277021046 28.41360759720264 11.2002346948937  35.86180025132963 37.88812912451007 2.273364802673123  36.19150487104514 37.11123167260905 2.043233659677471  36.60788083586369 37.62252525572553 2.138330303462514  36.14476332105333 37.48609797171262 1.562530349928612  36.42772639077702 37.08406681891518 0.8516958971841004  36.47446794076883 36.70920051981162 1.33239920693296  36.89084390558738 37.2204941029281 1.427495850718002  37.35396142039775 37.35692138694101 2.003295804251904  36.9375854555792 36.84562780382453 1.908199160466861  36.52120949076065 36.33433422070804 1.813102516681819  36.14698028564453 28.93998908996582 5.843766212463379  36.08529746809228 28.87962388709835 6.561690954172445  36.60747744760772 28.86633391088615 6.247638866236913  36.34841181955596 29.14556879705559 6.052394553950536  36.40604591369629 28.66075420379639 6.039010524749756  35.88386593418085 28.67404418000859 6.353062612685289  36.66511154174805 28.38151931762695 6.234254837036133  36.1429315622326 28.39480929383915 6.548306924971666  35.62075158271717 28.40809927005136 6.862359012907198  36.54984335346739 29.35114850414535 6.261022895437693  35.7277090350715 36.31279524351066 1.111273694537301  35.75615162759502 36.68616875570861 2.02655237568888  35.35940139975044 36.67539926710992 1.675637964616621  35.62700770749387 36.1062234595308 1.907438945746799  36.12445926291608 36.32356473210935 1.46218810560956  35.52630637991624 35.89965167555094 2.703604196956297  35.25870007217281 36.46882748313006 2.471803215826119  36.02375793533844 36.11699294812949 2.258353356819058  34.99109376442938 37.03800329070917 2.240002234695941  29.13170051574707 30.01021003723145 3.273844003677368  29.79140747928753 29.91269078579595 3.190246338880243  29.51102026996897 29.52535977078519 2.991725969927627  29.68091286564007 29.83123078671148 3.47861432555932  29.24219512939453 30.09167003631592 2.985476016998291  29.35268974304199 30.17313003540039 2.697108030319214  29.62151488361643 29.60681976986966 2.70335798324855  30.23012521553307 29.65225153619151 3.683384647441272  30.06023261986197 29.34638052026522 3.196496291809579  29.89034002419086 29.04050950433894 2.709607936177886  32.57519804994809 22.41262138236794 12.92795035234282  32.85450064071942 23.31099960158946 13.65966626376777  33.21861856612862 22.60585658940462 14.02440979264392  32.51727361427686 22.71711366631317 13.59341891067745  32.91242507639065 23.00650731764422 12.99419770543314  33.6137700282424 22.89525024073567 13.42518858739961  33.27654300179984 22.30136430545939 13.35894123430929  33.9778879536516 22.19010722855084 13.78993211627575  33.2496521028332 23.6003932529205 13.06044505852347  32.45934917860564 23.02160595025841 14.25888746901208  33.32765960693359 34.00210952758789 10.79689979553223  33.44169556523759 33.23862902776477 10.51143752262815  33.86110056374511 33.45535773604595 10.94549575280283  33.46363962624511 33.51999205916606 10.96860566567515  33.70317648342608 33.65611217306648 10.31662173961291  33.30571554592608 33.7207464961866 10.33973165248523  33.72512054443359 33.93747520446777 10.77378988265991  34.12258148193359 33.87284088134766 10.7506799697876  33.28377148491857 33.43938346478531 9.882563509438228  33.59961964555663 33.03787459074424 11.14031153581807  33.7257194519043 18.51750946044922 9.67125415802002  34.0967561243407 18.3437941951661 10.63547249590308  33.70044204336185 18.68679184223221 10.23841364387958  34.23319871501843 18.74687296662844 9.964926109266411  34.12203353288315 18.17451181338311 10.06831301004352  34.51834761386201 17.83151416631701 10.46537186206702  34.62951279599729 18.40387531956234 10.36198496128991  34.74067797813256 18.97623647280767 10.2585980605128  34.20792130647598 18.91615534841144 10.53208559512597  33.6751646348194 18.8560742240152 10.80557312973914  39.38468933105469 30.1632194519043 8.565606117248535  39.05457668369787 29.60035676522051 8.098399725810395  39.21940547848969 29.77991746692189 8.605526569214849  39.63942527770996 29.70420932769775 8.220548629760742  39.21986053626287 29.98365875020292 8.058479273844082  39.89416122436523 29.24519920349121 7.875491142272949  39.47414142514496 29.32090734271535 8.260469081727056  39.47459648291814 29.52464862599637 7.713421786356289  39.05503174147105 29.80409804850154 7.551352430439628  39.0541216259247 29.39661548193948 8.645447021181161  28.78562927246094 28.34869956970215 8.253138542175293  29.28813302341942 27.96830356828149 8.62738281628854  29.38093793217186 28.52480304948266 8.694556297276089  29.01016270939354 28.21973312608178 8.711137355778286  29.06359958648682 28.09727001190186 8.169384002685547  29.43437480926514 28.40233993530273 8.15280294418335  29.15640449523926 28.65376949310303 8.236557483673096  29.52717971801758 28.95883941650391 8.219976425170898  29.3415699005127 27.84584045410156 8.085629463195801  29.23469614632614 28.09076668246142 9.169136169381279  35.31187057495117 34.3949089050293 9.406467437744141  35.55084313081257 34.06994966131219 8.872780852826136  35.65080451965332 34.42276382446289 8.923863410949707  35.23208321259968 34.2110400543786 9.071185164959925  35.63063049316406 34.25381851196289 9.208063125610352  35.33204460144043 34.5638542175293 9.122267723083496  35.35221862792969 34.7327995300293 8.838068008422852  35.25225723908894 34.3799853668786 8.78698545029928  35.94939041137695 34.11272811889648 9.009658813476562  35.15229585024819 34.02717120372791 8.735902892175707  35.66598892211914 22.42164993286133 14.59554958343506  35.71128627945203 22.76732122884613 14.23038781373107  35.50492069412488 22.3662315605722 14.2057577439984  35.30125073711202 23.01275489600737 14.2707924205744  35.87235450744629 22.82273960113525 14.62017965316772  36.07872009277344 23.22382926940918 14.64480972290039  35.50761632243917 23.4138445642813 14.29542249030707  34.9365125521049 23.60385985915342 13.94603525771374  35.14018250911776 22.95733652371825 13.88100058113774  35.34385246613062 22.31081318828308 13.81596590456174  34.3323910673323 23.85003676218151 15.47086566528826  34.84337384590681 24.34235666899163 15.83781939876558  34.91388009100012 23.90869699302091 15.57338965155512  34.93995064170051 24.33998566181912 15.43219370780515  34.26188482223898 24.28369643815223 15.73529541249872  35.54751021606873 24.82993456145672 15.39352175032204  35.52143966536833 24.39864589265851 15.53471769407201  34.8694443966072 24.77364533778984 15.69662345501561  34.19137857714567 24.71735611412296 15.99972515970918  35.49536911466794 23.9673572238603 15.67591363782198  35.84017197324482 31.23885021682882 7.147277978044403  36.10947191788877 32.29954572363631 6.979198669694293  35.42040610345832 31.83650114246353 6.922144479635486  35.98694071654229 32.05799905806528 7.683142024594952  36.13370945983975 32.87714789930175 8.2190060711455  36.25624066118624 33.11869456487277 7.515062716244842  35.56717484675578 32.65564998369999 7.458008526186036  35.00064023367181 32.43415206809824 6.697010981226571  35.68970604810227 32.89719664927101 6.754065171285377  36.37877186253272 33.36024123044379 6.811119361344183  31.54273359959832 27.04891728031611 4.763340143577892  32.22421724047977 26.18202494345651 5.041072145861225  32.00588736841648 26.46310732334786 4.531310166261953  31.63174112362046 26.351871877146 4.959884748585847  32.13520971645763 26.87907034662663 4.844527540853269  32.72768583331695 26.70922341293714 4.925714938128647  32.5983634852758 26.29326038965837 4.61249756353733  31.7207486476426 25.65482647397589 5.156429353593802  32.09489489243862 25.76606192017774 4.727854771269908  32.46904113723465 25.8772973663796 4.29928018
[...]
<PointData  Vectors="u"> 
<DataArray  type="Float64"  Name="u"  NumberOfComponents="3" format="ascii">6.8622374488679242e+01 -1.5709191423958916e+02 1.1619372448449758e+02  1.2201950450632489e+02 -1.4307407823714669e+02 5.9182785303282039e+01  8.5395006734805548e+01 -1.7350487247863009e+02 7.3998830370636597e+01  1.1755365867701970e+02 -1.9742120572679664e+02 1.0182325158411584e+02  1.8308084413527297e+02 -2.4194256775643714e+02 9.1353781646313905e+01  1.4877113118911086e+02 -1.6982648554783307e+02 5.4225556861392143e+01  1.2684966045165469e+02 -1.8606419442048553e+02 6.5544572721428437e+01  9.5789994043761780e+01 -1.5234303087467362e+02 4.3185662209827839e+01  1.2345868198847356e+02 -1.3592970951047278e+02 3.4463284204046694e+01  1.4026403380508810e+02 -1.2202766020581356e+02 3.1471711891403853e+01  8.7483076986279713e+01 1.0652532278910179e+01 -3.9659655068160880e+01  1.0066240758777217e+02 2.0143672273649241e+01 -4.1604607977083475e+01  8.9488226000016326e+01 1.5314629574764236e+01 -3.8218786901733623e+01  9.2283489069622419e+01 1.0510915431280354e+01 -4.8782765182478954e+01  1.0216208261286832e+02 1.4953106402419740e+01 -4.1959538822610490e+01  1.1828389532365289e+02 2.2951042233623298e+01 -4.0836280270591935e+01  1.0768215631858703e+02 1.5637550636259558e+01 -5.0974410743126995e+01  9.8063450483091387e+01 9.1298228440193991e+00 -5.9303322438742036e+01  9.2151250523536660e+01 1.3125688462737646e+01 -4.6876746805752632e+01  8.7257530481846445e+01 1.9153414416195453e+01 -3.7423998142387511e+01  3.8405309484980862e+01 -8.6844872921586056e+00 -2.9919780305732626e+01  4.2954524566746350e+01 -9.4745281111376549e+00 -3.3930230393059873e+01  4.1340371393401220e+01 -1.8878090405868711e+01 -2.7644476167096791e+01  3.7615565483843135e+01 -1.0551657689461692e+01 -2.8787629079873128e+01  3.1807552118697718e+01 -1.2327216617016722e+01 -2.7252272921313168e+01  4.3917220794067134e+01 -1.9243023260932421e+01 -3.1738984155812076e+01  4.1035241887368826e+01 -1.1379058303904413e+01 -3.1852706328145711e+01  3.5780826990409828e+01 -2.2266389582260665e+01 -2.7997972318073703e+01  4.3059105670507854e+01 -3.3929968429863436e+01 -2.8330511083323220e+01  4.7126862255224111e+01 -9.9309551128168660e+00 -3.6765194417827708e+01  1.3553878411307483e+02 -1.7135500577293851e+02 1.8262036946904468e+02  1.9588091846958022e+02 -1.2777397356759724e+02 1.1151671568959915e+02  1.7244777568558408e+02 -1.2628755188959282e+02 1.3419651013859868e+02  1.9656182387486254e+02 -1.4640022779347237e+02 1.5886191850634347e+02  1.3201493400734401e+02 -1.2651608569004009e+02 1.2521553195771733e+02  1.9056080710331960e+02 -1.4934485668122861e+02 1.7443974119434543e+02  2.0016080201581235e+02 -1.1807996840102943e+02 1.8434741936861926e+02  2.2038733126017837e+02 -1.2627852266847519e+02 1.6170220872920106e+02  1.4484805172539836e+02 -1.0137701865807318e+02 7.7977563095080455e+01  2.5432689326724548e+02 -1.3569715674531489e+02 1.3225096044572743e+02  1.1260253010054369e+02 1.4864657625733702e+01 -2.0615668692637543e+00  1.2136618574134066e+02 2.8051151692787450e+01 4.5828718002349396e+00  1.3676629442547357e+02 1.5289013856692634e+01 8.9752082470473038e+00  1.1131202908790632e+02 2.0739499107203212e+01 1.0487375904146246e+01  1.0412846583570453e+02 2.7155828492971644e+01 2.2451976026509012e+01  1.1802937427318624e+02 3.8965140514105578e+01 1.9470583411656925e+01  1.3771546832280123e+02 2.3169802731451753e+01 2.8943658798272683e+01  1.7185800374402865e+02 1.0418892552592698e+01 2.2387529808267747e+01  1.5740282173491960e+02 3.5558174636751517e+01 1.8692395742066417e+01  1.2902332000280055e+02 5.5267448446804210e+01 1.2008704352138952e+01  1.8702433108359108e+02 -1.9509326820304103e+00 6.0818736693040385e+01  1.7558625640811098e+02 -1.4949679827055599e+01 3.7644419653083702e+01  1.9679605398264644e+02 -1.6229243146479497e+01 3.9671774043162429e+01  1.8815266279325078e+02 -1.2018603111762079e+01 4.1205918526696649e+01  1.9620096592233230e+02 -3.1495645479911705e+00 5.1780743995633735e+01  1.7006348298493057e+02 -8.8256905143547772e+00 4.8092043632110297e+01  2.1340397367761932e+02 -1.0156759608615001e+01 4.5518051596261685e+01  1.8070901063987944e+02 -1.0268603615482627e+01 4.6767535314781227e+01  1.6181751899827617e+02 -1.6817661433970983e+01 3.8262794042930388e+01  1.8765704192096149e+02 -1.8952783020377808e+01 3.4194612162096192e+01  8.6584495584726596e+01 4.0491779261905798e+01 5.6811612177599393e+00  1.0312745377542757e+02 3.5197632449489539e+01 -7.0333474242245075e-01  8.9298207410171216e+01 3.0844653009633401e+01 -1.4588346692679786e+00  8.9534001770700996e+01 4.2756933998351357e+01 -1.4844272460802972e+00  1.0313882159422614e+02 4.6499399992143076e+01 8.9562310140166090e+00  8.7861584591719591e+01 4.2775509213043158e+01 -1.1244250141735927e+01  9.1596323973754096e+01 3.2196656795191295e+01 -1.0241859052254609e+01  1.0596286527778531e+02 5.2374767088371065e+01 -1.5306152718888639e+00  8.8479189855673198e+01 2.3231046733933969e+01 -1.0288923560876833e+01  1.2208741774134664e+01 3.5542049486350130e+01 1.3969506035841571e+01  2.9380779150278961e+01 4.8779181371305860e+01 2.0576752074071297e+01  1.6645212030338691e+01 6.2966639166399453e+01 2.6770298914710242e+01  2.7754569278419478e+01 4.5249774647490000e+01 2.2570890145500492e+01  1.3309258010741360e+01 3.5706867903044007e+01 1.3697170030955448e+01  1.8169160365249514e+01 3.8663547254308689e+01 1.2745688738434593e+01  1.9250294364622516e+01 6.7924329126456044e+01 2.3355829100447028e+01  3.7863334294187140e+01 4.9733053455449820e+01 2.6725773675455201e+01  3.1659973653884499e+01 6.5071658335114392e+01 3.3562594190339247e+01  2.9295239371850599e+01 8.9346942715614361e+01 4.3483968171098404e+01  6.7119114503165790e+01 -5.2037712466231170e+01 9.5206917063703980e+00  7.8308272922794259e+01 -3.5287535553823055e+01 3.3088892717295245e+01  5.3484068930563573e+01 -2.2128384874298479e+01 2.2375670280560318e+01  7.1092344431381250e+01 -4.5628390044909679e+01 2.5908679586707898e+01  7.7844999358766685e+01 -4.4721546642431456e+01 1.5853679534960277e+01  6.1050784051510192e+01 -2.4245294788926682e+01 1.4041726756316871e+01  5.4444313189332711e+01 -3.0366786967419685e+01 7.9746499780214206e+00  4.2791310771852224e+01 -1.3455076417205209e+01 4.8680372726677481e+00  8.2431553283189871e+01 -3.6172914102327319e+01 2.2348257689720842e+01  6.8870326689939589e+01 -3.3654970671114462e+01 4.4658615623229522e+01  1.6621625076855989e+02 8.7016302315407508e+00 -1.0044975292119557e+02  1.4435397540038804e+02 -3.4144186640713968e+01 -6.7641141132456397e+01  1.1710047944430890e+02 -3.7247942441713434e+01 -7.2730439509615110e+01  1.4712541228733309e+02 -3.7595578563636565e+01 -6.8183099809009946e+01  1.3294653122633417e+02 -2.1700283755834424e+00 -7.5273555548702660e+01  1.5781138792766143e+02 4.3974262409396592e-01 -7.9272959480667438e+01  1.2939495559198460e+02 8.6151912784307942e+00 -9.7861148614629897e+01  1.0341266946968982e+02 6.2677552609182552e-01 -9.7260290396190655e+01  1.5181400686072172e+02 -1.7256924515094312e+01 -7.5884161752000409e+01  1.3096779754386770e+02 -5.3824234488630992e+01 -4.9482926648437683e+01  4.6530416633627041e+01 -2.2579708744373481e+00 -5.0320886007520734e+01  4.3310945680942062e+01 6.0302165564837971e+00 -3.9505972729133937e+01  4.6090488981804079e+01 4.9313861507413398e-01 -3.5941659987491299e+01  4.5056918012457757e+01 -1.8469370979651792e-01 -3.9798924115354403e+01  4.5153061158693596e+01 3.7305881732032935e+00 -4.2525340461880084e+01  4.8813101635864832e+01 9.3081154996067159e+00 -4.4894996869806725e+01  4.9385644572924875e+01 3.6057381037803480e+00 -4.0801130279847946e+01  5.0335188914331049e+01 -7.3117156988777965e-01 -3.9387907381294994e+01  4.5505276900722592e+01 2.1730971600035123e-01 -3.7645394281977069e+01  3.8408856670238158e+01 1.5205363512140142e+00 -3.3564160094606613e+01  1.0237464911928119e+02 -1.0667548010957044e+02 -4.4076078389872272e+01  2.2179903092365933e+02 -6.1205073488296186e+01 -2.6019106380442565e+01  1.6441863145463358e+02 -1.0112606175949179e+02 1.0154859403189219e+01  9.8320599255685067e+01 -1.6949194583028117e+02 -1.3354560044388407e+02  1.9170400136426608e+02 -6.4222929813530669e+01 -7.3888337138791442e+01  3.5840656578602653e+02 -6.6587909806834844e+01 -4.4889345702414644e+01  2.2176316140720783e+02 -1.4382343480219288e+02 -2.1212865748079103e+01  2.9019148892030097e+02 -4.7503297059022891e+01 -5.4628570778914423e+01  2.5892818818111533e+02 -3.8878605556656979e+01 -1.0224352891831430e+01  2.0931154969949608e+02 -7.7726476183832631e+01 8.9775662184937541e+00  8.3237367444685640e+02 -3.5457488631867409e+02 -3.7641657552631294e+01  3.8986801376580115e+02 -1.9809753656149294e+02 -1.5051471891844605e+02  4.8454160744219837e+02 -1.8066214480855515e+02 -1.2833764520752717e+02  5.2166876183696206e+02 -2.6481805904302615e+02 -1.1819844766948557e+02  4.7939208548913189e+02 -2.4368977725080700e+02 -2.9041146550235641e+02  4.1973455723699072e+02 -8.5591407067009229e+01 -2.9743581141019411e+02  6.9566323848823515e+02 -2.6264756868573858e+02 -3.8913248117188976e+02  5.4065527268836274e+02 -5.1409036522382962e+01 -3.8124446273081810e+02  3.3567273216915436e+02 -1.6484752927457316e+02 -1.8621603977747344e+02  4.2946222402980101e+02 -2.0195720552936606e+02 -3.3912421075730151e+01  8.7735183942214775e+01 -1.7799715665091529e+01 -5.8971196210147127e+01  1.0411534320152248e+02 -3.7035976584936144e+01 -6.8150139452950640e+01  9.0799637071211535e+01 -4.1923793737075400e+01 -6.4758797118559485e+01  9.7157255398934467e+01 -2.4007877988055700e+01 -6.3077249594509155e+01  9.5797843768008548e+01 -3.4731209698744202e+01 -6.6416910713494389e+01  8.2996901149876962e+01 -1.9780603626692169e+01 -5.7715729012504490e+01  8.0043820655790171e+01 -2.4142867395469295e+01 -5.5441265697783379e+01  9.4443303648100681e+01 -2.6653937842713763e+01 -6.0196890079117587e+01  1.0643785991610737e+02 -4.7196015296071629e+01 -7.6699216999043983e+01  1.0631864224066892e+02 -2.7647036600890633e+01 -6.3911642164917126e+01  1.4731934983686820e+01 1.9934111375526321e+01 -2.1172248419412592e+00  2.1847681257879415e+01 1.3631055404278928e+01 -6.1826670832705675e-02  2.2681928720967058e+01 8.8793589516450417e+00 -5.6511156609938880e+00  3.1874415702828895e+01 1.1084057856025689e+01 1.0052555598120080e+01  1.3220934281619057e+01 2.5444281337175106e+01 5.5137891939469235e+00  1.4583802467217616e+01 3.4516502255095581e+01 1.7630373939433618e+01  3.4241736771717399e+01 1.5565199353009602e+01 1.7145192323185178e+01  4.8288426228799736e+01 7.1627606174197900e-01 1.8180464760782254e+01  3.7424517741883982e+01 2.1873957226813383e+00 5.0951152590155111e+00  2.8991648605199249e+01 1.2401756382831972e+00 -7.4072945652793578e+00  4.5154111701700657e+01 1.6288892858572833e+01 4.4116888858841072e+01  5.1484695290258614e+01 1.6337872322991711e+01 5.1588875154504549e+01  4.6727591585138498e+01 2.2550868294439592e+01 4.4590602854166875e+01  5.2655741662263154e+01 1.4824131110483108e+01 4.7705551124380840e+01  4.5526615692818261e+01 1.4170995038951999e+01 5.2811614967168502e+01  6.4373968010872588e+01 1.4762010987486992e+01 5.0293473469491964e+01  5.6471369442136940e+01 2.3183884357409990e+01 5.0058635834522804e+01  5.5358263040231947e+01 7.7647586410810465e+00 5.2493261462004860e+01  4.3781345236618343e+01 7.5157675250248852e+00 5.8574135319057596e+01  5.0016539904919895e+01 3.1489400010193659e+01 4.9352818684193473e+01  1.5393232252149966e+02 -3.3153786301284896e+01 -1.3780219748452692e+01  1.5231231085532298e+02 -3.6163951394028793e+01 -1.9105161068454375e+01  1.3508894748788745e+02 -2.8490121682062984e+01 -1.8532544302511734e+01  1.5506511281825610e+02 -4.1844550944666963e+01 -3.6548069285129721e+01  1.5311836294808600e+02 -4.9145136964641495e+01 -5.9413826456411002e+01  1.5209831560745204e+02 -4.5085721602034532e+01 -4.0140450515088652e+01  1.3560397006787377e+02 -3.6555889217314217e+01 -3.8897496402057847e+01  1.1651073532375520e+02 -2.4528438055279175e+01 -2.3298183241152262e+01  1.3158356824104442e+02 -3.2937220124586915e+01 -2.1507290998694319e+01  1.4941272253621614e+02 -4.3481482863033520e+01 -2.0425633200236472e+01  7.2616604352659152e+01 2.1204409092767531e+01 7.0569429197758282e+01  8.8654077766821075e+01 -2.9453242445389014e+00 8.3597132689244219e+01  8.1297653761667462e+01 9.8846479943497254e+00 8.2847981524612095e+01  8.5206308574154505e+01 9.9402819072228521e+00 7.9807799565496026e+01  7.8183098619389824e+01 1.0642842605031239e+01 7.5439356622159607e+01  7.7536139433983223e+01 9.8598621052822721e-01 8.5452093839200501e+01  7.8877636961382919e+01 -3.9482740400197067e+00 9.0390906617751739e+01  9.9704217953175984e+01 1.6017888091211174e+00 8.7280534341513786e+01  9.7093907472319984e+01 -3.5858161028100843e+00 8.7462624786297383e+01  8.5678026961987769e+01 -9.3801226751154605e+00 9.1158643326677165e+01  3.9147963459385913e+01 5.3588643555729064e+01 5.3218112056762713e+01  3.2255313140488333e+01 3.4966572013554440e+01 3.2438159380418746e+01  4.3426580566005732e+01 4.2055061066159247e+01 4.5848492297886729e+01  2.4668016112481251e+01 5.0510686425276951e+01 3.9175335095479035e+01  1.9164324069602820e+01 4.7513890031301763e+01 3.3282683992208014e+01  1.2663138061986274e+01 3.8890200135365802e+01 2.0752266889735402e+01  1.2380469344168672e+01 4.1085370613799846e+01 2.6188488007269360e+01  3.3899072857229285e+01 3.7593763129223561e+01 3.6644481029597912e+01  5.0445955373097561e+01 2.8716253197258951e+01 4.1690941836298755e+01  2.0068881461451531e+02 -3.0067440649855008e+01 -1.8840455633177373e+02  1.8202147935038940e+02 1.6268346579668716e-01 -1.8108209691526795e+02  1.8875338562738540e+02 -1.1610553629493799e+01 -1.7571549446283097e+02  1.8308703311347875e+02 -5.8216010177673416e+00 -1.9529058182635180e+02  1.8486295953910599e+02 -1.4989802324178497e+01 -1.7324044415756890e+02  1.9911488206148928e+02 -2.0532625692286842e+01 -1.8237931884021330e+02  2.0197747891408000e+02 -1.2190267573421036e+01 -1.8362857096499187e+02  1.9171487742474528e+02 -7.0040370937962182e+00 -1.8997689856350891e+02  1.7517398749450913e+02 -5.3799213108167177e+00 -1.6657140581888223e+02  1.8668202927406108e+02 3.9188302776884090e+00 -1.9395758543884784e+02  1.8993287281256772e+02 -2.6821224857846509e+01 1.2385015381191778e+01  1.9256973520358878e+02 -2.7678417082952105e+01 1.7762036262923193e+01  1.9073717533933720e+02 -2.5827990466748734e+01 1.2915477646767039e+01  1.8346061406569092e+02 -2.7584257119951090e+01 2.0354113268860146e+01  1.7733676081143005e+02 -2.6207538866605208e+01 3.7482403242091543e+01  1.9177904804046455e+02 -2.4929043893850494e+01 3.2912933536319059e+01  1.8992579642676884e+02 -2.6197216215643799e+01 2.6863857362459392e+01  1.9734450968860315e+02 -2.6043574206651655e+01 1.3668242325858740e+01  2.0032431168994850e+02 -2.6693313955811224e+01 1.9280247229230923e+01  2.0139386995275964e+02 -2.6543311431526863e+01 2.7180460630674723e+01  1.2896244377981175e+03 -1.0957767762695592e+02 -5.5691667617723829e+02  1.0607629329592824e+03 -9.9632701226934969e+01 -4.2249881666869396e+02  1.4187614801743368e+03 -2.3850594378309680e+02 -5.0964214494221881e+02  9.6865222429043649e+02 9.0168787352527122e+00 -4.6437740878293459e+02  1.3185944219941321e+03 -1.2958649582415555e+02 -1.2996863433104778e+02  1.1661393727000309e+03 -8.4234395324908178e+01 -6.1998031359992569e+02  1.0855336124599448e+03 4.8321355374267462e+01 -5.8232091789604578e+02  1.3510418829124794e+03 -2.5206623611813595e+02 -5.3605404168963662e+02  1.2392398815804693e+03 -2.6194099225579322e+02 -5.8775669396010471e+02  9.1254898409699103e+02 -2.0582930316661879e+02 -5.9487856907836772e+02  1.6724523438881513e+02 -3.4914378736120668e+01 -7.2943884941580805e+01  1.8387845509579165e+02 -1.0559169260173190e+01 -3.1548922339744696e+01  1.9867942987261750e+02 -9.5983510646567236e+00 -3.5350430773627970e+01  1.9054005167795580e+02 -1.6051767660697699e+01 -4.3044899806362039e+01  1.7451040246148497e+02 -2.3441997739969889e+00 -4.7858242218278249e+01  2.0300315545442754e+02 -1.9130141884205582e+01 -5.3064076750006876e+01  1.8334506571628174e+02 1.2661247000310856e+00 -3.0316574114882325e+01  2.1467322382075267e+02 -1.2069384006918048e+01 -2.0715104508925787e+01  1.9640919327331008e+02 -1.5450044141885936e+01 -2.5329975920831544e+01  1.8200117134968499e+02 -1.7357064960891382e+01 -2.5902262351183332e+01  5.4074423714784281e+01 -8.7159830844110289e+00 -1.0330925279342885e+02  7.8176455403248127e+01 -8.2379348721229722e+00 -5.0350677464406843e+01  5.8068350484856495e+01 -8.7940807490857509e+00 -8.0797155859692737e+01  6.6900162754138023e+01 -7.4920552279463273e+00 -4.2426089710964575e+01  6.8110813447073156e+01 -3.4782715461782905e+00 -6.4303447010574331e+01  8.3641172977624436e+01 -1.5468487789307250e+01 -1.8466810987426648e+01  7.2239826743975158e+01 -1.1730963568362080e+01 -3.6793054722516224e+01  8.7606224733344376e+01 -1.0547201224114293e+01 -2.6422609353774497e+01  9.7447229451258124e+01 -9.2719361926255228e-01 -3.5403510749308786e+01  6.6855571912604432e+01 -1.1839754350925412e+01 -6.1298910023616607e+01  1.3419180998242800e+02 -1.0930325101257429e+02 1.3837606222609416e+01  1.3599174373432334e+02 -8.4767118054962296e+01 1.8450722660962874e+01  1.3449012585944828e+02 -9.0038480542292419e+01 1.5657030370185126e+01  1.4803606508801838e+02 -1.0179170768450717e+02 8.2960163629254424e+00  1.2838107693410029e+02 -9.2296681116743798e+01 2.2709744422176541e+01  1.2295306655013695e+02 -8.0884557437702526e+01 3.3603439384902984e+01  1.2348126612412139e+02 -7.5898887933130325e+01 2.6808498910598335e+01  1.6177434727856362e+02 -9.0151965961074353e+01 3.1192685758826251e+00  1.4392997537261704e+02 -7.7918316273190655e+01 1.0291797295848385e+01  1.2900424166226571e+02 -6.8784157620873501e+01 2.1371205649144098e+01  1.3488467694029882e+02 -5.3768897369044694e+01 -6.5601383197545971e+01  1.3419714764313701e+02 -5.2238265038624753e+01 -7.4743858902115747e+01  1.2395783939144501e+02 -6.1818392403655714e+01 -8.2182620269841038e+01  1.1038179103251720e+02 -5.4006404713682230e+01 -7.0901632721824740e+01  1.0830152832225936e+02 -5.4056050911215252e+01 -6.4737843488821142e+01  1.2103122775754285e+02 -7.7627690068519286e+01 -7.2011086945055439e+01  1.6826768222782567e+02 -7.1841966252792105e+01 -8.0703040836393555e+01  1.5625033004643385e+02 -5.6778087839473500e+01 -6.8573864794937364e+01  6.0143602330151346e+01 5.3279806224582671e+01 6.8387680029794140e+01  6.0485003368815789e+01 3.2784083669548849e+01 5.7187501184623507e+01  6.6203824066982818e+01 3.8616364039138006e+01 6.8769178600956849e+01  6.6213933558771146e+01 3.6996714344477148e+01 7.2897536805160769e+01  5.3190538682746592e+01 5.5245250008458441e+01 7.9948266679044977e+01  4.8323603536573415e+01 4.6232519588273377e+01 6.0887495399491563e+01  5.5731259455135842e+01 5.3418831250459256e+01 6.1687366684690744e+01  5.4790451071063188e+01 4.8717936962482931e+01 5.5079017162716120e+01  4.7139071830375585e+01 4.0462625412631787e+01 4.5133739351337667e+01  1.4941978036332009e+02 -5.1732618121565483e+00 7.9869541857417843e+01  1.2535232410681317e+02 1.7790743576144527e-01 4.0910386032651495e+01  1.3880534644200446e+02 -8.2382815165216723e+00 6.4928716940088464e+01  1.4243995695631506e+02 -5.5615035988401091e+00 5.1814230501838232e+01  1.2254957620882512e+02 8.3845947360648232e+00 6.8232820058869819e+01  1.1002754180191042e+02 1.1445775297691617e+01 4.9140982716610011e+01  1.2299939584661766e+02 -2.7442630848500932e-01 5.3327532665581927e+01  1.4152225359398096e+02 -1.1706803633508594e+01 2.9789722487859983e+01  1.3746557186470949e+02 -1.0132439890930565e+01 4.2029524620303711e+01  1.3385374816123669e+02 -1.2577849932770173e+01 5.2697472680218652e+01  1.9410378971132053e+02 -2.2574259282574573e+01 4.5450180400621399e+01  1.9818219041963118e+02 2.3426908776538689e+01 2.3048531583057024e+01  1.7251547912230512e+02 -2.4012442590300913e+00 3.2487157585652199e+01  1.4819541152712287e+02 -2.1788195464275653e+01 4.1533496095156515e+01  6.9264621235835662e+01 4.9051528728226828e+01 6.859295