<?xml version="1.0"?>
<VTKFile type="UnstructuredGrid"  version="0.1"  >
<UnstructuredGrid>
<Piece  NumberOfPoints="14062" NumberOfCells="65705">
<Points>
<DataArray  type="Float64"  NumberOfComponents="3"  format="ascii">26.3107795715332 2.891041994094849 33.58572006225586  26.66997814567355 3.137974509325426 33.78266766005977  26.43105793388156 2.851609477129381 34.04260685378535  26.2746181526926 3.18396747979204 33.73589184218867  26.70613956451416 2.845049023628235 33.63249588012695  26.46721935272217 2.55868399143219 33.89243507385254  26.62365913391113 2.226325988769531 34.19915008544922  26.86257934570312 2.512691020965576 33.93921089172363  27.10149955749512 2.799056053161621 33.67927169799805  26.23845673385199 3.476892965489231 33.88606362212148  27.9859504699707 6.937576770782471 34.44842147827148  27.30579787946648 6.647991654221384 34.90232427297379  27.74267409604397 6.489069319468566 34.75602222781979  27.62771595590243 6.703076192059953 34.34993811951828  27.66403239353475 6.882492232943901 35.00080763172699  27.3421143170988 6.827407695105331 35.55319378518249  27.42075601960802 6.433984781629997 35.3084083812753  27.26948144183415 6.468575613337436 34.25145476076509  27.38443958197569 6.254568740746049 34.6575388690666  27.49939772211724 6.040561868154662 35.0636229773681  19.91542053222656 10.74433040618896 38.49259948730469  20.97781631389136 10.4883934265134 38.07549117390619  20.37969344639418 10.27986983503281 37.77012010286747  20.3643488266432 10.72320298398911 37.92256494234501  20.5442326392257 10.06618769975696 38.49308087938832  20.52888801947472 10.50952084871326 38.64552571886586  19.93076515197754 10.30099725723267 38.34015464782715  19.94610977172852 9.857664108276367 38.18770980834961  21.14235550672289 10.27471129123756 38.79845195042704  20.81327712105984 10.70207556178925 37.35253039738533  25.08498954772949 0.463454008102417 38.83377838134766  25.41126321160587 0.9165927419266862 38.29355655991743  25.59077112553878 0.4839503187794916 38.42308795272275  25.44905607579513 0.6678848210830919 38.70744120894833  25.18891173328388 0.528227426642411 38.13554047609118  25.04719668354023 0.7121619289460113 38.41989373231677  25.22670459747314 0.2795195057988167 38.54942512512207  25.3684196472168 0.09558500349521637 38.26507186889648  25.00940381935096 0.9608698497896054 38.00600908328587  25.81312260386077 0.8723156340637668 38.58110403654901  29.50457000732422 10.9754695892334 35.53081893920898  30.0357127891686 11.58606313305369 35.0783382540074  29.88425309525991 11.62114785747996 35.49047242453963  29.50387465932263 11.6611725652521 35.06943331538517  29.65602970123291 10.94038486480713 35.11868476867676  29.8074893951416 10.90530014038086 34.70655059814453  29.65533435323132 11.62608784082583 34.65729914485294  29.50317931132104 12.34687554127081 34.60804769156135  29.88355774725832 12.30685083349866 35.0290868007158  30.2639361831956 12.26682612572651 35.45012590987027  20.09869956970215 9.995880126953125 39.02400970458984  20.5449753108858 9.444877641394864 38.69925148854837  20.42407992514361 9.731177823737394 38.52874596486673  20.05243968963623 9.596890926361084 38.89620971679688  20.21959495544434 9.709579944610596 39.19451522827148  20.00617980957031 9.197901725769043 38.76840972900391  20.37782004507769 9.332188623145353 38.40094597707376  20.17333507537842 9.310590744018555 39.06671524047852  20.34049034118652 9.423279762268066 39.36502075195312  20.74946028058507 9.466475520521664 38.03348222514362  27.72801971435547 0.6290249824523926 36.74245834350586  27.54919752488086 1.567983970635634 37.17196897689837  28.18730867133656 1.167082087945452 37.12164447480296  27.59532410383655 0.9503590532562424 37.36520373366332  27.68189313539978 1.246649899831784 36.54922358674091  27.63576655644409 1.864274817211176 36.35598882997595  28.14118209238087 1.784707005324843 36.928409718038  27.46262849331762 1.271693124060092 37.98794912382079  28.05461306081764 1.488416158749302 37.74438986496043  28.64659762831765 1.705139193438511 37.50083060610005  20.79367065429688 2.128743886947632 39.89208984375  20.22572464786577 2.63098368295054 38.93707283358205  20.65788631286313 2.7269204576163 39.59002499673605  21.07547329774052 2.316930257985475 39.14465642707858  20.36150898929952 2.032807112281872 39.23913768059601  19.92934732430216 1.936870337616111 38.58618551744202  20.64331163274316 2.220993483319715 38.49170426392459  21.35727594118417 2.505116629023318 38.39722301040716  20.93968895630677 2.915106828654143 38.84259158006462  20.52210197142938 3.325097028284968 39.28796014972209  30.20044039209425 15.32791496938898 33.91520740967427  29.55022993343051 14.93744472701378 34.46663008815983  29.9220453488007 14.87680816269686 33.82520990462373  30.06380423751824 14.71597220414885 34.36859975740855  29.82862497672406 15.38855153370589 34.55662759321037  29.92716808294223 14.10402943890873 34.82199210514282  29.78540919422469 14.26486539745674 34.278602252358  29.69198882214805 14.77660876846577 35.01001994094464  29.45680956135388 15.44918809802281 35.19804777674647  29.64365030550715 14.42570135600475 33.73521239957319  30.20601081848145 3.667572975158691 39.89208984375  30.18516256409522 3.230658379562578 39.53790067642785  30.05774786072608 3.710095373161516 39.53790067642785  30.58447437803837 3.357167618292625 39.44669470904188  30.33342552185059 3.188135981559753 39.89208984375  30.46084022521973 2.708698987960815 39.89208984375  30.71188908140751 2.877730624693687 39.44669470904188  30.9629379375953 3.046762261426558 39.00129957433376  30.43621142028301 3.399690016295449 39.09250554171973  29.90948490297071 3.75261777116434 39.18371150910571  36.97259902954102 7.092794418334961 38.98308181762695  37.61295143179505 7.327724719532666 39.00268940433474  37.38343063406556 7.594632888325391 38.75273708805056  37.2166616063556 7.462266231068311 39.06620029911013  37.53565788269043 7.090619564056396 38.60610771179199  37.36888885498047 6.958252906799316 38.91957092285156  37.13936805725098 7.225161075592041 38.66961860656738  37.30613708496094 7.357527732849121 38.35615539550781  37.76517868041992 6.823711395263672 38.85606002807617  37.46072418317019 7.831738043801661 39.1493187805933  26.78860857419974 12.51687203797752 37.14997344568989  27.59913503377937 11.57631545346821 37.30239036312416  26.71566902020535 11.5189034811156 37.34391346325593  27.26187527653336 11.93741538916809 36.75440205091716  27.12586833144575 12.15577210227764 37.69796175789688  27.46312808869176 11.79467216657777 38.24595007010387  27.05292877745136 11.15780354541572 37.89190177546291  27.73514197886697 11.35795874035866 36.35883065614445  27.18893572253896 10.93944683230617 36.94834206848321  26.64272946621096 10.52093492425368 37.53785348082197  36.23872131800572 13.12179688586188 30.7841648716089  36.24513681758592 13.33671765973932 30.09161198064125  36.45677399300247 13.67378773329425 30.62486759442716  35.68200573740025 13.56842912167111 30.36936537322988  35.12529015679479 14.01506135748034 29.95456587485087  35.68842123698046 13.78334989554855 29.67681248226223  35.90005841239702 14.12041996910349 30.21006809604814  36.67482666799923 14.22577858072663 30.46557031724542  36.46318949258269 13.88870850717169 29.9323147034595  36.25155231716613 13.55163843361676 29.39905908967359  23.58745956420898 1.665483951568604 39.89208984375  23.51887584616937 1.137216197539682 39.4959331475338  23.48085975646973 0.9986625015735626 39.89208984375  23.78114986419678 1.323159486055374 39.89208984375  23.81916595389642 1.461713182021494 39.4959331475338  23.28716945648193 1.340986967086792 39.89208984375  22.98687934875488 1.01648998260498 39.89208984375  23.97484016418457 0.9808350205421448 39.89208984375  24.01285625388421 1.119388716508265 39.4959331475338  24.05087234358385 1.257942412474385 39.09977645131762  33.99629974365234 12.10910034179688 36.85799026489258  34.19892496961614 12.64403788415812 36.48388841286003  34.49915210846167 12.69820911889198 36.84825637656145  33.85075659497363 12.45225501384357 36.74164430701267  34.34446811829484 12.30088321211142 36.60023437073993  34.15098373381917 12.50642624857743 37.1060122707141  34.69263649293735 12.49266608242597 36.34247847658728  34.30566772398601 12.90375215535799 37.35403427653561  34.00544058514046 12.84958092062413 36.98966631283419  33.70521344629493 12.79540968589027 36.62529834913276  29.53205871582031 11.21191692352295 33.23213195800781  29.11141967766427 12.08966633902869 33.60715668907216  29.14362074372513 11.22511587633518 33.71616910012133  29.51761901357068 11.77939623239688 33.92008982478458  29.49985764975946 12.07646738621646 33.12311954695863  29.12918104147549 11.79259518520911 34.40412696689809  29.48541794750982 12.64394669509038 33.8110774137354  29.4676565836986 12.94101784890996 33.01410713590946  28.75518277162994 11.23831482914741 34.20020624223484  27.83683013916016 10.72702026367188 39.89208984375  28.29129351498021 10.40915150749773 39.14242847316342  27.76313988286262 10.54716086078621 39.22096545538857  28.11131323696507 10.83644576180071 39.40559871547299  28.01681041717529 10.2997260093689 39.62891960144043  28.19679069519043 9.872431755065918 39.36574935913086  27.94312016087776 10.11986660648323 38.957795213079  28.38579633476999 10.94587125992954 38.91910758719599  28.03762298066754 10.65658635891504 38.73447432711157  27.68944962656509 10.36730145790054 38.54984106702715  26.75262773464858 2.716748673128913 34.88231105050889  27.03523913662568 2.421007053847003 34.45586395033642  26.84106759334002 2.919863336235057 34.39183610306029  26.34104773193403 2.522067608051442 34.62559718562169  27.0584760527689 3.613400683700582 34.58452212067137  27.25264759605457 3.114544401312528 34.64854996794749  26.55845619136291 3.215604955516967 34.81828320323277  26.05843632995692 2.817809227333353 35.05204428579417  27.44681913934024 2.615688118924474 34.71257781522362  25.85177420339728 0.4412332022769766 38.09525103060088 
[...]
<PointData  Vectors="u"> 
<DataArray  type="Float64"  Name="u"  NumberOfComponents="3" format="ascii">3.2912495495714282e+01 5.7070621760598584e+01 -5.7259390977196432e+01  2.6048119813697507e+01 5.6260774919849936e+01 -5.7276622256967194e+01  3.0842992010903206e+01 5.0734470169961966e+01 -4.9293148161557149e+01  3.4972859391016335e+01 5.5900717649404200e+01 -5.8946959954379466e+01  2.4404469553758343e+01 5.7814185893266675e+01 -5.6217307062365791e+01  2.8865409781071996e+01 4.9467754540441277e+01 -4.5823681229247910e+01  2.6610477086789906e+01 4.1378314178299490e+01 -3.9906238395519324e+01  1.9953376484315491e+01 4.7393860503286369e+01 -4.4898003285046030e+01  1.4217616164138379e+01 5.8174608220747587e+01 -5.2926072180535691e+01  3.7225081750211004e+01 5.4324481911439030e+01 -6.0791419126783701e+01  -9.4860719670351834e+00 9.7999393932973646e+01 -5.8155072080586017e+01  1.5932746178812508e+01 9.0707709276037164e+01 -4.3720027093538356e+01  -9.1943958800199543e-01 8.7635430685137891e+01 -5.1218620333433549e+01  7.6011315220058107e+00 8.8937115366236910e+01 -5.6609022810464573e+01  -5.6042349520406576e-01 9.8232946915319999e+01 -4.2157578062587334e+01  1.3082454972654990e+01 9.8846348019829122e+01 -3.0690189764671629e+01  8.0313563575717577e+00 8.8587672106452985e+01 -3.7546582511128037e+01  2.2190183658011662e+01 8.1202077201475873e+01 -5.7217095296747793e+01  1.3146380284147151e+01 8.0871632744236535e+01 -5.1986045334422606e+01  4.3136124706889225e+00 7.9305747088954135e+01 -4.4675159680921034e+01  5.0777042521116811e-01 1.2480883162919606e+02 2.1611184296794729e+01  4.5042004846926609e+01 1.4379704672069940e+02 2.3634599428397042e+01  2.4308679848874991e+01 1.6579372106625519e+02 4.0490194744595811e+01  2.0017149893348698e+01 1.4275832082035890e+02 2.4909023018979877e+01  2.5738447270599565e+01 1.4980412455657989e+02 3.3111924606855638e+01  2.2332605896614062e+01 1.3313044704975761e+02 2.3160756540078932e+01  -5.4348156290770939e+00 1.4705643931391367e+02 3.5595466258074985e+01  2.1729371990012680e+00 1.7161437717727560e+02 5.0992978825590711e+01  4.3305202142445658e+01 1.3401505063716436e+02 1.8648851135338223e+01  4.6051411940734006e+01 1.5626809101604297e+02 2.4933042218821395e+01  8.1599264311053261e+01 -8.1273318691288416e+00 -1.3310605709901436e+01  7.1118121953739703e+01 3.7119230238815981e+00 -1.1543717020381418e+01  6.6079281185119669e+01 -3.2228903103766591e+00 -5.0798752566618148e+00  7.3298389013148963e+01 -4.1673388697663114e+00 -7.3304202219528873e+00  7.2767554678087961e+01 -6.4798200890323798e-01 -1.0935431823219105e+01  7.8230809203004270e+01 -1.4499912071116654e+00 -1.2484490723002118e+01  7.5162404644160986e+01 -1.0527015562085557e+01 -4.6092317948538577e+00  6.8143685524560524e+01 -4.4374633071271168e+00 -2.0620957035818499e+00  7.6851236436520338e+01 4.5786528506626976e+00 -1.7123417278991745e+01  6.5268931025503861e+01 3.3306155704340230e+00 -6.3658258157657288e+00  2.9844978035143720e+02 1.4253901752229939e+02 -9.3273363282200137e+01  2.9416515768074566e+02 6.0904136096977624e+01 -3.9597093553806701e+01  3.0191297239311257e+02 6.4152594269223329e+01 -5.2659869443006599e+01  2.5401353112826223e+02 9.0228778831112180e+01 -4.7909980402268602e+01  3.2449500416333024e+02 1.2848270552558296e+02 -3.7357561077966885e+01  3.3241268897599139e+02 1.2540206889837516e+02 -1.6329383763487943e+01  2.6603163374238159e+02 9.2264997438550438e+01 -2.8347827547275141e+01  2.2605154758177989e+02 7.4983872798411880e+01 -3.7052395833548580e+01  2.4853156140107322e+02 5.8440957384437660e+01 -4.8721600938561231e+01  2.7356775827078536e+02 3.7871993529482964e+01 -5.0082720218136387e+01  6.7577448579097084e+00 1.5054519180160491e+02 2.5670725165804527e+01  3.2967483077935036e+01 1.5631717581414330e+02 4.0364798849495216e+01  2.7460383264380297e+01 1.5769661831273314e+02 3.9937511050487331e+01  1.1918128670668015e+01 1.5470348232436700e+02 3.8929855814100129e+01  1.5857410933348390e+01 1.4506945407471468e+02 2.1275307826932547e+01  8.3714404353272389e+00 1.6033240571745668e+02 4.4000705491184874e+01  2.7198755164938120e+01 1.6459314666587647e+02 5.3027952634492387e+01  1.9620673307370296e+01 1.6284877673095241e+02 3.1239339236895621e+01  2.4080289419082533e+01 1.5130843632045884e+02 2.7220021687443101e+01  5.4859386883377041e+01 1.7042181566877537e+02 5.6518066803979352e+01  2.9309042688823716e+01 1.6684782208116676e+01 -6.8315851994279493e+00  3.0810927365907251e+01 1.8853266611233341e+01 -9.6540391740134446e+00  2.4518932498112534e+01 1.5406769850039504e+01 -5.7111656605445038e+00  3.0959269524007659e+01 1.4412584003416031e+01 -5.2470552814532647e+00  2.7119933957470444e+01 1.9118772433224542e+01 -1.1420134426052748e+01  2.4853131993667450e+01 2.3793787327026198e+01 -1.4604050920606122e+01  2.2376374261403591e+01 1.9772458613873194e+01 -8.8998503371865070e+00  3.5267865898807976e+01 1.3158436774627004e+01 -4.7445715281208889e+00  2.6941983850778602e+01 1.5096578778264741e+01 -4.9188812911594164e+00  1.9333519791141445e+01 1.5501814390854911e+01 -4.9651079146361115e+00  1.6149555319003872e+02 2.9871675186046346e+01 -9.9990337412089370e-01  1.6849937332612507e+02 4.7427251734469841e+01 2.4145238761048496e+01  1.5757468069135066e+02 4.4367145767405837e+01 5.1607903593642392e+00  1.6409285388264280e+02 3.1296056264106166e+01 6.1914383387722909e+00  1.6936610711305153e+02 3.4445787913292307e+01 1.6358281407357744e+01  1.8327958077024059e+02 3.8826747842433768e+01 4.0575143291695667e+01  1.8386229239916119e+02 3.6351516580338370e+01 2.0055817708392464e+01  1.7251530804387684e+02 3.0856747657737383e+01 1.2878611263086002e+00  1.6409676867146570e+02 4.5577000001654675e+01 1.1192896296008582e+01  1.5510028771905999e+02 5.9351372370662233e+01 1.1982273355916545e+01  1.8644466765143065e+02 1.7458055582467992e+01 -5.0615587210968194e+01  1.7880390808932833e+02 3.0142000000687279e+01 -4.4945173647043383e+01  1.9107612114324522e+02 2.7341663185935690e+01 -4.6701217426229100e+01  1.9038248127604524e+02 2.5217695139736790e+01 -4.5713378909412889e+01  1.7781313531273349e+02 2.2176754526442298e+01 -4.3822901725110249e+01  1.9952394595691152e+02 3.5391894141315717e+01 -4.9053333815817780e+01  1.9409169277583862e+02 3.6260209671763363e+01 -4.4010339632615185e+01  1.8625636834399882e+02 3.2103669031548442e+01 -4.9360742587963230e+01  1.7344122920984404e+02 2.9516610898370839e+01 -5.0890226021816801e+01  1.9420671497856384e+02 3.8761572238632091e+01 -4.0479145301898534e+01  2.7903199192582384e-01 1.5266154898058414e+01 8.5635432300098407e-04  2.6617457539791736e+00 1.4476650358660393e+01 -6.4669534089460023e-01  3.8947745601142553e-01 1.6522108172261376e+01 -1.0142995894950864e+00  4.9645558177492310e-01 1.2898180688336828e+01 -6.6293569321641266e-01  2.3063053658498038e+00 1.3633670101861721e+01 9.1463500834216820e-03  3.8423895925576459e+00 1.1415257867218722e+01 -8.1363917314762474e-03  1.9835640054702548e+00 1.1120356819039591e+01 -3.6467641041265431e-01  2.7094456486030649e-01 1.0890475307281168e+01 -5.1962374397849531e-01  3.1750826426542750e-01 1.4028471785757256e+01 -1.2530201972195176e+00  5.6018406076842009e-01 1.7859290147030180e+01 -2.1073365437950851e+00  8.3865244718817955e-01 -6.1298262588025532e-01 -2.4343441520054296e-01  8.5986872436241579e-01 -1.9100842306082591e-01 -6.4315644702954311e-01  1.2216684129711002e+00 -2.3021000374939637e-01 -1.0595757732968454e+00  1.1932193545757339e+00 -6.6443345300343348e-01 -6.8498131428621278e-01  9.0033529814737701e-01 1.2088571930861172e-01 -7.1387946723115481e-01  7.8167706997266573e-01 -1.1156952029905620e-01 -3.2071732314996509e-01  1.0704719091503914e+00 -1.2968110951363926e-01 -6.5806676996239155e-01  1.1601368864410555e+00 2.4675365484274500e-01 -1.0498724802149666e+00  6.2896982096796339e-01 9.5753697770065732e-02 -4.8186009688670689e-01  1.3413871707387999e+00 -6.6322675869952596e-01 -8.8698325282110857e-01  8.6654922711323749e+01 8.6423782925441770e+01 -3.4125333772991006e+01  8.8649564177307127e+01 1.0873381397528429e+02 -3.3921643549054671e+01  8.3475086787687076e+01 1.0484743992482771e+02 -2.5878394512911150e+01  9.4200414636988299e+01 1.0118115860455299e+02 -4.1158725256146695e+01  8.4813979174054424e+01 9.1050733022038230e+01 -2.6980777902015053e+01  8.4789960616246589e+01 9.5425340396664950e+01 -1.6270547147738881e+01  8.0761110612345959e+01 1.0905992773143402e+02 -1.6689087575262786e+01  1.0276361072304928e+02 1.2150978028602458e+02 -5.0493022186417669e+01  8.5418576892582934e+01 1.2096220475798972e+02 -3.2177277240013481e+01  7.6588166190966035e+01 1.1769137834566475e+02 -1.6200251847753361e+01  2.3669744742491011e+02 -1.3366700183259038e+01 -9.7711469305456404e+01  2.2188995427223841e+02 1.4491169999810355e+01 -6.1374828109445062e+01  2.4917777551794299e+02 1.0835159931863590e+01 -9.6297126524908052e+01  2.1268028225953222e+02 1.5288361526552743e+00 -1.0210658844850984e+02  1.8909525247139959e+02 1.2662170419838477e+01 -1.1748763122498184e+02  1.9193957314497922e+02 3.0691886469167347e+01 -7.2165621628018300e+01  2.2613693500285714e+02 2.2236826494960418e+01 -1.0415516261933753e+02  2.6443352296949951e+02 3.5918857673961114e+01 -8.9400805472484691e+01  2.3023674160104849e+02 3.5239434257446611e+01 -6.2536064580430249e+01  2.0383972376711063e+02 4.4832199386865248e+01 -2.7792683840370405e+01  1.1409625142617746e+02 5.5651361117785934e+00 -6.8836354904079397e-02  1.1910834701954076e+02 -1.2132007632872799e+00 -5.3350478406980857e+00  1.2068371126811846e+02 -4.7195693379957264e+00 5.8820806152689598e-01  1.0983593008578698e+02 1.4190691082822078e+00 -5.0525435928538082e-03  1.0915019665215814e+02 2.8519002012043528e+00 -6.3278710261994089e+00  1.2372988977302300e+02 3.2489480688736787e+00 -1.4271229450780765e-01  1.4180891239833167e+02 1.1272191139724208e+01 -1.9716055576434890e+00  1.0140426842217671e+02 -3.8009408875940935e+00 -2.5555071281178607e+00  1.0378321411879237e+02 -2.3850817292961355e+00 -6.5944527711023744e+00  1.0333301250579349e+02 9.4440658079110895e-01 -1.1766381223988171e+01  8.6487387134605285e+01 -2.9668835706782033e+01 -1.0579590139006304e+02  6.6232888159141808e+01 -4.9874698161886634e+01 -9.0149851438421337e+01  5.0529273351645351e+01 -4.2738435733761470e+01 -7.6533123590622665e+01  7.8977098638656102e+01 -3.3669942698476227e+01 -8.5554366723816102e+01  6.4685056321985343e+01 -5.2091101063208995e+01 -9.7262631045748648e+01  6.6421719121146879e+01 -2.4365680352621759e+01 -7.3180208696681703e+01  4.7546756629592700e+01 -6.1001627301635146e+01 -1.0740229135044008e+02  5.5571959952162004e+01 -2.5737122037021255e+01 -5.3850273123787723e+01  6.4938216044116771e+01 -3.0422893286685483e+01 -6.6360817553885582e+01  7.7993191241641142e+01 -3.4445316174963430e+01 -7.5062244309769767e+01  2.4326727006915982e+02 1.7431013004549064e+02 8.3181363259543076e+01  2.0520868311177298e+02 1.1161767327268831e+02 1.2374983930122090e+01  2.1331114840932614e+02 1.4954383727738596e+02 3.1383316577115750e+01  2.4583490170055234e+02 1.0678937816603309e+02 1.3771534698381218e+00  2.5094611607485734e+02 1.2593187851229675e+02 3.7097512300805143e+01  2.1384432049297635e+02 1.0660185556627469e+02 -2.1962179799260689e+01  2.1985307133701625e+02 8.0010507938518529e+01 -1.2929205438229443e+01  2.3165251820459531e+02 9.0838420992188219e+01 1.3145322844918065e+01  1.8437764124646048e+02 1.3503468768012141e+02 -7.0603550589544222e+00  1.1704571327933876e+02 9.6695842558319029e+01 1.3618837393490859e+01  1.0063754285367084e+02 1.2470396283246387e+02 2.8328225998685550e+01  9.3921536626312843e+01 1.1761589992496810e+02 1.0180511135891908e+01  1.0552642480394165e+02 1.0388025224674914e+02 1.5573948677074700e+01  1.2597586116402154e+02 1.2938515186097334e+02 3.7600438885292803e+01  1.0703053491555096e+02 1.6791029712342169e+02 1.1790879007576111e+01  8.4714510780031020e+01 1.3605755890839336e+02 1.2011222976212931e+01  9.9307580274542019e+01 1.1363679479148917e+02 1.3402139794409957e+01  8.7665543853279431e+01 1.2248559524511401e+02 7.8196135611138349e+00  7.7347218493048615e+01 1.2566426824298973e+02 1.2485258526427709e+00  2.7754064024163938e+01 4.0583598633211366e+01 -3.6555195314354343e+01  1.8441656024186759e+01 4.0972668979226540e+01 -3.6854913180569085e+01  2.3025732703321378e+01 4.7619443373477971e+01 -4.4122443423574346e+01  3.4293579193471963e+01 4.0407938016274862e+01 -3.9800025414168147e+01  1.9617699604913298e+01 5.0996103676932201e+01 -4.7454336821152175e+01  1.4742185367691700e+01 4.6909941280528891e+01 -4.0381528605058186e+01  3.2054092859778585e+01 4.4976063864962171e+01 -4.2375451427536966e+01  4.2077620280580447e+01 3.8781630672629014e+01 -3.9583657276975060e+01  1.1078093755628963e+01 4.0229507341775580e+01 -3.1981264986004000e+01  5.9545991120963741e+01 1.6826308170700766e+00 -7.3847809924282206e+00  5.9625828561651332e+01 -3.7048571735370328e+00 1.7618587665357930e+00  5.2247786002080119e+01 -1.1708792643880663e+00 -2.1095654603536542e+00  5.8453729370696557e+01 -5.7960481300176314e-01 -2.8422687666697359e+00  5.2882345040596185e+01 2.9300327917013096e+00 -5.5730569859087460e+00  5.1135014247940973e+01 7.2831444075674003e+00 -7.9164115068934038e+00  5.7516127731235265e+01 5.4248330280517267e+00 -7.0436172728403950e+00  6.0440477491007222e+01 1.0571758544695236e+02 1.7905254619409288e+00  7.5928067410034970e+01 1.0564799533587534e+02 8.3636263200497609e+00  6.9744245748023090e+01 1.1755750192518289e+02 2.0524845412149066e+01  6.5586371537890358e+01 1.1522063671051703e+02 8.1686884178108468e+00  8.1364624491985921e+01 1.0125034254461036e+02 7.6793089497819711e-01  6.9203712462687932e+01 9.3833628163013046e+01 -4.2267076458703984e-01  6.7190129962049696e+01 1.0677263637530936e+02 -3.7286470209085789e+00  5.4151231515738779e+01 1.1348129383998186e+02 1.9488853625079745e+01  7.8794912593678205e+01 8.3360726843279949e+01 -3.5464871545126125e-01  8.0173295227488609e+01 1.2396773398555450e+02 2.7453107776539376e+01  1.1815093061024004e+02 7.8226807771503402e+01 -6.3708293598938333e+01  1.2830124722474906e+02 6.6693541634244326e+01 -5.2278208962292474e+01  1.5028437738167702e+02 7.6655878081628714e+01 -6.0570649730067622e+01  1.3301763973946552e+02 8.7055444342424479e+01 -6.1660101500250299e+01  1.1589321161510262e+02 7.4851050917203963e+01 -5.2296239606931344e+01  1.3557699390649285e+02 6.9373357627564516e+01 -6.8918239088019874e+01  1.5397278849951257e+02 6.0889498062278889e+01 -6.7905414568913798e+01  1.4531182267456347e+02 9.7310237273244738e+01 -5.5358297074663881e+01  1.1954210336296346e+02 8.3652322832657134e+01 -4.9697997178596140e+01  1.0279924517636293e+02 6.8210256357668342e+01 -4.9898958400285430e+01  1.5521355224273157e+02 5.0362564973893512e+01 -8.4772314535333870e-01  1.5480572008635440e+02 5.4546431622374918e+01 6.6036387687164035e+00  1.5821553397967205e+02 4.0374530912510956e+01 -1.3600221418766782e+00  6.3042935701232601e+01 1.6712755629495541e+02 -6.3119597734333944e+01  9.1969890480668823e+01 1.6339051287780086e+02 -3.0272889926326275e+01  1.0188381618387125e+02 1.5453037210095621e+02 -3.4001831202885789e+01  7.4165294258146375e+01 1.5490874743557387e+02 -3.2108574284660605e+01  8.2396547039537126e+01 1.6022855885706400e+02 -4.3353455153486621e+01  8.8839035863807993e+01 1.5472832004827896e+02 -4.4895702239577787e+01  9.6729981735389117e+01 1.4793815211923626e+02 -4.0654201404641945e+01  8.8941438685019421e+01 1.5663210748989428e+02 -3.7162887878884028e+01  7.7712496852472242e+01 1.6061292446810873e+02 -3.5852555781836621e+01  1.0196609112902512e+02 1.5676335073358598e+02 -1.5471228699594178e+01  6.8896577629271633e+01 1.4986610387750139e+02 3.0580258554575764e+01  1.0153520089653681e+02 1.5403681111774225e+02 1.4307252838331323e+01  9.6978399412951219e+01 1.4438761908615405e+02 2.9667151354581801e+01  8.7209178458106223e+01 1.5202546600932345e+02 2.4092348249770211e+01  8.2907282522350243e+01 1.4346360528509749e+02 1.6044735592506264e+01  9.1841459242060893e+01 1.3727808283597457e+02 -4.1838746716994546e+00  1.0834848666812383e+02 1.3786745030690730e+02 1.5181768174127926e+01  9.9108555228085763e+01 1.3986053152308872e+02 2.3643462305266929e+01  1.0663721202847503e+02 1.4109123141508275e+02 2.7690765564484366e+01  1.1839122999784773e+02 1.3501727467816499e+02 3.0803287959585933e+01  9.1855596577430106e+01 1.3302970328485824e+02 -5.4917195928088391e+00  9.1669946148839273e+01 1.2578552770502688e+02 -1.5300416925350573e+01  8.9796164158723215e+01 1.2542351472761663e+02 -1.1082293426944842e+01  9.0343862014208582e+01 1.2826134140333781e+02 -8.6194149327661087e+00  1.0184183983798188e+02 1.3341093724320700e+02 -8.8840226701604550e+00  1.0510141957266477e+02 1.3562208648479577e+02 -1.3263875410265623e+01  9.6369241953701248e+01 1.2982899706101574e+02 -8.2759620648340846e+00  9.0266068184534944e+01 1.2275896627367645e+02 -4.8379801329677612e+00  8.7418005618942800e+01 1.2090895122381045e+02 -1.1924197268346900e+01  8.5444700625708663e+01 1.1931691386718040e+02 -2.0556986810519181e+01  7.3155975113443375e+01 1.1338544466819975e+02 2.1676656020029952e-01  7.4447904315928341e+01 1.0907693796010435e+02 6.6451534504020138e-01  7.8085138067694658e+01 1.1301840937712643e+02 3.0718185042749875e+00  7.7083957437200070e+01 1.0991422490901311e+02 -1.4349421051683839e-02  7.9254172703093175e+01 1.0635915511468019e+02 -9.7917474128878329e-02  7.6735307204384469e+01 1.0641774091801652e+02 4.6046956016430179e-01  8.0608567972943135e+01 1.0908706657330802e+02 2.6435400648548462e+00  8.3447066179777494e+01 1.1372878019206398e+02 5.7910636593451956e+00  7.8500840939729997e+01 1.1017557714472832e+02 1.7178280719061061e+00  7.5289465854531187e+01 1.0612735637497832e+02 -1.1498411074283621e+00  1.1951184849436681e+01 -2.2995931847407114e+01 -3.5806315284767201e+01  1.8107629490768797e+01 -2.0199125886915372e+01 -4.4770390913660613e+01  2.4899516610479399e+01 -2.2034661123976516e+01 -3.8018103740616930e+01  2.1146225959125616e+01 -1.7570933456850870e+01 -2.5960147961773142e+01  2.8495570705332597e+01 -1.6134242052971032e+01 -1.4891719185117337e+01  2.9080942975939340e+01 -1.6191787726046943e+01 -2.8179384469505315e+01  3.4759651011628421e+01 -1.7579425285297223e+01 -2.4342135300836070e+01  4.2410352314965543e+01 -1.9530730903194392e+01 -3.6026324291282791e+01  3.6217328070826760e+01 -1.9315755640939695e+01 -4.2993442584913637e+01  2.8802180359390089e+01 -1.5897909490132108e+01 -4.9911641042406856e+01  2.6742110880758207e+02 1.0011494248872533e+02 2.3916827531688139e+02  2.7286140245698181e+02 8.1724343060586492e+01 1.8177096698260621e+02  2.5178932766545230e+02 8.4157817968857302e+01 1.5266531297782615e+02  2.7128155231107758e+02 8.6300794366096412e+01 1.5477887557498096e+02  2.4835373876329265e+02 5.5626464896986867e+01 1.5700868774519213e+02  2.5742366879412953e+02 6.5426135568620268e+01 1.4855323598356316e+02  2.6383709667871426e+02 6.3581145372489274e+01 1.5841246430197748e+02  2.4727724389048871e+02 6.3702683450071781e+01 1.4723148644699737e+02  2.4460268778516004e+02 6.8921393592141925e+01 1.3050529950957409e+02  2.6950133160985246e+02 6.3017502712203445e+01 1.6818838409912200e+02  -5.2850645358401236e+00 2.0158364753571096e+01 -4.7837066529394798e+00  -6.9842735950293811e-01 1.9081077057956954e+01 -4.7900105951912568e+00  -1.0219067785914537e+00 1.8688452173600108e+01 -3.6529131354351749e+00  -2.2334698240997213e+00 2.1167387283775891e+01 -5.5107392033629568e+00  -3.9466552980491065e+00 1.8650378604507445e+01 -4.3414838364527597e+00  -2.0298100668103860e+00 2.1624263412452503e+01 -5.3703675235776460e+00  5.1257358204879844e-01 1.8686446711894380e+01 -5.8918223477558831e+00  9.6822008859448083e-01 2.0926599607003116e+01 -5.8693455335833651e+00  -2.8405787192712708e+00 1.6214677020849390e+01 -3.1347961050469633e+00  1.6432811059387080e+00 2.1735912768083541e+01 -6.1473160622730951e+00  1.5052485280649725e+02 -1.1011245636647455e+01 4.6381410565550940e+00  2.0981648193384211e+02 -2.7817821383418697e+00 5.0062547061134248e+00  1.9719746574929516e+02 5.1518724770571867e-01 4.