<?xml version="1.0"?>
<VTKFile type="UnstructuredGrid"  version="0.1"  >
<UnstructuredGrid>
<Piece  NumberOfPoints="343" NumberOfCells="1296">
<Points>
<DataArray  type="Float64"  NumberOfComponents="3"  format="ascii">0 0 0  16.66666666666667 0 0  33.33333333333334 0 0  50 0 0  0 16.66666666666667 0  16.66666666666667 16.66666666666667 0  33.33333333333334 16.66666666666667 0  50 16.66666666666667 0  0 33.33333333333334 0  16.66666666666667 33.33333333333334 0  33.33333333333334 33.33333333333334 0  50 33.33333333333334 0  0 50 0  16.66666666666667 50 0  33.33333333333334 50 0  50 50 0  0 0 16.66666666666667  16.66666666666667 0 16.66666666666667  33.33333333333334 0 16.66666666666667  50 0 16.66666666666667  0 16.66666666666667 16.66666666666667  16.66666666666667 16.66666666666667 16.66666666666667  33.33333333333334 16.66666666666667 16.66666666666667  50 16.66666666666667 16.66666666666667  0 33.33333333333334 16.66666666666667  16.66666666666667 33.33333333333334 16.66666666666667  33.33333333333334 33.33333333333334 16.66666666666667  50 33.33333333333334 16.66666666666667  0 50 16.66666666666667  16.66666666666667 50 16.66666666666667  33.33333333333334 50 16.66666666666667  50 50 16.66666666666667  0 0 33.33333333333334  16.66666666666667 0 33.33333333333334  33.33333333333334 0 33.33333333333334  50 0 33.33333333333334  0 16.66666666666667 33.33333333333334  16.66666666666667 16.66666666666667 33.33333333333334  33.33333333333334 16.66666666666667 33.33333333333334  50 16.66666666666667 33.33333333333334  0 33.33333333333334 33.33333333333334  16.66666666666667 33.33333333333334 33.33333333333334  33.33333333333334 33.33333333333334 33.33333333333334  50 33.33333333333334 33.33333333333334  0 50 33.33333333333334  16.66666666666667 50 33.33333333333334  33.33333333333334 50 33.33333333333334  50 50 33.33333333333334  0 0 50  16.66666666666667 0 50  33.33333333333334 0 50  50 0 50  0 16.66666666666667 50  16.66666666666667 16.66666666666667 50  33.33333333333334 16.66666666666667 50  50 16.66666666666667 50  0 33.33333333333334 50  16.66666666666667 33.33333333333334 50  33.33333333333334 33.33333333333334 50  50 33.33333333333334 50  0 50 50  16.66666666666667 50 50  33.33333333333334 50 50  50 50 50  8.333333333333334 0 0  0 8.333333333333334 0  8.333333333333334 8.333333333333334 0  0 0 8.333333333333334  8.333333333333334 0 8.333333333333334  0 8.333333333333334 8.333333333333334  8.333333333333334 8.333333333333334 8.333333333333334  25 0 0  16.66666666666667 8.333333333333334 0  25 8.333333333333334 0  16.66666666666667 0 8.333333333333334  25 0 8.333333333333334  16.66666666666667 8.333333333333334 8.333333333333334  25 8.333333333333334 8.333333333333334  41.66666666666667 0 0  33.33333333333334 8.333333333333334 0  41.66666666666667 8.333333333333334 0  33.33333333333334 0 8.333333333333334  41.66666666666667 0 8.333333333333334  33.33333333333334 8.333333333333334 8.333333333333334  41.66666666666667 8.333333333333334 8.333333333333334  50 8.333333333333334 0  50 0 8.333333333333334  50 8.333333333333334 8.333333333333334  8.333333333333334 16.66666666666667 0  0 25 0  8.333333333333334 25 0  0 16.66666666666667 8.333333333333334  8.333333333333334 16.66666666666667 8.333333333333334  0 25 8.333333333333334  8.333333333333334 25 8.333333333333334  25 16.66666666666667 0  16.66666666666667 25 0  25 25 0  16.66666666666667 16.66666666666667 8.333333333333334  25 16.66666666666667 8.333333333333334  16.66666666666667 25 8.333333333333334  25 25 8.333333333333334  41.66666666666667 16.66666666666667 0  33.33333333333334 25 0  41.66666666666667 25 0  33.33333333333334 16.66666666666667 8.333333333333334  41.66666666666667 16.66666666666667 8.333333333333334  33.33333333333334 25 8.333333333333334  41.66666666666667 25 8.333333333333334  50 25 0  50 16.66666666666667 8.333333333333334  50 25 8.333333333333334  8.333333333333334 33.33333333333334 0  0 41.66666666666667 0  8.333333333333334 41.66666666666667 0  0 33.33333333333334 8.333333333333334  8.333333333333334 33.33333333333334 8.333333333333334  0 41.66666666666667 8.333333333333334  8.333333333333334 41.66666666666667 8.333333333333334  25 33.33333333333334 0  16.66666666666667 41.66666666666667 0  25 41.66666666666667 0  16.66666666666667 33.33333333333334 8.333333333333334  25 33.33333333333334 8.333333333333334  16.66666666666667 41.66666666666667 8.333333333333334  25 41.66666666666667 8.333333333333334  41.66666666666667 33.33333333333334 0  33.33333333333334 41.66666666666667 0  41.66666666666667 41.66666666666667 0  33.33333333333334 33.33333333333334 8.333333333333334  41.66666666666667 33.33333333333334 8.333333333333334  33.33333333333334 41.66666666666667 8.333333333333334  41.66666666666667 41.66666666666667 8.333333333333334  50 41.66666666666667 0  50 33.33333333333334 8.333333333333334  50 41.66666666666667 8.333333333333334  8.333333333333334 50 0  0 50 8.333333333333334  8.333333333333334 50 8.333333333333334  25 50 0  16.66666666666667 50 8.333333333333334  25 50 8.333333333333334  41.66666666666667 50 0  33.33333333333334 50 8.333333333333334  41.66666666666667 50 8.333333333333334  50 50 8.333333333333334  8.333333333333334 0 16.66666666666667  0 8.333333333333334 16.66666666666667  8.333333333333334 8.333333333333334 16.66666666666667  0 0 25  8.333333333333334 0 25  0 8.333333333333334 25  8.333333333333334 8.333333333333334 25  25 0 16.66666666666667  16.66666666666667 8.333333333333334 16.66666666666667  25 8.333333333333334 16.66666666666667  16.66666666666667 0 25  25 0 25  16.66666666666667 8.333333333333334 25  25 8.333333333333334 25  41.66666666666667 0 16.66666666666667  33.33333333333334 8.333333333333334 16.66666666666667  41.66666666666667 8.333333333333334 16.66666666666667  33.33333333333334 0 25  41.66666666666667 0 25  33.33333333333334 8.333333333333334 25  41.66666666666667 8.333333333333334 25  50 8.333333333333334 16.66666666666667  50 0 25  50 8.333333333333334 25  8.333333333333334 16.66666666666667 16.66666666666667  0 25 16.66666666666667  8.333333333333334 25 16.66666666666667  0 16.66666666666667 25  8.333333333333334 16.66666666666667 25  0 25 25  8.333333333333334 25 25  25 16.66666666666667 16.66666666666667  16.66666666666667 25 16.66666666666667  25 25 16.66666666666667  16.66666666666667 16.66666666666667 25  25 16.66666666666667 25  16.66666666666667 25 25  25 25 25  41.66666666666667 16.66666666666667 16.66666666666667  33.33333333333334 25 16.66666666666667  41.66666666666667 25 16.66666666666667  33.33333333333334 16.66666666666667 25  41.66666666666667 16.66666666666667 25  33.33333333333334 25 25  41.66666666666667 25 25  50 25 16.66666666666667  50 16.66666666666667 25  50 25 25  8.333333333333334 33.33333333333334 16.66666666666667  0 41.66666666666667 16.66666666666667  8.333333333333334 41.66666666666667 16.66666666666667  0 33.33333333333334 25  8.333333333333334 33.33333333333334 25  0 41.66666666666667 25  8.333333333333334 41.66666666666667 25  25 33.33333333333334 16.66666666666667  16.66666666666667 41.66666666666667 16.66666666666667  25 41.66666666666667 16.66666666666667  16.66666666666667 33.33333333333334 25  25 33.33333333333334 25  16.66666666666667 41.66666666666667 25  25 41.66666666666667 25  41.66666666666667 33.33333333333334 16.66666666666667  33.33333333333334 41.66666666666667 16.66666666666667  41.66666666666667 41.66666666666667 16.66666666666667  33.33333333333334 33.33333333333334 25  41.66666666666667 33.33333333333334 25  33.33333333333334 41.66666666666667 25  41.66666666666667 41.66666666666667 25  50 41.66666666666667 16.66666666666667  50 33.33333333333334 25  50 41.66666666666667 25  8.333333333333334 50 16.66666666666667  0 50 25  8.333333333333334 50 25  25 50 16.66666666666667  16.66666666666667 50 25  25 50 25  41.66666666666667 50 16.66666666666667  33.33333333333334 50 25  41.66666666666667 50 25  50 50 25  8.333333333333334 0 33.33333333333334  0 8.333333333333334 33.33333333333334  8.333333333333334 8.333333333333334 33.33333333333334  0 0 41.66666666666667  8.333333333333334 0 41.66666666666667  0 8.333333333333334 41.66666666666667  8.333333333333334 8.333333333333334 41.66666666666667  25 0 33.33333333333334  16.66666666666667 8.333333333333334 33.33333333333334  25 8.333333333333334 33.33333333333334  16.66666666666667 0 41.66666666666667  25 0 41.66666666666667  16.66666666666667 8.333333333333334 41.66666666666667  25 8.333333333333334 41.66666666666667  41.66666666666667 0 33.33333333333334  33.33333333333334 8.333333333333334 33.33333333333334  41.66666666666667 8.333333333333334 33.33333333333334  33.33333333333334 0 41.66666666666667  41.66666666666667 0 41.66666666666667  33.33333333333334 8.333333333333334 41.66666666666667  41.66666666666667 8.333333333333334 41.66666666666667  50 8.333333333333334 33.33333333333334  50 0 41.66666666666667  50 8.333333333333334 41.66666666666667  8.333333333333334 16.66666666666667 33.33333333333334  0 25 33.33333333333334  8.333333333333334 25 33.33333333333334  0 16.66666666666667 41.66666666666667  8.333333333333334 16.66666666666667 41.66666666666667  0 25 41.66666666666667  8.333333333333334 25 41.66666666666667  25 16.66666666666667 33.33333333333334  16.66666666666667 25 33.33333333333334  25 25 33.33333333333334  16.66666666666667 16.66666666666667 41.66666666666667  25 16.66666666666667 41.66666666666667  16.66666666666667 25 41.66666666666667  25 25 41.66666666666667  41.66666666666667 16.66666666666667 33.33333333333334  33.33333333333334 25 33.33333333333334  41.66666666666667 25 33.33333333333334  33.33333333333334 16.66666666666667 41.66666666666667  41.66666666666667 16.66666666666667 41.66666666666667  33.33333333333334 25 41.66666666666667  41.66666666666667 25 41.66666666666667  50 25 33.33333333333334  50 16.66666666666667 41.66666666666667  50 25 41.66666666666667  8.333333333333334 33.33333333333334 33.33333333333334  0 41.66666666666667 33.33333333333334  8.333333333333
[...]
<PointData  Vectors="u"> 
<DataArray  type="Float64"  Name="u"  NumberOfComponents="3" format="ascii">2.0000000000012705e+02 1.2523071721717835e-10 1.2355289477794616e-10  1.9999999999977487e+02 1.0319159150006794e-10 1.1081179424929770e-10  1.9999999999952317e+02 9.8457451331350366e-11 1.0403199109946179e-10  1.9999999999930185e+02 4.1997036747488848e-11 4.2856873194577042e-11  2.0000000000011022e+02 3.1078288645075267e-11 1.1544179458695280e-10  1.9999999999977169e+02 2.3503269364090836e-11 1.0341412056799204e-10  1.9999999999952777e+02 2.9066526352858571e-11 9.8490760935404943e-11  1.9999999999929221e+02 9.9559900303717770e-12 4.6439825527143870e-11  2.0000000000011352e+02 1.3989613961957154e-11 1.1819572876026326e-10  1.9999999999977780e+02 1.0685973094304069e-11 1.0485458959995464e-10  1.9999999999952655e+02 1.4034538643944227e-11 1.0508481473906356e-10  1.9999999999929148e+02 4.3515178044063406e-12 4.7176597455369111e-11  2.0000000000011696e+02 -7.4696509996424033e-11 1.1561252885560803e-10  1.9999999999976833e+02 -6.8562776052872021e-11 1.1398362383292914e-10  1.9999999999951635e+02 -7.8253758861657487e-11 1.0207068951534864e-10  1.9999999999928536e+02 -2.1719525667655818e-11 4.7935892944455642e-11  2.0000000000011286e+02 1.0605295522158771e-10 3.4314679479478734e-11  1.9999999999975975e+02 1.0418805044413455e-10 2.2148970500092023e-11  1.9999999999952607e+02 1.0040104708470646e-10 2.9960654713228963e-11  1.9999999999929400e+02 3.9209278474227540e-11 8.2402408062135001e-12  2.0000000000011394e+02 2.6334295251325270e-11 2.3990577006585165e-11  1.9999999999976666e+02 1.6195465072843130e-11 1.9446843356549296e-11  1.9999999999952544e+02 2.2364582638069185e-11 1.4655745050536729e-11  1.9999999999928778e+02 8.4283177119252998e-12 5.0312215383110535e-12  2.0000000000012426e+02 1.0767645710258358e-11 2.3763110483893446e-11  1.9999999999977499e+02 6.8228128460761602e-12 2.3723013672115145e-11  1.9999999999951731e+02 1.1451395782363648e-11 1.5069571971611159e-11  1.9999999999929025e+02 1.5386451633402338e-13 9.9506378800918016e-12  2.0000000000010624e+02 -8.0391871459483237e-11 1.8546707250601823e-11  1.9999999999976023e+02 -7.4339430047506500e-11 1.2819697534908911e-11  1.9999999999952075e+02 -6.2106841214934117e-11 1.4694546814612938e-11  1.9999999999927908e+02 -1.8822418932606028e-11 7.5686513726757619e-12  2.0000000000012255e+02 1.2890011872989804e-10 7.2627833479815260e-12  1.9999999999977570e+02 1.1089699150482715e-10 7.1252895350342780e-12  1.9999999999953221e+02 9.6894321253844160e-11 1.6768588560471090e-11  1.9999999999929500e+02 4.8097375413090183e-11 5.2528946543644546e-12  2.0000000000012193e+02 2.7305646382809518e-11 1.0184255117642720e-11  1.9999999999977072e+02 2.8413185873475629e-11 4.9542801615658480e-12  1.9999999999952175e+02 2.1150512549812692e-11 4.4350194565753422e-12  1.9999999999928994e+02 1.0299192885957714e-11 1.1926124324219692e-12  2.0000000000011414e+02 1.3474072758232756e-11 5.8940890477022226e-12  1.9999999999976762e+02 4.7885117831230970e-12 4.8581132070651382e-12  1.9999999999951913e+02 1.3967767019793156e-11 3.4954779003734013e-12  1.9999999999929284e+02 4.8162949667220962e-12 2.3374657685270634e-12  2.0000000000011568e+02 -8.2467841052458956e-11 1.1194942313293846e-11  1.9999999999975896e+02 -7.9278145705819211e-11 2.7766976971866149e-12  1.9999999999951859e+02 -6.4153867164053447e-11 4.3749599241682260e-12  1.9999999999929062e+02 -2.0549688262942671e-11 -2.8951704680437630e-13  2.0000000000011619e+02 1.1905251927830329e-10 -8.0842044857188663e-11  1.9999999999976936e+02 1.0518242993722736e-10 -6.8022721082332842e-11  1.9999999999952342e+02 1.0601078676667718e-10 -7.0302659054068941e-11  1.9999999999928988e+02 4.4866052819256485e-11 -2.0824401905645912e-11  2.0000000000010610e+02 2.6991762046474915e-11 -7.6270827444677606e-11  1.9999999999976049e+02 1.6065590400746356e-11 -7.6461740809131451e-11  1.9999999999952439e+02 1.8387717322924078e-11 -6.0288123669523117e-11  1.9999999999928139e+02 7.2256626636990222e-12 -2.4333876449730573e-11  2.0000000000011542e+02 7.2073110625012045e-12 -8.6229001988480348e-11  1.9999999999976350e+02 9.6320400256560243e-12 -7.3209503789031536e-11  1.9999999999951305e+02 9.2907293935412805e-12 -6.4641857920999026e-11  1.9999999999928480e+02 -1.9976430811809526e-12 -1.9277771394982406e-11  2.0000000000010456e+02 -7.4145564345207617e-11 -7.8536554743422432e-11  1.9999999999976424e+02 -7.8234752938196769e-11 -7.9688760917892489e-11  1.9999999999951280e+02 -6.8133808961930702e-11 -7.4592158593283898e-11  1.9999999999927607e+02 -1.5603404123448794e-11 -2.1722707057289494e-11  1.9999999999984391e+02 -2.6720693739874606e-12 -6.6157036328440183e-12  2.0000000000000429e+02 -3.0530370338154514e-11 1.9519144822743629e-12  1.9999999999982143e+02 -4.6568600665144332e-11 -6.8779248098055398e-11  1.9999999999999960e+02 1.3770309609052085e-12 -2.5643441412621601e-11  1.9999999999982316e+02 -6.4024597879642203e-11 -4.1754859070628989e-11  1.9999999999991726e+02 -5.1856516762206223e-11 -5.0849760597463233e-11  1.9999999999984541e+02 -2.8132362041614763e-11 -2.3245829366951495e-11  1.9999999999961241e+02 -4.8798678980327067e-12 -5.1852343555981433e-12  1.9999999999973772e+02 -1.3310288705129624e-11 -2.1855034016482400e-12  1.9999999999958993e+02 -4.7633646496105262e-11 -6.0010668182652187e-11  1.9999999999973807e+02 -5.2222045736868592e-12 -1.7295951958598887e-11  1.9999999999958803e+02 -6.0848768869597583e-11 -4.9834171967606394e-11  1.9999999999971283e+02 -2.2816806553114854e-11 -2.1782866562305029e-11  1.9999999999960824e+02 -2.3899580407938064e-11 -2.7551067354706756e-11  1.9999999999941167e+02 -3.9995632553817169e-12 3.8978046600924800e-12  1.9999999999949662e+02 -2.0160843735991582e-11 -1.1247473349684360e-11  1.9999999999939078e+02 -3.1390430125267925e-11 -7.2152831212300160e-11  1.9999999999949921e+02 4.4853549199011295e-12 -3.1128782931293301e-11  1.9999999999939345e+02 -6.0673504301715190e-11 -3.7538580627639150e-11  1.9999999999948434e+02 -2.7419063294791731e-11 -3.5196548278540550e-11  1.9999999999941045e+02 -1.3164785381003180e-11 -1.6380750242158251e-11  1.9999999999927491e+02 -4.6231559429457403e-12 -1.8396068513225314e-11  1.9999999999927462e+02 -1.2532356312748176e-11 -4.1263513452170144e-13  1.9999999999926314e+02 -4.7895082356997469e-12 -5.8558293027282526e-12  1.9999999999984990e+02 -1.8915466765453411e-11 -1.6151911045142007e-11  1.9999999999999841e+02 -2.6022111142763320e-11 1.4867892532451628e-12  1.9999999999982489e+02 -3.9688594525487690e-11 -6.2714298426767599e-11  1.9999999999999571e+02 -1.3978604999081009e-11 -2.5909558431382458e-11  1.9999999999984342e+02 -3.2409342101465602e-11 -2.6872308738137748e-11  1.9999999999993858e+02 -3.9357979829870123e-11 -4.5222244462466473e-11  1.9999999999983788e+02 -2.2092464485525498e-11 -2.5143787962921612e-11  1.9999999999962159e+02 -6.3468566631265929e-12 5.1379104044482890e-12  1.9999999999974440e+02 -1.2519019841329828e-11 1.9882593277456761e-12  1.9999999999959752e+02 -3.1374934616778883e-11 -6.1361668505838731e-11  1.9999999999974648e+02 -1.0596487302727865e-11 -6.7561000565379563e-13  1.9999999999960531e+02 -2.7766827756242148e-11 -2.8270636827586382e-11  1.9999999999972039e+02 -2.2054324329011527e-11 -2.7158069979939313e-11  1.9999999999961724e+02 -1.2242050790116727e-11 -2.8017731659057875e-11  1.9999999999940485e+02 -3.8400239860334390e-12 -1.9433586997062168e-12  1.9999999999949512e+02 -1.7280104171745778e-11 6.7609083647188029e-12  1.9999999999938635e+02 -3.1649296299144010e-11 -6.2479996103821298e-11  1.9999999999951211e+02 1.0209192172591689e-11 -1.4605891762939596e-11  1.9999999999939726e+02 -3.3507025472383038e-11 -2.3557144028645465e-11  1.9999999999948065e+02 -2.0319732846145245e-11 -3.4515366639296832e-11  1.9999999999939740e+02 -1.6559696269931414e-11 -2.4472460285735693e-11  1.9999999999926683e+02 1.2880058934894247e-12 -1.4785481616190158e-11  1.9999999999926393e+02 -1.0562065539889202e-12 -6.3994892003121106e-12  1.9999999999926214e+02 -1.6220328147440151e-12 -2.7977655893427770e-12  1.9999999999986497e+02 -1.7919509284441110e-11 -1.6212757660536044e-12  2.0000000000000335e+02 2.1737706062449485e-12 -4.5785841212912223e-12  1.9999999999982717e+02 -1.2908336533951544e-11 -7.8381846209200230e-11  1.9999999999999844e+02 -2.6549497713391559e-11 -9.1752334315552365e-12  1.9999999999983478e+02 -1.2334211315529843e-11 -2.5296729819608315e-11  1.9999999999991132e+02 -1.7774934158271516e-11 -4.2256176314003629e-11  1.9999999999984948e+02 8.4628051200746843e-12 -2.5063068345077352e-11  1.9999999999960929e+02 -2.1258333292340886e-11 -1.0753763338016850e-11  1.9999999999973451e+02 -5.5589283081019506e-13 2.0190911689584801e-11  1.9999999999960798e+02 -8.9807591995069452e-12 -7.0124678119607497e-11  1.9999999999975824e+02 -2.1844162219310633e-13 -1.3842126694227076e-11  1.9999999999960471e+02 -2.4905082664795193e-11 -2.2749380199158573e-11  1.9999999999971803e+02 -6.9535762757071793e-13 -3.1868537062570977e-11  1.9999999999961508e+02 4.1871514409557542e-12 -2.7294503032789949e-11  1.9999999999940550e+02 -8.7447382746589023e-12 7.4900540049972795e-12  1.9999999999949554e+02 1.2239728151708473e-11 3.5489481700712034e-12  1.9999999999938251e+02 -1.5637217919536837e-11 -6.5491904742748192e-11  1.9999999999951177e+02 -5.7387637729979756e-12 -8.2953049252528148e-12  1.9999999999939013e+02 -2.6417088704148256e-11 -3.0269610875165176e-11  1.9999999999948182e+02 3.3340433695823104e-12 -3.2357684544912356e-11  1.9999999999939189e+02 -2.6194721135468362e-12 -2.3123732669859066e-11  1.9999999999925879e+02 9.4665778469172734e-13 -1.0912700340909685e-11  1.9999999999927431e+02 1.3576323929595642e-12 -6.1962518879025949e-12  1.9999999999924921e+02 9.4621253538986076e-13 -4.9885639780709761e-12  1.9999999999985829e+02 5.1952831106946418e-13 1.8758845702092935e-12  2.0000000000000895e+02 1.1260792176651528e-11 -1.3857489192747189e-11  1.9999999999985815e+02 2.4737078735060261e-11 -1.3641851110433773e-11  1.9999999999962998e+02 -3.2097078429561710e-12 3.5990833700189372e-12  1.9999999999975304e+02 2.6035888994189302e-12 -1.4908833644545652e-11  1.9999999999962620e+02 1.6743326438462857e-11 -1.8660911837927168e-11  1.9999999999940883e+02 -2.1852681389935543e-12 1.4215526662251607e-12  1.9999999999951291e+02 -9.9946749843409685e-12 -2.1244573492065641e-11  1.9999999999941190e+02 1.8509737924145399e-11 -7.9107791601822337e-12  1.9999999999925998e+02 1.1310759155111120e-11 -6.6278827763031655e-12  1.9999999999986377e+02 -6.3118551989697742e-12 -1.1362669391311062e-11  1.9999999999998889e+02 -2.1631938150531741e-11 -1.3521088864930107e-11  1.9999999999985116e+02 -3.4576454682583464e-11 -3.3794619890471669e-11  2.0000000000001069e+02 4.4549795302922783e-12 -3.1090991469696387e-11  1.9999999999981551e+02 -7.3573251806670624e-11 -5.8156284761916892e-11  1.9999999999991917e+02 -5.6266159699639439e-11 -4.2612144477625562e-11  1.9999999999983919e+02 -3.0162698087979120e-11 -2.2853696132120788e-11  1.9999999999961042e+02 7.0837595125354700e-12 -1.3088960279970162e-11  1.9999999999974108e+02 -6.3145181096544047e-12 -4.3963645109318750e-12  1.9999999999959599e+02 -2.5034799837368060e-11 -3.0615199068389039e-11  1.9999999999973659e+02 2.4837174679461014e-12 -1.7363923592307196e-11  1.9999999999960053e+02 -6.7909199774318186e-11 -2.9144078325574131e-11  1.9999999999972675e+02 -2.2476258203065743e-11 -3.0026330745169939e-11  1.9999999999960812e+02 -2.3614040630520007e-11 -1.5202492411045340e-11  1.9999999999941906e+02 8.0794245702198631e-12 -1.4243385280666190e-11  1.9999999999951447e+02 -1.4358301522211290e-11 8.1188244583943226e-12  1.9999999999940391e+02 -1.6257946522597402e-11 -2.8290915074038230e-11  1.9999999999949634e+02 -2.6197073507915154e-12 -1.7374160473465314e-11  1.9999999999939362e+02 -6.4378410891331702e-11 -2.6810873546183306e-11  1.9999999999948957e+02 -3.0035677864038649e-11 -2.2068131217471785e-11  1.9999999999939851e+02 -1.8347631280396472e-11 -1.6018799377528639e-11  1.9999999999927275e+02 -6.4114290380970145e-12 -6.6757383956085582e-13  1.9999999999927070e+02 -1.6431822410531250e-11 2.5781929880312548e-12  1.9999999999926521e+02 -5.2933836254911711e-12 -3.2020237686066935e-12  1.9999999999986397e+02 -2.7945266521606066e-12 -1.9496046531069073e-12  2.0000000000000776e+02 -1.3650861344602891e-11 -1.8005660518983210e-11  1.9999999999983874e+02 -2.8921614580302694e-11 -3.1679809611047476e-11  2.0000000000001486e+02 -1.6152872547390642e-11 -1.6536927157156363e-11  1.9999999999983834e+02 -3.0311774154497621e-11 -2.6790093532721201e-11  1.9999999999990908e+02 -3.1242245164751796e-11 -3.3858398193492828e-11  1.9999999999984774e+02 -1.4924847354110031e-11 -1.2119224695683869e-11  1.9999999999961352e+02 4.1135614810906974e-12 5.0434263603416115e-12  1.9999999999975157e+02 -1.2686312942794027e-11 3.2993885516799773e-12  1.9999999999960625e+02 -1.2350827419273156e-11 -2.9803654906428741e-11  1.9999999999975779e+02 1.2783694389332084e-12 -1.5614168117883109e-11  1.9999999999960104e+02 -2.1314184586394925e-11 -1.5337629690558261e-11  1.9999999999971450e+02 -1.7365465584778908e-11 -1.6330748708937773e-11  1.9999999999960932e+02 -1.5752690332688510e-11 -1.2456983890248958e-11  1.9999999999940817e+02 -6.2665689805135237e-12 -1.5327088353896441e-12  1.9999999999950731e+02 -2.9522011794030531e-12 4.1517548629709916e-12  1.9999999999939800e+02 -1.7722554746904048e-11 -2.5707299176457382e-11  1.9999999999950722e+02 4.9429713556256374e-12 -9.7627359854802254e-14  1.9999999999939993e+02 -2.8478417254756519e-11 -1.8061477975462786e-11  1.9999999999948241e+02 -1.8334991361050423e-11 -1.9053460996433658e-11  1.9999999999939163e+02 -1.7088938565861585e-11 -1.5264244067915814e-11  1.9999999999926808e+02 2.3579566863984667e-12 1.3089380870195304e-12  1.9999999999926823e+02 1.4178220091220648e-12 3.8959165038509949e-12  1.9999999999925788e+02 -3.8312142990221653e-12 -5.1514140621580597e-13  1.9999999999984570e+02 1.5691949271313097e-12 -1.5804247968950905e-12  2.0000000000000529e+02 5.4919578789190205e-12 -8.5433795251158251e-12  1.9999999999984070e+02 -5.4832357386832204e-12 -3.3175977969989435e-11  1.9999999999998499e+02 -1.9871519005820427e-11 -1.7227806880505358e-12  1.9999999999984266e+02 -3.0009972391586945e-11 -1.8850201969198261e-11  1.9999999999990911e+02 -1.8685429970003194e-11 -3.7106115512570656e-11  1.9999999999984428e+02 7.0967399536577437e-13 -1.5050666241928647e-11  1.9999999999962176e+02 -8.3357935082957107e-12 5.8136687163349026e-14  1.9999999999974850e+02 3.8946447771793656e-12 1.7162104461044140e-12  1.9999999999961230e+02 -3.6598317503300983e-12 -4.2418236696623695e-11  1.9999999999975427e+02 -8.8122351718247946e-12 -6.4404491814023028e-12  1.9999999999960545e+02 -3.6483170632485167e-11 -2.0379968475803907e-11  1.9999999999971186e+02 -4.4331677081748564e-12 -2.2934440338312876e-11  1.9999999999961443e+02 -5.1343013534908525e-12 -1.4172697151066451e-11  1.9999999999940957e+02 6.9410676072018571e-13 2.7536903134333327e-12  1.9999999999950927e+02 -9.2430058795412016e-12 -3.4539698396826372e-12  1.9999999999939428e+02 1.8159107763081483e-12 -3.7095569870840660e-11  1.9999999999950992e+02 -1.0717687937034480e-12 -5.3356239553836413e-12  1.9999999999939450e+02 -2.7440325368240050e-11 -1.6068104394095039e-11  1.9999999999948102e+02 -1.1508822367620377e-12 -1.3588398893103653e-11  1.9999999999938680e+02 -7.0732467043633039e-12 -1.7416920290677761e-11  1.9999999999926604e+02 -2.3148306279597368e-13 -2.6979691578547567e-13  1.9999999999926808e+02 6.4059289634677857e-12 -4.1985984033615572e-12  1.9999999999925299e+02 4.9077573436188468e-13 1.7590175126573853e-12  1.9999999999986605e+02 -2.1233525913040067e-12 -2.1238082506249828e-12  2.0000000000000259e+02 -1.0195976778267965e-11 -1.0988534100978292e-11  1.9999999999985482e+02 1.9320628915332725e-11 -3.1854008970099152e-12  1.9999999999962708e+02 -1.1462428467182223e-12 5.2034475355871184e-13  1.9999999999976345e+02 4.5716307550812667e-12 -1.1506262492340253e-11  1.9999999999961852e+02 2.3815401846352852e-11 -3.8416549860386141e-12  1.9999999999940846e+02 -5.5533988660190540e-12 3.9249641491305878e-12  1.9999999999952817e+02 -1.9768213313029260e-12 -5.1063450006183230e-12  1.9999999999940613e+02 2.5326168439589726e-11 -4.2584005629424104e-12  1.9999999999925842e+02 1.5192798915086648e-11 -5.4268877186144177e-12  1.9999999999985044e+02 1.4466479700566256e-12 -1.9253477444012538e-11  2.0000000000000773e+02 -1.4467805387938391e-11 -2.3222480998450173e-11  1.9999999999983555e+02 -2.4630481524341780e-11 -2.5016166348844787e-11  2.0000000000000907e+02 -4.4871667504093816e-12 7.5021677392694860e-12  1.9999999999982322e+02 -7.5277552159244876e-11 -1.3198592835349916e-11  1.9999999999992377e+02 -4.6592442158082983e-11 -2.1313210097103463e-11  1.9999999999984260e+02 -2.2651900700940617e-11 5.5017973384485164e-12  1.9999999999961835e+02 -3.9954535915222770e-13 -2.2533236207294362e-11  1.9999999999975105e+02 -1.6826045437771338e-11 -7.1827294575220526e-12  1.9999999999960954e+02 -2.4496682832986435e-11 -2.2248509644157185e-11  1.9999999999974531e+02 3.5821458777672520e-12 -3.4540698066762171e-12  1.9999999999959883e+02 -7.4587985800376669e-11 -8.7257686920157283e-12  1.9999999999971939e+02 -2.3197444298917840e-11 3.2871800692023664e-12  1.9999999999961599e+02 -2.4777758997926206e-11 4.1941091151915315e-12  1.9999999999940135e+02 -2.6026191478910186e-12 -5.2419570011363700e-12  1.9999999999951419e+02 -7.7274793852096917e-12 1.2497549509666300e-12  1.9999999999939837e+02 -2.6395866695030185e-11 -2.0152880621828232e-11  1.9999999999950640e+02 2.9847421185672232e-12 -4.6566598405639468e-12  1.9999999999938603e+02 -6.8823016685319329e-11 -1.8964429736353188e-11  1.9999999999948545e+02 -3.1987705953958802e-11 -2.9897123680538432e-12  1.9999999999939641e+02 -2.3732688933344981e-11 -3.9157266117280741e-12  1.9999999999926970e+02 -9.7700044670353662e-12 2.8425301384758555e-12  1.9999999999925731e+02 -9.1130118270585852e-12 -1.6711759819720542e-12  1.9999999999924577e+02 -3.7667754318902457e-12 -1.2800907979075740e-12  1.9999999999986406e+02 2.8056967696526899e-12 -2.5395212505299162e-12  1.9999999999999554e+02 -1.0795096801146195e-11 -2.4667275473429264e-11  1.9999999999984172e+02 -2.1981130858707543e-11 -3.6750147014262807e-11  2.0000000000001714e+02 -9.6323177309097218e-12 1.7049173244021633e-12  1.9999999999984431e+02 -2.8071989814317147e-11 -3.2749795748379534e-12  1.9999999999991107e+02 -3.6992797946029831e-11 -9.7681986356383750e-12  1.9999999999984561e+02 -1.3647408820855078e-11 5.1017689276271876e-12  1.9999999999961628e+02 7.9060124513029310e-12 -1.1181504418848885e-11  1.9999999999975196e+02 -6.3596265905360349e-12 -1.2665142544315730e-11  1.9999999999960821e+02 -2.1884849326918219e-11 -3.2889846196247266e-11  1.9999999999974577e+02 2.0792787259492940e-12 5.3995689562579755e-12  1.9999999999960787e+02 -3.3584846678869980e-11 -6.4456140140605630e-12  1.9999999999971078e+02 -1.8927203996921448e-11 -2.0545972789456081e-12  1.9999999999961005e+02 -1.4806943738473671e-11 -2.1462302026216100e-12  1.9999999999940900e+02 -6.6639947010909810e-13 -4.3595648367147532e-12  1.9999999999950478e+02 -1.3442975396370491e-11 -4.3937104570294214e-12  1.9999999999939459e+02 -1.9442398715661613e-11 -3.1806390652619823e-11  1.9999999999950856e+02 -2.2115609319137662e-12 6.9523692859723264e-12  1.9999999999940198e+02 -3.3969789494379668e-11 1.2775933510047031e-12  1.9999999999948102e+02 -1.5277188521898395e-11 -8.3452071332536890e-13  1.9999999999939098e+02 -1.7919020328443340e-11 -1.3170042579100156e-12  1.9999999999927178e+02 -5.7732341471844840e-12 -3.1764094733901384e-12  1.9999999999925615e+02 4.6971296711443565e-13 2.1216329943038928e-12  1.9999999999925166e+02 -8.5279451079302317e-13 2.7791252813244418e-12  1.9999999999986039e+02 -3.5180110733071160e-12 -2.3891634869177681e-12  1.9999999999999727e+02 3.5301567846941575e-12 -1.2452987883800067e-11  1.9999999999984055e+02 -1.6471765428823351e-12 -3.1302279360299