<?xml version="1.0"?>
<VTKFile type="UnstructuredGrid"  version="0.1"  >
<UnstructuredGrid>
<Piece  NumberOfPoints="343" NumberOfCells="2808">
<Points>
<DataArray  type="Float64"  NumberOfComponents="3"  format="ascii">0 0 0  1.666666666666667 0 0  3.333333333333333 0 0  5 0 0  0 1.666666666666667 0  1.666666666666667 1.666666666666667 0  3.333333333333333 1.666666666666667 0  5 1.666666666666667 0  0 3.333333333333333 0  1.666666666666667 3.333333333333333 0  3.333333333333333 3.333333333333333 0  5 3.333333333333333 0  0 5 0  1.666666666666667 5 0  3.333333333333333 5 0  5 5 0  0 0 1.666666666666667  1.666666666666667 0 1.666666666666667  3.333333333333333 0 1.666666666666667  5 0 1.666666666666667  0 1.666666666666667 1.666666666666667  1.666666666666667 1.666666666666667 1.666666666666667  3.333333333333333 1.666666666666667 1.666666666666667  5 1.666666666666667 1.666666666666667  0 3.333333333333333 1.666666666666667  1.666666666666667 3.333333333333333 1.666666666666667  3.333333333333333 3.333333333333333 1.666666666666667  5 3.333333333333333 1.666666666666667  0 5 1.666666666666667  1.666666666666667 5 1.666666666666667  3.333333333333333 5 1.666666666666667  5 5 1.666666666666667  0 0 3.333333333333333  1.666666666666667 0 3.333333333333333  3.333333333333333 0 3.333333333333333  5 0 3.333333333333333  0 1.666666666666667 3.333333333333333  1.666666666666667 1.666666666666667 3.333333333333333  3.333333333333333 1.666666666666667 3.333333333333333  5 1.666666666666667 3.333333333333333  0 3.333333333333333 3.333333333333333  1.666666666666667 3.333333333333333 3.333333333333333  3.333333333333333 3.333333333333333 3.333333333333333  5 3.333333333333333 3.333333333333333  0 5 3.333333333333333  1.666666666666667 5 3.333333333333333  3.333333333333333 5 3.333333333333333  5 5 3.333333333333333  0 0 5  1.666666666666667 0 5  3.333333333333333 0 5  5 0 5  0 1.666666666666667 5  1.666666666666667 1.666666666666667 5  3.333333333333333 1.666666666666667 5  5 1.666666666666667 5  0 3.333333333333333 5  1.666666666666667 3.333333333333333 5  3.333333333333333 3.333333333333333 5  5 3.333333333333333 5  0 5 5  1.666666666666667 5 5  3.333333333333333 5 5  5 5 5  0.8333333333333334 0 0  0 0.8333333333333334 0  0.8333333333333334 0.8333333333333334 0  0 0 0.8333333333333334  0.8333333333333334 0 0.8333333333333334  0 0.8333333333333334 0.8333333333333334  0.8333333333333334 0.8333333333333334 0.8333333333333334  2.5 0 0  1.666666666666667 0.8333333333333334 0  2.5 0.8333333333333334 0  1.666666666666667 0 0.8333333333333334  2.5 0 0.8333333333333334  1.666666666666667 0.8333333333333334 0.8333333333333334  2.5 0.8333333333333334 0.8333333333333334  4.166666666666667 0 0  3.333333333333333 0.8333333333333334 0  4.166666666666667 0.8333333333333334 0  3.333333333333333 0 0.8333333333333334  4.166666666666667 0 0.8333333333333334  3.333333333333333 0.8333333333333334 0.8333333333333334  4.166666666666667 0.8333333333333334 0.8333333333333334  5 0.8333333333333334 0  5 0 0.8333333333333334  5 0.8333333333333334 0.8333333333333334  0.8333333333333334 1.666666666666667 0  0 2.5 0  0.8333333333333334 2.5 0  0 1.666666666666667 0.8333333333333334  0.8333333333333334 1.666666666666667 0.8333333333333334  0 2.5 0.8333333333333334  0.8333333333333334 2.5 0.8333333333333334  2.5 1.666666666666667 0  1.666666666666667 2.5 0  2.5 2.5 0  1.666666666666667 1.666666666666667 0.8333333333333334  2.5 1.666666666666667 0.8333333333333334  1.666666666666667 2.5 0.8333333333333334  2.5 2.5 0.8333333333333334  4.166666666666667 1.666666666666667 0  3.333333333333333 2.5 0  4.166666666666667 2.5 0  3.333333333333333 1.666666666666667 0.8333333333333334  4.166666666666667 1.666666666666667 0.8333333333333334  3.333333333333333 2.5 0.8333333333333334  4.166666666666667 2.5 0.8333333333333334  5 2.5 0  5 1.666666666666667 0.8333333333333334  5 2.5 0.8333333333333334  0.8333333333333334 3.333333333333333 0  0 4.166666666666667 0  0.8333333333333334 4.166666666666667 0  0 3.333333333333333 0.8333333333333334  0.8333333333333334 3.333333333333333 0.8333333333333334  0 4.166666666666667 0.8333333333333334  0.8333333333333334 4.166666666666667 0.8333333333333334  2.5 3.333333333333333 0  1.666666666666667 4.166666666666667 0  2.5 4.166666666666667 0  1.666666666666667 3.333333333333333 0.8333333333333334  2.5 3.333333333333333 0.8333333333333334  1.666666666666667 4.166666666666667 0.8333333333333334  2.5 4.166666666666667 0.8333333333333334  4.166666666666667 3.333333333333333 0  3.333333333333333 4.166666666666667 0  4.166666666666667 4.166666666666667 0  3.333333333333333 3.333333333333333 0.8333333333333334  4.166666666666667 3.333333333333333 0.8333333333333334  3.333333333333333 4.166666666666667 0.8333333333333334  4.166666666666667 4.166666666666667 0.8333333333333334  5 4.166666666666667 0  5 3.333333333333333 0.8333333333333334  5 4.166666666666667 0.8333333333333334  0.8333333333333334 5 0  0 5 0.8333333333333334  0.8333333333333334 5 0.8333333333333334  2.5 5 0  1.666666666666667 5 0.8333333333333334  2.5 5 0.8333333333333334  4.166666666666667 5 0  3.333333333333333 5 0.8333333333333334  4.166666666666667 5 0.8333333333333334  5 5 0.8333333333333334  0.8333333333333334 0 1.666666666666667  0 0.8333333333333334 1.666666666666667  0.8333333333333334 0.8333333333333334 1.666666666666667  0 0 2.5  0.8333333333333334 0 2.5  0 0.8333333333333334 2.5  0.8333333333333334 0.8333333333333334 2.5  2.5 0 1.666666666666667  1.666666666666667 0.8333333333333334 1.666666666666667  2.5 0.8333333333333334 1.666666666666667  1.666666666666667 0 2.5  2.5 0 2.5  1.666666666666667 0.8333333333333334 2.5  2.5 0.8333333333333334 2.5  4.166666666666667 0 1.666666666666667  3.333333333333333 0.8333333333333334 1.666666666666667  4.166666666666667 0.8333333333333334 1.666666666666667  3.333333333333333 0 2.5  4.166666666666667 0 2.5  3.333333333333333 0.8333333333333334 2.5  4.166666666666667 0.8333333333333334 2.5  5 0.8333333333333334 1.666666666666667  5 0 2.5  5 0.8333333333333334 2.5  0.8333333333333334 1.666666666666667 1.666666666666667  0 2.5 1.666666666666667  0.8333333333333334 2.5 1.666666666666667  0 1.666666666666667 2.5  0.8333333333333334 1.666666666666667 2.5  0 2.5 2.5  0.8333333333333334 2.5 2.5  2.5 1.666666666666667 1.666666666666667  1.666666666666667 2.5 1.666666666666667  2.5 2.5 1.666666666666667  1.666666666666667 1.666666666666667 2.5  2.5 1.666666666666667 2.5  1.666666666666667 2.5 2.5  2.5 2.5 2.5  4.166666666666667 1.666666666666667 1.666666666666667  3.333333333333333 2.5 1.666666666666667  4.166666666666667 2.5 1.666666666666667  3.333333333333333 1.666666666666667 2.5  4.166666666666667 1.666666666666667 2.5  3.333333333333333 2.5 2.5  4.166666666666667 2.5 2.5  5 2.5 1.666666666666667  5 1.666666666666667 2.5  5 2.5 2.5  0.8333333333333334 3.333333333333333 1.666666666666667  0 4.166666666666667 1.666666666666667  0.8333333333333334 4.166666666666667 1.666666666666667  0 3.333333333333333 2.5  0.8333333333333334 3.333333333333333 2.5  0 4.166666666666667 2.5  0.8333333333333334 4.166666666666667 2.5  2.5 3.333333333333333 1.666666666666667  1.666666666666667 4.166666666666667 1.666666666666667  2.5 4.166666666666667 1.666666666666667  1.666666666666667 3.333333333333333 2.5  2.5 3.333333333333333 2.5  1.666666666666667 4.166666666666667 2.5  2.5 4.166666666666667 2.5  4.166666666666667 3.333333333333333 1.666666666666667  3.333333333333333 4.166666666666667 1.666666666666667  4.166666666666667 4.166666666666667 1.666666666666667  3.333333333333333 3.333333333333333 2.5  4.166666666666667 3.333333333333333 2.5  3.333333333333333 4.166666666666667 2.5  4.166666666666667 4.166666666666667 2.5  5 4.166666666666667 1.666666666666667  5 3.333333333333333 2.5  5 4.166666666666667 2.5  0.8333333333333334 5 1.666666666666667  0 5 2.5  0.8333333333333334 5 2.5  2.5 5 1.666666666666667  1.666666666666667 5 2.5  2.5 5 2.5  4.166666666666667 5 1.666666666666667  3.333333333333333 5 2.5  4.166666666666667 5 2.5  5 5 2.5  0.8333333333333334 0 3.333333333333333  0 0.8333333333333334 3.333333333333333  0.8333333333333334 0.8333333333333334 3.333333333333333  0 0 4.166666666666667  0.8333333333333334 0 4.166666666666667  0 0.8333333333333334 4.166666666666667  0.8333333333333334 0.8333333333333334 4.166666666666667  2.5 0 3.333333333333333  1.666666666666667 0.8333333333333334 3.333333333333333  2.5 0.8333333333333334 3.333333333333333  1.666666666666667 0 4.166666666666667  2.5 0 4.166666666666667  1.666666666666667 0.8333333333333334 4.166666666666667  2.5 0.8333333333333334 4.166666666666667  4.166666666666667 0 3.333333333333333  3.333333333333333 0.8333333333333334 3.333333333333333  4.166666666666667 0.8333333333333334 3.333333333333333  3.333333333333333 0 4.166666666666667  4.166666666666667 0 4.166666666666667  3.333333333333333 0.8333333333333334 4.166666666666667  4.166666666666667 0.8333333333333334 4.166666666666667  5 0.8333333333333334 3.333333333333333  5 0 4.166666666666667  5 0.8333333333333334 4.166666666666667  0.8333333333333334 1.666666666666667 3.333333333333333  0 2.5 3.333333333333333  0.8333333333333334 2.5 3.333333333333333  0 1.666666666666667 4.166666666666667  0.8333333333333334 1.666666666666667 4.166666666666667  0 2.5 4.166666666666667  0.8333333333333334 2.5 4.166666666666667  2.5 1.666666666666667 3.333333333333333  1.666666666666667 2.5 3.333333333333333  2.5 2.5 3.333333333333333  1.666666666666667 1.666666666666667 4.166666666666667  2.5 1.666666666666667 4.166666666666667  1.666666666666667 2.5 4.166666666666667  2.5 2.5 4.166666666666667  4.166666666666667 1.666666666666667 3.333333333333333  3.333333333333333 2.5 3.333333333333333  4.166666666666667 2.5 3.333333333333333  3.333333333333333 1.666666666666667 4.166666666666667  4.166666666666667 1.666666666666667 4.166666666666667  3.333333333333333 2.5 4.166666666666667  4.166666666666667 2.5 4.166666666666667  5 2.5 3.333333333333333  5 1.66666666
[...]
<CellData  Scalars="f">
<DataArray  type="Float64"  Name="f"  format="ascii">3 3 3 3 1 3 3 3 1 3 3 3 3 3 3 3 3 3 3 3 3 3 3 3 3 3 3 3 3 3 3 3 3 3 3 3 3 3 3 3 3 3 3 3 3 3 3 3 3 3 3 3 3 3 3 3 3 3 3 3 3 3 3 3 3 3 2 2 3 1 3 3 3 3 1 3 3 3 3 3 3 3 1 3 3 3 1 3 3 3 3 3 3 3 3 3 3 3 3 3 3 3 3 3 3 3 3 3 3 3 3 3 3 3 3 3 3 3 3 3 3 3 3 3 3 3 3 3 3 3 3 3 3 3 3 3 3 3 3 3 3 3 3 3 3 3 3 3 3 3 3 3 3 3 3 3 3 3 3 3 3 3 3 3 3 3 3 3 3 3 3 3 3 3 3 3 3 3 2 2 3 3 3 3 3 3 3 3 3 3 2 2 3 1 3 3 3 3 1 3 3 3 3 3 3 3 1 3 3 3 1 3 3 3 3 3 3 3 3 3 3 3 3 3 3 3 3 3 3 3 3 3 3 3 3 3 3 3 3 3 3 3 3 3 3 3 3 3 3 3 3 3 3 3 3 3 3 3 3 3 3 3 3 3 3 3 3 3 3 3 3 3 3 3 3 3 3 3 3 3 3 3 3 3 3 3 3 3 3 3 3 3 3 3 3 3 3 3 3 3 3 3 2 2 3 3 3 3 3 3 3 3 3 3 2 2 3 1 3 3 3 3 1 3 3 3 3 3 3 3 3 3 3 3 3 3 3 3 3 3 3 3 3 3 3 3 3 3 3 3 3 3 3 3 3 3 3 3 3 3 3 3 3 3 3 3 3 3 3 3 3 3 3 3 3 3 3 3 3 3 2 2 3 3 3 1 3 3 3 3 1 3 3 3 3 3 3 3 1 3 3 3 1 3 3 3 3 3 3 3 3 3 3 3 3 3 3 3 3 3 3 3 3 3 3 3 3 3 3 3 3 3 3 3 3 3 3 3 3 3 3 3 3 3 3 3 3 3 3 3 3 3 3 3 3 3 3 3 3 3 3 3 3 3 3 3 3 3 3 3 3 3 3 3 3 3 3 3 3 3 3 3 3 3 3 3 3 3 3 3 3 3 3 3 2 2 3 3 3 3 3 3 3 3 3 3 2 2 3 1 1 3 3 3 3 3 3 1 3 3 3 3 1 3 3 3 3 1 3 3 3 3 1 3 3 3 3 3 3 3 1 3 3 3 1 3 3 3 3 3 3 3 3 3 3 3 3 3 3 3 3 3 3 3 3 3 3 3 3 3 3 3 3 3 3 3 3 3 3 3 3 3 3 3 3 3 3 3 3 3 3 3 3 3 3 3 3 3 3 3 3 3 3 3 3 3 3 3 3 3 3 3 3 3 3 3 3 3 3 3 3 3 3 3 3 3 3 3 3 3 3 3 3 3 3 3 3 3 3 3 3 3 3 3 3 3 3 3 3 3 3 3 3 3 3 3 3 3 3 3 3 3 3 3 3 3 3 3 3 3 3 3 3 3 3 3 3 3 3 3 3 3 3 3 3 3 3 3 3 3 3 3 3 3 3 3 3 3 2 2 3 3 3 3 3 3 3 3 2 2 3 3 3 3 3 3 3 3 2 2 3 3 3 3 3 3 3 3 3 3 2 2 3 1 1 3 3 3 3 3 3 1 3 3 3 3 1 3 3 3 3 1 3 3 3 3 1 3 3 3 3 3 3 3 1 3 3 3 1 3 3 3 3 3 3 3 3 3 3 3 3 3 3 3 3 3 3 3 3 3 3 3 3 3 3 3 3 3 3 3 3 3 3 3 3 3 3 3 3 3 3 3 3 3 3 3 3 3 3 3 3 3 3 3 3 3 3 3 3 3 3 3 3 3 3 3 3 3 3 3 3 3 3 3 3 3 3 3 3 3 3 3 3 3 3 3 3 3 3 3 3 3 3 3 3 3 3 3 3 3 3 3 3 3 3 3 3 3 3 3 3 3 3 3 3 3 3 3 3 3 3 3 3 3 3 3 3 3 3 3 3 3 3 3 3 3 3 3 3 3 3 3 3 3 3 3 3 3 3 3 3 3 2 2 3 3 3 3 3 3 3 3 2 2 3 3 3 3 3 3 3 3 2 2 3 3 3 3 3 3 3 3 3 3 2 2 3 1 1 3 3 3 3 3 3 3 3 1 3 3 3 3 1 3 3 3 3 3 3 3 3 3 3 3 3 3 3 3 3 3 3 3 3 3 3 3 3 3 3 3 3 3 3 3 3 3 3 3 3 3 3 3 3 3 3 3 3 3 3 3 3 3 3 3 3 3 3 3 3 3 3 3 3 3 3 3 3 3 3 3 3 3 3 3 3 3 3 3 3 3 3 3 3 3 3 3 3 3 3 3 3 3 3 3 2 2 3 3 3 3 3 3 3 3 3 3 2 2 3 3 3 1 3 3 3 3 1 3 3 3 3 3 3 3 1 3 3 3 1 3 3 3 3 3 3 3 3 3 3 3 3 3 3 3 3 3 3 3 3 3 3 3 3 3 3 3 3 3 3 3 3 3 3 3 3 3 3 3 3 3 3 3 3 3 3 3 3 3 3 3 3 3 3 3 3 3 3 3 3 3 3 3 3 3 3 3 3 3 3 3 3 3 3 3 3 3 3 3 3 3 3 3 3 3 3 3 3 3 3 3 2 2 3 3 3 3 3 3 3 3 3 3 2 2 3 1 1 3 3 3 3 3 3 1 3 3 3 3 1 3 3 3 3 1 3 3 3 3 1 3 3 3 3 3 3 3 1 3 3 3 1 3 3 3 3 3 3 3 3 3 3 3 3 3 3 3 3 3 3 3 3 3 3 3 3 3 3 3 3 3 3 3 3 3 3 3 3 3 3 3 3 3 3 3 3 3 3 3 3 3 3 3 3 3 3 3 3 3 3 3 3 3 3 3 3 3 3 3 3 3 3 3 3 3 3 3 3 3 3 3 3 3 3 3 3 3 3 3 3 3 3 3 3 3 3 3 3 3 3 3 3 3 3 3 3 3 3 3 3 3 3 3 3 3 3 3 3 3 3 3 3 3 3 3 3 3 3 3 3 3 3 3 3 3 3 3 3 3 3 3 3 3 3 3 3 3 3 3 3 3 3 3 3 3 2 2 3 3 3 3 3 3 3 3 2 2 3 3 3 3 3 3 3 3 2 2 3 3 3 3 3 3 3 3 3 3 2 2 3 1 1 3 3 3 3 3 3 1 3 3 3 3 1 3 3 3 3 1 3 3 3 3 1 3 3 3 3 3 3 3 1 3 3 3 1 3 3 3 3 3 3 3 3 3 3 3 3 3 3 3 3 3 3 3 3 3 3 3 3 3 3 3 3 3 3 3 3 3 3 3 3 3 3 3 3 3 3 3 3 3 3 3 3 3 3 3 3 3 3 3 3 3 3 3 3 3 3 3 3 3 3 3 3 3 3 3 3 3 3 3 3 3 3 3 3 3 3 3 3 3 3 3 3 3 3 3 3 3 3 3 3 3 3 3 3 3 3 3 3 3 3 3 3 3 3 3 3 3 3 3 3 3 3 3 3 3 3 3 3 3 3 3 3 3 3 3 3 3 3 3 3 3 3 3 3 3 3 3 3 3 3 3 3 3 3 3 3 3 2 2 3 3 3 3 3 3 3 3 2 2 3 3 3 3 3 3 3 3 2 2 3 3 3 3 3 3 3 3 3 3 2 2 3 1 1 3 3 3 3 3 3 3 3 1 3 3 3 3 1 3 3 3 3 3 3 3 3 3 3 3 3 3 3 3 3 3 3 3 3 3 3 3 3 3 3 3 3 3 3 3 3 3 3 3 3 3 3 3 3 3 3 3 3 3 3 3 3 3 3 3 3 3 3 3 3 3 3 3 3 3 3 3 3 3 3 3 3 3 3 3 3 3 3 3 3 3 3 3 3 3 3 3 3 3 3 3 3 3 3 3 2 2 3 3 3 3 3 3 3 3 3 3 2 2 3 3 3 1 3 3 3 3 1 3 3 3 3 3 3 3 3 3 3 3 3 3 3 3 3 3 3 3 3 3 3 3 3 3 3 3 3 3 3 3 3 3 3 3 3 3 3 3 3 3 3 3 3 3 3 3 3 3 3 3 3 3 3 3 3 3 2 2 3 3 3 1 1 3 3 3 3 3 3 1 3 3 3 3 1 3 3 3 3 3 3 3 3 3 3 3 3 3 3 3 3 3 3 3 3 3 3 3 3 3 3 3 3 3 3 3 3 3 3 3 3 3 3 3 3 3 3 3 3 3 3 3 3 3 3 3 3 3 3 3 3 3 3 3 3 3 3 3 3 3 3 3 3 3 3 3 3 3 3 3 3 3 3 3 3 3 3 3 3 3 3 3 3 3 3 3 3 3 2 2 3 3 3 3 3 3 3 3 2 2 3 3 3 3 3 1 1 3 3 3 3 3 3 1 3 3 3 3 1 3 3 3 3 3 3 3 3 3 3 3 3 3 3 3 3 3 3 3 3 3 3 3 3 3 3 3 3 3 3 3 3 3 3 3 3 3 3 3 3 3 3 3 3 3 3 3 3 3 3 3 3 3 3 3 3 3 3 3 3 3 3 3 3 3 3 3 3 3 3 3 3 3 3 3 3 3 3 3 3 3 3 3 3 3 3 3 3 3 3 3 3 3 2 2 3 3 3 3 3 3 3 3 2 2 3 3 3 3 3 1 1 3 3 3 3 3 3 3 3 3 3 3 3 3 3 3 3 3 3 3 3 3 3 3 3 3 3 3 3 3 3 3 3 3 3 3 3 3 3 3 3 3 3 3 3 3 3 3 3 3 3 3 3 3 3 3 3 3 3 3 2 2 3 3 3 3 3 3 3 3 3 3 3 3 3 3 3 3 3 3 3 3 3 3 3 3 3 3 3 3 3 3 3 3 3 3 3 3 3 3 3 3 3 3 3 3 3 3 3 3 3 3 3 3 3 3 3 3 3 3 3 3 3 3 3 3 3 3 3 3 3 3 3 3 3 3 3 3 3 3 3 3 3 3 3 3 3 3 3 3 3 3 3 3 3 3 3 3 3 3 3 3 3 3 3 3 3 3 3 3 3 3 3 3 3 3 3 3 3 3 3 3 3 3 3 3 3 3 3 3 3 3 3 3 3 3 3 3 3 3 3 3 3 3 3 3 3 3 3 3 3 3 3 3 3 3 3 3 3 3 3 3 3 3 3 3 3 3 3 3 3 3 3 3 3 3 3 3 3 3 3 3 3 3 3 3 3 3 3 3 3 3 3 3 3 3 3 3 3 3 3 3 3 3 3 3 3 3 3 3 3 3 3 3 3 3 3 3 3 3 3 3 3 3 3 3 3 3 3 3 3 3 3 3 3 3 3 3 3 3 3 3 3 3 3 3 3 3 3 3 3 3 3 3 3 3 3 3 3 3 3 3 3 3 3 3 3 3 3 3 3 3 3 3 3 3 3 3 3 3 3 3 3 3 3 3 3 3 3 3 3 3 3 3 3 3 3 3 3 3 3 3 3 3 3 3 3 3 3 3 3 3 3 3 3 3 3 3 3 3 3 3 3 3 3 3 3 3 3 3 3 3 3 3 3 3 3 3 3 3 3 3 3 3 3 3 3 3 3 3 3 3 3 3 3 3 3 3 3 3 3 3 3 3 3 3 3 3 3 3 3 3 3 3 3 3 3 3 3 3 3 3 3 3 3 3 3 3 3 3 3 3 3 3 3 3 3 3 3 3 3 3 3 3 3 3 3 3 3 3 3 3 3 3 3 3 3 3 3 3 3 3 3 3 3 3 3 3 3 3 3 3 3 3 3 3 3 3 3 3 3 3 3 3 3 3 3 3 3 3 3 3 3 3 3 3 3 3 3 3 3 3 3 3 3 3 3 3 3 3 3 3 3 3 3 3 3 3 3 3 3 3 3 3 3 3 3 3 3 3 3 3 3 3 3 3 3 3 3 3 3 3 3 3 3 3 3 3 3 3 3 3 3 3 3 3 3 3 3 3 3 3 3 3 3 3 3 3 3 3 3 3 3 3 3 3 3 3 3 3 3 3 3 3 3 3 3 3 3 3 3 3 3 3 3 3 3 3 3 3 3 3 3 3 3 3 3 3 3 3 3 3 3 3 3 3 3 3 3 3 3 3 3 3 3 3 3 3 3 3 3 3 3 3 3 3 3 3 3 3 3 3 3 3 3 3 3 3 3 3 3 3 3 3 3 3 3 3 3 3 3 3 3 3 3 3 3 3 3 3 3 3 3 3 3 3 3 3 3 3 3 3 3 3 3 3 3 3 3 3 3 3 3 3 </DataArray>
</CellData>
</Piece>
</UnstructuredGrid>
</VTKFile>