<?xml version="1.0"?>
<VTKFile type="UnstructuredGrid"  version="0.1"  >
<UnstructuredGrid>
<Piece  NumberOfPoints="55" NumberOfCells="311">
<Points>
<DataArray  type="Float64"  NumberOfComponents="3"  format="ascii">0 3.333333333333333 3.333333333333333  0.8333333333333334 3.333333333333333 3.333333333333333  0.8333333333333334 2.5 3.333333333333333  0.8333333333333334 2.5 2.5  0 2.5 3.333333333333333  0 2.5 2.5  1.666666666666667 3.333333333333333 3.333333333333333  1.666666666666667 3.333333333333333 4.166666666666667  1.666666666666667 2.5 4.166666666666667  0.8333333333333334 2.5 4.166666666666667  1.666666666666667 3.333333333333333 5  0.8333333333333334 3.333333333333333 4.166666666666667  0 3.333333333333333 5  0.8333333333333334 3.333333333333333 5  0.8333333333333334 2.5 5  0 2.5 5  0 2.5 4.166666666666667  0 3.333333333333333 4.166666666666667  0.8333333333333334 4.166666666666667 4.166666666666667  0.8333333333333334 4.166666666666667 3.333333333333333  1.666666666666667 4.166666666666667 4.166666666666667  1.666666666666667 4.166666666666667 3.333333333333333  1.666666666666667 5 3.333333333333333  1.666666666666667 5 4.166666666666667  1.666666666666667 5 5  1.666666666666667 4.166666666666667 5  0.8333333333333334 4.166666666666667 5  0 4.166666666666667 3.333333333333333  0 5 3.333333333333333  0.8333333333333334 5 4.166666666666667  0.8333333333333334 5 3.333333333333333  0 4.166666666666667 4.166666666666667  0 4.166666666666667 5  0 5 5  0.8333333333333334 5 5  0 5 4.166666666666667  0 3.333333333333333 1.666666666666667  0.8333333333333334 3.333333333333333 2.5  0 3.333333333333333 2.5  0.8333333333333334 4.166666666666667 2.5  0 4.166666666666667 2.5  0 5 1.666666666666667  0.8333333333333334 5 2.5  0 5 2.5  2.5 3.333333333333333 4.166666666666667  2.5 2.5 4.166666666666667  2.5 3.333333333333333 5  3.333333333333333 3.333333333333333 5  2.5 4.166666666666667 4.166666666666667  2.5 4.166666666666667 5  3.333333333333333 4.166666666666667 5  3.333333333333333 5 5  2.5 5 5  2.5 5 4.166666666666667  2.5 2.5 5  </DataArray>
</Points>
<Cells>
<DataArray  type="UInt32"  Name="connectivity"  format="ascii">0 2 1  0 3 1  0 9 1  0 1 11  0 1 18  0 1 19  0 1 37  0 1 39  0 3 2  0 2 4  0 2 9  0 3 4  0 3 5  0 3 37  0 3 38  0 5 4  0 4 9  0 4 16  0 5 38  0 9 11  0 9 16  0 9 17  0 11 17  0 11 18  0 16 17  0 17 18  0 17 31  0 19 18  0 18 27  0 18 31  0 19 27  0 19 39  0 27 31  0 27 39  0 27 40  0 37 38  0 37 39  0 38 39  0 38 40  0 39 40  3 2 1  6 2 1  2 9 1  6 3 1  3 1 37  6 9 1  6 1 11  6 1 18  6 1 19  6 1 37  6 1 39  9 1 11  1 11 18  1 19 18  1 19 39  1 37 39  3 2 4  6 3 2  2 4 9  6 2 9  3 5 4  36 3 5  3 5 38  6 3 37  36 3 37  36 3 38  3 37 38  4 9 16  36 5 38  6 8 7  6 9 7  6 7 11  6 7 18  6 7 20  6 7 44  6 7 45  6 7 48  6 8 9  6 8 45  6 9 11  6 11 18  6 19 18  6 20 18  6 21 18  6 21 19  6 19 39  6 21 20  6 20 48  6 21 39  6 21 48  6 37 39  6 44 45  6 44 48  8 9 7  10 8 7  8 7 45  10 9 7  9 7 11  10 7 11  10 7 18  10 7 20  10 7 44  10 7 45  10 7 48  7 11 18  7 20 18  7 20 48  7 44 45  7 44 48  10 8 9  10 8 45  10 9 11  10 9 13  10 9 14  12 9 11  9 11 13  9 11 17  12 9 13  12 9 14  12 9 15  12 9 16  12 9 17  9 14 13  9 14 15  9 16 15  9 16 17  10 11 13  10 11 18  10 14 13  10 18 13  10 13 26  10 20 18  10 18 25  10 18 26  10 20 25  10 20 48  10 25 26  10 25 48  10 25 49  10 44 45  10 44 46  10 44 48  10 45 46  10 45 54  10 48 46  10 46 49  10 46 54  10 48 49  12 11 13  12 11 17  12 11 18  11 18 13  11 17 18  12 14 13  12 18 13  12 13 26  12 14 15  12 16 15  12 16 17  12 17 18  12 17 31  12 18 26  12 18 31  12 18 32  12 26 32  12 31 32  18 13 26  17 18 31  21 19 18  22 19 18  19 18 27  28 19 18  19 18 30  21 20 18  22 20 18  20 18 23  24 20 18  20 18 25  22 21 18  22 18 23  22 18 29  22 18 30  24 18 23  18 23 29  24 18 25  24 18 26  24 18 29  24 18 34  18 25 26  18 26 32  33 18 26  18 26 34  28 18 27  18 27 31  28 18 29  28 18 30  28 18 31  28 18 35  18 30 29  33 18 29  18 29 34  18 29 35  18 31 32  33 18 31  18 31 35  33 18 32  33 18 34  33 18 35  22 21 19  21 19 39  22 19 30  22 19 39  28 19 27  19 27 39  28 19 30  28 19 39  19 30 39  22 21 20  21 20 48  22 20 23  22 20 48  24 20 23  20 23 48  24 20 25  24 20 48  20 25 48  22 21 39  22 21 48  22 23 29  22 23 48  22 23 53  22 30 29  22 30 39  22 30 42  22 39 42  22 48 53  24 23 29  24 23 48  24 23 53  23 48 53  24 25 26  24 25 48  24 25 49  24 26 34  24 29 34  24 48 49  24 48 52  24 48 53  24 49 52  24 53 52  25 48 49  33 26 32  33 26 34  28 27 31  28 27 39  28 27 40  27 39 40  28 30 29  28 29 35  28 30 39  28 30 42  28 31 35  28 39 40  28 39 42  28 39 43  28 40 43  28 42 43  33 29 34  33 29 35  30 39 42  33 31 32  33 31 35  36 37 38  36 37 39  36 38 39  36 38 40  36 39 40  37 38 39  38 39 40  41 39 40  39 40 43  41 39 42  41 39 43  39 42 43  41 40 43  41 42 43  44 45 46  47 44 45  47 44 46  44 48 46  47 44 48  47 45 46  45 46 54  47 45 54  47 48 46  47 46 49  47 46 54  48 46 49  47 48 49  47 48 50  47 50 49  48 50 49  51 48 49  48 49 52  51 48 50  51 48 52  51 48 53  48 53 52  51 50 49  51 49 52  51 53 52  </DataArray>
<DataArray  type="UInt32"  Name="offsets"  format="ascii">3 6 9 12 15 18 21 24 27 30 33 36 39 42 45 48 51 54 57 60 63 66 69 72 75 78 81 84 87 90 93 96 99 102 105 108 111 114 117 120 123 126 129 132 135 138 141 144 147 150 153 156 159 162 165 168 171 174 177 180 183 186 189 192 195 198 201 204 207 210 213 216 219 222 225 228 231 234 237 240 243 246 249 252 255 258 261 264 267 270 273 276 279 282 285 288 291 294 297 300 303 306 309 312 315 318 321 324 327 330 333 336 339 342 345 348 351 354 357 360 363 366 369 372 375 378 381 384 387 390 393 396 399 402 405 408 411 414 417 420 423 426 429 432 435 438 441 444 447 450 453 456 459 462 465 468 471 474 477 480 483 486 489 492 495 498 501 504 507 510 513 516 519 522 525 528 531 534 537 540 543 546 549 552 555 558 561 564 567 570 573 576 579 582 585 588 591 594 597 600 603 606 609 612 615 618 621 624 627 630 633 636 639 642 645 648 651 654 657 660 663 666 669 672 675 678 681 684 687 690 693 696 699 702 705 708 711 714 717 720 723 726 729 732 735 738 741 744 747 750 753 756 759 762 765 768 771 774 777 780 783 786 789 792 795 798 801 804 807 810 813 816 819 822 825 828 831 834 837 840 843 846 849 852 855 858 861 864 867 870 873 876 879 882 885 888 891 894 897 900 903 906 909 912 915 918 921 924 927 930 933 </DataArray>
<DataArray  type="UInt8"  Name="types"  format="ascii">5 5 5 5 5 5 5 5 5 5 5 5 5 5 5 5 5 5 5 5 5 5 5 5 5 5 5 5 5 5 5 5 5 5 5 5 5 5 5 5 5 5 5 5 5 5 5 5 5 5 5 5 5 5 5 5 5 5 5 5 5 5 5 5 5 5 5 5 5 5 5 5 5 5 5 5 5 5 5 5 5 5 5 5 5 5 5 5 5 5 5 5 5 5 5 5 5 5 5 5 5 5 5 5 5 5 5 5 5 5 5 5 5 5 5 5 5 5 5 5 5 5 5 5 5 5 5 5 5 5 5 5 5 5 5 5 5 5 5 5 5 5 5 5 5 5 5 5 5 5 5 5 5 5 5 5 5 5 5 5 5 5 5 5 5 5 5 5 5 5 5 5 5 5 5 5 5 5 5 5 5 5 5 5 5 5 5 5 5 5 5 5 5 5 5 5 5 5 5 5 5 5 5 5 5 5 5 5 5 5 5 5 5 5 5 5 5 5 5 5 5 5 5 5 5 5 5 5 5 5 5 5 5 5 5 5 5 5 5 5 5 5 5 5 5 5 5 5 5 5 5 5 5 5 5 5 5 5 5 5 5 5 5 5 5 5 5 5 5 5 5 5 5 5 5 5 5 5 5 5 5 5 5 5 5 5 5 5 5 5 5 5 5 5 5 5 5 5 5 5 5 5 5 5 5 5 5 5 5 5 5 </DataArray>
</Cells>
<CellData  Scalars="f">
<DataArray  type="Float64"  Name="f"  format="ascii">3 3 3 3 3 3 3 3 3 3 3 3 3 3 3 1 3 1 1 3 3 3 3 3 1 3 1 3 3 3 3 3 1 3 1 3 3 3 1 3 3 3 3 3 3 3 3 3 3 3 3 3 3 3 3 3 3 3 3 3 3 3 3 3 3 3 3 3 1 3 3 3 3 3 3 3 3 3 3 3 3 3 3 3 3 3 3 3 3 3 3 3 3 3 3 3 3 3 3 3 3 3 3 3 3 3 3 3 3 3 3 3 3 3 3 3 3 3 3 3 3 3 3 3 3 3 3 3 3 3 3 3 3 3 3 3 3 3 3 3 3 3 3 3 3 3 3 3 3 3 3 3 3 3 3 3 3 1 1 3 1 3 3 3 3 1 3 3 3 3 3 3 3 3 3 3 3 3 3 3 3 3 3 3 3 3 3 3 3 3 3 3 3 3 3 3 3 3 3 3 3 3 3 3 3 3 3 3 3 3 3 3 3 3 3 3 3 3 3 3 3 3 3 3 3 3 3 3 3 3 3 3 3 3 3 3 3 3 3 3 3 3 3 3 3 3 3 3 3 3 3 3 3 1 3 1 3 3 3 3 3 1 3 3 3 1 3 3 3 3 1 1 3 3 3 1 3 3 3 3 3 3 3 3 1 3 3 3 3 3 3 3 3 3 3 3 3 3 3 3 3 3 3 3 3 3 3 3 3 3 3 </DataArray>
</CellData>
</Piece>
</UnstructuredGrid>
</VTKFile>