<?xml version="1.0"?>
<VTKFile type="UnstructuredGrid"  version="0.1"  >
<UnstructuredGrid>
<Piece  NumberOfPoints="1331" NumberOfCells="6000">
<Points>
<DataArray  type="Float64"  NumberOfComponents="3"  format="ascii">0 0 0  1 0 0  2 0 0  3 0 0  4 0 0  5 0 0  0 1 0  1 1 0  2 1 0  3 1 0  4 1 0  5 1 0  0 2 0  1 2 0  2 2 0  3 2 0  4 2 0  5 2 0  0 3 0  1 3 0  2 3 0  3 3 0  4 3 0  5 3 0  0 4 0  1 4 0  2 4 0  3 4 0  4 4 0  5 4 0  0 5 0  1 5 0  2 5 0  3 5 0  4 5 0  5 5 0  0 0 1  1 0 1  2 0 1  3 0 1  4 0 1  5 0 1  0 1 1  1 1 1  2 1 1  3 1 1  4 1 1  5 1 1  0 2 1  1 2 1  2 2 1  3 2 1  4 2 1  5 2 1  0 3 1  1 3 1  2 3 1  3 3 1  4 3 1  5 3 1  0 4 1  1 4 1  2 4 1  3 4 1  4 4 1  5 4 1  0 5 1  1 5 1  2 5 1  3 5 1  4 5 1  5 5 1  0 0 2  1 0 2  2 0 2  3 0 2  4 0 2  5 0 2  0 1 2  1 1 2  2 1 2  3 1 2  4 1 2  5 1 2  0 2 2  1 2 2  2 2 2  3 2 2  4 2 2  5 2 2  0 3 2  1 3 2  2 3 2  3 3 2  4 3 2  5 3 2  0 4 2  1 4 2  2 4 2  3 4 2  4 4 2  5 4 2  0 5 2  1 5 2  2 5 2  3 5 2  4 5 2  5 5 2  0 0 3  1 0 3  2 0 3  3 0 3  4 0 3  5 0 3  0 1 3  1 1 3  2 1 3  3 1 3  4 1 3  5 1 3  0 2 3  1 2 3  2 2 3  3 2 3  4 2 3  5 2 3  0 3 3  1 3 3  2 3 3  3 3 3  4 3 3  5 3 3  0 4 3  1 4 3  2 4 3  3 4 3  4 4 3  5 4 3  0 5 3  1 5 3  2 5 3  3 5 3  4 5 3  5 5 3  0 0 4  1 0 4  2 0 4  3 0 4  4 0 4  5 0 4  0 1 4  1 1 4  2 1 4  3 1 4  4 1 4  5 1 4  0 2 4  1 2 4  2 2 4  3 2 4  4 2 4  5 2 4  0 3 4  1 3 4  2 3 4  3 3 4  4 3 4  5 3 4  0 4 4  1 4 4  2 4 4  3 4 4  4 4 4  5 4 4  0 5 4  1 5 4  2 5 4  3 5 4  4 5 4  5 5 4  0 0 5  1 0 5  2 0 5  3 0 5  4 0 5  5 0 5  0 1 5  1 1 5  2 1 5  3 1 5  4 1 5  5 1 5  0 2 5  1 2 5  2 2 5  3 2 5  4 2 5  5 2 5  0 3 5  1 3 5  2 3 5  3 3 5  4 3 5  5 3 5  0 4 5  1 4 5  2 4 5  3 4 5  4 4 5  5 4 5  0 5 5  1 5 5  2 5 5  3 5 5  4 5 5  5 5 5  0.5 0 0  0 0.5 0  0.5 0.5 0  0 0 0.5  0.5 0 0.5  0 0.5 0.5  0.5 0.5 0.5  1.5 0 0  1 0.5 0  1.5 0.5 0  1 0 0.5  1.5 0 0.5  1 0.5 0.5  1.5 0.5 0.5  2.5 0 0  2 0.5 0  2.5 0.5 0  2 0 0.5  2.5 0 0.5  2 0.5 0.5  2.5 0.5 0.5  3.5 0 0  3 0.5 0  3.5 0.5 0  3 0 0.5  3.5 0 0.5  3 0.5 0.5  3.5 0.5 0.5  4.5 0 0  4 0.5 0  4.5 0.5 0  4 0 0.5  4.5 0 0.5  4 0.5 0.5  4.5 0.5 0.5  5 0.5 0  5 0 0.5  5 0.5 0.5  0.5 1 0  0 1.5 0  0.5 1.5 0  0 1 0.5  0.5 1 0.5  0 1.5 0.5  0.5 1.5 0.5  1.5 1 0  1 1.5 0  1.5 1.5 0  1 1 0.5  1.5 1 0.5  1 1.5 0.5  1.5 1.5 0.5  2.5 1 0  2 1.5 0  2.5 1.5 0  2 1 0.5  2.5 1 0.5  2 1.5 0.5  2.5 1.5 0.5  3.5 1 0  3 1.5 0  3.5 1.5 0  3 1 0.5  3.5 1 0.5  3 1.5 0.5  3.5 1.5 0.5  4.5 1 0  4 1.5 0  4.5 1.5 0  4 1 0.5  4.5 1 0.5  4 1.5 0.5  4.5 1.5 0.5  5 1.5 0  5 1 0.5  5 1.5 0.5  0.5 2 0  0 2.5 0  0.5 2.5 0  0 2 0.5  0.5 2 0.5  0 2.5 0.5  0.5 2.5 0.5  1.5 2 0  1 2.5 0  1.5 2.5 0  1 2 0.5  1.5 2 0.5  1 2.5 0.5  1.5 2.5 0.5  2.5 2 0  2 2.5 0  2.5 2.5 0  2 2 0.5  2.5 2 0.5  2 2.5 0.5  2.5 2.5 0.5  3.5 2 0  3 2.5 0  3.5 2.5 0  3 2 0.5  3.5 2 0.5  3 2.5 0.5  3.5 2.5 0.5  4.5 2 0  4 2.5 0  4.5 2.5 0  4 2 0.5  4.5 2 0.5  4 2.5 0.5  4.5 2.5 0.5  5 2.5 0  5 2 0.5  5 2.5 0.5  0.5 3 0  0 3.5 0  0.5 3.5 0  0 3 0.5  0.5 3 0.5  0 3.5 0.5  0.5 3.5 0.5  1.5 3 0  1 3.5 0  1.5 3.5 0  1 3 0.5  1.5 3 0.5  1 3.5 0.5  1.5 3.5 0.5  2.5 3 0  2 3.5 0  2.5 3.5 0  2 3 0.5  2.5 3 0.5  2 3.5 0.5  2.5 3.5 0.5  3.5 3 0  3 3.5 0  3.5 3.5 0  3 3 0.5  3.5 3 0.5  3 3.5 0.5  3.5 3.5 0.5  4.5 3 0  4 3.5 0  4.5 3.5 0  4 3 0.5  4.5 3 0.5  4 3.5 0.5  4.5 3.5 0.5  5 3.5 0  5 3 0.5  5 3.5 0.5  0.5 4 0  0 4.5 0  0.5 4.5 0  0 4 0.5  0.5 4 0.5  0 4.5 0.5  0.5 4.5 0.5  1.5 4 0  1 4.5 0  1.5 4.5 0  1 4 0.5  1.5 4 0.5  1 4.5 0.5  1.5 4.5 0.5  2.5 4 0  2 4.5 0  2.5 4.5 0  2 4 0.5  2.5 4 0.5  2 4.5 0.5  2.5 4.5 0.5  3.5 4 0  3 4.5 0  3.5 4.5 0  3 4 0.5  3.5 4 0.5  3 4.5 0.5  3.5 4.5 0.5  4.5 4 0  4 4.5 0  4.5 4.5 0  4 4 0.5  4.5 4 0.5  4 4.5 0.5  4.5 4.5 0.5  5 4.5 0  5 4 0.5  5 4.5 0.5  0.5 5 0  0 5 0.5  0.5 5 0.5  1.5 5 0  1 5 0.5  1.5 5 0.5  2.5 5 0  2 5 0.5  2.5 5 0.5  3.5 5 0  3 5 0.5  3.5 5 0.5  4.5 5 0  4 5 0.5  4.5 5 0.5  5 5 0.5  0.5 0 1  0 0.5 1  0.5 0.5 1  0 0 1.5  0.5 0 1.5  0 0.5 1.5  0.5 0.5 1.5  1.5 0 1  1 0.5 1  1.5 0.5 1  1 0 1.5  1.5 0 1.5  1 0.5 1.5  1.5 0.5 1.5  2.5 0 1  2 0.5 1  2.5 0.5 1  2 0 1.5  2.5 0 1.5  2 0.5 1.5  2.5 0.5 1.5  3.5 0 1  3 0.5 1  3.5 0.5 1  3 0 1.5  3.5 0 1.5  3 0.5 1.5  3.5 0.5 1.5  4.5 0 1  4 0.5 1  4.5 0.5 1  4 0 1.5  4.5 0 1.5  4 0.5 1.5  4.5 0.5 1.5  5 0.5 1  5 0 1.5  5 0.5 1.5  0.5 1 1  0 1.5 1  0.5 1.5 1  0 1 1.5  0.5 1 1.5  0 1.5 1.5  0.5 1.5 1.5  1.5 1 1  1 1.5 1  1.5 1.5 1  1 1 1.5  1.5 1 1.5  1 1.5 1.5  1.5 1.5 1.5  2.5 1 1  2 1.5 1  2.5 1.5 1  2 1 1.5  2.5 1 1.5  2 1.5 1.5  2.5 1.5 1.5  3.5 1 1  3 1.5 1  3.5 1.5 1  3 1 1.5  3.5 1 1.5  3 1.5 1.5  3.5 1.5 1.5  4.5 1 1  4 1.5 1  4.5 1.5 1  4 1 1.5  4.5 1 1.5  4 1.5 1.5  4.5 1.5 1.5  5 1.5 1  5 1 1.5  5 1.5 1.5  0.5 2 1  0 2.5 1  0.5 2.5 1  0 2 1.5  0.5 2 1.5  0 2.5 1.5  0.5 2.5 1.5  1.5 2 1  1 2.5 1  1.5 2.5 1  1 2 1.5  1.5 2 1.5  1 2.5 1.5  1.5 2.5 1.5  2.5 2 1  2 2.5 1  2.5 2.5 1  2 2 1.5  2.5 2 1.5  2 2.5 1.5  2.5 2.5 1.5  3.5 2 1  3 2.5 1  3.5 2.5 1  3 2 1.5  3.5 2 1.5  3 2.5 1.5  3.5 2.5 1.5  4.5 2 1  4 2.5 1  4.5 2.5 1  4 2 1.5  4.5 2 1.5  4 2.5 1.5  4.5 2.5 1.5  5 2.5 1  5 2 1.5  5 2.5 1.5  0.5 3 1  0 3.5 1  0.5 3.5 1  0 3 1.5  0.5 3 1.5  0 3.5 1.5  0.5 3.5 1.5  1.5 3 1  1 3.5 1  1.5 3.5 1  1 3 1.5  1.5 3 1.5  1 3.5 1.5  1.5 3.5 1.5  2.5 3 1  2 3.5 1  2.5 3.5 1  2 3 1.5  2.5 3 1.5  2 3.5 1.5  2.5 3.5 1.5  3.5 3 1  3 3.5 1  3.5 3.5 1  3 3 1.5  3.5 3 1.5  3 3.5 1.5  3.5 3.5 1.5  4.5 3 1  4 3.5 1  4.5 3.5 1  4 3 1.5  4.5 3 1.5  4 3.5 1.5  4.5 3.5 1.5  5 3.5 1  5 3 1.5  5 3.5 1.5  0.5 4 1  0 4.5 1  0.5 4.5 1  0 4 1.5  0.5 4 1.5  0 4.5 1.5  0.5 4.5 1.5  1.5 4 1  1 4.5 1  1.5 4.5 1  1 4 1.5  1.5 4 1.5  1 4.5 1.5  1.5 4.5 1.5  2.5 4 1  2 4.5 1  2.5 4.5 1  2 4 1.5  2.5 4 1.5  2 4.5 1.5  2.5 4.5 1.5  3.5 4 1  3 4.5 1  3.5 4.5 1  3 4 1.5  3.5 4 1.5  3 4.5 1.5  3.5 4.5 1.5  4.5 4 1  4 4.5 1  4.5 4.5 1  4 4 1.5  4.5 4 1.5  4 4.5 1.5  4.5 4.5 1.5  5 4.5 1  5 4 1.5  5 4.5 1.5  0.5 5 1  0 5 1.5  0.5 5 1.5  1.5 5 1  1 5 1.5  1.5 5 1.5  2.5 5 1  2 5 1.5  2.5 5 1.5  3.5 5 1  3 5 1.5  3.5 5 1.5  4.5 5 1  4 5 1.5  4.5 5 1.5  5 5 1.5  0.5 0 2  0 0.5 2  0.5 0.5 2  0 0 2.5  0.5 0 2.5  0 0.5 2.5  0.5 0.5 2.5  1.5 0 2  1 0.5 2  1.5 0.5 2  1 0 2.5  1.5 0 2.5  1 0.5 2.5  1.5 0.5 2.5  2.5 0 2  2 0.5 2  2.5 0.5 2  2 0 2.5  2.5 0 2.5  2 0.5 2.5  2.5 0.5 2.5  3.5 0 2  3 0.5 2  3.5 0.5 2  3 0 2.5  3.5 0 2.5  3 0.5 2.5  3.5 0.5 2.5  4.5 0 2  4 0.5 2  4.5 0.5 2  4 0 2.5  4.5 0 2.5  4 0.5 2.5  4.5 0.5 2.5  5 0.5 2  5 0 2.5  5 0.5 2.5  0.5 1 2  0 1.5 2  0.5 1.5 2  0 1 2.5  0.5 1 2.5  0 1.5 2.5  0.5 1.5 2.5  1.5 1 2  1 1.5 2  1.5 1.5 2  1 1 2.5  1.5 1 2.5  1 1.5 2.5  1.5 1.5 2.5  2.5 1 2  2 1.5 2  2.5 1.5 2  2 1 2.5  2.5 1 2.5  2 1.5 2.5  2.5 1.5 2.5  3.5 1 2  3 1.5 2  3.5 1.5 2  3 1 2.5  3.5 1 2.5  3 1.5 2.5  3.5 1.5 2.5  4.5 1 2  4 1.5 2  4.5 1.5 2  4 1 2.5  4.5 1 2.5  4 1.5 2.5  4.5 1.5 2.5  5 1.5 2  5 1 2.5  5 1.5 2.5  0.5 2 2  0 2.5 2  0.5 2.5 2  0 2 2.5  0.5 2 2.5  0 2.5 2.5  0.5 2.5 2.5  1.5 2 2  1 2.5 2  1.5 2.5 2  1 2 2.5  1.5 2 2.5  1 2.5 2.5  1.5 2.5 2.5  2.5 2 2  2 2.5 2  2.5 2.5 2  2 2 2.5  2.5 2 2.5  2 2.5 2.5  2.5 2.5 2.5  3.5 2 2  3 2.5 2  3.5 2.5 2  3 2 2.5  3.5 2 2.5  3 2.5 2.5  3.5 2.5 2.5  4.5 2 2  4 2.5 2  4.5 2.5 2  4 2 2.5  4.5 2 2.5  4 2.5 2.5  4.5 2.5 2.5  5 2.5 2  5 2 2.5  5 2.5 2.5  0.5 3 2  0 3.5 2  0.5 3.5 2  0 3 2.5  0.5 3 2.5  0 3.5 2.5  0.5 3.5 2.5  1.5 3 2  1 3.5 2  1.5 3.5 2  1 3 2.5  1.5 3 2.5  1 3.5 2.5  1.5 3.5 2.5  2.5 3 2  2 3.5 2  2.5 3.5 2  2 3 2.5  2.5 3 2.5  2 3.5 2.5  2.5 3.5 2.5  3.5 3 2  3 3.5 2  3.5 3.5 2  3 3 2.5  3.5 3 2.5  3 3.5 2.5  3.5 3.5 2.5  4.5 3 2  4 3.5 2  4.5 3.5 2  4 3 2.5  4.5 3 2.5  4 3.5 2.5  4.5 3.5 2.5  5 3.5 2  5 3 2.5  5 3.5 2.5  0.5 4 2  0 4.5 2  0.5 4.5 2  0 4 2.5  0.5 4 2.5  0 4.5 2.5  0.5 4.5 2.5  1.5 4 2  1 4.5 2  1.5 4.5 2  1 4 2.5  1.5 4 2.5  1 4.5 2.5  1.5 4.5 2.5  2.5 4 2  2 4.5 2  2.5 4.5 2  2 4 2.5  2.5 4 2.5  2 4.5 2.5  2.5 4.5 2.5  3.5 4 2  3 4.5 2  3.5 4.5 2  3 4 2.5  3.5 4 2.5  3 4.5 2.5  3.5 4.5 2.5  4.5 4 2  4 4.5 2  4.5 4.5 2  4 4 2.5  4.5 4 2.5  4 4.5 2.5  4.5 4.5 2.5  5 4.5 2  5 4 2.5  5 4.5 2.5  0.5 5 2  0 5 2.5  0.5 5 2.5  1.5 5 2  1 5 2.5  1.5 5 2.5  2.5 5 2  2 5 2.5  2.5 5 2.5  3.5 5 2  3 5 2.5  3.5 5 2.5  4.5 5 2  4 5 2.5  4.5 5 2.5  5 5 2.5  0.5 0 3  0 0.5 3  0.5 0.5 3  0 0 3.5  0.5 0 3.5  0 0.5 3.5  0.5 0.5 3.5  1.5 0 3  1 0.5 3  1.5 0.5 3  1 0 3.5  1.5 0 3.5  1 0.5 3.5  1.5 0.5 3.5  2.5 0 3  2 0.5 3  2.5 0.5 3  2 0 3.5  2.5 0 3.5  2 0.5 3.5  2.5 0.5 3.5  3.5 0 3  3 0.5 3  3.5 0.5 3  3 0 3.5  3.5 0 3.5  3 0.5 3.5  3.5 0.5 3.5  4.5 0 3  4 0.5 3  4.5 0.5 3  4 0 3.5  4.5 0 3.5  4 0.5 3.5  4.5 0.5 3.5  5 0.5 3  5 0 3.5  5 0.5 3.5  0.5 1 3  0 1.5 3  0.5 1.5 3  0 1 3.5  0.5 1 3.5  0 1.5 3.5  0.5 1.5 3.5  1.5 1 3  1 1.5 3  1.5 1.5 3  1 1 3.5  1.5 1 3.5  1 1.5 3.5  1.5 1.5 3.5  2.5 1 3  2 1.5 3  2.5 1.5 3  2 1 3.5  2.5 1 3.5  2 1.5 3.5  2.5 1.5 3.5  3.5 1 3  3 1.5 3  3.5 1.5 3  3 1 3.5  3.5 1 3.5  3 1.5 3.5  3.5 1.5 3.5  4.5 1 3  4 1.5 3  4.5 1.5 3  4 1 3.5  4.5 1 3.5  4 1.5 3.5  4.5 1.5 3.5  5 1.5 3  5 1 3.5  5 1.5 3.5  0.5 2 3  0 2.5 3  0.5 2.5 3  0 2 3.5  0.5 2 3.5  0 2.5 3.5  0.5 2.5 3.5  1.5 2 3  1 2.5 3  1.5 2.5 3  1 2 3.5  1.5 2 3.5  1 2.5 3.5  1.5 2.5 3.5  2.5 2 3  2 2.5 3  2.5 2.5 3  2 2 3.5  2.5 2 3.5  2 2.5 3.5  2.5 2.5 3.5  3.5 2 3  3 2.5 3  3.5 2.5 3  3 2 3.5  3.5 2 3.5  3 2.5 3.5  3.5 2.5 3.5  4.5 2 3  4 2.5 3  4.5 2.5 3  4 2 3.5  4.5 2 3.5  4 2.5 3.5  4.5 2.5 3.5  5 2.5 3  5 2 3.5  5 2.5 3.5  0.5 3 3  0 3.5 3  0.5 3.5 3  0 3 3.5  0.5 3 3.5  0 3.5 3.5  0.5 3.5 3.5  1.5 3 3  1 3.5 3  1.5 3.5 3  1 3 3.5  1.5 3 3.5  1 3.5 3.5  1.5 3.5 3.5  2.5 3 3  2 3.5 3  2.5 3.5 3  2 3 3.5  2.5 3 3.5  2 3.5 3.5  2.5 3.5 3.5  3.5 3 3  3 3.5 3  3.5 3.5 3  3 3 3.5  3.5 3 3.5  3 3.5 3.5  3.5 3.5 3.5  4.5 3 3  4 3.5 3  4.5 3.5 3  4 3 3.5  4.5 3 3.5  4 3.5 3.5  4.5 3.5 3.5  5 3.5 3  5 3 3.5  5 3.5 3.5  0.5 4 3  0 4.5 3  0.5 4.5 3  0 4 3.5  0.5 4 3.5  0 4.5 3.5  0.5 4.5 3.5  1.5 4 3  1 4.5 3  1.5 4.5 3  1 4 3.5  1.5 4 3.5  1 4.5 3.5  1.5 4.5 3.5  2.5 4 3  2 4.5 3  2.5 4.5 3  2 4 3.5  2.5 4 3.5  2 4.5 3.5  2.5 4.5 3.5  3.5 4 3  3 4.5 3  3.5 4.5 3  3 4 3.5  3.5 4 3.5  3 4.5 3.5  3.5 4.5 3.5  4.5 4 3  4 4.5 3  4.5 4.5 3 
[...]
<PointData  Scalars="p"> 
<DataArray  type="Float64"  Name="p"  format="ascii">8.1999999999905278e+00  8.1599999999908945e+00  8.1199999999920518e+00  8.0799999999939640e+00  8.0399999999966596e+00  8.0000000000000000e+00  8.1999999999905242e+00  8.1599999999908785e+00  8.1199999999920305e+00  8.0799999999939462e+00  8.0399999999966312e+00  8.0000000000000000e+00  8.1999999999905278e+00  8.1599999999908732e+00  8.1199999999920305e+00  8.0799999999939409e+00  8.0399999999966365e+00  8.0000000000000000e+00  8.1999999999905189e+00  8.1599999999908768e+00  8.1199999999920127e+00  8.0799999999939374e+00  8.0399999999966223e+00  8.0000000000000000e+00  8.1999999999904976e+00  8.1599999999908537e+00  8.1199999999920180e+00  8.0799999999939214e+00  8.0399999999966187e+00  8.0000000000000000e+00  8.1999999999904780e+00  8.1599999999908679e+00  8.1199999999920145e+00  8.0799999999939338e+00  8.0399999999966241e+00  7.9999999999999991e+00  8.1999999999905420e+00  8.1599999999908928e+00  8.1199999999920340e+00  8.0799999999939462e+00  8.0399999999966401e+00  8.0000000000000000e+00  8.1999999999905153e+00  8.1599999999908750e+00  8.1199999999920180e+00  8.0799999999939320e+00  8.0399999999966312e+00  8.0000000000000000e+00  8.1999999999905029e+00  8.1599999999908643e+00  8.1199999999920287e+00  8.0799999999939356e+00  8.0399999999966241e+00  8.0000000000000000e+00  8.1999999999905011e+00  8.1599999999908537e+00  8.1199999999920074e+00  8.0799999999939320e+00  8.0399999999966312e+00  8.0000000000000000e+00  8.1999999999904780e+00  8.1599999999908412e+00  8.1199999999920003e+00  8.0799999999939249e+00  8.0399999999966045e+00  8.0000000000000000e+00  8.1999999999904727e+00  8.1599999999908395e+00  8.1199999999919950e+00  8.0799999999939160e+00  8.0399999999965974e+00  8.0000000000000000e+00  8.1999999999905260e+00  8.1599999999908785e+00  8.1199999999920252e+00  8.0799999999939658e+00  8.0399999999966507e+00  8.0000000000000000e+00  8.1999999999905118e+00  8.1599999999908785e+00  8.1199999999920323e+00  8.0799999999939374e+00  8.0399999999966152e+00  8.0000000000000000e+00  8.1999999999904905e+00  8.1599999999908572e+00  8.1199999999920216e+00  8.0799999999939409e+00  8.0399999999966134e+00  8.0000000000000000e+00  8.1999999999904833e+00  8.1599999999908466e+00  8.1199999999920109e+00  8.0799999999939303e+00  8.0399999999966152e+00  8.0000000000000000e+00  8.1999999999904656e+00  8.1599999999908395e+00  8.1199999999919861e+00  8.0799999999939036e+00  8.0399999999966294e+00  8.0000000000000000e+00  8.1999999999904833e+00  8.1599999999908430e+00  8.1199999999919878e+00  8.0799999999939036e+00  8.0399999999965868e+00  8.0000000000000000e+00  8.1999999999905242e+00  8.1599999999908963e+00  8.1199999999920571e+00  8.0799999999939569e+00  8.0399999999966365e+00  8.0000000000000000e+00  8.1999999999905206e+00  8.1599999999908661e+00  8.1199999999920482e+00  8.0799999999939480e+00  8.0399999999966330e+00  8.0000000000000000e+00  8.1999999999904905e+00  8.1599999999908803e+00  8.1199999999920180e+00  8.0799999999939445e+00  8.0399999999966081e+00  8.0000000000000000e+00  8.1999999999904976e+00  8.1599999999908697e+00  8.1199999999920216e+00  8.0799999999939285e+00  8.0399999999966063e+00  8.0000000000000000e+00  8.1999999999904887e+00  8.1599999999908324e+00  8.1199999999919825e+00  8.0799999999939214e+00  8.0399999999966258e+00  8.0000000000000000e+00  8.1999999999904709e+00  8.1599999999908199e+00  8.1199999999919719e+00  8.0799999999939125e+00  8.0399999999965814e+00  8.0000000000000000e+00  8.1999999999905171e+00  8.1599999999908697e+00  8.1199999999920234e+00  8.0799999999939569e+00  8.0399999999966436e+00  8.0000000000000000e+00  8.1999999999905064e+00  8.1599999999908572e+00  8.1199999999920234e+00  8.0799999999939427e+00  8.0399999999966152e+00  8.0000000000000000e+00  8.1999999999904993e+00  8.1599999999908750e+00  8.1199999999920109e+00  8.0799999999939303e+00  8.0399999999966276e+00  8.0000000000000000e+00  8.1999999999904709e+00  8.1599999999908608e+00  8.1199999999920092e+00  8.0799999999939338e+00  8.0399999999965956e+00  8.0000000000000000e+00  8.1999999999904691e+00  8.1599999999908537e+00  8.1199999999919878e+00  8.0799999999939001e+00  8.0399999999966116e+00  8.0000000000000000e+00  8.1999999999904567e+00  8.1599999999908253e+00  8.1199999999919630e+00  8.0799999999939001e+00  8.0399999999965761e+00  8.0000000000000000e+00  8.1999999999904976e+00  8.1599999999908803e+00  8.1199999999920323e+00  8.0799999999939587e+00  8.0399999999966454e+00  8.0000000000000000e+00  8.1999999999904993e+00  8.1599999999908608e+00  8.1199999999919967e+00  8.0799999999939285e+00  8.0399999999966081e+00  8.0000000000000000e+00  8.1999999999904780e+00  8.1599999999908590e+00  8.1199999999920092e+00  8.0799999999939143e+00  8.0399999999966187e+00  8.0000000000000000e+00  8.1999999999904816e+00  8.1599999999908608e+00  8.1199999999919843e+00  8.0799999999939018e+00  8.0399999999965992e+00  8.0000000000000000e+00  8.1999999999904638e+00  8.1599999999908288e+00  8.1199999999919807e+00  8.0799999999938787e+00  8.0399999999965832e+00  8.0000000000000000e+00  8.1999999999904389e+00  8.1599999999908004e+00  8.1199999999919594e+00  8.0799999999938770e+00  8.0399999999965779e+00  8.0000000000000000e+00  8.1799999999905584e+00  8.1999999999904674e+00  8.1799999999904855e+00  8.1999999999904709e+00  8.1799999999904944e+00  8.1999999999904070e+00  8.1799999999904411e+00  8.1399999999913142e+00  8.1599999999908306e+00  8.1399999999912360e+00  8.1599999999908359e+00  8.1399999999912591e+00  8.1599999999907809e+00  8.1399999999911898e+00  8.0999999999928534e+00  8.1199999999919719e+00  8.0999999999927788e+00  8.1199999999919861e+00  8.0999999999927788e+00  8.1199999999919150e+00  8.0999999999927450e+00  8.0599999999951581e+00  8.0799999999939018e+00  8.0599999999950693e+00  8.0799999999939001e+00  8.0599999999950889e+00  8.0799999999938148e+00  8.0599999999950480e+00  8.0199999999982161e+00  8.0399999999965868e+00  8.0199999999981468e+00  8.0399999999965921e+00  8.0199999999981468e+00  8.0399999999965157e+00  8.0199999999981024e+00  8.0000000000000000e+00  8.0000000000000000e+00  8.0000000000000000e+00  8.1799999999905602e+00  8.1999999999904620e+00  8.1799999999904731e+00  8.1999999999904478e+00  8.1799999999904784e+00  8.1999999999903839e+00  8.1799999999904376e+00  8.1399999999913160e+00  8.1599999999908253e+00  8.1399999999912396e+00  8.1599999999908164e+00  8.1399999999912431e+00  8.1599999999907595e+00  8.1399999999911756e+00  8.0999999999928498e+00  8.1199999999919719e+00  8.0999999999927734e+00  8.1199999999919665e+00  8.0999999999927628e+00  8.1199999999919115e+00  8.0999999999927201e+00  8.0599999999951351e+00  8.0799999999938823e+00  8.0599999999950729e+00  8.0799999999938752e+00  8.0599999999950693e+00  8.0799999999938219e+00  8.0599999999950285e+00  8.0199999999981966e+00  8.0399999999965797e+00  8.0199999999981344e+00  8.0399999999965726e+00  8.0199999999981344e+00  8.0399999999965033e+00  8.0199999999980882e+00  8.0000000000000000e+00  8.0000000000000000e+00  8.0000000000000000e+00  8.1799999999905459e+00  8.1999999999904585e+00  8.1799999999904767e+00  8.1999999999904478e+00  8.1799999999904678e+00  8.1999999999903821e+00  8.1799999999904216e+00  8.1399999999913000e+00  8.1599999999908270e+00  8.1399999999912396e+00  8.1599999999908075e+00  8.1399999999912360e+00  8.1599999999907507e+00  8.1399999999912094e+00  8.0999999999928392e+00  8.1199999999919683e+00  8.0999999999927557e+00  8.1199999999919577e+00  8.0999999999927628e+00  8.1199999999918937e+00  8.0999999999927095e+00  8.0599999999951280e+00  8.0799999999938823e+00  8.0599999999950604e+00  8.0799999999938663e+00  8.0599999999950569e+00  8.0799999999937935e+00  8.0599999999950107e+00  8.0199999999982001e+00  8.0399999999965654e+00  8.0199999999981344e+00  8.0399999999965601e+00  8.0199999999981237e+00  8.0399999999965033e+00  8.0199999999981042e+00  8.0000000000000000e+00  8.0000000000000000e+00  8.0000000000000000e+00  8.1799999999905442e+00  8.1999999999904443e+00  8.1799999999904554e+00  8.1999999999904443e+00  8.1799999999904749e+00  8.1999999999903537e+00  8.1799999999904109e+00  8.1399999999912929e+00  8.1599999999908182e+00  8.1399999999912271e+00  8.1599999999908004e+00  8.1399999999912183e+00  8.1599999999907364e+00  8.1399999999911756e+00  8.0999999999928143e+00  8.1199999999919772e+00  8.0999999999927592e+00  8.1199999999919559e+00  8.0999999999927503e+00  8.1199999999918866e+00  8.0999999999927308e+00  8.0599999999951226e+00  8.0799999999938787e+00  8.0599999999950676e+00  8.0799999999938681e+00  8.0599999999950498e+00  8.0799999999937988e+00  8.0599999999950018e+00  8.0199999999981912e+00  8.0399999999965726e+00  8.0199999999981273e+00  8.0399999999965619e+00  8.0199999999981237e+00  8.0399999999964873e+00  8.0199999999980900e+00  8.0000000000000000e+00  8.0000000000000000e+00  8.0000000000000000e+00  8.1799999999905229e+00  8.1999999999904283e+00  8.1799999999904500e+00  8.1999999999904265e+00  8.1799999999904500e+00  8.1999999999903572e+00  8.1799999999904074e+00  8.1399999999912840e+00  8.1599999999908004e+00  8.1399999999912112e+00  8.1599999999907880e+00  8.1399999999912112e+00  8.1599999999907311e+00  8.1399999999911703e+00  8.0999999999928161e+00  8.1199999999919505e+00  8.0999999999927468e+00  8.1199999999919523e+00  8.0999999999927379e+00  8.1199999999918759e+00  8.0999999999927024e+00  8.0599999999951262e+00  8.0799999999938752e+00  8.0599999999950551e+00  8.0799999999938645e+00  8.0599999999950516e+00  8.0799999999937970e+00  8.0599999999950107e+00  8.0199999999981859e+00  8.0399999999965637e+00  8.0199999999981220e+00  8.0399999999965566e+00  8.0199999999981202e+00  8.0399999999964837e+00  8.0199999999980829e+00  8.0000000000000000e+00  8.0000000000000000e+00  8.0000000000000000e+00  8.1799999999904927e+00  8.1999999999903945e+00  8.1799999999904323e+00  8.1399999999912627e+00  8.1599999999907862e+00  8.1399999999911898e+00  8.0999999999927965e+00  8.1199999999919328e+00  8.0999999999927308e+00  8.0599999999951084e+00  8.0799999999938521e+00  8.0599999999950374e+00  8.0199999999981646e+00  8.0399999999965353e+00  8.0199999999981006e+00  8.0000000000000000e+00  8.1799999999905637e+00  8.1999999999904620e+00  8.1799999999904855e+00  8.1999999999904638e+00  8.1799999999904909e+00  8.1999999999904016e+00  8.1799999999904642e+00  8.1399999999913124e+00  8.1599999999908217e+00  8.1399999999912289e+00  8.1599999999908395e+00  8.1399999999912485e+00  8.1599999999907755e+00  8.1399999999912094e+00  8.0999999999928463e+00  8.1199999999919665e+00  8.0999999999927716e+00  8.1199999999919807e+00  8.0999999999927752e+00  8.1199999999919150e+00  8.0999999999927290e+00  8.0599999999951670e+00  8.0799999999938770e+00  8.0599999999950676e+00  8.0799999999939036e+00  8.0599999999950835e+00  8.0799999999938326e+00  8.0599999999950214e+00  8.0199999999982037e+00  8.0399999999965743e+00  8.0199999999981397e+00  8.0399999999965850e+00  8.0199999999981397e+00  8.0399999999965157e+00  8.0199999999980989e+00  8.0000000000000000e+00  8.0000000000000000e+00  8.0000000000000000e+00  8.1799999999905459e+00  8.1999999999904514e+00  8.1799999999904784e+00  8.1999999999904709e+00  8.1799999999904820e+00  8.1999999999903856e+00  8.1799999999904447e+00  8.1399999999912858e+00  8.1599999999908075e+00  8.1399999999912271e+00  8.1599999999908110e+00  8.1399999999912325e+00  8.1599999999907489e+00  8.1399999999911792e+00  8.0999999999928178e+00  8.1199999999919612e+00  8.0999999999927699e+00  8.1199999999919577e+00  8.0999999999927699e+00  8.1199999999918955e+00  8.0999999999927219e+00  8.0599999999951262e+00  8.0799999999938716e+00  8.0599999999950693e+00  8.0799999999938716e+00  8.0599999999950533e+00  8.0799999999938308e+00  8.0599999999950338e+00  8.0199999999981912e+00  8.0399999999965619e+00  8.0199999999981380e+00  8.0399999999965654e+00  8.0199999999981380e+00  8.0399999999964891e+00  8.0199999999981166e+00  8.0000000000000000e+00  8.0000000000000000e+00  8.0000000000000000e+00  8.1799999999905264e+00  8.1999999999904443e+00  8.1799999999904642e+00  8.1999999999904318e+00  8.1799999999904642e+00  8.1999999999903732e+00  8.1799999999904198e+00  8.1399999999912822e+00  8.1599999999908075e+00  8.1399999999912218e+00  8.1599999999908004e+00  8.1399999999912342e+00  8.1599999999907435e+00  8.1399999999911774e+00  8.0999999999928143e+00  8.1199999999919505e+00  8.0999999999927486e+00  8.1199999999919505e+00  8.0999999999927574e+00  8.1199999999918937e+00  8.0999999999927113e+00  8.0599999999951208e+00  8.0799999999938681e+00  8.0599999999950587e+00  8.0799999999938716e+00  8.0599999999950498e+00  8.0799999999938059e+00  8.0599999999950125e+00  8.0199999999981735e+00  8.0399999999965672e+00  8.0199999999981273e+00  8.0399999999965566e+00  8.0199999999981255e+00  8.0399999999964979e+00  8.0199999999980953e+00  8.0000000000000000e+00  8.0000000000000000e+00  8.0000000000000000e+00  8.1799999999905175e+00  8.1999999999904336e+00  8.1799999999904465e+00  8.1999999999904443e+00  8.1799999999904554e+00  8.1999999999903608e+00  8.1799999999904074e+00  8.1399999999912751e+00  8.1599999999907826e+00  8.1399999999912094e+00  8.1599999999907933e+00  8.1399999999911969e+00  8.1599999999907276e+00  8.1399999999911667e+00  8.0999999999927947e+00  8.1199999999919399e+00  8.0999999999927468e+00  8.1199999999919452e+00  8.0999999999927432e+00  8.1199999999918866e+00  8.0999999999927166e+00  8.0599999999951262e+00  8.0799999999938681e+00  8.0599999999950551e+00  8.0799999999938663e+00  8.0599999999950551e+00  8.0799999999938024e+00  8.0599999999950178e+00  8.0199999999981770e+00  8.0399999999965495e+00  8.0199999999981220e+00  8.0399999999965441e+00  8.0199999999981220e+00  8.0399999999964820e+00  8.0199999999980829e+00  8.0000000000000000e+00  8.0000000000000000e+00  8.0000000000000000e+00  8.1799999999904998e+00  8.1999999999904123e+00  8.1799999999904394e+00  8.1999999999904158e+00  8.1799999999904376e+00  8.1999999999903448e+00  8.1799999999903967e+00  8.1399999999912733e+00  8.1599999999907862e+00  8.1399999999912005e+00  8.1599999999907791e+00  8.1399999999911934e+00  8.1599999999907205e+00  8.1399999999911650e+00  8.0999999999927983e+00  8.1199999999919399e+00  8.0999999999927379e+00  8.1199999999919399e+00  8.0999999999927415e+00  8.1199999999918688e+00  8.0999999999926899e+00  8.0599999999951137e+00  8.0799999999938610e+00  8.0599999999950409e+00  8.0799999999938557e+00  8.0599999999950445e+00  8.0799999999937970e+00  8.0599999999949965e+00  8.0199999999981646e+00  8.0399999999965512e+00  8.0199999999981202e+00  8.0399999999965441e+00  8.0199999999981166e+00  8.0399999999964802e+00  8.0199999999980776e+00  8.0000000000000000e+00  8.0000000000000000e+00  8.0000000000000000e+00  8.1799999999904909e+00  8.1999999999903910e+00  8.1799999999904269e+00  8.1399999999912502e+00  8.1599999999907773e+00  8.1399999999911810e+00  8.0999999999927912e+00  8.1199999999919203e+00  8.0999999999927130e+00  8.0599999999950835e+00  8.0799999999938343e+00  8.0599999999950285e+00  8.0199999999981770e+00  8.0399999999965441e+00  8.0199999999980953e+00  8.0000000000000000e+00  8.1799999999905548e+00  8.1999999999904620e+00  8.1799999999904767e+00  8.1999999999904727e+00  8.1799999999904838e+00  8.1999999999903963e+00  8.1799999999904394e+00  8.1399999999913213e+00  8.1599999999908164e+00  8.1399999999912325e+00  8.1599999999908306e+00  8.1399999999912502e+00  8.1599999999907666e+00  8.1399999999911898e+00  8.0999999999928356e+00  8.1199999999919665e+00  8.0999999999927574e+00  8.1199999999919807e+00  8.0999999999927788e+00  8.1199999999919150e+00  8.0999999999927272e+00  8.0599999999951333e+00  8.0799999999938805e+00  8.0599999999950747e+00  8.0799999999938930e+00  8.0599999999950835e+00  8.0799999999938290e+00  8.0599999999950214e+00  8.0199999999981966e+00  8.0399999999965743e+00  8.0199999999981344e+00  8.0399999999965726e+00  8.0199999999981433e+00  8.0399999999965122e+00  8.0199999999981131e+00  8.0000000000000000e+00  8.0000000000000000e+00  8.0000000000000000e+00  8.1799999999905459e+00  8.1999999999904478e+00  8.1799999999904642e+00  8.1999999999904603e+00  8.1799999999904749e+00  8.1999999999903803e+00  8.1799999999904127e+00  8.1399999999912946e+00  8.1599999999908075e+00  8.1399999999912342e+00  8.1599999999908164e+00  8.1399999999912307e+00  8.1599999999907613e+00  8.1399999999911881e+00  8.0999999999928303e+00  8.1199999999919612e+00  8.0999999999927645e+00  8.1199999999919683e+00  8.0999999999927663e+00  8.1199999999918901e+00  8.0999999999927219e+00  8.0599999999951120e+00  8.0799999999938787e+00  8.0599999999950747e+00  8.0799999999938823e+00  8.0599999999950676e+00  8.0799999999938148e+00  8.0599999999950285e+00  8.0199999999982143e+00  8.0399999999965637e+00  8.0199999999981326e+00  8.0399999999965654e+00  8.0199999999981326e+00  8.0399999999965051e+00  8.0199999999980989e+00  8.0000000000000000e+00  8.0000000000000000e+00  8.0000000000000000e+00  8.1799999999905317e+00  8.1999999999904247e+00  8.1799999999904554e+00  8.1999999999904407e+00  8.1799999999904571e+00  8.1999999999903643e+00  8.1799999999904234e+00  8.1399999999912822e+00  8.1599999999907915e+00  8.1399999999912342e+00  8.1599999999908022e+00  8.1399999999912396e+00  8.1599999999907240e+00  8.1399999999911845e+00  8.0999999999928214e+00  8.1199999999919488e+00  8.0999999999927663e+00  8.1199999999919648e+00  8.0999999999927610e+00  8.1199999999918973e+00  8.0999999999927148e+00  8.0599999999951351e+00  8.0799999999938752e+00  8.0599999999950604e+00  8.0799999999938823e+00  8.0599999999950569e+00  8.0799999999938148e+00  8.0599999999950214e+00  8.0199999999981841e+00  8.0399999999965637e+00  8.0199999999981273e+00  8.0399999999965512e+00  8.0199999999981291e+00  8.0399999999964997e+00  8.0199999999981078e+00  8.0000000000000000e+00  8.0000000000000000e+00  8.0000000000000000e+00  8.1799999999905069e+00  8.1999999999904123e+00  8.1799999999904376e+00  8.1999999999904283e+00  8.1799999999904465e+00  8.1999999999903590e+00  8.1799999999904074e+00  8.1399999999912769e+00  8.1599999999907880e+00  8.1399999999912289e+00  8.1599999999908022e+00  8.1399999999912200e+00  8.1599999999907222e+00  8.1399999999911703e+00  8.0999999999928107e+00  8.1199999999919470e+00  8.0999999999927592e+00  8.1199999999919612e+00  8.0999999999927557e+00  8.1199999999918919e+00  8.0999999999927077e+00  8.0599999999951155e+00  8.0799999999938681e+00  8.0599999999950533e+00  8.0799999999938610e+00  8.0599999999950604e+00  8.0799999999938024e+00  8.0599999999950036e+00  8.0199999999981859e+00  8.0399999999965548e+00  8.0199999999981273e+00  8.0399999999965583e+00  8.0199999999981202e+00  8.0399999999964944e+00  8.0199999999980758e+00  8.0000000000000000e+00  8.0000000000000000e+00  8.0000000000000000e+00  8.1799999999905051e+00  8.1999999999903999e+00  8.1799999999904340e+00  8.1999999999904105e+00  8.1799999999904394e+00  8.1999999999903448e+00  8.1799999999903985e+00  8.1399999999912698e+00  8.1599999999907862e+00  8.1399999999911969e+00  8.1599999999907933e+00  8.1399999999911969e+00  8.1599999999907116e+00  8.1399999999911756e+00  8.0999999999927876e+00  8.1199999999919399e+00  8.0999999999927326e+00  8.1199999999919381e+00  8.0999999999927397e+00  8.1199999999918742e+00  8.0999999999926935e+00  8.0599999999951173e+00  8.0799999999938557e+00  8.0599999999950462e+00  8.0799999999938592e+00  8.0599999999950480e+00  8.0799999999938041e+00  8.0599999999950072e+00  8.0199999999981681e+00  8.0399999999965353e+00  8.0199999999981184e+00  8.0399999999965548e+00  8.0199999999981202e+00  8.0399999999964820e+00  8.0199999999980776e+00  8.0000000000000000e+00  8.0000000000000000e+00  8.0000000000000000e+00  8.1799999999904909e+00  8.1999999999903910e+00  8.1799999999904180e+00  8.1399999999912467e+00  8.1599999999907649e+00  8.1399999999911792e+00  8.0999999999927894e+00  8.1199999999919061e+00  8.0999999999927201e+00  8.0599999999950995e+00  8.0799999999938414e+00  8.0599999999950267e+00  8