<?xml version="1.0"?>
<VTKFile type="UnstructuredGrid"  version="0.1"  >
<UnstructuredGrid>
<Piece  NumberOfPoints="7420" NumberOfCells="33767">
<Points>
<DataArray  type="Float64"  NumberOfComponents="3"  format="ascii">32.2772100769 15.0815919971 4.2873423807  32.977785148 14.31473756105 4.4045886964  33.20287146184999 15.09103338805 4.49213360245  32.53353807005 14.72674002725 3.9469296214  32.72145715485 14.6695895309 4.745001455700001  33.1657042328 14.2575870647 5.2026605307  33.459199455 14.7361814182 4.15172084315  33.6471185398 14.67903092185 4.949792677450001  32.7898660632 14.3718880574 3.6065168621  34.1285328468 15.100474779 4.6969248242  34.2621227036 13.9634020813 6.2720927992  34.90626291375 14.7722618733 5.55329811995  34.1953277752 14.53193843015 5.4845088117  34.27829051115 15.0213600277 5.96084954605  34.2944583187 16.0793179741 5.6496062929  34.9224307213 15.8302198197 5.2420548668  34.21149558275 15.58989637655 5.17326555855  34.83946798535 15.34079822215 4.76571413245  35.5504031239 15.5811216653 4.8345034407  35.9287698804 12.3080343381 10.2878096099  36.79758194675 11.7896352944 11.044230243  36.04737057379999 12.3501232481 10.9168634879  35.8793844165 11.9961660001 11.13051178095  36.67898125335 11.7475463844 10.415176365  36.51099509605 11.3935891364 10.62882465805  37.4291926263 11.1870584307 10.5425431201  36.1659712672 12.3922121581 11.5459173659  36.927485693 16.3066517412 8.7071237378  37.20119210245 17.40501079015 8.238603171499999  36.59422827785 16.97923497465 8.35561865315  37.0594560832 17.22881718355 8.892368620700001  37.5344495176 16.7324275567 8.59010825615  37.1914264734 18.1509826259 9.0776135036  36.72619866805 17.901400417 8.540863536050001  37.66641990780001 17.65459299905 8.775353139050001  38.1414133422 17.1582033722 8.4730927745  36.2609708627 17.6518182081 8.004113568499999  35.2727415204 17.1356132595 5.0858082497  36.54336195895 16.63688608305 5.68603751675  36.656370302 17.5099559659 5.77500728335  35.971979432 16.85097472875 4.8543350072  35.84412404734999 16.9215246138 5.91751075925  36.08498777505 17.7240446116 4.9433047738  36.4155065743 16.7074359681 6.7492132688  36.8972340297 18.3124759637 4.8008012979  36.78422568665 17.43940608085 4.7118315313  36.6712173436 16.566336198 4.6228617647  37.67705703 12.1200788635 7.6826072261  37.63813300515 11.55117266865 8.9354325963  37.9420247119 12.3063943301 8.301294819500001  37.42316445115 12.1952222209 8.75529972665  37.37316532325 11.36485720205 8.316745002899999  37.0692736165 10.6096355406 8.950882779700001  37.1192727444 11.44000055945 9.389437503450001  37.1692718723 12.2703655783 9.827992227199999  37.68813213305 12.3815376875 9.373987320049999  38.2069923938 12.4927097967 8.9199824129  35.274428684 9.215404057300001 1.7685309834  34.98314415395 8.855484193950002 1.35170678025  35.29821848945 9.424528742350001 0.5547152534999999  34.70508712385 9.156565292850001 0.5547152534999999  34.1357455637 9.097726528400001 -0.6591004764  35.0069339594 9.064608879000001 0.13789105035  34.7288769293 9.365689977900001 -0.6591004764  35.3220082949 9.633653427400001 -0.6591004764  34.6918596239 8.495564330600001 0.9348825771  33.9237240787 16.2870668189 1.956875332  34.83966596134999 15.6244547892 1.9507169561  34.6849778462 16.14841612065 2.4375424727  34.5206644102 16.4879038553 1.80127180165  35.1176047417 16.6887408917 1.6456682713  35.43660629285 15.8252918256 1.79511342575  35.2819181777 16.34925315705 2.28193894235  35.4462316137 16.0097654224 2.9182096134  35.60091972885 15.48580409095 2.4313840968  35.755607844 14.9618427595 1.9445585802  34.4679369263 14.0213720315 10.5575343014  35.29438594145 14.48277931655 10.35790282325  34.861241345 14.5472477583 10.77848235185  35.44591339095 14.1827847987 10.52760303815  34.90108152275 13.95690358975 10.1369547728  35.3342261192 13.892435148 9.7163752442  35.8790579874 14.11831635695 10.10702350955  36.4238898556 14.3441975659 10.4976717749  35.83921780965 14.7086605255 10.7485510886  35.2545457637 15.0731234851 10.9994304023  35.253957689 12.8154248641 10.7488554061  36.176329868 13.326115952 10.3927406924  35.83892377230001 13.579811215 10.6232635905  35.58570965935 12.9067160539 10.1904499257  35.5913637847 12.5617296011 10.518332508  35.9174616297 12.9980072437 9.6320444453  36.17067574265 13.6711024048 10.0648581101  35.92311575505 12.6530207909 9.959927027599999  37.79210544685 15.6836176695 8.1359184502  37.1954175514 16.191681085 8.070069609499999  36.91309553790001 15.5715806121 8.233205685050001  37.52417358845 15.7985883257 8.772972578499999  36.8987053828 14.836509483 7.7592876323  37.1810273963 15.4566099559 7.59615155675  37.50978343335 15.0635171966 8.29905452575  38.1208614839 15.2905249102 8.8388214192  37.4633494098 16.0767104288 7.4330154812  35.1509287472 13.300824077 6.7342708262  36.0451219572 12.52925352435 5.9014757921  35.36662949325 12.7651083764 5.991304388  35.50212202874999 13.3319160123 6.05350670625  35.0154362117 12.7340164411 6.67206850795  35.69392867565 12.49816158905 6.58223991205  34.8799436762 12.1672088052 6.6098661897  35.55843614015 11.93135395315 6.5200375938  35.8533153103 13.3630079476 5.3727425863  36.2369286041 11.6954991011 6.4302089979  34.45735168989999 9.823326753750001 0.54535038115  35.02669325005 9.882165518200001 1.75916611105  34.3369655391 8.868661996450001 0.7761122252000001  34.6585716653 9.594262221800001 1.98056308275  34.7789578161 10.5489269791 1.7498012387  36.3404749681 9.657451783599999 3.4852990949  37.00287857235 9.645450481249998 2.57287343705  36.59029200105 10.1751587224 2.5698895362  36.9934720147 9.6647383259 3.18821059845  36.34988152575 9.638163938949999 2.8699619335  36.3592880834 9.618876094299999 2.2546247721  37.24328904765 10.1824452647 2.27280103975  36.5996985587 10.15587087775 1.9545523748  37.6464690613 9.672024868199999 2.891122102  36.840109034 10.6928656612 1.6544799775  37.774697147 9.082893625400001 1.6011963061  38.1947081675 9.0795300858 1.211559856  38.06424104025 9.516767535300001 0.47104791485  37.66166131625 9.124878933250001 0.47104791485  37.5486254855 9.166864241100001 -0.6591004764  38.08167233675 9.12151539365 0.08141146475  37.9512052095 9.55875284315 -0.6591004764  38.3537849335 9.9506414452 -0.6591004764  38.48425206075 9.513403995699999 0.08141146475  38.614719188 9.0761665462 0.8219234059  36.2315219805 9.1882111353 1.0519138143  37.29698793555 9.600301810600001 0.47104791485  36.89007373299999 9.177537688200001 0.19640666895  37.00310956375 9.135552380349999 1.3265550602  36.5254003523 9.65296056555 0.19640666895  36.8192787241 10.1177099958 -0.6591004764  37.1839521048 9.64228711845 -0.6591004764  35.4831503343 14.2057767889 3.1676624382  34.79921438135 13.3248087267 3.5890388022  35.5095432276 13.42223655295 3.49859926995  35.08903972205 14.03384871655 3.83425515375  34.77282148805 14.10834896265 3.25810197045  34.6949291098 13.8619206442 4.5008478693  35.11543261535 13.2503084806 4.1651919855  34.3787108758 13.9364208903 3.924694686  34.0624926418 14.0109211364 3.3485415027  35.5359361209 12.638696317 3.8295361017  39.0106746413 9.9640704546 3.1063209799  39.60361800895 9.68545989635 2.29073678345  39.0516412242 9.579991139099999 2.47280518965  39.84327097705 10.04373415505 2.6157768669  38.7710216732 9.6057961959 2.78128089645  38.5313687051 9.2475219372 2.456240813  38.8119882561 9.221716880399999 2.1477651062  40.6758673128 10.1233978555 2.1252327539  39.88423755995 9.659654839550001 1.98226107665  39.0926078071 9.195911823599999 1.8392893994  35.9255983551 16.8835880268 0.8574685117  37.495510183 16.69840566255 0.6092797057999999  36.94479588195 16.22750943425 0.90256989105  36.9298172381 17.04029056595 1.36756419985  36.4912913 16.5417031234 0.09918401765000001  36.37910293705 16.56939433765 1.6608543851  37.0569842449 16.19981822 -0.6591004764  36.832607519 16.2552006485 2.4642402585  37.38332182005 16.7260968768 2.17095007325  37.9340361211 17.1969931051 1.877659888  34.9102902485 10.8827392185 4.0154560953  34.8142043133 12.0217883653 3.37207253545  35.2231131847 11.76071776775 3.9224960985  34.89098730649999 11.6685084868 3.1315224942  34.5013813771 11.14380981605 3.46503253225  34.8716843645 12.4542777551 2.2475888931  35.2038102427 12.54648703605 3.0385624974  34.4820784351 11.92957908435 2.58109893115  34.0924725057 11.4048804136 2.9146089692  34.6603570129 11.25077164675 5.89776252245  35.0592863159 11.9201056692 5.858699189899999  34.38669006889999 11.96693590385 6.021976163450001  34.4810143732 11.49787478275 6.64892952225  34.0820850702 10.8285407603 6.6879928548  33.9877607659 11.2976018814 6.061039496  33.8934364616 11.7666630025 5.4340861372  34.5660327086 11.71983276785 5.27080916365  35.2386289556 11.6730025332 5.1075321901  37.58653182880001 10.0341757205 -0.6591004764  40.6758673128 15.9910078853 9.582957892  39.39836439835 15.18272737825 9.462100464100001  39.59829758435 15.51939195275 10.27870374735  39.59829758435 15.97743097225 10.02749293885  39.39836439835 15.64076639775 9.210889655599999  40.6758673128 15.5329688658 9.834168700499999  40.6758673128 15.0749298463 10.085379509  38.5207278559 15.9638540592 10.4720279857  38.3207946699 15.6271894847 9.65542470245  34.3450946944 10.1550059974 -0.6591004764  34.83355149465 9.894329712400001 -0.6591004764  34.8097616892 9.685205027350001 0.5547152534999999  34.24042012904999 9.6263662629 -0.6591004764  35.3714267531 9.591626008 2.6196753542  35.0751922846 10.07027649355 2.18473829645  35.32292771855001 9.403515032650001 2.1941031688  34.95480613380001 9.115611736249999 2.4155001405  38.2315100883 16.9757131464 10.9117813476  38.93262413985 16.57601240215 10.32984296665  38.8372571339 16.2820009467 10.82390006665  38.3761189721 16.4697836028 10.69190466665  38.6926482501 16.7879304903 11.0437767476  38.78801525605 17.08194194575 10.5497196476  39.1537864119 16.6001478342 11.1757721476  39.24915341785 16.89415928965 10.6817150476  39.3445204238 17.1881707451 10.1876579476  32.0152851616 15.5
[...]
<PointData  Scalars="c_HbCO2"> 
<DataArray  type="Float64"  Name="c_HbCO2"  format="ascii">2.6322865541089443e-53  -5.4902090751920310e-54  5.1575258002280889e-54  1.1790301793663976e-55  -1.9863631169854800e-54  3.1577725783821513e-54  -1.2123346639849205e-54  -2.5606099689465908e-54  4.5346710439418402e-54  1.2929458808954151e-53  1.6070045948636294e-54  -2.9374116130070435e-54  -1.6528140304982135e-55  -4.4672753205630113e-54  2.9355435898289370e-53  -4.6280800249679949e-54  7.7807207904430401e-54  -4.7405541331903265e-56  3.9811609406456217e-54  4.9789594940561417e-55  -1.2881169183111153e-54  -2.2166247989171013e-54  1.4743979385949914e-54  2.9182748341495083e-55  -7.6057980081340100e-55  3.2483028876874577e-55  8.2001294480805462e-54  3.4844862657286046e-56  -1.8015634832659002e-56  -1.1708361535143051e-55  -1.0049891581927773e-56  4.8341483810651807e-57  2.8855715338210409e-56  -4.2470852444651543e-56  9.4717199537809208e-57  8.4649237143094746e-57  2.9117245682773769e-55  2.0263445456016785e-53  -1.6319780253257852e-54  -7.1258834685517758e-55  -4.6664954522117457e-54  -2.2935817862356180e-54  -1.5521568946865210e-54  8.6185143208536521e-55  1.1174449332467849e-54  -2.8768364696267889e-56  8.4243783349232321e-55  1.2986099470932782e-56  -1.7069039715524605e-56  -2.3015730614100486e-57  -1.0765451080840686e-56  -1.5956716815128475e-56  1.2168868080003233e-55  -5.2367251291079084e-56  1.5032189135861852e-55  -9.1977359816106248e-57  1.4147844721510133e-56  1.3891711054847969e-53  4.6816296315609066e-55  -2.6638529984863408e-54  3.0265494851237072e-54  6.8619204864671811e-53  -1.0633475703534164e-53  -1.4015062126733612e-53  3.2878700257974350e-54  3.1165241444095242e-53  1.1623902948507260e-53  -1.4639994083918837e-54  -4.7400793704533448e-54  -6.7343327538985668e-55  1.2871269477597439e-54  -1.5123154130776982e-55  -7.8652520250021583e-55  3.3738051537238056e-54  -2.5041811122947552e-55  2.5633723065443067e-55  5.0504909120895445e-54  -8.5642913620811618e-55  2.9974538515409192e-54  -1.1453941738815827e-54  -4.2719448401528360e-55  4.5950447756427246e-55  2.0549830846321108e-55  3.3988321666029838e-55  -2.6796969927833445e-55  2.8386634434443928e-54  6.3127226348232262e-54  -4.1311430934709693e-56  -7.6173622832200764e-55  -6.4128453493907920e-55  -2.6400362036906749e-54  1.8626467997379034e-55  -4.1465413604443693e-56  2.6422743834252442e-56  -1.2312398878542507e-56  6.9189665161502042e-57  -1.0670972097641391e-57  -2.4989475342820755e-57  2.5924192384346184e-56  1.8740519700422041e-57  -2.9665151524240380e-57  4.9749594360268267e-57  5.2490865738975609e-56  5.1385846646287986e-56  -4.5310862656522325e-56  -1.1211403778736419e-55  -2.8621739180791036e-57  -5.2927580819717273e-56  -2.7806129217379793e-56  4.0663306041162066e-55  1.5278203282484616e-56  6.9811017741694790e-56  1.1000776020915223e-55  -6.0274035421795697e-53  9.7675064396787188e-54  -5.0389178113978180e-53  8.9503787379649357e-54  2.7157013622930068e-53  7.6727913859307963e-55  -1.4485522683148695e-55  -2.3137261387785733e-55  -1.0508760416072241e-55  -2.6080662829426816e-55  1.2751770199648728e-54  -1.4526197770250819e-55  6.1089710072883384e-55  9.5122022283231810e-56  5.2593291104868497e-55  1.3074743491325691e-55  -1.4056584905556094e-56  1.7803888144410971e-56  -1.2176855977263252e-55  1.3955184401513040e-55  -2.9145868825722342e-56  4.8381456089621616e-56  5.3896409063483933e-56  -1.8859984877021530e-56  2.0262384002519488e-56  1.7879090526408905e-54  -2.4451395161153440e-55  -1.7434819490097820e-55  -2.5386794983097959e-55  -5.1799223892723666e-55  4.7510272764284700e-55  1.6828198641493968e-56  4.8486144287601903e-55  -2.3851083260262659e-55  -1.2311360895641503e-55  2.5370084559142780e-55  1.7676211300429897e-55  8.6928559378905843e-55  -1.8234085650022238e-55  2.8151572931632865e-55  7.1056226500175209e-55  3.5641896963711032e-55  6.4604490784150686e-57  -1.8744584308773257e-57  -2.5952455157437970e-57  -5.5017244153152905e-58  6.1588685048748994e-58  7.9478918898586638e-57  7.4382092715436784e-58  1.5966778821689948e-57  -1.8484708325742025e-57  5.9769720827108885e-57  9.8831150370181548e-56  -4.2020779056899225e-57  -3.4084624519471228e-56  -3.3834885911234304e-56  -9.2451918527392666e-57  -5.2808912107025939e-56  1.0522490759170469e-56  2.9204413467051097e-55  1.2208171745105193e-56  4.3577458802116014e-56  4.8036415712433687e-54  -9.3758323509447556e-55  -4.5804819778515266e-55  -1.0468212009939667e-54  1.2552685018290922e-54  1.2715024586858630e-54  -2.6734332834568984e-56  -4.8830591527867127e-55  5.8305150155187413e-54  -2.1944864880036170e-54  -8.2081289038977854e-56  -2.4532511665495390e-55  -7.7528721497532228e-55  5.8189225327100775e-54  -2.3307018129019138e-54  4.2508597062290362e-54  -2.5895290522366670e-55  6.0159254776653063e-55  -1.7663768964305782e-56  7.6309762687942371e-58  -7.4442579513216452e-58  2.1364370134042249e-58  -1.0351505335825408e-57  -7.0375447435633670e-58  -3.0781223067915856e-58  2.0087194726925733e-57  6.5573176668203212e-57  -1.4450768543609439e-57  2.0955666810977398e-53  -8.7166698810527724e-55  -3.0236295445278249e-54  -2.0512760507428059e-54  3.5604638805001563e-54  -6.3357239913696495e-54  -1.7407134229549686e-54  -1.6092690630316130e-53  4.3049327348626943e-57  -1.1150605202465791e-57  -1.6922508344353515e-57  4.7320769846979108e-58  -9.1636384405167622e-58  -4.1380311415801196e-58  1.2124920004185744e-57  -1.0827846073950493e-58  9.2545890217696965e-58  1.1808990738805954e-52  -2.8664440865570583e-53  -1.1942194840737493e-52  -1.8848610712389276e-52  1.7707884525286125e-53  2.3658870119373847e-52  1.0263871127029251e-52  -1.4288324946797450e-54  3.7983220223930491e-53  2.6040884949834263e-52  2.1285439385458520e-55  -3.2654855645297071e-56  -9.5124570262495356e-56  -1.2083372223038411e-55  7.9495067249525591e-56  -4.1432721268221175e-57  -2.5007011772065763e-55  1.6288301866739128e-54  -4.0157841258569055e-55  4.3439346493127752e-55  6.0179471395269934e-56  -2.7228465556867791e-56  -1.2622080736653480e-56  -1.4557498482638305e-56  3.8090188332323293e-56  -3.4903486918412543e-56  2.1159125147953107e-57  -2.0841138697594345e-56  3.3706009548239590e-55  2.0731606309245665e-56  2.8917558017386950e-54  -1.0216170356136282e-54  -6.2197442880665866e-55  -2.0382215381499647e-55  9.0162708380708045e-55  7.7946648337169635e-55  2.8646096346779764e-55  3.9132926512405793e-56  -1.4385900890966903e-55  -4.5274178411836134e-56  -2.7203096181834056e-56  -1.0994465548078681e-56  2.2059400936636796e-55  4.3045072650712722e-56  -1.1743657768788021e-55  4.0681981012738743e-55  -6.3389940315320887e-56  -1.2035227303640463e-55  -1.6818354935785156e-56  -2.7753985038568380e-56  2.9039652554308910e-56  9.8167726905971699e-57  1.0853830989428801e-54  -3.5547762282281995e-55  5.7763473927222854e-56  6.0458409327481092e-57  -2.8220178600776629e-57  -3.7954350390818024e-57  -1.2878215681390447e-56  -3.5846947058295849e-57  1.0068318947913574e-55  -2.1097419756678582e-56  4.0881724840326065e-57  2.9562102523652373e-56  7.2439626847206935e-57  -5.3972467371445499e-56  -1.6502122039106854e-56  -1.8872673883293106e-55  1.2268935560115492e-56  2.9306907217413884e-56  1.2867000089332476e-55  2.4069174823512031e-55  -3.6548596128706425e-56  -7.2210421282715034e-56  -4.9221856124597196e-56  -3.8414281720283785e-57  -6.9456401055238226e-56  2.5870772456909167e-56  -2.5377765472898845e-57  3.9017511588946764e-56  -4.7630448399653178e-57  -3.5124970083738228e-56  -1.0997344747024304e-57  -3.1149433544876457e-56  1.9915031330893376e-55  -2.0425616420344594e-56  2.3354935819759352e-56  6.6077282303016089e-56  -1.6114624607609613e-56  -3.4881210935357174e-56  2.6147249918352588e-57  6.1438560225856361e-57  1.8068421025687706e-56  8.3156431856915963e-57  4.8547760329912588e-56  4.9389716778839727e-57  -6.0951510046756153e-56  -6.5046900047490945e-58  -1.2038781161102488e-56  5.1894222978498194e-57  -2.6590314858679164e-57  -2.3390345928779420e-57  -3.1408339229893324e-57  -1.0957854313949653e-57  3.2580463850913458e-57  -9.3661288890615179e-58  7.4649933677991974e-57  4.5267508451502581e-57  3.7928260470342773e-56  -1.8652400182388764e-55  -1.8083987592956056e-54  7.8236788360226812e-55  -3.5103842304899512e-56  5.0739986711689905e-55  -2.2763066288264931e-55  6.0416733432604467e-55  1.2300264473539440e-55  -5.8465543562453228e-58  -2.1888601716777248e-56  -1.0657825628769257e-55  -4.7322681135849914e-56  -2.5752786870922348e-56  1.6231363045626362e-55  7.4721669379832241e-56  8.2852186380621288e-56  -1.9373511585448786e-57  -5.0143915982296288e-57  -7.0254087435817410e-57  -4.2307307314864194e-57  -1.5154980616272699e-53  1.9403649498498905e-56  -4.4702147663286038e-56  4.5106832322948320e-57  -5.8545196445984176e-56  -5.4175812269274845e-56  4.8310184224664429e-55  2.7222305279002118e-56  2.8636088743532268e-57  -1.6623470713280788e-57  -1.9186270927004779e-57  -1.9945229845349170e-57  -6.9432225979706841e-60  -2.2143523653860773e-58  1.5847058696994978e-57  2.2064334098405262e-58  1.3271430554338477e-57  1.3566831280544444e-56  -4.4550059661152422e-57  -4.9850397717285348e-58  -9.1857491311436069e-57  1.3268130556701508e-57  2.3040866006796952e-56  -2.2851695451358125e-57  1.4628375519628880e-56  8.4543104837597190e-53  -8.7317133689445248e-54  -1.3662902900500168e-53  6.8672389918622874e-54  -8.7139044438452932e-54  -1.0289221771847645e-53  -2.0889028867533540e-54  1.3322212400155604e-53  3.1625374590409928e-57  -1.2135106019814888e-58  -2.4353484404308745e-57  3.3942669814401538e-58  -2.1404389355887541e-57  5.3046652204004498e-57  -1.3374010511565332e-57  -2.5491080658212352e-57  1.9069410033884888e-57  1.4300860510811946e-56  -6.1865308655273149e-55  3.1275047767665233e-55  8.1629862976398030e-55  -7.5542102118349200e-55  1.4164617071962098e-55  -2.8655646946244472e-54  -5.3400953456713951e-57  -4.1833798076231762e-57  -2.4021711427230405e-57  4.9691895471233422e-57  -1.0011775714438863e-55  -9.3568759520227129e-56  -2.3801425182539895e-55  -1.0443560907317840e-55  -6.2636723759690802e-55  3.9998748296881438e-55  -2.6294484941684538e-55  9.1146156211433234e-56  -3.5604048523289120e-55  -2.3410688792525045e-55  -1.3886447906113660e-55  2.0843637185905930e-55  4.8729666791339165e-59  3.8281461346008175e-55  -1.1408495343058100e-55  -1.8967126099852468e-55  4.7408604165729774e-56  -1.0850792227831107e-55  -4.5388783037996096e-56  1.6440996974668017e-55  8.6193983301642781e-57  6.6682303768033983e-56  3.1994705470504833e-55  -1.6120384404865944e-53  -2.0385351079744442e-54  -1.1932150017841736e-53  -8.5886270550602778e-53  -1.6561679064308047e-53  3.4096937911528677e-54  -4.5482403712265194e-54  1.6359694178496922e-53  -4.8405410071403264e-54  1.8464715308626326e-54  6.2996178403037912e-54  2.0326054741547830e-55  -1.2107848592337341e-55  7.0274197324312499e-56  -2.3040032676587189e-56  -3.2696894325574806e-56  -1.3371720341237879e-55  1.5984569753922726e-55  -7.4408196990591612e-57  -1.4388165087390073e-56  7.5916135332047217e-57  -3.9643389497716338e-57  1.4019510294516927e-57  2.8344636403761250e-56  -4.8306977737338152e-56  -4.4035285512361267e-56  -2.3123807655412642e-55  2.8214494114376823e-55  5.0152357203960738e-54  -2.6474345084281691e-54  -2.8231345225222440e-54  -1.2209030536373023e-54  7.1689342822968968e-55  2.0703652132309200e-56  6.9726770060424168e-54  5.5643564510728841e-54  -1.9062502961846913e-56  -6.6570131771237511e-56  -6.0553232389362465e-56  5.4038885571045824e-57  -1.5344194552554312e-57  -3.2435611280918708e-57  -4.3440744567186447e-57  6.6868037333757877e-58  -2.4575720544893918e-57  1.8259825622500241e-57  2.8625062141273568e-56  -1.1749655354376675e-56  2.3332557166403726e-56  -5.6031283971177763e-55  2.6315788041306266e-55  7.0999657365403159e-55  -5.6255131670485334e-55  2.8490214177974778e-55  1.3692029113234297e-55  -1.2970535659198292e-55  -2.2275181214285436e-55  1.8880674855958825e-55  -2.3542393494555307e-55  -1.1548597992508938e-55  1.5983294620344085e-54  4.1456027850419065e-55  2.1420941030183776e-56  -2.6932769229425391e-56  -3.6062359651986588e-57  -3.2192308614288932e-56  9.9796042852823952e-57  -1.2946086247986563e-57  2.0015141951005002e-56  1.8531125701254912e-57  -2.8649850517177720e-55  -1.7970190570917787e-55  2.7983357542010310e-55  4.8640825968827075e-55  9.4277719932346629e-57  2.0257922061661490e-57  -1.5196515318864861e-56  -2.4532041422733750e-57  -5.8786733838712295e-57  -1.4866160780964280e-56  6.6559760430858958e-56  -1.1613085161417942e-56  -2.1580359763086735e-55  5.7724047428149357e-56  -8.1583567158746261e-56  2.0972381779060356e-57  -2.2301262755225600e-56  -1.0215637530299395e-55  -4.2312616617351938e-56  -7.6957241593491925e-57  -9.7553126356353271e-57  4.9547746694515497e-57  -4.8046539894085630e-57  -4.5612916110960881e-57  8.4938267718390109e-57  -9.4448284751422377e-55  -2.0196060671798358e-55  3.6856684912341414e-57  5.7780836090378880e-57  -4.7467546243879746e-56  1.4081392991524713e-55  6.5912561651147019e-56  1.0060423381267655e-56  -2.2723255154337212e-55  -7.1592697681451495e-56  3.0684706950631384e-55  -8.4630817728697217e-55  2.8450965660772242e-54  -4.3551264795545160e-55  -8.0485526419737559e-55  -1.2506541896059763e-54  7.5245569604309474e-55  -1.4390112727646424e-54  -3.1653763130041070e-54  -9.2900498486753838e-55  -1.8132777754302960e-54  -6.5044498199791453e-56  8.8146588404587464e-56  1.1771970503924767e-56  -7.7331564355321996e-57  -1.0238786266500180e-56  1.4596534740756207e-57  -4.0182142524059519e-57  1.5981231850236864e-56  -2.1483178578365083e-57  -3.7805777728094043e-58  -3.3776395745829007e-56  5.3187208646444500e-56  -2.8753744663363366e-56  -8.1934131172973903e-57  -2.5244872690089901e-56  -3.4482119244720601e-55  5.7519348844953963e-55  -3.1985869410363441e-55  -6.3346351716077696e-55  1.6712723367092032e-55  -9.3949783623943140e-56  1.0215881058545524e-54  -5.7892747640588527e-55  -2.4045550642743588e-55  1.2674609474138477e-55  3.1881976375393281e-54  -6.8595631100867741e-57  -3.1133026192285333e-57  -1.6516081016395392e-56  -9.4384365052353535e-57  -2.0221946468918060e-56  1.3000297388890206e-55  -3.8169958493701586e-56  -1.2304676007184627e-56  -3.2582363249450880e-58  -5.7632410324804057e-57  -3.6147158748989223e-56  5.6186873960935083e-56  1.0699038593074958e-56  3.1139579919101543e-57  -7.3198828412926465e-58  -1.0517359382389206e-57  1.6355092283103464e-55  -1.8415599059787294e-55  -3.8329216312598371e-56  -9.2254647839456699e-56  -7.4521246594310538e-56  1.9576125167427645e-56  8.3849643062379333e-55  -5.5527912368937664e-54  1.7151872347054750e-53  2.8843678339672591e-57  -1.1614919660328645e-57  -3.5153761183734821e-57  -7.1019081785471266e-58  -2.5290840579072075e-58  -1.3349423433622302e-57  3.1746444158009856e-58  5.9063732908964491e-58  -2.7230772578876772e-57  7.4300765412467600e-57  1.3521548929156276e-56  -1.3889325377475597e-56  7.8621331652635407e-58  -1.4008860132091699e-56  -1.3353997895604597e-56  -3.6796221543892572e-57  -1.1306460258233349e-58  5.2479391454808702e-57  -1.5959291546331410e-57  1.8953576507636060e-58  1.2337854303096819e-57  -2.5088685465194972e-53  4.7457890564471943e-54  4.8250581836345165e-56  2.0380630395456879e-54  -6.8231026941296709e-55  2.3061414247633391e-53  5.9643823010972509e-54  2.1787058813538120e-53  9.1606338771981306e-58  -1.1766629942138189e-57  -1.2115737564135114e-57  4.8802385106758355e-58  3.5084336790192927e-53  -1.3211306429918247e-53  -7.3871868837577297e-54  2.5156357304799053e-53  1.2644306607492269e-53  2.5333751546875857e-53  2.2946711559009983e-53  -2.1248982543269561e-56  -6.3693446409068680e-57  8.6074101915104537e-57  -7.4933322668179002e-57  -1.5644812492814705e-56  -2.3570814275546379e-56  -1.1784083595247994e-56  7.7056061158658772e-57  1.9439605199388591e-57  -1.7042181702316943e-55  4.2788643441102227e-56  -1.5903300284847472e-55  -4.2650557925155701e-56  3.2222111228892593e-56  -1.6490290979812220e-55  1.0196718089740596e-55  -4.7446790003348432e-54  -2.1991581373746780e-55  2.1179994076215055e-54  -2.9577380096914941e-56  -1.3083389656395315e-56  -2.8408444208794364e-55  -7.6461116639731074e-56  -1.5999291923272031e-55  6.3692399650762039e-57  -4.8921623969055725e-57  -3.5618409560080729e-57  -1.9699072985632007e-57  6.1288076125316920e-58  -1.3253068629529706e-57  3.8627654178627947e-57  1.4780016021325820e-57  2.8119412015548577e-55  -8.5713593139019635e-56  -2.4483099604829844e-56  3.0800444630750842e-56  -3.7573063268887606e-56  -2.8812110322074910e-58  -4.8021282489642927e-57  1.8100958853907441e-57  -1.0536149332372320e-57  4.7124148114600756e-57  -3.0426185049866610e-57  -5.2480294325904351e-58  7.4340603897263212e-58  3.2825757500195651e-57  -1.9163742672509978e-57  -1.3635381892035188e-57  -5.4665687550741746e-57  -2.5912624443506328e-57  -2.0454251356041261e-57  -2.2625468670928199e-58  1.9235123786091596e-57  3.5448875575697230e-57  1.6913203778545326e-56  3.0819315529843223e-56  -2.7137925338969165e-57  -3.0262537309602237e-56  1.9750008626946102e-56  -6.2318077447288129e-57  -3.0262665531451879e-56  1.8560726936312329e-56  3.9448357437561138e-55  -1.5092797363113718e-56  1.4946751011655001e-53  -2.6501761303982090e-53  -2.0530640088819935e-53  6.1349582156803008e-54  3.7458043814168280e-54  4.1876601843733681e-54  -1.6639934529472932e-53  3.5290651441304576e-54  2.7790539720412472e-52  -3.2862626027048726e-57  3.6341705392256498e-58  2.4106705740917041e-58  3.3336048791819027e-54  -1.2130343505348435e-54  -3.0820056693720703e-55  -9.7811411733353195e-55  1.0345270590789843e-56  -4.3134382561252315e-57  -1.0552154202487364e-56  -7.6322092208581421e-57  6.4298532125141101e-55  -2.6452251297883468e-55  1.2373551359154446e-55  -2.2317996769709972e-55  -1.2038735020231900e-56  -1.8084236776834017e-56  -2.1713334334972861e-56  -1.0065506753646991e-56  4.0516677417696755e-56  -2.9823292575345580e-57  -3.4511640947679521e-57  1.0352273205215619e-57  9.1458834805238755e-53  -1.2155097063990872e-53  -8.1291859446039213e-54  -5.0791655005464056e-54  5.4652606909418834e-54  -1.5202934997476352e-54  3.8735376293530156e-54  1.1634412888221350e-53  -1.2008232128828780e-56  -9.7566726477241773e-57  2.3245178487875429e-56  -5.4337594891998165e-56  -4.3229559045664735e-57  -1.7742181257701268e-56  -1.5591016163881531e-56  6.8640456052343718e-55  8.5893443553845365e-56  -2.6569748764293980e-55  -8.9057769479049883e-55  -3.7423656444167517e-55  6.5786031785524403e-54  -3.2497043758554313e-55  -4.7285226417084137e-55  -8.2893609817274399e-55  -1.7371870656673187e-54  5.3453101317307513e-56  -2.0998110710614781e-55  -1.9618584668701255e-55  -4.7983485821707840e-55  1.8081829349221650e-57  -3.8126534694713300e-55  -4.1675462656544823e-55  9.2301626878404487e-56  -1.4953984580456689e-55  -2.3599569681304365e-55  -3.4956637839391316e-57  -4.1442968781700688e-58  1.3702735538944403e-57  9.7923298243864226e-58  7.9361957460517343e-55  1.9799464056265791e-55  -5.7205988712983392e-55  -4.8820954205419971e-55  6.9132430545210420e-55  3.1840370435657271e-56  1.9527595195734971e-55  -1.1310698950665245e-54  -4.4706222198097961e-56  -3.1872072997384747e-55  -2.9827024619834328e-55  -4.6533781360748081e-55  -1.3958899305024126e-54  -6.1096314104186888e-55  2.5860749309580212e-55  1.9415933284742832e-55  2.9705198619386069e-55  9.7445813959936585e-56  2.4024637226366733e-53  -2.8092695909181930e-54  4.4580692272681832e-55  -4.0698633873275802e-54  6.8514907289307644e-54  3.5159497401690395e-54  -5.7667662547151783e-54  -3.6975881103488641e-56  -1.8895117758159990e-56  -1.0610071656995501e-55  -1.4013605800212026e-56  2.6215861124357199e-56  -2.3410294005352174e-55  -1.6504166735241896e-54  -3.2426909688766141e-55  -4.5596136510776137e-55  -1.9389588617699906e-55  2.0985745881352332e-55  -9.5021142183321116e-56  5.0486775943185564e-56  -1.6055759237134299e-56  -5.8211748521408628e-56  5.3173076479247516e-57  -4.5100432987781946e-57  -1.1327343349975856e-57  -3.2724186340469266