<?xml version="1.0"?>
<VTKFile type="UnstructuredGrid"  version="0.1"  >
<UnstructuredGrid>
<Piece  NumberOfPoints="7414" NumberOfCells="32581">
<Points>
<DataArray  type="Float64"  NumberOfComponents="3"  format="ascii">13.5712369663 22.4494691039 22.150632301  14.71485926995 22.19093935375 22.45016393525  14.24899933635 22.61898323385 22.70917497095  13.6883142441 22.01887502735 22.35481759135  14.0370968999 22.0214252238 21.8916212653  13.8053915219 21.5882809508 22.5590028817  14.36607661415 22.1883891573 22.9133602613  14.1541741777 21.59083114725 22.09580655565  14.5029568335 21.5933813437 21.6326102296  14.9267617064 22.7884973638 23.2677176409  14.69881443405 23.77363718455 22.8516575164  15.39433343815 23.3014339159 22.59115083025  14.42245239065 23.02503641905 22.30074552555  15.8619051699 23.814370468 21.9145840196  16.1786943836 21.8907470626 22.0242491418  16.02029977675 22.8525587653 21.9694165807  15.552728045 22.3396222132 22.64598339135  14.72692535085 22.5650371579 22.218691088  16.1810859301 21.5330032645 23.0426122274  16.05886751975 21.22501538625 22.11820658455  16.060063293 21.0461434872 22.62738812735  15.3420213818 21.5631923041 22.3376112285  16.17989015685 21.71187516355 22.5334306846  15.2209987447 21.0763325268 21.92238712845  15.34082560855 21.74206420315 21.8284296857  15.9390406559 20.5592837099 22.2121640273  13.2113955106 24.3322630878 21.5444305035  14.1945051183 24.0101762398 21.88468540105  14.3122757838 24.5243628432 21.43626609455  13.84113133615 24.54552004655 21.9900139477  13.56476929275 23.79691928105 21.43910195685  13.68253995825 24.31110588445 20.99068265035  13.9181430749 23.2615754743 21.3337734102  14.4708671617 24.7587770053 22.4355973919  13.5518777617 25.3206340971 20.9423302631  13.38163663615 24.82644859245 21.2433803833  14.0113724617 25.0397055512 21.6889638275  14.0491629808 22.39552302795 21.66014841805  16.6841076934 22.5649175251 22.6988106653  15.8054346999 22.67670744445 22.9832641531  16.43259681175 22.0489603948 22.87071144635  16.4314010385 22.22783229385 22.36152990355  15.55392381825 22.16075031415 23.15516493415  15.22145602835 21.07722001195 22.71627202235  14.38239148005 21.10740905155 22.01127102345  14.2618261266 20.6214367594 22.3899318173  15.10043339125 20.59036023465 22.3010479223  16.97674047875 23.324788043 23.31096914955  16.64513594555 22.9203360457 23.6762391767  16.40445319845 23.16166354925 23.23034487225  16.9247904405 22.32359002155 23.14470496975  17.4970777208 22.4867145153 23.22532924705  17.1654731876 22.082262518 23.5905992742  16.1247987035 23.7584095734 23.7618790792  15.52578020495 23.2734534686 23.51479836005  15.1944970826 23.07797371 21.54212427735  14.2226160351 22.80157621315 21.25171897265  14.5270889953 22.341576952 21.1696645351  14.993238726 21.56064210765 22.80080755455  16.27300643165 23.18964399655 22.30669734245  15.2978329326 24.25859328935 23.09873823555  14.57905378 20.66079134575 21.80218709265  14.59131892775 20.1538887745 22.1972950144  14.9208117289 19.6863407896 22.0046582115  14.03360882425 21.1048588551 22.4744673495  13.7446900206 22.8555222891 21.7422028556  16.1529423168 22.64570641895 23.4022456533  16.67327955885 21.80763289125 23.3166057508  16.66895392745 22.3123995506 21.94669907675  2.7912320329 20.5415710974 17.1768446895  1.8325412523 20.226916579 16.72695268565  2.2387221826 20.00053005985 16.43192482315  2.3023885737 20.87356314895 16.7999749446  2.3213847115 19.89492452745 17.10382243055  1.8515373901 19.2482779575 17.0308001716  1.7688748612 19.3538834899 16.3589025642  1.8135451145 21.2055552005 16.4231051997  1.7498787234 20.3325221114 16.05505507825  1.6862123323 19.4594890223 15.6870049568  4.6559240143 24.5145761927 17.9107918083  4.284168173 23.3968926627 18.0862595318  4.0852873935 24.0641960953 17.9885420365  4.57796401265 24.00179718515 17.4519885834  4.8548047938 23.8472727601 18.0085093036  5.0536855733 23.1799693275 18.1062267989  4.776844792149999 23.33449375255 17.5497060787  4.500004011 23.4890181776 16.9931853585  4.00732739185 23.55141708775 17.5297388116  3.5146507727 23.6138159979 18.0662922647  2.8349494553 21.121766247 18.35093976045  2.8746540956 21.15943701185 17.46579125735  2.29885529325 20.9811412367 17.78060199615  2.7515273926 20.50390033255 18.0619931926  2.7118227523 20.4662295677 18.9471416957  2.25915065295 20.94347047185 18.66575049925  1.8064785536 21.420711376 18.3843593028  2.38227735595 21.59900715115 18.069548564  2.9580761583 21.7773029263 17.7547378252  -0.6561989643999999 20.9562988286 15.6099493059  0.8514690578 20.3441064241 15.23893561995  0.4868551423 20.5420283614 14.85604634695  0.8514690578 20.77086325965 15.4502585231  -0.6561989643999999 20.52954199305 15.39862640275  -0.6561989643999999 20.1027851575 15.1873034996  0.4868551423 20.11527152585 14.6447234438  2.35913708 20.5854276907 15.2905677403  1.9945231645 20.35659279245 14.69635556415  1.629909249 20.1277578942 14.102143388  1.65806079065 19.79362345825 14.8945741724  2.66554706545 19.83077976085 14.4198104503  2.02267470615 20.0224583565 15.48878634855  2.6936986071 19.4966453249 15.2122412347  3.03016098095 20.0596146591 15.01402262645  3.7011848819 19.5338016275 14.7374775126  1.619303498 23.6284900209 20.1721459364  1.5445486546 22.6052671636 19.39304085005  0.9954505539 22.8049518741 19.83092854405  1.14352203225 23.4393479423 19.7048895429  1.69262013295 23.2396632318 19.2670018489  1.47123201965 22.9940939527 20.29818493755  1.3231605413 22.3596978845 20.4242239387  0.6677405665 23.2502058637 19.2376331494  1.2168386672 23.0505211532 18.7997454554  1.7659367679 22.8508364427 18.3618577614  0.55486890175 23.22866352355 18.16567355085  0.7598806646500001 23.89830968895 17.9591002452  0.005770801050000052 23.42834823405 18.60356124485  1.4218504301 23.7201673186 18.59317214975  -0.6561989643999999 23.6064906044 17.9694893403  2.1759602937 24.1901287735 17.9487111501  1.9709485308 23.5204826081 18.15528445575  1.7566000504 16.1063782541 15.0307709515  1.6755433796 16.3047242835 15.69193312175  1.67672129965 17.0241441897 15.22198105955  2.3482576041 16.52749485575 15.50117976025  1.5968425489 17.9419101253 15.4131911676  1.59566462885 17.2224902191 15.8831432298  1.5944867088 16.5030703129 16.353095292  2.6042452793 23.9946351444 15.4956799492  1.6280641749 23.0634947107 15.90411542735  2.183647349 23.77636286915 16.1236500766  2.57446282155 23.19062825005 16.0534587777  2.0486621052 23.28176698595 15.27614529995  1.4930789311 22.5688988275 15.0566106507  2.01887964745 22.4777600916 15.83392412845  2.5446803638 22.3866213557 16.6112376062  2.15386489125 22.9723559748 16.6814289051  1.7630494187 23.5580905939 16.751620204  0.6753821113 23.8225963784 15.5654546852  0.38721396445 23.4117501214 15.10847035225  0.6734503621500001 23.6059321699 15.15765180765  1.0530045023 23.79475570695 15.2839839452  0.009591573450000057 23.43959079285 15.38994109225  -0.6561989643999999 23.0565852073 15.2144274993  0.007659824300000062 23.22292658435 14.9821382147  1.4306268933 23.7669150355 15.0025132052  1.05107275315 23.57809149845 14.87618106765  0.671518613 23.3892679614 14.7498489301  4.8940061828 15.7167001943 16.9436178655  4.30636666605 16.40375496495 16.56720348325  3.8846305222 15.7363327234 16.45952296075  3.960448168 16.3300352264 17.17470643555  3.0268901532 16.9433702585 17.4057950056  3.37280865125 17.01708999705 16.7982920533  2.9510725074 16.3496677555 16.6906115308  2.8752548616 15.7559652525 15.975428056  3.29699100545 16.42338749405 16.0831085785  3.7187271493 17.0908097356 16.190789101  4.3149087322 22.1834362976 14.7393366044  3.54212080475 21.97082951955 14.2520158845  3.94026744615 21.57231453695 14.6692060715  4.02738355765 21.9112905488 13.79081904875  3.5656261601 20.9611927763 14.5990755386  1.3917772816 23.73740075855 18.8487558713  1.89763189585 23.9093093972 19.06042854325  1.31846064665 24.12622754765 19.7538999588  1.0176177953 24.6239650744 19.3356539812  1.5967890445 24.40704692395 18.64218256565  -0.6561989643999999 17.2729270364 16.0131092881  0.4691438722000001 16.1363871618 15.9943898862  0.4691438722000001 16.6554584094 15.71320920505  0.4691438722000001 16.88799867465 16.18310229005  -0.6561989643999999 16.52131552355 15.82439688425  -0.6561989643999999 17.04038677115 15.5432162031  -0.6561989643999999 15.7697040107 15.6356844804  5.1644696904 20.822949905 16.7477330808  4.36380542345 20.8580226542 15.91249007295  4.5196447664 20.6672979211 16.51416210875  5.1120674859 20.476891133 16.0276697541  5.00863034745 21.0136746381 16.146061045  4.8527910045 21.2043993712 15.5443890092  4.4672425619 20.3212391491 15.79409878205  4.95622814295 20.6676158661 15.4259977183  5.0596652814 20.130832361 15.3076064274  3.8748198424 20.5116459372 16.2805911367  2.4434392939 22.87222087145 15.0901911757  2.66863160035 22.96881970745 15.39191896285  2.999022468 23.5850890299 15.30972582495  3.3937996567 23.1755429154 15.1237717007  3.06340878905 22.55927359295 15.2059648386  2.11304842625 22.255951549 15.1723843136  2.7330179214 21.9430042705 15.2881579765  4.2517290817 25.1234287404 18.8280366744  4.17284854715 24.26622940675 18.5460257115  3.97075108085 24.5706556806 19.00464814455  3.8831899272 24.36862236915 18.44716446955  4.453826548 24.81900246655 18.36941424135  3.60221192635 23.81584930935 18.6237759397  3.68977308 24.0178826208 19.1812596147  1.7644930933 23.2044635183 17.5567389827  2.6388500957 23.5859532959 17.40895623435  1.9695048562 23.8741096837 17.35016567705  2.6402937703 23.2323262203 18.21407501305  2.8453055332 23.9019723857 18.0075017074  2.3283886146 25.5916986783 16.2209932948  1.7209843309 25.0474785663 16.6657301075  1.5264603135 25.6178235686 16.8078802561  2.03704965865 25.5347358429 16.8686191138  1.5017339417 25.1875291274 15.9573654308  2.01232328685 25.1044414017 16.0181042885  1.81779926945 25.674786404 16.1602544371  1.3072099243 25.7578741297 16.0995155794  1.6962579591 24.6171841251 15.8152152822  1.7457107027 25.4777730075 17.5162449
[...]
<PointData  Scalars="c_HbCO2"> 
<DataArray  type="Float64"  Name="c_HbCO2"  format="ascii">2.4470928231293912e-34  -3.5253465414298036e-35  -4.1000340011221939e-35  2.1218377927127296e-35  -5.1933828969207834e-35  1.6479222116583064e-34  5.7920870372002737e-35  -1.2897343441888279e-35  1.5057040094354202e-35  8.1826567843769357e-35  -7.8904428224720969e-35  -8.5569834133509210e-37  -3.7690424714817185e-35  8.8752910767351669e-36  4.3569899097423671e-36  -2.2567057983562830e-37  -6.4266427962356534e-36  -8.3149699000207565e-36  1.1212917751195171e-35  -1.3381253262916372e-36  -1.5305299419830395e-37  3.1905683166802898e-37  -1.8215456980393726e-36  -3.5541531314935299e-36  3.5161279832487607e-36  3.0371702749478519e-36  1.1819465492611770e-34  -8.4981138933258104e-36  -1.6323230393914188e-35  6.0843689724990786e-35  7.0543950682910137e-36  -1.0306397907462808e-35  2.5301286667470329e-35  6.5096615152229446e-35  7.1289371246791859e-36  -1.8561375932809800e-35  -1.9222200587774840e-35  -2.3849763833807614e-35  2.5237619896744003e-36  -1.0776110513271954e-35  1.8300118424394695e-36  5.7892365676914451e-37  -9.8040060396171457e-36  -4.6473461763080142e-36  -1.1911626620995358e-35  3.8699011945178424e-35  -3.2502997819452521e-36  -7.1081832609629604e-37  -1.4116337217287840e-36  5.2396313318824834e-37  7.2116916396649783e-37  -1.3004634910480389e-37  6.5481104907132347e-37  7.7326618187586241e-36  -6.7587303174815608e-36  3.1039071569591438e-36  8.8017220283186118e-36  6.7970754160847192e-36  -3.1147424022120623e-35  -2.6788610877418950e-37  6.6724331434025543e-36  -4.2834349648540534e-36  -2.7696033820091882e-36  4.1508373964348337e-36  -2.7250086249222912e-35  -1.0677845652116291e-36  -2.7616528038557872e-36  -2.4600074090108983e-36  -6.0587918472182490e-37  4.1367015360737542e-24  2.7929538927608724e-23  -3.2044202305234640e-23  -3.5521025025445056e-23  -2.0836911537343971e-23  7.3400997023414956e-23  3.3975019608308618e-23  1.1111979117595367e-22  3.1991060694597703e-23  1.2090627827632774e-22  2.9909123588195966e-25  -3.3378088247635886e-25  -4.9256936777081731e-25  1.4004191044031958e-25  3.9293568887987385e-27  1.8817005334623745e-25  -4.1049937115719826e-26  6.2214870831295767e-25  -4.5743682171517262e-25  2.7422316808277989e-24  -1.9112755322396266e-25  -2.9382614635559230e-24  -2.0910955972184731e-23  -4.4381753359203140e-25  4.8054136909292758e-24  -1.3556972520270229e-23  6.5103723979425594e-23  -1.6145960620538723e-23  3.3022496988320454e-24  6.4000000000000026e-22  -5.4885215113105844e-23  -4.1988659970683441e-22  -2.3960959227411908e-23  6.3999999999999988e-22  6.3999999999999997e-22  -2.9980385714107120e-22  1.6563701400912101e-23  -1.6408873226111616e-23  1.2551786995694216e-22  3.7513945468142439e-23  -1.4939920609412888e-23  -2.7136240660961650e-23  -5.6640386295761392e-24  -3.6201185862905207e-25  1.9662792939311676e-24  7.3202971345805260e-24  -1.1637917993466264e-23  -6.8997929572297122e-24  -5.2332589673493168e-24  -1.1312883298280908e-23  2.1280845164955693e-24  6.4562181876807549e-24  5.7331328407031126e-23  1.1600579609695875e-24  5.1623969650454860e-23  -1.2640620073015146e-22  3.7937765982657083e-24  -6.5049261654648119e-23  -2.3812917122783735e-23  6.3999999999999997e-22  2.1485546168753673e-23  -1.9827735580483235e-23  1.0025807777876551e-22  -1.6570054846128439e-23  4.0970810139743042e-23  -2.2761794105223943e-23  1.1319855619690325e-22  3.7775604779430776e-24  1.2312633336688707e-22  9.1397025467658362e-24  4.5375482241680790e-24  -1.3836356469071839e-23  -1.4455783140011308e-23  -1.4279658370415032e-23  1.0987621048456369e-22  -2.1543058517302656e-23  1.5578967459593156e-23  -1.5309159631178175e-24  9.6728138794226006e-23  9.3363696745090084e-23  -6.7359443750879648e-23  -2.7395894696160102e-24  -2.1880123756759674e-23  -4.4194543291662587e-23  6.3999999999999997e-22  -2.7176353532447799e-23  1.3556125963756489e-23  -2.8345220370359304e-23  1.1838821568355740e-22  6.5896468364394813e-25  -2.0680997839909964e-25  -1.0351920659599548e-24  -6.0068272339347633e-25  4.3539765986771057e-24  7.6012545569182567e-25  -7.3752008236338506e-24  8.7982560542932207e-24  1.9716558882481402e-24  3.6838678577076307e-24  7.8000187603846465e-25  -4.2800723497166034e-24  4.4565349201344486e-25  -6.5203914440671894e-26  1.9590281702496813e-24  -1.2563888012730306e-23  -4.1727509635217349e-24  -9.5805433704292896e-24  4.0125053580395126e-23  2.9088267969494411e-24  6.4000000000000016e-22  -3.5970384559686753e-22  -1.8737918217345779e-22  -1.3548175149157120e-22  6.3999999999999988e-22  6.3999999999999997e-22  6.3999999999999997e-22  1.4505251869112998e-25  -2.6176434497994171e-25  -2.8705964197670895e-25  -1.2941052363814076e-25  1.2351276190752912e-25  2.2780677877826710e-25  -3.3096514254271797e-26  -7.1922775744115250e-26  3.3335501161126071e-25  1.4901390498106037e-24  -8.0158309434148285e-24  -5.8197113569954503e-24  3.7578432436136174e-24  2.7395839344598290e-24  -5.1587806866182600e-25  -2.0145692946872849e-23  8.5937599993100535e-24  3.8988894749342587e-25  -2.2371308694756625e-25  -7.7772042782767680e-26  -4.8090946960275219e-25  5.8692646571362835e-26  -9.6794657671628116e-26  8.3065896081966315e-25  4.8313208508923286e-23  -1.6810759277133524e-23  3.1899374605986985e-24  -3.8904734666408076e-24  -1.3162518009070259e-24  9.5744207877381299e-24  -2.7223341204305315e-23  5.2427999502960032e-24  -1.9987902513130662e-23  3.3757830774909778e-24  6.7605064236320509e-24  -6.7660514914993801e-24  3.8877374768495891e-23  1.2364880461403103e-23  1.0415842755028037e-22  1.1798861207820525e-22  3.2063290873921860e-23  -2.1487566939876905e-23  -5.4257151743488260e-23  5.1724008453616514e-24  6.3438843900924550e-25  -3.3934952525905068e-23  -1.2546144979742987e-23  3.2915314804444843e-23  3.4178739158924040e-23  -9.7743668935320956e-23  3.6517297650240083e-24  -5.6701732020120686e-24  -5.4153944138389957e-23  -1.7919482638412991e-22  6.3999999999999997e-22  6.3999999999999997e-22  6.4000000000000007e-22  1.1524009916297546e-23  -1.3049912506298809e-23  -5.4717942355719527e-23  -3.1061170090057830e-22  -2.5147406891851307e-22  -1.5306314479292717e-22  -2.1559790169083349e-23  1.0476856755243402e-23  2.3795818882660280e-24  -1.7653058713719315e-23  -2.2903955999563912e-23  4.6772015568579270e-25  -2.8991664722692920e-23  7.1688882815818688e-24  3.1479484458823229e-23  6.3999999999999997e-22  -8.7915774005599650e-23  -1.7506936961091137e-22  -2.4227995280421749e-23  3.3154542550117388e-23  -3.0385198446325921e-25  8.7942940435914906e-23  6.3999999999999997e-22  -2.9693379962056026e-22  -9.8422808967198264e-23  -5.0581020039277684e-23  6.3999999999999997e-22  -1.4154821580195409e-23  -3.5990151191348833e-25  1.1478281582448706e-22  1.5072193053544944e-26  -2.2594580913080842e-25  -1.1533690277463149e-25  3.9519742883137414e-26  -9.0711558326887856e-26  4.8107233952971264e-27  1.1617825720939090e-25  -5.0550444045597344e-26  5.8127020569144875e-25  3.6627712453023245e-25  5.5593413083366569e-25  9.0777499220911737e-28  -2.8552544036915098e-25  -1.5951176573210303e-26  1.5521329381607259e-24  -7.2511373052046512e-25  3.3680011378011500e-27  -2.8935102539140790e-25  5.5344390417295264e-25  7.1311317509772575e-25  -1.0136972548874833e-25  -1.2449675649571074e-25  -3.0429544592831305e-25  -3.6877591647157805e-26  4.7919560296406151e-25  -2.9090467367854274e-25  3.5830640981119940e-24  1.3543746011471429e-24  1.6389804580596739e-24  -3.1852131424861352e-25  -5.5728643977951731e-26  2.6694584932526926e-25  -4.3261950441563442e-25  2.2638112401040735e-25  -8.6265916955541138e-26  1.1921033413390317e-24  -6.2988084192536152e-26  -4.0687060698845012e-25  -1.4035984501602565e-25  8.3819399075442019e-25  -5.7759608784389590e-25  -5.8703233727728907e-27  6.0332564584152175e-26  -1.6909506063159428e-24  -4.5594654568778948e-25  7.3764056328288779e-24  4.8141073687821987e-24  -7.9559067873381409e-24  -6.9603713059307468e-24  2.0821186964054712e-24  3.1334889842689955e-25  -9.4144199675646716e-26  -5.3850855542616791e-26  -1.1125220672339963e-25  -1.3019806182908510e-22  4.0338370799146991e-25  -1.0074833532851355e-24  -2.5057174672827603e-25  -1.0202456181909925e-24  -3.5254706850652215e-26  -6.2427046479848519e-25  2.1930181695249666e-24  6.4000000000000044e-22  -1.5454620235016413e-22  1.8443644009200844e-23  6.3999999999999988e-22  6.3999999999999988e-22  6.3999999999999997e-22  6.3999999999999997e-22  1.2662793747246514e-24  -1.9179638765955576e-25  -2.1505923598341319e-25  3.3992354240546958e-26  6.4000000000000026e-22  -3.2248956412283292e-22  -1.0638671867998796e-22  6.3999999999999997e-22  6.3999999999999988e-22  6.3999999999999988e-22  -5.4553575213818637e-24  -2.4195360357233680e-24  -6.7576804656911826e-25  -1.7319412692944197e-24  -2.9940568038807264e-24  -3.1962382320302601e-24  -8.3896053653960156e-24  -1.0796902989811842e-24  4.1232715717682748e-24  -4.6129469256657800e-24  -4.6749065156466623e-24  1.2898008333467157e-24  -3.6676993780268335e-24  -1.4539184952243592e-23  -2.7708942193826231e-22  -1.5829587446876128e-23  5.4324041492065337e-24  -7.9246207989319770e-24  2.9222681743431926e-24  -6.8155848696918951e-24  -3.0265744531298475e-22  6.6822380062020757e-24  4.9496945361747535e-23  6.4000000000000026e-22  2.8102037664879668e-23  -2.1795833008955881e-22  -1.6355424000721609e-23  4.1068380125776630e-23  2.1651991059623914e-23  3.0265805848249431e-23  3.8067596026670382e-23  5.1820788635271781e-23  -2.6833439014009925e-22  -2.2668383615702291e-22  6.3999999999999988e-22  6.4000000000000007e-22  2.6381380910988921e-23  7.4239458215390986e-24  -1.6020446392246825e-23  -1.2277653437085589e-23  -1.3959215726675606e-24  3.2475177313361116e-23  3.8376957470736758e-23  -1.5737618664435684e-24  7.8692494615992325e-24  2.8317242859706950e-24  2.3154317610284030e-24  -1.1914572551956953e-23  1.0448344734064391e-24  -3.0399805929207350e-24  -1.9249000130949554e-24  -8.4760054019376929e-24  4.4179725873176323e-23  8.0812246916411869e-26  -7.1561051534071909e-25  -2.5907620409294519e-25  -1.0566762868611561e-24  -2.0105246995877626e-24  -5.9905054449548893e-25  -2.5695126485594168e-24  1.1080935636053382e-25  -5.9193904084974400e-25  -1.9342531366109999e-24  1.5585538783143524e-24  -2.4434209859778625e-24  -1.5822586565203217e-24  -7.8754439973928508e-23  -1.7805789323516700e-22  -7.4132656981793305e-23  6.4000000000000007e-22  6.3999999999999988e-22  -2.7974095934381306e-24  2.0797748699144094e-24  1.8830967954509700e-24  6.5160872061535292e-24  -9.8451738983029426e-24  -9.3386460399808366e-24  1.9648362937405330e-24  1.6878303011509702e-24  9.5532598916322166e-25  6.1396634495461171e-25  -8.5846550068119741e-26  -1.8950117878424411e-24  5.0385602242323948e-25  -1.1498527822987370e-24  -1.4118727506074869e-23  -1.9316090739370438e-23  -5.8254099325010965e-25  4.6525229938607387e-24  4.9919149672901321e-24  -9.4836731533081650e-25  -6.9776741636215535e-25  -6.5260382587319465e-25  4.2239683969411562e-25  -1.4560600850625481e-24  3.6783179835895290e-23  -2.7684383081488897e-23  -2.3691729236151350e-23  7.8950828123549199e-23  -3.6582605505649556e-25  3.1740368750905374e-25  -6.3308029878647826e-24  -8.3634330871083260e-24  2.2372252414075615e-25  -1.6333473019615786e-25  -4.3581382011950465e-25  -2.3403370215375565e-25  6.0899277648989480e-27  -6.8605295017846018e-26  3.9915431245396673e-25  -1.4546716288324126e-25  -6.9320379049103921e-25  -6.8323820952223652e-25  -5.3257692050661591e-24  8.2648146798422068e-25  -3.0997142600759388e-24  -5.9752725077988290e-24  -2.5655380325593179e-23  -8.7533876996108684e-25  4.0405267001419295e-24  9.1699573967713857e-25  -8.6092901596425432e-25  -7.3774605683391478e-26  -1.5811891579446219e-25  4.4070444888629164e-25  -1.8459884782636835e-25  -4.2732121251706923e-24  -2.5239673789672306e-24  -1.2383004238148869e-23  -5.5015930801265810e-24  4.4382320431250510e-24  -5.1109185719290741e-24  -2.3067215475068602e-24  -4.6787662398889573e-24  4.8034089030631661e-25  -1.8163222151642833e-24  -1.5529019664875536e-23  -3.3848567268776381e-24  4.8067598396535805e-24  2.1074926957317975e-24  -7.0527707328025766e-26  2.0048549324227820e-26  1.9062531592422009e-25  -2.0941179680458632e-25  -2.9125509866432771e-22  -8.1789321040077057e-26  -8.8061120532078611e-26  -3.4937434515216292e-24  -4.1136119259545041e-25  2.9981728954335881e-25  -8.0410298541358951e-25  6.3999999999999997e-22  2.8679555601049101e-23  6.3999999999999988e-22  1.8110527615448933e-24  -9.8306884088153408e-24  -3.7263475379953945e-24  7.4659557442808723e-23  -2.8485339624663670e-22  4.1294063175398795e-23  5.4667677248763344e-23  -1.1594046989480921e-22  6.4000000000000007e-22  3.0295613020076523e-23  -2.0838143350533963e-22  -2.9566335608937936e-22  6.3999999999999997e-22  6.3999999999999997e-22  -2.5905157942086333e-22  1.9340007407512743e-23  6.8201229003637291e-24  -3.8327602045487701e-24  -2.5237546838696174e-23  9.0785954673678844e-26  -1.4324055287543082e-25  -3.0279547830890712e-26  -1.2419866525001686e-25  -6.4332842036104313e-25  6.3999999999999997e-22  6.3999999999999997e-22  6.3999999999999997e-22  6.3999999999999988e-22  -2.5155952989423533e-22  2.6070462352123914e-23  -1.7600877389806194e-23  -6.9327427757254824e-24  -1.1814763849022750e-23  -2.8676114529013646e-23  5.9474447348864871e-23  1.8475142139141744e-23  1.1798816643263013e-22  -4.9550132909686427e-24  -5.8263397325645724e-25  -6.7244516778269794e-24  1.0221468366461731e-24  -3.1763384670546141e-23  -1.5069657765416927e-24  -1.5276856877879084e-23  -2.3068521136599043e-24  -2.4545061958423074e-23  -1.6576229333964082e-23  -1.5492719823577423e-25  1.9211619898401627e-24  -7.8719210831302689e-24  -2.8492379442977496e-24  -5.2944832415535242e-24  -5.5245086629424972e-24  -8.8947197397099942e-24  6.7852482826918177e-26  1.0274056253498344e-25  -4.7631587247128496e-27  -7.9326304100873239e-26  -6.8122616522362696e-26  -1.3579754757500396e-25  9.1228297260810966e-26  3.8346362452344909e-25  6.3999999999999988e-22  -8.6525830291132614e-23  -8.2986155018085841e-24  -2.4090080343990912e-23  -3.5407838588029902e-25  2.3449235230246485e-24  3.5321095168918525e-25  -5.2923926280483261e-25  3.7055004998333849e-24  1.9084171135663215e-23  -1.4748171621443500e-23  -1.8043627307054602e-24  -4.3398810986654175e-26  -1.0593612050465888e-23  -8.1663705101018717e-24  3.4789357425351429e-24  8.0944660165891926e-23  -8.3062906989573071e-23  -3.3769971713690994e-23  3.0401334312226980e-25  -2.2115432777817427e-22  -5.4392487882323064e-23  6.4000000000000016e-22  6.3999999999999997e-22  6.3999999999999997e-22  -3.3222456993623000e-22  -2.1549511150923176e-24  2.0819291885923713e-24  -2.7324864507939529e-24  1.1518646570822103e-23  -9.0574628561511091e-24  6.2238911528420218e-25  2.1908619513573140e-24  1.6148773381926656e-24  -1.6956337448725932e-25  -8.4255010717669964e-26  -1.1521076718110109e-24  -2.5509408344157502e-24  2.8954206560254238e-23  -2.5918920413687399e-22  -5.0796566725887770e-23  6.3999999999999997e-22  -4.3897498971575864e-25  -4.2538308764726965e-25  -1.3590769104045530e-24  -1.4004312733362123e-24  -1.2194216655392655e-24  1.3019231076115771e-24  -8.1720509127028007e-24  -3.6230848448960497e-23  2.6639052450119822e-23  3.5876023384664036e-23  -4.9260313306835847e-25  -8.9863493093920095e-25  -1.6683009429537347e-25  -5.9485954452125723e-25  2.9159385812274482e-24  -2.6646801829094716e-24  1.4906091254949938e-24  -1.2092541407614870e-24  -1.9591141103857100e-24  -1.6869623475036868e-24  -3.1052020490756503e-23  -6.2755853758566088e-25  -1.2282177487477639e-26  1.5910995020812667e-25  1.5770578219496818e-25  -9.2742749368183514e-25  -1.8190554071386061e-24  6.3999999999999988e-22  -1.2743934216351844e-23  -6.4223521426190041e-24  -2.7516288509811592e-24  -2.0346437113030948e-22  -1.2211932617530004e-24  -7.9851020341662882e-24  2.7970024849832731e-23  -5.8837254277533022e-23  -2.6527471344526784e-22  1.2596518255883314e-22  4.4332780014391106e-23  -3.7636306917659249e-22  6.3999999999999997e-22  6.3999999999999997e-22  6.3999999999999988e-22  -8.8983681854973116e-23  6.3999999999999988e-22  -5.5432971957523841e-23  -6.2941498841351385e-27  -2.3505338663468785e-26  -6.6135873723194874e-26  -1.1085789994710816e-26  3.7063435316978536e-25  -8.9417649069787186e-24  2.1089897158152528e-23  2.8035864666017597e-23  7.0698495685645538e-23  -1.5339861420474149e-22  -2.0026563243381827e-22  6.2158373283940441e-23  -1.0200525491542140e-22  6.3999999999999988e-22  6.3999999999999997e-22  1.1443440844873415e-22  -3.7034579129684862e-23  -3.8999746503710799e-24  4.8276011487720305e-25  -1.4655975948591046e-24  -7.9063907339394601e-25  -5.8421035512384091e-25  -7.0821851400359128e-25  -1.5085567866745639e-25  6.3999999999999997e-22  6.3999999999999997e-22  -6.6561220588688453e-23  6.3999999999999997e-22  1.6966621715152226e-23  8.8818089721396480e-24  -1.5229607576755293e-23  -2.2370107982614527e-23  -9.4343912173168539e-26  2.2704253367558543e-26  -1.0443157746382082e-26  1.0182610322380351e-25  -1.9931997110288407e-23  -3.0806716633072381e-23  7.7873613510505255e-24  -1.9778816641042273e-22  6.3999999999999997e-22  -3.9439372169714522e-23  -2.5558182047760204e-24  -5.6163731680752320e-25  -8.5160079868783373e-25  1.8215373006208316e-23  1.0310577211556603e-23  6.9145883810764002e-25  -4.1916823545073351e-24  7.8322325760047048e-24  -3.3060035992059833e-28  -5.8684759956408704e-26  -2.2191256758933076e-26  1.5809431543569004e-25  1.6263483283893625e-25  -6.9119090991083964e-26  3.8911451713108032e-26  4.6598530157470934e-25  -3.3425649659969946e-22  6.3999999999999988e-22  -1.5163264861375990e-22  6.3999999999999988e-22  -3.1562247519211326e-26  -6.3562953544746114e-26  1.0309996304082081e-25  -2.8147818350161098e-26  -6.1841559992707271e-23  6.4000000000000007e-22  6.3999999999999997e-22  -1.7052367176675129e-24  2.8283597399562989e-23  -1.0355564950939966e-23  -2.2211411951787368e-22  6.4000000000000016e-22  -1.8121286007313501e-22  1.3947086939996162e-26  1.1328141902862261e-26  8.8305149458689646e-26  -3.7333585005503228e-23  3.8275426134814375e-24  -2.1125314622206518e-23  -2.0014003047503228e-23  -1.4134732199348160e-23  -2.7161017007442186e-23  -1.6697643256388859e-24  -2.1024928838203649e-25  2.3905680281710917e-26  -7.6859103932819165e-25  -1.0757958201230645e-24  2.9647315356002423e-24  1.3819584625087075e-23  -2.5462333681698976e-22  6.3999999999999997e-22  6.3999999999999997e-22  -2.3993664326504444e-23  -4.6321434695615063e-22  -5.0215823852461442e-23  6.4000000000000007e-22  -8.1183694248635644e-23  -9.9291452062940360e-23  -3.1121595603490172e-23  6.4000000000000007e-22  -1.0794499231254578e-23  6.3999999999999997e-22  6.3999999999999997e-22  -3.9709484076976648e-22  -1.6244780491064016e-25  -7.5919370720740162e-25  -2.1383263181997485e-22  2.8413815939511412e-23  -1.7174504108290894e-23  -3.4810646382793045e-22  -1.2031341870841891e-23  -1.2071669187702728e-23  -8.2878675639578469e-24  -2.0341387355253290e-23  -5.7758468178261512e-23  -2.4409013829095605e-25  -1.1673022927673084e-25  -8.0809773850124964e-25  -2.7817537337012975e-25  5.9333971707000452e-26  -2.2041235587048110e-25  -1.8664519999132599e-23  -1.8207440735806790e-23  9.9464171600904258e-24  6.3999999999999988e-22  6.3999999999999988e-22  6.3999999999999997e-22  -1.3738947439297486e-24  -3.5629916146117554e-22  -1.0573331458044014e-22  -1.4355417150069166e-22  2.8437024344409743e-26  -7.2616580103085649e-26  -1.1167869896551096e-24  -2.0469324085915601e-23  1.5643613490372136e-23  -1.4615705947848241e-23  -2.7553833882074155e-25  9.7034201386690008e-24  1.3938262461451576e-24  -7.1100770232283375e-25  -8.3447994621110379e-25  -6.7524164900442027e-26  3.5411907229235058e-24  3.8281966023540066e-26  -1.5986832214487179e-26  -1.2971915510136714e-25  -6.7524583206171962e-26  5.5782567929292829e-25  1.0935368981645801e-24  4.4381180796487981e-26  -1.3927166379125066e-25  -1.0857698531029112e-25  2.514946943