<?xml version="1.0"?>
<VTKFile type="UnstructuredGrid"  version="0.1"  >
<UnstructuredGrid>
<Piece  NumberOfPoints="7677" NumberOfCells="33906">
<Points>
<DataArray  type="Float64"  NumberOfComponents="3"  format="ascii">16.7230806402 4.3948158513 21.545709395  16.5136136566 4.8620859255 22.1788578014  17.4539813673 4.72934189035 22.3039468776  16.91264112255 4.43960870465 22.6003937589  17.1022016049 4.484401558 23.6550781228  17.2445143837 5.19661196455 22.937095284  16.70317413895 4.90687877885 23.2335421653  17.64354184965 4.774134743699999 23.3586312415  18.1848820944 5.0638679294 23.0621843602  16.304146673 5.3293559997 22.8120062078  19.1051598216 4.286580303 24.3147401918  18.645020958 4.6752241162 23.688462276  18.29964693485 4.951794342099999 24.4696454453  18.93829453445 5.14640416095 24.0845119038  18.7714292473 6.0062280189 23.8542836158  17.83950807125 5.340438155299999 23.8433675295  18.47815567085 5.53504797415 23.458233988  18.1327816477 5.81161820005 24.2394171573  17.4941340481 5.6170083812 24.6245506988  20.9981169749 1.3033283608 28.0260205712  21.09183453495 0.66556992075 27.56068267685  21.19274818865 0.9554585622 27.1586374241  20.73535770475 0.9950265680499999 27.8778946182  20.83627135845 1.2849152095 27.47584936545  20.674425742 1.2665020582 26.9256781597  20.5735120883 0.97661341675 27.32772341245  20.4725984346 0.6867247753 27.7297686652  15.1414342904 5.2490815218 21.6364574912  16.1914216904 5.1935087541 21.954106405  15.7227904817 5.28921876075 22.2242318495  16.1641764876 5.604312333299999 21.82462928775  15.6100654991 5.15337151515 21.3663320467  16.0786967078 5.0576615085 21.0962066022  16.6328076963 5.508602326649999 21.55450384325  17.1869186848 5.9595431448 22.0128010843  16.7455326789 5.64444957225 22.41240364605  18.7274933411 6.1245071437 28.08074101  18.47402008335 4.93967733315 28.0975200142  18.6799890448 5.372338251 27.5605573905  18.09722616465 5.78781085185 28.07575917905  18.52152437965 5.69184622585 28.6177036337  17.4669589882 5.45111456 28.0707773481  18.04972186835 5.03564195915 27.55557555955  17.8912572032 5.355149934 28.61272180275  18.3155554182 5.259185308 29.1546662574  18.6324847485 4.6201693583 27.040373771  18.27432186165 6.24359939025 24.89423219365  18.18042827685 6.68884063385 24.3193846179  18.91296946125 6.4382092091 24.50909865215  17.5894273064 7.3714532488 24.78448562  17.54178067725 6.494230815 24.7045181594  18.3219684908 7.12082182405 24.97419965425  19.0545096752 6.8701903993 25.1639136885  17.7678727956 3.4742696668 25.1113027691  17.43503720025 3.9793356124 24.38319044595  17.93352602335 3.53462828415 24.3745312345  17.4075185584 3.34147235535 24.5799234788  17.0471643212 3.2086750439 24.0485441885  17.07468296305 3.84653830095 23.85181115565  17.57317178615 3.4018309727 23.8431519442  18.0991792511 3.5949869015 23.6377596999  17.600690428 4.03969422975 23.64641891135  15.3605178292 9.145695873599999 22.094045242  15.8765359182 8.326250324 21.3628519793  16.32934315155 8.952147184400001 21.53469438755  15.93385638885 8.620280470299999 22.03408491555  15.30319735855 8.851665727299999 21.42281230575  15.69868412125 9.183532441400001 20.92342177775  15.7560045919 9.4775625877 21.594654714  16.1514913546 9.8094293018 21.095264186  15.2458768879 8.557635581 20.7515793695  16.5071949485 8.094865067000001 21.9741245891  19.0200030163 7.1650230744 27.1854075709  19.72853320505 7.1410707512 26.34460821015  19.02696750385 6.5351105095 26.7611275309  19.03725634575 7.01760673685 26.1746606297  19.0442208333 6.387694171950001 25.7503805897  19.0339319914 5.9051979446 26.3368474909  18.0516775677 5.909058077699999 23.01420081365  17.5526958629 6.3568956854 22.4895091757  18.3874707758 6.2036578367 22.4990996233  17.6859003896 5.511705537099999 22.53749272225  17.918473041 6.754248226 22.9662172671  17.6045500236 9.654671730600001 20.931258742  17.4632706026 9.1928913946 19.66681512835  17.4569863072 8.99483024885 20.1497377472  17.07973809915 9.2475489208 20.2454065921  17.98808252705 9.600014204400001 20.35266727825  17.98179823165 9.401953058650001 20.8355898971  18.3590464397 9.1492343867 20.7399210522  16.5549261747 8.840426110999999 19.5595544422  18.1402394692 8.4888725105 22.6395883143  18.14881582855 7.7447962494 23.37862905495  17.72630697265 8.143731342700001 23.0926425378  18.0293562551 7.62156036825 22.8029027907  18.5627483251 8.0899374172 22.92557483145  18.985257181 7.6910023239 23.2115613486  18.451865111 7.22262527495 23.08888930785  17.61542375855 7.27641920045 23.2559570142  17.3123744761 7.7985901749 23.5456967613  18.0488873512 7.7599190875 26.7745524668  18.45164306305 6.68910055215 26.2158118886  18.5414096713 6.83255851605 26.55569997885  18.5516985132 7.3150547434 25.96923307765  17.94883190105 7.13396489625 27.02113127775  17.8487764509 6.508010705 27.2677100887  18.44135422115 6.206604324800001 26.8022787898  19.0532059717 3.8644992279 25.8072935295  19.5404059461 4.5128063254 26.5097798688  19.5969680231 3.78272697895 25.95574733835  19.29533740345 3.68821143735 26.18860725865  19.5374688352 3.5119236468 26.5699209878  16.6659578079 6.3809618366 23.5725119331  16.5865763782 7.237913451800001 22.7733182611  16.4274422255 6.63845794385 22.3003456337  16.92643824635 6.170252490699999 22.7926565087  16.84705681665 7.0272041059 21.9934628367  16.68792266395 6.42774859795 21.5204902093  16.1889266431 6.8959540511 21.0281793343  16.3480607958 7.495409559050001 21.5011519617  17.29271329145 3.25931673895 23.6195089612  17.3202319333 3.897179996 23.42277592835  17.8187207564 3.45247266775 23.4141167169  17.5382622617 3.309958434 23.1904737339  18.3974859435 7.77294014495 25.4589433994  17.8191573288 7.56568616815 25.7795190434  18.6272159659 7.9671730643 26.4539768228  19.2055445806 8.1744270411 26.1334011788  19.1300271279 7.5223087202 25.64865743365  16.7677035683 3.5992709308 22.7116918697  17.61580071835 4.0230343354 22.9743423508  16.9349525866 4.0418362444 23.18338499625  17.152982915 3.4546146824 22.9510828018  17.44855170005 3.5804690218 22.50264922425  17.83383104675 3.4358127734 22.74204015635  18.1293998318 3.5616671128 22.2936065788  15.1144007162 6.7669409386 20.3212083435  15.65166367965 6.83144749485 20.6746938389  15.6957720393 6.1507489397 20.16624811575  15.28565657625 6.3361927894 20.4784130194  15.4569124363 5.9054446402 20.6356176953  16.23303500275 6.21525549595 20.51973361115  15.8229195397 6.400699345650001 20.8318985148  15.86702789935 5.7200007905 20.32345279165  16.2771433624 5.5345569408 20.011287888  16.989166142 7.08977600575 23.5591043472  17.29221542445 6.567605031299999 23.2693646001  17.21283399475 7.4245566465 22.4701709281  16.9097847123 7.94672762095 22.7599106752  17.7539501737 7.0628507374 23.87535144355  17.12769255715 6.8762075427 24.17849877655  17.45090089125 7.585021711850001 24.16509119065  18.2873422437 7.53122778635 23.9980234843  17.739283874 4.755260235050001 24.57923140825  18.74076298235 4.65634960755 24.90906244275  18.4365163086 3.8804249849 24.71302148045  18.10368071325 4.3854909305 23.9849091573  18.07211946935 4.25019428945 25.3073437314  18.3763661431 5.0261189121 25.5033846937  19.11277379845 7.66972505775 26.65940437485  19.5227431686 4.5258302706 28.47733490425  19.55636110825 5.2101343431 29.4419992317  18.87237239255 4.9656928744 29.5602973833  18.8387544529 4.2813888019 28.59563305585  18.9995441339 5.5036267767 29.0363681058  19.4291893669 4.6722004408 29.9659285092  19.39557142725 3.9878963683 29.00126418175  19.3619534876 3.3035922958 28.0365998543  15.44389508795 6.1354068366 19.9784920176  15.2726392279 6.566154985800001 19.8212873417  15.4308777396 6.365369033 19.3213663399  15.854010551 5.9499629869 19.66632711395  19.333173725 1.5707813348 26.9851592819  19.9028860798 1.12875305505 27.35746397355  19.5545882007 1.1483740185 27.11011105335  20.0037997335 1.4186416965 26.9554187208  20.2252142092 0.9962343802 27.08037049225  19.7760026764 0.7259667022 27.2350628248  20.1243005555 0.7063457387500001 27.482415745  18.2607580852 8.718355389999999 23.7657025335  17.78656628065 8.258472782449999 23.6556996474  18.2004987772 8.603613950250001 23.2026454239  18.6230076331 8.20467885695 23.48863194105  19.87394569885 4.16642434095 29.5449777468  20.3187020308 3.6606482411 29.1240269844  19.8403277592 3.48212026845 28.58031341935  16.1768022319 9.970835423900001 22.5343094093  16.3419985902 9.03285024545 22.2542169992  16.08841931315 9.009355272400001 22.9914545642  15.76866003055 9.55826564875 22.31417732565  15.6802771118 8.59678549725 22.77132248055  16.0000363944 8.047875120900001 23.4485997191  16.25361567145 8.071370093950001 22.7113621541  16.48505224045 5.85515891815 23.19225907045  17.42541995115 5.722414883 23.31734814665  16.8840797064 5.4326816973 23.61379502795  20.16564534995 1.4370548478 27.50558992655  19.88643337075 1.9520136809 27.7270500262  16.72696532365 9.6209107491 21.58969978255  16.33147856095 9.289044035 22.08909031055  16.7396207623 9.70161381015 22.3092223942  16.16414679325 9.89013236285 21.81478679765  17.3024392927 9.4323921964 22.0841353791  20.2777538073 3.2728409201 27.13147740665  20.043077877 3.1858480478 26.46121777205  19.74144725735 3.0913325062 26.69407769235  19.9454256795 2.6707413656 26.8182343969  19.7650302577 1.1622823901 28.5621760126  20.11881434615 0.9245035826999999 28.1459723389  19.77051646705 0.94412454615 27.8986194187  19.4515938979 0.24601657625 28.2350221466  19.1381575381 -0.6702492376 27.9078682806  19.80537798635 0.008237768849999993 27.8188184729  19.45708010725 0.02785873230000002 27.5714655527  14.8699332922 6.4713537732 21.5232734771  16.24653665805 6.1126550254 21.92009277105  15.5870399826 5.90035488645 22.16763984245  15.76794555005 6.4261578049 22.5478927051  15.52942996765 6.68365391215 21.2757264057  17.0401971741 7.5741988171 20.3307692304  17.00450651465 7.032567888 21.26226526115  16.7736960613 7.834531942050001 21.15244690975  16.6145619086 7.2350764341 20.67947428235  17.16364066735 7.63202339595
[...]
<PointData  Scalars="c_HbO2"> 
<DataArray  type="Float64"  Name="c_HbO2"  format="ascii">3.6181358134735803e-31  -5.1177736758497160e-31  -1.1121729107218649e-31  -1.6476993268607667e-31  4.5795025060968324e-31  -1.5215339958724804e-31  2.9151316826899957e-31  -3.3902507712288298e-32  3.9116225862701579e-32  9.7105989053199967e-31  1.0655102580594256e-32  1.3057423033818650e-33  3.2374178167977172e-35  -6.7346299730305778e-33  6.7546284480151997e-33  -3.9039932495236865e-32  -1.7228652643418195e-33  -1.3590041771255505e-32  1.0412810735027288e-31  5.1336598053130776e-36  -8.7738318524439095e-37  -1.2428509457607803e-36  -2.2697888243554848e-36  1.6940363223351078e-36  4.7891609673271910e-36  -2.5991892244464505e-36  6.9264132980463871e-36  6.7037324194523468e-30  -7.2002290231800571e-31  -9.9978975998450890e-31  -3.7418015212493037e-31  -1.1681381158279127e-30  3.6177934792699409e-31  6.4714658922671000e-32  7.6046448147709060e-32  -5.4218460743732655e-32  1.0075354982222372e-33  -1.3122101649843914e-33  -8.4095163586531354e-34  -1.1577752546168580e-33  -2.0798670613463840e-34  5.0916454197068838e-33  1.7935647362530184e-33  -3.5254586294366368e-34  6.4400691780964259e-34  3.0927865018323616e-33  -1.2495857812323477e-32  -6.1440102236047233e-33  6.9651813019599477e-34  4.1381309432468800e-32  -1.2300764177443635e-32  -3.2192763628060049e-33  3.7055104572618031e-33  9.8728350985869882e-32  -7.3591075311505235e-32  -2.8656790390790280e-32  -3.9634220323453364e-32  5.5183381294102644e-31  8.2027723997804717e-32  -1.1462398416087074e-31  4.3676448012568870e-32  -8.7456571183914439e-32  4.6828746710500248e-31  -4.9248721342927754e-32  -3.5112460535254519e-32  -2.3869330111078805e-32  -8.4318808347122395e-32  -2.6729766542661099e-32  -8.0354931343361520e-32  2.7771644235681711e-32  3.6662063647840936e-32  7.0937117493996285e-32  1.1967882074627080e-33  -7.3164714724513576e-34  -8.4601572513907159e-34  -2.5751328077754150e-34  1.6021682178982009e-33  3.6411739104560777e-33  8.0677090751375679e-33  2.0252987058093475e-32  -1.7855164218074040e-32  2.0440083448690000e-32  2.6686014773828477e-32  5.7463774575079904e-33  -4.3130049734455296e-33  -8.1952651408268302e-34  -5.7044062390654540e-33  4.3480241606062052e-35  6.1089884181781499e-34  1.5283225248362884e-33  2.6407779738459164e-32  8.0606293826594710e-33  -8.0640106530684750e-33  -1.0197462345016544e-32  -5.5244266737315116e-33  7.8064161444005068e-34  3.4335753574892889e-33  -3.4636204399291240e-33  -5.7082927607261635e-33  7.2512304005837554e-32  1.8917644614163946e-32  3.0032437189674731e-33  -3.5988785253257172e-33  -2.8226859064218393e-33  1.0753374456741051e-33  1.5099962288708770e-32  4.5468132449144107e-33  3.1875300394893578e-33  -5.6590942522433242e-34  -4.7112921480873731e-34  1.8329453798531359e-34  5.7806335458942931e-34  3.5679989271184689e-31  -4.1895501292889519e-32  -3.7204090665619513e-32  -1.1544331471699835e-31  -2.2919957070361650e-32  6.4021769651926810e-32  1.1227056059452800e-31  3.3192469819832410e-32  -1.4942894827038394e-31  -1.1120018966158320e-31  8.4813966197371444e-33  5.3419388700808113e-32  -6.0282196947361746e-33  1.1341169145066496e-32  1.1686157741035426e-34  2.2357643618769084e-33  4.9457984492813646e-34  8.2612579960599987e-31  -1.0150771692055881e-31  2.2095152223238822e-31  -2.2841035861101195e-31  -1.0545191286048456e-31  3.8746213786504969e-32  5.3423529723511571e-32  2.9149374465662267e-32  -3.2963236952577925e-32  -3.0440245837030447e-32  -1.4348837711150508e-33  1.7457000324550625e-31  -3.1817517379909892e-32  3.8342179110545993e-32  -2.8115071838554182e-32  2.8224119595452411e-32  -4.3963150896010636e-32  -2.9888058802445580e-32  4.1169637752095961e-33  -7.8394708883802389e-32  -2.4961238152320601e-32  -1.0724514630608712e-31  4.4885246545236316e-33  -5.3926878521444864e-33  -3.6794772297435864e-32  1.5604192439935459e-33  3.5189462121756333e-33  -4.9165912633003355e-32  -1.4496056833407332e-32  1.0968381894744630e-32  -9.6775659842581878e-34  -1.2268315913136459e-34  -7.4624299926914533e-35  -9.0642974709091773e-36  -4.1190237116498740e-34  -1.1048735416989479e-34  2.0326976186869839e-34  -3.7048079152133896e-35  2.9472328212865929e-34  -2.0580918366022274e-32  -3.8910428063140597e-32  1.5706581162415323e-31  -3.4140594981661001e-32  7.2032164683146742e-35  -3.0202326053468270e-36  7.0425317883556891e-36  -8.1955072376135728e-36  -1.4849641346858695e-36  1.6781321346405533e-35  2.6828347443686124e-37  1.1420278938405863e-32  -8.2177123485053045e-33  -1.1911027332929600e-33  1.5463406144178598e-33  -1.3597020815198241e-35  3.9778526894270598e-35  -5.1220117283396689e-35  2.4175971333530213e-31  -5.2011693622769548e-32  -9.0711967758278911e-32  -5.9087704766559077e-32  -4.1591654702371292e-31  5.6863423180923984e-31  -3.6451315101312031e-32  5.4898118957799974e-32  -1.4561612445172068e-31  9.7960059669623709e-32  5.6151997962499525e-37  -2.2810475504689507e-35  2.0270214080758499e-33  -5.2877094767179063e-32  -2.6388374348372386e-32  -7.3628654278766506e-32  2.4936473097192805e-32  -7.4347880152085226e-35  -6.5999674046050414e-35  -9.4144903132968203e-35  5.7533526800939001e-35  4.6358897246904480e-35  -5.0011116881785561e-36  2.0284027705211649e-36  6.1470526072632794e-36  7.4877865775410430e-35  -1.3269219995293642e-35  -1.7168969590922408e-35  1.3015466874405610e-30  -5.4080388437979667e-31  -4.4318347862003829e-31  -1.2012173152422827e-31  -4.1977328536238783e-32  1.0515631533439558e-32  -2.6115441725268026e-32  -1.6675877655683304e-32  -1.4888839845481963e-32  -8.7901327547344536e-33  7.7941542847325416e-33  -2.1193632100681447e-34  -9.5526156808922388e-34  -1.4545568594776922e-33  -8.7815184741743005e-34  -2.1793671076408689e-33  -7.7189346640797406e-33  -3.6673753866071809e-33  -2.6182196903549339e-32  2.1716933054154708e-32  -7.3863253779933572e-33  -6.4891137089521263e-32  -5.6039992472864994e-32  7.3350434264911923e-33  8.9778595624619594e-31  -2.3218472485053086e-32  -2.0449749204757216e-31  7.3489227392917379e-32  -1.6970361761308881e-33  -1.6660093618867042e-33  -6.9985079062602474e-31  -5.7119758808982031e-32  -2.4666335050893082e-32  1.1601078843169780e-32  9.1136880782251522e-33  -1.6874288816649283e-32  7.7650030509346875e-32  -2.1806478294405863e-32  -1.5729510312946152e-32  -1.7909331655010205e-32  -2.2395632321703010e-32  -9.8704683961731322e-33  -2.0303878148104843e-34  -1.9569550631086201e-34  -1.7936193422296744e-34  -2.0688101523549266e-33  -3.7666932197287352e-33  -6.7484012147075839e-33  -5.1127343165172865e-33  1.1559739873212452e-33  -4.4702358145084356e-33  -5.1983811459852079e-32  6.2626435570079697e-32  -1.4873152799041729e-32  -5.2676816252263718e-31  -6.0917937330038991e-31  -1.0802156479227937e-30  -2.9811414070943371e-31  6.1891348213238555e-30  -6.2784322108350754e-31  -9.4968492017984821e-34  -7.2316761373090245e-34  -3.1855681522293079e-34  -9.4488661563022092e-33  -3.9335660070460718e-33  2.7551753608005712e-33  -9.3396897149780801e-33  2.0254136918204329e-33  4.0139990060691802e-34  -3.5153451737594874e-31  -5.3146621894419040e-31  -1.8438785696202049e-32  -7.5740206128291088e-34  -1.1282734617937686e-31  -1.0623372782594337e-30  -5.1626146383175735e-32  -1.3407266657766061e-31  -4.4008606976265640e-35  -3.2964491801077991e-35  -1.3714009558290956e-34  -4.4092698160648201e-34  -6.7889253587928806e-34  9.9285026127317088e-33  -3.5473717947524826e-33  -4.1839339510989142e-33  3.0196825689925537e-34  2.9880179627875950e-33  4.0100202184704981e-33  6.6939079489915190e-34  -1.5931566301558970e-32  4.3626380126049865e-32  -8.0851943074309342e-33  2.5184520714462494e-35  -5.5306855899999736e-35  -1.1027010874207772e-32  -1.1574970170537222e-32  -6.9733707624439545e-32  1.2776720838688382e-31  -6.0626058060113867e-32  -1.2963779014944936e-32  9.1018990584782732e-34  -1.0567161911480583e-32  -7.7620112829069201e-33  -9.1915682084972726e-33  -2.1025104943951627e-33  3.6423219460078710e-33  -1.6024179154823347e-33  -2.3185010241298758e-34  -3.2703805731912479e-32  1.5307380277332752e-34  -1.7373986169012816e-32  -9.9791734613906417e-32  -3.0574045871873677e-32  -6.2903849809986273e-32  7.8199695289377478e-32  -1.4324334003442104e-31  -5.4589996213425782e-36  1.2568222815220195e-35  -5.9536718336255591e-32  -2.9460131744177371e-32  -4.3671914155296687e-32  2.2382468186202807e-32  1.0978940763664444e-32  -1.1173722399027859e-35  2.1599391902319931e-35  -7.5971579199877805e-33  -4.3993136553079299e-35  -1.0148748923883654e-35  2.9431399541861197e-34  -5.4766518512510518e-35  3.2052977327887734e-32  -1.0348462170078286e-32  -6.2407038298533900e-33  2.4448537482432310e-32  1.1701565101130215e-33  2.4490348325249602e-33  -8.8798221112460628e-33  7.0101658685964234e-33  -1.9746926684633607e-33  2.6054056657187779e-34  -2.2824606172066437e-33  -1.1573999064555300e-31  -8.1495667695498589e-33  4.8946391710507730e-35  1.2333418978781664e-33  2.8669528844974753e-32  -1.9822274948872857e-32  -4.7997819203329877e-33  6.5563108590640378e-33  -2.8972425758936164e-32  1.5800984040892551e-31  -6.6678946257809793e-31  -1.2750392369334372e-33  -4.5505976625448631e-33  -2.6396662389833784e-33  -3.4859574517841847e-32  -2.1490887052223279e-32  -1.8549419682060827e-33  -2.7034075384720914e-33  -6.2056146343599060e-34  -3.8901235451339510e-33  3.8492426651985059e-33  -1.9939724051090622e-31  -1.8418534757363333e-31  -1.5959648717514619e-32  -1.2210893857721363e-32  -7.8211258296176459e-33  -8.0283898001241407e-33  -2.4632456338619849e-32  -3.0876902773571867e-31  -2.8627836239585584e-33  -5.4117356038727173e-33  6.0803575272062401e-33  -6.9143161531228792e-33  -1.4492085757404460e-32  -8.7379591248497376e-34  1.5233577346943888e-34  1.0036033329815013e-33  4.9738252864237516e-36  3.7748035335690405e-31  -4.1501857688676393e-33  -1.0820368119063550e-33  1.2685519502290390e-31  -8.6386650782103883e-35  -2.4655208864708982e-34  -1.3003027875584354e-34  -8.9465043842018438e-33  3.4366257455883393e-35  -3.9079883372828524e-35  -1.8922688320990684e-35  -6.1202738913222138e-32  2.0000000000000001e-17  -9.1289166595715493e-18  -6.6695386312748004e-18  1.9999999999999998e-17  2.0000000000000005e-17  -3.0680606630357540e-18  2.8954431136386546e-18  1.1021499158840053e-19  9.3050645328639401e-25  -3.1336450704838627e-25  -1.2699003004523517e-24  -1.5250486753216987e-24  -2.1509186449820782e-26  1.2107843065240924e-24  -2.2669271715384138e-24  3.6675809511236448e-26  1.5287451861593665e-25  9.6345712236092166e-24  5.6865495835194697e-19  -3.3012780180388037e-19  -4.2493287196218730e-19  -1.1323745362744175e-19  2.9797747189324906e-19  -7.5690545717042774e-19  -5.7240961911616852e-19  3.0001335092002961e-18  3.2092043599206871e-18  1.8570429634328839e-18  5.6428040468683800e-32  -3.2250224308288980e-33  -1.5237916249291607e-33  -1.0295566976239589e-32  -2.2626802351293066e-32  6.0502137629769022e-33  -2.2002095578634732e-33  -3.2726433448297847e-33  4.5917962553834910e-33  1.8568460084454476e-32  1.5839466386778964e-19  -4.7527085878428839e-20  -1.1827201470105939e-19  -3.5422909071483847e-19  8.2108709081224783e-21  7.9114240216032496e-19  -1.1073423564715405e-18  -7.3616373337462929e-20  6.9979719485166407e-20  1.6735873280849855e-18  1.2590378322701535e-20  -3.0667116372752422e-22  -4.8688083502680863e-21  -6.9216758723280768e-22  1.5803562614842396e-21  -7.3441109674384136e-21  9.2928130383943396e-22  1.4935342855022093e-21  9.8310197704802949e-21  2.3207792333658994e-21  1.1953142933106050e-30  -2.5592047384025769e-31  -3.2432642647482912e-31  6.7964754056890155e-31  4.0845179356620828e-30  -5.8564963500592745e-31  -8.9120251546826973e-31  2.0924033070174482e-31  2.6885683311430161e-32  1.8765699056390785e-31  4.9907621792993988e-24  -1.4659749565786266e-24  -1.3246657744762728e-24  1.0364017593344874e-24  7.2578263382142716e-24  -7.8381545670202118e-25  -7.0654966648568087e-25  -1.0970023203396569e-24  5.4813602908782811e-24  4.8097356987292568e-25  1.9999999999999989e-17  -7.9720383431807469e-18  -3.2609197706536131e-18  -6.4722761674360314e-18  1.9999999999999998e-17  1.9999999999999992e-17  -5.7763627535236289e-19  3.1222566597455532e-18  2.7536058778390479e-19  2.7360777559834180e-18  2.9781574812398022e-19  -1.2067488774985831e-19  -3.5181717784344486e-19  -1.4829748640172993e-19  -4.1193129529936530e-20  6.4973735073970816e-20  4.8905474803131547e-19  1.3444461778925409e-19  3.2088087363377915e-19  1.8730767829934158e-18  1.6790041635378339e-26  -1.7108097953537250e-26  -2.2703154346335796e-26  -7.7268567948455233e-27  2.3425961719387123e-27  6.0315351706876281e-26  -2.5977212784742311e-26  -7.4362028846480553e-27  4.3577599084069140e-27  2.9430587507656444e-33  -1.7609157988013245e-33  -1.3787553895326467e-34  -3.9656370326298828e-33  -2.4380297344038004e-34  1.1613884232100511e-33  -1.6722341258704655e-34  2.3213427703182954e-32  6.4494599793435990e-34  3.1810156670426484e-33  1.1133708635405321e-23  -1.5878695790088187e-24  6.8926896381899848e-24  -4.0195602990749587e-24  8.2537766601788281e-24  -7.8701302130722780e-24  5.2151429211086493e-24  2.4013121417775057e-23  -2.8439341721281750e-24  5.6390067803354509e-24  1.2562489093143974e-18  -8.6837919188900672e-20  6.1315066453309007e-19  -2.2277223198824031e-18  1.9999999999999995e-17  -8.8641278798945119e-18  4.3178889091165305e-19  3.5192835912120791e-19  -4.4813025471335504e-19  2.6129162317874827e-18  2.1588751620460172e-18  7.7421349527331688e-20  -8.7287735542837737e-19  8.2131672843653022e-19  2.8007158670975949e-18  6.4076310595085917e-19  -5.9022474647743195e-19  3.5385266293417354e-19  -3.1042326637961602e-19  1.3068817691867298e-26  -5.2081945601171893e-28  -1.2685783437910991e-27  -6.9697481821151427e-27  -4.8916249040157510e-27  4.6417067444068372e-27  -1.5571334200912484e-27  1.2784982296028855e-26  2.0702862070786361e-28  3.5851679685643536e-27  2.0422140508497098e-25  -1.1069782379657154e-25  -1.7542931992893470e-25  3.1622747137598002e-26  3.1117525643485659e-26  2.2673966497424682e-26  -2.9496062076403332e-27  6.4983821542486854e-26  1.0832514475549627e-25  7.6695115010975085e-26  3.3703047723275365e-24  -1.2599590830744451e-24  -2.1972008325428590e-24  3.3982117681076231e-24  -1.3363576675356339e-24  1.5912885517343389e-24  -3.4769910834845389e-24  1.2516559253016223e-23  -1.3087257122439059e-24  1.4033072081503783e-24  -9.4816020233390349e-27  -1.8787036612245619e-27  -1.6618828060944473e-27  1.5545709422260294e-27  -4.3840207633780985e-30  2.6300585900636452e-27  2.9148068053455680e-27  6.7732655451936467e-28  5.3621287385632633e-27  -2.5175863172475622e-26  5.7594736252364118e-27  -1.2673843456916537e-26  1.1809352887377048e-26  -1.1852407928529103e-26  7.0788303606912636e-27  1.0183379025794129e-29  -4.0437630068235096e-29  -9.3185705007705916e-30  -5.3251977756191897e-29  -6.6206852646041314e-30  8.1443541789436290e-29  -1.2214021396154268e-29  4.7340639387019033e-28  -5.8272215816028957e-29  1.0915852061461751e-28  1.2560702143275462e-27  -1.1630353350174833e-28  -1.0776527883393650e-27  -1.7382784508244857e-27  -1.9504875785278936e-27  1.0917521722237074e-27  -5.4483905609162271e-28  3.1623178194674724e-22  -6.1888517411515176e-22  6.6309470412074449e-22  -4.2195827533277112e-22  -1.2581419317911587e-21  -4.2268709604759618e-22  5.3972910262588674e-21  8.9034354709042861e-23  9.4303372667198102e-22  2.2727962313645521e-21  1.9999999999999995e-17  -1.0831596055692092e-17  1.1077384990296564e-18  -1.4677097233110242e-18  4.6808256054535134e-19  3.9521088824129108e-19  4.7928706644970977e-18  1.5851551062040310e-18  2.1038095445317353e-18  7.2646966579026213e-21  -3.3448466704447394e-21  -4.2205310309820666e-21  1.3126129851768048e-22  2.3531712510248662e-21  -3.8587322581889368e-21  -2.6188362312840706e-21  2.1007210853470442e-20  8.1654406192096158e-22  3.6260741312500233e-20  5.5327016853547412e-31  8.5129502773112397e-32  -3.6767289412225268e-31  1.4563880016007637e-31  1.0080816887721470e-31  2.7269334919004335e-31  -6.0864401113455540e-31  3.6416070088039747e-31  -3.4663921573161952e-31  2.9260647144680054e-30  3.9007541466424765e-23  -3.3265114666770697e-23  -6.4083320035287887e-23  -1.7960151755717868e-22  7.0003014303483954e-22  -8.8511085547013767e-23  -5.6969637694252148e-23  1.8126395230609259e-22  -1.1257090832850262e-22  1.0932860713179772e-22  1.1419353722843943e-25  -2.9598947242169547e-26  -1.1625416991727538e-26  1.6991296164343372e-27  -1.0832741454759888e-25  -1.5650395357262498e-26  1.3542391424480442e-25  -1.7310345748980835e-26  4.3849578319130902e-26  1.3296282390811375e-25  1.9999999999999998e-17  -6.1216688183976268e-18  -1.0128244555370136e-19  -6.4349693708940184e-18  2.0743826175213773e-18  -6.4816422336567257e-19  6.4103672805858115e-19  -4.7078630565904288e-19  3.9846202175328527e-19  -1.0906218757925889e-26  -8.7379694754848528e-26  1.5111739481136318e-25  1.7152448771339250e-26  2.4279090998333969e-18  -5.9899824323982098e-19  -6.2056696551131602e-21  -6.8044253594423646e-19  -4.5935419648999770e-19  -5.5197430647079846e-19  4.8731819786888141e-19  -7.3796096426460871e-19  6.7625136856139863e-19  3.5638831254367808e-18  4.9340646343215550e-30  -7.3816223133739894e-31  -7.8847810494467508e-30  -3.2889027689673101e-30  2.2107157415990271e-30  -1.4724259265111909e-30  -7.4703326464498954e-32  -5.1885004482806905e-30  2.0920310796679723e-29  9.1493854592081368e-31  4.0072104774598372e-25  -3.0330566121031965e-25  -4.5794043545991678e-26  6.6960494162299708e-26  9.3949666424854366e-26  2.5488262593243857e-26  -6.5801594129162924e-26  6.5821318249715678e-26  -2.0403446236104835e-26  5.0720985311451516e-25  1.1684443458821071e-32  -8.4312942523263476e-33  -3.1035106651995038e-32  -2.2433416461430452e-32  -2.0277460900992538e-33  -4.1098826409324151e-33  4.8034788967177584e-33  7.4616234459952268e-33  4.4381423090028110e-32  9.5206090950838763e-32  4.3040641716320223e-33  -6.2081901344538097e-34  -2.5292276442556169e-33  -3.9908202112465488e-33  1.8146915885534603e-33  5.9950367574555990e-34  4.0880810004787652e-33  -5.6475535475151131e-33  5.1256807552915818e-33  3.4157494543927888e-32  2.9895041965991781e-28  -1.4442952408514911e-28  -6.0145052364898472e-29  7.5881319382042130e-29  -1.2957333980024780e-29  1.0133894185746188e-28  -4.2093489489995174e-29  6.5074664628681297e-28  -9.4859485609238120e-29  1.9703501474365173e-32  -1.9782919769374516e-32  -2.8121726221438707e-32  -8.4845510388489707e-32  -4.3167570434533706e-32  5.3039640168363094e-31  -1.6075362975496822e-31  -1.2583518452871837e-31  4.1474942132974427e-32  4.7286924024994243e-32  7.7456242711669195e-30  -5.1682080476526218e-30  -1.1100890752964532e-29  -1.0186963821350580e-29  -1.7748199004772657e-29  2.6645744586831743e-30  4.9315878111675138e-30  5.9777924544206242e-29  -9.8347968882413444e-29  9.7609228043477051e-29  4.8626520679642048e-32  -2.1126114944044962e-32  -4.0679902519187578e-32  -5.0447016572056998e-32  -1.5335989038405192e-32  3.1651765112557039e-34  1.2878238187617251e-32  2.4881370206208566e-33  4.2911798390780358e-31  6.7381506563247704e-33  1.0074300707851340e-22  -5.6608306215262213e-22  4.4601967008318448e-23  -1.0515376186834604e-22  -4.9891111232656545e-22  3.1026115248220930e-21  -9.4494826300013987e-22  -1.1307783113795379e-22  3.3862939677578060e-21  -6.9431452838079739e-23  -3.5388723899578115e-21  1.0253396816856811e-22  2.5962727805476797e-21  2.2271616089193982e-23  -6.8401620544642104e-22  -6.0701010543552397e-21  2.8822421582657678e-20  8.2177475222401690e-31  3.6455528101300758e-32  -7.3524514402115295e-32  3.9841589947091446e-33  -2.6131006279853198e-31  -1.6421255162311406e-31  6.5857752758605731e-32  -4.5947351550459904e-33  1.2731855634452089e-31  3.7274052354617178e-31  -6.4371460700248163e-32  -2.5548640942852708e-32  -1.1291359035273483e-31  1.5962937190264528e-31  5.6130011773963470e-31  -1.4332869630216871e-31  2.1601232475126558e-22  -1.8955752340863868e-23  9.6101810426871962e-24  -1.5481930732906105e-23  -7.10