<?xml version="1.0"?>
<VTKFile type="UnstructuredGrid"  version="0.1"  >
<UnstructuredGrid>
<Piece  NumberOfPoints="7555" NumberOfCells="33998">
<Points>
<DataArray  type="Float64"  NumberOfComponents="3"  format="ascii">23.4205436128 14.5684208465 26.0099344765  23.4230590788 13.9823510829 27.04471894085  23.55141964525 14.0735000749 25.9925444817  23.0528816717 14.0791284739 26.130008697  22.6852197306 13.5898361013 26.2500829175  23.55393511125 13.4874303113 27.02732894605  23.0553971377 13.4930587103 27.16479316135  23.18375770415 13.5842077023 26.1126187022  23.6822956777 13.5785793033 25.9751544869  23.4255745448 13.3962813193 28.0795034052  27.8772027713 4.843268636 28.7377864358  28.8012279433 4.873459976099999 28.4017217608  28.6069215598 5.145197807500001 28.02410857055  28.4336953035 5.208609177750001 29.0161990743  28.2447354111 4.50811943435 28.1233091223  28.6122680509 4.1729702327 27.5088318088  28.9744541996 4.81004860585 27.40963125705  28.9901878357 5.5739497195 29.2946117128  29.163414092 5.51053834925 28.30252120905  29.3366403483 5.447126979 27.3104307053  34.0960260673 5.8235953055 23.1457613911  33.90061349805 6.56821520265 23.92496823875  34.2672995832 6.830280796949999 23.25961155615  33.55977354505 6.84481732045 23.335625  33.0235210228 7.8660393354 23.5254886089  34.07188701395 7.5749006941 24.0388184038  33.3643609758 7.5894372176 24.11483184765  33.73104706095 7.8515028119 23.44947516505  34.4385730991 7.8369662884 23.3734617212  33.7052009288 7.3128350998 24.7041750864  21.2499506205 11.7065370243 26.0620246341  22.358128576 11.2457140315 26.5711637965  21.799207463 10.5097116216 26.9081823691  21.95857522975 11.8099811503 26.76717901645  21.64950396675 11.1422699055 25.86600941415  21.39965411675 11.0739787404 27.10419758905  21.549357613 10.4414204565 28.146370544  22.108278726 11.1774228664 27.8093519714  22.049057313 10.5780027867 25.6699941942  22.667199839 11.9134252763 27.4723333988  29.8832681167 0.7888092059 30.8252900213  30.4973761237 0.90510554565 29.4480666123  29.9641633529 0.90510554565 29.2418839441  30.09853548265 1.6346347674 29.9148914284  29.74889598695 0.05927998415000002 30.152282537  30.28210875775 0.05927998415000002 30.3584652052  29.6145238572 -0.6702492376 29.4792750527  30.147736628 -0.6702492376 29.6854577209  30.6809493988 -0.6702492376 29.8916403891  30.3138028486 2.4804603289 29.0044928355  29.2283319291 1.8650392001 30.8726457587  29.15211944625 2.81772351015 30.12284394405  29.0175453211 1.95069124895 29.86104080845  29.77106738885 2.1727497645 29.9385692971  28.94133283825 2.903375559 29.1112389938  29.694854906 3.12543407455 29.18876748245  29.56028078085 2.25840181335 28.92696434685  28.8067587131 2.0363432978 28.8494358582  29.0759069634 3.7704078202 29.3730421294  33.5166070953 8.945327713999999 22.2355413022  33.2895567427 10.0935681066 21.946648825  33.72032980055 9.79607741605 22.5073307283  32.9683885131 9.725134036549999 22.7832082899  32.4201699309 10.5049403591 23.3308752776  32.7413381605 10.87337442915 22.4943158127  33.17211121835 10.5758837386 23.054997716  33.9240525058 10.6468271181 22.7791201544  33.49327944795 10.94431780865 22.2184382511  33.0625063901 11.2418084992 21.6577563478  32.8570085919 8.721262962699999 25.046286916  33.9011683569 9.1759817902 24.8136668867  33.15607174905 9.0554221889 24.3972574904  33.47303765475 9.708536285499999 24.70598867965  34.0890667176 10.6958096083 24.3656904433  34.20023151405 9.5101410164 24.1646374611  34.51719741975 10.163255113 24.47336865035  33.7721008119 10.0426955117 24.05695925405  33.4551349062 9.3895814151 23.7482280648  34.9453281219 9.630700617700001 24.5810468574  20.9981169749 1.3033283608 28.0260205712  21.09183453495 0.66556992075 27.56068267685  21.19274818865 0.9554585622 27.1586374241  21.3545938051 0.9738717134999999 27.70880862985  21.7110706353 0.6444150662 27.3915966885  29.8384902888 12.0614620697 25.1497465866  30.19129338585 11.647442611 24.21932435385  30.6092117718 11.87940636495 25.0035913372  30.2395848528 12.39239939585 24.7293183571  30.6406794168 12.723336722 24.3088901276  30.96201486885 11.46538690625 24.07316910445  30.59238794985 11.97837993715 23.79889612435  31.0103063358 12.2103436911 24.5831631077  31.3799332548 11.6973506602 24.8574360878  30.5440964829 11.2334231523 23.2889021211  21.458975901 6.684628695 26.4293381117  22.7374810594 7.20294888955 26.88045951155  21.8901835199 6.56325265575 26.9775157214  21.4537833427 7.096274476350001 26.87019827565  22.3062734405 7.324324928799999 26.33228190185  23.15357098 7.9640211626 26.235225692  22.3010808822 7.73597071015 26.7731420658  21.4485907844 7.5079202577 27.3110584396  21.8849909616 6.9748984371 27.41837588535  22.3213911388 6.4418766165 27.5256933311  26.2713710896 11.7111148679 21.7193696125  26.46024664775 11.1332178061 21.40113035715  26.2311936872 11.23325056265 21.21164935935  26.5748309865 11.68183801125 21.42129441615  26.15678675085 11.16249466275 21.6992055535  26.0422024121 10.6138744576 21.6790414945  26.11660934845 10.6846303575 21.19148530035  26.8782908834 11.6525611546 21.1232192198  26.5346535841 11.203973706 20.913574163  26.1910162848 10.7553862574 20.7039291062  24.3673317819 12.9082898817 25.6701090407  25.04754855965 12.34234764635 26.0822924559  24.6759554193 12.4150017989 25.2315869212  24.1879235182 12.3531574121 25.72453844585  24.0085152545 11.7980249425 25.778967851  24.86814029595 11.78721517675 26.13672186105  24.4965471556 11.8598693293 25.28601632635  24.9845790567 11.9217137161 24.7930648017  25.35617219705 11.84905956355 25.6437703364  25.7277653374 11.776405411 26.4944758711  33.2619271246 10.6035754158 27.0218641276  33.4817340408 10.3262838973 25.643691095  33.70321159195 9.708658216349999 25.77973410105  33.81685539945 10.6496810504 26.3487881765  32.92680576595 10.2801782627 26.3167670461  34.0383329506 10.03205536945 26.48483118255  34.8147387766 9.4605353231 25.9477982375  34.59326122545 10.07816100405 25.81175523145  32.5916844073 9.9567811096 25.6116699646  34.3717836743 10.695786685 25.6757122254  30.4759510409 10.7017029659 26.8578464459  29.9773106527 10.34774794995 26.28421295395  30.52681337005 9.991602013449999 26.628590604  29.81562965105 9.79037520985 26.74310729105  29.1553082612 8.8790474538 26.6283681362  29.31698926285 9.4364201939 26.1694737991  29.8664919802 9.080274257399999 26.51385144915  30.5776756992 9.281501061 26.3993347621  30.02817298185 9.637646997499999 26.05495711205  29.4786702645 9.993792934 25.710579462  33.3024723754 4.9170339884 27.4480196816  33.0119206898 4.51280157325 26.5202479248  33.2335413678 5.0635377707 26.3905348798  32.9123480363 5.0492787777 26.84742449685  33.6236657069 4.9312929814 26.99113006455  33.40204502890001 4.38055678395 27.12084310955  33.9448590384 4.9455519744 26.5342404475  33.7232383604 4.39481577695 26.6639534925  33.5016176824 3.8440795795 26.7936665375  32.5222236972 5.181523567 26.2468293121  20.0276059205 5.1611134229 27.2122662081  20.84413764135 4.53803752095 26.73667940285  20.55289963405 5.1811239951 26.6204522987  20.94758728305 5.14531138515 27.30566520615  20.3188439278 4.51802694875 27.32849331225  21.8675686456 5.1295093474 27.3990642042  21.4728809966 5.16532195735 26.71385129675  21.23882529035 4.502224911 27.4218923103  20.6100819351 3.8749404746 27.4447204164  21.0781933476 5.2011345673 26.0286383893  22.0526344853 12.6602887381 26.2814686976  22.98958547025 12.28727941615 26.80568844285  22.35991716215 12.2868570072 26.8769010482  22.4054223651 12.1557162203 26.179106943  22.6823027934 12.66071114705 26.21025609225  23.3119711015 12.661133556 26.1390434869  23.0350906732 12.15613862925 26.10789433765  22.7582102449 11.6511437025 26.0767451884  22.71270504195 11.7822844894 26.7745392936  20.9436212052 11.4504919638 28.4310141519  21.91487561425 11.7683369981 28.1654263905  21.8054105221 11.68195862005 27.95167377535  21.19110349295 11.99833490145 28.1211381232  21.6673933265 11.22049406045 28.4753024192  22.3911654478 10.9904961571 28.5195906865  22.5291826434 11.4519607167 27.99596204265  21.4385857807 12.5461778391 27.8112620945  22.05289280985 12.2298015577 27.64179774665  20.1008378684 7.7169734316 23.997927782  20.9320392643 7.6033059384 24.6052090138  21.29023808715 7.1318135171 24.19123106855  20.62714945395 6.9455535085 24.33689037045  20.2689506311 7.4170459298 24.7508683157  20.7639265016 7.9032334402 23.8522684801  21.4270151348 8.089493448800001 23.7066091782  21.1534610395 6.1741335854 24.6758529589  20.79526221665 6.645626006700001 25.08983090415  20.4370633938 7.117118428 25.5038088494  22.9846175342 10.5999409622 26.3328769788  23.33919400015 11.1365114201 26.5362524759  22.6901165304 10.7848071842 27.05690772275  22.40363377895 11.1145732446 25.8733696913  22.33554006445 10.2482367263 26.85353222565  22.6220228159 9.918470665899999 28.0370702571  23.27110028565 10.2701749018 27.51641501025  23.9201777554 10.6218791377 26.9957597634  20.5578602425 4.9918584952 29.2087043296  21.21271444405 5.0606839213 28.3038842669  20.9649958562 4.550154120749999 29.10263508525  21.0629217583 5.0437892927 29.21636194195  21.5679832741 5.0957200902 29.2240195543  21.61985005775 4.618979546849999 28.19781502255  21.71777595985 5.1126147188 28.31154187925  21.470057372 4.60208491825 29.1102926976  21.3721314699 4.1084497463 28.9965658409  31.93591131935 4.9196535781 27.1581593308  32.32603565845 4.787408788800001 27.75875451555  32.31678230575 5.2806428312 27.1969561773  31.3310922361 5.644251674 26.945892673  31.3403455888 5.1510176316 27.50769101125  31.92665796665 5.4128876205 26.59636099255  31.3495989415 4.6577835892 28.0694893495  32.5997176936 4.6503658981 28.482218037  32.25649213545 4.2769645146 27.89463264905  31.97465831755 4.65407474365 28.27585369325  32.081123446 4.019784459649999 28.0202822784  32.8815515115 4.27325566905 28.1009969928  33.1633853294 3.89614544 27.7197759486  32.3629572639 3.6426742306 27.6390612342  31.5625291984 3.3892030212 27.5583465198  31.45
[...]
<PointData  Scalars="p_CO2"> 
<DataArray  type="Float64"  Name="p_CO2"  format="ascii">4.0000205473712079e+01  3.9997472570846675e+01  4.0002187980271721e+01  4.0000488370819440e+01  4.0001163119278047e+01  4.0000523500297312e+01  4.0001474798410086e+01  3.9999833750980599e+01  4.0000905224162068e+01  3.9997588236333122e+01  4.0000592923254871e+01  4.0001145570551643e+01  4.0001252550017583e+01  4.0001529805268653e+01  4.0003015993609061e+01  4.0001070688299308e+01  4.0004805890779942e+01  4.0004066816756918e+01  4.0001758385033142e+01  4.0003630987631382e+01  4.0001810961864763e+01  3.9998208207972802e+01  4.0001582193900695e+01  4.0002250519761063e+01  4.0000733308220497e+01  3.9995085525028465e+01  3.9999777618713175e+01  3.9998862410694613e+01  4.0002216261225698e+01  3.9998994354442225e+01  4.0005726497716545e+01  4.0003428845899165e+01  3.9998854005055989e+01  4.0009031212554675e+01  4.0002280861842387e+01  4.0012267563431351e+01  3.9998844126187223e+01  4.0003866560533410e+01  3.9999231320723524e+01  3.9996595529393332e+01  4.0000089323631201e+01  3.9998431399904213e+01  4.0001929761177273e+01  4.0001284335876434e+01  3.9999660502864039e+01  3.9995998524857292e+01  3.9998361725595544e+01  4.0001945326602801e+01  3.9999634087231065e+01  3.9999340324383759e+01  4.0001811678220228e+01  4.0007070371909592e+01  4.0002949012571840e+01  4.0001229685537133e+01  3.9999639482768664e+01  3.9997359991184567e+01  4.0000034339348794e+01  4.0000271624686285e+01  4.0002203433572014e+01  4.0000594924908874e+01  3.9997911483421760e+01  3.9994603722980706e+01  3.9998391265843821e+01  3.9999982950621074e+01  4.0000409289816872e+01  4.0003037108460219e+01  3.9999011450965291e+01  3.9998310758420104e+01  3.9995996348138519e+01  3.9995871853858688e+01  3.9989575482308361e+01  3.9996341136319415e+01  3.9997507164688450e+01  3.9991868408494128e+01  3.9994683754690932e+01  3.9994847626840773e+01  3.9993857855115721e+01  4.0000742163008773e+01  3.9994625358640185e+01  3.9987005228834420e+01  4.0017514271638085e+01  4.0024143973641813e+01  4.0036479481419079e+01  3.9951160039281071e+01  4.0011812785485908e+01  3.9996312152690088e+01  3.9979119364036471e+01  4.0006837667570927e+01  4.0000041428566171e+01  3.9982988700898638e+01  3.9989464830910869e+01  4.0023283651308454e+01  4.0012062677718987e+01  3.9995581173767924e+01  4.0007736505648033e+01  3.9996823695707221e+01  4.0006595100753181e+01  4.0007561275346625e+01  4.0002343796412731e+01  4.0002361969311373e+01  3.9996148453880224e+01  4.0001767485467795e+01  4.0002683683549655e+01  4.0002768037726483e+01  4.0003614292163839e+01  3.9991216614865372e+01  3.9992708840543230e+01  4.0007675877702241e+01  3.9987343856625493e+01  3.9993803844337229e+01  3.9990257278561387e+01  3.9990756323850107e+01  3.9945378405775678e+01  4.0032041351671225e+01  3.9995872165035664e+01  4.0008549603775151e+01  3.9999458595348763e+01  4.0001738808659709e+01  3.9998364868270940e+01  4.0011655704163765e+01  3.9997784772518635e+01  3.9992452453094010e+01  3.9994954047997219e+01  3.9999341498090935e+01  3.9975835412684205e+01  3.9996003144833487e+01  3.9982885188204278e+01  4.0045657915930775e+01  3.9879004237476913e+01  3.9978103258950341e+01  3.9994488224943190e+01  3.9995615293449475e+01  4.0004736908409136e+01  3.9990323017694706e+01  3.9996373250642399e+01  4.0001835668170138e+01  4.0005613364587084e+01  3.9990458544764245e+01  4.0000483809119523e+01  4.0001426942525931e+01  3.9994308149546825e+01  3.9997360519233837e+01  3.9994932075475802e+01  4.0000856468044674e+01  3.9996833872041954e+01  4.0012457434514118e+01  4.0005899587831067e+01  4.0001914232233567e+01  3.9996001242099091e+01  4.0012523002709969e+01  4.0006413926359805e+01  3.9998110909670331e+01  4.0000791737280586e+01  3.9995250189444597e+01  4.0001386411374781e+01  4.0008777225985490e+01  4.0010934667310750e+01  3.9995087278645450e+01  4.0004483605678921e+01  4.0002775683053592e+01  4.0008574092474532e+01  4.0008079126833273e+01  4.0005270553315370e+01  4.0005507622401900e+01  4.0002648744317206e+01  3.9998502229488551e+01  3.9999823941345284e+01  4.0002010140742890e+01  4.0001567203045539e+01  4.0001010982836718e+01  3.9998689320950277e+01  3.9999567787081411e+01  3.9999998706334196e+01  3.9996333798466388e+01  4.0005804776320979e+01  4.0004375569740887e+01  4.0002932417853543e+01  4.0001896324642253e+01  4.0000669438486945e+01  3.9999240531531278e+01  4.0000221771987825e+01  4.0000473077496267e+01  3.9999993336723648e+01  4.0014241518861915e+01  4.0025257947532474e+01  4.0016198736277701e+01  4.0063156345207041e+01  4.0001472236918730e+01  3.9996512659635052e+01  3.9999327543429636e+01  3.9997228855371944e+01  4.0013104203895054e+01  3.9989445981974825e+01  3.9997424065404978e+01  4.0008639019892655e+01  3.9999472911216607e+01  3.9999624412750670e+01  3.9998862471510016e+01  4.0006521885267404e+01  3.9998352489579638e+01  4.0012771457388503e+01  4.0039464603883879e+01  3.9963919157108805e+01  3.9972204412054190e+01  4.0004802710594220e+01  4.0007158369555050e+01  4.0006842980953770e+01  4.0005509094562477e+01  3.9995991070311540e+01  3.9996914325588314e+01  3.9988503218766105e+01  3.9990315431702257e+01  4.0001000485212955e+01  3.9998238914322791e+01  3.9998412505068188e+01  4.0000399072843408e+01  4.0003387999579267e+01  4.0001843178784739e+01  4.0002284875220120e+01  3.9989002155593823e+01  4.0005708565392425e+01  3.9999999886420269e+01  3.9997172803667389e+01  3.9996403023876226e+01  3.9998735761749806e+01  4.0000907100833160e+01  4.0005902223502687e+01  4.0008486997640034e+01  4.0033993188747722e+01  3.9995556386569859e+01  3.9985222384098698e+01  4.0003337811041838e+01  4.0003313024609369e+01  4.0009606812574894e+01  3.9996455697608937e+01  4.0003863906172008e+01  3.9992440573882028e+01  3.9985187034568739e+01  4.0003067981746689e+01  3.9997350576403299e+01  4.0001467844238796e+01  4.0002029928467842e+01  4.0007914925105936e+01  3.9999258464100365e+01  3.9999849377819189e+01  4.0006348336640272e+01  3.9998763320592090e+01  4.0000053283212743e+01  4.0002847955520124e+01  4.0001365672101457e+01  4.0002597723368801e+01  3.9999464685076546e+01  4.0001314050010670e+01  3.9997973634755652e+01  4.0000434612150620e+01  3.9999044804895426e+01  3.9997126766165671e+01  4.0000556574590398e+01  3.9999445320614413e+01  4.0004713064571980e+01  4.0000345959715460e+01  4.0000761087306316e+01  3.9998245494872549e+01  4.0002851388056314e+01  3.9999202700938298e+01  3.9999242628353620e+01  4.0002963374290857e+01  4.0000585269312943e+01  4.0002415231090446e+01  4.0000552499519472e+01  4.0005653958408750e+01  3.9997423123719386e+01  4.0002368139806350e+01  4.0010292722490007e+01  4.0022237320595131e+01  4.0006214493669198e+01  4.0007869733914241e+01  4.0004375604100446e+01  4.0004415633726573e+01  4.0001391672740247e+01  3.9999301128582339e+01  4.0002699178610953e+01  4.0002563715316100e+01  3.9995292442361496e+01  4.0000547819505364e+01  4.0000701538462764e+01  4.0000312655317849e+01  3.9998173685268966e+01  3.9999584217077853e+01  3.9991410476502431e+01  3.9997863722256504e+01  3.9994187990085457e+01  3.9997039892322739e+01  4.0004443757373672e+01  3.9995383392512416e+01  3.9999108800592239e+01  3.9995882595131249e+01  4.0021820195162782e+01  3.9996118248232911e+01  4.0006042604720335e+01  3.9977070624244583e+01  4.0042459578918262e+01  3.9999093976019147e+01  4.0005011464864175e+01  3.9997017243586562e+01  4.0002600360459383e+01  4.0006436614536995e+01  3.9990758857832724e+01  4.0002954988592087e+01  3.9998933994166698e+01  3.9995414413251233e+01  4.0001796432073782e+01  3.9999221478001168e+01  3.9993313743052667e+01  4.0002137364714848e+01  4.0001122740419568e+01  4.0001029927905044e+01  4.0004172035946773e+01  4.0001667556198001e+01  4.0000191443848642e+01  4.0003082287651985e+01  3.9993380306776515e+01  4.0015040499262021e+01  3.9995629545331568e+01  3.9990802000557061e+01  4.0049164962561257e+01  4.0008887039683010e+01  4.0000599801271321e+01  3.9992110086956998e+01  4.0009026004295443e+01  4.0002351283206274e+01  4.0003116849174674e+01  4.0013727800956730e+01  4.0001567090224526e+01  4.0011598487566594e+01  4.0011373912031267e+01  3.9993529055438870e+01  3.9982141512504043e+01  4.0006616289030731e+01  4.0007930255362034e+01  3.9994136759985786e+01  4.0005161725769021e+01  3.9995027851523673e+01  3.9999206138617367e+01  4.0003388254088811e+01  4.0001977934718006e+01  4.0003826655499182e+01  3.9999354867236796e+01  3.9996589243658818e+01  4.0000974528189928e+01  4.0002264462908030e+01  3.9999509922401046e+01  4.0000412584791107e+01  3.9996140047101889e+01  3.9996629393958415e+01  3.9999769032552251e+01  3.9996950901712594e+01  3.9996573189811087e+01  3.9991509272833916e+01  3.9984686358667638e+01  4.0012837694198666e+01  4.0031210479205946e+01  4.0004844913147039e+01  3.9999134058194905e+01  4.0004563792924117e+01  4.0005298368078840e+01  4.0008174676244202e+01  3.9999829804738297e+01  3.9999043593092694e+01  3.9996426512730075e+01  4.0004697958605703e+01  3.9998820367191847e+01  3.9993992302119800e+01  4.0002219995124051e+01  4.0000090095064451e+01  4.0003587870406633e+01  4.0001066712425377e+01  4.0000045965353479e+01  3.9997502175459445e+01  3.9997626531884244e+01  3.9984715345375974e+01  3.9987164838967360e+01  4.0016433886234651e+01  4.0007964818777609e+01  3.9992542065227276e+01  3.9998876718998716e+01  3.9995308053699326e+01  4.0002858488965998e+01  3.9997605253956451e+01  3.9989031710091993e+01  3.9994432056494972e+01  4.0000970385537535e+01  4.0003118558309168e+01  4.0000175971344717e+01  4.0001873712477838e+01  4.0001186042271016e+01  4.0000900857548544e+01  3.9996540319242740e+01  4.0005210844114856e+01  4.0028837869370740e+01  4.0001314552612563e+01  3.9988349572959599e+01  4.0006381680540045e+01  3.9983720468008094e+01  3.9995425858239138e+01  3.9996732869951920e+01  4.0011938320697183e+01  3.9990973856631825e+01  3.9994583517559569e+01  4.0003185906927172e+01  4.0003867215327134e+01  3.9996544896179103e+01  4.0002366690169261e+01  4.0000665915163381e+01  3.9994835805948462e+01  4.0000808990335187e+01  3.9996197874302290e+01  3.9999818295832277e+01  4.0014760322426106e+01  3.9996456280784329e+01  3.9997577746229638e+01  3.9998641920513776e+01  4.0001922190631838e+01  4.0001474464809604e+01  4.0000994242478193e+01  3.9997344715742173e+01  4.0004249842285645e+01  3.9981893180164867e+01  3.9986723965100438e+01  4.0002559228524468e+01  3.9989030147313244e+01  3.9992221373556681e+01  3.9996945249389000e+01  4.0006443468798686e+01  3.9992058321769882e+01  4.0002092368064517e+01  4.0003893057966486e+01  3.9995068458982438e+01  3.9999907452124553e+01  3.9992946855952674e+01  4.0000201293416922e+01  4.0008379918234290e+01  3.9998115916111217e+01  4.0000934490474187e+01  3.9999586622691297e+01  4.0001875415037553e+01  4.0000108025931375e+01  3.9998879946872947e+01  3.9999423804145742e+01  3.9998020336557254e+01  3.9999328892704717e+01  4.0001974801154915e+01  3.9995829974907288e+01  4.0004324572050869e+01  3.9999565604475443e+01  3.9985254516765458e+01  4.0002730786807597e+01  3.9995243679741847e+01  3.9998917094627799e+01  3.9995836306044673e+01  4.0000780627468522e+01  4.0004744121812877e+01  3.9996174713336849e+01  3.9998355578278179e+01  3.9996938474607383e+01  4.0000175667231694e+01  3.9998180698499866e+01  3.9994956500671876e+01  3.9998383423256371e+01  3.9997608388007919e+01  3.9996711549098066e+01  4.0009763093194834e+01  4.0030398163431933e+01  3.9994723932036479e+01  3.9989424427176793e+01  3.9998220409639281e+01  3.9994987766346952e+01  4.0044698073448458e+01  4.0030178476835715e+01  4.0060640009251486e+01  3.9969831126035814e+01  3.9892773728409750e+01  3.9996773764897164e+01  3.9981868366976052e+01  4.0000725507407601e+01  3.9988525480640696e+01  4.0023561505396245e+01  3.9992370581512013e+01  4.0007521283688348e+01  3.9997847399666604e+01  4.0009443167885188e+01  3.9998063373926598e+01  3.9999781615597186e+01  4.0003454003333701e+01  4.0003704444883525e+01  4.0008329985700968e+01  4.0003064214362610e+01  4.0002668476609102e+01  3.9994655451110631e+01  3.9997324296190584e+01  4.0005486966065497e+01  4.0005048961454960e+01  3.9999258284993807e+01  4.0000950325155273e+01  4.0004078097524392e+01  4.0002646656427096e+01  4.0001362867282232e+01  3.9997495894931859e+01  3.9996681496203600e+01  4.0001017897805681e+01  3.9992894787674906e+01  3.9997678651079426e+01  3.9984940849835873e+01  4.0004409701602668e+01  3.9987808534574633e+01  3.9994193238349347e+01  4.0004079167386308e+01  4.0003267470696656e+01  4.0000641562816348e+01  4.0000202207177530e+01  3.9994550366739290e+01  3.9979698284835266e+01  3.9994333331707701e+01  4.0086819949066147e+01  3.9987053656741708e+01  3.9994685214785619e+01  3.9996070981012871e+01  4.0000826340809283e+01  3.9996849489872773e+01  3.9999632195417462e+01  4.0001211311613652e+01  3.9991595726256115e+01  3.9996486303280150e+01  4.0003591026537443e+01  3.9998779668814443e+01  3.9999784481106850e+01  4.0002572626092956e+01  3.9997290700789250e+01  3.9999206575842038e+01  4.0001541091760956e+01  4.0002866484122634e+01  3.9999799656389797e+01  3.9998442457943703e+01  4.0001357691961196e+01  3.9999789635189963e+01  4.0001930322971525e+01  4.0003326393038456e+01  4.0000221850681918e+01  3.9999000870371532e+01  3.9999075788324845e+01  3.9994925352737688e+01  3.9999734981290231e+01  4.0000404992666724e+01  4.0008006010167684e+01  4.0000810795892029e+01  4.0007075514591598e+01  3.9997273008835293e+01  4.0000048165942751e+01  3.9999226951103822e+01  3.9999356827201098e+01  3.9999120242766985e+01  3.9990103876816271e+01  4.0012347364321350e+01  3.9992122355974629e+01  3.9982874685335936e+01  3.9974470884594218e+01  4.0009876070215341e+01  3.9998322325463796e+01  3.9998097621314514e+01  3.9999248285243304e+01  4.0006541862203967e+01  3.9994526261851149e+01  3.9993091797625034e+01  4.0003580659979484e+01  4.0005414582153946e+01  4.0003552271535725e+01  4.0000953941601963e+01  4.0001377907335026e+01  3.9998486564740489e+01  4.0012374727669076e+01  3.9994795720076461e+01  3.9999363653781636e+01  3.9996887747150815e+01  4.0002770554853932e+01  4.0004202076674353e+01  4.0001080360863384e+01  3.9997068662552358e+01  4.0005763887630479e+01  3.9985755103680447e+01  3.9990951987107401e+01  3.9985309910749869e+01  4.0015491669217681e+01  4.0003838917345128e+01  3.9996112363358151e+01  3.9998105871490594e+01  4.0005293157902763e+01  4.0004368859988041e+01  3.9979313629229416e+01  4.0005275825954335e+01  4.0006445939183173e+01  4.0001039617670337e+01  4.0003219475174021e+01  4.0001208534586141e+01  3.9998364405906329e+01  4.0015000802557829e+01  3.9986602577080895e+01  3.9984163764573836e+01  3.9998918406386530e+01  4.0004434176789523e+01  4.0001822111422484e+01  4.0003627011332100e+01  3.9998831298937958e+01  4.0005334967841662e+01  3.9981718075962505e+01  3.9996061899633986e+01  3.9996145576247486e+01  4.0002385673362618e+01  3.9987075806897543e+01  4.0007704747323089e+01  4.0002135262900985e+01  3.9999276022331571e+01  3.9999297746772591e+01  4.0001883383784445e+01  3.9999243755179791e+01  3.9997672528686813e+01  3.9999739851908188e+01  4.0002331892096905e+01  4.0008336781647010e+01  4.0007470652856142e+01  3.9999792905310052e+01  4.0002940656903071e+01  3.9997210005182488e+01  4.0002154230421020e+01  3.9998826204736005e+01  4.0000947535049285e+01  4.0002715490067743e+01  4.0011887100624143e+01  3.9986143788048558e+01  4.0008918942503740e+01  3.9995752700105186e+01  4.0004730717304916e+01  4.0001717085305515e+01  3.9994037938889676e+01  4.0014824514917514e+01  3.9997857704408474e+01  3.9970760362883510e+01  4.0006142110872005e+01  3.9984647089189416e+01  4.0010677467941903e+01  3.9992556665174355e+01  3.9994783774978664e+01  4.0003725025159149e+01  3.9997456370669589e+01  4.0012141706638019e+01  4.0007287507162395e+01  3.9993389758484739e+01  4.0005731893875165e+01  4.0024871378539991e+01  4.0000023131478756e+01  4.0000349452041220e+01  4.0004001416215537e+01  4.0002344537125737e+01  3.9985607272317843e+01  3.9999805211018746e+01  4.0001306709431979e+01  3.9986415694217598e+01  3.9997579409564167e+01  4.0003955127936109e+01  3.9994997217751084e+01  3.9994104891027817e+01  4.0001933417065494e+01  3.9991145269750753e+01  4.0000279798529618e+01  3.9997568233401644e+01  4.0000117117837043e+01  3.9998908390749214e+01  4.0001175379657731e+01  3.9991066515695884e+01  4.0001150128516599e+01  4.0000064128807537e+01  4.0002658198889939e+01  4.0004747461723539e+01  3.9998121398845818e+01  4.0004157600039569e+01  3.9993879537433529e+01  3.9997295917804756e+01  3.9998844065810061e+01  4.0005161028513356e+01  3.9984046786306415e+01  4.0001148554984830e+01  3.9996071940609596e+01  3.9996660724423315e+01  3.9998868895689291e+01  3.9998796226164934e+01  4.0001714058029492e+01  3.9991119424229154e+01  3.9999956779859758e+01  3.9997739825477986e+01  3.9998222965603297e+01  3.9999618331295387e+01  4.0005467400765468e+01  3.9990397209563085e+01  4.0002051460621963e+01  4.0001378898267134e+01  3.9999511474356183e+01  3.9997939922347292e+01  4.0004176351014728e+01  3.9996382348811132e+01  3.9942713909249903e+01  4.0002555275654842e+01  4.0000212782526333e+01  3.9999090097240639e+01  4.0000511516638490e+01  4.0005437102587067e+01  4.0000293070584085e+01  4.0002409835456440e+01  4.0000275082215644e+01  4.0001834824712049e+01  3.9997784695518632e+01  4.0002289980274263e+01  3.9994729140772428e+01  3.9998750467135444e+01  3.9988901440814750e+01  4.0010323982667977e+01  3.9995659151526930e+01  3.9998468652190098e+01  4.0000802846807872e+01  4.0008605630054845e+01  3.9993014007299188e+01  3.9998491199658595e+01  3.9994707045722933e+01  3.9998076598402648e+01  4.0001581474092454e+01  4.0009908499007196e+01  3.9967107331813565e+01  3.9977287682780577e+01  3.9987025728295748e+01  3.9989987151368332e+01  4.0007513720811389e+01  3.9997201747188171e+01  4.0001471523663078e+01  4.0010238565838996e+01  3.9999203995779752e+01  4.0005679586990546e+01  4.0001045460465804e+01  3.9993152171883985e+01  3.9988955673294711e+01  4.0001083983858287e+01  4.0001729242366643e+01  3.9999612242035894e+01  4.0001373507217380e+01  3.9990463964533994e+01  4.0031499186929750e+01  3.9993949154970636e+01  3.9997398057408944e+01  4.0000353075881833e+01  4.0007557655936438e+01  4.0007605506603248e+01  3.9998712190333059e+01  3.9997902809984964e+01  3.9984815234214068e+01  4.0010031442859209e+01  3.9998749322783667e+01  4.0005909578361091e+01  3.9991852073031986e+01  4.0000945289322196e+01  4.0012011787719693e+01  3.9968254208233937e+01  3.9979177229993581e+01  3.9979651836632179e+01  4.0014168626512095e+01  4.0003510582317560e+01  3.9980277042507581e+01  4.0007131862936824e+01  4.0000846866052960e+01  3.9981120813435609e+01  4.0004227076744172e+01  4.0000908398007915e+01  4.0003592047751681e+01  4.0002710805178616e+01  4.0007141757347270e+01  4.0008452190356060e+01  4.0008299637214392e+01  4.0002162780506794e+01  4.0006483246925129e+01  3.9989941391846166e+01  3.9996369517235706e+01  3.9994855968259955e+01  4.0001867482103847e+01  3.9993952477055799e+01  3.9995818155922038e+01  3.9996843283459128e+01  3.9995388350979511e+01  3.9994640311139385e+01  4.0000255650998604e+01  4.0000231567073399e+01  4.0002895801362520e+01  4.0001259989494457e+01  4.0000907441427579e+01  4.0004758777704545e+01  4.0003453165605102e+01  3.9999370536215153e+01  3.9963062916385212e+01  4.0006103612192824e+01  3.9985980878328427e+01  4.0002557995214183e+01  3.9979715600947245e+01  4.0009406191299981e+01  3.9994507200268153e+01  3.9993388161285871e+01  3.9982987110718689e+01  3.9994293241927672e+01  4.0017561463720085e+01  4.0020761900455170e+01  4.0013214147051912e+01  3.9988017723813222e+01  3.9993251485444631e+01  4.0011865559733856e+01  4.0005524221986171e+01  4.0007333379515337e+01  4.0003361748752923e+01  4.0003483256174178e+01  3.9999970278955345e+01  4.0005934923627272e+01  4.0000844519153254e+01  4.0006863023488869e+01  4.0000369074820256e+01  4.0003310895024718e+01  3.9997349887445523e+01  3.999330728803560