<?xml version="1.0"?>
<VTKFile type="UnstructuredGrid"  version="0.1"  >
<UnstructuredGrid>
<Piece  NumberOfPoints="7267" NumberOfCells="32038">
<Points>
<DataArray  type="Float64"  NumberOfComponents="3"  format="ascii">16.1038806016 27.8374516319 23.5863025544  16.7923388348 27.2809820234 22.74517156565  16.5362310263 27.1227042067 23.38876832545  17.11042925895 27.55546872465 23.2378011478  16.3599884101 27.9957294486 22.9427057946  16.6160962186 28.1540072653 22.2991090348  18.1169779163 27.2734858174 22.8892997412  17.54277968365 26.84072129945 23.04026691885  16.968581451 26.4079567815 23.1912340965  16.2479927821 29.052518941 23.1268195479  17.06914867055 28.1046755095 23.15738432695  16.43204450035 28.60326310315 22.71296429135  17.1412047608 28.71220916405 22.9276428237  16.17593669185 28.44498528645 23.35656105115  17.32525647905 28.2629533262 22.51378756715  18.0344167395 28.3718993871 22.7284660995  15.9353124553 27.48021047975 23.0105516897  15.766744309 27.1229693276 22.434800825  16.36766288 26.76546305455 22.81301746075  16.1914202638 27.63848829645 22.3669549299  16.9619800596 31.2765322473 20.5810632735  18.2641831452 30.9813569606 20.77680594735  17.54945969075 30.54088159415 21.3578352654  17.62790700465 31.15692859915 21.2465928221  16.8835327457 30.6604852423 20.6923057168  16.8050854318 30.0444382373 20.8035481601  18.2938339497 31.037324951 21.9121223707  17.1991969196 32.9994934729 20.3522677177  17.6868186149 32.00358868505 20.4174478205  17.70487228535 33.00218844705 20.22885913525  17.8142645311 32.47097102145 20.6744137992  18.4293321426 31.94244857 20.9965598807  18.31993989685 32.4736659956 20.55100521675  18.2105476511 33.0048834212 20.1054505528  16.4980285235 29.14198014895 22.5153259552  16.7480642649 29.2314413569 21.9038323625  17.3912405022 28.801670372 22.316149231  16.68208024175 28.6927243111 22.10147069865  17.44617380435 28.36417997 21.85990136925  16.7370135439 28.2552339091 21.6452228369  18.33193224165 31.4339187701 20.31902470235  17.6956561011 31.60949040865 20.7888115771  18.36158304615 31.4898867605 21.4543411257  26.0979961605 31.1423082753 22.9256328591  26.3531561962 32.13437291225 22.7431904101  25.88298819175 32.04932354925 23.29239674915  25.47045341975 32.24028706805 22.80930699345  25.667980223 32.9563388232 23.6591606392  23.7689801865 36.8890285967 22.8761394986  24.5631467071 36.29735912370001 22.95993667895  24.33298202235 36.40263059500001 23.53799062715  24.48873236605 36.85626254265 22.96706675135  23.84339452755 36.33012517775001 22.8690094262  23.9178088686 35.7712217588 22.8618793538  24.4073963634 35.84372717605 23.53086055475  25.2084845456 36.8234964886 23.0579940041  25.0527342019 36.36986454095 23.6289178799  24.8969838582 35.9162325933 24.1998417557  24.2284005628 40.6559837499 23.7499489128  25.08434514605 39.2105532428 24.29034834875  24.7529141386 39.4644701708 23.5332310038  24.3611414329 39.2105532428 24.0730930882  24.95160427595 40.6559837499 23.96720417335  25.6748079891 40.6559837499 24.1844594339  24.493882303 37.7651227357 24.3962372636  24.8856550087 38.0190396637 23.8563751792  25.2774277144 38.2729565917 23.3165130948  22.6344321048 39.3543479134 23.87674482  23.69192512905 39.5272791722 23.5290816455  22.8815559225 39.3270521085 23.6321687096  23.4314163338 40.00516583165 23.8133468664  22.89494090005 38.87646125395 23.5924795991  23.1554496953 38.3985745945 23.3082143782  23.14206471775 38.84916544905 23.3479034887  23.6785401515 39.97787002675 23.568770756  23.1286797402 39.2997563036 23.3875925992  25.9861643664 36.5237785751 24.8484220409  25.58082141755 35.91502294465 23.9460467982  25.5631256399 36.6559820852 24.0590596129  25.4415741123 36.2200055842 24.5241318983  26.12541167165 36.21879593555001 24.2703369408  26.24696319925 36.65477243655 23.8052646554  26.107715894 36.9597550761 24.3833497555  26.2292674216 37.3957315771 23.9182774701  26.2646589769 35.913813296 23.6922518407  25.7188759836 37.10961403285 23.4881357371  25.3615748623 37.5804271564 24.15725736685  24.6954330806 36.8406776645 24.29803950965  24.8511834243 37.29430961215 23.72711563385  23.5394492474 35.7666844463 23.8669486525  24.2182165528 35.8414585198 24.0333952041  24.0166657752 36.765903591 24.13159295805  23.65421471695 36.3278565215 23.37154407555  24.13143124475 37.3270756662 23.6361883811  24.52697708995 36.98755284550001 22.428925285  24.49048647895 37.45750116215 22.65600077325  23.38669638985 38.8221449115 23.10579383125  23.9231718236 39.9508494892 23.32666109855  23.6179430844 39.2457152285 22.9033732843  24.21643870485 38.3357655931 23.3123637365  23.82466599915 38.0818486651 23.8522258209  23.8401561338 34.7289324578 23.2124328795  24.53820541035 35.0522440101 23.0799092563  24.38081819185 34.6198332685 23.70237767755  24.70215341705 34.43158792955 22.82802100645  24.9214802499 34.5107340792 24.1923224756  25.0788674684 34.9431448208 23.56985405435  25.2428154751 34.32248874024999 23.3179658045  25.2362546869 35.3755555624 22.9473856331  26.3568848664 34.7521274594 23.9506639978  25.79656977665 35.06384151090001 23.44902481545  25.63918255815 34.6314307693 24.0714932367  26.2165975545 37.9977571854 24.9917120971  25.74701263445 38.13535688855 24.15411259595  25.35523992875 37.88143996055 24.69397468035  25.9457027718 39.32687046765 24.5880857655  24.52320395045 37.5809925942 23.0963262967  25.24295613 37.54822654015 23.18725354945  25.06661927255 35.64589407785 23.5736136944  26.0950314259 35.1449866169 24.8228439682  25.6269343623 35.33418002635 24.07525287675  25.49600764205 35.5306096051 24.51134286195  26.1798452014 35.52939995645 24.25754790445  26.22595814615 34.94855703815 24.386753983  26.31077192165 35.3329703777 23.82145791925  24.39719618095 34.0198113985 23.43488487495  24.1972568433 32.6100785974 23.2082938817  25.4185386584 32.8292393571 22.20153124055  24.93261853315 32.7832087103 23.43372726045  24.8807037718 33.37216099935 22.82595150755  24.7704461675 33.2426137705 23.16830395675  24.03508447765 33.0694836576 22.942870578  23.872912112 33.5288887178 22.6774472743  26.6844873319 31.0621399796 24.2704365665  26.7703485962 31.9764469092 23.37844881365  27.22019740805 31.16637103805 24.04099611375  27.0635941819 31.93636276135 24.05085066735  27.4427010319 32.8105855431 23.8312647682  27.59930425805 32.04059381979999 23.8214102146  27.7559074842 31.2706020965 23.811555661  25.73657176125 36.3686548923 23.3751229224  23.0228094837 39.2726029359 23.2524584476  23.07574461195 39.28617961975 23.3200255234  23.0891295895 38.8355887652 23.2803364129  23.32037628405 39.2591590822 23.07791586595  23.3733114123 39.27273576605 23.14548294175  26.22293248805 37.69674438125 24.4549947836  26.04059789615 35.834382596 24.83563300455  24.90923205405 35.21348333625 24.19608211565  24.8880503427 31.6465344835 23.2562633692  25.6634919043 32.00817612335 23.8626985877  25.27801528285 32.30143665335 23.4577120042  25.27352696415 31.3532739535 23.6612499527  25.4930232516 31.3944213794 23.09094811415  25.6590035856 31.0600134235 24.0662365362  25.87849987305 31.1011608494 23.49593469765  25.2400233347 37.1444506554 24.62232965225  25.74904238875 34.12977044599999 24.4338263424  25.5082558379 34.82786034805 24.5075832219  26.33581797675 34.44689671485 24.7490870887  26.5766045276 33.7488068128 24.6753302092  26.466744697 34.2504671361 24.3129971035  27.001330848 32.1113810637 24.7903510778  26.17623377745 32.0092394014 23.96479860285  27.22201593995 32.4609833034 24.310807923  26.3346555355 32.53385994345 24.2247558585  26.84290908995 31.58676052165 24.53039382215  26.55534062745 32.88346218315 23.7452127037  24.368569996 35.32258252555 23.7061373176  23.8789825012 35.2500771083 23.03715611665  24.4788981797 31.9296813972 22.64915389395  24.7350917299 32.06715695515 22.5838736147  24.542653593 32.12830654045 23.23227862545  27.3786191661 31.6909915801 24.3009533694  24.13318535765 37.9283142857 23.325122403  23.4622149409 37.6438015956 23.0921769384  26.4167328353 38.0654810208 24.0331120476  26.1222923753 33.352572818 24.1672454242  27.00965277975 33.27969617795 24.2532974887  26.7889676878 32.93009393825 24.7328406435  24.23046474865 35.13870926275 24.02963556405  23.6898026906 35.24780845204999 23.539690766  25.7504568319 35.6446844292 23.3198187369  23.728629058 35.76895310255 23.36441400315  26.10138096045 37.26076788025 24.920067069  26.0124325447 33.8542331413 23.8049123185  25.29473023645 33.7335364512 23.9257415574  22.9185437946 36.8963822505 24.0219974272  23.7062130488 37.33075249309999 24.2091173454  23.34376199055 36.8927054236 23.4490684629  23.228996521 36.3315333484 23.94447303985  26.3912417462 31.10222412745 23.5980347128  26.17174545875 31.06107670155 24.16833655135  22.82862079425 39.31347542464999 23.5646016338  26.2764239379 33.4872079326 23.6685628671  26.7307360902 33.8834419274 24.1766476521  26.6208762596 34.3851022507 23.8143145464  26.8848676528 34.018077042 23.677965095  27.16378434235 33.41433129255 23.7546149316  23.03699674495 37.6474784225 23.6651059027  27.0919670993 31.5864196163 33.1281990707  27.57915484635 31.4095106394 34.5024545984  27.30470857435 31.0569359636 34.3507340329  26.957548755 31.46276728675 34.21403161205  27.43912691865 31.18058829315 33.26490149155  27.71357319065 31.53316296895 33.41662205705  27.786286738 30.77475697 33.4016039124  28.06073301 31.1273316458 33.5533244779  28.335179282 31.4799063216 33.7050450434  26.8231304107 31.3391149572 35.2998641534  31.9751134035 31.6446937281 36.2783303181  32.8430753572 31.36620999225 37.21674742375  32.1346849675 31.4669885957 37.1889144718  32.28222205725 31.1353686967 36.4820102326  32.6835037932 31.54391512465 36.30616327005  32.589330711 30.6260436653 36.6856901471  32.44179362125 30.9576635643 37.3925943863  32.99061244695 31.03459009325 36.50984318455  33.3918941829 31.4431365212 36.333996222  32.2942565315 31.2892834633 38.0994986255  31.4555106985 36.7668670068 36.9224474959  31.4480042668 37.09400895935 37.7441585223  31.16897343
[...]
<PointData  Scalars="p_O2"> 
<DataArray  type="Float64"  Name="p_O2"  format="ascii">9.9994958149668435e+01  9.9985848772827850e+01  1.0004189667752078e+02  9.9983498538897422e+01  9.9988439070513408e+01  9.9982114896104846e+01  1.0002099228939655e+02  1.0001026028459634e+02  1.0000041690469199e+02  9.9993435039069425e+01  1.0002456589060336e+02  9.9966270406632177e+01  1.0002181010664738e+02  9.9977781182511194e+01  1.0001816968354323e+02  1.0001176547482652e+02  9.9978119491102703e+01  1.0000161374859358e+02  1.0001388097950098e+02  1.0001444635180520e+02  9.9995464004595718e+01  9.9972750309553604e+01  1.0000082251201813e+02  9.9997391721672500e+01  9.9982645914585589e+01  9.9983294394651267e+01  1.0001133052991534e+02  9.9999028367091427e+01  1.0000268926669226e+02  9.9956060348529448e+01  9.9973858180188429e+01  1.0000456325308082e+02  1.0004577240722875e+02  1.0001266138726989e+02  1.0000075655400119e+02  9.9994713526848813e+01  1.0001361147152939e+02  1.0000118439069826e+02  1.0000339652290167e+02  9.9983268242198761e+01  9.9964689451871919e+01  1.0000735709186992e+02  1.0000326521862259e+02  9.9983291665126870e+01  1.0000539273129689e+02  1.0000786674989381e+02  1.0003304823316689e+02  1.0001013425941494e+02  9.9984489423057639e+01  9.9979988480046345e+01  1.0000245095058062e+02  9.9997488416367034e+01  9.9972634903517957e+01  9.9971029427607192e+01  1.0000088491412023e+02  1.0001254810010417e+02  9.9995563050431329e+01  9.9996797232728852e+01  9.9995800611021409e+01  9.9987893624323434e+01  9.9993082320791288e+01  9.9997055387932079e+01  9.9987488687817773e+01  9.9994886104777663e+01  9.9997924298653842e+01  1.0000207485238333e+02  1.0000126171550021e+02  9.9988767362844129e+01  1.0002088413030073e+02  9.9976930066790743e+01  1.0001443518023984e+02  9.9995032833864244e+01  9.9990116744409107e+01  1.0001272486498004e+02  1.0009575843526680e+02  1.0001586398209683e+02  1.0002374327884128e+02  9.9978519960319360e+01  9.9974764368297286e+01  1.0002649256262967e+02  9.9972929446735378e+01  1.0001423619404426e+02  1.0002169703373579e+02  1.0001472872867524e+02  1.0001285747606963e+02  9.9985160834991149e+01  9.9960484618222139e+01  9.9999535423650556e+01  1.0000842948012217e+02  9.9991441632859434e+01  1.0001173499633705e+02  1.0000212899915826e+02  1.0003244697867022e+02  9.9990617244133290e+01  1.0001986255011217e+02  1.0002306514605272e+02  1.0000878008921018e+02  9.9939372000196670e+01  9.9977510963555233e+01  9.9997048303482785e+01  1.0001322033622493e+02  9.9969717271939999e+01  9.9975902595818951e+01  9.9975606744746614e+01  9.9992593039199789e+01  1.0000125110085422e+02  1.0000648374139561e+02  9.9991220738136207e+01  1.0000237610259278e+02  1.0000559257593689e+02  1.0000388081272514e+02  9.9982388639830035e+01  1.0000778565382782e+02  9.9951958605150281e+01  1.0000606615442429e+02  9.9949647737934711e+01  9.9981581858524336e+01  9.9999056359665772e+01  1.0000801100901067e+02  1.0002047498016921e+02  9.9975549181702903e+01  9.9997376558189004e+01  1.0003242858005295e+02  9.9964705285550664e+01  1.0002459553299043e+02  1.0002930522368675e+02  9.9973583366673296e+01  1.0005189266121525e+02  9.9992554948865532e+01  1.0002036492440349e+02  1.0001947178681679e+02  9.9981373065633349e+01  9.9978119154061133e+01  1.0002404929461360e+02  9.9932343060817558e+01  9.9945568485324770e+01  9.9905809465626945e+01  1.0000298859623405e+02  1.0005130447393215e+02  9.9997729541995824e+01  1.0000811505035897e+02  1.0001164103085917e+02  1.0000886881540062e+02  1.0001300255534895e+02  1.0010980977522345e+02  1.0006662340972595e+02  1.0003493212320610e+02  9.9989903973338741e+01  9.9996119586202326e+01  9.9986232657511067e+01  9.9984281166335720e+01  1.0001663333543986e+02  1.0001876427607900e+02  9.9963726953714371e+01  9.9998292879921308e+01  9.9985677059365955e+01  9.9991682626691770e+01  1.0000155309356172e+02  1.0002049792005504e+02  1.0001547339150164e+02  1.0003244309685819e+02  1.0001110736309275e+02  1.0001358629405203e+02  1.0000211798787717e+02  1.0003973355539162e+02  1.0004692980183698e+02  1.0003430820989777e+02  9.9959758154700509e+01  1.0000384784864207e+02  9.9968248110219861e+01  9.9945376700843099e+01  1.0004750421238340e+02  9.9983553116908112e+01  9.9826233483608775e+01  9.9992109076798911e+01  9.9983783236170481e+01  1.0000416728445315e+02  1.0003227792689405e+02  9.9971798886997604e+01  1.0001379857454026e+02  1.0002749392145579e+02  1.0004729720713607e+02  9.9986789407922188e+01  1.0002469494707371e+02  1.0002378571010426e+02  9.9998137490484268e+01  9.9996897453266428e+01  9.9998019379273373e+01  1.0001319775546349e+02  1.0001539838119135e+02  9.9999142077202166e+01  1.0003772278057508e+02  9.9949551363118331e+01  9.9932561932532678e+01  9.9980070393784743e+01  9.9962210405829879e+01  9.9999618231635850e+01  1.0000350880357539e+02  1.0002880979065206e+02  1.0002232006961063e+02  9.9993639181782655e+01  9.9998588267329893e+01  1.0000493277935108e+02  1.0000568069038242e+02  1.0000315085618672e+02  1.0000218736220634e+02  9.9999927340258154e+01  1.0000085682854721e+02  9.9999007735708901e+01  1.0000217240002439e+02  1.0002404460164608e+02  1.0001066500467543e+02  1.0000680223680500e+02  9.9967483654268065e+01  9.9952650504327750e+01  1.0000253611651083e+02  1.0000689891260798e+02  1.0002182912487766e+02  9.9992606503047057e+01  1.0000253870504761e+02  1.0000451616317930e+02  1.0000041372611872e+02  9.9994990170007227e+01  9.9995403478536005e+01  1.0001835581553897e+02  9.9980605836400201e+01  1.0002664298065150e+02  9.9985753433507981e+01  1.0000281734948969e+02  9.9977125613152992e+01  9.9991452272288967e+01  1.0000808594947738e+02  9.9994231154591375e+01  9.9998687171439613e+01  9.9990195579465592e+01  9.9998324576733140e+01  1.0001024077523655e+02  9.9992084858249569e+01  1.0000791378076410e+02  1.0000253689420703e+02  9.9949570906566393e+01  1.0004400183002885e+02  1.0003309354854974e+02  1.0001558764523267e+02  9.9965762610719253e+01  1.0004633925085585e+02  1.0004020507859987e+02  9.9931138235939741e+01  9.9994350061522184e+01  1.0001153639952994e+02  9.9969949671859922e+01  1.0002682278466061e+02  9.9997280233273443e+01  1.0000459272561750e+02  1.0002868553902552e+02  1.0000659673369331e+02  9.9987773992642730e+01  9.9978460729253129e+01  9.9987389522633379e+01  1.0000363537771146e+02  9.9961954970459345e+01  9.9991120088894689e+01  1.0001776384612955e+02  9.9978192640413639e+01  1.0005187827500232e+02  1.0003705820568233e+02  9.9976115822085433e+01  1.0000162344315058e+02  1.0000244932851206e+02  1.0000377647126075e+02  1.0000679865762405e+02  1.0001044872173620e+02  1.0000084441672971e+02  9.9999637772490559e+01  1.0000252246195879e+02  9.9999805519346552e+01  1.0000103033916932e+02  1.0000367544111091e+02  1.0000236561522564e+02  9.9976004969684666e+01  1.0000995371086209e+02  9.9997292088021055e+01  1.0000968042731105e+02  1.0000307639719040e+02  1.0000180099484884e+02  9.9995843043250375e+01  9.9995858609254142e+01  1.0000633421876864e+02  9.9897439987274637e+01  1.0000200288380422e+02  9.9993695517996244e+01  9.9967610149709799e+01  1.0003421157776361e+02  1.0002898750922746e+02  9.9996249649538839e+01  1.0000513119695862e+02  9.9995796242338642e+01  1.0000405967096798e+02  9.9990074450357341e+01  9.9990226358762882e+01  1.0000353701595762e+02  1.0000754217827401e+02  1.0000250852422629e+02  1.0000446195089876e+02  1.0000320551651770e+02  9.9998230991599314e+01  9.9999132663092368e+01  9.9999609398824731e+01  9.9998235917315895e+01  9.9999591348179649e+01  9.9996476568234428e+01  9.9997421371199437e+01  1.0000215298340947e+02  9.9998686566573085e+01  9.9996838892122213e+01  1.0000041765771158e+02  1.0007719157179545e+02  9.9819703643070895e+01  9.9935088381524054e+01  9.9837510422485138e+01  1.0017046006058492e+02  1.0001645324398980e+02  1.0002529245635066e+02  9.9940155722038241e+01  1.0010200923287140e+02  1.0019024305245679e+02  1.0000293585753046e+02  1.0000707123111923e+02  1.0000891084094592e+02  1.0000256321512498e+02  1.0000313931414735e+02  9.9996167129590589e+01  9.9999372231894000e+01  1.0000772717128135e+02  1.0000293188659016e+02  1.0000086260584047e+02  9.9993136810962753e+01  1.0001851262909440e+02  1.0002405270553696e+02  1.0001346158958495e+02  1.0000984671327149e+02  9.9992017361146495e+01  9.9964238513335644e+01  1.0001841095427855e+02  9.9965170626666293e+01  9.9966696112447707e+01  9.9990670384575012e+01  1.0001143990453853e+02  1.0000062153543251e+02  9.9995010731998519e+01  9.9989342478475223e+01  1.0001659848822636e+02  1.0000018160093629e+02  1.0000163123777104e+02  1.0000575095918298e+02  1.0000387467386467e+02  1.0000061214009104e+02  9.9974171416071556e+01  9.9935446225099128e+01  1.0004750943853240e+02  1.0003519452693443e+02  9.9920388435504805e+01  9.9947779372912350e+01  9.9921591358042392e+01  9.9998889021594849e+01  9.9988194032946254e+01  9.9996528780858640e+01  9.9996066003652544e+01  9.9986806244278597e+01  9.9994164107995303e+01  9.9996568810581707e+01  1.0000153893958586e+02  9.9996317644544760e+01  1.0000316394451555e+02  9.9989161149180916e+01  1.0002291267970710e+02  9.9986787365156587e+01  1.0003904600198177e+02  1.0000177956908013e+02  1.0000411664104713e+02  9.9999176084410038e+01  1.0000202975420882e+02  9.9986320373721725e+01  9.9994879480186015e+01  9.9952569917188924e+01  9.9995341431109864e+01  9.9962203717560627e+01  1.0000372893976271e+02  9.9997236240764323e+01  1.0000658476583106e+02  9.9995468670804399e+01  9.9991674372883338e+01  9.9987391464883842e+01  9.9975785405703562e+01  9.9966981662292511e+01  9.9985938269065571e+01  9.9973888865575873e+01  9.9995279147713774e+01  1.0000003329865524e+02  9.9999812769674179e+01  9.9986184325190393e+01  1.0005309239941835e+02  9.9991931782966091e+01  9.9942417445936897e+01  1.0000931984542038e+02  1.0002441970651014e+02  9.9979671462865156e+01  9.9997626750738277e+01  1.0002256710848400e+02  9.9997458278966860e+01  1.0000777350085322e+02  9.9988930313333142e+01  1.0000336627346941e+02  1.0000129913694943e+02  1.0003748343629927e+02  1.0000840224992800e+02  9.9937899206842090e+01  1.0001610776755021e+02  9.9961247597778410e+01  9.9995847995446695e+01  9.9995653346923987e+01  1.0000055069553480e+02  9.9978370435344601e+01  9.9996779423523549e+01  9.9997909048096830e+01  9.9998334801692522e+01  1.0000408560386056e+02  9.9990506513744549e+01  9.9998035087485832e+01  9.9983643203388354e+01  9.9985881620735299e+01  1.0000045316642159e+02  9.9997793676216119e+01  1.0003904767327985e+02  1.0005677956553247e+02  1.0001248398393327e+02  9.9966319883706902e+01  9.9961962322644069e+01  9.9949384117922193e+01  1.0001470892656789e+02  9.9935965830312455e+01  1.0001394154851614e+02  9.9929572404590104e+01  1.0002446052778210e+02  1.0000464698065863e+02  1.0002543938780417e+02  1.0004883805530480e+02  9.9975604788917011e+01  1.0000340533746719e+02  9.9996604050432467e+01  9.9996344491364837e+01  1.0001776731771545e+02  9.9995653832209669e+01  9.9979672206173419e+01  1.0001504850519798e+02  1.0000777267471054e+02  9.9998168653009415e+01  9.9947307303130586e+01  1.0001908349913629e+02  1.0001913713045704e+02  1.0006707997177735e+02  9.9996345226625124e+01  9.9993630730874074e+01  1.0000209245264912e+02  9.9992675064684022e+01  9.9961813690323140e+01  1.0001974607751501e+02  9.9939692629969770e+01  9.9988584316674022e+01  9.9997999172965137e+01  9.9999577589621680e+01  1.0000153487888632e+02  9.9998190963851442e+01  1.0000743065359950e+02  1.0003054902492225e+02  9.9854613066107433e+01  9.9947990164811102e+01  9.9984060757000961e+01  9.9978048487295695e+01  9.9993496827110150e+01  1.0001206403787857e+02  9.9980291867175552e+01  1.0000199665802431e+02  9.9984218051479417e+01  9.9970846011408895e+01  9.9990681774891357e+01  1.0000623209896533e+02  9.9997615629656508e+01  9.9981005427681723e+01  1.0001360325150294e+02  1.0000209366890007e+02  9.9993440609121535e+01  1.0002209384045848e+02  9.9967097261973194e+01  9.9998349936568701e+01  1.0000207273535831e+02  9.9992047059380340e+01  9.9988950717651463e+01  9.9992777963659407e+01  9.9968311642507828e+01  9.9991134344960741e+01  9.9974185670603177e+01  9.9997779634478164e+01  9.9993682977222150e+01  9.9984544362595770e+01  9.9993685861585391e+01  9.9994345701051856e+01  1.0000213947073632e+02  1.0000154661233307e+02  1.0000237019457694e+02  1.0001952932125776e+02  1.0001433332987396e+02  1.0001520259206509e+02  1.0002362323552890e+02  1.0001092523986063e+02  9.9930741125773324e+01  9.9949411634232007e+01  9.9954839570462866e+01  9.9998778098091719e+01  1.0001003325296962e+02  9.9983364959188435e+01  1.0007576236577793e+02  1.0000436026177069e+02  9.9926857836774857e+01  9.9987079315048888e+01  9.9991605259654733e+01  1.0001177837368648e+02  1.0001119856146907e+02  9.9979178342672867e+01  1.0000448198991798e+02  9.9953596132827073e+01  9.9950959426776237e+01  9.9987737016876054e+01  1.0000052001812642e+02  1.0000107304004514e+02  9.9981114530226250e+01  9.9994051265781266e+01  1.0000293303988782e+02  1.0000150581960401e+02  1.0000094182263831e+02  9.9992828616691710e+01  1.0001676353480123e+02  1.0001587372906110e+02  1.0002121309298718e+02  9.9994860030183006e+01  9.9982702881207544e+01  9.9996484277153414e+01  9.9996211203666959e+01  1.0000159957866308e+02  1.0000452138005255e+02  9.9996963286745356e+01  1.0000244153736656e+02  1.0000329698071270e+02  1.0000340083710553e+02  1.0000306594667411e+02  1.0001842138558558e+02  9.9987450479873431e+01  1.0005118281600058e+02  9.9972303684236721e+01  9.9986442378863273e+01  9.9991251306630900e+01  9.9977319358282415e+01  1.0000863113984428e+02  1.0000145282013321e+02  9.9994608507330710e+01  9.9999055752331273e+01  9.9989659544787642e+01  9.9992198752597005e+01  1.0000862971928181e+02  9.9991293429402788e+01  9.9992046764353134e+01  9.9995422456698449e+01  9.9997433873717469e+01  1.0000781414850253e+02  9.9987521626567116e+01  1.0001658884826267e+02  1.0000426679398643e+02  9.9997328375361747e+01  9.9994266042416626e+01  9.9998487951614194e+01  9.9981663337948717e+01  9.9954381857230089e+01  9.9964869507255585e+01  1.0000091319421311e+02  1.0002989545556085e+02  9.9955897097435027e+01  9.9999747361766325e+01  1.0000287689663972e+02  9.9997692778882936e+01  9.9999714597403781e+01  9.9993308499475688e+01  1.0000750975408249e+02  9.9999404759258681e+01  9.9996851681089097e+01  1.0000920141764439e+02  9.9976790548606814e+01  9.9991498421143547e+01  1.0000581671970947e+02  1.0001138270347890e+02  1.0002390586776913e+02  9.9959465244260585e+01  1.0000751110484782e+02  1.0014377597725742e+02  1.0000405553039387e+02  9.9988934531029031e+01  1.0000920154630337e+02  9.9985507635511894e+01  9.9997204840039615e+01  9.9987207084086393e+01  1.0000419277355874e+02  1.0000056910973824e+02  9.9995895699851360e+01  1.0000509850010610e+02  9.9994841275048515e+01  9.9983548770753032e+01  9.9994272086702992e+01  1.0000828596019113e+02  9.9995466972753462e+01  9.9992419970225370e+01  1.0000447577965319e+02  1.0001102738655811e+02  9.9987954352142538e+01  1.0000081877245258e+02  1.0000069230595409e+02  9.9983732626102537e+01  9.9990095010939470e+01  1.0005438832561786e+02  9.9998816089318638e+01  9.9989218656425876e+01  1.0001369957255058e+02  1.0003714713054407e+02  9.9973629451105310e+01  1.0000553518774309e+02  9.9977616531287964e+01  9.9968371435604396e+01  1.0001122261301919e+02  9.9977833344278679e+01  1.0001255505622623e+02  1.0000502834238711e+02  1.0000056219890647e+02  1.0001908349261510e+02  9.9997083443433652e+01  9.9993738942650765e+01  9.9992239048624171e+01  1.0001889612601043e+02  9.9993066787588958e+01  9.9998412077385481e+01  9.9967198291564358e+01  1.0004528081469907e+02  9.9817782403810739e+01  1.0001881289795880e+02  1.0009965801538864e+02  1.0005054705213342e+02  9.9972656245488196e+01  1.0002220544317795e+02  1.0001461148729301e+02  9.9999124418119109e+01  9.9980767796917263e+01  1.0006740633297102e+02  1.0000575893764081e+02  1.0000675890598710e+02  9.9979507860148615e+01  9.9981206769258918e+01  9.9973864989451116e+01  9.9986671111398863e+01  1.0000040835446349e+02  1.0001421450808748e+02  1.0000706881423464e+02  1.0000172495308756e+02  1.0000192198842585e+02  9.9964712821785781e+01  9.9999552429497953e+01  1.0000579284143333e+02  1.0000266540147754e+02  1.0000002344012390e+02  1.0001839186040266e+02  1.0002001283915870e+02  9.9997278386708558e+01  1.0001981150483024e+02  1.0000178595698478e+02  9.9999111827263874e+01  9.9998849588446490e+01  9.9992737346593216e+01  9.9989126613206082e+01  1.0000152666207732e+02  1.0004290337001055e+02  9.9999872741225758e+01  9.9997513076498393e+01  9.9984704557992941e+01  1.0000656722701126e+02  9.9984536266557456e+01  9.9987008365764282e+01  9.9991243732387829e+01  9.9965510618796557e+01  1.0003834412150688e+02  9.9984641346903700e+01  1.0000238372150383e+02  1.0001305181660427e+02  1.0000777299189967e+02  9.9991543220621296e+01  9.9990691105331081e+01  9.9857333126617192e+01  9.9958724314311283e+01  1.0000291809786104e+02  1.0015416072456961e+02  1.0004249174926149e+02  1.0003218091966781e+02  1.0000725470884593e+02  1.0001320084137713e+02  9.9997957062787989e+01  9.9993069444005698e+01  9.9997278257677195e+01  9.9971525627932479e+01  9.9975048918453581e+01  9.9989195780920312e+01  9.9978886599143522e+01  9.9977536585628982e+01  9.9987887445988164e+01  9.9999916173354094e+01  1.0000298217944668e+02  1.0000151496489333e+02  9.9993508641401732e+01  1.0000091874781215e+02  9.9998899669048896e+01  1.0000224456440715e+02  9.9998349427739143e+01  1.0000376772784520e+02  9.9986205412967962e+01  1.0000647218827994e+02  1.0000443614252860e+02  9.9991925934149478e+01  1.0003798098309147e+02  1.0004398074177170e+02  9.9988425753287473e+01  9.9999339679973517e+01  9.9997671507220446e+01  9.9993309511278497e+01  9.9986380132689078e+01  9.9991613142147031e+01  9.9993524623362418e+01  9.9987716412206652e+01  1.0003182116615628e+02  1.0000623995799261e+02  1.0000662917163611e+02  1.0000824666569321e+02  1.0000257276630204e+02  9.9986387496561349e+01  9.9997940450048375e+01  1.0004210392981665e+02  1.0001041987261488e+02  1.0007165802187168e+02  1.0000268979497805e+02  9.9957978904873016e+01  9.9999142068664412e+01  1.0000094618452549e+02  1.0001364392750783e+02  1.0000884529398603e+02  1.0000179451703720e+02  1.0000389142764612e+02  1.0000832636146136e+02  1.0000494919564665e+02  9.9994051854281352e+01  9.9996929771384572e+01  9.9997682131956836e+01  1.0000350181759903e+02  1.0000335871869915e+02  1.0000050179604746e+02  1.0000864445838369e+02  1.0001293210074832e+02  9.9998226158697278e+01  1.0000197611715485e+02  9.9999532028933629e+01  9.9997278433842865e+01  9.9993849775344898e+01  1.0000682469582863e+02  1.0000654185974706e+02  9.9997908478772203e+01  1.0001497642048203e+02  9.9902390633038721e+01  1.0001218697018318e+02  1.0002478132088508e+02  1.0000030109227966e+02  9.9992962546620134e+01  9.9994285678484189e+01  9.9999983568136656e+01  1.0000050763356887e+02  1.0000442200130458e+02  1.0000727301941596e+02  9.9994039942821644e+01  1.0000262050173507e+02  9.9999586451766177e+01  1.0000802763282088e+02  9.9987200356017183e+01  1.0000451048424928e+02  1.0000233358112742e+02  9.9997264769464877e+01  1.0002544964836467e+02  9.9998884193629195e+01  9.9999138445291322e+01  1.0000180603216509e+02  9.9998291656673246e+01  9.9999553748462489e+01  9.9990867968937181e+01  1.0001685613031125e+02  9.9998516554468793e+01  9.9986153775730955e+01  9.9990051931003933e+01  9.9994025509525670e+01  9.9990948917571586e+01  9.9989866817608743e+01  9.9993942222571476e+01  9.9997614415623829e+01  1.0000880835895516e+02  9.9991603509404612e+01  1.0000053510176656e+02  9.9999952302440079e+01  9.9971137621529664e+01  1.0002647430683557e+02  1.0002498631603058e+02  1.0003862925266631e+02  9.9971545801872239e+01  9.9972827513575567e+01  9.9993558304695924e+01  9.9999195988078810e+01  1.0000021859339660e+02  1.0000929503576123e+02  1.0001135745088628e+02  1.0000225036104588e+02  9.9994246145988328e+01  9.9996570201916029e