<?xml version="1.0"?>
<VTKFile type="UnstructuredGrid"  version="0.1"  >
<UnstructuredGrid>
<Piece  NumberOfPoints="7059" NumberOfCells="32770">
<Points>
<DataArray  type="Float64"  NumberOfComponents="3"  format="ascii">30.2314256915 9.2358355778 13.3590332947  29.84143844065 8.5592390481 14.96628016355  30.4210782305 9.15699717945 14.55026773205  30.39758497225 8.4891177213 14.0776550466  29.6752791599 9.305956904599999 14.24765841165  29.1191326283 9.376078231399999 15.1362835286  29.8649316989 9.227118506250001 15.438892849  30.563744253 7.7423998648 14.7962767985  30.58723751125 8.41027932295 15.26888948395  30.6107307695 9.078158781100001 15.7415021694  40.6758673128 10.4392728528 10.9896238935  39.4162037913 10.09402879085 10.33647389185  39.4030308389 10.3066654501 11.2074317267  39.05252996955 10.81316564175 10.7660835068  37.4291926263 11.1870584307 10.5425431201  37.79286644805 10.4679215798 10.11293350515  37.77969349565 10.68055823905 10.98389134  38.130194365 10.1740580474 11.4252395599  38.1433673174 9.961421388150001 10.55428172505  38.1565402698 9.7487847289 9.683323890200001  35.0358036668 3.682655436 20.5129590719  34.45609471315 2.96789971275 19.92684385645  34.88470693045 3.4146479309 19.73394232165  35.1500551187 3.2101375767 20.3917247532  34.6071914495 3.23590721785 20.7058606067  34.1785792322 2.7891589997 20.8987621415  34.7214429014 2.76338935855 20.584626288  35.2643065706 2.7376197174 20.2704904345  34.99895838235 2.9421300716 19.61270800295  34.7336101941 3.1466404258 18.9549255714  35.02493232 12.2129896914 13.8512643089  33.9874795265 12.46658218175 13.4680406917  34.2733649271 12.91604169555 14.01983098805  34.3661349014 12.07153829955 13.8806728747  34.6462769451 12.6080335736 13.4386321259  33.9932228834 12.3795464215 14.46187173685  34.652020302 12.52099781335 14.43246317105  34.279108284 12.8290059353 15.0136620332  34.2676215702 13.0030774558 13.0259999429  33.7073374828 11.9300869077 13.9100814405  35.3618320632 10.8212017099 8.7605551029  35.99544115405 10.49713023495 9.4553145024  35.81500020095 10.01502129485 8.728175917249999  36.21555283985 10.71541862525 8.855718941300001  37.0692736165 10.6096355406 8.950882779700001  36.4486092918 9.6909498199 9.422935316749999  36.8491619307 10.3913471503 9.550478340800002  36.6687209776 9.9092382102 8.82333975565  36.2681683387 9.2088408798 8.6957967316  36.6290502449 10.17305876 10.1500739019  36.0164740265 4.2213498663 18.1986534147  35.40818427085 4.16925725035 17.5837774488  35.32174313805 4.48282832175 17.964534602  35.99125174465 4.40571780995 17.57511734105  36.1029151593 3.9077787949 17.8178962615  35.9660294628 4.5900857536 16.9515812674  35.2965208562 4.6671962654 17.34099852835  36.07769287745 4.09214673855 17.19436018785  36.1893562921 3.5942077235 17.4371391083  34.6270122496 4.7443067772 17.7304157893  31.6777397587 3.2394962829 15.6144202635  31.6377680562 3.16577424005 16.64461707795  31.18369412825 3.3734123424 16.1833493723  31.81850140495 3.78390695245 16.42710382225  31.9592630512 4.328317622 17.239787381  31.77852970245 3.7101849096 17.4573006367  31.3244557745 3.91782301195 16.99603293105  30.6896484978 3.5073284019 16.7522784811  31.14372242575 3.29969029955 17.21354618675  31.5977963537 3.0920521972 17.6748138924  40.6758673128 5.7223849398 11.9912278899  39.5054483117 5.4063310286 12.3828891646  39.8601702536 5.44130545675 11.5624618706  40.6758673128 5.191495997800001 11.95241535985  40.6758673128 4.6606070558 11.9136028298  39.5054483117 4.8754420866 12.34407663455  39.8601702536 4.910416514750001 11.52364934055  39.0444731944 5.1602259737 11.1336958513  38.6897512525 5.12525154555 11.9541231453  38.3350293106 5.0902771174 12.7745504393  34.0181089293 0.7297174910999999 12.4746118069  33.9075847699 1.26821911125 11.88414606405  33.4589065623 0.4881391527 11.742496679  33.5866416641 1.18812251705 12.31921672665  34.3390520351 0.8098140853 12.0395411443  33.8903738275 0.02973412674999998 11.89789175925  33.7626387257 -0.6702492376 11.3211717116  34.2113169333 0.10983072095 11.46282109665  34.6599951409 0.8899106795 11.6044704817  33.1551743989 1.646527543 12.1638216464  37.53158482265 11.5129792033 11.514188918  38.1585763625 11.211109403 11.23790986165  37.1527019558 10.98242803935 11.26017039635  37.80807549315 11.71760959465 10.79656164175  38.18695836 12.2481607586 11.0505801634  37.50320282515 10.4759278477 11.70151861625  36.8762112853 10.777797648 11.9777976726  31.1428779961 10.083135131 16.9191067219  32.13891990505 9.218940774450001 17.29718694425  31.94277228295 10.1308937808 16.75163006375  31.65623105775 9.91381447855 17.4813928454  31.6255668434 9.388261426900002 16.73490082075  32.1082556907 8.693387722800001 16.5506949196  32.42546113025 9.4360200767 16.5674241626  32.1695841194 9.744493826099999 18.0436789689  32.4561253446 9.96157312835 17.31391618725  32.7426665698 10.1786524306 16.5841534056  30.3121483513 5.987756806 17.9790521771  30.74308460215 5.28361291335 17.18879008145  30.44602509255 5.6871523897 17.00789327725  30.14228014215 5.34867745765 17.8683275932  30.6092078609 5.58421732965 18.1599489813  29.972411933 4.7095981093 17.7576030093  30.2761568834 5.048073041349999 16.89716869335  30.43933965175 4.9451379813 18.0492243974  30.9062673705 5.1806778533 18.3408457855  30.5799018338 5.3865479734 16.0367343774  36.7768885965 8.6579950284 20.5467863077  37.10203544065 8.1740430254 19.5538628553  36.24501097415001 8.4010318823 19.77424628385  36.89848879445 8.076229590300001 20.1718349356  36.9804352427 8.755808463499999 19.9288142274  37.1839818889 8.8536218986 19.3108421471  36.44855762035 8.498845317400001 19.15627420355  37.0200889924 7.4944641522 19.7968835635  36.3666111721 7.8192664442 19.39929491175  35.7131333518 8.144068736199999 19.00170626  35.5927975658 11.6001198421 10.715106196  36.79758194675 11.7896352944 11.044230243  35.8793844165 11.9961660001 11.13051178095  35.7607837231 11.9540770901 10.50145790295  36.51099509605 11.3935891364 10.62882465805  35.9287698804 12.3080343381 10.2878096099  34.1357455637 9.097726528400001 -0.6591004764  35.0069339594 9.064608879000001 0.13789105035  34.4138025938 8.7966454295 0.13789105035  34.70508712385 9.156565292850001 0.5547152534999999  34.6918596239 8.495564330600001 0.9348825771  33.2071617463 11.8300368753 15.3876799636  32.71787770825 10.89333188595 15.08131317955  32.4705717153 11.46203496525 15.55168143735  33.04311610080001 10.61741702545 15.28019898065  33.45446773925001 11.261333796 14.9173117058  32.8790704553 9.404797175600001 15.1727179977  32.3065260698 10.2494151154 15.4442004544  33.29042209375 10.04871394615 14.80983072285  33.7017737322 10.6926307167 14.446943448  31.7339816843 11.0940330552 15.7156829111  30.8503059241 -0.6702492376 11.8798026776  30.17873379365 0.4735596972 11.7010845138  30.7348454975 0.8578469973499999 11.6223500836  30.44161124245 -0.01256134929999997 11.30394745715  30.0329165608 0.6451265390000001 10.7280922367  29.770039112 1.1312475855 11.12522929335  30.32615081585 1.51553488565 11.04649486315  30.6193850709 2.3859432323 11.3648974896  30.06327336705 2.00165593215 11.4436319198  29.5071616632 1.617368632 11.52236635  34.4977721524 -0.6702492376 17.6223330914  35.4362302869 0.80413992575 17.77962711115  35.18004013205 0.4826841509500001 17.33425444745  34.67112212915001 0.80413992575 17.6941253708  35.26288031015 -0.6702492376 17.70783483175  36.0279884679 -0.6702492376 17.7933365721  35.9451482898 0.4826841509500001 17.4197561878  34.8444721059 2.2785290891 17.7659176502  35.3533901088 1.9570733143 17.40604672685  35.8623081117 1.6356175395 17.0461758035  35.2436661163 2.7816744681 8.390044763800001  34.74510798865 2.78189137495 8.946435364900001  34.9401891506 2.10665943735 8.673865895550001  35.4266199937 2.5831289896 8.871972508900001  35.6095738711 2.3845835111 9.353900253999999  34.44163102295 2.1068763442 9.23025649665  34.92806186605 2.58334589645 9.428363109999999  35.123143028 1.90811395885 9.15579364065  34.6367121849 1.4316444066 8.9576870273  34.246549861 2.7821082818 9.502825966  33.7321532237 7.0361330467 9.524990047599999  34.87817444935 6.05121352195 9.345788151200001  34.6261932541 6.81702753575 9.40838102795  34.3534685466 6.3651217709 9.950649072899999  34.25685912645 6.72222479775 8.920129125900001  34.10148735135 7.1309357847 10.01324194965  34.470821479 7.2257385227 10.5014938517  34.72280267425 6.4599245089 10.43890097495  34.7815650292 6.4083165488 8.315268204200001  34.9747838695 5.6941104951 10.3763080982  40.6758673128 13.1651982742 12.8119454978  39.4314128364 12.7066795164 11.9312628306  38.9852063276 12.68648352105 12.46982949035  40.6758673128 12.5456141074 12.43556095005  40.6758673128 11.9260299406 12.0591764023  39.4314128364 12.0870953496 11.55487828285  38.9852063276 12.06689935425 12.0934449426  37.2945453424 12.2077687679 12.1277134829  37.7407518512 12.22796476325 11.58914682315  33.7928790066 4.1258611881 9.665768119799999  33.4633850263 5.2533486614 9.97120785525  32.6819987438 4.941313158450001 9.6079011735  33.8796685881 4.8392806699 9.481255458050001  33.3765954448 4.5399291796 10.155720517  33.0982823056 4.52724516695 9.1179487763  32.960311883 4.9539971711 10.6456729142  32.4036856046 4.9286291458 8.5701294328  33.1850718871 5.24066464875 8.93343611455  33.9664581696 5.5527001517 9.2967427963  35.4477115999 2.7428105279 17.064027037  36.0258322019 2.6149126315 17.2416574559  35.516914199 2.9363684063 17.60152837925  36.120153693 3.4006498451 16.89963776605  36.0509510939 3.2070919667 16.3621364238  35.9566296028 2.4213547531 16.70415611365  31.891803654 -0.6702492376 18.2358593827  31.94594012345 0.72060575135 17.37842566105  32.2155190585 0.72060575135 17.9652502726  32.42158154855 -0.6702492376 17.5998925098  31.62222471895 -0.6702492376 17.64903477115  31.3526457839 -0.6702492376 17.0622101596  32.1520026135 -0.6702492376 17.01306789825  32.9513594431 -0.6702492376 16.9639256369  32.74529695305 0.72060575135 17.3292833997  32.53923
[...]
<PointData  Scalars="p_O2"> 
<DataArray  type="Float64"  Name="p_O2"  format="ascii">1.0000387591434247e+02  9.9984138632357741e+01  9.9984830154727689e+01  9.9994886703101614e+01  1.0001552787866656e+02  1.0000567643125892e+02  1.0000784773843462e+02  1.0000995941242130e+02  1.0002364357710113e+02  1.0001561573822336e+02  1.0011503913627166e+02  1.0015521946695635e+02  1.0030831530312241e+02  1.0021294735755770e+02  1.0008404101273777e+02  1.0009652325074313e+02  1.0012039854721483e+02  1.0020068002834833e+02  1.0012936823369917e+02  1.0011312016875138e+02  9.9998540258265663e+01  9.9995296708900781e+01  9.9993663491873932e+01  9.9997022384495779e+01  9.9999835173092208e+01  1.0000089056349296e+02  9.9998953614745545e+01  9.9997447425541893e+01  9.9994461961908883e+01  9.9993577108290154e+01  1.0000333733312169e+02  1.0000430691241749e+02  9.9999880184668726e+01  9.9997568169629645e+01  1.0000951494991273e+02  1.0000987252716709e+02  1.0001445138619896e+02  1.0000967896631012e+02  1.0000885153592689e+02  1.0000882863360935e+02  1.0000871385880747e+02  1.0004396001114051e+02  1.0004600000738486e+02  1.0003910413140190e+02  1.0004751842270669e+02  1.0002685508518547e+02  1.0004934432144412e+02  1.0003447948605148e+02  1.0001646119407363e+02  1.0005056308468859e+02  9.9989857686088115e+01  9.9943767101090131e+01  9.9962869869111032e+01  1.0000024601869139e+02  9.9991450773371170e+01  9.9980708153614373e+01  9.9956010291910616e+01  1.0002268494040845e+02  1.0001088282063364e+02  1.0000281627783515e+02  1.0000038953738868e+02  1.0000461989276525e+02  1.0000710122958679e+02  1.0000795977444498e+02  1.0000482687155269e+02  1.0000608268903103e+02  9.9997456947796408e+01  1.0000692855129449e+02  1.0001026935609082e+02  1.0000624193665726e+02  1.0199591278760518e+02  1.0024990729746293e+02  1.0050676417378887e+02  1.0322857529670952e+02  1.0344711216645597e+02  1.0027880895318383e+02  1.0062494191085666e+02  1.0013949828701941e+02  1.0008078442183042e+02  1.0020223347084885e+02  1.0000164782846514e+02  1.0000089842314702e+02  1.0000353398384013e+02  1.0000506147496645e+02  9.9995288342668971e+01  9.9984887574484887e+01  1.0000003485360462e+02  9.9994653028791092e+01  9.9996780310701595e+01  9.9999392449636630e+01  1.0008142966882855e+02  1.0012844932777861e+02  1.0007576006935251e+02  1.0009949344454687e+02  1.0013977269469088e+02  1.0011482336317810e+02  1.0006069627809762e+02  9.9997433823445391e+01  1.0001787121863438e+02  1.0001003506120028e+02  1.0001261432865515e+02  1.0000631438393501e+02  1.0000575076771506e+02  1.0001214613469423e+02  1.0001834193074329e+02  1.0000997679384130e+02  1.0000623842057571e+02  9.9965701227746820e+01  1.0003527185386748e+02  1.0003958765810297e+02  9.9942479552685313e+01  9.9997057834008345e+01  9.9975051051284254e+01  1.0000308277492456e+02  9.9985549717868054e+01  9.9979031784097870e+01  9.9998347487181320e+01  1.0000034133576463e+02  9.9996678981113064e+01  1.0000610271127391e+02  9.9995094737096565e+01  1.0000943680090826e+02  9.9995290920009921e+01  9.9983930342154608e+01  9.9995691508775437e+01  9.9991792283099954e+01  1.0000328410276394e+02  1.0000244123762798e+02  1.0004598283251090e+02  9.9997199032856813e+01  1.0001978809609243e+02  1.0006341901636988e+02  1.0000084737438188e+02  1.0002091859604874e+02  9.9965658361024154e+01  1.0002981242856158e+02  1.0008153299017667e+02  1.0001255944718761e+02  1.0000352684102985e+02  1.0003916683104357e+02  9.9999044429480676e+01  1.0002044230623194e+02  1.0000367144827422e+02  1.0000864451518902e+02  1.0000468497897378e+02  1.0000905171267334e+02  1.0000555913103415e+02  1.0000173787131332e+02  9.9988091564061506e+01  1.0001098659820326e+02  1.0002058388381371e+02  9.9947543755009235e+01  9.9976617925289176e+01  9.9957064440897128e+01  1.0002092602317536e+02  1.0000804125141501e+02  1.0000000223492421e+02  1.0000334738814948e+02  1.0000012448100013e+02  9.9990517121815202e+01  9.9999994000662653e+01  9.9990842081375419e+01  1.0000048795262234e+02  1.0000013529418977e+02  9.9990603453615719e+01  9.9982608676936707e+01  9.9989961295680530e+01  9.9992456147412298e+01  9.9998752829749279e+01  9.9997767921697161e+01  1.0000613009871721e+02  9.9997861117554663e+01  9.9998918946179558e+01  1.0000495702528738e+02  1.0000273766295282e+02  9.9994214453740753e+01  9.9994218061460856e+01  9.9999379788129417e+01  9.9984141697464750e+01  9.9979627891618364e+01  9.9997440207163478e+01  9.9997510445443581e+01  9.9999057896583821e+01  1.0007103705381009e+02  9.9995919506215245e+01  9.9966328869130621e+01  1.0000290535489729e+02  9.9997158635714172e+01  1.0181765911626444e+02  1.0017520858851437e+02  9.9888226498796712e+01  1.0194504920651224e+02  1.0168086637832771e+02  1.0028021631042179e+02  9.9936872764345736e+01  1.0007619825622129e+02  1.0011119536700583e+02  9.9999185653166279e+01  1.0000729679866248e+02  9.9994035611149911e+01  1.0000043950002775e+02  1.0000096858403067e+02  9.9997618923528620e+01  1.0000369524626645e+02  1.0000574856728619e+02  1.0000587207226233e+02  1.0000242231235973e+02  1.0002652478723830e+02  9.9964458960910520e+01  9.9996854250547628e+01  1.0008476326383538e+02  1.0007763793341687e+02  9.9952414290773547e+01  9.9996966690814958e+01  1.0001332444634255e+02  1.0001355329353163e+02  1.0001281489354660e+02  9.9992353885935117e+01  1.0000135179658245e+02  9.9998552052229485e+01  9.9997309853788323e+01  1.0000791603974196e+02  1.0000164494484116e+02  1.0000477939223724e+02  1.0001684660909810e+02  1.0002179283889997e+02  1.0003200865948763e+02  1.0005453764904092e+02  1.0003884349317488e+02  1.0002790606805297e+02  1.0002415487803539e+02  9.9990457186758647e+01  9.9990149359758135e+01  9.9969056449356273e+01  1.0000571221552443e+02  1.0000452164562452e+02  1.0000456292656446e+02  1.0000688406862548e+02  1.0000554998065132e+02  1.0000760288754931e+02  9.9999813836635539e+01  9.9994688587139891e+01  1.0001059881514658e+02  9.9993418865910812e+01  9.9985419212186756e+01  9.9996964959658072e+01  9.9996447795337374e+01  1.0000391873117101e+02  9.9993331610398641e+01  9.9996429227077840e+01  1.0000438870857535e+02  1.0000593442159111e+02  1.0000928589556305e+02  9.9995724373675003e+01  1.0000081785476392e+02  9.9994904318409951e+01  9.9997293585599863e+01  9.9997225634825227e+01  1.0000271495464413e+02  1.0000387752306258e+02  1.0000293772608082e+02  9.9991579653910591e+01  9.9997189847558502e+01  9.9999638640022368e+01  9.9996179071334979e+01  9.9987089137204407e+01  9.9985773750302570e+01  1.0000181905873049e+02  9.9999452025177177e+01  1.0000308949796307e+02  1.0000808482887278e+02  9.9987548225074718e+01  9.9937222073388924e+01  9.9908686694289713e+01  1.0011093642586955e+02  1.0026748888237341e+02  1.0000041336445624e+02  9.9963668178216238e+01  1.0003409569814266e+02  1.0000409561865240e+02  1.0000593391979037e+02  1.0000530973703346e+02  1.0000354323239681e+02  1.0000663158882894e+02  1.0000190558741718e+02  1.0000204886623942e+02  1.0000162864680985e+02  9.9997035937894509e+01  1.0000417663318834e+02  9.9996783808939156e+01  9.9993892444498499e+01  9.9991656316401546e+01  1.0001708782616521e+02  1.0000759777490867e+02  1.0001032297747780e+02  1.0001138123526459e+02  1.0000082540208129e+02  1.0000671878315116e+02  1.0000847077811137e+02  1.0000832133396432e+02  1.0000035876144213e+02  1.0000621066344958e+02  1.0001094646335181e+02  1.0005434906950134e+02  1.0011583443811502e+02  9.9932306376355825e+01  1.0001126899363217e+02  1.0001223846568280e+02  1.0001802579624015e+02  9.9998082051819623e+01  1.0000716527640131e+02  1.0001465284351673e+02  1.0001608311578538e+02  9.9976526042224862e+01  1.0001457964013626e+02  1.0002888098214264e+02  1.0001482637642833e+02  1.0000877998063858e+02  1.0002162597029859e+02  1.0001526707187386e+02  1.0002536730015120e+02  9.9985650218601663e+01  1.0002292227769543e+02  1.0001399339892696e+02  9.9994738849577743e+01  1.0000300054284813e+02  1.0000053627337054e+02  1.0000226520599608e+02  1.0000327129344862e+02  1.0000129623754511e+02  1.0000223784581117e+02  1.0000263349875118e+02  9.9996618475713930e+01  9.9991712894469117e+01  9.9994448164178692e+01  9.9999509560961002e+01  1.0001102107807841e+02  1.0002798056718962e+02  1.0000247177696355e+02  1.0000468215784362e+02  1.0001204257002182e+02  1.0001445042069828e+02  1.0000351570036881e+02  1.0000737242786077e+02  9.9982313141989337e+01  1.0000543051004851e+02  1.0000560387813405e+02  1.0000532850347103e+02  9.9987932556430692e+01  9.9987836850821253e+01  1.0000235759440667e+02  9.9987600909356644e+01  1.0000103039599581e+02  1.0001301905385600e+02  1.0002129600141544e+02  1.0001676276423483e+02  1.0000977558403216e+02  1.0001128157273364e+02  1.0001071715528205e+02  1.0001243503659690e+02  1.0000866075493509e+02  1.0002212004023043e+02  1.0002239653735082e+02  1.0000559930173468e+02  1.0002617964731282e+02  1.0001068931898295e+02  9.9976038623601184e+01  1.0001334333758261e+02  1.0001423309672344e+02  9.9995353380225623e+01  1.0000659112606526e+02  1.0001711678075843e+02  1.0001938740628712e+02  1.0005748200579701e+02  1.0005601999284664e+02  1.0011938094508788e+02  9.9978846093637259e+01  1.0004010726144887e+02  1.0003053293771322e+02  1.0004147705185839e+02  1.0010945209860462e+02  1.0003788303239546e+02  1.0001099254483724e+02  1.0000674774214892e+02  1.0000097070062218e+02  1.0000394446764145e+02  1.0000411686094178e+02  1.0000220740187807e+02  1.0000552052796888e+02  1.0000261373324452e+02  9.9993507499170491e+01  9.9988616801500797e+01  9.9991129620048596e+01  1.0000089942242001e+02  1.0000516788243408e+02  1.0012450666224245e+02  1.0001676480672738e+02  9.9993862555959637e+01  1.0002634234962073e+02  1.0001703861145833e+02  9.9995027779010158e+01  1.0003980994795837e+02  1.0000106980510022e+02  1.0006029184185857e+02  9.9971553284267330e+01  9.9952337823854535e+01  1.0004969806574044e+02  1.0001047183530794e+02  1.0000388805622551e+02  9.9993745356567601e+01  9.9996793015894625e+01  1.0000712179935331e+02  1.0000900384614192e+02  9.9992225065286704e+01  9.9994386221284685e+01  1.0001166359964441e+02  9.9997352087655315e+01  1.0000371418539464e+02  1.0000899352989941e+02  1.0001067000750078e+02  1.0000253971472665e+02  1.0000219472385878e+02  1.0000533935355031e+02  9.9999589215335533e+01  9.9998120797262672e+01  9.9996152569748944e+01  1.0000428805680271e+02  9.9997434311318329e+01  9.9995297005137814e+01  1.0000406470896952e+02  9.9991943554527253e+01  1.0002119638744000e+02  1.0000741756507581e+02  1.0001058689039810e+02  1.0000839950177998e+02  9.9976222575103364e+01  9.9981992335029133e+01  9.9996679849766494e+01  1.0000733967336291e+02  9.9993882152481532e+01  9.9994986908107776e+01  1.0000820276716225e+02  1.0000439547446952e+02  1.0000728156953610e+02  1.0000854921587187e+02  1.0000423900611422e+02  1.0000925681729252e+02  1.0000546157295945e+02  1.0000619010825368e+02  1.0000760757585057e+02  1.0000454325163808e+02  1.0000503730940181e+02  9.9994221868988035e+01  1.0004076532373249e+02  1.0005061696566607e+02  1.0000402620080062e+02  9.9997889863961944e+01  1.0001218860526689e+02  1.0002960007298329e+02  9.9990606633539088e+01  9.9982481431962952e+01  9.9995468370456820e+01  9.9989112263344722e+01  9.9998560302669887e+01  1.0001005279409416e+02  9.9999508106235822e+01  9.9984641629450280e+01  1.0002865496099777e+02  9.9996236084798568e+01  9.9997276707476772e+01  9.9993730856733976e+01  1.0006571483493425e+02  1.0006143675428305e+02  1.0001056088192209e+02  9.9976753264081395e+01  1.0002222059773607e+02  1.0006696359580863e+02  1.0001685971645857e+02  9.9999223131617185e+01  9.9999568314576351e+01  1.0000253240791352e+02  1.0000007084835690e+02  9.9994021666403469e+01  9.9999401752744333e+01  9.9995937830005474e+01  1.0000404610632388e+02  1.0003448794386536e+02  9.9997568573344608e+01  9.9997966030393457e+01  1.0000800170739520e+02  1.0001347396280498e+02  1.0000300113081055e+02  1.0000250448907693e+02  9.9999394552921387e+01  1.0004206503940557e+02  9.9998982614840145e+01  1.0000001837097280e+02  1.0000432207925937e+02  9.9996398263898115e+01  1.0001782692551717e+02  1.0000242282182822e+02  9.9994450256124679e+01  1.0000964292534547e+02  9.9999481210201196e+01  1.0000310129661116e+02  1.0000621310461251e+02  1.0000527552004993e+02  1.0000046451100960e+02  1.0000026375408243e+02  1.0001401470331689e+02  9.9981806276441034e+01  1.0001640963977682e+02  1.0001712713947391e+02  1.0000351970947931e+02  1.0000864274014255e+02  1.0001580728495735e+02  1.0000433970054745e+02  1.0000313234381929e+02  1.0001533755894786e+02  1.0001063103690583e+02  1.0000533141278119e+02  1.0000559972196810e+02  1.0001215530190439e+02  1.0001094176289730e+02  1.0000377407858304e+02  1.0000184490534602e+02  9.9994363205328838e+01  1.0000569446980961e+02  1.0000522009989865e+02  9.9998458460948257e+01  9.9986829878891598e+01  9.9983902256355577e+01  9.9977863880570908e+01  1.0006129652690741e+02  9.9977887336158631e+01  1.0004246246963123e+02  1.0007365136105570e+02  9.9993509852622097e+01  1.0016123654138249e+02  1.0004933781315584e+02  1.0002311545109649e+02  1.0001811369864885e+02  9.9980813565229909e+01  1.0000603104187985e+02  9.9990673507878086e+01  1.0000554012929548e+02  9.9995793239594676e+01  1.0000824372150446e+02  1.0000840536781315e+02  1.0000352625925811e+02  1.0001104663426493e+02  9.9994460478153158e+01  1.0000337344130499e+02  9.9994587140828656e+01  1.0001468894156714e+02  1.0001517480016804e+02  1.0000723478679227e+02  1.0007000408131779e+02  9.9913959483664726e+01  1.0002395418900984e+02  1.0014010903209503e+02  1.0062985109001310e+02  9.9997400291818892e+01  1.0003672395074166e+02  1.0002141063330320e+02  1.0003936635321313e+02  1.0322921992204941e+02  1.0009987397546618e+02  1.0006218622798029e+02  9.9863048829182006e+01  9.9914045911968969e+01  9.9991854854052733e+01  1.0013583412443042e+02  9.9880921635442547e+01  1.0000824632654812e+02  1.0000942342213516e+02  1.0000643371492387e+02  1.0000753709350403e+02  1.0000917549560080e+02  1.0001007506579023e+02  1.0000396262288506e+02  1.0000898058652639e+02  1.0000138545276717e+02  1.0001090688665258e+02  9.9984441222123309e+01  1.0003784447709369e+02  9.9975532774247228e+01  9.9990187961678373e+01  9.9976071626701241e+01  1.0001193077218687e+02  9.9997345395095152e+01  9.9987514731118992e+01  9.9996433183074686e+01  9.9996197748509161e+01  1.0000020448513936e+02  9.9998556195945994e+01  9.9995925943712521e+01  1.0000488748406258e+02  1.0000381216354944e+02  1.0000055711106978e+02  1.0001320536718339e+02  1.0005270026229002e+02  9.9991306149062865e+01  9.9989782880741046e+01  1.0001549558950164e+02  1.0000653541111048e+02  1.0000462662029916e+02  9.9994536441366279e+01  1.0000823936756488e+02  1.0000764101529735e+02  9.9981448549070961e+01  1.0002312138744473e+02  1.0000302335646248e+02  1.0003026676231367e+02  9.9975727293694050e+01  9.9994640928954368e+01  9.9984462089941005e+01  1.0000112534993721e+02  1.0000951607129545e+02  1.0007418864115964e+02  1.0009539908669664e+02  1.0007230754355534e+02  9.9996338266029397e+01  9.9973527581150051e+01  1.0000362111566976e+02  9.9988734599280747e+01  9.9999073389274585e+01  1.0000078783249064e+02  9.9984486468109026e+01  9.9989029774819784e+01  1.0000860529884129e+02  1.0000263311227901e+02  9.9998895590127219e+01  9.9981411701035796e+01  9.9998860972452746e+01  9.9999409275681487e+01  9.9995489091643819e+01  1.0000092537750183e+02  9.9993520933481179e+01  1.0010046910713822e+02  1.0001386214543561e+02  1.0007592457705461e+02  1.0008920523346966e+02  1.0001008545200676e+02  1.0000291198530033e+02  1.0000813138288153e+02  1.0000553444594983e+02  1.0001525567791630e+02  1.0000724514764926e+02  1.0000544077802346e+02  9.9963207587894857e+01  1.0002196076620797e+02  9.9973653487721677e+01  9.9971277246827185e+01  9.9976945273651921e+01  1.0003084574250157e+02  1.0004707146346794e+02  1.0001087203406784e+02  1.0000561514067917e+02  1.0001446518650673e+02  1.0000607515219311e+02  1.0000793943187705e+02  1.0001882111783014e+02  9.9927610859873710e+01  9.9988278954200254e+01  1.0002114013497524e+02  9.9996166531664500e+01  1.0000638617016004e+02  9.9996011504466907e+01  1.0001206025882261e+02  1.0000256999719265e+02  1.0000880372428585e+02  9.9999861895955860e+01  1.0001433880211606e+02  1.0003849657097817e+02  1.0004874463605908e+02  1.0002916705192577e+02  1.0003679753235110e+02  1.0003807713860331e+02  1.0004151352219714e+02  1.0002799862582592e+02  1.0003767565818285e+02  1.0003313461978132e+02  1.0001758327337404e+02  1.0003067931347263e+02  1.0003574742604592e+02  1.0006346501072426e+02  1.0007279536100292e+02  1.0003095976220958e+02  1.0010147919520662e+02  1.0004726065426127e+02  1.0005842093112200e+02  1.0003269535838814e+02  1.0001384505951452e+02  1.0000257146323335e+02  1.0001150515855170e+02  1.0000643898864902e+02  1.0000967999683928e+02  1.0000424621680465e+02  1.0000166331474078e+02  1.0003960547642711e+02  1.0004192249783637e+02  1.0005278379048616e+02  1.0002301313997897e+02  1.0002843886130741e+02  1.0001774583544034e+02  1.0005758086355010e+02  1.0016899086166335e+02  1.0007342338475196e+02  1.0010823432513024e+02  1.0002548723925977e+02  1.0002451619449846e+02  1.0000801496908183e+02  1.0005788252934063e+02  1.0019425075174841e+02  1.0000387454431247e+02  1.0002552774479106e+02  9.9989595841349129e+01  1.0001080133896389e+02  9.9990255043150924e+01  1.0000714207266232e+02  9.9991117047397708e+01  1.0000015773678793e+02  1.0000202415107776e+02  9.9997652666048808e+01  1.0006927204328983e+02  9.9963483309542084e+01  9.9974321181598029e+01  1.0001182263947041e+02  1.0010223805935939e+02  1.0005307906584336e+02  1.0001075426264435e+02  1.0001631824596282e+02  1.0005286536858958e+02  1.0008087288994457e+02  1.0007462474623296e+02  1.0014947003667999e+02  1.0005920059765886e+02  1.0004600057348547e+02  9.9986500345989754e+01  9.9853231855976134e+01  1.0012909388043090e+02  1.0000998594947509e+02  1.0001401686974158e+02  9.9966076210383875e+01  1.0011442984472430e+02  1.0001662829632484e+02  1.0001165159317920e+02  1.0001133615866694e+02  1.0000042816307828e+02  1.0000537731880026e+02  9.9997470036166717e+01  1.0001828431698840e+02  1.0004911786182400e+02  9.9998378574655277e+01  9.9999071193703188e+01  1.0000222096019219e+02  1.0000597023818050e+02  1.0000412001186302e+02  1.0000227855524869e+02  9.9962805775609269e+01  1.0000464563265382e+02  9.9993608808925217e+01  1.0002578372424193e+02  9.9987554510956016e+01  9.9997296463669301e+01  1.0000592793109313e+02  1.0003645962112411e+02  9.9997418553135816e+01  1.0000895613802389e+02  9.9984641801388889e+01  9.9994970038576909e+01  1.0001361139532541e+02  9.9972725050417807e+01  9.9994273317641344e+01  1.0002724464537762e+02  9.9958126185477553e+01  1.0005515407234716e+02  1.0000418019770410e+02  1.0001604683507269e+02  1.0000274312664924e+02  1.0000204175355405e+02  9.9995767648251217e+01  1.0001661849794522e+02  9.9994329339401574e+01  9.9979844777874163e+01  1.0001851177424587e+02  1.0000706198500522e+02  1.0000567584974779e+02  1.0000245689958481e+02  1.0000242064022963e+02  9.9998421905669346e+01  1.0000289796910825e+02  1.0001914842351185e+02  1.0001577734087199e+02  1.0002601548480312e+02  9.9987494988144576e+01  1.0000582819585468e+02  1.0000380524830123e+02  1.0001055813503064e+02  9.9883122196455076e+01  9.9502224122585361e+01  9.9812909935356060e+01  1.0275431131420588e+02  1.0581193619507853e+02  9.9807723191813110e+01  1.0080787162147939e+02  9.9845369132132305e+01  9.9919244656542602e+01  1.0003126461986984e+02  9.9937491438408145e+01  1.0002512883636254e+02  1.0001275586945970e+02  9.9952163166459997e+01  9.9963515157485958e+01  1.0001073839479685e+02  1.0000133038644418e+02  9.9991881393777120e+01  1.0003749624760876e+02  9.9973309478647579e+01  1.0002744022661142e+02  1.0000441225455164e+02  1.0003070405284917e+02  1.0001406794529341e+02  1.0001363109362923e+02  1.0000590569831540e+02  1.0001140717773988e+02  1.0007386563572558e+02  9.9997122236703618e+01  9.9950717010036357e