<?xml version="1.0"?>
<VTKFile type="UnstructuredGrid"  version="0.1"  >
<UnstructuredGrid>
<Piece  NumberOfPoints="7318" NumberOfCells="33436">
<Points>
<DataArray  type="Float64"  NumberOfComponents="3"  format="ascii">25.2822024045 28.5382262942 14.4314939887  25.10595496525 28.4063158394 13.68662713875  24.85169835915 29.22684753635 13.8491326445  25.6365761361 28.6656984394 14.02368057015  25.9909498677 28.7931705846 13.6158671516  25.46032869685 28.5337879846 13.2788137202  25.20607209075 29.35431968155 13.44131922595  24.4211943138 29.9154687785 13.2667713003  24.6754509199 29.09493708155 13.10426579455  24.929707526 28.2744053846 12.9417602888  18.7054919972 32.1668590874 15.9219652243  18.86535134835 31.29890856245 15.38214217765  18.1130956461 31.4452906797 15.7768337852  18.7131398432 30.9316933984 15.90231259235  18.7207876892 29.6965277094 15.8826599604  18.27295499725 30.57734015475 15.23701073855  18.87299919435 30.06374287345 15.3624895457  18.1207434921 30.2101249907 15.75718115325  17.520699295 30.723722272 15.6317023461  19.0252106995 30.4309580375 14.842319131  16.7063781985 24.362441522 13.1827394144  15.5287171788 24.66884515105 12.7063610538  15.9418161735 25.18256191945 12.45923341145  16.09449917535 25.16551608145 13.14548926975  15.68140018065 24.65179931305 13.3926169121  16.55369519665 24.37948736 12.4964835561  16.4010121948 24.396533198 11.8102276978  15.4826201522 25.9685906409 13.1082391251  15.0695211575 25.4548738725 13.35536676745  14.6564221628 24.9411571041 13.6024944098  17.6011388179 24.2669462429 19.0768045694  16.2886439392 23.9430080857 18.5656627587  16.75001239125 23.96415486465 18.52467631695  16.7919410935 24.58651476255 18.69308160285  17.0978416636 23.62343956605 18.94938572525  16.5945445093 22.9799328892 18.8219668811  16.24671523695 23.3206481878 18.3972574728  15.9827433691 24.9060832822 18.3093586363  15.94081466685 24.2837233843 18.1409533504  15.8988859646 23.6613634864 17.9725480645  26.8504524323 27.7601949881 9.7227784729  25.87464580025 28.5894736837 9.83140570035  25.85705784155 28.02702111495 10.15063378245  26.4056034292 28.1126731788 10.44697476915  26.4231913879 28.67512574755 10.12774668705  26.30190684465 27.67454292425 9.426437486200001  25.753361257 27.5888908604 9.1300964995  25.9607544261 28.4651513695 11.1711710654  25.9783423848 29.02760393825 10.8519429833  25.9959303435 29.590056507 10.5327149012  21.9472806715 31.4425981792 15.6924087083  22.34063647975 30.34561768335 15.6262056365  21.7859701234 30.14099238675 14.9737441856  21.8831402715 30.81460861205 15.93344429525  22.40477687975 30.9736072505 15.38517004955  21.32847391515 30.60998331545 15.28098284435  20.7096671588 29.7773684517 14.8695569804  21.26433351515 29.9819937483 15.5220184313  22.862273088 30.5046163218 15.0779313908  21.8189998715 30.1866190449 16.1744798822  22.8120272795 27.5898622394 13.3232212565  22.73907183965 26.3440020906 12.99443405095  23.23404568815 26.89726025775 13.4322062429  22.58751879785 26.89356583115 13.50456223805  22.317053431 27.03660407225 12.88544906455  22.3630103162 26.1972694229 13.6859032196  23.0095372065 26.2009638495 13.61354722445  22.09254494935 26.340307664 13.0667900461  21.8220795825 26.4833459051 12.4476768726  23.6560640968 26.2046582761 13.5411912293  21.6751485326 24.8737266494 21.4913094217  21.78463744845 24.4350989631 20.72295169415  21.3058580724 24.70088678355 20.87297072185  21.574242336 24.0173522311 20.969625849  22.15392790865 24.60793882895 21.341290394  22.6327072847 24.3421510085 21.1912713663  22.05302171205 23.75156441065 20.8196068213  21.4733361394 23.1609778128 20.4479422763  21.2049518758 23.84451236525 20.35128714915  20.9365676122 24.5280469177 20.254632022  21.1236012497 26.2162381555 15.6512943872  21.4602722151 26.6769574778 14.8193888173  21.82189404065 26.02645825735 14.80978738255  21.8229060445 26.2177616205 15.40548150505  21.46128421895 26.86826084095 15.4150829398  21.12258924585 26.02493479235 15.0556002647  21.121577242 25.8336314292 14.4599061422  22.5222108393 26.2192850855 15.1596686229  22.16058901375 26.86978430595 15.16927005765  21.7989671882 27.5202835264 15.1788714924  18.9042850038 25.2955660763 16.3543921772  18.38163428105 25.1410956076 17.8834070022  18.37271737115 25.8497497485 16.78513288965  18.209131055 24.99252495905 16.8408516047  19.07678822985 25.44413672485 17.3969475747  19.2492914559 25.5927073734 18.4395029722  18.5452205972 25.99832039705 17.82768828715  17.5139771062 24.6894838418 17.3273110322  17.67756342235 25.54670863125 17.27159231715  17.8411497385 26.4039334207 17.2158736021  15.8619051699 23.814370468 21.9145840196  15.05905058535 24.48393627315 21.61782418875  15.75456958945 24.0117330045 21.3573175026  15.52918769915 24.54530338045 21.5170814723  15.1663861658 24.28657373665 22.17509070575  14.4708671617 24.7587770053 22.4355973919  14.83366869505 25.0175066491 21.77758815845  15.1964702284 25.2762362929 21.119578925  15.4218521187 24.74266591695 20.9598149553  15.647234009 24.209095541 20.8000509856  25.1681272502 27.4054646251 11.9230008988  25.3765770147 27.2887494142 13.03263442135  25.0489173881 27.83993500485 12.4323805938  24.8216052221 27.3073707847 12.7889583643  25.4957868768 26.85427903445 12.52325472635  24.475083194 27.2092769443 13.6549158298  24.70239536 27.74184116445 13.2983380593  25.1492648487 26.75618519405 13.38921219185  25.8234465034 26.3030934438 13.1235085539  24.0227172303 30.9013178272 17.7443932863  23.14092516915 30.1457481963 17.4803412342  23.1219033298 30.78922300175 17.55610586985  23.95949878595 30.65049656675 17.1837190918  24.04173906965 30.25784302175 17.66862865065  24.060760909 29.6143682163 17.592864015  23.9785206253 30.0070217613 17.10795445615  23.8962803416 30.3996753063 16.6230448973  23.05868488545 30.5384017413 16.99543167535  22.2210894293 30.6771281763 17.3678184534  22.0471701257 22.1011995108 18.5206643085  22.5761685861 23.34622042835 19.1745590854  22.0416435016 23.35510733735 18.89297584945  22.4884997547 22.41041152495 18.32494162215  22.5816952102 22.0923126018 18.80224754445  23.1162202947 22.0834256928 19.0838307804  23.0230248392 22.40152461595 18.6065248581  22.9298293837 22.7196235391 18.1292189358  22.4829731306 23.6643193515 18.6972531631  22.0361168775 24.6090151639 19.2652873904  24.3841304887 25.5927544689 9.609721414799999  24.4029583155 26.09191602095 10.20183378065  24.9692217613 25.75866870885 9.8315753287  24.71265059665 26.2019097056 9.529668377899998  25.0411707046 26.8110649423 9.449615340999999  24.9880495881 26.2578302609 10.42368769455  24.73147842345 26.70107125765 10.12178074375  25.29774186925 26.36782394555 9.751522291800001  25.5543130339 25.9245829488 10.0534292426  24.4217861423 26.591077573 10.7939461465  22.0513342641 29.3096386055 15.1728521044  21.40801694905 28.85167181635 15.02985020325  21.92515072615 28.41496106595 15.1758617984  21.71057910635 28.67433494335 14.4327984607  21.3698239486 28.0390312812 13.692744817  21.0672617913 28.2163681542 14.28979655955  21.5843955684 27.7796574038 14.4358081547  21.2818334111 27.9569942768 15.03285989725  20.764699634 28.3937050272 14.8868483021  19.3992487351 25.9232753318 21.8622865379  19.92819159055 25.6624658237 20.8447260623  19.6336148953 25.4422479007 21.13187567155  19.3376796388 25.90192904675 21.00172575865  19.98976068685 25.68381210875 21.70528684155  19.6951839916 25.46359418575 21.9924364508  19.9911192481 25.0039130397 22.1225863637  20.28569594335 25.2241309627 21.83543675445  20.5802726386 25.4443488857 21.5482871452  19.2761105425 25.8805827617 20.1411649794  20.7320373984 25.5204757461 11.4783415906  20.43814154355 26.2050208216 10.760147469  20.6710405055 26.22899332005 11.20799196835  21.12897399315 25.89786592085 10.86684910305  20.49913843645 25.49650324765 11.03049709125  20.2662394745 25.4725307492 10.5826525919  20.8960750312 25.8738934224 10.4190046037  21.5259105879 26.2752560956 10.2553566155  21.06797710025 26.6063834948 10.5964994808  20.6100436126 26.937510894 10.9376423461  14.8020204385 23.0337170644 20.4093348615  15.66078487745 23.26163790285 20.40134084415  15.84288864195 22.38076361835 20.810096801  15.49035741105 22.4622320635 21.21679200165  16.8837568454 21.7278101723 21.2108587405  16.7016530809 22.6086844568 20.80210278365  16.34912185 22.69015290195 21.2087979843  16.5195493164 23.4895587413 20.3933468268  20.5421627049 23.677807636 20.33539944525  20.7813695575 23.49751990305 20.92729911635  20.8105469685 22.99427308355 20.4320545724  20.0894029756 23.8340619933 21.4066559564  20.5129852939 24.1810544555 20.8306439892  20.1185803866 23.3308151738 20.91141141245  20.1477577976 22.8275683543 20.4161668685  25.7507784424 24.5025006802 16.9196189548  25.0448846457 23.94843490695 15.9512679409  25.761436635 24.32940437135 16.04271195135  25.06390807445 24.617290469 16.49302911045  25.73175501365 23.83364511815 16.37785778525  25.78046006375 24.9982599334 16.5844731209  25.8101416851 25.4940191866 16.249327287  25.0935896958 25.1130497222 16.15788327655  25.7127315849 23.1647895561 15.8360966157  24.3770377065 24.7320802578 16.0664392661  19.2293079393 30.7557836681 20.9429312059  20.2162950398 30.2467280113 20.29812700835  20.22297637075 29.9374797256 20.987158886  19.99433388135 30.64737767125 20.8986743961  19.4579504287 30.04588572245 21.0314156958  19.45126909775 30.35513400815 20.34238381815  19.6865929181 29.3359877768 21.1199001857  19.67991158715 29.6452360625 20.43086830805  20.7593598234 30.5389716744 20.8544175863  19.6732302562 29.9544843482 19.7418364304  20.1596451967 21.3790036597 17.8200322297  19.4352437492 21.6970559531 17.9799157101  19.15357492395 21.07407921195 17.6205195058  19.73185677265 21.53296123735 17.33332653695  19.3040683486 21.686918815 16.8466208442  19.00745532515 21.85101353075 17.49321001735  18.7257864999 21.2280367896 17.13381381305  18.7108423017 22.0151082465 18.1397991905  18.42917347645 21.39213150535 17.7804029862  24.0072657472 25.8490376927 12.339
[...]
<PointData  Scalars="p_O2"> 
<DataArray  type="Float64"  Name="p_O2"  format="ascii">1.0000553225199612e+02  9.9999829480217386e+01  1.0000688547026459e+02  1.0000052958743611e+02  1.0000259441822833e+02  9.9993131588840953e+01  1.0000532558233267e+02  9.9992436948791706e+01  9.9995485810935563e+01  9.9985317287469528e+01  1.0000276873739851e+02  1.0001463473077669e+02  9.9943175930315306e+01  1.0000623877097297e+02  1.0000292715069914e+02  9.9989718533511649e+01  1.0000314080592119e+02  1.0000017953418710e+02  9.9992223486916586e+01  9.9990684769152381e+01  1.0000403870402393e+02  1.0000146039090498e+02  1.0000706907966499e+02  9.9991894220094395e+01  9.9997817253833958e+01  9.9988866624018229e+01  1.0001033542783568e+02  9.9996572940173706e+01  1.0000083932318982e+02  1.0000389400276518e+02  9.9998492315618535e+01  1.0000575380737430e+02  1.0000127295925346e+02  1.0000398950190309e+02  9.9999252367572197e+01  9.9998271829405837e+01  9.9997740905212197e+01  1.0000131173204885e+02  9.9999332855277714e+01  9.9997915986354315e+01  1.0005210839640698e+02  9.9925656829856337e+01  9.9883798567035157e+01  9.9678701521964953e+01  9.9956134533659096e+01  9.9999018058049728e+01  9.9995362649337750e+01  9.9995360946087160e+01  9.9973062663023242e+01  9.9998070288381072e+01  9.9997902205963527e+01  9.9997421572151467e+01  1.0001963248904040e+02  1.0000528193383772e+02  9.9987636714613529e+01  9.9996655196664548e+01  1.0000478707155256e+02  1.0000162289304316e+02  9.9994844397526109e+01  1.0000474852116683e+02  1.0000315819225919e+02  1.0000505024858765e+02  1.0000086335339154e+02  1.0000485264567513e+02  1.0001086802009920e+02  1.0000242081978280e+02  1.0000321783123935e+02  9.9999503686243600e+01  1.0000168399253972e+02  9.9995725429900958e+01  1.0002257888464143e+02  1.0002814997673437e+02  1.0000888322935998e+02  1.0000872141000812e+02  1.0002977360742535e+02  1.0002164498938961e+02  1.0000910128738201e+02  9.9988844087565766e+01  9.9989698402906996e+01  1.0000112024309892e+02  9.9990274410356818e+01  1.0003129992983868e+02  1.0002810826025987e+02  1.0001739499879126e+02  1.0000909992538875e+02  9.9981297479683235e+01  1.0000232572331319e+02  1.0000393275238243e+02  1.0000528920522243e+02  9.9998034735096013e+01  1.0000351222536860e+02  1.0000524294806669e+02  9.9978982229271921e+01  9.9993024447374779e+01  9.9964568345535952e+01  1.0001302601914649e+02  1.0001006431930595e+02  1.0000083453143660e+02  1.0000032020717039e+02  9.9999088175731330e+01  1.0000911243617161e+02  1.0000019211702811e+02  1.0000682647185234e+02  1.0001701912161124e+02  9.9984562389651146e+01  9.9997218301779270e+01  1.0000485548266720e+02  1.0000948715291638e+02  1.0001243044573813e+02  1.0000748666849248e+02  1.0000050923498317e+02  9.9997806679936517e+01  9.9981432836758046e+01  9.9978420683097610e+01  1.0000407966791305e+02  9.9993806127810444e+01  9.9997727765305896e+01  9.9998632241341568e+01  9.9994359394402110e+01  1.0000943534993797e+02  9.9992308849686125e+01  9.9997374567251157e+01  9.9992622283684554e+01  9.9997021602253156e+01  1.0000683502516465e+02  9.9999800341979181e+01  1.0001046813862276e+02  1.0000700249802976e+02  9.9999080299767044e+01  9.9997089797363060e+01  9.9998646950526606e+01  9.9982497077632956e+01  9.9995949546356456e+01  1.0000792820411861e+02  1.0000068809471763e+02  1.0000195448293741e+02  1.0000637043411395e+02  1.0002834567353487e+02  9.9996321407914778e+01  1.0000726197795207e+02  9.9994156020308566e+01  1.0001190910805701e+02  9.9995125989311802e+01  9.9999066348217283e+01  9.9992846792110171e+01  9.9985532544541471e+01  1.0002402265147897e+02  1.0000309343155983e+02  9.9991308149916534e+01  1.0000641846203087e+02  1.0001211297979178e+02  1.0000466279761254e+02  1.0001733830920757e+02  9.9998005121719672e+01  9.9975874906922854e+01  1.0000443229220595e+02  1.0001076939679005e+02  9.9992795826010308e+01  1.0002135168595377e+02  9.9986080698524844e+01  9.9988552574863860e+01  1.0001308648907592e+02  1.0000879587682935e+02  1.0001791336339851e+02  1.0001091448014570e+02  9.9992105039634154e+01  1.0000844080926491e+02  9.9995180808524168e+01  1.0000220254614075e+02  1.0001798857191345e+02  1.0000310252744981e+02  1.0001165822675770e+02  1.0000713315558200e+02  1.0001647823901874e+02  1.0003655776465638e+02  1.0000256385331029e+02  1.0001141753121962e+02  9.9995226593989770e+01  9.9982932544041262e+01  1.0000391011650214e+02  1.0002035869881013e+02  1.0000451861463399e+02  9.9992629433547663e+01  9.9997655018209002e+01  9.9987320163629633e+01  1.0000124560268469e+02  1.0000077172194682e+02  9.9996074083444299e+01  9.9989997874794099e+01  9.9997905965957727e+01  1.0000954730384908e+02  1.0000263580116257e+02  9.9993730768146378e+01  1.0001080562572419e+02  1.0001815927163472e+02  1.0002360056653845e+02  1.0000317858845355e+02  1.0002463694283524e+02  1.0002345461234985e+02  9.9996765570498425e+01  9.9986765918336573e+01  1.0000709116419944e+02  1.0000206148550595e+02  1.0002066491735080e+02  1.0000258926781136e+02  9.9954877735993620e+01  1.0000244739819976e+02  1.0003530231079893e+02  1.0003521650496350e+02  1.0001237630996191e+02  1.0001974634587305e+02  9.9996628593915389e+01  9.9998956312933942e+01  1.0000782637907636e+02  9.9981915608639753e+01  9.9990465816013511e+01  1.0000657248362130e+02  1.0001389599172954e+02  9.9997556495720531e+01  9.9999833498549336e+01  9.9994301956231098e+01  9.9999952308867833e+01  9.9998845791010226e+01  1.0000548852053021e+02  9.9997497947679619e+01  1.0000243732390156e+02  9.9998124804609432e+01  1.0000890596266623e+02  1.0000587607976284e+02  1.0001215536287306e+02  1.0000027379551470e+02  9.9987983023302988e+01  1.0000239927616953e+02  9.9977337131766987e+01  1.0000901512217494e+02  1.0000033577329192e+02  9.9996148918463348e+01  1.0001059898536947e+02  9.9990518967131536e+01  1.0000279379501902e+02  1.0000367546483304e+02  9.9998399188676217e+01  1.0001088068453687e+02  9.9996382972151267e+01  9.9995389605258026e+01  9.9994973810280300e+01  1.0002307772267791e+02  1.0000006875342960e+02  1.0000493864014337e+02  9.9997797095067639e+01  9.9967806615693235e+01  1.0002946749994015e+02  1.0002741186797216e+02  9.9999207940325448e+01  9.9997644621493293e+01  9.9996349193258581e+01  9.9997455273451209e+01  9.9998927460579949e+01  9.9999372600785364e+01  1.0000010574724232e+02  1.0000445880285714e+02  1.0000580963888856e+02  9.9997966554127004e+01  1.0000200679526773e+02  1.0000861890125863e+02  9.9997690063439705e+01  1.0000227272513263e+02  9.9995877076411219e+01  1.0000534746173288e+02  1.0000196569919628e+02  1.0000241479683339e+02  9.9989167324706528e+01  1.0000169601566843e+02  9.9990822268659798e+01  9.9999200539040018e+01  1.0000023299258821e+02  1.0000388445174197e+02  9.9995599868946343e+01  9.9987762142527586e+01  9.9995441703211327e+01  9.9991380557306485e+01  1.0000626367239795e+02  9.9992560254505506e+01  9.9977687686610707e+01  1.0000078521380176e+02  1.0000575914477150e+02  9.9999159534724058e+01  9.9999551166378367e+01  1.0000353777726188e+02  1.0000229304872680e+02  9.9990761338758631e+01  9.9997992246370359e+01  9.9999063048236536e+01  9.9999231731581688e+01  1.0001183336248903e+02  1.0000041690469199e+02  1.0000376713892909e+02  1.0000097061683336e+02  1.0001005774611899e+02  1.0000262963406180e+02  1.0000446247171389e+02  1.0000158644789303e+02  9.9999715094421660e+01  1.0000781940969222e+02  9.9997879303444407e+01  9.9991395384568293e+01  9.9998099790633731e+01  9.9996525884871218e+01  9.9992893190977924e+01  1.0000635720544935e+02  1.0000966260668446e+02  1.0000216983948674e+02  1.0000733525106223e+02  1.0000126838948101e+02  1.0002486677012784e+02  9.9957343645302146e+01  1.0001241176843314e+02  1.0002413633597945e+02  1.0001844028308241e+02  9.9975320548211101e+01  1.0002042779197011e+02  9.9979163322531036e+01  9.9992640667104268e+01  9.9999528369043816e+01  1.0000072948177356e+02  9.9995726992082410e+01  1.0000410019523511e+02  9.9991633088722793e+01  9.9997238166647236e+01  9.9996338372059995e+01  9.9999660396152279e+01  9.9998682130864367e+01  9.9995660370796301e+01  9.9996028412374329e+01  9.9996183776043239e+01  1.0000409939302322e+02  9.9998185093053507e+01  1.0000054028208457e+02  9.9997123000084230e+01  1.0000087955371993e+02  1.0000053132021813e+02  9.9975297623689073e+01  9.9995780203129158e+01  1.0003130713159429e+02  1.0002575024952452e+02  9.9988602507312379e+01  9.9998956426596038e+01  1.0000019120179853e+02  9.9985289765714782e+01  1.0003234716451374e+02  1.0005826987202640e+02  9.9945159205397758e+01  9.9899594956710985e+01  9.9970353076605790e+01  1.0007300642705079e+02  9.9810070499356087e+01  9.9997594607980304e+01  9.9992790758128848e+01  9.9986022106962864e+01  9.9985333918300114e+01  9.9971964260574410e+01  9.9962524351660605e+01  1.0000495520471337e+02  9.9993461639359822e+01  1.0002183952582679e+02  9.9996740132505252e+01  9.9996775871226703e+01  9.9990955819477563e+01  1.0000062859820572e+02  1.0000133288752656e+02  1.0000133359257383e+02  1.0000134575104214e+02  9.9992048528685501e+01  9.9999424992934479e+01  1.0000765171727416e+02  1.0000071922943314e+02  1.0000204533812122e+02  1.0000129704515386e+02  1.0000019106768937e+02  9.9998801510795701e+01  9.9997024219598202e+01  1.0000044667592653e+02  9.9985464893980264e+01  9.9992843257234597e+01  1.0000761537735070e+02  9.9997870676495680e+01  1.0000737224865726e+02  9.9997750906405685e+01  1.0000318249921169e+02  1.0001590523901569e+02  9.9999035193935484e+01  1.0000173138589412e+02  1.0000336756868350e+02  1.0000118007120818e+02  1.0000332267742428e+02  9.9995020411584633e+01  9.9999260441187246e+01  1.0000092767135514e+02  9.9999230468467786e+01  9.9999019305422323e+01  1.0000198299586984e+02  1.0001504440790865e+02  1.0003058936699634e+02  1.0000865224725815e+02  9.9999654064058376e+01  1.0001187085676045e+02  1.0000213301187756e+02  1.0000586012038126e+02  1.0001001784493297e+02  1.0000917174367250e+02  1.0001371798557486e+02  9.9973361507823398e+01  9.9986909510484324e+01  9.9999480898077920e+01  9.9989950308593734e+01  9.9990645165683233e+01  9.9987420181942070e+01  9.9980626275064296e+01  9.9980335597491234e+01  9.9983762123876673e+01  1.0000165761696815e+02  1.0000906761776872e+02  9.9997271462995869e+01  1.0000447038650969e+02  1.0000331775292307e+02  9.9985088368326799e+01  1.0000581910841041e+02  1.0003014678674991e+02  9.9998480550077872e+01  1.0000934906158572e+02  1.0000657111911110e+02  9.9982027913565702e+01  9.9992801426743910e+01  1.0000558732206240e+02  1.0000260306204291e+02  1.0000282640551207e+02  9.9996596416264126e+01  1.0001312424590398e+02  1.0001103415397154e+02  1.0001329717072380e+02  1.0000578300655157e+02  1.0000393163174340e+02  9.9992958623523862e+01  1.0000323722043693e+02  9.9997683060206725e+01  1.0000504435907773e+02  1.0000130415179707e+02  9.9997764767578758e+01  1.0000119834552811e+02  1.0001785570139508e+02  1.0006773960851835e+02  9.9991007402674768e+01  1.0001626735381558e+02  1.0003031883713206e+02  9.9982595287189866e+01  1.0000888212669359e+02  9.9984253563527162e+01  9.9892597405072763e+01  9.9996521412607564e+01  9.9997811261884351e+01  9.9994411361105961e+01  1.0000655124077429e+02  9.9997343125464411e+01  1.0000104612110567e+02  9.9995857200156692e+01  1.0000285169087222e+02  9.9993481034161562e+01  1.0000781131007660e+02  1.0000785262847448e+02  1.0000133575420878e+02  1.0000713494908959e+02  1.0000159493491456e+02  9.9996901024152493e+01  1.0000608061236873e+02  1.0002099228939655e+02  9.9976564564605752e+01  1.0001026028459634e+02  1.0000644984200082e+02  1.0000781203741134e+02  1.0001344622255955e+02  1.0000630353113378e+02  9.9989967649505743e+01  1.0002385583992843e+02  1.0003845820985113e+02  1.0004399792459456e+02  1.0000124978750090e+02  9.9992154323557060e+01  9.9997222326344655e+01  1.0000913677520386e+02  1.0002918250601861e+02  9.9938695455640882e+01  1.0002039491607573e+02  1.0003135607299571e+02  9.9968694603773116e+01  1.0001162586529416e+02  1.0001361450899989e+02  9.9999847133942879e+01  9.9913021959619229e+01  9.9993767388306992e+01  9.9996821023747188e+01  9.9994368415742329e+01  9.9997238872877659e+01  9.9998105177084639e+01  1.0000004065722030e+02  1.0000023094396776e+02  9.9981464789006353e+01  1.0003822954958714e+02  9.9978637880230977e+01  1.0000035304950744e+02  9.9985836267010612e+01  9.9952695610107725e+01  1.0003187122827646e+02  1.0000785383247599e+02  9.9992920772938334e+01  9.9990596107751145e+01  1.0000706605522207e+02  9.9998714433614879e+01  9.9997186736777024e+01  1.0000588286073899e+02  1.0000329197028195e+02  1.0000071204882283e+02  9.9925471277911257e+01  1.0001300154356308e+02  9.9998837614261873e+01  1.0000102763601188e+02  9.9999579589576058e+01  9.9997114783787865e+01  9.9999519568501370e+01  9.9999346168180963e+01  9.9999326764817155e+01  1.0000151541728856e+02  9.9995502570059855e+01  1.0000060492085478e+02  9.9996007090646671e+01  9.9998834927664731e+01  1.0000530501923028e+02  9.9980597159642713e+01  1.0001642692397158e+02  1.0000302341014735e+02  1.0000152377044121e+02  1.0000368037363300e+02  1.0000238651052442e+02  1.0000043110584983e+02  1.0000289947086640e+02  9.9999819848695466e+01  9.9999121112445096e+01  9.9992345886984054e+01  9.9999260459909621e+01  1.0004031311103104e+02  1.0003579819505916e+02  9.9957171607627785e+01  9.9965484003238799e+01  9.9983389150280530e+01  9.9991038338989924e+01  9.9994654926130977e+01  9.9996139447217843e+01  9.9991062252608870e+01  9.9994230462186252e+01  9.9993125414679980e+01  9.9989512934054019e+01  9.9988169850012383e+01  9.9997030759648780e+01  9.9999211836027101e+01  9.9997991844364108e+01  9.9992353864871717e+01  1.0004826100626605e+02  9.9982304330603952e+01  9.9946304112240469e+01  1.0002391471335582e+02  9.9972037117911114e+01  9.9931312403906162e+01  9.9997226530643587e+01  1.0003448707732065e+02  1.0000021691614270e+02  1.0000598517363262e+02  1.0003484429000592e+02  1.0001203853119679e+02  9.9980389606062815e+01  9.9996833526893667e+01  1.0001506739213919e+02  1.0000069501309842e+02  9.9998396654776002e+01  1.0000452569071429e+02  1.0000131365587751e+02  1.0000169048483473e+02  9.9999457668976461e+01  9.9997660147095999e+01  9.9999825383158836e+01  9.9998900840856820e+01  9.9999924488763270e+01  9.9975583232222618e+01  9.9967713680718532e+01  9.9999340235200194e+01  1.0000090338325411e+02  1.0002512870761920e+02  1.0008661637977249e+02  1.0002284809564441e+02  9.9904176890545358e+01  9.9966031981294293e+01  1.0002987444499372e+02  9.9986613821214732e+01  1.0005312508680423e+02  1.0001150687459157e+02  9.9950622145395059e+01  9.9952450597381954e+01  9.9973586674970051e+01  1.0006154759967680e+02  9.9974842687517906e+01  1.0000695457076125e+02  9.9995471475258711e+01  1.0001110953832033e+02  1.0001039210352894e+02  1.0000350518568523e+02  1.0001590153236405e+02  9.9981601942764996e+01  9.9990097329125632e+01  1.0000358225230089e+02  1.0000959878675191e+02  1.0000522979344393e+02  1.0000122596701615e+02  1.0000105228923401e+02  9.9969316230432156e+01  1.0001634110311082e+02  9.9993267344244913e+01  9.9994489261360002e+01  9.9985116300834392e+01  1.0000713229497104e+02  9.9997560291272450e+01  9.9988989055042225e+01  9.9987529601701169e+01  1.0000214424819485e+02  9.9991617119662720e+01  9.9993031759194210e+01  9.9988004066557423e+01  1.0000279558848617e+02  9.9998657608545912e+01  9.9994977656056165e+01  1.0000027533992669e+02  1.0000620470084556e+02  1.0000022595970623e+02  9.9999442990285729e+01  9.9997215791471461e+01  9.9998700197353330e+01  1.0000735357994186e+02  1.0001289836838606e+02  9.9997481327213094e+01  9.9999632068873751e+01  1.0001448761666312e+02  9.9983529546563602e+01  1.0000169403108737e+02  1.0000161374859358e+02  9.9989996676207298e+01  1.0002944629089554e+02  1.0001388097950098e+02  9.9998405262233021e+01  9.9946830397013812e+01  9.9992650520301609e+01  9.9975177047156791e+01  9.9997308935786791e+01  9.9996447516722498e+01  9.9991368606451118e+01  9.9995595611246500e+01  1.0001229593360638e+02  9.9989876974175885e+01  9.9986943282076354e+01  1.0000123798334592e+02  9.9997294347140340e+01  9.9998588886562743e+01  9.9991459767314609e+01  9.9999045167222704e+01  9.9998567932481762e+01  9.9999770187684589e+01  1.0001452140174378e+02  9.9997337220717014e+01  9.9982655493519729e+01  9.9998853787198030e+01  9.9998283895398387e+01  9.9987388875801770e+01  1.0000295143888819e+02  1.0001486807552709e+02  1.0000376523738217e+02  9.9946946511099810e+01  9.9997990474222092e+01  9.9962351617209762e+01  1.0000666427473034e+02  1.0000190234517814e+02  1.0000064989473381e+02  9.9997982458632634e+01  1.0000220220144682e+02  1.0000498500886238e+02  1.0003449131497725e+02  1.0004603398981526e+02  9.9999742917999455e+01  1.0002151936712099e+02  9.9995238331827480e+01  1.0001053706911856e+02  9.9991587292581599e+01  9.9989959009588873e+01  9.9992828170873238e+01  9.9994771505194251e+01  9.9986365108758946e+01  9.9997099669777299e+01  9.9999658982701874e+01  9.9999252024691188e+01  9.9984656093897470e+01  9.9989649927430463e+01  1.0002752373978863e+02  1.0000595267323780e+02  9.9994499881925137e+01  1.0000020332226850e+02  9.9994271988469734e+01  9.9999903442447177e+01  9.9998173241997279e+01  9.9990728820217086e+01  1.0000592816152948e+02  1.0000230271304542e+02  1.0000279885574155e+02  1.0000278920598069e+02  9.9997239540472833e+01  9.9999447186000438e+01  9.9990058489649243e+01  1.0000594349639933e+02  9.9988575063135229e+01  1.0005852533640902e+02  9.9974230561312311e+01  9.9983928066556899e+01  1.0000688250482825e+02  9.9998253161311681e+01  9.9988084666242983e+01  9.9990143323798378e+01  9.9989600456490933e+01  9.9996816344945103e+01  9.9996219288895318e+01  9.9989917461721220e+01  9.9987200916925516e+01  9.9988636947991921e+01  9.9992061207625156e+01  9.9994455507295953e+01  1.0000028991444321e+02  9.9987560196654741e+01  9.9978067387276326e+01  9.9987307813717280e+01  9.9997552255915238e+01  9.9998297089844399e+01  1.0000617153197702e+02  1.0000397159364999e+02  9.9995661800489088e+01  1.0000439184555864e+02  1.0000240115929218e+02  1.0004259391253457e+02  1.0000665543157108e+02  9.9983294394651267e+01  1.0002098435785236e+02  9.9997795126825693e+01  9.9993414295888698e+01  9.9993897459218957e+01  9.9997871423378157e+01  1.0000456324427670e+02  9.9998381137313729e+01  1.0000432254092432e+02  1.0000115325576387e+02  9.9989413525491912e+01  1.0010966913804806e+02  9.9982498067161004e+01  9.9977892705079597e+01  9.9938549103007816e+01  9.9994646913776663e+01  9.9974340000171892e+01  9.9975222281481678e+01  9.9997711399234078e+01  9.9997979423887287e+01  9.9993185263162587e+01  1.0000222840148979e+02  9.9997484487513034e+01  9.9998532057108335e+01  1.0000412269554032e+02  9.9996461822302834e+01  9.9999484442164373e+01  9.9998681777604475e+01  9.9998643409469167e+01  1.0001277299514891e+02  9.9859559774360179e+01  9.9925794847492938e+01  1.0001501252520363e+02  9.9975395283755873e+01  1.0003031843623850e+02  9.9951631471698533e+01  1.0008813428646232e+02  1.0003469460020200e+02  9.9981746825559341e+01  1.0000636241056350e+02  9.9986967172485478e+01  1.0001206851080561e+02  1.0004437041672693e+02  1.0000145894064998e+02  9.9997005695690447e+01  9.9996379540611059e+01  9.9999734805953281e+01  9.9994730032385633e+01  1.0000523286468402e+02  1.0000540131759956e+02  1.0000164404756342e+02  1.0000466086193062e+02  1.0001840535387727e+02  9.9999997029395203e+01  1.0001019003096049e+02  9.9999146011773149e+01  9.9995216187108241e+01  1.0000956963969936e+02  9.9997212069548752e+01  9.9988770186570505e+01  9.9998390707561512e+01  1.0000133310064598e+02  1.0001730466732567e+02  1.0000877197529726e+02  1.0000836387898302e+02  9.9995610159534252e+01  9.9994435841103694e+01  9.9968678371810526e+01  1.0003831686883646e+02  1.0000335559526069e+02  1.0000425999960490e+02  9.9997387908403482e+01  9.9995547226048672e+01  9.9999673768743392e+01  9.9986033161683338e+01  1.0000356186345554e+02  9.9983213535843277e+01  9.9996670612706666e+01  9.9996331700337052e