<?xml version="1.0"?>
<VTKFile type="UnstructuredGrid"  version="0.1"  >
<UnstructuredGrid>
<Piece  NumberOfPoints="13315" NumberOfCells="65872">
<Points>
<DataArray  type="Float64"  NumberOfComponents="3"  format="ascii">1.924406051635742 17.76457023620605 24.35383033752441  1.901358008384705 16.69158935546875 24.36017990112305  1.726403951644897 17.1634407043457 23.84209060668945  2.652589233739742 17.35756745117177 23.95753872534853  0.6640430092811584 12.61184978485107 22.00791931152344  1.350532054901123 11.87736988067627 21.77273941040039  1.607178264336706 12.5324981423166 22.02859617901939  1.254690051078796 12.28359508514404 21.45633506774902  1.383013155796588 12.61115921596421 21.58426345205852  0.9114455282688141 12.65083503723145 21.57392501831055  1.15884804725647 12.68982028961182 21.13993072509766  1.087689634897769 12.77528656581772 21.86005557394573  1.511336260514379 12.93872334678437 21.71219183636802  1.263933741526723 12.899738094404 22.14618612958091  1.863824473772288 13.18762640395693 22.28445294763838  3.981308937072754 13.13778972625732 24.56105995178223  4.701860904693604 12.65676021575928 23.89072036743164  4.020880778777778 12.60395686389491 22.98168983377714  4.185547681377391 11.83882102399348 23.72920018057516  2.46412539932336 13.77979225364685 23.23879603842527  1.982729102686702 13.93006277032698 22.46317972075362  1.686281269310931 13.79227116995648 22.95674010268532  1.386130806535395 13.49618824511152 22.47956855729188  0.9084371392985024 13.80475008626611 22.67468416694538  1.297359204304717 13.79851062811129 22.81571213481535  1.445583120992602 13.86740642829654 22.5689319438495  2.101633731601117 14.67249913669702 22.64190649386886  1.505035435449809 14.23862461148157 22.65829533040711  1.206736287374156 14.02168734887384 22.66648974867624  2.280373096466064 16.22086906433105 24.68157958984375  1.583698987960815 15.66744995117188 24.38533020019531  2.355726003646851 15.54158020019531 24.76709938049316  2.378039219222275 16.02883725701857 23.50853803333458  0.7245029807090759 16.06011009216309 21.70841979980469  1.072528004646301 16.53017997741699 20.83526992797852  1.910833683465429 16.19079036996547 21.80959160340977  1.484904406436583 15.70348987830916 21.37289271204647  1.06575156702702 15.87318468203492 20.88573187433084  0.891739055058407 15.63814973940797 21.32230681024393  1.058975129407738 15.21618938665286 20.93619382068317  0.8524230122566223 13.53999042510986 24.8889102935791  0.8220669467111268 13.45648320029603 24.62922739223547  0.8245841998716035 13.25489313910829 24.70098709301062  1.053193383088538 13.27278052381509 24.73868148112357  1.253963753920453 13.00557062252031 24.58845266866805  0.7967453874865846 12.96979585310671 24.51306389244213  1.022837317543042 13.18927329900126 24.47899857977994  0.7942281343261079 13.17138591429446 24.44130419166698  0.7917108811656313 13.3729759754822 24.36954449089184  0.854940265417099 13.33840036392212 24.96066999435425  0.8574575185775757 13.13681030273438 25.03242969512939  0.8271014530320802 13.05330307792054 24.77274679378576  1.055710636249015 13.07119046262734 24.81044118189872  1.050676129928061 13.47437058500283 24.66692178034843  1.2489292475995 13.4087507448958 24.44493326711775  0.8624920248985291 12.73363018035889 25.17594909667969  0.8296187061925568 12.8517130167328 24.84450649456091  1.058227889409491 12.8696004014396 24.88220088267387  0.8599747717380524 12.93522024154663 25.10418939590454  1.645435482942378 13.27751106468173 24.00095624065641  1.188217116508509 13.24173629526814 23.92556746443049  0.7309987500746402 13.20596152585454 23.85017868820457  0.9899639988370701 13.30735613537517 24.14755597766116  0.9924812519975468 13.10576607418743 24.21931567843631  0.7613548156201357 13.28946875066837 24.1098615895482  0.7638720687806124 13.08787868948063 24.18162129032335  3.008600950241089 16.22036933898926 24.52323913574219  3.697614908218384 16.54206085205078 23.80480003356934  3.589618921279907 15.66639995574951 24.01539039611816  5.021362781524658 13.11100959777832 23.41481971740723  5.555618762969971 12.47443008422852 23.30525016784668  4.829929338345863 13.11647408114444 22.42904764558486  0.8377919793128967 11.81822967529297 25.30904960632324  1.493436303969845 11.30148213029939 25.30018576505208  1.56852872720624 11.74315109124888 24.9146657687242  1.560927710245815 12.16108639669494 25.18450657993515  1.240706564877766 12.00152486374567 24.91909768935978  2.284063441178733 12.50394311809691 25.05996355354705  1.643621150442635 12.18482005219836 24.52914577239632  1.888749872574289 11.90271262419815 25.18007465929956  1.248307581838191 11.5835895582996 24.64925687814883  0.920485419509717 11.84196333079639 24.65368879878441  1.003178859706537 11.86569698629982 23.99832799124558  1.323400005074586 12.02525851924909 24.26373688182095  2.430486565182549 11.13325011414197 24.39025016978946  3.32657805837332 11.90291382087451 24.23357859684795  2.582866066339347 11.82036034996865 23.98795929775016  2.357275003180641 11.81859661611944 24.72510686166826  2.735245567496143 12.50747058579534 23.58566842571086  2.509654504337438 12.50570685194612 24.32281598962896  2.113444242021528 14.45777614449039 21.29137771391376  3.670812042834841 14.38582680790048 21.15932506304092  3.009684130153849 13.8838226633398 22.03390163128443  2.774182065281653 15.04476167704057 21.81432614274173  3.434919888541779 15.63174720959074 22.33727457156969  2.124150721094327 15.00048526045728 23.8761674325709  1.034963160600872 15.18186076080113 22.5572488557608  1.304583430956036 15.00083960672345 22.24078107029904  1.27571243129608 14.72191640998468 22.29814822358725  1.568298446100994 14.92717994874907 22.59957767481483  1.516461701991288 14.26197205916824 22.03904759141369  1.5742037013112 14.81981845264576 21.92431328483728  1.009044788546019 14.84925681601071 22.27698381406024  0.9831264164911659 14.51665287122029 21.99671877235967  1.522366957201494 14.15461056306492 21.36378320143615  0.93128967238146 13.85144498163945 21.43618868895853  1.25274668684633 14.33563171714261 21.68025098689791  1.223875687186374 14.05670852040384 21.73761814018611  0.9572080444363129 14.18404892642987 21.7164537306591  4.272822856903076 12.78633975982666 21.64837074279785  3.596800088882446 12.45174980163574 21.79353904724121  4.387653827667236 11.91355991363525 21.91115951538086  3.290148973464966 13.78055000305176 25.11223983764648  2.970134019851685 13.14533996582031 25.56036949157715  3.460881948471069 12.75436973571777 25.14419937133789  3.192938203223209 13.26823621655731 24.1155577566914  4.024335861206055 15.17730045318604 23.54174041748047  4.779201030731201 15.21722030639648 23.09655952453613  4.358302828741393 14.15160950337298 22.16861683295572  2.796634912490845 12.92343044281006 21.23683929443359  2.037884950637817 12.33613014221191 21.33011054992676  2.918296687806457 12.76142668927695 22.43806019264055  4.442739963531494 13.51119041442871 23.92003059387207  3.808628997360085 13.52070534804627 23.20469968628863  3.089411020278931 14.96428966522217 24.75527954101562  0.9340131695602095 12.04730568586798 22.70514862324587  0.8345531638000167 12.57261048017951 22.51690857197634  0.3817170038819313 12.41250467300415 22.43090438842773  0.7635030150413513 12.08654499053955 22.19615936279297  0.09939099848270416 12.21315956115723 22.85388946533203  0.4811770096421242 11.88719987869263 22.61914443969727  0.5522271584007895 12.37326536833258 22.93989364888063  0.8629630208015442 11.56124019622803 22.3843994140625  1.005063318318875 12.53337117550794 23.02589783242923  1.447257041931152 10.96574974060059 22.14612007141113  2.08334752022033 11.65668892054146 22.77821523058934  1.454378257685925 11.16874944760593 22.75246802026293  0.844186007976532 11.12102508544922 22.55556011199951  0.8254089951515198 10.68080997467041 22.72672080993652  2.500469813712333 13.96013936143925 24.59400733211408  2.419186843082794 13.27287364061952 24.0582569986739  1.161249995231628 16.23785972595215 23.68606948852539  1.706501189911574 15.60534900890985 23.0328934445477  1.642700358162978 15.61917249320472 23.78111846054814  1.09810657791625 15.70986024337664 23.1216591721431  1.370403468039614 15.66451636829068 23.45138881634562  1.5795569408476 15.09117301062921 23.21670814416585  1.066534869258561 15.44586050208888 22.83945401395195  1.307260050724236 15.13651688571517 22.88697849996333  1.370732175256223 15.39360488485549 22.79507115015425  4.346787929534912 14.40585994720459 23.60886001586914  5.046834945678711 13.78991985321045 23.25580978393555  0.9677099883556366 15.81666469573975 23.77812957763672  0.7741699814796448 15.39546966552734 23.87018966674805  0.9361382796979475 15.55266495445199 23.49592441944557  1.176863461163622 15.24332133807827 23.54344890545695  1.208435169821311 15.50732107936603 23.82565406364809  0.8393682762599516 15.34206743934579 23.54195446400124  0.9045665710402584 15.28866521316424 23.21371926125443  1.111665166383315 15.29672356425983 23.87168410820376  1.449160351286986 15.19797746299231 23.87317854965947  0.9697648658205652 15.23526298698268 22.88548405850761  0.09939099848270416 13.10501956939697 22.80590057373047  0.09939099848270416 13.00933456420898 22.97004795074463  0.3258090784417468 12.96210747092471 22.86089988840516  0.09939099848270416 12.88205456733704 22.81789779663086  0.09939099848270416 12.6590895652771 22.82989501953125  0.3258090784417468 12.86642246573673 23.02504726541932  0.09939099848270416 12.78636956214905 22.98204517364502  0.3258090784417468 12.73914246886478 22.87289711130555  0.5522271584007895 12.81919537245246 22.91589920307985  0.09939099848270416 12.913649559021 23.13419532775879  0.09939099848270416 12.72227954864502 23.46249008178711  0.3258090784417468 12.77073746054874 23.18919464243348  0.5522271584007895 12.62782536207648 23.24419395710817  0.09939099848270416 12.46771955490112 23.15818977355957  0.3258090784417468 12.51617746680484 22.88489433420594  0.09939099848270416 12
[...]
<PointData  Scalars="c_HbCO2"> 
<DataArray  type="Float64"  Name="c_HbCO2"  format="ascii">-1.2523615145152308e-27  -2.1975019837612199e-27  3.1026871354547102e-26  2.7558517488119305e-27  1.0988793246510926e-23  -1.8970272217755119e-24  2.0339302355844990e-25  -1.8969896537003493e-24  -9.1834549193340914e-25  -1.9117735112006612e-24  2.0884743602295150e-25  -1.3955049167409454e-24  -1.3978179691338617e-25  -2.0320364691861507e-24  2.1888197116911302e-25  -8.9636006784204945e-27  2.3385466919444402e-27  -3.1461972172337225e-27  2.6971882697775352e-27  -5.7762031830251405e-26  3.0499146366669906e-26  1.8887012669973517e-26  -5.5237892227227862e-25  9.1986897522826375e-24  -6.1344301341298140e-25  -3.4321201669849715e-25  3.0228473078874868e-26  -3.9616361362955163e-25  -1.6064642015654547e-24  4.2721754335181676e-28  2.1192786782800896e-26  -3.7235974465749412e-27  -1.1938667026791484e-26  1.9829275671339150e-23  -1.2578627451003295e-25  -8.7331099102085617e-25  4.6294535352633023e-24  -2.3403079229519449e-23  -1.1755343390639989e-22  1.9410642220075589e-23  1.2106463733551524e-24  -6.1688544216245647e-25  -1.7278445244470012e-24  -6.8919295650329238e-25  1.1585752215987743e-25  4.8439353058627387e-24  -1.3905459582173792e-24  2.3537485348968496e-25  3.9775115494967924e-24  4.4730544189838211e-25  1.1809535334149409e-24  4.4909915262225830e-25  -9.3218882472394931e-25  -8.7925546512841929e-25  1.1410947059070428e-25  4.9290496987466243e-24  -3.9623449788749834e-24  -4.7008680665700744e-25  -1.2718970336944187e-25  -1.1234370569435495e-25  1.5399429238803331e-25  6.8661886855094740e-24  -1.5387438799518986e-24  -7.1236277164283114e-25  1.0397181306974673e-25  -1.5803437500784138e-24  4.4950369067805145e-27  8.3639778684622860e-28  -2.5430339529430815e-27  -1.3851317295343069e-27  8.9089049534676329e-28  -1.5025046068800396e-27  4.8378402477613296e-23  4.5317551071331101e-24  -7.1592087106854836e-24  -4.0428773419650550e-24  -1.0352271749098303e-23  -1.8596975699789046e-26  1.0162935619568036e-24  4.9191914852275898e-25  9.6093087865567354e-24  -2.0832889115696543e-24  6.1183004924948457e-23  -1.1188444086834708e-23  3.8082824582250271e-25  3.1367687670175258e-26  -4.3223526186843389e-25  -6.6221815065084330e-25  -8.5354510317535528e-26  -2.4928145018040331e-25  3.5342034535278127e-25  -6.1120938164883949e-26  -4.8681704092489841e-26  1.6391357288050790e-25  2.6763090916412034e-26  5.3319587465044812e-27  5.1807844585408668e-24  -4.3466841001297821e-24  -4.6255322277820906e-25  -1.8828990889997148e-25  1.9053760907740894e-25  2.2602438455543389e-25  -3.8411577916862699e-24  2.3998115504461073e-24  -6.8369158395020552e-25  3.1796846807074307e-24  -1.6584454927278270e-24  -7.4290889153310989e-25  -9.3133584691538551e-25  -6.2476641364714839e-27  -1.1023790223521769e-27  9.7653411344045008e-28  -3.2481454582608483e-27  -9.1442924440925762e-27  -8.8866106486837774e-27  1.5482554603297033e-26  -9.8558745388496701e-27  -2.7228563969763593e-27  6.4375185804634685e-27  -5.9686864362321486e-26  3.6868422535686767e-25  3.0205227754124990e-26  -2.4488554613482091e-27  1.3650686042103960e-26  -4.8186019895903442e-27  -1.6070840249730290e-23  4.7722944020823387e-24  -7.5083994255015277e-23  -4.4277363055507541e-23  6.4000000000000016e-22  -1.8210061410603944e-22  -2.1817266544583809e-23  2.6923841561090729e-23  3.0053554513933301e-23  -2.6224219352777743e-24  -2.4313655330506861e-25  -6.2011547679724955e-24  1.1046569260842055e-23  1.1009800565704012e-23  1.0302138055641015e-26  1.1567886975427601e-25  -1.6224762295886691e-26  1.1794893657497210e-25  3.1597584236565908e-27  -3.0328672560683446e-25  1.3045485285231958e-25  -1.8991468044293486e-26  -1.3999945943726906e-24  -1.2257611821799095e-24  -1.8853388176271852e-25  -2.4820532877085775e-27  -4.1974561453058025e-27  -2.0072187109321127e-25  1.7029095908293351e-24  -7.0370366772870138e-25  -7.2790676231777449e-25  -1.7143052281152294e-25  -2.0310972106439350e-25  4.3796252475620994e-24  -2.1446962373125125e-25  1.8438498966027047e-25  1.7276294199421378e-24  6.4000000000000016e-22  6.4000000000000016e-22  -2.8371808278373774e-22  6.4000000000000016e-22  6.4000000000000016e-22  -1.1007430237002870e-22  6.4000000000000016e-22  -1.1750502231548020e-22  5.4778590290534812e-23  6.4000000000000016e-22  6.3999999999999960e-22  -3.8295673398432937e-22  -8.1887018698034993e-23  6.4000000000000016e-22  -3.5951427107162971e-22  6.4000000000000016e-22  6.4000000000000016e-22  6.4000000000000016e-22  -2.3973240921376988e-24  1.0816020795007237e-24  -1.2253341777110577e-25  -5.0725947212515507e-26  -2.8953233754408259e-26  1.2015364839836718e-24  3.4152840477526477e-25  -3.0345872038954498e-22  6.4000000000000016e-22  6.4000000000000016e-22  6.3999999999999997e-22  -5.1571885668136744e-29  1.1807269022035436e-23  -4.8285415270695996e-24  6.4000000000000054e-22  -2.3405616293874971e-24  -1.5377922366559360e-22  1.6343929375236129e-23  3.0265651881993447e-23  -2.8983380940361465e-22  -2.6336019162215999e-23  -1.1411047171352941e-23  8.8455705461603169e-24  1.3414479950453315e-24  1.9459754201172273e-26  -1.0542561428591494e-25  6.3999999999999997e-22  -1.4732994494379074e-22  -2.3516241603635404e-22  6.3999999999999997e-22  6.4000000000000016e-22  -1.2056075092688645e-22  -4.0021342967066647e-22  1.5165811709969683e-23  -4.6042237517788831e-23  -6.5453714531512093e-24  6.4000000000000016e-22  6.4000000000000016e-22  -1.9481276648639688e-22  6.3999999999999960e-22  1.4596131852133210e-23  6.5672070529861863e-23  1.9313514935404649e-23  1.7244606073254727e-23  6.4000000000000016e-22  9.1168390969861712e-23  6.4000000000000016e-22  6.4000000000000016e-22  6.4000000000000016e-22  6.4000000000000016e-22  6.4000000000000016e-22  -2.3580297786263804e-22  -2.2982986311186131e-24  -4.6321037967911831e-26  -8.4117193705621535e-25  2.0265217858036078e-26  3.0014518552386495e-26  -3.8464770243658821e-26  -1.0566492735412663e-22  -1.5599710405860480e-22  -3.6572405415228561e-23  6.4000000000000016e-22  6.4000000000000016e-22  6.4000000000000016e-22  -1.3898880218195535e-22  -1.3283748209989244e-27  6.4000000000000016e-22  -1.7226095029401034e-22  6.4000000000000016e-22  -3.0845304695554157e-22  6.4000000000000016e-22  6.3999999999999997e-22  -9.4934076246006516e-26  4.7172884493886798e-26  3.9136983747318610e-25  -1.8055412033513427e-24  -3.0899096993767091e-24  -1.5052789286702611e-24  -6.7171967299284078e-27  2.9175481976176851e-27  2.0898904523309030e-24  -1.7122683263469859e-24  -2.5197601573097857e-24  -1.6616968002442619e-23  -1.0162025259230220e-23  -2.4771932562459208e-24  4.4907396895010630e-23  -2.0279595058295848e-25  -5.3616909061946143e-23  7.3301952160618581e-24  -1.0918220780569589e-22  6.4000000000000016e-22  -2.1791658408065834e-23  6.4000000000000016e-22  -2.0921747021101733e-22  6.4000000000000016e-22  6.3999999999999997e-22  -3.8056878373764678e-22  6.4000000000000016e-22  6.4000000000000016e-22  6.4000000000000016e-22  -3.6940571247312465e-22  -2.8384528276696078e-22  -3.0425054031707535e-22  1.6989593579618327e-23  3.6594041733762018e-23  -1.8980754737164916e-23  -3.4278422437856741e-24  -3.7251585447334570e-25  -1.6206437310206507e-24  -5.4323585814208590e-24  -3.0603632539411545e-24  -4.8383738548848221e-24  2.1989039558362756e-23  -8.3473353443489320e-24  -3.3537866059495457e-22  -1.3762032554738516e-23  -8.0299040346597067e-24  6.2296527446084137e-23  3.4945347017222408e-23  -1.4021517024785288e-22  -1.3998423781610110e-24  -1.6799081414467274e-23  -2.1347637305076945e-23  2.0142827295885605e-27  -2.0715850245789806e-22  6.4000000000000054e-22  -3.0722168883623805e-23  -8.9313611823755134e-26  6.4000000000000016e-22  -5.7586242379498979e-23  -2.4245477228855759e-22  4.4327164078052436e-23  -3.2046648596959317e-22  6.9617969362835611e-23  8.0569850571157759e-23  -8.9703551391871024e-23  6.3999999999999960e-22  6.4000000000000016e-22  -6.2953185277875805e-23  6.4000000000000016e-22  6.4000000000000016e-22  6.4000000000000016e-22  6.4000000000000016e-22  6.4000000000000016e-22  -2.3111224261673748e-22  3.1870744167594779e-23  -1.6160190187840829e-22  -3.8777174972559879e-22  6.3999999999999960e-22  6.4000000000000016e-22  6.4000000000000016e-22  6.4000000000000016e-22  -3.9013825295711989e-22  -2.8952748078030218e-22  6.4000000000000016e-22  -7.4853384639437322e-24  -5.5582846495187678e-23  -1.1280953845334059e-23  -5.9884971982564095e-24  9.7988332413445392e-25  -1.8663073099131635e-27  -2.6988913108062349e-26  -7.3108863503127025e-27  1.4948497499860394e-25  -3.4334441923233562e-24  5.2756581854066461e-24  -5.0303670453480939e-25  -2.2347704382663192e-25  1.8874786857362637e-23  -1.1712832699861607e-24  -2.9024549037939324e-25  -2.6169024041934472e-24  -3.0821680101926637e-23  -1.5191511359122541e-23  -8.1767630037374709e-24  -1.3934057437340848e-23  2.9466277637525641e-23  -1.5009550425316108e-23  -7.4909461514514157e-24  -3.2426102165903037e-27  -6.5570210672107021e-26  5.0876610810463238e-26  -1.2420263765248554e-25  1.1876028665032570e-25  -3.4194253095954022e-25  -1.7686900125868217e-24  1.3004713985843006e-24  1.5459086473837259e-25  -5.3968150425952838e-24  -7.0550889099490752e-24  1.0561282132344903e-26  -5.1938576486451700e-26  -5.8407443473891060e-26  1.2480911219439888e-25  2.7333632051958825e-27  -8.7600541563534615e-25  9.3888544256416441e-25  3.4392785947979350e-26  -1.3979262200947283e-26  -4.7499391703710335e-25  -3.3064949454070850e-22  -2.4551517688222342e-25  -2.7214024448108099e-23  1.0957402536074796e-23  -1.7816558034243568e-23  7.2819695241191316e-24  6.3644451127763162e-24  -1.3857431627589504e-23  8.6970652890614545e-23  -1.3685806955584016e-23  -3.4679624532578834e-24  -2.5155890812687676e-22  -1.4515119344942198e-24  7.4546392824402742e-23  5.2422168108196753e-23  1.1068739876389089e-23  -9.3130391398597923e-24  -1.8758494733729087e-23  -6.6054828799454546e-24  -5.3544570617782095e-24  -8.5088539588298901e-24  -2.3212352259409872e-23  -3.6656973606831930e-24  -9.6326365435975398e-24  -2.6742387278307413e-23  6.9704253444411249e-25  -7.4236992952575532e-24  -2.0251683354593451e-26  9.6837452187681183e-27  -6.9843978826090201e-26  -3.0542107149380007e-25  2.8153512743842203e-26  -1.2696277896086172e-25  3.6555468829996377e-25  6.3999999999999997e-22  -2.7202314632592500e-22  -8.8700843315055185e-23  -3.6244509151066845e-23  9.3473407885175846e-24  -1.0626769327486179e-23  -4.1633043976671468e-24  7.1688085580022506e-23  2.7187770288548207e-23  5.3133598732338205e-23  -7.1846559013856840e-23  -1.4860566897269629e-23  7.1092726740343311e-23  4.6920549075491151e-23  -1.9756447117211351e-23  -1.7418730227296366e-24  -1.7755908525248851e-24  -1.4161379710094277e-23  -1.0816631155817266e-23  -1.4511207574871749e-23  -1.6875385822117374e-25  -2.1880650994023472e-23  -1.0544159847700522e-23  2.4578418339196296e-27  1.0135659347014172e-27  6.5581946809853990e-24  -5.7834057329808517e-24  4.5286639274252650e-24  -1.0343894120078105e-23  2.6842603714361146e-24  -3.2289129223981960e-24  2.5709956003484305e-23  -5.1144428119928235e-24  -3.2757121341016054e-24  2.1968396645896961e-25  -1.4151619167321940e-23  2.4372808604718046e-24  3.5504384191199390e-23  6.4000000000000016e-22  -2.0440234192155753e-23  -2.8346806950253400e-22  -7.2353426107113634e-24  -7.4972074716843078e-24  -1.9145843091474977e-23  8.5317455090425244e-23  -1.1663143905633826e-22  9.5217702646342935e-24  -9.8181543389335645e-23  -2.3481339637533586e-23  -3.2272432796855025e-24  5.9552124133027397e-25  7.7380223515868627e-26  -6.3778146299610439e-27  -9.7062296884470271e-25  4.3782880206057283e-26  -7.7164593428688248e-25  -1.5032439634101273e-22  2.7590061221595472e-23  3.2522296735776268e-25  6.3999999999999960e-22  -1.9390424746861482e-22  3.3888204504051218e-23  -2.1685861651045348e-22  8.0659834353515915e-24  3.7248460098341653e-23  3.7615740002178649e-24  6.6568606257503023e-23  -2.3160705819811799e-22  -1.1924249739196623e-23  3.3657542728402342e-23  3.1931851557073133e-23  2.5454234005245758e-24  -1.0579548280803687e-23  -3.9139993295120338e-24  -1.4272007269097978e-23  -4.2585556683032733e-24  -1.9369182062394600e-23  9.8517135026074474e-26  1.9067298028464548e-24  8.4838924514652598e-26  -1.4529363747820839e-25  6.5666266570030035e-25  6.4000000000000016e-22  -4.0819528600885982e-22  6.4000000000000016e-22  6.4000000000000016e-22  -4.1310277152463700e-22  9.5887521974610535e-23  -1.9374503412854571e-22  6.4000000000000016e-22  6.4000000000000016e-22  -2.7348267896968522e-22  6.4000000000000016e-22  2.6716506254640015e-26  -1.2559523053877590e-26  2.1819218870718591e-25  -6.9177083503381315e-24  -2.2026917951075002e-24  1.0930160868017509e-26  -3.5430354153628742e-27  -3.6219806239711880e-22  7.4467808118435356e-24  -5.3837757958748391e-24  -2.7169414626245273e-23  9.4087657080726521e-23  4.8627756127560654e-23  5.5606922391898551e-23  -2.8500520748314909e-22  -3.5400821518647534e-26  -2.3087306357206308e-25  -6.3695400138538860e-24  -6.9428177778754826e-23  1.3110295515725439e-24  -9.4883502481541568e-26  -1.2347718524388700e-24  -3.4461715609733937e-23  -1.2571420315430698e-24  -1.7676689935257655e-25  -3.4897834507806509e-24  5.1072787611955171e-24  -8.2517176583972972e-25  8.0723291546459886e-25  -7.1837833368320625e-25  -2.3617846369200448e-24  1.3012959641378190e-23  -1.9805359760327617e-23  -4.0664838836547633e-24  1.8591116775533016e-23  -9.2173491597619591e-23  -5.5912017832206492e-23  6.1056188855396888e-24  9.5415472283775665e-24  1.7318950373062363e-23  4.9729568598224786e-23  5.1676509171223009e-26  -2.4787798325630546e-24  -2.9095886221242661e-22  1.5937368351029014e-24  1.6215497040936427e-23  2.0623462916919441e-23  2.2202989624652414e-24  7.3561573622889305e-28  -2.7080691597697467e-26  4.2345906620718612e-26  3.8109314505288545e-26  -6.1760610488744516e-25  -1.4299271810987095e-25  -1.2242993568162942e-25  -9.7451437353654345e-25  -3.1300496511052633e-22  -1.5443995741892597e-22  1.9700553145531631e-23  -5.7902074346019531e-23  5.9466168519071100e-23  1.7055440084187563e-23  -3.1009712031129108e-24  2.3413492243323183e-23  -1.7160359929003956e-22  -4.0089097370845675e-22  -1.2185279758076669e-23  9.6131287496641186e-23  5.6956804694893357e-23  -3.0449195780465491e-22  2.2133561045602935e-25  5.0064006423397388e-23  6.4000000000000016e-22  -4.8643551038224746e-23  -1.0259182758508048e-22  6.3999999999999960e-22  -9.1451286917488767e-23  6.4000000000000016e-22  -3.7806526581398542e-22  -5.7214092380387897e-23  -3.2670804290057721e-23  4.4795793936304456e-25  -1.1291619558633925e-23  -9.7595939466653340e-25  -1.3537456687826525e-23  1.0689421543175098e-23  -4.7294286117484847e-25  -8.5065301425918856e-25  -1.0312420881096545e-23  -5.8622356966712916e-24  1.6486623245190800e-23  6.4000000000000016e-22  6.4000000000000016e-22  -1.0362632434361488e-22  -2.8427779511095360e-22  6.4000000000000016e-22  6.4000000000000016e-22  6.4000000000000016e-22  -1.7126628198498313e-22  -3.2788454691284707e-22  8.9986350942877717e-23  -2.3958710206770145e-22  1.1949641827477205e-23  6.4000000000000016e-22  -1.8490734178085499e-26  -9.6720791640384482e-24  6.3999999999999997e-22  -2.2725188935617203e-22  -1.2682578342185711e-22  6.4000000000000016e-22  6.4000000000000016e-22  -2.4071659427885750e-22  3.2639246714500129e-23  4.3638295987463402e-23  6.1058492999726961e-24  1.0909751622198720e-23  -3.0481383895368246e-23  6.3557106493445883e-24  5.1913953301802279e-23  4.7521051697099466e-23  -9.3138425569664405e-24  3.0307018282773975e-23  3.3002349699863768e-23  7.8274145571579585e-24  7.3807568979857013e-24  -1.4209901399683245e-23  -5.2702755314333899e-24  -2.6266977849298801e-24  -8.0084348486618223e-24  -9.2039857242494929e-24  -2.9380026757370556e-24  -2.2920486842192333e-22  -1.8265580554345703e-22  -5.7109462373209473e-24  6.0988148945759337e-24  5.0394359707521846e-23  -2.6327389758598278e-25  -1.5328916093119042e-24  -1.0627941264548402e-23  6.9811205239051341e-24  -1.8407229470712591e-24  -6.5221132484266039e-24  2.6432681113611820e-24  -4.0347696630076790e-24  -5.7088027856867218e-25  3.3396891069688760e-25  1.2041507653502550e-26  -1.0780638751199218e-23  -6.5341314264959664e-24  4.5298859848123895e-23  -9.7387762281222806e-24  2.4550152007311991e-23  7.2103429470227224e-23  3.4313644572071433e-23  6.4000000000000016e-22  6.4000000000000016e-22  -2.2287931575563730e-22  -2.0307563913497494e-22  -1.4751242181063450e-22  6.4000000000000016e-22  6.4000000000000016e-22  6.4000000000000016e-22  -1.2343775409844355e-22  1.3840459934689787e-23  6.4000000000000016e-22  6.4000000000000016e-22  -2.2277074282892621e-22  -1.1350673469586124e-22  6.3999999999999997e-22  6.4000000000000016e-22  -1.4944747176922174e-22  6.4000000000000016e-22  6.4000000000000016e-22  -2.0464363807493268e-22  6.4000000000000016e-22  -1.2923156429099007e-27  -1.7731502378747467e-24  -3.0971720226213725e-24  5.9192710678752594e-24  -1.0447416901561753e-26  -3.8612657838485240e-24  7.3744575421963282e-24  2.5712061821064692e-24  -5.2563169471570941e-23  6.4000000000000016e-22  -4.0051616347033453e-22  1.1598103202129939e-22  -1.4766987086090962e-22  -2.5822253287789870e-23  6.3731869701056698e-23  6.3999999999999997e-22  6.3999999999999997e-22  -1.1638859658257423e-22  -3.3550436422043683e-22  4.2463082966866005e-23  8.1805202593929685e-23  2.5432077633457135e-23  2.4715770816179714e-23  2.6873943870829826e-23  5.2367901913493622e-23  -2.8317961422621229e-22  6.7332822166884329e-23  6.4000000000000016e-22  -2.7164972535116039e-23  -1.0527628799936541e-23  1.1513463836092009e-24  -4.4408877044029137e-23  -6.1993294098728639e-27  -2.9662186561155413e-22  3.2189739947950151e-23  -2.1504105160063487e-22  6.4000000000000016e-22  -1.1057874657259616e-22  6.4000000000000016e-22  6.3999999999999960e-22  6.4000000000000016e-22  6.4000000000000016e-22  6.4000000000000016e-22  -8.7679742274779684e-25  6.4000000000000016e-22  6.4000000000000016e-22  -3.2987207325960504e-22  6.3999999999999997e-22  -6.1432855154880158e-23  2.3196034719739507e-23  6.4000000000000016e-22  6.4000000000000016e-22  6.4000000000000016e-22  -1.7868347414500127e-22  1.6289492569028157e-24  6.4000000000000016e-22  6.4000000000000016e-22  -3.6239286500429952e-22  2.7154318836370003e-23  -1.1314247984596170e-22  6.4000000000000016e-22  6.4000000000000016e-22  -3.2784897478197317e-22  6.4000000000000016e-22  -8.0464445975376558e-23  3.2149576858894522e-23  1.4651680710638196e-23  -3.1282891473335171e-23  9.2936251458200192e-24  -8.2404025246416465e-23  -9.4677165066654093e-26  -2.5006261730353900e-22  2.2028598124833412e-23  3.7484635291383532e-23  -1.4295948840997705e-23  -7.9958340346129658e-24  4.9803724930589515e-23  -3.9019380933924736e-24  -1.5872090776518816e-23  -3.8490005702812548e-25  2.4287611010402966e-23  -1.1289169887173481e-23  -1.4957304159016789e-23  -1.0252290580512479e-24  2.6741522896635332e-24  -1.0208934950513382e-23  -3.1605425165357432e-24  -2.3555556632145353e-22  -1.1116841924216441e-23  -2.3124333034680134e-24  -2.6001240161926037e-23  -9.1255969504839154e-23  6.4000000000000016e-22  6.4000000000000016e-22  -1.4098271699446301e-22  1.6863681137060536e-23  6.4000000000000054e-22  6.4000000000000016e-22  6.4000000000000016e-22  -3.2999123068785903e-22  -5.2435815776218279e-23  5.1844661533638305e-23  6.4000000000000016e-22  6.4000000000000016e-22  -2.3043583118907172e-23  6.4000000000000016e-22  -4.9857748907908979e-23  5.0006762626447072e-24  -1.5115809366036557e-23  3.8752175364302061e-23  3.1289038146401675e-24  -7.3310214966656554e-24  -2.8873495026785741e-24  -6.3666728207939854e-24  3.0924894444348307e-25  -9.2201313299086395e-24  -8.1536089326946507e-26  1.6186465604972267e-26  -3.4860179106988967e-24  -1.2192323330565003e-24  -2.0475733617766328e-24  -2.0359281214254473e-24  4.7919934733706625e-25  6.4000000000000016e-22  6.4000000000000016e-22  1.0401407745334389e-25  1.0106943578421312e-25  -1.3988668738486108e-24  -2.992612492