<?xml version="1.0"?>
<VTKFile type="UnstructuredGrid"  version="0.1"  >
<UnstructuredGrid>
<Piece  NumberOfPoints="13639" NumberOfCells="67642">
<Points>
<DataArray  type="Float64"  NumberOfComponents="3"  format="ascii">32.74515914916992 26.33816909790039 36.19672012329102  33.30622863769531 26.76013946533203 36.80410003662109  33.34037017822266 26.76995086669922 35.93077087402344  33.18818459388825 25.67758102300446 36.89256281472361  33.6491813659668 22.98899078369141 38.69702911376953  33.00106979392799 23.30519005247248 37.64295038304773  34.15967974210056 23.58707511706331 38.39877615142761  34.38398409781292 23.26360592498445 37.29721429444657  32.65642166137695 26.28606033325195 35.43434906005859  33.34749984741211 26.71154022216797 35.0797004699707  33.65218052329814 25.64658746389551 35.81931220579877  33.09637744686935 24.2805321844561 38.53262725496092  32.75149154663086 26.16634941101074 34.57014083862305  33.5076051349151 25.65968886212704 34.67401028120909  33.50336395052414 24.56516840761553 37.28493568544022  33.15319061279297 25.867919921875 34.07966995239258  33.42765045166016 26.53823089599609 34.39157867431641  33.93146896362305 22.24191093444824 38.17210006713867  35.04079055786133 32.21327972412109 33.65439987182617  35.16804885864258 31.46805000305176 33.32376098632812  35.01626968383789 32.25841903686523 32.8866081237793  35.90842135418689 32.37647410827113 33.04548006498518  39.89416122436523 29.22612953186035 34.76615142822266  39.73422990340534 29.05260697440793 34.8639749585864  39.89416122436523 29.04668712615967 34.72337818145752  39.89416122436523 29.01448726654053 34.93262767791748  39.89416122436523 28.8028450012207 35.0991039276123  39.73422990340534 28.87316456870725 34.82120171182126  39.73422990340534 28.84096470908811 35.03045120828122  39.89416122436523 28.83504486083984 34.88985443115234  39.89416122436523 28.86724472045898 34.68060493469238  39.57429858244544 28.87908441695551 34.96179848895014  39.89416122436523 29.19392967224121 34.97540092468262  39.89416122436523 29.16172981262207 35.18465042114258  39.73422990340534 29.02040711478879 35.07322445504636  39.89416122436523 28.98228740692139 35.14187717437744  39.73422990340534 29.23204938010862 34.90674820535153  39.73422990340534 29.19984952048948 35.11599770181149  39.57429858244544 29.23796922835688 35.04734498248042  39.57429858244544 29.0585268226562 35.00457173571528  39.89416122436523 29.09733009338379 35.6031494140625  39.73422990340534 28.98820725516965 35.28247395150632  39.73422990340534 29.16764966087034 35.32524719827146  39.73422990340534 29.13544980125119 35.53449669473142  39.57429858244544 29.1735695091186 35.46584397540034  39.57429858244544 29.02632696303706 35.21382123217524  39.57429858244544 29.20576936873774 35.25659447894038  39.89416122436523 28.95008754730225 35.3511266708374  39.89416122436523 29.12952995300293 35.39389991760254  39.89416122436523 28.50835990905762 34.59505844116211  39.73422990340534 28.69372216300657 34.77842846505612  39.89416122436523 28.6878023147583 34.63783168792725  39.89416122436523 28.65560245513916 34.84708118438721  39.25443594052563 29.24980892485341 35.32853853673818  39.41436726148554 29.06444667090446 35.14516851284417  39.41436726148554 29.24388907660514 35.1879417596093  39.41436726148554 29.211689216986 35.39719125606926  38.87078857421875 37.69176864624023 33.95344924926758  38.96019815549572 37.23936814565365 33.8818367523514  39.17133652739385 37.4386461699948 33.87174074861223  39.08245468139648 37.54582977294922 33.6109790802002  39.29412078857422 37.3998908996582 33.26850891113281  39.12715947203497 37.31962952265593 33.57517283174211  39.38300263457159 37.29270729670378 33.52927057954484  39.47188448056896 37.18552369374935 33.79003224795687  39.21604131803234 37.2124459197015 33.83593450015413  39.38247489929199 37.63792419433594 33.86164474487305  39.33829784393311 37.51890754699707 33.56507682800293  39.42717968993048 37.41172394404265 33.82583849641496  39.23299252562384 37.24666008601042 33.40393774720842  39.32187437162121 37.13947648305599 33.66469941562044  39.17186426267345 37.09342927236263 33.53936658328401  39.44413089752197 37.44593811035156 33.39384174346924  39.48830795288086 37.56495475769043 33.69040966033936  39.59414100646973 37.49198532104492 33.51917457580566  39.53301274351934 37.33875450739714 33.65460341188127  39.89416122436523 37.58407974243164 33.76984024047852  39.6830228524671 37.3848017180905 33.77993624421769  39.74415111541748 37.53803253173828 33.64450740814209  39.63831806182861 37.61100196838379 33.81574249267578  39.04960773677269 36.78696764506707 33.81022425543522  39.11073599972307 36.94019845871485 33.67479541935961  39.0049029461342 37.01316789536035 33.8460305038933  39.26074610867082 36.98624566940821 33.80012825169604  37.71429061889648 31.30958938598633 37.71371841430664  37.88552856445312 30.6813793182373 38.32651138305664  38.05347061157227 31.53162956237793 38.55516052246094  38.30958633661031 31.18472513027046 38.12914721390573  38.90488205432413 31.0598608745546 38.54457601350482  39.89416122436523 28.33259963989258 30.17427062988281  39.707482380656 28.28599211015054 30.01678729560004  39.5726794234272 28.32581049734113 30.25170247745355  39.67336487061047 28.07359113819729 30.15744484226889  39.45256851685571 27.814582636502 30.14061905465497  39.48668602690124 28.02698360845525 29.99996150798612  39.35188306967244 28.06680199564584 30.23487668983963  39.25119762248916 28.31902135478968 30.32913432502428  39.38600057971796 28.2792029675991 30.09421914317078  39.52080353694676 28.23938458040852 29.85930396131727  39.01097580934619 27.29656563311142 30.10696747942713  39.04509331939172 27.50896660506468 29.96630993275828  38.91029036216291 27.54878499225526 30.20122511461179  39.23177216310096 27.5555741348067 30.12379326704105  39.26588967314648 27.76797510675997 29.9831357203722  39.13108671591768 27.80779349395055 30.21805090222571  38.80960491497964 27.8010043513991 30.29548274979644  39.07921082943724 27.72136757701794 29.82565238608943  38.60823402061308 28.30544306968679 30.48399802016575  38.87783993507068 28.22580629530562 30.01416765645874  39.03040126873439 28.06001285309439 30.31230853741036  39.16520422596319 28.02019446590381 30.07739335555686  39.14744584952829 28.14616952092445 29.54433729275172  39.01264289229948 28.18598790811504 29.77925247460523  38.97852538225396 27.97358693616178 29.91991002127408  39.300007183192 27.98037607871322 29.84247817370335  39.19932173600873 28.23259543785707 29.936735808888  39.11332833948276 27.93376854897119 29.68499483942058  39.33412469323753 28.19277705066649 29.70182062703449  38.16693878173828 33.83240127563477 39.27764129638672  38.56381988525391 33.03371810913086 39.09909057617188  38.80857467651367 33.80350494384766 39.28738975524902  38.54129877982973 33.83577406347859 38.82875144726444  38.73973933158754 33.43643248022664 38.73947608715702  38.91565877792118 33.83914685132241 38.37986159814217  39.00701522827148 33.4041633605957 39.1981143951416  38.96133700309633 33.62165510595906 38.78898799664189  39.45021057128906 33.77460861206055 39.29713821411133  39.22861289978027 33.58938598632812 39.24762630462646  39.12939262390137 33.7890567779541 39.29226398468018  39.18293467460512 33.80687773169148 38.83849990612675  38.28754043579102 39.26924133300781 35.21352005004883  38.31613795255438 38.43712255765434 35.92434584330444  37.7632345494456 39.15365648017191 36.044232978156  38.61059951782227 39.38745498657227 35.81841087341309  38.93365859985352 39.50566864013672 36.42330169677734  38.77927843802873 39.23853211951612 36.29856273340911  38.77212905883789 39.44656181335449 36.12085628509521  38.34844657464956 39.32966256015432 36.23376733746667  38.62489827620395 38.97139559889553 36.17382377004089  36.63248062133789 27.96948051452637 37.93989181518555  36.65345001220703 27.31488990783691 38.23825073242188  35.87428361785663 27.42152286193081 37.67176379971436  36.7892328096157 26.84990219612929 37.60128908365871  35.57104110717773 38.15782165527344 39.89208984375  36.0438117980957 38.99821090698242 39.89208984375  36.33097839355469 38.21982955932617 39.89208984375  35.88190237589039 38.42803257256797 39.02065844867174  36.94641876220703 34.55345916748047 39.34410095214844  37.92288970947266 34.55422973632812 39.89208984375  38.14318072026093 34.63109202353735 39.02855907375981  37.32533208051369 35.32726017276235 38.9938665057154  35.20320129394531 31.15176963806152 34.98698043823242  35.35166931152344 30.23848915100098 34.87593841552734  36.21206776893395 31.0184823096949 35.8481500574682  36.10632358187993 30.11169048351278 35.02206329868982  39.00642013549805 24.03589057922363 36.7138786315918  39.00937536505429 24.21511512470896 36.80174989451568  39.08999252319336 24.04910039901733 36.87028121948242  39.22835540771484 24.17868280410767 36.78866863250732  39.45029067993164 24.3214750289917 36.86345863342285  39.23131063727109 24.357907349593 36.87653989543121  39.31192779541016 24.19189262390137 36.94507122039795  39.17356491088867 24.06231021881104 37.02668380737305  39.0929477527496 24.22832494450266 36.95815248240631  39.01233059461053 24.39433967019429 36.88962115743957  39.3407096862793 24.08872985839844 37.3394889831543  39.26009252814023 24.25474458409007 37.27095765818756  39.39845541266171 24.3843269891804 37.18934507121246  39.39550018310547 24.20510244369507 37.10147380828857  39.3148830249664 24.3711171693867 37.03294248332183  39.45324590948788 24.50069957447703 36.95132989634673  39.45620113904413 24.67992411996236 37.03920115927063  39.31783825452264 24.55034171487203 37.12081374624572  39.17947537000116 24.42075930978169 37.20242633322082  39.47907257080078 24.21831226348877 37.2578763961792  39.53386306762695 24.3346848487854 37.01986122131348  39.61743545532227 24.3478946685791 37.1762638092041  39.5368182971832 24.51390939427073 37.10773248423736  39.17652014044491 24.24153476429636 37.11455507029693  39.0959029823
[...]
<PointData  Scalars="c_HbO2"> 
<DataArray  type="Float64"  Name="c_HbO2"  format="ascii">2.1830201639930019e-17  2.1583796850917480e-17  2.2222997284813012e-17  2.2561421691011814e-17  2.2209356634301192e-17  2.2203362439715457e-17  2.2222770936263366e-17  2.2208860281315629e-17  2.1947342454629003e-17  2.2457333909137698e-17  2.2290019607442063e-17  2.2262858597202906e-17  2.1827230023586098e-17  2.2375593102294504e-17  2.2162423823518000e-17  2.2085142422587278e-17  2.1940480390649617e-17  2.2331050290069683e-17  2.2135871835197793e-17  2.2238765237610811e-17  2.2263348770493526e-17  2.2234951522743652e-17  2.5163836055855490e-17  2.1997818379999847e-17  2.2135331568389629e-17  2.2214483201353845e-17  2.2245927885134165e-17  2.2274147878356905e-17  2.2168407185859325e-17  2.2198869262630387e-17  2.2271915319529866e-17  2.2315486781579132e-17  2.1182800582836741e-17  2.2331987423437814e-17  2.2137847549162597e-17  2.2215006371518737e-17  2.0474698685753570e-17  2.3241569931652460e-17  2.2721024921984322e-17  2.2145129236909090e-17  2.2312062014526362e-17  2.2213933197324483e-17  2.1887902951830195e-17  2.2310274643202895e-17  2.2264544683628285e-17  2.2271503308775542e-17  2.2308951496469689e-17  2.2242271347637030e-17  2.2116659627484701e-17  2.2269639499691129e-17  2.2219367035396290e-17  2.2071820223336641e-17  2.2217560226281656e-17  2.2280429509250658e-17  2.2181380300904172e-17  2.1963582482235847e-17  2.2330990715641691e-17  2.2261607835088792e-17  2.2083226378008938e-17  2.1988846140560256e-17  2.2276216682389252e-17  2.2222245330467607e-17  2.2280462323328833e-17  2.2211272694551610e-17  2.2360883858912524e-17  2.2226826193715882e-17  2.2369102741525200e-17  2.2129506130347477e-17  2.2374651857849345e-17  2.2227683064408590e-17  2.2189116749636325e-17  2.2241762619082229e-17  2.2051239092292069e-17  2.2410585572812080e-17  2.2439457971209221e-17  2.2215487404505287e-17  2.4619824885136208e-17  2.1664728377219178e-17  2.2161802976036213e-17  2.1721467921099300e-17  2.2209250185016282e-17  2.2196740252006103e-17  2.2376871402846896e-17  2.2221227694276064e-17  2.1628851493867502e-17  2.0837680579380061e-17  2.2149332144303324e-17  2.3334587772257837e-17  2.2637272209635173e-17  2.3238490225975234e-17  2.1486039497043552e-17  2.1935607511143931e-17  2.2236712453028595e-17  2.2234188344295246e-17  2.2217356280191527e-17  2.2193201690474368e-17  2.2286465810059233e-17  2.2221719724654864e-17  2.2498327038652647e-17  2.2233314046833004e-17  2.2224715204157848e-17  2.2223824398732451e-17  2.2230041082964566e-17  2.2210270156748587e-17  2.2230744850142095e-17  2.2207454674531420e-17  2.2241283912734044e-17  2.2233134063382562e-17  2.2220485038631920e-17  2.2229372183820194e-17  2.2242680943427929e-17  2.2268998129741305e-17  2.2221626044314124e-17  2.2207648716477787e-17  2.2233033549895120e-17  2.2190016174203141e-17  2.2266330398150250e-17  2.2176792080118607e-17  2.2194649360675649e-17  2.2142380882523964e-17  2.2298054285467066e-17  2.2347216411324564e-17  2.2302396959369419e-17  2.2247281826536275e-17  2.2173574447071200e-17  2.2145569941071172e-17  2.2235266608014443e-17  2.2306330439358541e-17  2.2250966349934255e-17  2.2241546296972942e-17  2.2068007888517181e-17  2.2306837341319456e-17  2.2360329877168709e-17  2.2124451127078001e-17  2.2230190703577389e-17  2.2328172071754732e-17  2.2283319397053138e-17  2.2224847510049339e-17  2.2185821645120839e-17  2.2252814345702097e-17  2.2212740219217603e-17  2.2314830358009298e-17  2.2184744488658293e-17  2.2308345691749772e-17  2.2375095351714412e-17  2.2033039715558441e-17  2.2230904064754293e-17  2.2189719666727142e-17  2.2248812511390362e-17  2.2197769653692121e-17  2.2267288707496030e-17  2.2035978451308677e-17  2.2345308655912411e-17  2.2479868016587730e-17  2.2104775789959358e-17  2.2282223594671983e-17  2.1668740039067626e-17  2.3167802381726254e-17  2.2685308986048657e-17  2.3444776778016169e-17  2.1667056359558577e-17  2.2411631434154928e-17  2.2377974023244902e-17  2.2373525354580978e-17  2.2621336075136529e-17  2.3261978653632449e-17  2.3326069065074519e-17  1.6620597648072840e-17  2.3600843568818877e-17  2.3252727730438995e-17  1.8903496120247103e-17  2.7675248048846517e-17  2.1023267485026909e-17  2.4056016602651028e-17  1.9369998503161091e-17  2.2641757112177469e-17  2.9167423999922835e-17  2.9301602523929021e-17  2.0562059395896870e-17  2.1609886185514889e-17  2.2769065800915353e-17  3.4398328580793546e-17  1.7589806984267500e-17  1.6386894199789233e-17  1.9459063563874921e-17  2.3030131804473271e-17  2.3713955933041109e-17  2.0625288537847446e-17  2.1821793801668910e-17  2.1736048675513805e-17  2.2216761072334061e-17  2.2265726968041988e-17  2.2042798050497401e-17  2.2241698164595817e-17  2.2216347515627731e-17  2.2299193038346742e-17  2.2074193810234972e-17  2.2213420170011434e-17  2.2210130135017001e-17  2.2215437897110933e-17  2.1512313337918723e-17  2.2368682662394657e-17  2.2338873644332537e-17  2.2165946607363787e-17  2.2199717382909922e-17  2.2223605997234820e-17  2.2230145848462251e-17  2.2204113499597495e-17  2.2217859212846203e-17  2.2233653147940662e-17  2.2229334924085166e-17  2.2214979639783540e-17  2.2242297379572985e-17  2.2209208735934704e-17  2.2234710683041987e-17  2.2268479456392378e-17  2.2240099298774123e-17  2.2231375548438561e-17  2.2253708127180941e-17  2.2246316656567317e-17  2.2222895925235197e-17  2.2233007240861366e-17  2.2241546239103524e-17  2.2229703273094220e-17  2.2227961479469219e-17  2.2269770119954002e-17  2.2243350948690648e-17  2.2235838735703313e-17  2.2215112254881133e-17  2.2259000907292841e-17  2.2215923787726294e-17  2.2137640048342414e-17  2.2238634471669664e-17  2.2226837577408510e-17  2.2886062010407153e-17  2.2286433870489618e-17  2.2011594860595667e-17  2.2439084238933123e-17  2.2315447585222913e-17  2.2220039301169802e-17  2.2347297673543826e-17  2.2118038090658415e-17  2.2187598361235104e-17  2.0133260696590327e-17  2.8366738463103653e-17  2.0042371422357670e-17  2.1932412153737591e-17  2.5033963150532261e-17  2.2894515440201039e-17  2.1975497215683894e-17  2.2830619281460450e-17  2.2501038126852261e-17  2.1092919141717864e-17  2.2834734740095742e-17  2.1869253082385186e-17  2.2247229504162717e-17  2.2203791949996779e-17  2.2224709924488909e-17  2.2259660909702159e-17  2.2229526049462934e-17  2.2229483986215357e-17  2.2226960532148179e-17  2.2226767290083117e-17  2.2222924630438157e-17  2.2231650161146683e-17  2.2224768670812391e-17  2.2232705478068641e-17  2.2223499326498076e-17  2.2228585330285071e-17  2.2226145462199703e-17  2.2236143160830278e-17  2.2228406779153853e-17  2.2227766208463418e-17  2.2224779636491277e-17  2.2225041282128834e-17  2.2232962134457661e-17  2.2227642009921952e-17  2.2204562772059943e-17  2.2221796311818931e-17  2.2241009793288277e-17  2.2226765215172982e-17  2.2223114400556888e-17  2.2221873681835092e-17  2.2233898634517253e-17  2.2223009957512322e-17  2.2043826269457773e-17  2.2085529570494286e-17  2.2132938344849451e-17  2.2209436795212914e-17  2.2171797542751045e-17  2.2211928581808633e-17  2.2252921797746240e-17  2.2144019276621324e-17  2.2378207003134562e-17  2.2160240484786290e-17  2.2225972270005527e-17  2.2299368049896577e-17  2.2273839522085080e-17  2.2217435001599141e-17  2.2217694055453161e-17  2.2235189202116827e-17  2.2220257436548180e-17  2.2173557496389487e-17  2.2226000365514693e-17  2.2203442919469488e-17  2.2225361661445788e-17  2.2768165942521702e-17  2.2298270618422401e-17  2.2266185151499959e-17  2.2059859253716752e-17  2.2569497594038809e-17  2.2517415719776905e-17  2.1767626278684578e-17  2.2401431267759400e-17  2.2366116313825201e-17  2.1981184037806676e-17  2.2195993848309244e-17  2.2240515052352531e-17  2.2261952487317998e-17  2.2272870638946137e-17  2.2422771322707328e-17  2.2045627028332466e-17  2.1948142105877733e-17  2.2058703870924211e-17  2.2147131360807817e-17  2.2293592724703834e-17  2.2245412430291105e-17  2.2257181554188521e-17  2.2248658405300456e-17  2.2224716758254939e-17  2.2149916093343129e-17  2.2302648296017714e-17  2.2253971045632262e-17  2.5621672796323259e-17  2.1941818446212908e-17  1.9188354631748011e-17  2.2361987949545832e-17  2.2269125052226792e-17  2.2262853023975287e-17  2.2031041039158253e-17  2.2935579546012352e-17  2.2100520797044887e-17  2.2377306833673414e-17  2.1391122995147852e-17  2.2407075901693683e-17  2.3142061260066587e-17  2.2099407548195780e-17  2.2233500205905637e-17  2.2116795140937353e-17  2.2213867358893829e-17  2.2253544893917305e-17  2.2213745488791965e-17  2.2171443773245587e-17  2.2271843167235151e-17  2.2165600729623064e-17  2.2260518826665003e-17  2.2141709953310513e-17  2.2281916073478079e-17  2.2172639217019101e-17  2.2085816844234508e-17  2.2218874846716594e-17  2.1985674400371945e-17  2.2260785204090744e-17  2.1986334421921682e-17  2.2257077846268814e-17  2.2243364414622228e-17  2.2247377582970910e-17  2.2217833098671366e-17  2.2224812691025577e-17  2.2290859650417140e-17  2.2309211125068847e-17  2.2126940998340097e-17  2.2207189789222941e-17  2.2226452250944502e-17  2.2259934398758090e-17  2.2216992674136786e-17  2.2262000169838207e-17  2.2472259394182051e-17  2.2263329455220882e-17  2.2112316126883072e-17  2.2285797701490932e-17  2.2362245477034951e-17  2.2256567836821443e-17  2.2223370361621670e-17  2.2198538066773262e-17  2.4068637782032680e-17  2.0684257004844125e-17  2.0593935433924826e-17  2.2462032615776243e-17  2.2306110197685045e-17  2.2654694134256734e-17  2.2592623658485445e-17  2.2409063398528671e-17  2.2732704856339312e-17  2.2874485564611181e-17  2.0263952402177367e-17  2.2625554358888311e-17  2.3019382924648721e-17  2.1607999605367557e-17  2.2196150851492636e-17  2.1961562904955363e-17  2.2206783232161292e-17  2.2235298118855600e-17  2.2396001415481669e-17  2.2642814816097043e-17  2.2129710777104904e-17  2.2192675066240054e-17  2.2227887973133821e-17  2.2134519665780676e-17  2.1933710842732044e-17  2.2252910371377839e-17  2.1944409608282733e-17  2.2342826772651639e-17  2.2201655730638327e-17  2.1937822869297196e-17  2.2239977668197514e-17  2.2042134068668526e-17  2.2288433724589206e-17  2.2250899200238038e-17  2.2029992673729403e-17  2.2057894188169207e-17  2.2943482316396921e-17  2.2183144090944480e-17  2.2259485348347264e-17  2.2276277487315912e-17  2.2242192226301641e-17  2.2228854741698971e-17  2.2215404514689288e-17  2.2248744517087613e-17  2.2247111966147907e-17  2.2231364594287952e-17  2.2163540005100118e-17  2.2226841581057951e-17  2.2297465991584492e-17  2.2230186792824973e-17  2.2341851512790376e-17  2.2104354705080243e-17  2.2329956118557428e-17  2.1938970223046932e-17  2.2089995475910798e-17  2.2288696548084554e-17  2.2177488752440822e-17  2.2256128500043996e-17  2.2211963705924867e-17  2.2185346052859623e-17  2.2202299495999015e-17  2.2275088871488935e-17  2.2249325677766893e-17  2.2203182920604431e-17  2.2134370859129711e-17  2.2183333244832694e-17  2.2103795893573361e-17  2.2464063078398628e-17  2.2097486413893527e-17  2.2187215195642609e-17  2.2623579314209837e-17  2.2263883777937417e-17  2.2345824159616289e-17  2.2685177706184453e-17  2.2674124992215854e-17  2.2332114219236745e-17  2.2092641021912762e-17  2.1595098005395021e-17  2.8830442699060870e-17  2.1327263419116551e-17  2.7473193806199961e-17  2.1086182168796670e-17  2.3045906633878314e-17  2.3936734795532754e-17  2.1067263738320032e-17  2.4233330699298599e-17  2.0234530569887865e-17  2.0390595832798847e-17  2.3428654046657040e-17  2.2053279773022697e-17  2.2531236599113289e-17  2.2863120560539688e-17  2.8196600428271892e-17  2.2593657950189587e-17  2.2339030349644938e-17  2.1845532585495552e-17  2.2097147958530190e-17  2.2046435620333758e-17  2.2259469838797556e-17  2.2147452943143547e-17  2.2211715371006061e-17  2.2275832532081223e-17  2.2124849688929467e-17  2.2483077544986461e-17  2.2174272490815924e-17  2.2194332226043164e-17  2.2211788632768071e-17  2.2592511289852928e-17  2.2510348670244455e-17  2.2162755288335661e-17  2.2241745415123570e-17  2.2337188284758352e-17  2.2225936788240527e-17  2.2214018199956308e-17  2.2148379597367833e-17  2.2275522022521908e-17  2.2278633331606031e-17  2.2180679240498854e-17  2.2134022154106244e-17  2.2268659942583943e-17  2.2160327683095129e-17  2.2174897566789098e-17  2.2248410217966669e-17  2.2284203607227876e-17  2.2233489667387960e-17  2.2319727182196757e-17  2.3853274661937361e-17  2.2414564190212215e-17  2.2547126003455660e-17  2.1426370040244276e-17  2.2261777817697888e-17  2.2212940634909102e-17  2.2263609305204198e-17  2.2156420848689484e-17  2.2202854820853259e-17  2.2293142312848173e-17  2.2066876047394008e-17  2.1658722190710617e-17  2.2371005210816425e-17  2.2031195680417631e-17  2.2096944978779543e-17  2.2302963242073777e-17  2.2202045438489028e-17  2.2171921765858395e-17  2.2214918804894562e-17  2.2238118681147075e-17  2.2317179203694803e-17  2.2190234028480498e-17  2.2206976601177225e-17  2.2213450967936694e-17  2.2305318049242631e-17  2.2021727361558105e-17  2.2307625679289175e-17  2.1925591160454055e-17  2.2198108946642566e-17  2.2250668787783461e-17  2.2209765476809148e-17  2.2165474697379826e-17  2.2256077582859060e-17  2.2182984357746727e-17  2.2281706444780641e-17  2.2224964733385312e-17  2.2241010108075410e-17  2.2235334205381523e-17  2.2230431682838644e-17  2.2218182019048412e-17  2.2231677879385131e-17  2.2230183164411199e-17  2.2238283424912584e-17  2.2243621284093339e-17  2.2248551422337065e-17  2.2203113046265641e-17  2.2232149594928748e-17  2.2227735560828030e-17  2.2226398754661355e-17  2.2227410484401364e-17  2.2225552950846628e-17  2.2200900085683194e-17  2.2263429441109942e-17  2.2209054001109734e-17  2.2227606963059315e-17  2.2200074328098553e-17  2.2244590102997086e-17  2.2208853198149474e-17  2.2257416455849309e-17  2.2221861039692506e-17  2.2251614280593444e-17  2.2175866613824353e-17  2.2249175139429533e-17  2.2254817996090014e-17  2.2237633783429857e-17  2.2230660248662806e-17  2.2222722789402313e-17  2.2219306646906048e-17  2.2222826199553374e-17  2.2229239971502099e-17  2.2236020951100751e-17  2.2225157086749594e-17  2.2198229666039871e-17  2.2266014236209774e-17  2.2233314109447692e-17  2.2171439990717315e-17  2.2226326552100140e-17  2.2245857108281920e-17  2.2144826011041124e-17  2.2227918986319029e-17  2.2230434446928274e-17  2.2230271853964784e-17  2.2228173326462391e-17  2.2226289452873990e-17  2.2236638632905795e-17  2.2229079922833098e-17  2.2229788023605545e-17  2.2231077848883583e-17  2.2230843889138065e-17  2.2232382197387412e-17  2.2229678708588095e-17  2.2229644185031625e-17  2.2233313331834726e-17  2.2235849912257683e-17  2.2229787087879290e-17  2.2234559684485712e-17  2.2230042617130383e-17  2.2235181738080365e-17  2.2226755894543071e-17  2.2231915657778625e-17  2.2237331011063296e-17  2.2232495620223675e-17  2.2225658721960998e-17  2.2231073466025775e-17  2.2227153395811478e-17  2.2233994344254163e-17  2.2225513630640794e-17  2.2234915738323193e-17  2.2227599011820402e-17  2.2236541323164226e-17  2.2565114968152863e-17  2.2265744359350089e-17  2.2293374408452883e-17  2.2232512040306487e-17  2.2235159705276797e-17  2.2224025177780359e-17  2.2226922378561814e-17  2.2221600788848171e-17  2.2235915878767026e-17  2.2228999526491407e-17  2.2230311759676707e-17  2.2221503749385722e-17  2.2230889016627245e-17  2.2230871212566017e-17  2.2241105497751017e-17  2.2227581448695330e-17  2.2230373063741213e-17  2.2223770431443464e-17  2.2242299712908776e-17  2.2237347957844733e-17  2.2247028672403558e-17  2.2218603969913358e-17  2.2206608487514532e-17  2.2227802777518035e-17  2.2216969305498887e-17  2.2227835535555694e-17  2.2227284338723869e-17  2.2226751932569105e-17  2.2230988202998995e-17  2.2233520501587713e-17  2.2220574291083999e-17  2.2238696685944041e-17  2.2222991803177411e-17  2.1789249320854817e-17  2.2251413807094648e-17  2.2548270468352301e-17  2.3244490561877672e-17  2.1991911577768032e-17  2.2292283960167280e-17  2.2162319663719613e-17  2.2380675384285740e-17  2.2105991999172279e-17  2.2125972220545041e-17  2.2249118889577350e-17  2.2378015950569021e-17  2.2246666622350249e-17  2.2495406677447104e-17  2.2142591671294728e-17  2.2150497328841370e-17  2.2241904097200461e-17  2.2261059154621091e-17  2.2267982127477788e-17  2.2187616940995500e-17  2.2226897493473717e-17  2.2334382150906447e-17  2.2298793217522745e-17  2.2226888786924362e-17  2.2369660235255002e-17  2.2261964663543275e-17  2.2225020497918544e-17  2.2183728113697285e-17  2.2428115792858358e-17  2.2154152777544185e-17  2.2127074033714664e-17  2.2205467238597027e-17  2.2236007827509718e-17  2.2225265505498313e-17  2.2199386165432328e-17  2.2059485697513818e-17  2.2216160525145899e-17  2.2168393109792365e-17  2.2178480169220725e-17  2.2203235519112549e-17  2.2222069247556394e-17  2.2281698014016667e-17  2.2238627307341039e-17  2.2223276990754142e-17  2.2208656920678735e-17  2.2182069168845671e-17  2.2197950903895442e-17  2.2239060216626861e-17  2.2211575167876178e-17  2.2271456104865995e-17  2.2208494519334254e-17  2.2231855824238616e-17  2.2248683554132306e-17  2.2192612634876650e-17  2.2238493990784959e-17  2.2282945072566120e-17  2.2226701711756999e-17  2.2229216512170522e-17  2.2251733579053669e-17  2.2198921570552710e-17  2.2153520803420095e-17  2.2232423974142695e-17  2.2216832113832589e-17  2.2182355843258493e-17  2.2171452128501936e-17  2.2845859390589960e-17  2.2005271352970600e-17  2.2374671404601707e-17  2.1988111022449940e-17  2.2354079822712929e-17  2.2229687749170768e-17  2.2201688322690571e-17  2.2236586043353248e-17  2.2234649718363003e-17  2.2232765679628289e-17  2.2236426856138685e-17  2.2246127150417922e-17  2.2240157286834630e-17  2.2237497117646773e-17  2.2216904667238533e-17  2.2238573906877086e-17  2.2240722343455106e-17  2.2249971482398817e-17  2.2237212508967359e-17  2.2232620062945402e-17  2.2235629597678947e-17  2.2239131963571673e-17  2.2241071641315703e-17  2.2235333799068801e-17  2.2232930080846113e-17  2.2233983156276163e-17  2.2239381051466660e-17  2.2234579117422981e-17  2.2247523468362907e-17  2.2232476625223576e-17  2.2241853923041207e-17  2.2216749371704281e-17  2.2241302273796990e-17  2.2210913241306296e-17  2.2234358975236358e-17  2.2243511356833705e-17  2.2234032458309287e-17  2.2243644505806280e-17  2.2245537103239410e-17  2.2194819054826616e-17  2.2194300003720415e-17  2.2262690313568373e-17  2.2202503480929931e-17  2.2257376020973321e-17  2.2229732579121527e-17  2.2215114031646660e-17  2.2235764856759426e-17  2.2227513864562902e-17  2.2175897405779301e-17  2.2529780878965524e-17  2.2124691091789831e-17  2.2365549807853480e-17  2.2200914364800605e-17  2.2332469491563076e-17  2.2251060204731131e-17  2.2136878053364184e-17  2.2201607803071873e-17  2.2915817911934219e-17  2.1493330036734153e-17  2.2374914861160191e-17  2.3395794644601110e-17  2.2185896123271011e-17  2.2502010948490401e-17  2.2323498381424393e-17  2.7423928597745924e-17  2.1896166029284193e-17  2.0624505040240712e-17  3.0605859856866685e-17  2.4909455869657796e-17  2.1335623239781999e-17  2.2090494393749725e-17  2.2872948549945267e-17  2.2624564596604019e-17  2.4741869727454663e-17  2.2192320226500413e-17  2.1745696008469970e-17  2.3329885940255159e-17  2.1317790921883581e-17  2.1093984850734514e-17  2.1846575425732056e-17  2.2521673629435936e-17  2.2531539465457373e-17  2.2648883694685101e-17  2.8323434780966244e-17  2.5010544030374915e-17  2.2281280128343228e-17  2.2180404969505671e-17  2.2106348126359662e-17  2.2132199043023185e-17  2.1949796554730531e-17  2.2226410336159953e-17  2.2211346858158808e-17  2.2184392724272310e-17  2.2502006616883511e-17  2.2175784942292515e-17  2.2082230247669718e-17  2.1970255308466643e-17  2.2314772488113326e-17  2.2840088303488264e-17  2.2448190496517484e-17  2.2138173935667400e-17  2.2202766687009186e-17  2.2183742307291834e-17  2.2185972374165069e-17  2.2058763459878464e-17  2.2394046523720945e-17  2.2079208433575464e-17  2.2181934452048544e-17  2.2223284926514033e-17  2.2217162759833470e-17  2.2237370445705