<?xml version="1.0"?>
<VTKFile type="UnstructuredGrid"  version="0.1"  >
<UnstructuredGrid>
<Piece  NumberOfPoints="3831" NumberOfCells="16908">
<Points>
<DataArray  type="Float64"  NumberOfComponents="3"  format="ascii">1.584525942802429 39.89572906494141 22.92720031738281  1.296501994132996 38.96308135986328 23.04791069030762  1.102702021598816 39.2034797668457 22.40666961669922  2.172826438458049 39.01558168694685 22.92397749628122  1.743314981460571 37.00265121459961 23.32678031921387  3.145593490723073 37.02014213486978 22.95964750746034  2.246742891630906 36.12125511192495 22.91182234573746  2.238357356601137 37.5460589068856 22.80346581520447  2.145292997360229 39.89572906494141 22.33062934875488  1.415325999259949 39.89572906494141 21.89780044555664  1.600852012634277 38.00569915771484 23.18190956115723  1.183912992477417 37.35641860961914 22.67318916320801  1.851581237071958 38.02323505874296 21.73054797125295  1.014335036277771 38.46112060546875 22.36746978759766  3.010827779586177 38.59476783492006 22.05317707796448  2.57677698135376 39.89572906494141 23.04541015625  3.026417016983032 39.89572906494141 22.23866081237793  3.940757989883423 36.73067855834961 22.11516952514648  3.633816957473755 36.0791015625 22.13257026672363  2.973159982494642 36.18327834801609 22.0272340915072  4.078267097473145 37.71942138671875 22.11622047424316  3.155656181589661 36.96854729553996 21.63768577773815  1.883085316482206 36.79580465435137 21.98119050993893  3.111304044723511 35.49982833862305 22.61152076721191  1.885360956192017 35.53076934814453 23.53009986877441  2.102935075759888 35.18291854858398 22.51272010803223  1.180639982223511 35.37211990356445 22.59754943847656  1.303990006446838 36.28382110595703 22.89163970947266  1.755604982376099 27.5781192779541 18.70199012756348  2.277177095413208 27.59124946594238 17.7979793548584  2.114031076431274 26.88132095336914 18.39757919311523  1.247800560835437 26.9985560163885 17.68934217701213  2.308657884597778 27.01983070373535 17.01896095275879  1.334259523590827 27.31755120409165 16.68835862780819  1.367465019226074 26.90043067932129 19.16311073303223  0.9142221586232973 26.75852634811117 18.62138878520507  2.45482611656189 27.79231071472168 16.81092071533203  2.111289024353027 27.36318969726562 16.21805953979492  0.6356099843978882 26.66990089416504 16.22967910766602  1.364127039909363 26.27540016174316 16.02856063842773  0.9325897025425348 26.31268234353095 16.90298348156044  2.010757923126221 26.61687088012695 16.37278938293457  1.39422595500946 27.05286979675293 15.63212013244629  0.09939099848270416 27.29903030395508 17.16399002075195  0.09939099848270416 27.1452808380127 18.14011001586914  0.09939099848270416 26.30584907531738 18.29689025878906  0.09939099848270416 26.55788993835449 17.61375045776367  2.099488973617554 26.13912963867188 18.79987907409668  1.303857252913302 26.03624595000974 18.01732184924764  0.793533980846405 26.46455001831055 19.40971946716309  1.218430042266846 26.08836936950684 19.1830005645752  1.84749192184199 26.1107655923582 17.00228445364244  0.09939099848270416 26.71468925476074 18.98044967651367  2.610476970672607 26.66997909545898 17.65760040283203  0.09939099848270416 25.66197967529297 17.74770927429199  0.6832230091094971 25.71640968322754 18.91394996643066  2.658444881439209 26.31623077392578 16.95796966552734  0.09939099848270416 26.36947059631348 16.99404907226562  1.802563059263481 39.13731176402347 21.60924889462688  2.838828091617264 38.98854103064352 21.02542859691585  2.326702117919922 39.89572906494141 21.55400085449219  1.555577993392944 39.89572906494141 20.99844932556152  2.393112897872925 39.89572906494141 20.65292930603027  3.953044891357422 39.106689453125 21.51358032226562  3.333339929580688 39.89572906494141 21.2407398223877  3.816942930221558 39.16564178466797 20.52388954162598  0.776373028755188 37.69231033325195 22.0158805847168  0.9313949942588806 39.08314895629883 21.8414306640625  4.119826793670654 38.34529876708984 21.10232925415039  0.682345986366272 38.46107864379883 21.4123706817627  3.854626893997192 39.38607025146484 22.26719093322754  3.153340101242065 39.89572906494141 20.13582038879395  4.191434860229492 38.72452926635742 22.34094047546387  0.9045810103416443 39.30941009521484 21.17524909973145  0.6254609823226929 27.34366035461426 15.67945957183838  0.09939099848270416 27.69597053527832 16.43749046325684  0.09939099848270416 27.7210693359375 18.89257049560547  0.7826799750328064 27.21705055236816 19.44072914123535  2.079698085784912 29.11433982849121 14.00722026824951  2.2776780128479 28.21422958374023 14.51060962677002  1.4689040184021 28.30841064453125 13.97904968261719  1.884029742830035 28.52425038340512 15.04909862719077  0.09939099848270416 33.08543014526367 18.85026931762695  0.562075021619417 32.9697016227548 18.66792979152601  0.4078470139071794 32.64415540617735 18.80740175188648  0.2536190061949418 33.02857203444854 18.61487297982507  0.4078470139071794 33.02655973356993 18.90332612932788  0.09939099848270416 32.70302581787109 18.75434494018555  0.09939099848270416 32.32062149047852 18.65842056274414  0.4078470139071794 32.97171392363341 18.3794766420232  0.7163030293316546 32.96768932187619 18.95638294102881  0.09939099848270416 32.86680507659912 18.54038238525391  0.09939099848270416 32.64818000793457 18.23049545288086  0.09939099848270416 33.05800724029541 18.58834457397461  0.09939099848270416 33.03058433532715 18.32641983032227  0.09939099848270416 32.97573852539062 17.80257034301758  2.869144916534424 21.08499908447266 5.50863790512085  2.123054981231689 20.98962020874023 5.170475006103516  2.882909059524536 20.69696998596191 4.709012985229492  2.207303055296281 21.62919601613692 4.901826813196545  10.7825403213501 34.82801818847656 7.84408712387085  9.86154901510456 34.65208134276433 7.897934550095395  10.32063744197706 34.6722707890168 9.029531469820105  10.79046549881938 33.72444726866576 7.839614398967566  0.09939099848270416 37.13388061523438 6.57960319519043  0.09939099848270416 37.93600845336914 5.65972900390625  0.09939099848270416 36.91822814941406 5.571473121643066  1.415937383373833 37.86098380640367 6.06595755775608  0.09939099848270416 32.59698104858398 12.07849979400635  0.6861051787447235 31.72097240615793 11.86806040216686  0.09939099848270416 32.38148498535156 12.565269947052  0.8849085311082648 32.21654332188223 12.73140116869665  0.09939099848270416 34.99974060058594 17.04997062683105  0.09939099848270416 35.7369384765625 16.50004959106445  0.09939099848270416 34.73429107666016 15.92496967315674  0.6852937205080146 35.08114630221034 16.17523127739427  0.6852937205080146 35.21387106417323 16.73773175423143  1.271196442533325 35.42800152776053 16.4254928816318  1.047256946563721 22.63452911376953 8.223189353942871  0.6368290185928345 23.37256050109863 7.687427043914795  1.510460019111633 23.1452808380127 8.004315376281738  1.132915438990452 22.95714403107026 7.163187220153409  2.650933980941772 21.70751953125 6.282981872558594  1.617012853020752 22.85619195475871 6.479778127255  1.764744854339214 22.20174014305033 5.455842519213823  2.494576109241053 23.10934937273603 5.916400134639995  1.861300283900059 31.87443785817974 6.183664714588998  1.105514392116258 32.09764214322267 7.171679794949781  0.6965367372446084 32.48828774673435 6.289116230154367  0.8530810078481144 31.83699218252408 6.491889857123258  1.00962527845162 31.18569661831381 6.694663484092149  1.315044045448303 39.29010009765625 17.26902961730957  1.792057037353516 39.32297134399414 17.05549049377441  1.868069200397978 38.90782220578191 18.09779102327207  1.951070124730795 38.34967478586317 17.25078519139213  0.09939099848270416 30.65196990966797 5.511184215545654  0.09939099848270416 30.62482738494873 5.27845311164856  0.09939099848270416 30.89116239547729 5.326332449913025  0.3393346074349244 30.80169627638339 5.21539131813185  0.5792782163871446 30.95142264309882 4.919598420718046  0.09939099848270416 31.13035488128662 5.141480684280396  0.09939099848270416 30.59768486022949 5.045722007751465  0.09939099848270416 31.60873985290527 4.771777153015137  0.09939099848270416 31.07606983184814 4.676018476486206  0.09939099848270416 30.54339981079102 4.580259799957275  0.09939099848270416 30.80973482131958 4.628139138221741  0.09939099848270416 30.83687734603882 4.860870242118835  0.3393346074349244 30.74741122694492 4.749929110337661  0.09939099848270416 30.57054233551025 4.81299090385437  0.3393346074349244 30.82883880110263 5.448122422028945  0.5792782163871446 31.00570769253729 5.385060628512235  1.059165434291585 31.35944547540662 5.258937041478815  3.814690955717444 22.63095721344638 2.474953198191114  2.155246797061358 22.80186961941068 2.728749191382462  3.10618288729055 23.6049208264747 2.318021906311197  3.243651392325896 22.96454860973057 3.687338960998316  3.807672023773193 37.56557083129883 6.368172168731689  3.867981910705566 38.32387924194336 5.947957992553711  3.133226747455965 38.58615209652842 7.179286044527347  4.135698008381985 39.02837283029943 6.767625501179271  1.578778982162476 28.50972938537598 7.391119956970215  1.418609023094177 27.71766090393066 7.260042190551758  2.009350061416626 28.27681922912598 6.645851135253906  0.8919427441381066 28.55349611951839 6.951552399000311  3.291470050811768 27.63669013977051 3.284817934036255  2.285379886627197 27.84893035888672 3.214215040206909  2.313865900039673 27.22620010375977 3.128704071044922  2.687776306396447 27.57073159318951 3.970657012759646  3.726983070373535 36.12815856933594 7.049055099487305  3.742393016815186 36.82728958129883 6.771883010864258  3.545374996441212 36.18540876222839 7.934688708430828  3.075142723555252 36.40454724504626 7.238621662403637  8.957714824891641 37.49830786313663 10.30267498765546  7.863203218989582 36.87299684746243 10.4983720859935  8.351307803771487 36.4058297431467 11.28773276261912  8.506832720904344 37.66768255781447 11.23386668485236  10.24765968322754 38.37421035766602 8.449137687683105  10.057
[...]
<PointData  Scalars="p_O2"> 
<DataArray  type="Float64"  Name="p_O2"  format="ascii">9.9314542276873610e+01  9.9069947123587795e+01  9.8443418843912397e+01  9.7994070610051722e+01  9.9583229461734661e+01  9.6377578385634877e+01  8.8964458714489368e+01  9.3943632976882895e+01  9.8465294432228873e+01  9.9268597296724565e+01  9.9061541533072926e+01  9.6125212711971514e+01  8.8353346257644034e+01  9.5585900645174590e+01  9.2442957309372545e+01  9.9378495976335898e+01  9.7936035970944943e+01  9.9516417204370327e+01  9.5526659076816301e+01  8.8845811175542906e+01  9.7830626493198679e+01  9.0698900496482622e+01  8.8164812453453322e+01  9.8491548013407751e+01  9.6250521339561075e+01  1.0418532472080818e+02  9.9973100198535192e+01  9.9813206485023997e+01  8.9648321436225146e+01  9.2572813474412712e+01  8.9409151908425798e+01  7.0686077993358865e+01  9.4086445249625385e+01  7.5832788316770433e+01  8.8876997449752395e+01  6.5610504280758121e+01  9.5085165555822627e+01  9.9316647653964111e+01  9.1365336265703078e+01  8.7174848454934377e+01  6.9446625155087176e+01  8.9370867867239099e+01  9.8609541061898099e+01  4.0000000000000000e+01  4.0000000000000000e+01  4.0000000000000000e+01  4.0000000000000000e+01  9.3918825652169588e+01  7.3524157025755827e+01  9.4054703372647722e+01  9.3903319563450566e+01  8.5689402813583683e+01  4.0000000000000000e+01  9.3235196823461962e+01  4.0000000000000000e+01  9.3328161319378736e+01  9.1840901813266285e+01  4.0000000000000000e+01  9.4861220263361218e+01  9.6792397019510361e+01  9.7697229239485537e+01  9.8189610806556885e+01  9.7787948388257902e+01  9.6823280459548698e+01  1.0065988577228605e+02  9.7623826628755054e+01  9.0546747645084992e+01  9.8209799013168094e+01  9.8241869230856182e+01  9.1971278872421706e+01  9.9997309735374856e+01  9.8491498968348495e+01  9.8673918796801203e+01  9.5591898914311045e+01  8.9764059549263465e+01  4.0000000000000000e+01  4.0000000000000000e+01  9.1209667250000976e+01  9.2681792997086120e+01  9.4751440975832068e+01  9.1099310320809693e+01  8.7388725340245173e+01  4.0000000000000000e+01  5.1961668397104155e+01  4.9539078858173298e+01  4.3493367828443219e+01  4.8895548680859996e+01  4.0000000000000000e+01  4.0000000000000000e+01  4.6763620737444924e+01  5.8707137808431014e+01  4.0000000000000000e+01  4.0000000000000000e+01  4.0000000000000000e+01  4.0000000000000000e+01  4.0000000000000000e+01  9.8878047465289740e+01  9.9062094283402303e+01  9.9193477231071540e+01  9.6141755524976844e+01  9.9003445920749826e+01  1.0152833136486774e+02  9.9978094827710535e+01  9.9701414552101369e+01  4.0000000000000000e+01  4.0000000000000000e+01  4.0000000000000000e+01  6.9412880455522640e+01  4.0000000000000000e+01  9.3028979998988703e+01  4.0000000000000000e+01  6.6211330817887045e+01  4.0000000000000000e+01  4.0000000000000000e+01  4.0000000000000000e+01  4.6176140092436512e+01  4.6525263148424656e+01  5.3650919318611372e+01  1.0060790466461611e+02  9.5066290021944269e+01  9.6103133192378323e+01  8.4537758501680628e+01  9.8221878734916217e+01  8.7983661602347226e+01  9.0630532360433392e+01  9.2543617482711923e+01  7.3967531782418561e+01  7.2379609395146161e+01  5.1896981318016593e+01  5.7833263116396516e+01  6.4914606931330141e+01  9.7546686288539718e+01  9.7026843015205131e+01  8.9401088780630928e+01  8.7079721587924553e+01  4.0000000000000000e+01  4.0000000000000000e+01  4.0000000000000000e+01  4.4024603639212216e+01  4.8668792724662467e+01  4.0000000000000000e+01  4.0000000000000000e+01  4.0000000000000000e+01  4.0000000000000000e+01  4.0000000000000000e+01  4.0000000000000000e+01  4.0000000000000000e+01  4.4367380064393963e+01  4.0000000000000000e+01  4.4038576505767359e+01  4.8100331034296666e+01  5.6307725878266254e+01  9.8626659564273467e+01  9.7556431969578128e+01  9.8063763084282442e+01  9.7078103579797727e+01  9.4178511605474924e+01  9.6764980038652411e+01  8.8805337985219566e+01  9.6836060844291367e+01  9.2557395105827737e+01  8.9143518125924302e+01  8.9378073651383730e+01  7.2661564901850340e+01  9.7047511213153314e+01  9.4736678018998376e+01  9.6222458808392432e+01  9.2422804292995224e+01  9.2055249130061711e+01  9.2372487664911077e+01  8.2848572871819215e+01  8.3199393059231781e+01  9.9305452097269225e+01  9.8506116338407949e+01  9.9229020961134594e+01  9.9724510872759623e+01  9.9874041429059787e+01  1.0016054546318665e+02  1.0039004428043579e+02  9.9869447640616187e+01  8.4733064548829873e+01  9.5174280336733446e+01  9.0940950237317338e+01  9.2619366165299638e+01  9.9635317208606438e+01  1.0093370090753736e+02  1.0074730993521356e+02  9.9415616924696607e+01  7.6578610864531370e+01  5.7069563029291594e+01  7.1314078682892301e+01  7.7138963322227440e+01  9.4450821977902692e+01  9.2348870117646698e+01  8.9570859636298053e+01  8.5456657994075456e+01  7.8734205908088370e+01  1.0101063841465233e+02  8.8316281457944157e+01  9.6947200667402626e+01  1.0123021200330945e+02  9.9580066440406682e+01  9.9929119792713578e+01  9.9468908978126493e+01  9.9652191692741766e+01  1.0046200195428736e+02  9.9284930289365107e+01  1.0070317495967252e+02  9.9116886901805586e+01  9.9649358215965222e+01  9.9481212128284554e+01  9.7005368267619843e+01  9.9998650993716879e+01  9.9197166762047672e+01  1.0256006626419348e+02  1.0017601273611751e+02  1.0155627538423774e+02  1.0076315231995906e+02  1.0011401025228673e+02  1.0029548106314785e+02  4.0000000000000000e+01  4.0000000000000000e+01  4.0000000000000000e+01  5.7004764634675283e+01  9.7595936859891154e+01  9.7362036079670702e+01  9.4872669029955475e+01  1.0047206360171025e+02  1.0033730902193321e+02  1.0049192825031804e+02  9.8712160360554705e+01  9.9718228355340457e+01  9.7485721379004133e+01  9.9195440144054558e+01  9.8696923349621088e+01  9.2354503636719471e+01  9.1436516397355732e+01  9.3673678847632601e+01  8.7133160871425972e+01  6.5400619375175282e+01  5.4941589886313722e+01  5.2130340785543829e+01  4.7853926130383897e+01  9.8074134010724933e+01  9.4617501474735249e+01  9.3710562339429330e+01  9.9089071249023675e+01  9.9411557487024908e+01  9.9028453457092013e+01  9.9230176349635244e+01  9.3418935595082914e+01  8.2185527334856474e+01  9.5456712379808849e+01  9.3850413008681258e+01  9.5485524791719868e+01  8.6452793936505657e+01  9.9696043207712492e+01  9.9594112516738306e+01  9.8811167590008324e+01  9.9505659830383024e+01  1.0100737800465218e+02  9.9665592058380781e+01  1.0001997235323530e+02  9.9974799491634485e+01  9.1978039294723544e+01  9.2343524440282977e+01  9.1333317772001934e+01  7.1240319445534965e+01  9.8733044315205390e+01  9.8190121634353829e+01  9.5576380243521157e+01  9.7600227084636941e+01  8.7863575526067848e+01  9.4224117973219563e+01  9.9119697319479570e+01  9.7824083434845306e+01  9.8006465811369708e+01  9.8051348809818194e+01  8.8425751942546086e+01  8.9488791717972759e+01  5.9729232860097895e+01  7.3268511060888045e+01  4.0000000000000000e+01  4.0000000000000000e+01  4.0000000000000000e+01  6.3566268853234590e+01  9.8955780461774438e+01  9.9172107402054991e+01  9.9600039137958234e+01  1.0089174391100360e+02  7.2817486308784225e+01  5.3120508313783809e+01  7.4741981797199358e+01  9.5647401841040619e+01  8.5869099644453456e+01  9.3983605335525255e+01  8.9453587318767404e+01  9.4892215188476030e+01  7.9501424242708026e+01  9.1739887671647381e+01  9.3637688527580210e+01  8.8937614108688877e+01  9.2062092868324115e+01  8.5326661057566113e+01  7.3314887659181665e+01  9.8039878764461662e+01  9.9861206601670958e+01  9.9292869443226380e+01  9.7952393738299165e+01  8.4356767908468925e+01  8.6870612106679943e+01  9.8700232756345414e+01  1.0020015068945203e+02  6.7131050446146546e+01  6.7663977019351478e+01  6.6840606149945216e+01  5.9438599129087130e+01  7.4458093857946665e+01  7.4592549678902458e+01  8.1112442323987793e+01  8.0862221116593432e+01  5.3978713171042322e+01  9.5677462526919953e+01  9.6805835499820105e+01  9.0792131531744445e+01  9.0960044613207330e+01  4.0000000000000000e+01  8.7516154480872615e+01  4.0000000000000000e+01  5.8019815368734804e+01  4.0000000000000000e+01  4.4527674681445383e+01  4.6064001246897234e+01  4.6578602253903249e+01  5.4064524435906556e+01  5.2694100537694219e+01  4.5451917930461335e+01  4.8967406969662569e+01  4.9708203963411179e+01  5.1060772976565865e+01  9.2798424439446947e+01  8.5290456420489491e+01  8.6863113118026504e+01  8.7702270138268958e+01  9.0367976743056488e+01  9.5390470351762701e+01  9.4290950346071256e+01  9.0436712365035660e+01  9.4280446292944674e+01  8.1752168103046159e+01  8.0764555763969256e+01  8.4692071481275860e+01  7.0149175089216143e+01  4.6118837973749933e+01  4.0000000000000000e+01  4.0000000000000000e+01  9.9498343382446336e+01  9.9411964868274495e+01  9.9674862435183854e+01  1.0014422305194796e+02  9.9414842077745021e+01  9.9418497368642505e+01  9.9408143062389144e+01  9.8850564213016597e+01  9.6170426261094491e+01  9.8184366737430636e+01  9.7082900604407470e+01  9.8233054102285777e+01  9.9599531341447957e+01  9.8680867189228636e+01  9.8593700318815706e+01  1.0349556767798364e+02  9.1183465475252902e+01  9.4700966935927681e+01  7.0429707114707242e+01  8.9708507162074994e+01  7.9898993182117906e+01  7.8635361170303284e+01  6.4781605938039633e+01  9.0629367664988180e+01  9.5254963410435607e+01  8.5954314763120308e+01  9.1458093122994057e+01  9.8542960627010430e+01  9.7961166406856094e+01  9.3015545364540415e+01  9.7224555544598147e+01  9.9945314568252385e+01  9.8720744848834556e+01  9.9403143016890198e+01  9.9631426993574763e+01  9.8517706403661649e+01  9.8550477298940578e+01  9.9772486562812773e+01  1.0007863206969236e+02  9.7968776499321081e+01  9.9034991335315510e+01  9.9290987821490489e+01  9.0822421733424306e+01  8.9881966771172387e+01  7.9721157391358560e+01  7.0822866085199024e+01  9.8821487909359192e+01  9.9432067532424568e+01  9.6803331073412949e+01  9.5878924327887574e+01  9.8889452797776812e+01  9.7080286050720090e+01  9.6302881558377123e+01  9.8882515930280434e+01  9.9779226572868239e+01  9.3919572606741212e+01  4.0000000000000000e+01  4.9850717089004291e+01  4.0000000000000000e+01  4.0000000000000000e+01  4.0000000000000000e+01  4.7896825515940407e+01  4.0000000000000000e+01  4.0000000000000000e+01  5.0057462467616268e+01  5.6642280282624597e+01  4.0000000000000000e+01  4.0000000000000000e+01  5.7672263329176715e+01  4.0000000000000000e+01  4.0000000000000000e+01  5.6789162172366623e+01  4.0000000000000000e+01  6.0938143433890104e+01  7.0207655033580068e+01  5.2479838363052551e+01  6.3299303795393591e+01  4.0000000000000000e+01  4.7224667400203657e+01  4.6423216417772771e+01  5.4307240082542293e+01  5.2291961806744695e+01  4.6794652134306375e+01  5.3310838568687892e+01  6.2756983785262946e+01  6.1036897905835502e+01  5.7525580916573738e+01  4.7391620833432796e+01  5.2536224432800765e+01  5.4941952520858067e+01  5.3063066728573517e+01  6.0814196314983256e+01  6.1310543156047586e+01  5.6998122620345846e+01  5.8968400561606337e+01  7.3310740838423101e+01  6.8612524744042460e+01  7.1695480486024877e+01  6.7612131757163169e+01  6.2527892245479052e+01  6.3411493542758656e+01  5.5363318635339468e+01  7.8074290108374257e+01  7.5107713699218692e+01  7.9887465510471415e+01  5.3326712870393543e+01  4.0000000000000000e+01  4.0000000000000000e+01  4.6931928691446707e+01  5.2686330719791130e+01  9.6147133279495478e+01  9.0854792159190438e+01  4.0000000000000000e+01  5.5702211079165558e+01  5.2886478184019374e+01  9.9456534244591381e+01  9.7197564892943873e+01  9.7396936766357683e+01  9.4054845923001452e+01  9.1414757668721634e+01  9.8028478689563272e+01  9.8502617292139234e+01  9.2982467398582656e+01  9.1132354325644997e+01  7.5629870194531875e+01  8.4261617422395446e+01  9.7948428143419775e+01  9.7492413398874135e+01  5.2681284660378985e+01  5.5536812254137551e+01  4.5907672281070347e+01  8.9449518473568276e+01  9.7017805251446092e+01  9.2967928491926571e+01  9.4137168653461558e+01  4.0000000000000000e+01  4.2863950741798220e+01  4.5340642112162108e+01  4.6775769631593327e+01  5.4174061792844746e+01  5.0454626877960919e+01  5.0324016674302044e+01  4.8416041290486952e+01  4.6071659796964582e+01  6.6987635264863229e+01  6.3129933489519217e+01  6.1376091857358148e+01  5.4265942862405424e+01  5.4075205418108538e+01  5.7032745415824351e+01  5.9742190620637885e+01  5.6843734398024125e+01  5.2055981673074498e+01  4.2082017961194907e+01  4.4022603204077676e+01  4.4987358006781513e+01  4.7679549024547285e+01  5.0275756037010865e+01  4.8214493679190461e+01  6.8682963552743445e+01  7.1864995880131801e+01  6.4467236123162849e+01  6.3171766490215965e+01  5.5385126749527295e+01  6.1320620260873092e+01  5.7574802958492526e+01  5.1543786182732362e+01  6.6000900684633649e+01  5.7451181608155075e+01  9.9314937781795052e+01  9.9633439889982995e+01  1.0032842809432465e+02  9.1954774934050604e+01  9.0735071197406285e+01  9.2623876488346042e+01  7.2277188200219157e+01  8.5041896053281789e+01  8.9145155449872092e+01  6.7807055578877765e+01  7.1950335507993017e+01  6.9102059476610705e+01  9.3333495595720237e+01  9.0599643665321693e+01  9.0113632565288867e+01  7.3433835395215169e+01  4.0000000000000000e+01  4.0000000000000000e+01  4.0000000000000000e+01  4.5912443018592377e+01  5.1310966459305590e+01  4.5486199930363988e+01  4.5617901012681678e+01  4.0000000000000000e+01  4.0000000000000000e+01  4.0000000000000000e+01  4.0000000000000000e+01  4.2773049281520123e+01  4.0000000000000000e+01  4.0000000000000000e+01  4.2784665153816469e+01  4.0000000000000000e+01  4.0000000000000000e+01  4.2702131906668072e+01  4.5517322641708539e+01  4.0000000000000000e+01  4.2596686196236554e+01  4.0000000000000000e+01  4.0000000000000000e+01  4.2695119253251150e+01  4.2612621911634299e+01  4.5270043921515395e+01  4.0000000000000000e+01  4.2639849962419511e+01  4.5398310327746763e+01  4.6872690524039612e+01  5.3816959202107498e+01  4.5779159867436839e+01  4.6010410412914581e+01  5.1986599479746509e+01  4.9237420314842460e+01  6.4688375217426952e+01  4.0000000000000000e+01  4.0000000000000000e+01  9.0463986319868894e+01  6.3186073124147967e+01  4.0000000000000000e+01  5.8807188872920641e+01  5.3270773379163352e+01  4.6537886334403424e+01  9.9066356947161481e+01  8.3153481653757012e+01  9.5381294367800322e+01  9.3805670456959533e+01  9.8764864443714316e+01  9.7278693123048171e+01  9.8052062192791411e+01  9.9278381936579450e+01  9.0568397524580902e+01  6.5903597704170267e+01  5.9483357590671105e+01  7.7617690336204305e+01  8.8623978717059387e+01  9.0516266090351763e+01  9.1293310362743796e+01  4.0000000000000000e+01  4.0000000000000000e+01  4.0000000000000000e+01  4.0000000000000000e+01  4.5135884253990660e+01  4.5581089257440333e+01  4.2820580811902730e+01  9.8738930571678779e+01  9.9560424059160994e+01  9.7983718978382143e+01  9.8245245626856203e+01  9.8783739533423713e+01  9.8076128589751477e+01  9.8479270245398098e+01  9.8458612855649392e+01  9.8455300000955546e+01  9.9261778164006415e+01  9.9616510450078621e+01  9.9475918040990820e+01  9.9693094561262185e+01  9.1006393601060182e+01  8.6808914608700448e+01  9.1478789501839671e+01  6.9780188145806449e+01  9.5317302124052091e+01  9.3389783171169356e+01  9.8613658455559332e+01  1.0022749074961787e+02  1.0013316187114144e+02  9.9779849492207376e+01  9.0559518935138456e+01  9.5265192367062539e+01  6.3551284539495796e+01  8.4603757045827379e+01  4.8557191752955099e+01  4.8205132628581588e+01  6.1434269711361019e+01  9.9137932973014500e+01  9.9277398647390214e+01  5.8362034626531603e+01  7.9919770372457208e+01  6.3110683651869834e+01  7.3155644565596532e+01  4.0000000000000000e+01  4.0000000000000000e+01  6.9455648385925642e+01  4.7686685199905739e+01  5.5618633270676519e+01  9.4723785992670187e+01  9.4397426828069868e+01  4.0000000000000000e+01  4.0000000000000000e+01  5.9670207997681366e+01  8.1147158225948232e+01  9.5196375380525382e+01  9.4429170388661788e+01  8.8246914416048483e+01  8.6952954782012583e+01  1.0004050600383097e+02  9.7399998343295778e+01  9.8237388397146404e+01  9.9594012232068565e+01  8.9262428529019473e+01  4.0000000000000000e+01  4.0000000000000000e+01  4.0000000000000000e+01  9.9322666714936332e+01  9.8943915107081125e+01  9.8430938889464343e+01  9.9910908195578585e+01  7.5994957807104200e+01  9.5228831407534159e+01  4.0000000000000000e+01  5.4790981912009642e+01  9.9900314463901324e+01  9.7276513809313698e+01  9.8181650908540163e+01  8.8744866089562876e+01  7.6566802515241207e+01  9.7915434603258490e+01  1.0047069301338561e+02  1.0075752128302140e+02  9.9125245822935696e+01  9.7631633838093194e+01  9.8247002846956335e+01  1.0030122229998661e+02  1.0097973126126912e+02  9.7087462756197596e+01  9.9869730287623568e+01  8.6895223796044533e+01  8.7626358862940847e+01  9.8975584183779674e+01  9.8132360219709341e+01  8.7398499050281387e+01  6.8911718933728821e+01  7.4349320565380737e+01  4.0000000000000000e+01  4.0000000000000000e+01  5.1409859396483895e+01  9.3008297013170818e+01  8.5733994409339971e+01  9.1144938449868420e+01  6.5934797113059631e+01  6.4249982292891559e+01  9.6687741593011737e+01  4.0000000000000000e+01  4.0000000000000000e+01  4.0000000000000000e+01  9.4260429049354741e+01  8.9821480687725796e+01  7.9813857920789971e+01  9.8881639010270291e+01  8.6240160210665067e+01  8.8577335288933369e+01  5.9716307996675923e+01  9.7224425058811264e+01  9.7515825168498068e+01  9.9026387825188863e+01  9.9616468849503391e+01  9.9964169161818177e+01  9.9566480437812402e+01  9.7571938165670886e+01  4.0000000000000000e+01  9.3154217445480825e+01  9.3218802849816782e+01  5.9401989009660753e+01  5.0051106782481654e+01  6.8633626364199870e+01  9.8915716245987852e+01  9.9470686228515476e+01  9.9453645161197159e+01  9.9968156105246024e+01  9.8073055607337920e+01  8.7216652380065383e+01  6.4270115142316214e+01  4.0000000000000000e+01  9.5746035391421927e+01  9.3711285168174271e+01  9.3353269906677482e+01  9.8914613640662054e+01  1.0023985905961833e+02  9.5482054816517035e+01  9.5459055027520094e+01  8.8021972894038711e+01  8.2551690424488882e+01  9.2580670625932228e+01  8.0806579905994298e+01  6.0842581499764968e+01  5.8767131751908735e+01  4.0000000000000000e+01  4.0000000000000000e+01  9.7387637627325702e+01  9.8207850399535417e+01  9.7383621539966384e+01  9.2642082676351663e+01  4.0000000000000000e+01  4.0000000000000000e+01  4.0000000000000000e+01  6.3009957776153641e+01  8.4119982085322007e+01  8.9410998407236733e+01  8.5405249795094633e+01  9.8712443900491920e+01  9.9402598627011869e+01  8.5867390385591548e+01  8.7215684313859441e+01  9.8989282318889394e+01  9.9959717948252163e+01  9.9540851826856013e+01  9.8844375612129767e+01  1.0091267385438499e+02  1.0017886379510051e+02  1.0039517615126340e+02  1.0000897908135589e+02  9.9549643107328635e+01  1.0009482830662699e+02  1.0068876022918710e+02  1.0084213019891926e+02  9.8526904607490820e+01  1.0057995410120341e+02  9.9754563799911139e+01  9.9841426769678705e+01  9.8874975169020203e+01  9.9900725131442940e+01  1.0120640182250736e+02  9.8906919029010609e+01  9.7990137027754628e+01  4.0000000000000000e+01  9.1478875310336235e+01  4.0000000000000000e+01  7.4916642958537238e+01  9.2403989246080315e+01  9.3154397694689919e+01  9.2019936234734047e+01  9.8890272882735545e+01  4.0000000000000000e+01  4.0000000000000000e+01  4.0000000000000000e+01  4.0000000000000000e+01  9.2744698322490748e+01  9.0876545247875583e+01  9.6418308847866911e+01  9.6242388710175945e+01  9.8287394796462578e+01  1.0048429155573393e+02  1.0019956646164047e+02  9.0922622485165959e+01  9.2408887329047559e+01  8.0659296611009012e+01  8.3899464540035595e+01  7.7764402826251413e+01  8.3026812929126024e+01  9.9320266021088045e+01  1.0019203279034268e+02  9.9735104134225622e+01  1.0003097734357652e+02  1.0022274201837725e+02  1.0031056649281500e+02  9.1374143532575204e+01  7.4512612352777168e+01  9.4693966014537381e+01  9.5821564043571826e+01  9.2137217835021332e+01  9.1979404241477425e+01  9.1699111765226817e+01  1.0173161073283450e+02  8.7757725865811338e+01  4.0000000000000000e+01  8.7328859436463517e+01  9.0024427247570500e