<?xml version="1.0"?>
<VTKFile type="UnstructuredGrid"  version="0.1"  >
<UnstructuredGrid>
<Piece  NumberOfPoints="13928" NumberOfCells="64555">
<Points>
<DataArray  type="Float64"  NumberOfComponents="3"  format="ascii">20.34650993347168 2.869469881057739 39.89208984375  20.22572464786577 2.63098368295054 38.93707283358205  20.13792862888692 2.403170109336926 39.23913768059601  20.57009029388428 2.499106884002686 39.89208984375  20.79367065429688 2.128743886947632 39.89208984375  20.36150898929952 2.032807112281872 39.23913768059601  19.92934732430216 1.936870337616111 38.58618551744202  20.62224960327148 8.158947944641113 35.14516830444336  20.63963373731584 7.781760889502246 35.48287213012796  20.30331858228654 7.911688763113697 35.39359677002054  20.48504313062639 8.12604327818938 35.57703602478128  20.44052505493164 7.94459342956543 34.96172904968262  20.77684020996094 7.814665555953979 35.05100440979004  20.2588005065918 7.730238914489746 34.77828979492188  20.59511566162109 7.600311040878296 34.8675651550293  20.93143081665039 7.470383167266846 34.95684051513672  20.34783665798129 8.093138611737647 36.00890374511921  19.96224423433325 7.231346480918187 35.03208002957846  20.29923935915014 7.381374471259374 35.29225954923178  19.96292420412085 7.511302344870824 35.20298418912436  20.2581205368042 7.450283050537109 34.60738563537598  20.5944356918335 7.320355176925659 34.6966609954834  20.2574405670166 7.170327186584473 34.43648147583008  19.66704790164989 7.292365775251902 35.62767858332684  19.7015495300293 0.8767340183258057 37.12514877319336  19.44511175033357 1.121514611287614 37.8567809673234  19.40996731529749 0.7214969318952222 37.68445376757496  19.38616741905726 1.112071439310517 37.3640039384734  19.76049386130561 0.886177190302903 37.61792580204337  19.72534942626953 0.486159510910511 37.44559860229492  19.74914932250977 0.09558500349521637 37.76604843139648  19.78429375754585 0.4956026828876083 37.93837563114493  19.81943819258192 0.8956203622800003 38.11070283089337  19.07078530808521 1.347408860295228 37.60285910375343  20.12713050842285 4.774069786071777 33.29639053344727  19.86313191886107 4.729528954096676 33.75551784507096  20.12817478179932 4.374200344085693 33.46834945678711  20.38882541656494 4.70084285736084 33.7502555847168  20.65052032470703 4.627615928649902 34.20412063598633  19.86417619223754 4.329659512110592 33.92747676841081  20.12482682700316 4.656302025385738 34.20938289634049  20.38986968994141 4.300973415374756 33.92221450805664  20.12921905517578 3.974330902099609 33.64030838012695  19.59913332929929 4.684988122121573 34.21464515669466  20.10998804731152 6.296291504613277 35.07216427648358  20.59445882940026 5.946182585284098 34.99755346234127  20.26493135196626 5.559769088422801 34.98749811458559  20.2092859242505 5.594697854549352 35.53040894992385  20.30858380118949 4.893104204485426 35.98865362336411  20.69375670633924 5.244588935220172 35.45579813578154  20.36422922890524 4.858175438358876 35.44574278802585  20.41987465662099 4.823246672232324 34.9028319526876  20.749402134055 5.209660169093621 34.91288730044327  21.078929611489 5.596073665954918 34.92294264819895  17.69137954711914 3.336287021636963 38.57429122924805  18.54094795450632 3.199285061144062 38.6475962693964  18.22754758126649 2.801098163893874 38.6879619441505  18.33786777719919 3.379930050157734 38.28470221116886  17.89445972442627 3.155642032623291 38.93718528747559  18.0975399017334 2.974997043609619 39.30007934570312  18.43062775857361 2.620453174880202 39.05085600237804  18.98435600727925 3.423573078678505 37.99511319308969  18.87403581134654 2.844741192414645 38.39837292607132  18.76371561541383 2.265909306150786 38.80163265905296  20.00744227981559 7.692752193494774 35.81829116422303  20.40740966796875 5.462048053741455 33.80517959594727  20.47079899787199 5.051993593058128 34.3374738400405  20.75508931159269 5.369558080515404 34.31985947541647  20.34924366950285 5.469209655603905 34.13800332002096  20.52896499633789 5.044831991195679 34.0046501159668  20.81325531005859 5.362396478652954 33.98703575134277  21.21910095214844 5.262744903564453 34.16889190673828  20.93481063842773 4.945180416107178 34.1865062713623  20.29107767103694 5.476371257466354 34.47082704409466  19.00023078918457 1.440655946731567 39.89208984375  19.75809001922607 0.9571595191955566 39.55386924743652  19.46478905674337 1.688763142173839 39.23913768059601  19.19752025604248 1.032535970211029 39.55386924743652  19.56080055236816 1.365279495716095 39.89208984375  20.12137031555176 1.289903044700623 39.89208984375  19.66207852360128 1.280643165653301 38.90091708428253  20.02535881992696 1.613386691158367 39.23913768059601  19.39480972290039 0.6244159936904907 39.21564865112305  17.97591782501315 2.572758062623017 37.77841247616017  18.72399506438903 2.381758026174401 37.62299845986063  18.36981672021349 2.419333684386901 38.29002256760656  18.4801369161462 2.998165570650761 37.88676283462493  19.11789395958937 2.228333647938285 38.13460855130702  19.22821415552207 2.807165534202145 37.73134881832539  19.4720723037649 2.190757989725785 37.46758444356109  19.13633918762207 7.179174900054932 37.20611953735352  19.76362630900018 6.777443332878315 37.11820547074354  19.46365556481633 6.754541593986573 37.33891777541122  19.54247342316009 6.725122651077332 36.84885192868153  19.43630993180592 7.202076638946674 36.98540723268584  19.73628067598978 7.224978377838417 36.76469492801816  19.84244416734394 6.748024389969075 36.62813962401385  19.9486076586981 6.271070402099733 36.49158432000954  19.86978980035435 6.300489345008973 36.98165016673923  19.79097194201059 6.329908287918213 37.47171601346892  20.84836959838867 5.96611499786377 34.16732025146484  21.34156498732409 5.777774353195355 34.60100722803014  21.41165065765381 5.611109972000122 34.2239818572998  21.03373527526855 5.614429950714111 34.16810607910156  20.96364960493883 5.781094331909344 34.5451314498319  21.22628498077393 5.96279501914978 34.22319602966309  21.14901528181872 5.429409284759686 34.54591727746862  19.0280704498291 4.35694408416748 39.126708984375  19.20371442098631 3.841527808321131 39.10093137037434  19.48882218154102 4.227272987910679 39.15001393646823  19.24734497070312 4.166875600814819 39.5093994140625  19.46661949157715 3.976807117462158 39.89208984375  19.42298894186033 3.65145932496847 39.48362180006184  19.70809670241504 4.037204504558018 39.53270436615573  19.94957391325294 4.097601891653878 39.17331888856145  19.66446615269822 3.71185671206433 39.12423632246757  19.37935839214352 3.326111532474783 39.07515375637369  20.58002830512137 5.877466734470854 35.95352063953852  21.12010017013179 5.261692683773833 36.0414397577881  21.16666984558105 4.133924007415771 35.12585067749023  21.12279972853502 4.864998836685345 35.02439666284459  20.79327225110102 4.478585339824048 35.01434131508891  20.73762682338527 4.513514105950598 35.55725215042717  19.43305969238281 3.084095001220703 39.89208984375  19.0556192900659 2.9122547990209 39.48362180006184  19.09838765389832 2.675002153685744 39.34686125140148  19.40620904226316 3.205103266847743 39.48362180006184  19.08246994018555 2.79124653339386 39.89208984375  18.73188018798828 2.498398065567017 39.89208984375  18.74779790170106 2.382153685858901 39.34686125140148  19.07153700377867 2.796010419312784 38.93839320771332  18.97987937927246 6.228812217712402 37.42708969116211  19.38542566064152 6.279360252815308 37.44940285231552  19.3417797088623 6.286709547042847 37.81947898864746  19.26460456848145 6.537315607070923 37.58920478820801  19.54932975769043 6.845818996429443 37.75131988525391  19.67015084985051 6.587863642173828 37.61151794936141  19.524169921875 8.957921981811523 36.04988861083984  19.47085998812136 8.36717197909875 36.40305188889792  19.9359832627675 8.339808422537525 36.47229206726175  19.470880015282 8.55289385333581 35.96015599961569  19.52414989471436 8.772200107574463 36.49278450012207  19.93600328992814 8.525530296774585 36.02939617797952  19.52412986755371 8.586478233337402 36.9356803894043  19.88271338333515 8.120502168298872 35.93966356675537  19.41759010868901 8.147865724860097 35.87042338839154  20.54196929931641 1.058318018913269 37.40233993530273  20.35880956691627 1.158371506154906 38.2753288770524  20.18070374594917 0.9769691905966347 37.75652138309805  20.23565831180928 1.49759417826469 37.99426272637238  20.72007512028352 1.239720334471541 37.92114742925708  19.87439275844204 1.416245349948056 38.3484441741677  20.41376413277639 1.678996493822962 38.51307022032672  20.89818094125063 1.421122650029812 38.43995492321142  17.91526031494141 8.245700836181641 36.08958053588867  18.5897567957683 7.828407911594955 36.12682624551073  18.63211137950853 8.170676140125838 35.94228072854295  18.18891699016527 8.011696247395125 35.81471152993456  18.35845470428467 8.404680728912354 36.21714973449707  18.31610012054443 8.06241250038147 36.40169525146484  18.80164909362793 8.563660621643066 36.34471893310547  18.7592945098877 8.221392393112183 36.52926445007324  18.71693992614746 7.879124164581299 36.71380996704102  18.46257366538913 7.777691658608611 35.53984252398044  19.14915084838867 5.334949016571045 37.95563888549805  19.88204894781212 4.960713948826611 37.58428954252285  19.44602336718527 4.549030985802508 37.61701736850026  19.41391031250808 4.855762957562543 38.03096414897866  19.18126390306586 5.02821704481101 37.54169210501965  19.61728948369271 5.439900007835112 37.50896427904223  19.21337695774305 4.721485073050974 37.12774532454124  19.6494025383699 5.133168036075077 37.09501749856383  19.67866977662749 4.376576898554043 38.10628941245928  20.08542811899675 5.54485099909918 37.06228967258642  20.95927140818873 6.754304639247184 35.24395907138675  20.89145181285182 7.166106215861564 35.43761408542483  20.52070943198095 6.883337335940062 35.01450239581015  20.9992504119873 7.058581590652466 34.76318550109863  21.06707000732422 6.646780014038086 34.56953048706055  20.58852902731787 
[...]
<PointData  Vectors="u"> 
<DataArray  type="Float64"  Name="u"  NumberOfComponents="3" format="ascii">1.5588539884847211e+02 4.9432253075516563e+01 1.3805500483365234e+01  1.7002144814000559e+02 4.4545720802352925e+01 2.1037312563308962e+01  1.5676423954555932e+02 4.4758579014507269e+01 2.1513669008542600e+01  1.5921366249254430e+02 4.4747299164707371e+01 1.2676155415247711e+01  1.6454039157414039e+02 3.2238151773130163e+01 1.4599696921641197e+01  1.6591173289007531e+02 3.3334727409395924e+01 1.7922306915584002e+01  1.7939898731889048e+02 3.9092315250439050e+01 3.8575191225551947e+01  2.6042769175173709e+02 1.1260639816131777e+02 1.6991876330438319e+02  2.5000481860785723e+02 9.0024905269703027e+01 1.3668730133997528e+02  2.5198976849762852e+02 8.8343940411923285e+01 1.6047530908684769e+02  2.5940689845937726e+02 1.2389595620355730e+02 1.7635800080568862e+02  2.6242002146333954e+02 8.7671809197585091e+01 1.7837500884317447e+02  2.5599094455587797e+02 7.9309564997237345e+01 1.6111776951433256e+02  2.5966015675782830e+02 6.6918353855519129e+01 1.7403908067392882e+02  2.5271561933928422e+02 8.4722966792060930e+01 1.5276847142605902e+02  2.6347132243636338e+02 7.2423083435510407e+01 1.1880438134996864e+02  2.3383041862077133e+02 1.1989301077309135e+02 1.4425459726529874e+02  2.3613287597291017e+02 4.5466231757386595e+01 1.5899319567825603e+02  2.4803676189533985e+02 7.1373960508121542e+01 1.3790015121222527e+02  2.4781610545261790e+02 6.2011629403892989e+01 1.7291101891233194e+02  2.5733998684448534e+02 4.5821487667871963e+01 1.7666157171305187e+02  2.4895552579784808e+02 5.4352158140377433e+01 1.5175333386048396e+02  2.4121861692608852e+02 4.0606391516795412e+01 1.6193921640029106e+02  2.3243660767467421e+02 6.8081240428271911e+01 1.4166926709675059e+02  2.1452114689664145e+02 3.0886799672562404e+01 8.9530198378100877e+01  1.9450180557195378e+02 2.8417172842256971e+01 7.3729464311147723e+01  2.0761560043329541e+02 1.8305792552249997e+01 8.4426126697773199e+01  2.0471551465218153e+02 3.0507367625727944e+01 1.0176969949419393e+02  2.0939701363345671e+02 2.7676335220274392e+01 7.5507720394564970e+01  1.9994986400218713e+02 1.9515982520255072e+01 7.9441694012843286e+01  2.0009261918144642e+02 2.2126383281318869e+01 6.0046570265191725e+01  2.0381841010605035e+02 1.7447436157970341e+01 6.0363065345703525e+01  1.9874193866957339e+02 2.6915063028393458e+01 5.3786695999687581e+01  1.9296442998985219e+02 3.5063754457927615e+01 8.6169242363993519e+01  1.1794420323109310e+02 6.3439601953899555e+01 1.4186261658726627e+02  1.5672414484097263e+02 8.1199595969048161e+01 1.5268882686467447e+02  1.0401259723637666e+02 7.8141977263596488e+01 1.4908737934710553e+02  1.7307368561974590e+02 8.8555003202997952e+01 1.7044362072582157e+02  2.4852542363199197e+02 8.4604514335085241e+01 1.5629336633754056e+02  1.6384825689581876e+02 9.2181378854610045e+01 1.5515531503270284e+02  1.8786174088436317e+02 9.1618800763327698e+01 1.7123799959851786e+02  1.7703282535680631e+02 8.0188842766268309e+01 1.6471668577353481e+02  1.2571592623338957e+02 9.0127359669371060e+01 1.5209612264947117e+02  1.6800919789476933e+02 6.6258073843659190e+01 1.1791916155210973e+02  2.3180995453431404e+02 5.3481240848757295e+01 1.2365174469531371e+02  2.4955741856873186e+02 5.9201283912562424e+01 1.0258767443207657e+02  2.4069753649820572e+02 5.9442108447114485e+01 1.0033580748741291e+02  2.3794778568593114e+02 6.5389069753805359e+01 9.7593349854821341e+01  2.2278131207943451e+02 6.6894388192182177e+01 7.0015496585803390e+01  2.6239056459688891e+02 5.5169010252353999e+01 6.1191949305382359e+01  2.4223184881300563e+02 6.8435938825067581e+01 8.5955968876334737e+01  2.5603106695912476e+02 6.9409012733619690e+01 1.0765551397652879e+02  2.6362984752244222e+02 5.5961907009297896e+01 9.0767079221008629e+01  2.5765679264377337e+02 5.3731561079150204e+01 5.6149585555940625e+01  2.3484208432511716e+02 6.5621387739304069e+01 1.0668417042999457e+02  1.8346461334859558e+02 7.2357647481753190e+01 1.0033363063262313e+02  2.0738889433360819e+02 6.0637851061983717e+01 1.0090805035923240e+02  2.1077425688662791e+02 7.4786633399394603e+01 1.0260889556785908e+02  1.8953080843050290e+02 7.0395001883649968e+01 9.9895630550369617e+01  1.5992031968975047e+02 6.0153636682881597e+01 8.3600070709440544e+01  1.6101964695203492e+02 6.1745152173012777e+01 8.7281872587953160e+01  1.9500003197402575e+02 6.8351399151528000e+01 7.2258356273544308e+01  1.8812949556982207e+02 5.8212613975575472e+01 7.7084109002665812e+01  1.7700862565253107e+02 4.7559686139129866e+01 7.3864434197695516e+01  2.3881725040351083e+02 9.2935057881783649e+01 1.5195358813461030e+02  2.2384502543513551e+02 5.8293337173480261e+01 1.7532253042737594e+02  2.6848038708538786e+02 7.2796993665748673e+01 1.5733621044880638e+02  3.1475343570743496e+02 5.5882215156519997e+01 1.3174763205798618e+02  2.4869325657143736e+02 5.5292906129956386e+01 1.5947479349169245e+02  2.7885283815560257e+02 6.6261270705612603e+01 1.7372819444682574e+02  3.4127967596888413e+02 5.5189181091991486e+01 1.3569269077143883e+02  3.4286129086748957e+02 4.3295916752334875e+01 4.6725633546699896e+01  3.3849223165795439e+02 7.0335097364432357e+01 1.4261775202256803e+02  2.3592451017492095e+02 5.6597213195970497e+01 1.3753497575062397e+02  1.5235197228841426e+02 3.6895914088885441e+01 5.5377874775639370e+01  1.6893467683696633e+02 3.1897470243079312e+01 3.6642288009642684e+01  1.6312736844568022e+02 3.4161283623909114e+01 4.7525455465331106e+01  1.5056119434743391e+02 3.5519710339479815e+01 4.9428999913442190e+01  1.5251606535643592e+02 3.3388665360131711e+01 3.1468913882084738e+01  1.6456099579088144e+02 2.8494897161602296e+01 2.6120968104649968e+01  1.7571420117429443e+02 2.9464950246085081e+01 4.5880938553761027e+01  1.6508165457391519e+02 3.0966558356799073e+01 2.8772791807689870e+01  1.7173449236250127e+02 2.7827540091528768e+01 4.8737116884396173e+01  2.1771666577501136e+02 4.8711981218118716e+01 8.2072277541304572e+01  1.9529896900455722e+02 5.8172912376583305e+01 8.1140523281299537e+01  2.0341714033380629e+02 5.2126614691758981e+01 9.7069827456960695e+01  2.0542585964026603e+02 6.1780279760035022e+01 8.4499507292744298e+01  1.9192869262410110e+02 5.0670750329583271e+01 7.0291423089586843e+01  1.9864253013401137e+02 5.8542196048074842e+01 6.8594907500178181e+01  2.0082175696098125e+02 5.2262417998953424e+01 7.4307705643078208e+01  2.2657956015533802e+02 9.5605218375034497e+01 1.4084306072382526e+02  1.9745416054505381e+02 1.1250143356906817e+02 1.2838158750902781e+02  2.0469440896438036e+02 1.0489801476473667e+02 1.3547359085503226e+02  2.1340184736858032e+02 8.9420554135030841e+01 1.3243258903814939e+02  2.2640125699552542e+02 9.3679965697042903e+01 1.4109722313889799e+02  2.2159260379739609e+02 9.9629490882004262e+01 1.3782893331020912e+02  2.1251654674671965e+02 9.6585033545957572e+01 1.1971931495805529e+02  2.0714788252933741e+02 8.2933035699200573e+01 1.0255422910448644e+02  1.9060377315008037e+02 9.9997227109880399e+01 1.1189468409854689e+02  1.8520325025963299e+02 1.1007060504370719e+02 1.1471440336218264e+02  3.1464537173139223e+02 3.6806769502131715e+01 1.2284910188032552e+02  3.3531314198297167e+02 2.6238573197467769e+01 3.6878622388462283e+01  3.4092143542158851e+02 9.4798588413606453e+00 3.3271173924756283e+01  3.4126715594743905e+02 4.8507835661115635e+01 8.1217498086447463e+01  3.3006684653481096e+02 4.4733156721272870e+01 9.1880879792338419e+01  3.1771419802108130e+02 2.6762527640459577e+01 3.2672130514026087e+01  3.2691078875651334e+02 2.1839923115525281e+01 6.3006083897397922e+01  1.5613416557370184e+02 9.0575457166866485e+01 5.0800288320381718e+01  1.5107559624273895e+02 8.2827101847875525e+01 3.8769789173347704e+01  1.5785088585360543e+02 9.3880442575009397e+01 3.5806723497667548e+01  1.4809298035127222e+02 8.4622802578204286e+01 2.9583615774895254e+01  1.3828370956872726e+02 7.4466278579298688e+01 2.3928800909244142e+01  1.4460850799255198e+02 7.6594268888036126e+01 2.8231221247763099e+01  1.4309416848971640e+02 8.0141299308192103e+01 1.6171574286808681e+01  1.5250756856029122e+02 8.8132981726533174e+01 2.5716376046806506e+01  1.5315532093727643e+02 7.6115482447880851e+01 3.4833241504501167e+01  1.6010986517862409e+02 6.3350364323182994e+01 4.5578551965227120e+01  2.3493715215773099e+02 6.2167161734031161e+01 7.4778752889532456e+01  2.2541639483520149e+02 5.3849180921807587e+01 3.9158690642102989e+01  2.6904064407673530e+02 4.5524406771607730e+01 3.9187947199801748e+01  2.9107949857035646e+02 4.8026971717646809e+01 4.2765019856524582e+01  2.7977059420512307e+02 7.0984147278332870e+01 9.3605104733185414e+01  2.6041044659554035e+02 5.5992872896930969e+01 7.5805351660324433e+01  1.3641070510620168e+02 6.0316185071572036e+01 2.6872478481921416e+01  1.3364723860547230e+02 5.9767163986918177e+01 4.9666022954006436e+01  1.3837289257188570e+02 5.1817104425449322e+01 3.5380748813078505e+01  1.4704716457933236e+02 6.1849706058233522e+01 2.3893952674923913e+01  1.4047543963119455e+02 5.2556442127286253e+01 4.1109422907280639e+01  1.4295087537274009e+02 5.1659991655461468e+01 6.4861809577229479e+01  1.4688963755896907e+02 5.9306411411392752e+01 6.5030078347542201e+01  1.6139089187267322e+02 5.9341246499680992e+01 5.5054041551903197e+01  2.0221587678700931e+02 9.6408768962476103e+01 1.2212774490653202e+02  1.9718713794721103e+02 1.0286151757577966e+02 1.2680919091510506e+02  1.6983649727741212e+02 1.1899925693120049e+02 1.2947734071105063e+02  1.9603470899037939e+02 1.1917746764402921e+02 1.3351960188572869e+02  1.7472153955895607e+02 1.3080639051876597e+02 1.3872793574416960e+02  1.7799721344858833e+02 1.1508701462262071e+02 1.3629240591558860e+02  2.9395152634574873e+02 1.4089696373601942e+02 2.0782111307023285e+02  2.8559493464069021e+02 1.1421911421799491e+02 1.8504480599728626e+02  2.4221171740774633e+02 1.5851216621879556e+02 1.7582719472789100e+02  2.8958973370883797e+02 1.0718189915797161e+02 1.9721667766966843e+02  2.6864104492093230e+02 1.8195434939100278e+02 1.8425856497083981e+02  2.7368997272073574e+02 1.5778011320191266e+02 1.9164026961500920e+02  2.2071170378374470e+02 1.8774477333519826e+02 1.7382200585905971e+02  2.6122456241141077e+02 1.1372529232118497e+02 1.7050454296108512e+02  2.5954568049784285e+02 8.2006542399715855e+01 1.7453168126517230e+02  2.1769384658663998e+02 2.3914704004929334e+01 3.4082812643858105e+01  1.9714089172034045e+02 2.6394631390073272e+01 3.4333498146653525e+01  2.1208559909013300e+02 2.8276016788000017e+01 5.1460164873544478e+01  2.0737183999470153e+02 3.3682157967577808e+01 4.0750367220850123e+01  2.1026043099262833e+02 2.7769299267929068e+01 1.9627775532691661e+01  1.9234052456035917e+02 3.2959760200220693e+01 4.7745666804416565e+01  1.8609071274083178e+02 3.3454363459907711e+01 2.3268691289511221e+01  1.8739171596638440e+02 2.4745393618550921e+01 1.1701702218338811e+01  2.3597800842563012e+02 2.1205292217227754e+01 1.3302364496065789e+02  2.5511635967384746e+02 4.6884522621196005e+01 1.5299737349217608e+02  2.5612481312124339e+02 3.4013700774375387e+01 1.5762913276321524e+02  2.3760035161969057e+02 2.2086551571366385e+01 1.3107908199120988e+02  2.6059896645499367e+02 2.7954860657826327e+01 1.5355327563926167e+02  2.5593642120366019e+02 4.7283764359524561e+01 1.4610671797318994e+02  2.9052397865856420e+02 6.3698175588376181e+01 1.7675315994410016e+02  2.7462495048537488e+02 8.4726377230904603e+01 1.6746519207248332e+02  2.5618775950683630e+02 7.9110411935978036e+01 1.5743424796276051e+02  2.2441786407296479e+02 3.2576663138203784e+01 1.3586032938393987e+02  1.7712471160807792e+02 1.0695504598962155e+02 9.4371666501393705e+01  1.7915324940135940e+02 9.5453946223395263e+01 7.5256373476599137e+01  1.8768690468669843e+02 9.1952914640131425e+01 7.9698763523523922e+01  1.7598026488545446e+02 1.0510242274127485e+02 7.6714911261957923e+01  1.9523875302173255e+02 1.0091070921496944e+02 9.3197094693280121e+01  1.8110961488266318e+02 1.0558863368866029e+02 9.6444112711147596e+01  2.0224943443746014e+02 8.2012469920998527e+01 8.5606212607445457e+01  1.9788893828379227e+02 8.6990699876298066e+01 8.8000276012882154e+01  1.7551013724387775e+02 9.0328158645695396e+01 5.7543936509344810e+01  1.9020651029017296e+02 8.3985262477091197e+01 7.5719701355155792e+01  2.6095569583032756e+02 6.2837766298291214e+01 1.0762882865375286e+02  2.4868502035578467e+02 6.9722368690804501e+01 1.2678786099467017e+02  2.5523739956040654e+02 6.1266420911170769e+01 1.3152498088629753e+02  2.6919959317465947e+02 6.0242174799354558e+01 1.1394910647853609e+02  2.7111096853521008e+02 4.8134251012234948e+01 1.0730158006646934e+02  2.5747655803766054e+02 4.9595148949778519e+01 1.3361913183580580e+02  2.3773770272027221e+02 6.9624653347908648e+01 1.1114730809206735e+02  2.2006090954856825e+02 8.4037102073743199e+01 8.6983031633409283e+01  2.2654382466820508e+02 5.9539159908538537e+01 1.2141427752126177e+02  1.9578247785725870e+02 4.9635695923182304e+01 1.1681528989871350e+02  2.3938565128122482e+02 5.3313692803253083e+01 1.3127503279319120e+02  2.1815457403401979e+02 5.7740599154312470e+01 1.1296596014110587e+02  2.1101771955694352e+02 4.2337892477027793e+01 1.4367541945322137e+02  1.5410239516784969e+02 3.2536558071645295e+01 1.1852045592255571e+02  2.0241379006023996e+02 4.9108203686425014e+01 1.4345133377562590e+02  2.0457642991835891e+02 6.1896077958850896e+01 1.0282301150207169e+02  2.0533018086769951e+02 6.4938280028005849e+01 8.1592913460746757e+01  2.0189402209884136e+02 6.5418287084657990e+01 8.0780669936499478e+01  2.0251893154322127e+02 6.6129336236479915e+01 7.1758589528824189e+01  2.1094868576317563e+02 7.0753470151797885e+01 7.6004578514345440e+01  1.9845600020419934e+02 7.5406636397937177e+01 9.5424763946283576e+01  1.9906977351584811e+02 5.9919606079453899e+01 8.9274712836275825e+01  1.8749090519487854e+02 6.1435499754052948e+01 7.7938017444868791e+01  1.4730523596178932e+02 4.2901313078621143e+01 6.2386594066265964e+01  1.5504833039688000e+02 4.4331661131257306e+01 4.3243456645853939e+01  1.4088260429001591e+02 3.7650415422164734e+01 4.2941908757528218e+01  1.3926652881110687e+02 5.5066863612591277e+01 3.4257873054509112e+01  1.5237895575899805e+02 4.0550471827442884e+01 2.7604528942160591e+01  1.5409740912353115e+02 3.2283036107612098e+01 3.6080064400628835e+01  1.5904064894089322e+02 1.1509539573458633e+02 6.3277797238177833e+01  1.7035397411411353e+02 1.0368784731478631e+02 7.1090522171530964e+01  1.6281088106168045e+02 1.1003856404150791e+02 6.1526335779208118e+01  1.6485406977968171e+02 1.0476720030034242e+02 6.7742385588428533e+01  1.7878959622448915e+02 1.1214814066367869e+02 8.1820787651365563e+01  1.8312909833250413e+02 9.6820674905372513e+01 7.9335958127893946e+01  2.2432201101729896e+02 7.8533549844516841e+01 9.4063544406629177e+01  2.0875766566693019e+02 7.5430226533489190e+01 9.3181613770787564e+01  2.3751305784067426e+02 6.8342330665044557e+01 8.6152492461567405e+01  2.2344451287902723e+02 7.4463177565544626e+01 1.0273436339218318e+02  2.2707715039006331e+02 5.9790673395191781e+01 9.6670554385958297e+01  1.4061373442894993e+02 6.5707685250133636e+01 5.2220060344026358e+01  1.3110653968002194e+02 7.1095730061560275e+01 3.8658024368223252e+01  1.4158171118869373e+02 6.6773312834887378e+01 4.3695201328952997e+01  1.2062414124924109e+02 6.5909382722476977e+01 4.5500601413726002e+01  2.1044607135668801e+02 6.8128233620871043e+01 1.0261538251146673e+02  1.8459989654684634e+02 8.1441202683077606e+01 1.0082220760289299e+02  2.0887607733425349e+02 6.1792151550536289e+01 8.9619353607702735e+01  2.3410923930861924e+02 7.3852631901061628e+01 9.6444212398514949e+01  2.2657088033065284e+02 5.0662604965852847e+00 1.5025624827335264e+02  2.9262706880576889e+02 5.4918598798545865e+01 1.9016468305019566e+02  2.7282627833105005e+02 3.9745571021953054e+01 1.8175664111860226e+02  2.7052927358705671e+02 1.8418138145672614e+01 1.9376184564499275e+02  2.7907539239257937e+02 2.4238238345692263e+01 1.6399762450565149e+02  2.8917241651613864e+02 7.9343411521038163e+01 1.8456179107638218e+02  2.8550422917204457e+02 5.0614501405832584e+01 2.0837443730423115e+02  2.9299321482965337e+02 6.4099963589180618e+01 2.0520823424645960e+02  2.8196522070300142e+02 1.4495350564954492e+02 1.9754478047673706e+02  2.4279089340966939e+02 1.4792319594564648e+02 1.5515209414438044e+02  2.6184812154429051e+02 1.3242167120062456e+02 1.8017123747892998e+02  2.4759259876337268e+02 1.9263346101454641e+02 1.7670339275730947e+02  2.5997474313177526e+02 4.7533690535752406e+01 2.0225152000700240e+02  2.5774021914799454e+02 8.5384842840392750e+01 1.7394711734440375e+02  2.7583826932485266e+02 6.9233761920903021e+01 2.0265512413439069e+02  2.5426212897497041e+02 4.9377130743164017e+01 1.8808881204987685e+02  2.5851333307810256e+02 7.0273701951683634e+01 1.9583709695391178e+02  2.5107530127851757e+02 7.2408552699046368e+01 1.5967374444548724e+02  2.2851150345894203e+02 3.7682747558504197e+01 1.6969631801587607e+02  2.1998846995340583e+02 3.5059033054913513e+01 1.5754753881167738e+02  1.9083307350416018e+02 3.6520759336253079e+01 1.1734903497348569e+02  2.0165939144576450e+02 2.4964168644024507e+01 1.4692552911694645e+02  2.1775967436089510e+02 4.4252335430430037e+01 1.3848948406663015e+02  2.2676707957219298e+02 4.6703879714239257e+01 1.5729169845403044e+02  2.1639819970650291e+02 2.2167446331510337e+01 1.5979371801400868e+02  2.0002712251639019e+02 6.9020008188142498e+01 1.6316332255422836e+02  1.6598001599777530e+02 4.9334471379655902e+01 1.8546667096760746e+02  1.7737460054717650e+02 1.8790554145028015e+01 7.3613540823877869e+01  1.7706054049146900e+02 2.0785924643160968e+01 6.1274886088718318e+01  1.8411655828613212e+02 1.6629764642051946e+01 7.3455950472392146e+01  1.7367077863222588e+02 2.0804780260088670e+01 7.0264443762469327e+01  1.7836052713777499e+02 1.6672227883445114e+01 6.1682153388660261e+01  1.8619414481925475e+02 1.6142065213939926e+01 7.1585146347414465e+01  1.7602582444791952e+02 9.9096452773861810e+00 8.0512061585827738e+01  1.8492280468050927e+02 1.5359330529839312e+01 8.9550230843455466e+01  1.8264981832769166e+02 2.0284337007346899e+01 6.0738009660330846e+01  1.8061557837001126e+02 3.0010954522918670e+01 7.1791732579736390e+01  2.0732367304943790e+02 2.8111485208041397e+01 1.6206138301898744e+02  2.8229401342945198e+02 3.4302922546980575e+01 1.3090062145184137e+02  2.4746328546679661e+02 3.1616484906836334e+01 1.5494477914702878e+02  2.5671812102142309e+02 3.2129024449900491e+01 1.4402796279138281e+02  2.5957027963637870e+02 4.1011726629592935e+01 1.6805291131399929e+02  2.9257486412430995e+02 3.9216751662183171e+01 1.2465435186404962e+02  1.7539549001112474e+02 4.0874476723443237e+01 8.7741043190713711e+01  1.6559491289913962e+02 3.6452596382094264e+01 7.0981099949964090e+01  1.6059720720307237e+02 3.9878413808732383e+01 6.5386030595111492e+01  1.7590389877716274e+02 3.0554647302665199e+01 8.8252317998407577e+01  1.8006785562981327e+02 2.8450721179388047e+01 8.5608477520782472e+01  1.5403978359884553e+02 4.2072208470879580e+01 6.0141680539532700e+01  1.7308235818344110e+02 3.0745940200996120e+01 8.4067270894735216e+01  1.7141330639184986e+02 2.7260108217801058e+01 8.1699713670108721e+01  1.6593805478722075e+02 4.3123966009202974e+01 3.2174654277399789e+01  1.5923078612406934e+02 3.4618262393645722e+01 2.3612144236479580e+01  2.1303016858549518e+02 1.4141669555930797e+01 1.8121209509353420e+02  2.4797603951487292e+02 4.1685148713039801e+01 1.9458935327392251e+02  2.1191765083864732e+02 1.4760829690192727e+01 1.8193276222099090e+02  2.3996152105229828e+02 4.4611881618528656e+01 1.8290696134623559e+02  2.4974081973317647e+02 3.2215544243912106e+01 1.8665677622976210e+02  2.2723784840763764e+02 4.3042230192684357e+01 7.8230765931987847e+01  2.0897767168508420e+02 4.0895495808938854e+01 7.5909147671765581e+01  2.2654984445099501e+02 4.5405152586963275e+01 8.3799583290337566e+01  2.1106616133762654e+02 3.9569318470187937e+01 9.2219525119530914e+01  2.1724328277123527