<?xml version="1.0"?>
<VTKFile type="UnstructuredGrid"  version="0.1"  >
<UnstructuredGrid>
<Piece  NumberOfPoints="10313" NumberOfCells="53486">
<Points>
<DataArray  type="Float64"  NumberOfComponents="3"  format="ascii">9.090909090909092 1.515151515151515 0  10.60606060606061 1.515151515151515 0  10.60606060606061 3.03030303030303 0  10.60606060606061 3.03030303030303 1.515151515151515  9.090909090909092 3.03030303030303 0  9.090909090909092 1.515151515151515 1.515151515151515  9.090909090909092 3.03030303030303 1.515151515151515  12.12121212121212 1.515151515151515 0  12.12121212121212 3.03030303030303 0  12.12121212121212 3.03030303030303 1.515151515151515  13.63636363636364 3.03030303030303 0  13.63636363636364 3.03030303030303 1.515151515151515  10.60606060606061 4.545454545454546 0  10.60606060606061 4.545454545454546 1.515151515151515  9.090909090909092 4.545454545454546 0  9.090909090909092 4.545454545454546 1.515151515151515  12.12121212121212 4.545454545454546 0  12.12121212121212 4.545454545454546 1.515151515151515  13.63636363636364 4.545454545454546 0  13.63636363636364 4.545454545454546 1.515151515151515  15.15151515151515 3.03030303030303 0  15.15151515151515 4.545454545454546 0  15.15151515151515 4.545454545454546 1.515151515151515  15.15151515151515 3.03030303030303 1.515151515151515  16.66666666666667 4.545454545454546 0  16.66666666666667 4.545454545454546 1.515151515151515  10.60606060606061 6.060606060606061 0  10.60606060606061 6.060606060606061 1.515151515151515  9.090909090909092 6.060606060606061 0  9.090909090909092 6.060606060606061 1.515151515151515  12.12121212121212 6.060606060606061 0  12.12121212121212 6.060606060606061 1.515151515151515  13.63636363636364 6.060606060606061 0  13.63636363636364 6.060606060606061 1.515151515151515  15.15151515151515 6.060606060606061 0  15.15151515151515 6.060606060606061 1.515151515151515  16.66666666666667 6.060606060606061 0  16.66666666666667 6.060606060606061 1.515151515151515  18.18181818181818 6.060606060606061 0  18.18181818181818 6.060606060606061 1.515151515151515  10.60606060606061 7.575757575757576 0  10.60606060606061 7.575757575757576 1.515151515151515  9.090909090909092 7.575757575757576 0  9.090909090909092 7.575757575757576 1.515151515151515  12.12121212121212 7.575757575757576 0  12.12121212121212 7.575757575757576 1.515151515151515  13.63636363636364 7.575757575757576 0  13.63636363636364 7.575757575757576 1.515151515151515  15.15151515151515 7.575757575757576 0  15.15151515151515 7.575757575757576 1.515151515151515  16.66666666666667 7.575757575757576 0  16.66666666666667 7.575757575757576 1.515151515151515  18.18181818181818 7.575757575757576 0  18.18181818181818 7.575757575757576 1.515151515151515  19.6969696969697 6.060606060606061 0  19.6969696969697 7.575757575757576 0  19.6969696969697 7.575757575757576 1.515151515151515  21.21212121212121 7.575757575757576 0  21.21212121212121 7.575757575757576 1.515151515151515  10.60606060606061 9.090909090909092 0  10.60606060606061 9.090909090909092 1.515151515151515  9.090909090909092 9.090909090909092 0  9.090909090909092 9.090909090909092 1.515151515151515  12.12121212121212 9.090909090909092 0  12.12121212121212 9.090909090909092 1.515151515151515  13.63636363636364 9.090909090909092 0  13.63636363636364 9.090909090909092 1.515151515151515  15.15151515151515 9.090909090909092 0  15.15151515151515 9.090909090909092 1.515151515151515  16.66666666666667 9.090909090909092 0  16.66666666666667 9.090909090909092 1.515151515151515  18.18181818181818 9.090909090909092 0  18.18181818181818 9.090909090909092 1.515151515151515  19.6969696969697 9.090909090909092 0  19.6969696969697 9.090909090909092 1.515151515151515  21.21212121212121 9.090909090909092 0  21.21212121212121 9.090909090909092 1.515151515151515  22.72727272727273 7.575757575757576 0  22.72727272727273 9.090909090909092 0  22.72727272727273 9.090909090909092 1.515151515151515  22.72727272727273 7.575757575757576 1.515151515151515  24.24242424242424 7.575757575757576 0  24.24242424242424 9.090909090909092 0  24.24242424242424 9.090909090909092 1.515151515151515  25.75757575757576 9.090909090909092 0  25.75757575757576 9.090909090909092 1.515151515151515  10.60606060606061 10.60606060606061 0  10.60606060606061 10.60606060606061 1.515151515151515  9.090909090909092 10.60606060606061 0  9.090909090909092 10.60606060606061 1.515151515151515  12.12121212121212 10.60606060606061 0  12.12121212121212 10.60606060606061 1.515151515151515  13.63636363636364 10.60606060606061 0  13.63636363636364 10.60606060606061 1.515151515151515  15.15151515151515 10.60606060606061 0  15.15151515151515 10.60606060606061 1.515151515151515  16.66666666666667 10.60606060606061 0  16.66666666666667 10.60606060606061 1.515151515151515  18.18181818181818 10.60606060606061 0  18.18181818181818 10.60606060606061 1.515151515151515  19.6969696969697 10.60606060606061 0  19.6969696969697 10.60606060606061 1.515151515151515  21.21212121212121 10.60606060606061 0  21.21212121212121 10.60606060606061 1.515151515151515  22.72727272727273 10.60606060606061 0  22.72727272727273 10.60606060606061 1.515151515151515  24.24242424242424 10.60606060606061 0  24.24242424242424 10.60606060606061 1.515151515151515  25.75757575757576 10.60606060606061 0  25.75757575757576 10.60606060606061 1.515151515151515  27.27272727272727 9.090909090909092 0  27.27272727272727 10.60606060606061 0  27.27272727272727 10.60606060606061 1.515151515151515  28.78787878787879 10.60606060606061 0  28.78787878787879 10.60606060606061 1.515151515151515  10.60606060606061 12.12121212121212 0  10.60606060606061 12.12121212121212 1.515151515151515  9.090909090909092 12.12121212121212 0  9.090909090909092 12.12121212121212 1.515151515151515  12.12121212121212 12.12121212121212 0  12.12121212121212 12.12121212121212 1.515151515151515  13.63636363636364 12.12121212121212 0  13.63636363636364 12.12121212121212 1.515151515151515  15.15151515151515 12.12121212121212 0  15.15151515151515 12.12121212121212 1.515151515151515  16.66666666666667 12.12121212121212 0  16.66666666666667 12.12121212121212 1.515151515151515  18.18181818181818 12.12121212121212 0  18.18181818181818 12.12121212121212 1.515151515151515  19.6969696969697 12.12121212121212 0  19.6969696969697 12.12121212121212 1.515151515151515  21.21212121212121 12.12121212121212 0  21.21212121212121 12.12121212121212 1.515151515151515  22.72727272727273 12.12121212121212 0  22.72727272727273 12.12121212121212 1.515151515151515  24.24242424242424 12.12121212121212 0  24.24242424242424 12.12121212121212 1.515151515151515  25.75757575757576 12.12121212121212 0  25.75757575757576 12.12121212121212 1.515151515151515  27.27272727272727 12.12121212121212 0  27.27272727272727 12.12121212121212 1.515151515151515  28.78787878787879 12.12121212121212 0  28.78787878787879 12.12121212121212 1.515151515151515  30.3030303030303 10.60606060606061 0  30.3030303030303 12.12121212121212 0  30.3030303030303 12.12121212121212 1.515151515151515  31.81818181818182 12.12121212121212 0  31.81818181818182 12.12121212121212 1.515151515151515  10.60606060606061 13.63636363636364 0  10.60606060606061 13.63636363636364 1.515151515151515  9.090909090909092 13.63636363636364 0  9.090909090909092 13.63636363636364 1.515151515151515  12.12121212121212 13.63636363636364 0  12.12121212121212 13.63636363636364 1.515151515151515  13.63636363636364 13.63636363636364 0  13.63636363636364 13.63636363636364 1.515151515151515  15.15151515151515 13.63636363636364 0  15.15151515151515 13.63636363636364 1.515151515151515  16.66666666666667 13.63636363636364 0  16.66666666666667 13.63636363636364 1.515151515151515  18.18181818181818 13.63636363636364 0  18.18181818181818 13.63636363636364 1.515151515151515  19.6969696969697 13.63636363636364 0  19.6969696969697 13.63636363636364 1.515151515151515  21.21212121212121 13.63636363636364 0  21.21212121212121 13.63636363636364 1.515151515151515  22.72727272727273 13.63636363636364 0  22.72727272727273 13.63636363636364 1.515151515151515  24.24242424242424 13.63636363636364 0  24.24242424242424 13.63636363636364 1.515151515151515  25.75757575757576 13.63636363636364 0  25.75757575757576 13.63636363636364 1.515151515151515  27.27272727272727 13.63636363636364 0  27.27272727272727 13.63636363636364 1.515151515151515  28.78787878787879 13.63636363636364 0  28.78787878787879 13.63636363636364 1.515151515151515  30.3030303030303 13.63636363636364 0  30.3030303030303 13.63636363636364 1.515151515151515  31.81818181818182 13.63636363636364 0  31.81818181818182 13.63636363636364 1.515151515151515  33.33333333333334 12.12121212121212 0  33.33333333333334 13.63636363636364 0  33.33333333333334 13.63636363636364 1.515151515151515  34.84848484848485 12.12121212121212 0  34.84848484848485 13.63636363636364 0  34.84848484848485 13.63636363636364 1.515151515151515  36.36363636363637 13.63636363636364 0  36.36363636363637 13.63636363636364 1.515151515151515  10.60606060606061 15.15151515151515 0  10.60606060606061 15.15151515151515 1.515151515151515  9.090909090909092 15.15151515151515 0  9.090909090909092 15.15151515151515 1.515151515151515  12.12121212121212 15.15151515151515 0  12.12121212121212 15.15151515151515 1.515151515151515  13.63636363636364 15.15151515151515 0  13.63636363636364 15.15151515151515 1.515151515151515  15.15151515151515 15.15151515151515 0  15.15151515151515 15.15151515151515 1.515151515151515  16.66666666666667 15.15151515151515 0  16.66666666666667 15.15151515151515 1.515151515151515  18.18181818181818 15.15151515151515 0  18.18181818181818 15.15151515151515 1.515151515151515  19.6969696969697 15.15151515151515 0  19.6969696969697 15.15151515151515 1.515151515151515  21.21212121212121 15.15151515151515 0  21.21212121212121 15.15151515151515 1.515151515151515  22.72727272727273 15.15151515151515 0  22.72727272727273 15.15151515151515 1.515151515151515  24.24242424242424 15.15151515151515 0  24.24242424242424 15.15151515151515 1.515151515151515  
[...]
<PointData  Scalars="p"> 
<DataArray  type="Float64"  Name="p"  format="ascii">9.6363636362475624e+00  9.5757575756429780e+00  9.5757575756429105e+00  9.5757575756428199e+00  9.6363636362474807e+00  9.6363636362474914e+00  9.6363636362474026e+00  9.5151515150386281e+00  9.5151515150385411e+00  9.5151515150384771e+00  9.4545454544344238e+00  9.4545454544343652e+00  9.5757575756428146e+00  9.5757575756427382e+00  9.6363636362474061e+00  9.6363636362473120e+00  9.5151515150384700e+00  9.5151515150384007e+00  9.4545454544343421e+00  9.4545454544342782e+00  9.3939393938305287e+00  9.3939393938304470e+00  9.3939393938303777e+00  9.3939393938304594e+00  9.3333333332267792e+00  9.3333333332267170e+00  9.5757575756427276e+00  9.5757575756426547e+00  9.6363636362473191e+00  9.6363636362472374e+00  9.5151515150383812e+00  9.5151515150383172e+00  9.4545454544342586e+00  9.4545454544341965e+00  9.3939393938303670e+00  9.3939393938302977e+00  9.3333333332267081e+00  9.3333333332266442e+00  9.2727272726232801e+00  9.2727272726232126e+00  9.5757575756426618e+00  9.5757575756425926e+00  9.6363636362472338e+00  9.6363636362471699e+00  9.5151515150383048e+00  9.5151515150382551e+00  9.4545454544341929e+00  9.4545454544341574e+00  9.3939393938303049e+00  9.3939393938302480e+00  9.3333333332266530e+00  9.3333333332265891e+00  9.2727272726232197e+00  9.2727272726231522e+00  9.2121212120200830e+00  9.2121212120200138e+00  9.2121212120199516e+00  9.1515151514170370e+00  9.1515151514169837e+00  9.5757575756425801e+00  9.5757575756425197e+00  9.6363636362471627e+00  9.6363636362470952e+00  9.5151515150382391e+00  9.5151515150381716e+00  9.4545454544341236e+00  9.4545454544340668e+00  9.3939393938302320e+00  9.3939393938301734e+00  9.3333333332265820e+00  9.3333333332265180e+00  9.2727272726231522e+00  9.2727272726230918e+00  9.2121212120199587e+00  9.2121212120198877e+00  9.1515151514169695e+00  9.1515151514169126e+00  9.0909090908142698e+00  9.0909090908142183e+00  9.0909090908141437e+00  9.0909090908142041e+00  9.0303030302117318e+00  9.0303030302116643e+00  9.0303030302116039e+00  8.9696969696093412e+00  8.9696969696092719e+00  9.5757575756425091e+00  9.5757575756424451e+00  9.6363636362470899e+00  9.6363636362470206e+00  9.5151515150381698e+00  9.5151515150381076e+00  9.4545454544340579e+00  9.4545454544340028e+00  9.3939393938301787e+00  9.3939393938301166e+00  9.3333333332265198e+00  9.3333333332264541e+00  9.2727272726230918e+00  9.2727272726230332e+00  9.2121212120198930e+00  9.2121212120198273e+00  9.1515151514169215e+00  9.1515151514168576e+00  9.0909090908141597e+00  9.0909090908141064e+00  9.0303030302116181e+00  9.0303030302115577e+00  8.9696969696092950e+00  8.9696969696092310e+00  8.9090909090072277e+00  8.9090909090071726e+00  8.9090909090071122e+00  8.8484848484052616e+00  8.8484848484051977e+00  9.5757575756424522e+00  9.5757575756423883e+00  9.6363636362470260e+00  9.6363636362469514e+00  9.5151515150381094e+00  9.5151515150380455e+00  9.4545454544339922e+00  9.4545454544339336e+00  9.3939393938301130e+00  9.3939393938300597e+00  9.3333333332264630e+00  9.3333333332264061e+00  9.2727272726230385e+00  9.2727272726229639e+00  9.2121212120198415e+00  9.2121212120197669e+00  9.1515151514168593e+00  9.1515151514168043e+00  9.0909090908140975e+00  9.0909090908140424e+00  9.0303030302115594e+00  9.0303030302114973e+00  8.9696969696092346e+00  8.9696969696091795e+00  8.9090909090071104e+00  8.9090909090070625e+00  8.8484848484052048e+00  8.8484848484051604e+00  8.7878787878035780e+00  8.7878787878035212e+00  8.7878787878034643e+00  8.7272727272020596e+00  8.7272727272019957e+00  9.5757575756423865e+00  9.5757575756423261e+00  9.6363636362469531e+00  9.6363636362468963e+00  9.5151515150380348e+00  9.5151515150379691e+00  9.4545454544339247e+00  9.4545454544338643e+00  9.3939393938300420e+00  9.3939393938300064e+00  9.3333333332263972e+00  9.3333333332263440e+00  9.2727272726229764e+00  9.2727272726229089e+00  9.2121212120197740e+00  9.2121212120197153e+00  9.1515151514167883e+00  9.1515151514167421e+00  9.0909090908140318e+00  9.0909090908139891e+00  9.0303030302114902e+00  9.0303030302114333e+00  8.9696969696091760e+00  8.9696969696091209e+00  8.9090909090070518e+00  8.9090909090070092e+00  8.8484848484051533e+00  8.8484848484051017e+00  8.7878787878034803e+00  8.7878787878034164e+00  8.7272727272020170e+00  8.7272727272019601e+00  8.6666666666007899e+00  8.6666666666007508e+00  8.6666666666006904e+00  8.6060606059997493e+00  8.6060606059997031e+00  8.6060606059996445e+00  8.5454545453988615e+00  8.5454545453988047e+00  9.5757575756423154e+00  9.5757575756422515e+00  9.6363636362468768e+00  9.6363636362468075e+00  9.5151515150379637e+00  9.5151515150379016e+00  9.4545454544338536e+00  9.4545454544337915e+00  9.3939393938299869e+00  9.3939393938299194e+00  9.3333333332263404e+00  9.3333333332262782e+00  9.2727272726229124e+00  9.2727272726228396e+00  9.2121212120197118e+00  9.2121212120196407e+00  9.1515151514167261e+00  9.1515151514166728e+00  9.0909090908139678e+00  9.0909090908139181e+00  9.0303030302114298e+00  9.0303030302113854e+00  8.9696969696091120e+00  8.9696969696090587e+00  8.9090909090070056e+00  8.9090909090069506e+00  8.8484848484051053e+00  8.8484848484050556e+00  8.7878787878034288e+00  8.7878787878033648e+00  8.7272727272019619e+00  8.7272727272019104e+00  8.6666666666007188e+00  8.6666666666006567e+00  8.6060606059996623e+00  8.6060606059996143e+00  8.5454545453988242e+00  8.5454545453987532e+00  8.4848484847982260e+00  8.4848484847981851e+00  8.4848484847981300e+00  8.4242424241977396e+00  8.4242424241976934e+00  9.5757575756422177e+00  9.5757575756421591e+00  9.5151515150378856e+00  9.5151515150378341e+00  9.4545454544337773e+00  9.4545454544337240e+00  9.3939393938299034e+00  9.3939393938298554e+00  9.3333333332262658e+00  9.3333333332262036e+00  9.2727272726228449e+00  9.2727272726227774e+00  9.2121212120196549e+00  9.2121212120195715e+00  9.1515151514166568e+00  9.1515151514166089e+00  9.0909090908139039e+00  9.0909090908138506e+00  9.0303030302113676e+00  9.0303030302113143e+00  8.9696969696090445e+00  8.9696969696089965e+00  8.9090909090069452e+00  8.9090909090068919e+00  8.8484848484050520e+00  8.8484848484049969e+00  8.7878787878033915e+00  8.7878787878033204e+00  8.7272727272019228e+00  8.7272727272018695e+00  8.6666666666006726e+00  8.6666666666006140e+00  8.6060606059996232e+00  8.6060606059995735e+00  8.5454545453987851e+00  8.5454545453987230e+00  8.4848484847981496e+00  8.4848484847980838e+00  8.4242424241977076e+00  8.4242424241976597e+00  8.3636363635975055e+00  8.3636363635974771e+00  8.3636363635974327e+00  8.3636363635974611e+00  8.3030303029974348e+00  8.3030303029973851e+00  9.5151515150378181e+00  9.5151515150377488e+00  9.5757575756421502e+00  9.5757575756420863e+00  9.4545454544337204e+00  9.4545454544336494e+00  9.3939393938298359e+00  9.3939393938297755e+00  9.3333333332262001e+00  9.3333333332261166e+00  9.2727272726227792e+00  9.2727272726227152e+00  9.2121212120195821e+00  9.2121212120195128e+00  9.1515151514166089e+00  9.1515151514165503e+00  9.0909090908138541e+00  9.0909090908137777e+00  9.0303030302113196e+00  9.0303030302112504e+00  8.9696969696089859e+00  8.9696969696089219e+00  8.9090909090068919e+00  8.9090909090068227e+00  8.8484848484049987e+00  8.8484848484049401e+00  8.7878787878033453e+00  8.7878787878032796e+00  8.7272727272018908e+00  8.7272727272018251e+00  8.6666666666006336e+00  8.6666666666005661e+00  8.6060606059995823e+00  8.6060606059995202e+00  8.5454545453987407e+00  8.5454545453986857e+00  8.4848484847981016e+00  8.4848484847980465e+00  8.4242424241976774e+00  8.4242424241976064e+00  8.3636363635974487e+00  8.3636363635973900e+00  8.3030303029974277e+00  8.3030303029973602e+00  8.2424242423975844e+00  8.2424242423975738e+00  8.2424242423975187e+00  8.1818181817979134e+00  8.1818181817978743e+00  9.5151515150377470e+00  9.5151515150376778e+00  9.4545454544336529e+00  9.4545454544335819e+00  9.3939393938297773e+00  9.3939393938296973e+00  9.3333333332261308e+00  9.3333333332260562e+00  9.2727272726227188e+00  9.2727272726226300e+00  9.2121212120195288e+00  9.2121212120194524e+00  9.1515151514165467e+00  9.1515151514164828e+00  9.0909090908138008e+00  9.0909090908137280e+00  9.0303030302112610e+00  9.0303030302111953e+00  8.9696969696089432e+00  8.9696969696088917e+00  8.9090909090068475e+00  8.9090909090067800e+00  8.8484848484049632e+00  8.8484848484048957e+00  8.7878787878033044e+00  8.7878787878032263e+00  8.7272727272018447e+00  8.7272727272017736e+00  8.6666666666005927e+00  8.6666666666005323e+00  8.6060606059995433e+00  8.6060606059994864e+00  8.5454545453986999e+00  8.5454545453986395e+00  8.4848484847980608e+00  8.4848484847980075e+00  8.4242424241976526e+00  8.4242424241975886e+00  8.3636363635974345e+00  8.3636363635973758e+00  8.3030303029973922e+00  8.3030303029973354e+00  8.2424242423975560e+00  8.2424242423974974e+00  8.1818181817979063e+00  8.1818181817978548e+00  8.1212121211984503e+00  8.1212121211984378e+00  8.1212121211983899e+00  8.0606060605991434e+00  8.0606060605991061e+00  9.4545454544335694e+00  9.4545454544335144e+00  9.5151515150376653e+00  9.5151515150376138e+00  9.3939393938296938e+00  9.3939393938296440e+00  9.3333333332260562e+00  9.3333333332259976e+00  9.2727272726226388e+00  9.2727272726225713e+00  9.2121212120194542e+00  9.2121212120193903e+00  9.1515151514164845e+00  9.1515151514164295e+00  9.0909090908137298e+00  9.0909090908136818e+00  9.0303030302111971e+00  9.0303030302111438e+00  8.9696969696088775e+00  8.9696969696088331e+00  8.9090909090067907e+00  8.9090909090067338e+00  8.8484848484049117e+00  8.8484848484048602e+00  8.7878787878032547e+00  8.7878787878031748e+00  8.7272727272017931e+00  8.7272727272017256e+00  8.6666666666005501e+00  8.6666666666004826e+00  8.6060606059995024e+00  8.6060606059994438e+00  8.5454545453986661e+00  8.5454545453986146e+00  8.4848484847980412e+00  8.4848484847979879e+00  8.4242424241976170e+00  8.4242424241975709e+00  8.3636363635973989e+00  8.3636363635973456e+00  8.3030303029973656e+00  8.3030303029973265e+00  8.2424242423975347e+00  8.2424242423974849e+00  8.1818181817978903e+00  8.1818181817978441e+00  8.1212121211984325e+00  8.1212121211983899e+00  8.0606060605991399e+00  8.0606060605991132e+00  8.0000000000000018e+00  7.9999999999999991e+00  7.9999999999999991e+00  7.9999999999999991e+00  9.4545454544334966e+00  9.4545454544334291e+00  9.3939393938296192e+00  9.3939393938295712e+00  9.3333333332259958e+00  9.3333333332259230e+00  9.2727272726225767e+00  9.2727272726225003e+00  9.2121212120193920e+00  9.2121212120193263e+00  9.1515151514164188e+00  9.1515151514163637e+00  9.0909090908136765e+00  9.0909090908136161e+00  9.0303030302111402e+00  9.0303030302110905e+00  8.9696969696088260e+00  8.9696969696087745e+00  8.9090909090067285e+00  8.9090909090066859e+00  8.8484848484048531e+00  8.8484848484048015e+00  8.7878787878031996e+00  8.7878787878031304e+00  8.7272727272017399e+00  8.7272727272016848e+00  8.6666666666005003e+00  8.6666666666004364e+00  8.6060606059994562e+00  8.6060606059994100e+00  8.5454545453986430e+00  8.5454545453985755e+00  8.4848484847980163e+00  8.4848484847979577e+00  8.4242424241975922e+00  8.4242424241975478e+00  8.3636363635973741e+00  8.3636363635973332e+00  8.3030303029973478e+00  8.3030303029973016e+00  8.2424242423975222e+00  8.2424242423974707e+00  8.1818181817978779e+00  8.1818181817978388e+00  8.1212121211984218e+00  8.1212121211983845e+00  8.0606060605991416e+00  8.0606060605991026e+00  7.9999999999999991e+00  8.0000000000000000e+00  9.3939393938295517e+00  9.3939393938294931e+00  9.4545454544334184e+00  9.3333333332259230e+00  9.3333333332258555e+00  9.2727272726225127e+00  9.2727272726224346e+00  9.2121212120193210e+00  9.2121212120192499e+00  9.1515151514163531e+00  9.1515151514163016e+00  9.0909090908136072e+00  9.0909090908135539e+00  9.0303030302110834e+00  9.0303030302110301e+00  8.9696969696087692e+00  8.9696969696087177e+00  8.9090909090066823e+00  8.9090909090066326e+00  8.8484848484048033e+00  8.8484848484047554e+00  8.7878787878031410e+00  8.7878787878030735e+00  8.7272727272016901e+00  8.7272727272016262e+00  8.6666666666004559e+00  8.6666666666003938e+00  8.6060606059994171e+00  8.6060606059993727e+00  8.5454545453986093e+00  8.5454545453985435e+00  8.4848484847979915e+00  8.4848484847979364e+00  8.4242424241975655e+00  8.4242424241975122e+00  8.3636363635973474e+00  8.3636363635973012e+00  8.3030303029973265e+00  8.3030303029972821e+00  8.2424242423974992e+00  8.2424242423974601e+00  8.1818181817978672e+00  8.1818181817978246e+00  8.1212121211984183e+00  8.1212121211983703e+00  8.0606060605991399e+00  8.0606060605990972e+00  7.9999999999999991e+00  8.0000000000000000e+00  9.3939393938294842e+00  9.3939393938294344e+00  9.3333333332258466e+00  9.3333333332257897e+00  9.2727272726224435e+00  9.2727272726223706e+00  9.2121212120192570e+00  9.2121212120191949e+00  9.1515151514162909e+00  9.1515151514162323e+00  9.0909090908135468e+00  9.0909090908134917e+00  9.0303030302110212e+00  9.0303030302109697e+00  8.9696969696087088e+00  8.9696969696086626e+00  8.9090909090066255e+00  8.9090909090065846e+00  8.8484848484047482e+00  8.8484848484047003e+00  8.7878787878030895e+00  8.7878787878030202e+00  8.7272727272016439e+00  8.7272727272015764e+00  8.6666666666004133e+00  8.6666666666003476e+00  8.6060606059993763e+00  8.6060606059993301e+00  8.5454545453985702e+00  8.5454545453985080e+00  8.4848484847979524e+00  8.4848484847978938e+00  8.4242424241975389e+00  8.4242424241974927e+00  8.3636363635973172e+00  8.3636363635972675e+00  8.3030303029972963e+00  8.3030303029972554e+00  8.2424242423974778e+00  8.2424242423974317e+00  8.1818181817978530e+00  8.1818181817978051e+00  8.1212121211984059e+00  8.1212121211983614e+00  8.0606060605991203e+00  8.0606060605990919e+00  7.9999999999999991e+00  8.0000000000000000e+00  9.3333333332257666e+00  9.3333333332257151e+00  9.3939393938294113e+00  9.3939393938293527e+00  9.2727272726223671e+00  9.2727272726222960e+00  9.2121212120191895e+00  9.2121212120191203e+00  9.1515151514162216e+00  9.1515151514161648e+00  9.0909090908134775e+00  9.0909090908134225e+00  9.0303030302109555e+00  9.0303030302109022e+00  8.9696969696086519e+00  8.9696969696085986e+00  8.9090909090065633e+00  8.9090909090065171e+00  8.8484848484046932e+00  8.8484848484046417e+00  8.7878787878030415e+00  8.7878787878029740e+00  8.7272727272015906e+00  8.7272727272015302e+00  8.6666666666003707e+00  8.6666666666003067e+00  8.6060606059993425e+00  8.6060606059992839e+00  8.5454545453985311e+00  8.5454545453984796e+00  8.4848484847979204e+00  8.4848484847978654e+00  8.4242424241975051e+00  8.4242424241974572e+00  8.3636363635972835e+00  8.3636363635972444e+00  8.3030303029972679e+00  8.3030303029972270e+00  8.2424242423974494e+00  8.2424242423973997e+00  8.1818181817978282e+00  8.1818181817977838e+00  8.1212121211983934e+00  8.1212121211983490e+00  8.0606060605991257e+00  8.0606060605990866e+00  7.9999999999999991e+00  8.0000000000000000e+00  9.3333333332256991e+00  9.3333333332256405e+00  9.3939393938293332e+00  9.3939393938292728e+00  9.2727272726222907e+00  9.2727272726222250e+00  9.2121212120191256e+00  9.2121212120190439e+00  9.1515151514161595e+00  9.1515151514161044e+00  9.0909090908134047e+00  9.0909090908133585e+00  9.0303030302108880e+00  9.0303030302108311e+00  8.9696969696085844e+00  8.9696969696085347e+00  8.9090909090065065e+00  8.9090909090064461e+00  8.8484848484046346e+00  8.8484848484045759e+00  8.7878787878029883e+00  8.7878787878029101e+00  8.7272727272015480e+00  8.7272727272014787e+00  8.6666666666003263e+00  8.6666666666002552e+00  8.6060606059992981e+00  8.6060606059992431e+00  8.5454545453984920e+00  8.5454545453984210e+00  8.4848484847978725e+00  8.4848484847978227e+00  8.4242424241974607e+00  8.4242424241974128e+00  8.3636363635972515e+00  8.3636363635972142e+00  8.3030303029972394e+00  8.3030303029971915e+00  8.2424242423974299e+00  8.2424242423973766e+00  8.1818181817978051e+00  8.1818181817977589e+00  8.1212121211983721e+00  8.1212121211983312e+00  8.0606060605991114e+00  8.0606060605990741e+00  7.9999999999999991e+00  8.0000000000000000e+00  9.3333333332256316e+00  9.3333333332255641e+00  9.2727272726222338e+00  9.2727272726221646e+00  9.2121212120190528e+00  9.2121212120189711e+00  9.1515151514160866e+00  9.1515151514160173e+00  9.0909090908133479e+00  9.0909090908132804e+00  9.0303030302108223e+00  9.0303030302107583e+00  8.9696969696085169e+00  8.9696969696084512e+00  8.9090909090064372e+00  8.9090909090063626e+00  8.8484848484045706e+00  8.8484848484045067e+00  8.7878787878029332e+00  8.7878787878028728e+00  8.7272727272014965e+00  8.7272727272014361e+00  8.6666666666002730e+00  8.6666666666002072e+00  8.6060606059992502e+00  8.6060606059991862e+00  8.5454545453984405e+00  8.5454545453983854e+00  8.4848484847978352e+00  8.4848484847977694e+00  8.4242424241974341e+00  8.4242424241973648e+00  8.3636363635972213e+00  8.3636363635971716e+00  8.3030303029972128e+00  8.3030303029971613e+00  8.2424242423974032e+00  8.2424242423973482e+00  8.1818181817977820e+00  8.1818181817977393e+00  8.1212121211983543e+00  8.1212121211983046e+00  8.0606060605991079e+00  8.0606060605990670e+00  7.9999999999999991e+00  8.0000000000000000e+00  9.2727272726221681e+00  9.2727272726220882e+00  9.3333333332255695e+00  9.3333333332255020e+00  9.2121212120189782e+00  9.2121212120189089e+00  9.1515151514160156e+00  9.1515151514159463e+00  9.0909090908132768e+00  9.0909090908131951e+00  9.0303030302107583e+00  9.0303030302106908e+00  8.9696969696084548e+00  8.9696969696083890e+00  8.9090909090063803e+00  8.9090909090063146e+00  8.8484848484045138e+00  8.8484848484044480e+00  8.7878787878028763e+00  8.7878787878028088e+00  8.7272727272014503e+00  8.7272727272013864e+00  8.6666666666002321e+00  8.6666666666001628e+00  8.6060606059992075e+00  8.6060606059991489e+00  8.5454545453984014e+00  8.5454545453983410e+00  8.4848484847978014e+00  8.4848484847977463e+00  8.4242424241974003e+00  8.4242424241973346e+00  8.3636363635971893e+00  8.3636363635971271e+00  8.3030303029971950e+00  8.3030303029971311e+00  8.2424242423973872e+00  8.2424242423973286e+00  8.1818181817977678e+00  8.1818181817977162e+00  8.1212121211983401e+00  8.1212121211982922e+00  8.0606060605990972e+00  8.0606060605990510e+00  8.0000000000000000e+00  8.0000000000000000e+00  9.2727272726220953e+00  9.2727272726220189e+00  9.2121212120189124e+00  9.2121212120188378e+00  9.1515151514159516e+00  9.1515151514158823e+00  9.0909090908132235e+00  9.0909090908131507e+00  9.0303030302106979e+00  9.0303030302106357e+00  8.9696969696083979e+00  8.9696969696083375e+00  8.9090909090063271e+00  8.9090909090062596e+00  8.8484848484044640e+00  8.8484848484044054e+00  8.7878787878028248e+00  8.7878787878027591e+00  8.7272727272013917e+00  8.7272727272013402e+00  8.6666666666001912e+00  8.6666666666001220e+00  8.6060606059991809e+00  8.6060606059991134e+00  8.5454545453983730e+00  8.5454545453983002e+00  8.4848484847977765e+00  8.4848484847977126e+00  8.4242424241973719e+00  8.4242424241973097e+00  8.3636363635971751e+00  8.3636363635971165e+00  8.3030303029971737e+00  8.3030303029971169e+00  8.2424242423973695e+00  8.2424242423973180e+00  8.1818181817977660e+00  8.1818181817977198e+00  8.1212121211983455e+00  8.1212121211982833e+00  8.0606060605990990e+00  8.0606060605990546e+00  8.0000000000000000e+00  8.0000000000000000e+00  9.2121212120188360e+00  9.2121212120187703e+00  9.2727272726220207e+00  9.2727272726219514e+00  9.1515151514158788e+00  9.1515151514158184e+00  9.0909090908131400e+00  9.0909090908130832e+00  9.0303030302106322e+00  9.0303030302105771e+00  8.9696969696083162e+00  8.9696969696082842e+00  8.9090909090062649e+00  8.9090909090062063e+00  8.8484848484044072e+00  8.8484848484043503e+00  8.7878787878027698e+00  8.7878787878027076e+00  8.7272727272013384e+00  8.7272727272012816e+00  8