<?xml version="1.0"?>
<VTKFile type="UnstructuredGrid"  version="0.1"  >
<UnstructuredGrid>
<Piece  NumberOfPoints="10475" NumberOfCells="54123">
<Points>
<DataArray  type="Float64"  NumberOfComponents="3"  format="ascii">0 10.60606060606061 0  0 12.12121212121212 0  1.515151515151515 12.12121212121212 0  1.515151515151515 12.12121212121212 1.515151515151515  0 12.12121212121212 1.515151515151515  1.515151515151515 13.63636363636364 0  1.515151515151515 13.63636363636364 1.515151515151515  0 13.63636363636364 0  0 13.63636363636364 1.515151515151515  3.03030303030303 12.12121212121212 0  3.03030303030303 13.63636363636364 0  3.03030303030303 13.63636363636364 1.515151515151515  4.545454545454546 13.63636363636364 0  4.545454545454546 13.63636363636364 1.515151515151515  1.515151515151515 15.15151515151515 0  1.515151515151515 15.15151515151515 1.515151515151515  0 15.15151515151515 0  0 15.15151515151515 1.515151515151515  3.03030303030303 15.15151515151515 0  3.03030303030303 15.15151515151515 1.515151515151515  4.545454545454546 15.15151515151515 0  4.545454545454546 15.15151515151515 1.515151515151515  6.060606060606061 13.63636363636364 0  6.060606060606061 15.15151515151515 0  6.060606060606061 15.15151515151515 1.515151515151515  6.060606060606061 13.63636363636364 1.515151515151515  7.575757575757576 15.15151515151515 0  7.575757575757576 15.15151515151515 1.515151515151515  1.515151515151515 16.66666666666667 0  1.515151515151515 16.66666666666667 1.515151515151515  0 16.66666666666667 0  0 16.66666666666667 1.515151515151515  3.03030303030303 16.66666666666667 0  3.03030303030303 16.66666666666667 1.515151515151515  4.545454545454546 16.66666666666667 0  4.545454545454546 16.66666666666667 1.515151515151515  6.060606060606061 16.66666666666667 0  6.060606060606061 16.66666666666667 1.515151515151515  7.575757575757576 16.66666666666667 0  7.575757575757576 16.66666666666667 1.515151515151515  9.090909090909092 15.15151515151515 0  9.090909090909092 16.66666666666667 0  9.090909090909092 16.66666666666667 1.515151515151515  9.090909090909092 15.15151515151515 1.515151515151515  10.60606060606061 16.66666666666667 0  10.60606060606061 16.66666666666667 1.515151515151515  1.515151515151515 18.18181818181818 0  1.515151515151515 18.18181818181818 1.515151515151515  0 18.18181818181818 0  0 18.18181818181818 1.515151515151515  3.03030303030303 18.18181818181818 0  3.03030303030303 18.18181818181818 1.515151515151515  4.545454545454546 18.18181818181818 0  4.545454545454546 18.18181818181818 1.515151515151515  6.060606060606061 18.18181818181818 0  6.060606060606061 18.18181818181818 1.515151515151515  7.575757575757576 18.18181818181818 0  7.575757575757576 18.18181818181818 1.515151515151515  9.090909090909092 18.18181818181818 0  9.090909090909092 18.18181818181818 1.515151515151515  10.60606060606061 18.18181818181818 0  10.60606060606061 18.18181818181818 1.515151515151515  1.515151515151515 19.6969696969697 0  1.515151515151515 19.6969696969697 1.515151515151515  0 19.6969696969697 0  0 19.6969696969697 1.515151515151515  3.03030303030303 19.6969696969697 0  3.03030303030303 19.6969696969697 1.515151515151515  4.545454545454546 19.6969696969697 0  4.545454545454546 19.6969696969697 1.515151515151515  6.060606060606061 19.6969696969697 0  6.060606060606061 19.6969696969697 1.515151515151515  7.575757575757576 19.6969696969697 0  7.575757575757576 19.6969696969697 1.515151515151515  9.090909090909092 19.6969696969697 0  9.090909090909092 19.6969696969697 1.515151515151515  10.60606060606061 19.6969696969697 0  10.60606060606061 19.6969696969697 1.515151515151515  12.12121212121212 19.6969696969697 0  12.12121212121212 19.6969696969697 1.515151515151515  1.515151515151515 21.21212121212121 0  1.515151515151515 21.21212121212121 1.515151515151515  0 21.21212121212121 0  0 21.21212121212121 1.515151515151515  3.03030303030303 21.21212121212121 0  3.03030303030303 21.21212121212121 1.515151515151515  4.545454545454546 21.21212121212121 0  4.545454545454546 21.21212121212121 1.515151515151515  6.060606060606061 21.21212121212121 0  6.060606060606061 21.21212121212121 1.515151515151515  7.575757575757576 21.21212121212121 0  7.575757575757576 21.21212121212121 1.515151515151515  9.090909090909092 21.21212121212121 0  9.090909090909092 21.21212121212121 1.515151515151515  10.60606060606061 21.21212121212121 0  10.60606060606061 21.21212121212121 1.515151515151515  12.12121212121212 21.21212121212121 0  12.12121212121212 21.21212121212121 1.515151515151515  1.515151515151515 22.72727272727273 0  1.515151515151515 22.72727272727273 1.515151515151515  0 22.72727272727273 0  0 22.72727272727273 1.515151515151515  3.03030303030303 22.72727272727273 0  3.03030303030303 22.72727272727273 1.515151515151515  4.545454545454546 22.72727272727273 0  4.545454545454546 22.72727272727273 1.515151515151515  6.060606060606061 22.72727272727273 0  6.060606060606061 22.72727272727273 1.515151515151515  7.575757575757576 22.72727272727273 0  7.575757575757576 22.72727272727273 1.515151515151515  9.090909090909092 22.72727272727273 0  9.090909090909092 22.72727272727273 1.515151515151515  10.60606060606061 22.72727272727273 0  10.60606060606061 22.72727272727273 1.515151515151515  12.12121212121212 22.72727272727273 0  12.12121212121212 22.72727272727273 1.515151515151515  13.63636363636364 22.72727272727273 0  13.63636363636364 22.72727272727273 1.515151515151515  1.515151515151515 24.24242424242424 0  1.515151515151515 24.24242424242424 1.515151515151515  0 24.24242424242424 0  0 24.24242424242424 1.515151515151515  3.03030303030303 24.24242424242424 0  3.03030303030303 24.24242424242424 1.515151515151515  4.545454545454546 24.24242424242424 0  4.545454545454546 24.24242424242424 1.515151515151515  6.060606060606061 24.24242424242424 0  6.060606060606061 24.24242424242424 1.515151515151515  7.575757575757576 24.24242424242424 0  7.575757575757576 24.24242424242424 1.515151515151515  9.090909090909092 24.24242424242424 0  9.090909090909092 24.24242424242424 1.515151515151515  10.60606060606061 24.24242424242424 0  10.60606060606061 24.24242424242424 1.515151515151515  12.12121212121212 24.24242424242424 0  12.12121212121212 24.24242424242424 1.515151515151515  13.63636363636364 24.24242424242424 0  13.63636363636364 24.24242424242424 1.515151515151515  15.15151515151515 24.24242424242424 1.515151515151515  1.515151515151515 25.75757575757576 0  1.515151515151515 25.75757575757576 1.515151515151515  0 25.75757575757576 0  0 25.75757575757576 1.515151515151515  3.03030303030303 25.75757575757576 0  3.03030303030303 25.75757575757576 1.515151515151515  4.545454545454546 25.75757575757576 0  4.545454545454546 25.75757575757576 1.515151515151515  6.060606060606061 25.75757575757576 0  6.060606060606061 25.75757575757576 1.515151515151515  7.575757575757576 25.75757575757576 0  7.575757575757576 25.75757575757576 1.515151515151515  9.090909090909092 25.75757575757576 0  9.090909090909092 25.75757575757576 1.515151515151515  10.60606060606061 25.75757575757576 0  10.60606060606061 25.75757575757576 1.515151515151515  12.12121212121212 25.75757575757576 0  12.12121212121212 25.75757575757576 1.515151515151515  13.63636363636364 25.75757575757576 0  13.63636363636364 25.75757575757576 1.515151515151515  15.15151515151515 25.75757575757576 1.515151515151515  15.15151515151515 25.75757575757576 0  1.515151515151515 27.27272727272727 0  1.515151515151515 27.27272727272727 1.515151515151515  0 27.27272727272727 0  0 27.27272727272727 1.515151515151515  3.03030303030303 27.27272727272727 0  3.03030303030303 27.27272727272727 1.515151515151515  4.545454545454546 27.27272727272727 0  4.545454545454546 27.27272727272727 1.515151515151515  6.060606060606061 27.27272727272727 0  6.060606060606061 27.27272727272727 1.515151515151515  7.575757575757576 27.27272727272727 0  7.575757575757576 27.27272727272727 1.515151515151515  9.090909090909092 27.27272727272727 0  9.090909090909092 27.27272727272727 1.515151515151515  10.60606060606061 27.27272727272727 0  10.60606060606061 27.27272727272727 1.515151515151515  12.12121212121212 27.27272727272727 0  12.12121212121212 27.27272727272727 1.515151515151515  13.63636363636364 27.27272727272727 0  13.63636363636364 27.27272727272727 1.515151515151515  15.15151515151515 27.27272727272727 0  15.15151515151515 27.27272727272727 1.515151515151515  1.515151515151515 28.78787878787879 0  1.515151515151515 28.78787878787879 1.515151515151515  0 28.78787878787879 0  0 28.78787878787879 1.515151515151515  3.03030303030303 28.78787878787879 0  3.03030303030303 28.78787878787879 1.515151515151515  4.545454545454546 28.78787878787879 0  4.545454545454546 28.78787878787879 1.515151515151515  6.060606060606061 28.78787878787879 0  6.060606060606061 28.78787878787879 1.515151515151515  7.575757575757576 28.78787878787879 0  7.575757575757576 28.78787878787879 1.515151515151515  9.090909090909092 28.78787878787879 0  9.090909090909092 28.78787878787879 1.515151515151515  10.60606060606061 28.78787878787879 0  10.60606060606061 28.78787878787879 1.515151515151515  12.12121212121212 28.78787878787879 0  12.12121212121212 28.78787878787879 1.515151515151515  13.63636363636364 28.78787878787879 0  13.63636363636364 28.78787878787879 1.515151515151515  15.15151515151515 28.78787878787879 0  15.15151515151515 28.78787878787879 1.515151515151515  1.515151515151515 30.3030303030303 0  1.515151515151515 30.3030303030303 1.515151515151515  0 30.3030303030303 0  0 30.3030303030303 1.515151515151515  3.03030303030303 30.3030303030303 0  3.03030303030303 30.3030303030303 1.515151515151515  4.545454545454546 30.3030303030303 0  4.545454545454546 30.3030303030303 1.515151515151515  6.060606060606061 30.3030303030303 0  6.060606060606061 30.3030303030303 1.515151515151515  7.575757575757576 30.3030303030303 0  7.575757575757576 30.3030303030303 1.515151515151515  9.090909090909092 30.3030303030303 0  9.090909090909092 30.3030303030303 1
[...]
<PointData  Vectors="u"> 
<DataArray  type="Float64"  Name="u"  NumberOfComponents="3" format="ascii">2.0000000000011863e+02 2.2071291265068134e-10 1.8400712320515798e-10  2.0000000000016882e+02 1.3172497087669345e-10 1.3757188764200300e-10  1.9999999999934568e+02 1.6066019067779320e-10 1.7216405166365439e-11  1.9999999999936458e+02 1.1991125257133096e-10 1.8382482076623328e-10  2.0000000000003593e+02 1.2718790471407758e-10 1.6135550998485479e-10  1.9999999999938083e+02 1.4217888964888676e-10 8.8054215424464047e-12  1.9999999999939263e+02 1.6875666201243479e-10 2.0120893035773029e-10  2.0000000000020142e+02 2.1993619316252846e-10 1.6015977794687164e-10  2.0000000000001387e+02 1.8280493594463767e-10 2.4532660378855800e-10  1.9999999999857079e+02 1.7162568452569711e-10 1.9666923943364397e-11  1.9999999999856269e+02 1.8469434533674006e-10 3.4230662452472224e-11  1.9999999999854163e+02 1.5297547516785540e-10 2.1672401581027009e-10  1.9999999999777435e+02 1.7138168845043668e-10 4.9494913412031479e-11  1.9999999999774542e+02 1.6861185586533976e-10 2.0561288871902893e-10  1.9999999999938345e+02 1.6816535208326052e-10 3.8020823483246596e-11  1.9999999999937131e+02 1.6276352712821092e-10 2.2111078963150689e-10  2.0000000000016732e+02 2.4855004229941141e-10 1.7243098592714933e-10  2.0000000000004863e+02 1.7741875602174927e-10 2.2562034407880240e-10  1.9999999999859759e+02 1.8295473315136623e-10 4.1680002749038120e-11  1.9999999999853321e+02 1.7835477351867949e-10 1.9454773840239655e-10  1.9999999999778760e+02 2.1716774923903925e-10 2.0476962873059304e-11  1.9999999999778558e+02 1.7256129099215065e-10 1.6981510570668819e-10  1.9999999999698474e+02 1.9307899505171328e-10 6.6633017857210755e-11  1.9999999999696641e+02 1.9943097105872378e-10 5.5006065818964715e-11  1.9999999999695729e+02 2.1378868398481158e-10 1.2932557189659809e-10  1.9999999999694046e+02 1.8013710783151701e-10 1.6287951564832216e-10  1.9999999999616551e+02 1.9528050859593760e-10 3.2270122488198703e-11  1.9999999999618259e+02 1.8417792817267343e-10 1.4770099226364939e-10  1.9999999999936614e+02 2.0463505255440782e-10 -4.0238886231615940e-11  1.9999999999936233e+02 1.6916906335574632e-10 2.1855488753744072e-10  2.0000000000017903e+02 1.9267472416244199e-10 1.7861054768551694e-10  2.0000000000002689e+02 1.5950171416315309e-10 2.2320067311983803e-10  1.9999999999858900e+02 2.0317504271073802e-10 1.6697837259019223e-11  1.9999999999854543e+02 1.7927732482801139e-10 2.1063571659035851e-10  1.9999999999780809e+02 1.6765891308669911e-10 1.6899545195023811e-11  1.9999999999776523e+02 1.6808679367746567e-10 1.6511655672043419e-10  1.9999999999692585e+02 1.4724355371833337e-10 1.8164462587797131e-11  1.9999999999695109e+02 1.4486046930369397e-10 1.6914164430160247e-10  1.9999999999620326e+02 1.4901712527661794e-10 1.3940257437514195e-12  1.9999999999616983e+02 1.3814704245428720e-10 1.7631424351018095e-10  1.9999999999541805e+02 2.2702178240796841e-10 4.8441027737931877e-11  1.9999999999542283e+02 1.3348731616597032e-10 4.3022972593150454e-11  1.9999999999541504e+02 1.2939431209793272e-10 1.7783835690135236e-10  1.9999999999538372e+02 2.3224941001223101e-10 1.6787331524786942e-10  1.9999999999461787e+02 1.6547028327778073e-10 -2.1091170916448469e-11  1.9999999999458424e+02 1.7067116649636110e-10 1.4607321440656325e-10  1.9999999999941886e+02 1.4507802620801989e-10 3.4928518045199604e-11  1.9999999999940613e+02 1.5144997085968708e-10 2.0940509527845104e-10  2.0000000000018730e+02 2.4344229485766086e-10 1.6083266134382621e-10  2.0000000000006139e+02 1.7244141539235709e-10 2.3621855488572248e-10  1.9999999999854825e+02 1.6657763339873329e-10 3.6317683613039046e-11  1.9999999999850695e+02 1.7567874928185541e-10 2.0468319598366049e-10  1.9999999999774070e+02 1.4942699770188525e-10 2.4791918321881750e-11  1.9999999999776486e+02 1.2825080604632019e-10 1.6402887054063600e-10  1.9999999999695822e+02 1.4527032927205175e-10 6.2256115023426737e-11  1.9999999999695189e+02 1.4429737216362684e-10 1.7581007134822761e-10  1.9999999999620636e+02 1.7567045992601113e-10 2.8389420109269689e-11  1.9999999999616634e+02 1.7801418903809960e-10 1.8396722474442774e-10  1.9999999999540856e+02 1.8103669020368776e-10 6.6421046946935645e-11  1.9999999999539338e+02 1.8726271898154693e-10 1.6253574457485776e-10  1.9999999999463938e+02 1.5676068954140040e-10 3.1172803729561839e-11  1.9999999999463600e+02 1.7698118132881765e-10 1.6263189324390021e-10  1.9999999999936912e+02 1.4698098125552228e-10 2.4956950296306555e-11  1.9999999999935491e+02 1.3421628430245311e-10 2.2593679552617999e-10  2.0000000000018596e+02 2.0766112755731342e-10 1.7398918270003948e-10  2.0000000000007751e+02 1.5068766030182760e-10 2.0322895332087253e-10  1.9999999999857303e+02 1.2667833526382535e-10 4.8722120691146809e-11  1.9999999999854560e+02 1.1652866177298072e-10 1.8865612954151374e-10  1.9999999999779254e+02 1.7009721047690190e-10 1.8699947323211922e-11  1.9999999999775596e+02 1.7846574513262373e-10 1.5828000430552570e-10  1.9999999999692690e+02 2.0358769923648338e-10 8.8150854132442475e-11  1.9999999999697579e+02 1.7160071163771782e-10 1.7693762304926286e-10  1.9999999999622941e+02 1.7320377593769522e-10 8.6466505644384145e-11  1.9999999999616628e+02 1.4906107308738449e-10 1.8490985056274856e-10  1.9999999999539571e+02 1.3843307319139046e-10 5.4075007711410781e-11  1.9999999999539239e+02 1.5373725544039843e-10 1.6737340938923029e-10  1.9999999999464370e+02 1.6144751900578553e-10 5.8438252986233427e-11  1.9999999999462221e+02 1.4356260283277358e-10 1.5612912336275085e-10  1.9999999999383419e+02 1.7193071152329418e-10 5.4216294290117141e-11  1.9999999999384212e+02 1.2752322942099875e-10 1.8714361667471704e-10  1.9999999999934712e+02 1.5539202211613120e-10 9.5198858909574249e-12  1.9999999999935724e+02 1.3149072714412031e-10 2.2719652514594866e-10  2.0000000000017184e+02 2.2774399854847082e-10 1.3849134096251775e-10  2.0000000000002456e+02 1.6800078142679957e-10 2.2614045613088707e-10  1.9999999999857221e+02 1.4787350910022527e-10 7.4748234890921227e-11  1.9999999999855333e+02 1.4232508093484315e-10 2.0723576391325756e-10  1.9999999999782952e+02 1.3199828727102310e-10 1.5293755154946819e-11  1.9999999999777671e+02 1.5895052000762138e-10 1.7113105816028967e-10  1.9999999999693213e+02 1.7739181026914520e-10 3.9321705668994290e-11  1.9999999999692517e+02 1.5238274848342731e-10 1.6190586584141148e-10  1.9999999999619217e+02 1.8441035347462249e-10 9.0904734296017684e-13  1.9999999999618888e+02 1.2857990766316674e-10 1.5923975858589512e-10  1.9999999999536993e+02 1.7280216614136998e-10 8.2815622828846914e-11  1.9999999999539048e+02 1.7954021676537146e-10 1.7299280552470328e-10  1.9999999999467073e+02 1.4309100354870267e-10 5.3061872615226137e-11  1.9999999999462008e+02 1.6066821476103769e-10 1.4498112608400690e-10  1.9999999999384008e+02 1.3978407711936020e-10 -3.8312872564923972e-12  1.9999999999382058e+02 1.7292574351301351e-10 1.4656549511258048e-10  1.9999999999936179e+02 1.6953103700032793e-10 -7.7908821325131143e-12  1.9999999999933164e+02 1.6442255291067406e-10 2.3078613723542149e-10  2.0000000000020322e+02 2.2183484973704884e-10 1.5557892711398428e-10  2.0000000000002970e+02 1.5302483532865352e-10 2.2607879737597215e-10  1.9999999999856129e+02 2.0316502905260272e-10 6.9438930693882225e-11  1.9999999999855027e+02 1.6600759137724582e-10 1.9831993044875145e-10  1.9999999999779604e+02 1.7947571699478195e-10 3.8609574680576429e-11  1.9999999999776745e+02 1.4733132748960773e-10 1.8022698103326113e-10  1.9999999999698241e+02 1.4827582389950443e-10 2.4531225644705285e-11  1.9999999999694316e+02 1.3759407606825461e-10 1.7684813342479927e-10  1.9999999999621295e+02 1.6679493965222637e-10 -8.4486423913666146e-12  1.9999999999619786e+02 1.6124816699864766e-10 1.5228704277349585e-10  1.9999999999538221e+02 1.9482838764930697e-10 5.1118367581575859e-11  1.9999999999540822e+02 1.4662715464048366e-10 1.9105736485248871e-10  1.9999999999459916e+02 1.6806032318285921e-10 7.2626941107868550e-11  1.9999999999458171e+02 1.3960963360933105e-10 1.7619008420853059e-10  1.9999999999388237e+02 1.6923712035553833e-10 3.0824985893005854e-11  1.9999999999384417e+02 1.3075794249400752e-10 1.8214453649127816e-10  1.9999999999310282e+02 2.0680738397580000e-10 3.7365428734082714e-11  1.9999999999307616e+02 1.7358863210899886e-10 1.6717345224097765e-10  1.9999999999937884e+02 1.9209319689334678e-10 1.9559492195239116e-11  1.9999999999935335e+02 1.7632916950203295e-10 1.9706695546975688e-10  2.0000000000020657e+02 2.4255844667930593e-10 1.7610646307165812e-10  2.0000000000003064e+02 1.7888781814127031e-10 1.9943670440217684e-10  1.9999999999854671e+02 1.7915017356341922e-10 7.6736804830381389e-11  1.9999999999853398e+02 1.8241567331618126e-10 1.4903511131870857e-10  1.9999999999779342e+02 2.2299023181291261e-10 -8.0639794922880393e-13  1.9999999999776344e+02 1.7767513083651027e-10 1.4395917217809454e-10  1.9999999999693847e+02 2.0437726378549322e-10 3.4389841400489519e-11  1.9999999999694242e+02 1.7426273588226997e-10 1.7066121322258017e-10  1.9999999999619541e+02 1.3504757926970301e-10 -4.9828810274257161e-12  1.9999999999616884e+02 1.7354718720451815e-10 1.7686802656068532e-10  1.9999999999537224e+02 1.1042663322374633e-10 5.3403661263845585e-11  1.9999999999541393e+02 1.2896099989785860e-10 1.7530885093820294e-10  1.9999999999461733e+02 1.3373003004701244e-10 5.3177169042083969e-11  1.9999999999455713e+02 1.4292796452435845e-10 1.6320900201581322e-10  1.9999999999390025e+02 1.7591296059719986e-10 6.2583785034891041e-12  1.9999999999388004e+02 1.2110550650941756e-10 1.3749458188341580e-10  1.9999999999309469e+02 1.4522393525631320e-10 -2.6335333165810376e-12  1.9999999999311197e+02 1.2609393365573946e-10 1.5644414741738102e-10  1.9999999999227484e+02 1.3955123986755139e-10 1.7430454536283038e-10  1.9999999999934454e+02 1.5108521616791156e-10 -1.8351482334043923e-11  1.9999999999934673e+02 1.4845188110947426e-10 2.1119433854003640e-10  2.0000000000014256e+02 2.1765456442178453e-10 9.4791312241124633e-11  2.0000000000003607e+02 1.7500105397166262e-10 2.0823985573828490e-10  1.9999999999855368e+02 1.3800435102727641e-10 2.2113735947191975e-11  1.9999999999851070e+02 1.4730229892709878e-10 1.8252268141274066e-10  1.9999999999782321e+02 1.3371408079086183e-10 1.6335544296539295e-11  1.9999999999779257e+02 1.2923564767127988e-10 1.3683875038071236e-10  1.9999999999690635e+02 1.5704884892584645e-10 3.3029721776484892e-11  1.9999999999694001e+02 1.7235559010411023e-10 1.3981188596047408e-10  1.9999999999616318e+02 1.9040865652222530e-10 4.1540864994724035e-12  1.9999999999617518e+02 1.6401367007245564e-10 2.0843631991092136e-10  1.9999999999538485e+02 1.7095321298682118e-10 4.4357546365658293e-11  1.9999999999537212e+02 1.7934654529277755e-10 2.2818887252095947e-10  1.9999999999464507e+02 2.0030098296358167e-10 4.7024915088257570e-11  1.9999999999458777e+02 1.6473950345684867e-10 1.8350740747897493e-10  1.9999999999387623e+02 1.7462952736402483e-10 8.9145732572720290e-12  1.9999999999384070e+02 1.8779140074351978e-10 1.4096249069057794e-10  1.9999999999306576e+02 1.5301319109213596e-10 -2.8085154317035453e-11  1.9999999999306490e+02 1.2726325129345499e-10 1.5051787920649050e-10  1.9999999999230951e+02 1.3268932593071212e-10 1.6157569964103696e-10  1.9999999999231534e+02 1.5239333217342091e-10 -1.2071908580958386e-13  1.9999999999935767e+02 1.3147487022072544e-10 1.6520255088499547e-11  1.9999999999936747e+02 9.4717272753643480e-11 2.2113822265657641e-10  2.0000000000018767e+02 1.7029850997929658e-10 1.7094388583899194e-10  2.0000000000001705e+02 1.1398813709832747e-10 2.1131055681755645e-10  1.9999999999855581e+02 1.7186221147937136e-10 6.3260337612832425e-11  1.9999999999851079e+02 1.6272281167936127e-10 1.8874743300921076e-10  1.9999999999778993e+02 1.6388087683181111e-10 8.2773410401604824e-12  1.9999999999777978e+02 1.6895021174675536e-10 1.6260459967219970e-10  1.9999999999700952e+02 1.7148221928767065e-10 2.9967400101941646e-12  1.9999999999697897e+02 1.4989303301005306e-10 1.6610899795873533e-10  1.9999999999614855e+02 2.3562111019194942e-10 9.4845818421749177e-12  1.9999999999618544e+02 2.0262403190707065e-10 1.7691475598344645e-10  1.9999999999538147e+02 2.1201636507493421e-10 7.3649601312506375e-11  1.9999999999536215e+02 2.0360095351698551e-10 1.8470711720450330e-10  1.9999999999460471e+02 1.7332697345276205e-10 9.1157938055886025e-11  1.9999999999459172e+02 1.7827707113568688e-10 1.5024866669906343e-10  1.9999999999388706e+02 1.7184697852720641e-10 4.2420970255615164e-11  1.9999999999381524e+02 1.6142361495166434e-10 1.4158923798218295e-10  1.9999999999305754e+02 1.9684825642557956e-10 -3.2870341799162792e-11  1.9999999999308082e+02 1.7584851855369901e-10 1.2545184595527523e-10  1.9999999999231977e+02 1.9750061277851989e-10 3.1588484599685869e-12  1.9999999999231787e+02 1.7911853981341482e-10 1.6378175168799136e-10  1.9999999999939152e+02 1.6089341103846525e-10 -2.1598341803541652e-11  1.9999999999936671e+02 1.5056046544142566e-10 1.9048847187406424e-10  2.0000000000019719e+02 1.7258124886414215e-10 1.8043813980061430e-10  1.9999999999999466e+02 1.3936557863196299e-10 2.1455016087543356e-10  1.9999999999857081e+02 1.9533996559619471e-10 3.8653715676670922e-11  1.9999999999857292e+02 1.7690470312014078e-10 1.6472393958117152e-10  1.9999999999778618e+02 1.7961147218868875e-10 2.0136922473394406e-11  1.9999999999776961e+02 1.8980976643200931e-10 1.8575355235864560e-10  1.9999999999698255e+02 1.5838986050122141e-10 5.9206988882366201e-11  1.9999999999697064e+02 1.9425895088648330e-10 1.6150459517252166e-10  1.9999999999617913e+02 1.1577706098367302e-10 3.4293541032889283e-11  1.9999999999618018e+02 1.4942104776872200e-10 1.7397252395500691e-10  1.9999999999536712e+02 1.4784162744860904e-10 5.2318980436275262e-11  1.9999999999536618e+02 1.2174875471265501e-10 1.9060787054304829e-10  1.9999999999460491e+02 1.7443527011659725e-10 5.6478494073179594e-11  1.9999999999455986e+02 1.5278708948305338e-10 1.5023998496804183e-10  1.9999999999387441e+02 1.7864724458536179e-10 -9.7489005604278626e-12  1.9999999999385446e+02 1.6322368444671260e-10 1.2228277853351302e-10  1.9999999999308903e+02 1.7139033104553374e-10 -4.3304549666661966e-11  1.9999999999308454e+02 1.7117095826968369e-10 1.3173357423407234e-10  1.9999999999228939e+02 1.4639264035062583e-10 1.7613807231205713e-11  1.9999999999231267e+02 1.6878860934068205e-10 1.5883633864474012e-10  1.9999999999942361e+02 1.5851837124603289e-10 2.6099690322899572e-12  1.9999999999940712e+02 1.8190606835155473e-10 1.8809840692705962e-10  2.0000000000020054e+02 2.4676756366729140e-10 1.7473251602433610e-10  2.0000000000004778e+02 1.7524516749793680e-10 2.1610972444568924e-10  1.9999999999855092e+02 1.8137483699221870e-10 8.1701363134354273e-11  1.9999999999856132e+02 2.0691180212437289e-10 1.9683387076548969e-10  1.9999999999779129e+02 1.8342514364874266e-10 4.1966919340662254e-11  1.9999999999776847e+02 1.6838163741022601e-10 1.9008087323010416e-10  1.9999999999698522e+02 2.1320856544936936e-10 7.1922792836673937e-11  1.9999999999696249e+02 1.7613634345290022e-10 1.6967592595612850e-10  1.9999999999614110e+02 2.2039490829532821e-10 8.7650235309693671e-11  1.9999999999614903e+02 1.8596871546153979e-10 1.5599799785049413e-10  1.9999999999539111e+02 1.7263551922699420e-10 4.0403359329299850e-11  1.9999999999534774e+02 1.5954908292817847e-10 1.6631360416936614e-10  1.9999999999460900e+02 1.6047547991436259e-10 4.3963305811592030e-11  1.9999999999461352e+02 1.5742404962504728e-10 1.5131359496933084e-10  1.9999999999386287e+02 1.4025938345380235e-10 5.9902279395812539e-11  1.9999999999383465e+02 1.6303501804912563e-10 1.5103747479907372e-10  1.9999999999305953e+02 1.0923038164157015e-10 5.9682541186456793e-11  1.9999999999307153e+02 1.4534187372767795e-10 1.4381677143152695e-10  1.9999999999231221e+02 1.2132780083887925e-10 6.1210020732263757e-11  1.9999999999230258e+02 1.2742000827059654e-10 1.7561907057941787e-10  1.9999999999153707e+02 1.4099826073943346e-10 3.7316763811826065e-11  1.9999999999154292e+02 1.6027137916636280e-10 1.7869991258912539e-10  1.9999999999938936e+02 1.9989719997580847e-10 3.6407145136528829e-11  1.9999999999939448e+02 1.6363655171781893e-10 2.0356109223362034e-10  2.0000000000016325e+02 2.4994706541866734e-10 1.6528953059848948e-10  2.0000000000003004e+02 1.9629678959165477e-10 1.9370620848997015e-10  1.9999999999857263e+02 1.8346951355913494e-10 8.5812316826655978e-11  1.9999999999855956e+02 1.6696148400324479e-10 1.8984729948031133e-10  1.9999999999780042e+02 1.8703470697120769e-10 8.1370406283615188e-12  1.9999999999774923e+02 1.4908115183532523e-10 1.6137312316319545e-10  1.9999999999695052e+02 1.4490394694227745e-10 6.6033715291898942e-11  1.9999999999696374e+02 1.3348436547135770e-10 1.5349184505351313e-10  1.9999999999615000e+02 1.0447003227104044e-10 2.2295674429991217e-11  1.9999999999616199e+02 1.2387308163966311e-10 1.4662086715951317e-10  1.9999999999534799e+02 1.4226256126195852e-10 8.1566904567457835e-11  1.9999999999533875e+02 1.4194888171876288e-10 1.7002450140738767e-10  1.9999999999462577e+02 1.1643764609725678e-10 6.8574319471266438e-11  1.9999999999459533e+02 1.4853283784113048e-10 1.5298665765866638e-10  1.9999999999382027e+02 1.3213081010376958e-10 9.0619777216600333e-11  1.9999999999382780e+02 1.4443294988273161e-10 1.5110695637688327e-10  1.9999999999308392e+02 1.5201190368338898e-10 4.8361238311714502e-11  1.9999999999307252e+02 1.1847602492294677e-10 1.5760578775320579e-10  1.9999999999231684e+02 1.7976344693130243e-10 5.4917355280361457e-11  1.9999999999230860e+02 1.6813010345245007e-10 1.7901376810891067e-10  1.9999999999155133e+02 1.5236307655667880e-10 7.0948114665819564e-11  1.9999999999155216e+02 1.4224767864291534e-10 1.7792388573819917e-10  1.9999999999936205e+02 1.4727646214952351e-10 6.2776111050168898e-12  1.9999999999939050e+02 1.3408846223877042e-10 1.6953500388872787e-10  2.0000000000017261e+02 2.1922026354773413e-10 1.9419129961492429e-10  2.0000000000002382e+02 1.6251857680614665e-10 1.7732032708031541e-10  1.9999999999856777e+02 1.3388451202063149e-10 3.8003580865359137e-11  1.9999999999853162e+02 1.1623254339281852e-10 2.1105553701142476e-10  1.9999999999776082e+02 1.3269405384565457e-10 2.2375433131674889e-11  1.9999999999775002e+02 1.2479563210563700e-10 1.7409393131926064e-10  1.9999999999696288e+02 1.2990163554872981e-10 6.8863504201833092e-11  1.9999999999694541e+02 1.2579911470160735e-10 1.7078745531676400e-10  1.9999999999614860e+02 1.7233162201877233e-10 5.3731813583770773e-11  1.9999999999615031e+02 1.3438087754751562e-10 1.7883301331248161e-10  1.9999999999539821e+02 1.7352009831016257e-10 5.4254951353065399e-11  1.9999999999539207e+02 1.6411156561883303e-10 1.9058824082307951e-10  1.9999999999460371e+02 1.9386490818725604e-10 1.5973918387959143e-11  1.9999999999456898e+02 1.5825062628654936e-10 1.9668203809259707e-10  1.9999999999381870e+02 2.0638904701199476e-10 6.4550733472622531e-11  1.9999999999381166e+02 1.1879636025316869e-10 1.6856273326987577e-10  1.9999999999310796e+02 1.6623165266041583e-10 4.6360896724371803e-11  1.9999999999308429e+02 1.2411572459942281e-10 1.4965485937515723e-10  1.9999999999231053e+02 1.3363585532457162e-10 5.5919176521918934e-11  1.9999999999231454e+02 1.2131378699173772e-10 1.5841293234902952e-10  1.9999999999155102e+02 1.5645642526950361e-10 4.4729695129363372e-11  1.9999999999154593e+02 1.0915130582022540e-10 1.6243725827041934e-10  1.9999999999079463e+02 2.0018145766734087e-10 7.3452003012015498e-11  1.9999999999079407e+02 1.3562087365781187e-10 1.6000976390536492e-10  1.9999999999936151e+02 1.3238334556103988e-10 -3.0174275432486385e-11  1.9999999999934587e+02 1.1483978078318125e-10 1.9262104990152888e-10  2.0000000000017357e+02 1.6304231094572458e-10 1.5469516288119427e-10  1.9999999999999650e+02 1.3011635521702384e-10 2.0278641820776300e-10  1.9999999999855339e+02 1.7351034529283529e-10 8.3971139026924076e-12  1.