<?xml version="1.0"?>
<VTKFile type="UnstructuredGrid"  version="0.1"  >
<UnstructuredGrid>
<Piece  NumberOfPoints="6875" NumberOfCells="31304">
<Points>
<DataArray  type="Float64"  NumberOfComponents="3"  format="ascii">37.449619 30.781593 19.738642  37.16623443501837 30.09522366911075 19.62830404239097  37.69775199999999 30.211931 19.6854915  37.2286015 30.4916335 19.4519275  37.007584 30.201674 19.165213  36.88284987003674 29.4088543382215 19.51796608478194  37.41436743501836 29.52556166911075 19.57515354239097  37.4767345 29.9219715 19.398777  36.94521693501837 29.80526416911075 19.34158954239097  36.6924225147898 35.49793893437581 23.14531275321728  35.99953098832898 34.45200865347594 21.99711326696977  35.53141248121065 35.09274362593239 21.95604020751802  36.43532293565754 35.40266998435484 22.18468051847867  35.78851206034292 35.18801257595335 22.91667244225663  36.25663056746125 34.54727760349691 22.95774550170837  34.88460160589604 34.8780862175309 22.68803213129597  35.35272011301437 34.23735124507445 22.72910519074772  35.8208386201327 33.596616272618 22.77017825019947  36.17822335652527 35.30740103433388 21.22404828374007  38.071617 28.632116 23.680645  38.37080319846777 28.0139430468197 23.39839308857532  38.08442395132064 28.31065641233315 22.53443047007958  37.67943719846777 27.6544900468197 23.08006808857532  37.380251 28.272663 23.36232  38.09723090264128 27.98919682466629 21.38821594015916  38.38361014978841 27.69248345915284 22.2521785586549  37.39305795132064 27.95120341233314 22.21610547007958  38.66998939693554 27.3957700936394 23.11614117715064  36.281235 33.03447 19.303778  35.70356455299144 32.40689877706018 19.09520547248825  36.2436675 32.4638675 18.7990255  35.936867 32.9877415 18.784975  37.032162 31.885027 19.464056  36.07902805299144 31.83217727706018 19.17534447248825  36.8707695 31.4587605 19.228752  36.619131 31.889146 18.8791645  36.709377 31.032494 18.993448  36.197247 33.108097 24.262577  37.13541422415412 33.32283821111135 23.30244034793401  36.50174646332238 32.81437178134141 23.51058342429877  37.04626628464294 32.8731749989993 24.1132065770455  36.83091476083173 33.61656342976995 24.05443392363524  37.46458252166347 34.1250298595399 23.84629084727048  37.67993404547467 33.38164142876924 23.90506350068073  37.89528556928587 32.63825299799859 23.96383615409099  37.35076574796532 32.5794497803407 23.36121300134426  36.80624592664476 32.52064656268281 22.75858984859753  41.2 33.164822 25.730837  40.71661134685031 32.62084285348058 25.19555514124762  40.58474143781835 32.63517486891721 25.8025065614819  41.2 32.498912 25.6035185  41.2 31.833002 25.4762  40.71661134685031 31.95493285348058 25.06823664124762  40.58474143781835 31.96926486891721 25.6751880614819  39.96948287563671 32.10552773783442 25.8741761229638  40.10135278466866 32.09119572239779 25.26722470272952  40.23322269370061 32.07686370696116 24.66027328249525  40.58533525 31.8111605 25.538166  39.9706705 31.789319 25.600132  40.1019465968503 31.93309135348058 25.13020264124762  39.97007668781835 31.94742336891721 25.7371540614819  33.411301 36.662182 19.312393  33.37630529920752 36.55725169968346 20.00898384799723  32.68791769736838 36.54353253533606 19.62015475656689  33.0625555 37.1359065 19.7496375  33.34130959841503 36.45232139936692 20.70557469599446  38.741341 31.745636 25.724064  39.51936213459044 31.69596336057772 25.11027559105268  38.90469738459043 31.67412186057773 25.17224159105269  38.9487841950897 32.07370938905739 25.45927930973568  39.35600574999999 31.7674775 25.662098  39.5634489450897 32.09555088905739 25.39731330973569  39.1562273901794 32.40178277811479 25.19449461947137  39.11214057968013 32.00219524963512 24.90745690078837  39.06805376918087 31.60260772115545 24.62041918210537  33.911682 36.310818 23.125027  34.6067908675939 35.5396407999293 22.04001203210891  34.12033106464588 36.25600669116385 22.25850946646092  33.7837445 35.844828 22.839496  34.39814180294802 35.59445210876545 22.90652956564799  33.655807 35.378838 22.553965  33.99239356464588 35.79001669116385 21.97297846646092  34.27020430294802 35.12846210876545 22.62099856564799  34.32898012929176 36.2011953823277 21.39199193292185  35.56119189542705 33.33777378161013 21.33873219463679  36.18371891103591 32.92921017214647 22.04866102161716  36.59870504277701 33.55541511411542 21.61126959286872  36.26470256737394 32.74641198636363 21.1518431280375  36.96821323932082 32.15505019111713 20.9649540614382  36.8872295829828 32.33784837689997 21.86177195501786  37.30221571472389 32.96405331886892 21.42438052626942  37.63621819012696 33.77305644662071 21.88380699110063  37.22123205838587 33.14685150465176 22.32119841984908  35.284828 34.870926 24.627287  36.4885452573949 34.73121396718791 24.01700087660864  35.9927567573949 34.6011749671879 23.56559837660864  35.9886252573949 35.1844324671879 23.88629987660864  35.784748 34.4177075 24.757988  35.2889595 34.2876685 24.3065855  35.293091 33.704411 23.985884  35.7888795 33.83445 24.4372865  36.284668 33.964489 24.888689  38.682114 34.284229 21.171499  39.36440126877518 33.06511688143701 22.21022338238003  39.21627276877518 33.901820881437 22.34968938238003  39.941057 33.872858 21.545206  38.8302425 33.447525 21.032033  41.2 33.461487 21.918913  40.47521576877518 33.490449881437 22.72339638238003  40.0891855 33.036154 21.40574  38.978371 32.610821 20.892567  39.75043153755036 33.51941276287401 23.52787976476006  34.281754 34.371948 23.293858  35.08884630294801 34.29124860876545 23.33695806564798  35.08471480294801 34.87450610876544 23.65765956564799  34.58317780294801 34.62501710876545 22.99094506564798  34.7874225 34.0381795 23.639871  34.783291 34.621437 23.9605725  35.730522 32.580597 23.517038  36.76985096332238 32.3524422813414 23.43214942429877  36.50032546332238 32.0149887813414 23.05702542429876  36.26838396332238 32.55062178134141 23.13781392429877  35.9624635 32.044964 23.4362495  36.231989 32.3824175 23.8113735  36.194405 31.509331 23.355461  36.4639305 31.8467845 23.730585  36.733456 32.184238 24.105709  33.804604 37.992142 21.374561  33.57295679920752 37.22223169968346 21.04006784799723  34.06679206464588 37.09666869116385 21.38327646646092  33.8751225 37.724884 20.838124  33.945641 37.457626 20.301687  33.64347529920752 36.95497369968346 20.50363084799723  34.13731056464589 36.82941069116384 20.84683946646092  33.8351448638534 36.3267583908473 21.04878331445816  34.803425 29.01339 21.840061  35.3351318630734 29.47911861854172 21.27617883432363  35.89120630741603 29.16683734817263 21.46101355516565  35.17777049999999 29.449444 22.04895  35.552116 29.885498 22.257839  36.26555180741603 29.60289134817263 21.66990255516565  35.11814772614681 29.07273923708344 20.29451866864726  36.04856767048943 29.19651196671435 20.68824238948928  36.97898761483206 29.32028469634526 21.0819661103313  39.54543989262669 33.01846707159656 25.68406533097862  38.92700803836172 33.17149847722185 25.10116428986606  39.12161428958537 33.47984062396274 25.34594964561968  39.64793571508852 33.26893991723529 24.60597254786934  39.35083364140304 32.71012492485568 25.43927997522499  39.2241101120472 33.73031346960146 24.26785686251041  39.45332946386488 32.9605977704944 24.36118719211571  38.69778868654405 33.94121417632891 25.00783396026075  33.401745 37.434456 22.32263  34.0447655 38.1010095 21.940238  34.2051375 37.827774 22.1321365  33.60317449999999 37.713299 21.8485955  33.843336 37.82216649999999 22.4142725  34.284927 38.209877 22.505915  34.406567 38.106617 21.658102  34.6467285 38.2154845 22.223779  35.00853 38.221092 21.941643  35.759594 34.600929 19.7087  35.25279921416306 34.935182524209 20.9644186204733  35.96890867826264 34.95416501716694 20.46637414187003  35.66039294771353 33.96935139080507 20.5237160973184  35.04348453590043 34.58194650704205 20.20674447860326  34.32737507180085 34.56296401408411 20.70478895720652  35.86970762597616 34.32258740797201 21.28139023918843  34.94428348361395 33.95036889784712 21.02176057592166  35.669361 31.00276 22.654001  36.37409252369147 31.18189543783873 21.90810563994177  35.70315393626617 30.81217342134976 22.12844586591616  36.2816770874253 30.81385101648896 22.23557977402561  35.76177643626617 31.37080442134976 22.32652686591616  36.2230545874253 30.25522001648896 22.03749877402561  35.6107385 30.444129 22.45592  35.85419187253234 31.73884884269953 21.99905273183231  36.8939931748506 30.62494203297792 21.81715854805122  33.99331529920752 36.60593119968345 20.35005884799723  33.678471 37.059904 19.80704  34.028311 36.7108615 19.653468  34.295481 37.10858349999999 20.148115  34.645321 36.759541 19.994543  41.2 30.695934 24.432222  40.37097101924752 30.78596469150367 23.36416195384646  40.37097101924752 30.74259619150367 24.23496745384646  40.66223452264021 30.43436538310256 23.58770731446651  41.2 30.7393025 23.5614165  41.2 30.782671 22.690611  40.66223452264021 30.47773388310256 22.7169018144665  40.12446904528042 30.17279676620511 22.74319262893301  39.83320554188774 30.48102757460623 23.39045276831297  39.54194203849504 30.78925838300735 24.03771290769292  38.19100853850212 29.02083423744875 22.15009153016985  38.17820158718148 29.3422938251156 23.29630606009027  38.95738638261616 28.69256365867819 22.82967942857898  38.97019333393679 28.37110407101133 21.68346489865856  39.84315576523231 28.75301131735638 21.97871385715796  39.06397096979764 29.40274148379379 22.44534048866925  38.28478617436296 30.0524716502312 22.91196712018053  39.070057 29.752871 20.260126  38.79011208338692 29.99076108861441 20.81184892907894  38.02452230741604 29.53657784817263 20.67104605516565  38.22802608338692 29.93546008861441 20.49795642907894  38.507971 29.69757 19.9462335  37.74457739080296 29.77446793678705 21.2227689842446  37.46243630741603 29.48127684817263 20.35715355516565  38.51016716677385 30.22865117722883 21.36357185815789  34.833225 34.796238 18.974392  33.86547233865659 34.9761696241024 19.45317999759181  33.87631435088181 34.19358755016634 19.34229833065379  33.8
[...]
<PointData  Scalars="p"> 
<DataArray  type="Float64"  Name="p"  format="ascii">8.1582111082339654e+00  8.1607996992572556e+00  8.1430339631527779e+00  8.1691667101518046e+00  8.1791774153938679e+00  8.1605881377198113e+00  8.1457615715902012e+00  8.1527660590737661e+00  8.1687381145710187e+00  8.1335032701418299e+00  8.1795421466317819e+00  8.1953040203629204e+00  8.1615226863074124e+00  8.1629044705730234e+00  8.1501194743547707e+00  8.1945508050216400e+00  8.1804186469478832e+00  8.1655720662462414e+00  8.1913139282346563e+00  8.0696948372916033e+00  8.0603290742101983e+00  8.0772529650252523e+00  8.0727930815184834e+00  8.0803474512130009e+00  8.0870243959046011e+00  8.0689417917865942e+00  8.0926545900383076e+00  8.0530007726044079e+00  8.2309592441324408e+00  8.2518907408114544e+00  8.2448068090485851e+00  8.2613781922666369e+00  8.1919016111783183e+00  8.2305015858110764e+00  8.2015746783736798e+00  8.2252189364961179e+00  8.2077079236039978e+00  8.1252405476254665e+00  8.1189565377958033e+00  8.1302524191567205e+00  8.1067323286696134e+00  8.1143534408290829e+00  8.1028074789212425e+00  8.0958378770272059e+00  8.0880944844361178e+00  8.1101788948097688e+00  8.1348265377073741e+00  8.0000000000000018e+00  8.0135343532186418e+00  8.0188363998202057e+00  8.0000000000000018e+00  8.0000000000000000e+00  8.0143536781691171e+00  8.0207927452857923e+00  8.0336611342975566e+00  8.0297552831341079e+00  8.0268463907733860e+00  8.0198182019504269e+00  8.0334198588322554e+00  8.0299851036798024e+00  8.0333154738669563e+00  8.3813746736264552e+00  8.3534589382446072e+00  8.4104541511763262e+00  8.3834511771645861e+00  8.3289864115071914e+00  8.0523903320390122e+00  8.0429232922364857e+00  8.0535670268329458e+00  8.0511974750061359e+00  8.0445344296795032e+00  8.0408696775123012e+00  8.0491477824498219e+00  8.0514061765154548e+00  8.0538420837180382e+00  8.2047886492308102e+00  8.2232780822655815e+00  8.2306553470317354e+00  8.2187360167500927e+00  8.2000899294570289e+00  8.2342606176560853e+00  8.2475984031507998e+00  8.2138741004759357e+00  8.2546457695275333e+00  8.2078217251189649e+00  8.1689903987553283e+00  8.1676283729963437e+00  8.1850410253980073e+00  8.1621258997087551e+00  8.1484325874956394e+00  8.1471643205525623e+00  8.1313878852835764e+00  8.1335123763336146e+00  8.1367814599732213e+00  8.1225785055285300e+00  8.1437388298330404e+00  8.1356744320914931e+00  8.1253554159158146e+00  8.1449055785028825e+00  8.1519989284495260e+00  8.1322115558236572e+00  8.1133093420223261e+00  8.1147802678053047e+00  8.0705140659532351e+00  8.0761463341615549e+00  8.0631688766675644e+00  8.1079405304298646e+00  8.0000000000000000e+00  8.0286303597631967e+00  8.0586881703811244e+00  8.1018604667408205e+00  8.0460571838154102e+00  8.1913647032088281e+00  8.1716452234609296e+00  8.1630305778386081e+00  8.1935123217029613e+00  8.1712086649036895e+00  8.1628606597275279e+00  8.1490895309269664e+00  8.1230261155403873e+00  8.1352502785693019e+00  8.1424251706819160e+00  8.1423135042864594e+00  8.1300724680044159e+00  8.1347599701682594e+00  8.1231746905587450e+00  8.1116191404836879e+00  8.2650483132865382e+00  8.2981596772846427e+00  8.2614721709892045e+00  8.2862440609571895e+00  8.3032352431954894e+00  8.3171155947352915e+00  8.2795228228880156e+00  8.2895434837577699e+00  8.1768034772666915e+00  8.1776663052309964e+00  8.1542760019808149e+00  8.1696284918698669e+00  8.1602447301853829e+00  8.1462983441326777e+00  8.1910542871511431e+00  8.1621531981801265e+00  8.1325307581003941e+00  8.0400896173818985e+00  8.0548575958116562e+00  8.0494674914069702e+00  8.0413449026784622e+00  8.0445704356547818e+00  8.0544229416850861e+00  8.0474443364003747e+00  8.0603807824606371e+00  8.2485952605669848e+00  8.2287685034586247e+00  8.2204207448271571e+00  8.2579292408248364e+00  8.2231977910220113e+00  8.2013413418830918e+00  8.2257199782052428e+00  8.1978098156523025e+00  8.1938303181317433e+00  8.2450613256988632e+00  8.2325525023443831e+00  8.2162823168757519e+00  8.2269127269647271e+00  8.2627744886677696e+00  8.2790180440706429e+00  8.2009767040736019e+00  8.2416171418718260e+00  8.1594851201047849e+00  8.1550279441978795e+00  8.1676974995505773e+00  8.1485196456643401e+00  8.1665601301614767e+00  8.1485434563942860e+00  8.1603421495257820e+00  8.1734391679634228e+00  8.1366954302541163e+00  8.3056747833137159e+00  8.3387018587895589e+00  8.3271552561053372e+00  8.2924384131671296e+00  8.2816080058354657e+00  8.0000000000000000e+00  8.0257107868177417e+00  8.0257503197914595e+00  8.0169759279380735e+00  8.0000000000000000e+00  8.0000000000000000e+00  8.0178087223562837e+00  8.0341316816261195e+00  8.0407890148687819e+00  8.0464113273920717e+00  8.0845587761729973e+00  8.0767246486908650e+00  8.0585837478970941e+00  8.0648768952595784e+00  8.0413184664793373e+00  8.0625262744201311e+00  8.0814355705711343e+00  8.0871518228310446e+00  8.0906807317280851e+00  8.1112342933230899e+00  8.1112490407118827e+00  8.1074985724987023e+00  8.1139424574112571e+00  8.1314655471265453e+00  8.0938182028191363e+00  8.3178666917758335e+00  8.3410336252713080e+00  8.3350291494777657e+00  8.3638833160238892e+00  8.3766418814414649e+00  8.0000000000000000e+00  8.0000000000000000e+00  8.0000000000000000e+00  8.0136291782610751e+00  8.2965235794099765e+00  8.2806271351932725e+00  8.3202876908367536e+00  8.3038552715372305e+00  8.3142743361661022e+00  8.3009997674797003e+00  8.2871167285970557e+00  8.3248867508299114e+00  8.3388842043260407e+00  8.2637408891298225e+00  8.0145769815460977e+00  7.9999999999999991e+00  8.0000000000000018e+00  8.0000000000000000e+00  7.9999999999999991e+00  8.0141349085380238e+00  8.0000000000000000e+00  8.0629518794964969e+00  8.0665130822023769e+00  8.0629094621939164e+00  8.0562465002128256e+00  8.0690232929573948e+00  8.0739977086582186e+00  8.0770721337970208e+00  8.0829159850871015e+00  8.0430653430323886e+00  8.0519880918791458e+00  8.0507672620847082e+00  8.0516634555625970e+00  8.0526354258905730e+00  8.0533673725494719e+00  8.0466860254309953e+00  8.0477379551066388e+00  8.0442169917815569e+00  8.1467492656824980e+00  8.1383006418738617e+00  8.1609509230053945e+00  8.1494910551559698e+00  8.1406218955274277e+00  8.1198056176041895e+00  8.1288027741787285e+00  8.2036198988712172e+00  8.2353915764831580e+00  8.3164800229920743e+00  8.3405888210011270e+00  8.3780280547794064e+00  8.3414100432303595e+00  8.3066397159004239e+00  8.3565010982188621e+00  8.1310814907512992e+00  8.1344277598483021e+00  8.1627985083593568e+00  8.1278079508281476e+00  8.1083558595388432e+00  8.1181210207363126e+00  8.1390807643210916e+00  8.1194621904783570e+00  8.2270207498157699e+00  8.2090129257627460e+00  8.2266462148463599e+00  8.2395116137723896e+00  8.2170525565599419e+00  8.1992250579333206e+00  8.2055118060490138e+00  8.1887237369858870e+00  8.2471038957544440e+00  8.3433124563459007e+00  8.2809218574976509e+00  8.2732364494570199e+00  8.3129707867632590e+00  8.2989200746382110e+00  8.3045463343287462e+00  8.2609966852650718e+00  8.2733581623854295e+00  8.2854214174916034e+00  8.0532262733625224e+00  8.0499462332990639e+00  8.0485989695269069e+00  8.0328235160747763e+00  8.0245510780699547e+00  8.0422327652736509e+00  8.0437052017602273e+00  8.1753688149594907e+00  8.1918730176629015e+00  8.1757219157165348e+00  8.1783220422287588e+00  8.1753957869854510e+00  8.1914443912145654e+00  8.1445748956320188e+00  8.1294225928718689e+00  8.1461285126923997e+00  8.1174801096002387e+00  8.0912760456535278e+00  8.1053957345591137e+00  8.1023412786710285e+00  8.1067896358573304e+00  8.0946519690045768e+00  8.0943100765309399e+00  8.2712714606680855e+00  8.3289696954502723e+00  8.2875602313316108e+00  8.3027207965752794e+00  8.2962422552814878e+00  8.2647055045955575e+00  8.3279835364781363e+00  8.1989195680587752e+00  8.1839147124284253e+00  8.2187218755099067e+00  8.1896321979281304e+00  8.1228360119901044e+00  8.1329247264521811e+00  8.1090229515395098e+00  8.1207853168260122e+00  8.1351970265592293e+00  8.0528568932557736e+00  8.0490925345009678e+00  8.0519809685726891e+00  8.0504766158777894e+00  8.0909047804397378e+00  8.1086544932528017e+00  8.1058109541421359e+00  8.0871425595656810e+00  8.0000000000000000e+00  8.0168220673173280e+00  7.9999999999999991e+00  8.0000000000000000e+00  8.0000000000000000e+00  8.0000000000000000e+00  8.0175795517672679e+00  8.0263727303905217e+00  8.0244544224498124e+00  8.0000000000000000e+00  8.0000000000000018e+00  7.9999999999999991e+00  7.9999999999999991e+00  8.0643439988187531e+00  8.0568239185019248e+00  8.0732877404685421e+00  8.0574602049355910e+00  8.0651359867191896e+00  8.0657869715239610e+00  8.0633950441317062e+00  8.0719868552286531e+00  8.0960791235501404e+00  8.0880904307468651e+00  8.0984962468348911e+00  8.0943688271192045e+00  8.1000002554742725e+00  8.0933357974134736e+00  8.0914744029407988e+00  8.1027589496774279e+00  8.0856607435774439e+00  8.0866176700710959e+00  8.0847146596235309e+00  8.0751682982384612e+00  8.0796755436643366e+00  8.0706531274099422e+00  8.1454788226189443e+00  8.1161266988779541e+00  8.1387470660006986e+00  8.1392736320200978e+00  8.1233143078148355e+00  8.0968610517864548e+00  8.1138719781752098e+00  8.1345453895554236e+00  8.0750583140702261e+00  8.1659844007783118e+00  8.1612313498343099e+00  8.1799556248958751e+00  8.1710253318068435e+00  8.1875802509749374e+00  8.1576582000047022e+00  8.1646680505253197e+00  8.1469025385995106e+00  8.1421042732109381e+00  8.2077712983226547e+00  8.2042773352495679e+00  8.1865364775274223e+00  8.1838040057854542e+00  8.1613609385166193e+00  8.1685697440944622e+00  8.1725347330030775e+00  8.0000000000000000e+00  8.0237672773917410e+00  8.0246863314909174e+00  8.0211148426584060e+00  8.0000000000000000e+00  8.0000000000000000e+00  8.0000000000000000e+00  8.0000000000000000e+00  8.0000000000000000e+00  8.1730728334125242e+00  8.1510643568803598e+00  8.1555704806936653e+00  8.1439147103030525e+00  8.0402572266746883e+00  8.0368606180413433e+00  8.0648208710005687e+00  8.0554875819970597e+00  8.1187908820749382e+00  8.1094034261142678e+00  8.0194832826709650e+00  8.0218375680448908e+00  7.9999999999999991e+00  8.0379781658982807e+00  8.1762073348189794e+00  8.2044133341348022e+00  8.1758301525136226e+00  8.2022146239926208e+00  8.1927295865737353e+00  8.2152280018413730e+00  8.1881953156195273e+00  8.2342821052100614e+00  8.2246690713275470e+00  8.2268358899245193e+00  8.2588722971121662e+00  8.0000000000000000e+00  8.3404859768599504e+00  8.3370124093391524e+00  8.3232796228495598e+00  8.3026775322638802e+00  8.2855449258891483e+00  8.3222007181841153e+00  8.2948742311766299e+00  8.3078000742588269e+00  8.3622741979209465e+00  8.3240268447929129e+00  8.0597754841683340e+00  8.0568100870764319e+00  8.0585238867320808e+00  8.0907346709833465e+00  8.1045660006999523e+00  8.0964172813259996e+00  8.0800271006352347e+00  8.0875807368891781e+00  8.0988417400380559e+00  8.3022883049281191e+00  8.2915201618554839e+00  8.3354336980488295e+00  8.0966092241676471e+00  8.0783716148182609e+00  8.0911632348395575e+00  8.0902261910017472e+00  8.0619103570352202e+00  8.0577119117442635e+00  8.0469972435227408e+00  8.0464994793273359e+00  8.1978736157936183e+00  8.1838743112613717e+00  8.0347815623350325e+00  8.0216245642431101e+00  8.0000000000000000e+00  7.9999999999999991e+00  8.0237858397137956e+00  8.0000000000000000e+00  8.0207900773349081e+00  8.0243902453644580e+00  8.0238947013172428e+00  8.0242055449496998e+00  8.0330843378050467e+00  8.0334852127811160e+00  8.0326354809119316e+00  8.0324785160981271e+00  8.0330631991500105e+00  8.0340515181444427e+00  8.0225389005196188e+00  8.0310963390101193e+00  8.0292315621275367e+00  8.0329642843540050e+00  8.0327811817922932e+00  8.0425515504132026e+00  8.0412260474941419e+00  8.3039665216259895e+00  8.2923557289271095e+00  8.3263699996503497e+00  8.0367836681504610e+00  8.0261446426343284e+00  8.0240124534049055e+00  8.0398505037295500e+00  8.0443335595367849e+00  8.0411943179056724e+00  8.0403734967480531e+00  8.0407205890265843e+00  8.2396896948811147e+00  8.2117192379436847e+00  8.1962894774468147e+00  8.1567000991872316e+00  8.1177727440528322e+00  8.1442515795077224e+00  8.1373257608224350e+00  8.1309725767904570e+00  8.1233066396542117e+00  8.1833293840146357e+00  8.0451539191065589e+00  8.0442105647530102e+00  8.0343553099242637e+00  8.0396481248349811e+00  8.0431167597217197e+00  8.1142989912574262e+00  8.1023637085174265e+00  8.0937773545442369e+00  8.1230315169082008e+00  8.1070515099292351e+00  8.1301507775020294e+00  8.1020886754245822e+00  8.1162404306410636e+00  8.0872361725671560e+00  8.0972395007063849e+00  8.0813668628339084e+00  8.2601616972902328e+00  8.2747902838301357e+00  8.2466392529261245e+00  8.1854593766406296e+00  8.1788867420691247e+00  8.1899938661726956e+00  8.1912085224740565e+00  8.0214035862728057e+00  8.0214402864118455e+00  8.0364815187353784e+00  8.0387476585790605e+00  8.0382466509007102e+00  8.0361715242787071e+00  8.0201591449450085e+00  7.9999999999999991e+00  8.0000000000000000e+00  8.0212375525124724e+00  8.0329781242057461e+00  8.0173407059772668e+00  8.1233616806243827e+00  8.1155588301478137e+00  8.2801094872059053e+00  8.2684942168601694e+00  8.3633658553909012e+00  8.3454187465502976e+00  8.3456988695847372e+00  8.3672401239707934e+00  8.3726727774305623e+00  8.2104727709663106e+00  8.2243678928512711e+00  8.2201339078098972e+00  8.2075721365688867e+00  8.2422505348563888e+00  8.2266204739568600e+00  8.3582204373100897e+00  8.3576852461378373e+00  8.0501257961397883e+00  8.0694716220070397e+00  8.0687683982507732e+00  8.0743232704469534e+00  8.0865556560782021e+00  8.0657401300751701e+00  8.0695234311767106e+00  8.1385261169919456e+00  8.1681737217657489e+00  8.1439525309665779e+00  8.1261954948160291e+00  8.1537263544604759e+00  8.1171588429229633e+00  8.3663334297164216e+00  8.3259208492511991e+00  8.2875349559001990e+00  8.3263004672536827e+00  8.0558430276181880e+00  8.0495196375361555e+00  8.0397888210803057e+00  8.0434671128136888e+00  8.0577112553082362e+00  8.0623392150128748e+00  8.0336202492543318e+00  8.0235280369332038e+00  8.0226240585428741e+00  8.0251007940819665e+00  8.0000000000000000e+00  8.0000000000000000e+00  7.9999999999999991e+00  7.9999999999999991e+00  8.0454044701377061e+00  8.2657343912627272e+00  8.3030412179690423e+00  8.2657207736164686e+00  8.3289906702336989e+00  8.2402050031703133e+00  8.2363878634436656e+00  8.2567427420430981e+00  8.2157072595907366e+00  8.2287778573749240e+00  8.2215334760563401e+00  8.2101668310062976e+00  8.2569536570570907e+00  8.2444791129071469e+00  8.2621564901059372e+00  8.1492561721498102e+00  8.2522242180684628e+00  8.2698012080119501e+00  8.0186312466822258e+00  8.2473699903150397e+00  8.1944091153868630e+00  8.3074330382397097e+00  8.2828290037117576e+00  8.2364977179252001e+00  8.0717488815576797e+00  8.1066909100496360e+00  8.0986494553746269e+00  8.0987548942670333e+00  8.1067455699528477e+00  8.1187768546707844e+00  8.0559828612887419e+00  8.1264716305882239e+00  8.1360795584525398e+00  8.1232945879008867e+00  8.1480075912620986e+00  8.1343655804408428e+00  8.1552071057625177e+00  8.0774870248868176e+00  8.0707850104140633e+00  8.0800771920051542e+00  8.3468454624170452e+00  8.0332640533626360e+00  8.0000000000000000e+00  8.0000000000000018e+00  7.9999999999999991e+00  8.0430936764090788e+00  8.0583775505688937e+00  8.0536045229506037e+00  8.0367744070697924e+00  8.0000000000000000e+00  8.2750100257466404e+00  8.2639591807185635e+00  8.1324729710524437e+00  8.1597202555686490e+00  8.1871581648099347e+00  8.1561592958457165e+00  8.1596564563960428e+00  8.1713035227080102e+00  8.1696349574295883e+00  8.1335196138958796e+00  8.1060645986415523e+00  8.3143713788513693e+00  8.2809653324099077e+00  8.0600483777517038e+00  8.0512319796701046e+00  8.0534828980349236e+00  8.0000000000000000e+00  8.0206711820800027e+00  8.0000000000000000e+00  8.2724534456970034e+00  8.0171462142804835e+00  8.0395449882411114e+00  8.0617249709574974e+00  8.0608826791331829e+00  8.0416151596957448e+00  8.3553547786542541e+00  8.1166624225032304e+00  8.1325727847349931e+00  8.2042482391611387e+00  8.2029655726696848e+00  8.1838345092558811e+00  8.1881323632034952e+00  8.1846468894230906e+00  8.1838494572096820e+00  8.1883695355747612e+00  8.1268579482693521e+00  8.1875075313594241e+00  8.1922566184699050e+00  8.1991622780230689e+00  8.2056373955424231e+00  8.1826107143614255e+00  8.2176131564620221e+00  8.1994338648602394e+00  8.1760268902225111e+00  8.0863655724899033e+00  8.0683499964023770e+00  8.0738742394873082e+00  8.0623544404654179e+00  8.1371467182677133e+00  8.3749360038464467e+00  8.3497270989409387e+00  8.3560400615551842e+00  8.1440992330400395e+00  8.1588237971871749e+00  8.1707526834403623e+00  8.1741377537678996e+00  8.1424165731159235e+00  8.1605188499406260e+00  8.1833730425929083e+00  8.3872460413870691e+00  8.0147199767393822e+00  8.0193448364683046e+00  7.9999999999999991e+00  8.1804548351258841e+00  8.1756190868241472e+00  8.1825597711996352e+00  8.1419085264589093e+00  8.1597786580612510e+00  8.1527803186604064e+00  8.3664641157902828e+00  8.3743774602394812e+00  8.1374915757075268e+00  8.2537281981437527e+00  8.2260861576565176e+00  8.2608017960906679e+00  8.2346633429291813e+00  8.2900474339356531e+00  8.2982249714000194e+00  8.3123361309960959e+00  8.2174442264005005e+00  8.2113676133031639e+00  8.2382966685619454e+00  8.2556036453629762e+00  8.1607158604455474e+00  8.0762259726499241e+00  8.0789338739558456e+00  8.1112891803851905e+00  8.0987093079054286e+00  8.1079054178868759e+00  8.0912853754170317e+00  8.1492506076122559e+00  8.1611008566693197e+00  8.1456256692872824e+00  8.1354581474556795e+00  8.1902072547599811e+00  8.1752255251598349e+00  8.2939216580970410e+00  8.1939479423808326e+00  8.1891448473095121e+00  8.1720188610452968e+00  8.1149100605290787e+00  8.1263062205844179e+00  8.2414537443269129e+00  8.2198375917141497e+00  8.2553507276143083e+00  8.2528357966600510e+00  8.1845578548507429e+00  8.1696167745800850e+00  8.1950048093893155e+00  8.1876502946292753e+00  8.2046871862069040e+00  8.1652317582340235e+00  8.1784525179403875e+00  8.1949589272700596e+00  8.2058238243884940e+00  8.1769188413196083e+00  8.1861473598301462e+00  8.1690859479127536e+00  8.1641017007886418e+00  8.1768253556354242e+00  8.2071493804702076e+00  8.0187259764450598e+00  8.1810982009644633e+00  8.2275457610718075e+00  8.1907783493743924e+00  8.2133033636065438e+00  8.1996117680077791e+00  8.1504960981276859e+00  8.2185835362992954e+00  8.2386172297896429e+00  8.2470626016650890e+00  8.3734535463186415e+00  8.3496296547619622e+00  8.3823343147589195e+00  8.2531394447072532e+00  8.2630258358405317e+00  8.1538676658134186e+00  8.1859576513848431e+00  8.1743349499041855e+00  8.3839961334587461e+00  8.1479918918383571e+00  8.1617217883696860e+00  8.1712209449387032e+00  8.1495924112797056e+00  8.2548757675577811e+00  8.2567950662344014e+00  8.1472217107530209e+00  8.1533689857849705e+00  8.1681473448829429e+00  8.1545169671659110e+00  8.1466835287717760e+00  8.1633714890514870e+00  8.0000000000000000e+00  8.0000000000000000e+00  8.0405015331211693e+00  8.0428366510664056e+00  8.2251266452052043e+00  8.0508497395539234e+00  8.0246936587624003e+00  8.0591635674565509e+00  8.0491343613529143e+00  8.2098093254766624e+00  8.4375055596858353e+00  8.1855641497910590e+00  8.2031245752585686e+00  8.1916455171605254e+00  8.1903702402667626e+00  8.1270082423921028e+00  8.2108789768793535e+00  8.2674854287947337e+00  8.2285294818199599e+00  8.0582975362340346e+00  8.0467967431099972e+00  7.9999999999999991e+00  8.0977440339576230e+00  8.1031248613889968e+00  8.0396442357899591e+00  7.9999999999999991e+00  8.1384294403021453e+00  8.1274038701462583e+00  8.3134378129933371e+00  8.2946929701808720e+00  8.2900783715396678e+00  8.1154851813747761e+00  8.1201384162520860e+00  8.1195772150402519e+00  8.1261483150551967e+00  8