<?xml version="1.0"?>
<VTKFile type="UnstructuredGrid"  version="0.1"  >
<UnstructuredGrid>
<Piece  NumberOfPoints="7015" NumberOfCells="31538">
<Points>
<DataArray  type="Float64"  NumberOfComponents="3"  format="ascii">36.810017 29.074205 10.62728  37.1531113774539 27.73013371844148 11.10221522952409  36.53101265451749 28.25078593514135 10.90070198848337  36.95900170935188 28.83029460636946 11.59512413271642  36.25200830903498 27.4273668702827 11.17412397696673  38.525322 28.112049 6.419637  39.28746560111676 28.21032955197361 6.832109463384894  39.12685654892708 28.71328461482437 7.063869725996422  38.61944137127524 28.13110104463193 7.188052361937594  38.71356074255049 28.15015308926386 7.956467723875187  39.38158497239201 28.22938159660554 7.600524825322488  39.22097592020232 28.73233665945631 7.832285087934016  39.72839109785415 29.31452022964875 7.708102451992845  39.88900015004384 28.81156516679798 7.476342189381317  40.04960920223353 28.30861010394722 7.244581926769788  33.953434 25.093884 4.681419  33.99592013197031 24.24097794375349 4.47084902652508  33.30086191078669 24.66505438381592 4.295610925029544  34.100996 24.829283 4.1357425  34.248558 24.564682 3.590066  33.343348042757 23.81214832756941 4.085040951554624  34.14348213197031 23.97637694375349 3.92517252652508  33.44842391078669 24.40045338381592 3.749934425029544  32.64828982157338 24.23622476763184 3.909802850059088  34.03840626394062 23.38807188750699 4.26027905305016  33.68222059901212 23.90275078444206 4.880548993800147  33.63973446704181 24.75565684068856 5.091118967275067  32.9871623778285 24.32682722450448 4.705310892304611  33.32603493408362 24.41742968137712 5.500818934550134  34.631966 25.253912 5.662713  34.83095667081435 25.17904320288991 6.57433751331579  34.78514617081436 25.84198320288991 6.63530451331579  34.30047367081436 25.33979170288991 6.25984201331579  35.162449 25.0931635 5.9772085  35.1166385 25.7561035 6.038175499999999  35.601311 26.258295 6.413638  35.6471215 25.595355 6.352671  35.692932 24.932415 6.291704  33.96898134162871 25.42567140577983 6.85697102663158  33.06551127124527 23.78577706987952 4.564784826603923  33.4043838275004 23.87637952675216 5.360292868849446  33.76056949242889 23.36170062981709 4.740022928099458  33.48273272091716 23.3353293721272 5.219766803148758  31.418039 24.150564 5.401371  32.14638391078669 23.56272788381592 4.575216425029544  32.67292291078669 23.95109338381592 4.927532425029543  32.03316441078669 24.19339438381592 4.655586925029544  32.171017 23.2775965 5.592946  31.5312585 23.5198975 5.3210005  32.0577975 23.908263 5.6733165  32.697556 23.665962 5.945262  31.644478 22.889231 5.24063  36.202076 27.678892 6.428353  36.78599903103902 27.43240984282246 7.150577300199366  35.99572603211382 27.48045721523434 7.414197637990934  36.5627785 27.1694975 6.6694985  36.923481 26.660103 6.910644  37.14670153103902 26.92301534282245 7.391722800199365  36.35642853211382 26.97106271523434 7.655343137990934  35.78937606422763 27.28202243046868 8.400042275981869  36.57964906315284 27.23397505805679 8.136421938190299  37.36992206207804 27.18592768564491 7.872801600398731  32.37203696704181 24.28399684068856 5.451094967275067  32.01720299999999 24.3360335 5.842468999999999  32.616367 24.521503 6.283567  33.01179546704181 24.04169584068856 5.723040467275067  32.97120096704181 24.46946634068856 5.892192967275067  32.65696149999999 24.0937325 6.1144145  33.877686 24.023502 7.055488  34.18147709385971 24.63098356484957 6.39580279598494  33.64750813785616 24.92155054357848 6.178894980590857  33.60186046704181 24.22046584068856 6.278153467275067  34.13582942304537 23.92989886195966 6.49506128266915  33.92333367081435 24.72458670288992 6.95622951331579  33.86000389008717 24.12686270264822 5.717726749944218  34.39397284609073 23.83629572391931 5.934634565338301  41.2 30.028587 8.212524  40.46419554892708 29.89779011482437 7.346455225996422  40.46419554892708 29.67155361482438 7.960313225996423  41.2 29.69139 7.644906000000001  41.2 30.2548235 7.598666  41.2 30.48106 6.984808  41.2 29.9176265 7.031048  41.2 29.354193 7.077288  40.46419554892708 29.33435661482437 7.392695225996423  38.747601 30.53565 8.876651000000001  38.45507855428167 29.50469691126433 8.656005104250731  39.23799604892707 29.92508511482438 8.292376725996423  38.33989605428167 30.05801091126433 8.374436104250732  38.86278350000001 29.982336 9.15822  38.977966 29.429022 9.439788999999999  39.35317854892708 29.37177111482438 8.573945725996422  37.93219110856333 29.58037182252866 7.872221208501464  38.83029110320874 29.44744602608871 7.790161830247154  39.53718811251871 29.57991528331262 9.130921662272375  39.45559896540169 29.23548279593948 9.107793813294546  39.93323193080337 29.04194359187897 8.775798626589092  39.91240066144577 29.522664398137 8.265078388268797  39.83081151432876 29.17823191076386 8.241950539290968  40.01482107792039 29.38637607925211 8.798926475566923  40.0964102250374 29.73080856662524 8.822054324544752  32.366772 23.095224 0.913358  33.67579140466985 23.76590413645311 1.551447296587356  33.74393415466984 22.93283888645311 1.688988796587357  32.86810265466985 23.21217488645311 1.689029796587357  33.2426035 22.815888 0.9133169999999999  33.17446074999999 23.64895325 0.7757755  34.118435 22.536552 0.913276  34.05029225 23.36961725 0.7757345  33.9821495 24.2026825 0.638193  33.3694333093397 23.32912577290622 2.464701593174713  34.60626963197031 23.62731094375349 3.50555802652508  34.781847 24.1759795 3.9031855  41.2 28.528643 7.895288  40.62480460111676 28.83140155197361 7.160934963384895  40.62480460111676 28.41862655197361 7.569934963384894  41.2 28.464101 7.2599815  41.2 28.941418 7.486288  41.2 28.876876 6.8509815  41.2 28.399559 6.624675  40.62480460111676 28.35408455197361 6.934628463384894  39.95028542835229 28.53380280882055 7.907460942677205  39.99142056651846 28.67527684791309 8.01019027667944  40.0527058448269 28.39751448993566 8.441309029975329  40.17217975885042 27.75308538799235 8.106819433361565  40.11089448054197 28.03084774596978 7.675700680065677  35.48695240687825 25.64876922038939 7.168611516673725  36.10256 25.80062 6.6212295  33.0731735 23.905936 6.324572  33.42800746704181 23.85389934068856 5.933197967275067  33.113768 23.4781655 6.1554195  33.52998 23.290369 6.365577  39.44287025070045 27.9516192386281 8.031643578618375  38.22875655428167 28.84621041126433 7.145929104250731  38.8338125 28.7740785 6.263001  39.142303 29.436108 6.106365  39.43534704892707 29.37531411482438 6.907233725996423  38.53724705428166 29.50823991126433 6.989293104250732  39.1939915 28.1839265 6.4708965  39.502482 28.845956 6.3142605  39.862661 28.255804 6.522156  39.79552604892707 28.78516211482437 7.115129225996423  39.16266673420874 27.93832460557958 6.555741137102462  39.9248103353255 28.03660515755319 6.968213600487356  39.95613510111677 28.28220705197361 6.883368963384894  39.83133623420873 28.01020210557958 6.607000637102463  39.80001146841747 27.76460021115917 6.691845274204925  32.56360536045858 23.1122801860636 5.230198401574379  32.20093971842041 22.51371907712024 4.656325466437139  32.75740143684083 22.13820715424047 4.072020932874276  33.120067078879 22.73676826318383 4.645893868011517  32.7028456292071 23.18721596093616 3.990911891466682  37.75557448503734 28.32181559366545 7.114046516410366  37.84969385631258 28.34086763829738 7.88246187834796  38.32287592555691 28.86526245589626 7.914344466188325  37.45900903931901 29.05597700492978 7.840338620661099  36.98582697007468 28.53158218733089 7.808456032820732  34.561592 24.335407 4.828886  34.02216236045858 23.8353681860636 5.024326401574379  34.29999913197031 23.86173944375349 4.54458252652508  33.94381346704181 24.37641834068856 5.164852467275066  33.09014436045858 23.5006456860636 5.582514401574379  40.50000573420874 28.08207960557958 6.658260137102463  40.5313305 28.3276815 6.573415499999999  36.59395148503734 28.10523709366545 7.118404516410367  36.38760151715115 27.90680230889978 8.104249154401302  37.17787451607636 27.8587549364879 7.840628816609732  40.46419554892708 28.92158161482438 7.801695225996422  33.703833 23.6569355 6.7105325  33.96197642304536 23.56333236195966 6.150105782669151  37.884331 29.760185 9.159685  37.82742446546566 28.90266008897382 8.592521789573519  37.803494411184 28.9925666777095 9.236253685322787  38.29894587127525 28.95516904463193 8.558076361937594  37.90826105428167 29.67027841126433 8.515953104250732  38.21810928245924 28.18755072234143 8.634645047260381  37.72265782236799 28.22494835541899 9.312822370645573  40.58690025 30.38158925 7.76469775  40.58690025 30.15535275 8.37855575  39.9738005 30.2821185 8.5445875  39.85109579892708 29.79831936482438 8.126344975996423  35.69534353211382 26.77015871523434 7.406840137990935  35.9016935 26.9685935 6.4209955  36.262396 26.459199 6.662141  33.70391978664016 23.35859883020661 3.362490323112437  33.80899565466985 23.94690388645311 3.027383796587356  33.00886156545654 23.78267527026903 3.187252221616901  39.51774446168415 27.11608029001257 6.952169539663114  39.78367683195884 27.71234519697989 7.098375733216451  39.84496211026729 27.43458283900246 7.529494486512339  39.11565260211732 27.63311668963821 7.454318631769151  34.257513 24.7146455 4.755152499999999  36.817665 27.6288605 6.5908625  37.433254 27.578829 6.753372  37.40158803103902 27.38237834282246 7.313086800199365  37.20954048503734 28.05520559366545 7.280914016410366  36.75601694329781 27.75348539294384 8.856432323313722  36.51067282854602 27.14846360662154 9.199768434669092  37.54628994222301 27.70543802053195 8.592811985522152  37.30094582747122 27.10041623420965 8.936148096877522  37.23196959286442 27.0149047827744 9.999494593356314  37.4773137076162 27.61992656909669 9.656158482000944  34.62513990687825 24.53137272038939 7.489536516673725  34.785309 24.4779585 6.673596  35.53276290687825 24.98582922038939 7.107644516673726  35.37259381375649 25.03924344077878 7.923585033347451  34.67078757769259 25.2324574232793 7.39027802998951
[...]
<PointData  Scalars="p"> 
<DataArray  type="Float64"  Name="p"  format="ascii">8.0017588900409660e+00  8.0017619719192723e+00  8.0017628546439479e+00  8.0017379604938856e+00  8.0017669557327764e+00  8.0018102922381136e+00  8.0018083158046185e+00  8.0018075291806028e+00  8.0018094562477167e+00  8.0018060489397076e+00  8.0018064042370352e+00  8.0018046901032971e+00  8.0018050117515855e+00  8.0018055211770385e+00  8.0018064283934489e+00  8.0019173456866497e+00  8.0019296713760042e+00  8.0019317450794993e+00  8.0019318035297751e+00  8.0019411983793773e+00  8.0019417928255230e+00  8.0019387467944387e+00  8.0019412358626774e+00  8.0019458006458422e+00  8.0019382282204248e+00  8.0019277579700585e+00  8.0019144438846705e+00  8.0019309371112541e+00  8.0019139173957274e+00  8.0018868313821674e+00  8.0018709963748300e+00  8.0018604776129028e+00  8.0018781402549806e+00  8.0018786861566760e+00  8.0018652658690339e+00  8.0018475679049548e+00  8.0018586453697136e+00  8.0018719773401159e+00  8.0018690069741893e+00  8.0019381306255593e+00  8.0019229549495439e+00  8.0019343463930710e+00  8.0019307868785639e+00  8.0019398785629097e+00  8.0019499071640574e+00  8.0019350581415605e+00  8.0019424850021696e+00  8.0019421409028908e+00  8.0019495887474310e+00  8.0019326033862832e+00  8.0019253179689720e+00  8.0019571407030430e+00  8.0018254819828094e+00  8.0018209105798803e+00  8.0018243195767003e+00  8.0018258120949302e+00  8.0018275790380038e+00  8.0018222994133765e+00  8.0018248127255003e+00  8.0018176340952039e+00  8.0018172901865245e+00  8.0018164908566973e+00  8.0019257754287345e+00  8.0019226727291972e+00  8.0019036104454830e+00  8.0019186076082818e+00  8.0019091965718978e+00  8.0019151218435347e+00  8.0018859714549091e+00  8.0018874676229572e+00  8.0018911477615600e+00  8.0019005459824832e+00  8.0018970793835482e+00  8.0018767774039965e+00  8.0019099406599636e+00  8.0019063513478805e+00  8.0018058407218877e+00  8.0018063197732179e+00  8.0018050954440501e+00  8.0018057879441109e+00  8.0018064913284235e+00  8.0018073054605612e+00  8.0018064365330961e+00  8.0018058709766500e+00  8.0018056995790161e+00  8.0018044809343145e+00  8.0018007602026113e+00  8.0018039148802647e+00  8.0018042626589558e+00  8.0018003353602989e+00  8.0017896997530773e+00  8.0018007940807223e+00  8.0018062174323425e+00  8.0018053121295534e+00  8.0017992228010204e+00  8.0017948847453351e+00  8.0017987351966564e+00  8.0018035728684520e+00  8.0018027195046066e+00  8.0018016183876206e+00  8.0018030738776140e+00  8.0019749875918489e+00  8.0019600683835321e+00  8.0019588617538471e+00  8.0019664251612834e+00  8.0019636751285610e+00  8.0019662856029576e+00  8.0019570426378195e+00  8.0019598476085712e+00  8.0019626275113307e+00  8.0019581937439810e+00  8.0019431443817588e+00  8.0019378188169732e+00  8.0018042233993789e+00  8.0018058183798129e+00  8.0018051647174726e+00  8.0018056749729212e+00  8.0018053122512374e+00  8.0018059019778853e+00  8.0018061230028774e+00  8.0018062744314662e+00  8.0018039714778268e+00  8.0018033790156764e+00  8.0018004627452708e+00  8.0018047647248576e+00  8.0018057635008688e+00  8.0018509210667546e+00  8.0018480276759263e+00  8.0019101336852128e+00  8.0019140927028882e+00  8.0019206728066035e+00  8.0019158663326966e+00  8.0018051605349410e+00  8.0018090021646309e+00  8.0018090188259254e+00  8.0018086708261595e+00  8.0018072057527885e+00  8.0018083285352049e+00  8.0018086585508499e+00  8.0018076623335883e+00  8.0018073617495542e+00  8.0018064802266675e+00  8.0018091482825824e+00  8.0018074445014715e+00  8.0018070687498621e+00  8.0018077113050463e+00  8.0018082435553541e+00  8.0019429131858004e+00  8.0019590543676404e+00  8.0019594716215874e+00  8.0019463886761297e+00  8.0019534230572642e+00  8.0018116311003968e+00  8.0018078448354792e+00  8.0018054170885460e+00  8.0018075987689841e+00  8.0018104962392140e+00  8.0019204258883541e+00  8.0019240309426838e+00  8.0019300868528500e+00  8.0019158741334433e+00  8.0019279975495738e+00  8.0018067010084728e+00  8.0018064881441227e+00  8.0018180438144348e+00  8.0018134928266846e+00  8.0018126117325341e+00  8.0018045209926072e+00  8.0019015188756981e+00  8.0019101484944777e+00  8.0017994606860441e+00  8.0018011796264314e+00  8.0017936066367650e+00  8.0018005819510929e+00  8.0018029600468044e+00  8.0018012743330669e+00  8.0017933576933089e+00  8.0018064595523821e+00  8.0018055338409582e+00  8.0018049720604889e+00  8.0018045560203408e+00  8.0018330713985364e+00  8.0018348577469105e+00  8.0018364005848266e+00  8.0019494494666201e+00  8.0019496652395361e+00  8.0019540701090595e+00  8.0018117699238775e+00  8.0018084600609249e+00  8.0018090410617138e+00  8.0018097037933931e+00  8.0019188714077458e+00  8.0018202126744047e+00  8.0018163779197806e+00  8.0018173360971350e+00  8.0018143665496932e+00  8.0018048753850284e+00  8.0018058781404946e+00  8.0018059289632948e+00  8.0018076840585746e+00  8.0017930589242994e+00  8.0017922276842857e+00  8.0018661648146772e+00  8.0018808636085836e+00  8.0018613762274704e+00  8.0018501328736527e+00  8.0018584064458089e+00  8.0018023263127294e+00  8.0018103356425261e+00  8.0017983620937834e+00  8.0018011851123330e+00  8.0019750031864039e+00  8.0019666420986173e+00  8.0019666271570191e+00  8.0019661283680765e+00  8.0019744823403496e+00  8.0019608564866918e+00  8.0017956337336731e+00  8.0018025101905010e+00  8.0018074854925629e+00  8.0018068001872802e+00  8.0018124514806246e+00  8.0018116245361313e+00  8.0018125705422865e+00  8.0018162308634242e+00  8.0018172238126226e+00  8.0018118143492778e+00  8.0018049727491469e+00  8.0018043738678895e+00  8.0018076807473424e+00  8.0018070304962716e+00  8.0018069527139204e+00  8.0018065185635709e+00  8.0018039612445104e+00  8.0018029509570958e+00  8.0018044884551536e+00  8.0018067386135687e+00  8.0018035028183334e+00  8.0018050369634626e+00  8.0019559702190346e+00  8.0018104373844672e+00  8.0018143727296049e+00  8.0018138716062435e+00  8.0018118641662621e+00  8.0018106739677872e+00  8.0019554833529227e+00  8.0019515113372481e+00  8.0019557565430599e+00  8.0017927992585385e+00  8.0019496192999000e+00  8.0018038050002840e+00  8.0018021783961881e+00  8.0018071272622500e+00  8.0018068065180437e+00  8.0018075040565737e+00  8.0018064793464792e+00  8.0019700628185078e+00  8.0019636909871146e+00  8.0019642594411895e+00  8.0019719794946216e+00  8.0019013430398545e+00  8.0019039816506794e+00  8.0019019095391126e+00  8.0019585435589171e+00  8.0019189280651464e+00  8.0019234903353151e+00  8.0018083096975410e+00  8.0018096009679009e+00  8.0018905298372704e+00  8.0018069614335410e+00  8.0018075589863589e+00  8.0019326148875791e+00  8.0019681256143773e+00  8.0018087533189011e+00  8.0018178300865248e+00  8.0019059561659454e+00  8.0018944984863793e+00  8.0017896592424602e+00  8.0018062260051419e+00  8.0019343006508468e+00  8.0019291459453488e+00  8.0019336368967551e+00  8.0019395474938868e+00  8.0019481336479110e+00  8.0017769986351599e+00  8.0018188467368727e+00  8.0018149887014403e+00  8.0018211174685128e+00  8.0018216777338793e+00  8.0017933438676749e+00  8.0017724052146892e+00  8.0017866154469974e+00  8.0017790004479679e+00  8.0017802364228778e+00  8.0017871103320033e+00  8.0017924387017700e+00  8.0017855659126962e+00  8.0018058890116404e+00  8.0018063252973359e+00  8.0019122093278554e+00  8.0018975438967086e+00  8.0018848723524112e+00  8.0018963214198493e+00  8.0020858252960245e+00  8.0020839689153931e+00  8.0020987421704532e+00  8.0020905054097700e+00  8.0020718035573388e+00  8.0020966894250574e+00  8.0021042128793063e+00  8.0020735579291156e+00  8.0020574556032109e+00  8.0021108764172766e+00  8.0018207776009564e+00  8.0018207141675308e+00  8.0018196733522409e+00  8.0018196759184637e+00  8.0018183746465681e+00  8.0018192786263000e+00  8.0018183759400436e+00  8.0018185069910892e+00  8.0018194296226159e+00  8.0018206049753573e+00  8.0017631545094172e+00  8.0017660817125158e+00  8.0017477586329946e+00  8.0017570630525672e+00  8.0017621217167711e+00  8.0017672170925422e+00  8.0017455472133161e+00  8.0017349504226800e+00  8.0017555906414426e+00  8.0017717345360726e+00  8.0018038714013660e+00  8.0018052283413663e+00  8.0018015416431432e+00  8.0018053005538743e+00  8.0018076823955031e+00  8.0018104685254041e+00  8.0018085034050284e+00  8.0018066223058426e+00  8.0018034646979270e+00  8.0017997918252348e+00  8.0018869339704164e+00  8.0018895806535806e+00  8.0018926353656123e+00  8.0018800173726934e+00  8.0018839733374563e+00  8.0018785847613181e+00  8.0018755551025897e+00  8.0018739748637504e+00  8.0018885177536703e+00  8.0019013653409736e+00  8.0018217298918035e+00  8.0018213717515057e+00  8.0018223434221145e+00  8.0018218022077594e+00  8.0018213386062218e+00  8.0018210950345505e+00  8.0018218640732108e+00  8.0018213334505237e+00  8.0018220168899266e+00  8.0018225664339706e+00  8.0020183922269901e+00  8.0020421468989085e+00  8.0020266848421091e+00  8.0020356294607691e+00  8.0020558164504596e+00  8.0020546595046582e+00  8.0020613825719629e+00  8.0020467216385320e+00  8.0020366155989997e+00  8.0020657825583150e+00  8.0017446752710004e+00  8.0017514698011034e+00  8.0017322344792294e+00  8.0017558697625706e+00  8.0017609453351692e+00  8.0017679959031067e+00  8.0017502049991993e+00  8.0017691858186293e+00  8.0017727499203790e+00  8.0017271039646864e+00  8.0018067026960455e+00  8.0018113286821961e+00  8.0018085550186520e+00  8.0018070290673169e+00  8.0018104413427000e+00  8.0018123014565159e+00  8.0018101750539863e+00  8.0018080668870013e+00  8.0018091932082420e+00  8.0018103754053804e+00  8.0018357308799004e+00  8.0018327827561411e+00  8.0018380036079080e+00  8.0018337247654081e+00  8.0018344450442171e+00  8.0018410094456840e+00  8.0018447112346820e+00  8.0018382961880388e+00  8.0018330375962350e+00  8.0018310149277561e+00  8.0019321742604621e+00  8.0019416397772449e+00  8.0019251880988449e+00  8.0019329559495862e+00  8.0019328415442583e+00  8.0019403151475750e+00  8.0019249508324464e+00  8.0019155044679451e+00  8.0019297428128695e+00  8.0019454528098528e+00  8.0020757023532774e+00  8.0020450041425075e+00  8.0020453765024619e+00  8.0020701781875818e+00  8.0020660748847785e+00  8.0020528989478290e+00  8.0020297555157800e+00  8.0020630946456066e+00  8.0020585279102452e+00  8.0018201729116392e+00  8.0018202042141642e+00  8.0018202206569580e+00  8.0018202065033073e+00  8.0018202223534747e+00  8.0018202315663984e+00  8.0018202472745816e+00  8.0018203112110129e+00  8.0018202795095981e+00  8.0018202484459060e+00  8.0021523589051320e+00  8.0021562574164520e+00  8.0021489468692053e+00  8.0021524502937407e+00  8.0021589830511122e+00  8.0021545490344170e+00  8.0021502065635506e+00  8.0021605510751925e+00  8.0021674628761783e+00  8.0021455155607928e+00  8.0018828472796777e+00  8.0018784938858545e+00  8.0019006552032224e+00  8.0018773072971410e+00  8.0018853675802823e+00  8.0019003412149754e+00  8.0018851730175857e+00  8.0018938934668586e+00  8.0018439201167180e+00  8.0018403651896470e+00  8.0018373389732353e+00  8.0018451403120086e+00  8.0018382999164537e+00  8.0018353685352697e+00  8.0018343888469516e+00  8.0018201884415419e+00  8.0018201922761776e+00  8.0018202721073362e+00  8.0018203279771871e+00  8.0018204520548277e+00  8.0018203220965400e+00  8.0018203687201268e+00  8.0018202779737901e+00  8.0018202066111943e+00  8.0021191843009412e+00  8.0021268114493882e+00  8.0021168811953469e+00  8.0021235552528474e+00  8.0021281151984098e+00  8.0021306622733714e+00  8.0021202226282639e+00  8.0021168324856795e+00  8.0021241417942868e+00  8.0021322876113441e+00  8.0018183866224390e+00  8.0018129371455800e+00  8.0018154572491405e+00  8.0018144015140749e+00  8.0018148737239532e+00  8.0018117255279559e+00  8.0018124437332006e+00  8.0018121606613271e+00  8.0018126475413371e+00  8.0018110665972273e+00  8.0021101022949903e+00  8.0021080016872066e+00  8.0021089490911024e+00  8.0021103706957391e+00  8.0021077101431288e+00  8.0021084815553181e+00  8.0021064450650208e+00  8.0021060024652915e+00  8.0021052772359873e+00  8.0021106902573447e+00  8.0018607522388088e+00  8.0018688535139333e+00  8.0018663359089430e+00  8.0018724113751496e+00  8.0018786660911108e+00  8.0018781021261347e+00  8.0018707088106122e+00  8.0018726236656370e+00  8.0018742988377625e+00  8.0021348252618552e+00  8.0021400664592850e+00  8.0021343733068644e+00  8.0021394418600558e+00  8.0021312621457703e+00  8.0021351768110414e+00  8.0021304868582135e+00  8.0021249485547692e+00  8.0021354333267265e+00  8.0021276291478145e+00  8.0021255299656175e+00  8.0021260506858791e+00  8.0021248167126071e+00  8.0021270437497769e+00  8.0021261636353138e+00  8.0021236491912688e+00  8.0021209051665689e+00  8.0021231926021557e+00  8.0021241778287067e+00  8.0021163864724940e+00  8.0021129804241493e+00  8.0021134694549492e+00  8.0021170220390871e+00  8.0021177460936137e+00  8.0021138921903532e+00  8.0021144863684910e+00  8.0021103450748523e+00  8.0021100743810969e+00  8.0018254539594409e+00  8.0018253364574967e+00  8.0018238399327188e+00  8.0018285932203348e+00  8.0018284585587942e+00  8.0018322894022518e+00  8.0018314134066575e+00  8.0018299486162778e+00  8.0018251772797040e+00  8.0018218533828822e+00  8.0018203431019135e+00  8.0018203005859565e+00  8.0018203428244874e+00  8.0018202444270639e+00  8.0018202877193243e+00  8.0018202590881948e+00  8.0018202270444725e+00  8.0018201857270661e+00  8.0018202391850082e+00  8.0018203347504322e+00  8.0021246649493811e+00  8.0021219913422463e+00  8.0021283378475498e+00  8.0021191193684658e+00  8.0021289926053125e+00  8.0021252060473991e+00  8.0021196835555024e+00  8.0021340080023045e+00  8.0021129182373709e+00  8.0021112864573070e+00  8.0021120901133802e+00  8.0021111779419449e+00  8.0021116859315953e+00  8.0021120578050144e+00  8.0021132390342373e+00  8.0021126655235513e+00  8.0021122921433196e+00  8.0021117715250760e+00  8.0021110940060449e+00  8.0017107934111795e+00  8.0017206936389496e+00  8.0016913736655280e+00  8.0017132664888759e+00  8.0017332990522902e+00  8.0017464977647972e+00  8.0017266271432312e+00  8.0016979108105470e+00  8.0016744096350276e+00  8.0022088728527656e+00  8.0021951766036405e+00  8.0022141523880475e+00  8.0022025262334999e+00  8.0021978107308875e+00  8.0021909376379661e+00  8.0022092870505244e+00  8.0022175612159483e+00  8.0021992915906388e+00  8.0021832009350291e+00  8.0018505344480726e+00  8.0018385253824249e+00  8.0018394934329109e+00  8.0018395570412046e+00  8.0018483964916083e+00  8.0018322630930179e+00  8.0018320635561917e+00  8.0018262514092608e+00  8.0018362919715749e+00  8.0018313909229448e+00  8.0018289914374314e+00  8.0018352220924438e+00  8.0018404070500377e+00  8.0018288838843148e+00  8.0018330493767298e+00  8.0018464423178202e+00  8.0018302879374463e+00  8.0018341394756103e+00  8.0018389942685939e+00  8.0018318721632191e+00  8.0018372854053048e+00  8.0018329077018286e+00  8.0018461298577321e+00  8.0018395512524805e+00  8.0018345603547818e+00  8.0021317692603411e+00  8.0021292707599105e+00  8.0021306996624197e+00  8.0021325658755398e+00  8.0021272328894284e+00  8.0021285004324216e+00  8.0021302487517278e+00  8.0021283384236650e+00  8.0021254193261484e+00  8.0021340429918855e+00  8.0017391203910417e+00  8.0017260546469142e+00  8.0017313387949809e+00  8.0017468742751259e+00  8.0017591505354311e+00  8.0017442792736606e+00  8.0017423482251662e+00  8.0018206566845702e+00  8.0018175762692483e+00  8.0018202967021850e+00  8.0018220250688135e+00  8.0018206791732069e+00  8.0018153774349248e+00  8.0018173806285091e+00  8.0018189522544194e+00  8.0018169373785231e+00  8.0018146016070268e+00  8.0021825643422613e+00  8.0021589657229306e+00  8.0021631539085600e+00  8.0021693850421105e+00  8.0021745854977819e+00  8.0021717800124712e+00  8.0021655968808858e+00  8.0021560935707736e+00  8.0021626450325627e+00  8.0018644048928440e+00  8.0018522226517330e+00  8.0018569434729976e+00  8.0018512120554668e+00  8.0018663009643447e+00  8.0018532354737104e+00  8.0018440681700724e+00  8.0018429858637248e+00  8.0018664812631890e+00  8.0018394651921341e+00  8.0018374875728977e+00  8.0018316541638370e+00  8.0018368940917757e+00  8.0018401150000891e+00  8.0018310330489246e+00  8.0018282506757163e+00  8.0018339985007891e+00  8.0018310759308307e+00  8.0018243450547146e+00  8.0018401114193427e+00  8.0018200219539271e+00  8.0018201576967307e+00  8.0018201906500277e+00  8.0018201407125424e+00  8.0018201989948263e+00  8.0018203157262775e+00  8.0018202252687285e+00  8.0018202496483113e+00  8.0018203067254117e+00  8.0018203061896198e+00  8.0020115088381765e+00  8.0020186349091915e+00  8.0020022040616752e+00  8.0020173030405672e+00  8.0020109099014753e+00  8.0020097505232695e+00  8.0020024931678257e+00  8.0020225383829544e+00  8.0020046547982702e+00  8.0019890529301581e+00  8.0021207819045177e+00  8.0021219547091889e+00  8.0021225851714188e+00  8.0021201967284288e+00  8.0021213865625231e+00  8.0021232819268313e+00  8.0021250982531722e+00  8.0021203450919316e+00  8.0021227486143207e+00  8.0021254633344761e+00  8.0019338059897436e+00  8.0019434742775601e+00  8.0019426566318312e+00  8.0019429917471125e+00  8.0019483780623482e+00  8.0019490418427175e+00  8.0019488293037444e+00  8.0019498532164359e+00  8.0019500614863190e+00  8.0019505864561786e+00  8.0018104819284606e+00  8.0018086901301277e+00  8.0018082304987495e+00  8.0018142446539411e+00  8.0018182001462002e+00  8.0018100374151171e+00  8.0018032616330697e+00  8.0018060403306031e+00  8.0018074968816997e+00  8.0019128118568439e+00  8.0019359610333822e+00  8.0019257478723542e+00  8.0019300236442330e+00  8.0019243607118451e+00  8.0019426986862019e+00  8.0019392374875391e+00  8.0019399638096811e+00  8.0019374797427130e+00  8.0021505906235380e+00  8.0021434316068518e+00  8.0021474856130030e+00  8.0021406614453028e+00  8.0021367836220687e+00  8.0021396341249265e+00  8.0021460779645572e+00  8.0021428455826200e+00  8.0021375617616251e+00  8.0021124388869413e+00  8.0021132008963907e+00  8.0021121660207744e+00  8.0021182722092394e+00  8.0021121514946749e+00  8.0021128741148093e+00  8.0021195751772343e+00  8.0018239414433392e+00  8.0018182917257228e+00  8.0018194400760674e+00  8.0018210264882423e+00  8.0018160769359099e+00  8.0018168741672380e+00  8.0018160172888120e+00  8.0018152511916742e+00  8.0018141178234057e+00  8.0019499659688034e+00  8.0019443726195814e+00  8.0019381348487997e+00  8.0019551055764211e+00  8.0019400271861283e+00  8.0019311100294974e+00  8.0019291281290421e+00  8.0019570274553367e+00  8.0019407299602445e+00  8.0019252566781862e+00  8.0021224466822378e+00  8.0021192769280844e+00  8.0021255180719759e+00  8.0021280033109345e+00  8.0021130398326132e+00  8.0021348362053502e+00  8.0021064656921670e+00  8.0021443955124152e+00  8.0021389712643405e+00  8.0021331176751005e+00  8.0017835943517781e+00  8.0017847319842836e+00  8.0017820074724142e+00  8.0017880298133068e+00  8.0017864112245984e+00  8.0017885202317256e+00  8.0017902781220105e+00  8.0017926512395263e+00  8.0017877773104118e+00  8.0017822118958826e+00  8.0018194745272400e+00  8.0018234877331125e+00  8.0018190776017768e+00  8.0018205403112326e+00  8.0018262570776777e+00  8.0018178125392065e+00  8.0018167066271815e+00  8.0018210455191578e+00  8.0018254050965201e+00  8.0018717558512478e+00  8.0018840873492660e+00  8.0018715875108448e+00  8.0018809655778949e+00  8.0018867239163853e+00  8.0018895234938867e+00  8.0018768656490877e+00  8.0018791457169769e+00  8.0018929675161754e+00  8.0018952347732490e+00  8.0019176677233919e+00  8.0019082668924728e+00  8.0019134176423687e+00  8.0019067826327497e+00  8.0019237779042811e+00  8.0019291808185056e+00  8.0019225646939205e+00  8.0019197849163337e+00  8.0021044311434668e+00  8.0021073127872722e+00  8.0021074068819633e+00  8.0021029624015885e+00  8.0021017998852599e+00  8.0021062804889738e+00  8.0021064056924143e+00  8.0018350566494210e+00  8.0018332593785395e+00  8.0018272230603156e+00  8.0018415001084531e+00  8.0018480658160271e+00  8.0018397890343795e+00  8.0018228755940015e+00  8.0018276485617648e+00  8.0018317871291629e+00  8.0018100784785666e+00  8.0018125204873751e+00  8