<?xml version="1.0"?>
<VTKFile type="UnstructuredGrid"  version="0.1"  >
<UnstructuredGrid>
<Piece  NumberOfPoints="7024" NumberOfCells="31801">
<Points>
<DataArray  type="Float64"  NumberOfComponents="3"  format="ascii">34.339767 7.454097 2.603483  33.89673055486283 7.886186068716109 2.685291438184821  34.13957655486283 8.273686068716108 3.013427938184821  34.438976 8.0468475 2.407404  34.582613 7.841597 2.9316195  33.45369410972565 8.318275137432217 2.767099876369643  34.177872 7.701138 1.476519  34.1938915 7.452396999999999 0.3882595  34.434866 8.098351000000001 1.205701  33.944006 7.806722000000001 0.3882595  33.71014 7.912306 -0.7  34.4508855 7.84961 0.1174415  33.9600255 7.557981 -0.7  34.69186 8.495564 0.934883  34.209911 7.203656 -0.7  33.81578305486283 8.009706568716108 2.121809438184821  34.2588195 7.577617500000001 2.040001  22.532961 14.706274 2.611991  22.53720383159051 15.07105200937697 1.613043777759484  22.11368931615113 14.44160592469868 2.2566788497384  21.98492331615113 15.13584342469868 1.878162849738399  21.69441763230227 14.17693784939735 1.901366699476799  22.11793214774164 14.80638393407564 1.257731627497883  22.54144666318102 15.43583001875393 0.6140965555189672  21.039354 15.740177 1.185855  21.34240881615113 14.42759892469868 0.6006833497383994  21.79040033159051 15.58800350937696 0.8999757777594837  21.36688581615113 14.95855742469868 1.543610849738399  21.76592333159051 15.05704500937697 -0.04295172224051635  21.014877 15.2092185 0.2429275000000001  20.9904 14.67826 -0.7  23.463877 14.165042 2.174832  23.38950643893426 14.55185898480696 0.8425135812042237  23.55006393639024 14.08685072892288 1.382932060845174  23.11543443639024 13.89253672892288 1.529462060845173  22.76699187278047 13.62003145784576 0.8840921216903472  23.00266183159051 14.80043600937697 1.394464277759484  22.64997643639024 14.16315272892288 1.748041560845174  22.998419 14.435658 2.3934115  22.65421926798075 14.52793073829984 0.7490943386046572  24.080719 13.8297195 1.6935615  23.6460895 13.6354055 1.8400915  23.828302 13.105769 1.505351  23.29764693639024 13.36290022892288 1.194721560845174  23.551348 14.925405 2.269045  21.87869593639024 14.14914572892288 0.09204606084517364  21.74224 14.4315235 -0.7  22.49408 14.184787 -0.7  22.63053593639024 13.90240922892288 0.09204606084517364  22.51776333159051 14.81030850937697 -0.04295172224051635  22.23070475254137 13.89848465362155 1.392729410583573  23.972942 14.096728 -0.7  23.36996693639023 13.85837972892288 0.09204606084517364  23.01335293639023 14.35991272892288 0.09204606084517364  23.233511 14.1407575 -0.7  21.282522 15.290298 2.489429  21.48846981615113 14.73361792469868 2.195397849738399  21.9077415 14.998286 2.55071  21.528142 15.6151255 0.2429275000000001  21.503665 15.084167 -0.7  22.01693 15.490074 -0.7  23.4636535 13.053878 0.4026755000000001  23.900622 13.6012485 0.4026755000000001  23.5359735 13.5493575 -0.7  23.099005 13.001987 -0.7  22.93299843639024 13.31100922892288 0.09204606084517364  23.83587693639024 13.81421372892288 1.042550060845174  22.7965425 13.593387 -0.7  21.160938 15.5152375 1.837642  27.96686148056158 9.366841211973677 1.958822174247046  26.94942356374313 9.361869545594715 0.8959630746175921  27.72190179157965 8.924195021717031 1.172759328214205  27.75502850895346 9.816554995511005 1.178642983965985  27.19438325272507 9.804515735851361 1.682025920650433  26.42190502488856 10.24219025972904 1.40522966705382  26.98255028111694 10.25422951938869 0.9018467303693724  27.54319553734533 10.26626877904833 0.3984637936849249  27.51006881997152 9.373908805254359 0.3925801379331446  27.47694210259771 8.481548831460385 0.3866964821813643  33.097767 5.41519 -0.7  33.64590394934378 6.449863385449615 -0.1590499937272218  33.03463694934378 5.805591385449615 0.7045525062727782  33.02497444934377 6.240646385449615 -0.1590499937272218  33.7186965 5.624407 -0.7  33.728359 5.189352 0.1636025  33.10742949999999 4.980135 0.1636025  33.117092 4.54508 1.027205  34.339626 5.833624 -0.7  32.95218189868756 7.06610277089923 0.3819000125455564  27.48711210440157 4.841144247125046 7.830847218886713  26.61611833588119 4.802123192250694 7.982498725979481  26.8588579687972 4.498601811222662 7.183792371430616  27.00180978721933 3.936060713545155 7.653539807904584  26.5165074700371 3.030977179965265 7.476232396922455  26.13081601869896 3.897039658670803 7.805191314997352  26.37355565161497 3.593518277642771 7.006484960448487  26.23060383319284 4.156059375320279 6.536737523974519  25.98786420027683 4.459580756348309 7.335443878523384  25.74512456736082 4.76310213737634 8.134150233072249  20.452911 14.788013 12.760753  20.84559509357792 13.76987251497008 11.80422773007903  20.4627952471802 14.44548366401907 11.86565869861702  21.045698 14.963609 12.407265  21.638485 15.139205 12.053777  21.0555822471802 14.62107966401907 11.51217069861702  20.47267949436041 14.10295432803813 10.97056439723404  20.84324479573804 8.734260560707344 6.030768131292495  21.52462216016962 9.47232736802448 5.898785695297027  21.82811786340501 8.900244751673899 6.197493043430374  21.07108995753178 9.25354626635149 6.224920575827332  21.29677699837588 8.953041662380336 5.704633250762192  21.37458566076717 8.681463650000907 6.523627923960678  21.75030920101372 9.171822764053326 5.378498370231888  21.90592652579629 8.62866673929447 7.01648771662886  21.6024308225609 9.200749355645053 6.717780368495514  21.29893511932552 9.772831971995636 6.419073020362167  27.202841 1.729184 7.700854  26.45822360261802 0.848576027590989 7.463513282256695  26.24846808842387 1.4258039964233 7.443277783397065  26.63409960261802 1.150819527590989 8.094593782256695  27.026965 1.4269405 7.0697735  26.851089 1.124697 6.438693  26.07259208842387 1.1235604964233 6.812197283397065  26.06535820523603 0.5724550551819779 8.48833356451339  25.67972669104189 0.8474395240142893 7.83701756565376  25.29409517684773 1.122423992846601 7.185701566794131  32.560524 3.627535 5.994068  33.6874565 3.3069445 6.1768935  33.32908693701118 4.024383987098308 6.475293086016559  33.1520235 3.5816965 5.7158945  33.095957 3.352783 6.455067  33.63139 3.078031 6.916066  33.92058643701118 3.978545487098308 6.197119586016559  33.86451993701118 3.749631987098308 6.936292086016559  33.743523 3.535858 5.437721  34.09764987402236 4.421232974196617 6.956518172033118  23.14881845851066 3.551983812524786 6.910115702012777  22.76362001492184 4.587585864163595 7.301153525666184  23.64562139175732 4.01820266759951 7.441862304592101  22.66852379682307 4.036381835698289 7.726006389129971  22.18822913513547 4.520779858871792 8.541897076247166  23.2604229481685 5.05380471923832 7.832900128245509  22.28332535323425 5.071983887337097 8.117044212783378  23.16532673006972 4.502600690773013 8.257752991709296  24.14242432500398 4.484421522674235 7.973608907171426  22.37842157133303 5.623187915802404 7.692191349319591  26.171207 1.608935 11.49487  25.93212480738787 1.294569033661055 10.5251825442345  25.59825937354718 1.404297528571239 10.28706958374438  26.14851945749999 1.779119849073278 10.71875964380572  25.6209469160472 1.234112679497961 11.06317993993866  25.95481234988789 1.124384184587777 11.30129290042878  25.07068683209439 0.859290358995922 10.63148987987732  25.40455226593508 0.7495618640857378 10.86960284036744  25.73841769977578 0.6398333691755536 11.10771580085757  26.12583191499997 1.949304698146556 9.942649287611435  27.30043 4.067733 12.080984  27.2974787118858 3.53322907069328 11.69350697841658  26.8450535 3.286999 11.7712175  27.1532255 3.449872 12.135213  27.6056507118858 3.696102070693279 12.05750247841658  26.992258 3.90486 11.7169885  26.684086 3.741987 11.352993  27.006021 2.832011 12.189442  27.4584462118858 3.07824107069328 12.11173147841658  27.9108714237716 3.324471141386559 12.03402095683316  20.9554045 0.4354425 4.766483  20.54102163640625 0.7317440706387086 5.041673370682595  20.7186119147821 0.9574559661680571 4.801727870632869  20.70918444302008 0.737439147644089 5.17997056951012  20.78724169338616 0.4297474229946195 4.628185801172474  20.61907888677233 0.4240523459892391 4.489888602344949  20.55044910816827 0.9517608891626766 4.663430671805343  20.46296438604016 1.039435795288178 5.593458139020241  20.47239185780218 1.259452613812146 5.215215440142989  20.48181932956421 1.479469432336114 4.836972741265737  24.50832587535697 1.815319982913242 5.846568415068253  25.31626373095312 1.619740856630195 5.583386992141298  24.92472149599845 2.138230140270854 5.227240816465356  24.71033302273452 1.137730971176533 5.075225572368698  24.91234017011207 0.4601419594398239 4.303882729669142  25.51827087833067 0.9421518448934852 4.812044149441743  25.126728643376 1.460641128534145 4.455897973765801  25.34111711663994 2.461140297628465 4.607913217862459  25.7326593515946 1.942651013987806 4.964059393538401  26.12420158654927 1.424161730347147 5.320205569214343  29.006399 3.323755 8.59483  29.12299439007411 4.550205203570272 8.256141103536436  28.24675555220078 4.082449623562523 8.212838609443356  29.05143539007411 4.132318203570271 8.817740103536435  29.077958 3.741642 8.033231000000001  29.149517 4.159529 7.471632  28.29179194227489 4.891012827132794 8.435748712979791  28.31831455220078 4.500336623562523 7.651239609443357  29.09647178014822 4.940881407140543 9.04065020707287  22.01110181463365 13.49331603486774 9.807331197010051  21.58424414879493 13.05244603773365 10.46490537541929  21.36779594169973 13.05426051968256 9.734115279266859  21.24189065449703 13.79813518145294 10.38894779712204  20.8150329886583 13.35726518431885 11.04652197553128  20.5985847815631 13.35907966626776 10.31573187937885  20.7244900687658 12.61520500449738 9.66089936152367  20.940938275861 12.61339052254847 10.3916894576761  21.1573864829562 12.61157604059957 11.12247955382853  20.611135 3.37436 6.542054  21.20880271441701 3.270148782766715 5.271775914360749  21.35723359605732 4.020757793620294 6.038307830154039  21.19412521441701 2.941780282766715 5.930674414360748  20.6258125 3.702
[...]
<PointData  Scalars="p"> 
<DataArray  type="Float64"  Name="p"  format="ascii">8.4996256487511559e+00  8.4930963433892934e+00  8.4757410169452019e+00  8.4827284089895763e+00  8.4821026372013062e+00  8.4916838622273367e+00  8.5011529256210743e+00  8.5111320180868919e+00  8.4834975688909395e+00  8.5049456608908045e+00  8.5102663838338675e+00  8.5029236401515647e+00  8.5162700929596387e+00  8.4597388747787399e+00  8.5198492030128214e+00  8.4946957749755736e+00  8.5018278674950754e+00  8.8470362286729998e+00  8.8294265813016732e+00  8.8520541387198062e+00  8.8408144828336344e+00  8.8524503533230927e+00  8.8342084574904227e+00  8.8200311352302840e+00  8.8410395274613869e+00  8.8386534223013129e+00  8.8297599078168965e+00  8.8467196694370749e+00  8.8279133493584254e+00  8.8367573302947324e+00  8.8351805204436857e+00  8.8252853890981715e+00  8.8145662991087104e+00  8.8180197741052115e+00  8.8269339904329236e+00  8.8269604756400089e+00  8.8223905675059839e+00  8.8353569884757057e+00  8.8343570510183245e+00  8.8244998924793911e+00  8.8131166012808855e+00  8.8230527865532764e+00  8.8205529150971564e+00  8.8233354974001337e+00  8.8176586009830906e+00  8.8309858066397684e+00  8.8297255765569620e+00  8.8231295456645960e+00  8.8238796861725994e+00  8.8212246586751810e+00  8.8379684662423195e+00  8.8060182871037949e+00  8.8162916828899665e+00  8.8178962411302440e+00  8.8154001741541865e+00  8.8641672196207750e+00  8.8591997521105199e+00  8.8583876960113859e+00  8.8274689228973475e+00  8.8288079345619135e+00  8.8205963793870019e+00  8.8187139617392933e+00  8.8130933976397099e+00  8.8164166940521973e+00  8.8198359522105232e+00  8.8218573570968175e+00  8.8137531923498926e+00  8.8217712627649298e+00  8.8492953336031004e+00  8.6801613503356840e+00  8.7120744710165177e+00  8.6884706252501029e+00  8.6900033067034332e+00  8.7049945275098892e+00  8.7267223272105721e+00  8.7132449285760121e+00  8.6992424257096701e+00  8.6965648863081917e+00  8.6968758567576483e+00  8.5309628936666240e+00  8.5270070035142940e+00  8.5324440562320873e+00  8.5322400016846913e+00  8.5290079725918400e+00  8.5289044465930708e+00  8.5302954533521156e+00  8.5293455235545039e+00  8.5279256386395481e+00  8.5292241142657446e+00  8.7129234799225816e+00  8.7338895852480682e+00  8.7338907747274561e+00  8.7314850340894932e+00  8.7502054570225596e+00  8.7489549240890732e+00  8.7526916611732961e+00  8.7542817903502250e+00  8.7528053356292617e+00  8.7529285470688727e+00  9.0288116279867214e+00  9.0014280858215123e+00  9.0111833385936997e+00  9.0090579213086812e+00  8.9961425269874340e+00  9.0040821904614941e+00  9.0107768780459239e+00  8.8740979349260130e+00  8.8836379714846370e+00  8.8703736687194468e+00  8.8882009404434701e+00  8.8706233605107325e+00  8.8738221941649336e+00  8.8664486224651462e+00  8.8718127108005653e+00  8.8863592835491119e+00  8.9012106820763286e+00  8.7492551611237470e+00  8.7649479198111617e+00  8.7650914197574679e+00  8.7518246768981030e+00  8.7644130691506064e+00  8.7771187160451518e+00  8.7764441370157460e+00  8.7556067995553644e+00  8.7689371383692389e+00  8.7806212841759397e+00  8.5433975493037817e+00  8.5328188664379390e+00  8.5360848316514488e+00  8.5353785923754870e+00  8.5399526028043837e+00  8.5384457380052527e+00  8.5280043606423703e+00  8.5324372711425998e+00  8.5294210979598795e+00  8.5233203373471671e+00  8.8096662150534080e+00  8.8126853976101351e+00  8.7982484676000947e+00  8.8116446715618792e+00  8.8149411273515188e+00  8.8055082652573944e+00  8.8177820473218791e+00  8.8036397735065695e+00  8.7874450256900332e+00  8.8211209817161045e+00  8.7126222000496725e+00  8.7310924009903736e+00  8.7403966027044930e+00  8.7230406994250167e+00  8.7302988795424668e+00  8.7218403739303021e+00  8.7491316288354213e+00  8.7385209568080580e+00  8.7301359801358149e+00  8.7327243389455962e+00  8.6793036185955508e+00  8.6850961992256348e+00  8.6906092573047644e+00  8.6812022820234276e+00  8.6770720056695989e+00  8.6876116274584660e+00  8.6976017086163893e+00  8.6843433464069779e+00  8.6793821100001622e+00  8.6743295953832504e+00  8.9150588505222643e+00  8.9212144003484859e+00  8.9191297945029007e+00  8.9101914365890860e+00  8.9254317594806256e+00  8.9359773351483440e+00  8.9309265486275660e+00  8.9046209858967060e+00  8.9140475156167920e+00  8.9227057507024501e+00  8.8001243600897556e+00  8.7932845620950175e+00  8.7979683456222020e+00  8.8041450403823376e+00  8.8070771450576100e+00  8.7995174808677792e+00  8.8032956438377035e+00  8.7959091294474412e+00  8.7927591244041761e+00  8.7901929153386540e+00  8.6737058401621248e+00  8.6652006599099849e+00  8.6946413424926785e+00  8.6677213257531083e+00  8.6731888790781806e+00  8.6687875856019438e+00  8.6888088765294516e+00  8.6926196781783691e+00  8.6650339050295759e+00  8.9821147243984338e+00  8.9793939477352804e+00  8.9860850822613418e+00  8.9969608706489179e+00  8.9954521051336958e+00  9.0023864266903306e+00  8.9891489637485247e+00  8.9826686337880837e+00  8.9782960510327392e+00  8.8476701110324356e+00  8.8615885740776630e+00  8.8393777330629533e+00  8.8552466000804149e+00  8.8537260039328185e+00  8.8606679555322447e+00  8.8410275000021450e+00  8.8434372235848855e+00  8.8545384768190356e+00  8.8299564671815780e+00  8.8771464619493976e+00  8.8997582523923349e+00  8.8817080445346530e+00  8.8945555262030371e+00  8.8950036545271320e+00  8.9222894964834332e+00  8.9222171789370854e+00  8.9206848656248816e+00  8.8988293606856690e+00  8.8829524576713244e+00  8.9496866445192875e+00  8.9489497343944659e+00  8.9407216038391812e+00  8.9364561882101956e+00  8.9443106625101674e+00  8.9568859833530432e+00  8.9598094299747384e+00  8.9206469243457427e+00  8.9302013496003436e+00  8.9421828683640605e+00  8.5413512398261133e+00  8.5526562333331899e+00  8.5566131131196261e+00  8.5338740695602091e+00  8.5425929064414952e+00  8.5453827457816889e+00  8.5704651830575411e+00  8.5649210235932109e+00  8.5602124745678108e+00  8.5380799599525616e+00  8.5487267832929792e+00  8.5215331736219664e+00  8.5624908303026857e+00  8.5668944960712192e+00  8.5262934045653278e+00  8.4986161389349899e+00  8.7571166300645640e+00  8.7530735484610815e+00  8.7306821728211403e+00  8.7430349508128362e+00  8.7332625650018105e+00  8.7434525624376462e+00  8.7235448004821858e+00  8.7101626825072778e+00  8.7291872861674502e+00  8.7478857544962256e+00  8.8255474327931154e+00  8.8223799868140613e+00  8.8204530397565684e+00  8.8272157248854644e+00  8.8287608547105894e+00  8.8240773652296109e+00  8.8191146610315574e+00  8.8279240998508044e+00  8.8301986193388640e+00  8.8144587338264611e+00  8.8894628632618424e+00  8.8579708070770380e+00  8.8759113301884085e+00  8.8816062570044352e+00  8.8599713516115770e+00  8.8778090778217802e+00  8.8580409586333921e+00  8.8736442678585110e+00  8.8453495542875213e+00  8.8658812572345997e+00  8.5278319058924943e+00  8.5279158961848811e+00  8.5282575499938940e+00  8.5279821877717712e+00  8.5275880117618001e+00  8.5277576229741161e+00  8.5278048104606885e+00  8.5276867519984361e+00  8.5274163733302082e+00  8.9693725562299704e+00  8.9630410153289173e+00  8.9524402032296120e+00  8.9705296357914861e+00  8.9610015688119091e+00  8.9533562983220776e+00  8.9449793795310288e+00  8.9698867886438247e+00  8.9515943169223728e+00  8.9346239935571656e+00  8.8319521699912595e+00  8.8209989112645495e+00  8.8221069523801177e+00  8.8245371327532229e+00  8.8267904618209077e+00  8.8214264393630817e+00  8.8169967795699584e+00  8.8212650624581279e+00  8.8193731264717918e+00  8.8007115988765978e+00  8.8016107784780147e+00  8.8124480663709797e+00  8.8020064272319694e+00  8.7971655389267926e+00  8.8116168589092130e+00  8.7962426761331525e+00  8.8150421365652534e+00  8.8049158333895416e+00  8.7813485042281823e+00  8.7828800627230912e+00  8.7773718499702369e+00  8.8006282854626345e+00  8.7885077058488950e+00  8.7981273926599872e+00  8.8066881115959905e+00  8.8100791964741099e+00  8.7905830594285561e+00  8.7718482822069515e+00  8.7393226414622642e+00  8.7364511525128687e+00  8.7490783755068158e+00  8.7472762544949223e+00  8.7289953338301469e+00  8.7551358774523678e+00  8.7536690083426070e+00  8.7383001796968109e+00  8.7201988134686932e+00  8.7544076758490217e+00  8.6588410263253888e+00  8.6543429547937922e+00  8.6569329489406126e+00  8.6324692565046703e+00  8.6354604211335904e+00  8.6299351376308664e+00  8.6266649081487756e+00  8.6314957240242567e+00  8.6369435812494562e+00  8.7849986740176043e+00  8.8098645895741470e+00  8.8056203042859362e+00  8.8049542250749209e+00  8.8220419730882877e+00  8.8242173554699672e+00  8.8259441863279662e+00  8.8245090716889543e+00  8.6604302939342208e+00  8.6633365389588626e+00  8.6731075651143446e+00  8.6698122616526643e+00  8.6543821896140205e+00  8.6500006673723746e+00  8.6671128605766476e+00  8.6770084940209298e+00  8.6802521315022751e+00  8.6838832952781058e+00  8.9882908787146807e+00  8.9707387988341232e+00  8.9581089805187730e+00  8.9674500406160540e+00  9.0023344507195127e+00  9.0188074342028077e+00  8.9846151289479437e+00  8.9465406123062401e+00  8.9421753701663356e+00  8.9392460248108421e+00  8.9271195637180245e+00  8.9235158778933847e+00  8.9253948561965046e+00  8.9361077947339798e+00  8.9142875986171681e+00  8.9002426357936617e+00  8.9461111984227983e+00  8.9348576365642529e+00  8.9217487410860166e+00  8.8193426635657239e+00  8.8231010735776483e+00  8.8213552070706598e+00  8.8237010651063912e+00  8.8211550957143459e+00  8.8230236439516467e+00  8.8252320759675307e+00  8.8277891895915221e+00  8.8269520361067126e+00  8.8243484770079750e+00  8.8398380696714245e+00  8.8472189581763754e+00  8.8568138967388830e+00  8.8462321931327121e+00  8.8521340113885270e+00  8.8673401524043669e+00  8.8537063030305188e+00  8.8643909250915858e+00  8.8832860965074545e+00  8.8530885256697118e+00  8.6025089407484110e+00  8.5764297014706408e+00  8.5974463690443095e+00  8.5953803950427385e+00  8.6054665736191058e+00  8.5815395292214891e+00  8.6077480246172282e+00  8.5840050312125644e+00  8.5634270006297122e+00  8.5857743124043289e+00  9.0183775827227297e+00  9.0387527516140800e+00  9.0309759787045447e+00  9.0144413069555842e+00  9.0265530015281357e+00  9.0109832995768215e+00  9.0241327551643327e+00  9.0216807652646374e+00  9.0314284229452255e+00  9.0424989150021204e+00  8.8510004491235037e+00  8.8505789313833869e+00  8.8463966319010279e+00  8.8636453017755130e+00  8.8733249567094372e+00  8.8584016315476184e+00  8.8568613729395640e+00  8.8401211338225938e+00  8.8428950941031008e+00  8.8452682573764267e+00  9.0772582657037937e+00  9.1231626930786351e+00  9.0533413144940269e+00  9.1206063815347136e+00  9.0850254225648790e+00  9.0872822653483141e+00  9.0646157648516787e+00  9.1543875682686817e+00  9.0977094230793671e+00  9.0377229725122117e+00  8.8915890005532443e+00  8.9337659361415831e+00  8.9096888325595600e+00  8.9237316072453332e+00  8.9622650543306985e+00  8.9738030768372656e+00  8.9421630356090258e+00  8.9500451460743520e+00  8.9775943508191922e+00  8.8358956233601500e+00  8.8331338226226901e+00  8.8325182600456582e+00  8.8323479898876922e+00  8.8242563619852898e+00  8.8260383630557424e+00  8.8255640769564199e+00  8.8261748019787944e+00  8.8328431690293900e+00  8.9289790916001781e+00  8.9392273459357181e+00  8.9372472789128103e+00  8.9479673859108910e+00  8.9435423325983407e+00  8.9333223541677658e+00  8.9234567512061265e+00  9.0061689858570606e+00  8.9565657064515989e+00  8.9634019153143036e+00  8.9654408623325335e+00  8.9289465835597106e+00  8.9321162376621910e+00  8.9279300804175428e+00  8.9392997285531557e+00  8.9436653857458435e+00  8.9139575456058715e+00  8.6980044800396463e+00  8.6693633878669907e+00  8.6895971757436037e+00  8.6846816235594950e+00  8.6793868632983848e+00  8.6579394418622169e+00  8.6619534426289615e+00  8.6676259304285175e+00  8.6734726923230276e+00  8.6850732792493019e+00  8.6770084848737277e+00  8.6800200770498694e+00  8.6755128325202175e+00  8.6688580310272787e+00  8.6755420651306139e+00  8.6701642373826981e+00  8.6736463594610544e+00  8.6662536988036099e+00  8.7942866586940536e+00  8.7986954411672080e+00  8.7926963357660632e+00  8.7857215986718771e+00  8.8006746708869343e+00  8.8066350262970765e+00  8.8072047350809832e+00  8.8136377366993202e+00  8.8197539728223138e+00  8.8619392473728613e+00  8.8822209645773711e+00  8.8576823059351497e+00  8.8744674749258525e+00  8.8993421620830446e+00  8.8764762336646008e+00  8.8581795935086483e+00  8.9693785815597931e+00  8.9394635474863691e+00  8.9480179921381016e+00  8.9453266381924141e+00  8.9235122835752456e+00  8.9222459291950429e+00  8.9201000905163426e+00  8.9249866682141228e+00  8.9223536845832001e+00  8.9228711254220485e+00  8.8360534681703626e+00  8.8496012231225656e+00  8.8353010433185997e+00  8.8382572067219733e+00  8.8359436227006540e+00  8.8514091472041780e+00  8.8431902568535659e+00  8.8516109431967109e+00  8.8628034652412335e+00  8.8721166647932108e+00  8.8495590373999171e+00  8.8592495136026290e+00  8.8492573793387965e+00  8.8414413175718298e+00  8.8326550910047708e+00  8.6779071535468901e+00  8.6797457376095934e+00  8.6599350004694475e+00  8.6814129982026600e+00  8.6810720713568923e+00  8.6965282248650251e+00  8.6986247750523198e+00  8.6596458216104750e+00  8.6975490323657443e+00  8.8559699679827659e+00  8.8212923441908639e+00  8.8356177075314140e+00  8.8364800511450916e+00  8.8361528727184275e+00  8.8319727374119488e+00  8.8575394408005366e+00  8.8198658966274088e+00  8.6113793092984121e+00  8.6066801173790015e+00  8.5907362728848948e+00  8.5999680231093407e+00  8.6003893602662966e+00  8.6152457060256271e+00  8.5871138106845706e+00  8.6048194717533413e+00  8.5936447078586813e+00  8.6193584253081852e+00  8.8117098116931611e+00  8.8038242353979665e+00  8.7923354399045266e+00  8.8049341274282309e+00  8.8003670816213511e+00  8.8110781726019809e+00  8.7890189897090583e+00  8.8034322712968365e+00  8.8135159927429925e+00  8.7977366982944805e+00  8.9256137026531661e+00  8.9291225104192726e+00  8.9318430196319305e+00  8.9442443199716326e+00  8.9179041308408529e+00  8.9387678568238851e+00  9.0637359153170340e+00  9.0462109529949704e+00  9.0433350457016246e+00  9.0625492014904037e+00  9.0448241216757737e+00  9.0463529891118668e+00  9.0320154607915839e+00  9.0334575125079208e+00  9.0603132632650105e+00  8.7512512200021444e+00  8.7409709477589104e+00  8.7322347982740265e+00  8.7323479811683384e+00  8.7150029756613083e+00  8.7239554776462498e+00  8.7245433212703052e+00  8.7154576858257933e+00  8.7153967684146210e+00  8.5938135767923249e+00  8.5753938462359987e+00  8.5648403204632935e+00  8.5673057035914226e+00  8.5775609338651346e+00  8.5917882725857737e+00  8.5413972330068422e+00  8.5557128127550985e+00  8.5665564536544423e+00  8.9304588732005765e+00  8.9475355953786853e+00  8.9402607747136003e+00  8.9385698215531697e+00  8.9584374812602814e+00  9.1046424574112841e+00  9.0548857264993678e+00  9.0866610633805021e+00  9.0901521435258825e+00  9.0612408846797976e+00  9.1004185781165141e+00  9.0914231351878065e+00  9.0556628021989685e+00  9.0218275857379009e+00  9.0788421753897506e+00  8.9421920491228999e+00  8.9393981257165986e+00  8.9213482015110319e+00  8.9235730230433443e+00  8.9543573185217422e+00  8.9179464236089778e+00  8.9610497979526986e+00  8.9286895340670345e+00  8.9390242539714535e+00  8.9461794064146503e+00  8.9065132332588526e+00  8.9332435442450588e+00  8.9635527614432959e+00  8.7785742560980466e+00  8.7656891810748654e+00  8.7664505832311885e+00  8.7821427223070962e+00  8.7717105833793614e+00  8.7719085394362981e+00  8.7553949358121397e+00  8.7535241658835190e+00  8.7502887924128583e+00  8.8354281159172725e+00  8.8310699025749848e+00  8.8257355672311526e+00  8.8321845477295327e+00  8.8386151527076926e+00  8.8288053276532654e+00  8.8251095422127204e+00  8.8252751112353227e+00  8.8333967272876901e+00  8.8421369062276973e+00  8.9115319092446335e+00  8.9128841415233655e+00  8.9098204478796159e+00  8.9601754587451072e+00  8.9654272513322564e+00  8.9451053497284096e+00  8.9825166338628506e+00  8.9363116625874710e+00  8.9209334745723563e+00  8.9290063520287219e+00  8.9960951058238798e+00  8.9689751254662227e+00  8.8703041756947982e+00  8.8454328678795147e+00  8.8569713560873513e+00  8.8494217907588535e+00  8.8571893441165770e+00  8.8323541100610328e+00  8.8386072035034147e+00  8.8386629992831178e+00  8.8438758222584450e+00  8.8452890033123293e+00  9.0235650620053729e+00  8.9874968425141812e+00  9.0122422416642678e+00  9.0102094445498011e+00  8.9959469716499836e+00  8.9940971222209107e+00  9.0255602197613261e+00  8.9991261684508270e+00  9.0167633654967556e+00  9.0257606146892435e+00  9.0180880436899837e+00  9.0176357108251697e+00  9.0232659523651026e+00  9.0232897508073986e+00  9.0172877235100692e+00  9.0165749455279105e+00  9.0174695165626684e+00  8.8327090694458619e+00  8.8410978178757453e+00  8.8360402276193586e+00  8.8291366464831569e+00  8.8376668360992152e+00  8.8278693670199306e+00  9.1451505748630009e+00  9.1337632439770164e+00  9.1299752895030171e+00  9.1071161435126537e+00  9.0999273857749543e+00  9.1173042026446538e+00  8.8499658819164289e+00  8.8464940806693413e+00  8.8583346868588997e+00  8.8437415893636757e+00  8.8313116643018112e+00  8.8370822951811459e+00  8.8491927167793403e+00  8.8529519815216897e+00  8.8409589711279271e+00  8.7639583230983042e+00  8.7774842816452576e+00  8.7587456251715352e+00  8.7734540835307904e+00  8.7468137635597607e+00  8.7705156529527031e+00  8.7306957882591618e+00  8.7522143592148911e+00  8.6125529077467338e+00  8.5966559155078226e+00  8.5955745428323791e+00  8.6197797877157978e+00  8.5900322322192029e+00  8.5878058818924572e+00  8.5632897551059379e+00  8.5637547245984909e+00  8.7777594092874853e+00  8.7878430393305820e+00  8.7641081987050313e+00  8.7817954048183395e+00  8.7931778121842488e+00  8.7696314468158736e+00  8.7509864784280609e+00  8.7775687557405551e+00  8.8004131955342739e+00  8.5935461641054385e+00  8.5765153359320614e+00  8.5931188667327465e+00  8.5805678689196334e+00  8.5749535081377992e+00  8.5605706546752813e+00  8.5661134043048346e+00  8.5615293392054816e+00  8.5762059294402704e+00  8.5905948856641032e+00  8.5273482608278748e+00  8.5273547067029920e+00  8.5273536304803716e+00  8.5273530561127036e+00  8.5273492948310512e+00  8.5273504824063533e+00  8.5273590062445326e+00  8.5273722698910817e+00  8.5273827349014120e+00  8.5273896281390797e+00  8.6894087828937359e+00  8.6601222579131143e+00  8.6792254296261540e+00  8.6778520344613135e+00  8.6691775402501570e+00  8.6908778243349296e+00  8.6918662964359132e+00  8.6707814302876258e+00  8.6495521009628966e+00  8.6689906272836303e+00  8.8257987834303080e+00  8.8078515378731126e+00  8.8137475559174803e+00  8.8141438783863730e+00  8.6847464637148288e+00  8.6840364002418120e+00  8.6859233952533330e+00  8.6758995356938566e+00  8.6856110392965586e+00  8.6874455037968747e+00  8.6763055999159526e+00  8.6839992189261679e+00  8.6879342395321419e+00  8.6906521584520000e+00  8.6798255723707243e+00  8.6840082802841856e+00  8.6768742884252870e+00  8.8029079105915358e+00  8.8070853524217156e+00  8.7991457104067035e+00  8.8045746917971837e+00  8.8083911846705281e+00  8.8107379306199061e+00  8.4715871838737069e+00  8.4340423125342276e+00  8.4519602977691051e+00  8.4658052470428853e+00  8.4406530728282689e+00  8.4814855749218534e+00  8.4038037633453371e+00  8.4974092174142939e+00  8.4807368294042966e+00  8.4637975485888326e+00  8.6787616756194819e+00  8.6636882780322271e+00  8.6627975912652566e+00  8.6882134399267876e+00  8.6759622767617515e+00  8.6754509684408063e+00  8.6482579086534184e+00  8.7943574503487056e+00  8.7963418380712390e+00  8.7954689363872927e+00  8.7967675348733341e+00  8.7948279373390310e+00  8.7955901174893523e+00  8.7975376804528747e+00  8.7994627614848575e+00  8.7984092274582952e+00  8.7970264593425984e+00  8.8821830835878970e+00  8.8441304227041027e+00  8.8554976586469465e+00  8.8671394624817221e+00  8.8506814875889077e+00  8.8634485454837719e+00  8.8480552432880124e+00  8.8395897894285866e+00  8.8261816111990239e+00  8.8553701539194858e+00  8.9119654889343742e+00  8