<?xml version="1.0"?>
<VTKFile type="UnstructuredGrid"  version="0.1"  >
<UnstructuredGrid>
<Piece  NumberOfPoints="6924" NumberOfCells="31153">
<Points>
<DataArray  type="Float64"  NumberOfComponents="3"  format="ascii">11.23042536044433 20.00364668896079 8.694991673450698  11.16209802324122 19.34329456012815 8.886425113665407  10.77147218022217 19.6383293444804 9.202822336725349  11.20768618022217 19.6439378444804 9.42164733672535  10.443856 18.7227 5.947102  9.367420902372968 18.98257746816363 5.755215073269639  10.018489 18.5455285 5.514573  10.0592525 19.2818135 5.523461  9.674649 19.840927 5.09982  9.6338855 19.104642 5.090932  9.593121999999999 18.368357 5.082044  11.463806 20.26244 7.099018  10.57302671905651 20.20882026515358 6.842826147634649  10.84007290315179 19.7189799618962 7.323589444039131  11.014213 20.123793 6.6473225  10.56462 19.985146 6.195627  10.12343371905651 20.07017326515358 6.391130647634649  10.39047990315179 19.5803329618962 6.87189394403913  10.21633980630358 19.1755199237924 7.548160888078261  9.949293622208298 19.66536022704978 7.06739759167378  9.68224743811302 20.15520053030717 6.586634295269298  8.246164595416065 19.77190723438142 7.476567723042463  9.687372578850047 20.05583723644572 7.668350586626593  8.96933115750157 19.86419058848284 8.113317300513176  9.231252200859821 19.47371357908691 7.512364305560362  8.964206016764543 19.96355388234429 7.03160100915588  9.954418762945325 19.56599693318834 8.149113883031074  9.692497719587074 19.95647394258427 8.750066877983889  8.636295491783109 19.6784037478116 6.169643178157824  9.678448219056509 19.99806376515358 5.843227147634649  8.632496272726598 19.52126698265802 5.426236030523175  9.371220121429477 19.13971423331721 6.498622220904288  10.06305171905651 19.43895026515358 6.266868147634649  10.33009790315179 18.9491099618962 6.747631444039131  11.4980568169835 19.64284315998603 7.501649033622302  11.407999 19.6913435 6.945130499999999  11.352192 19.120247 6.791243  10.87432372013529 19.09938312188223 7.726220477661432  11.4422498169835 19.07174665998603 7.347761533622302  10.78426590315179 19.1478834618962 7.16970194403913  11.532307633967 19.02324631997206 7.904280067244604  10.504238 19.353923 6.0713645  8.397510228544135 20.44379008889059 6.531214304945358  8.522136027092312 20.79592166936448 7.441473000711229  8.798107458768561 21.81993610434755 7.406378278379994  8.673481660220382 21.46780452387365 6.496119582614124  9.240177448440789 20.98756831732736 6.996506286824646  9.115551649892613 20.63543673685346 6.086247591058775  8.548855861672205 21.11567294339976 5.585860886848254  10.3931342028126 19.31970818693989 8.913962715932003  10.65505524617085 18.92923117754395 8.313009720979188  10.72338258337395 19.5895833063766 8.121576280764479  10.4614615400157 19.98006031577253 8.722529275717292  11.461357 20.611799 10.218331  11.82151066336187 19.53377893349268 9.703142650101462  11.95971566336187 20.19756393349267 9.738156650101462  12.19090616336187 19.85085743349268 10.07242265010146  11.323152 19.948014 10.183317  12.45807432672373 19.78332886698535 9.257982300202924  10.11105153433133 20.59423595481217 8.280067062668053  10.37297257768958 20.20375894541624 7.67911406771524  10.88001535475996 20.61782232800043 8.252529460401458  10.52960534907559 21.23199796704007 7.810067247352219  10.958406 19.5526965 6.493435  11.34711568022216 20.1330433444804 7.897004836725349  11.38136649720566 19.51344650446643 8.29963587034765  11.99519098034536 19.40328759347871 8.581131183723764  9.469469999999999 20.939844 9.931172999999999  8.945217973001164 20.63509304445743 8.654694190743939  9.651197859793538 21.01338197129213 9.059603438991944  9.580983859793538 20.44815897129214 9.340619938991944  8.833704113207627 21.1267780731653 9.245247251751994  9.539683999999999 21.505067 9.6501565  9.609897999999999 22.07029 9.36914  8.903918113207627 21.6920010731653 8.964230751751995  8.197938226415253 21.3137121463306 8.559321503503991  11.34589118022216 20.30772284448039 9.456661336725348  11.84424984358403 19.89348777797307 8.97648698682681  10.0697516745378 21.65114398352004 8.589603623676108  10.1330735 21.730797 9.5673055  10.656249 21.391304 9.765471  10.17437335979354 20.67388897129214 9.257768938991944  10.5929271745378 21.31165098352004 8.78776912367611  9.959526499999999 20.5580045 9.858388  10.0628595 21.165574 9.848322  10.552916 20.7837345 9.775537  10.449583 20.176165 9.785603  10.07104035979354 20.06631947129214 9.267834938991944  9.363771787745424 21.27285505668534 8.184694375428105  9.245302589177818 20.88820502346591 8.078222578181942  8.498022842591908 21.56682412533907 7.982849890941992  9.663856403922077 21.52596703569381 7.608222762866106  8.222051410915659 20.54280969035601 8.017944613273226  9.554614359793536 19.76841047129214 9.498617438991944  10.00250835979354 19.61474297129214 9.230359938991946  10.84000418022216 20.0899058444804 9.240297336725348  8.786192 21.902466 9.627634  8.901660543440464 19.96209046118015 9.114010532098998  9.111752430836102 20.47829997169988 5.342840443424127  10.94333718022217 20.6974753444804 9.23023133672535  11.058803 21.0015515 9.991900999999999  10.95547 20.393982 10.001967  10.10592639359431 20.69359924867362 7.198350771310759  10.9967056745378 20.74721898352004 7.45454262367611  10.1196345 19.9130365 5.6477235  9.20400272938428 21.94511305217377 8.387759139189997  10.1735541745378 22.30687198352004 8.17637012367611  11.7593305 19.9305345 7.290966  12.054855 19.598629 7.482914  11.7935813169835 19.31093765998603 7.693597033622302  11.7035235 19.359438 7.137078499999999  11.9490225 18.8419295 6.9802145  13.677217 21.721819 15.023349  13.85623244041708 21.39989315782466 14.24369597718625  14.09919194041708 21.35412065782467 14.87393447718625  13.447747 21.173937 14.5867105  13.4342575 21.7675915 14.3931105  13.191298 21.813364 13.762872  13.2047875 21.2197095 13.956472  13.218277 20.626055 14.150072  13.86972194041708 20.80623865782466 14.43729597718625  14.52116688083417 20.98642231564933 14.7245199543725  13.86208221517151 20.75949397754651 13.13170685568098  14.06793071517151 21.39006647754651 13.57884285568098  12.9854495 21.1827915 13.315736  14.08142021517151 20.79641197754651 13.77244285568098  12.998939 20.589137 13.509336  12.779601 20.552219 12.8686  14.94456343034302 20.96676895509302 13.39481371136196  16.639853 21.496738 14.08508  15.95490382804512 20.56645110586626 14.21724579691244  16.7381745 20.7442235 13.904951  16.3899155 21.091933 13.6755015  16.139978 20.687128 13.265923  14.226911 22.017977 16.269194  14.37403894041708 21.50219965782466 15.49685697718625  13.952064 21.869898 15.6462715  14.137522 21.429286 16.093017  14.048133 20.840595 15.91684  13.862675 21.281207 15.4700945  13.594169 20.508259 15.054221  14.05766794041708 20.74734065782467 14.88937047718625  14.04552004091315 20.26125558400879 14.27075153505089  13.406223 20.567157 14.6021465  14.50901898133023 20.50033724183346 14.10590101223714  15.35719654321663 20.70627158341277 14.28169115259342  15.79220821517151 21.23175347754651 13.73994685568098  15.54227071517151 20.82694847754651 13.33036835568098  13.635693 21.115039 15.038785  15.58050994041708 21.24158015782466 14.40479997718625  14.73286515558859 20.97659563537118 14.05966683286723  14.61399916858448 21.9372102582466 15.23204550721823  15.55078133716897 22.15260151649321 15.44074201443647  15.03597410900157 21.56951191607127 15.08263098440449  14.5651885044222 20.07980071902877 14.73752529533446  15.13335036895827 20.23001318987506 14.32792533196333  10.973191 21.191401 6.263593  10.2129731826105 21.37793876224959 6.986828503893052  10.7513981745378 21.21169948352004 7.036830123676109  10.4347660080727 21.35764027872955 6.213591380216942  10.32771921905651 20.67330076515358 6.42511364763465  9.89634101614541 21.52387955745911 6.163589760433885  9.789294227129215 20.83954004388314 6.375112027851591  10.4272210080727 21.82572627872955 5.767742880216942  10.5963598584892 22.05229876158644 6.558996969401968  10.965646 21.659487 5.8177445  10.958101 22.127573 5.371896  10.5888148584892 22.52038476158644 6.113148469401968  10.21952871697841 22.91319652317288 6.854400938803936  10.05793486656191 22.21853804031599 6.50899534961891  9.347224237456984 21.67190783090333 6.78498401940694  9.222598438908808 21.31977625042943 5.874725323641069  10.5471126745378 20.60857198352004 7.002847123676109  11.2184985 20.7269205 6.681305500000001  10.7689055 20.5882735 6.22961  10.5468425 20.9804555 5.940117000000001  9.90137071905651 20.46235526515358 6.101637647634649  10.342557 20.377328 5.906134  10.120494 20.76951 5.616641  9.334674930836103 20.94259147169988 5.601250943424127  10.00841750807271 21.14669477872955 5.890115380216942  9.840326133995552 21.39504017812528 5.381753298969691  9.560158267991103 22.02057035625056 5.146865597939382  9.054507064831654 21.56812164982516 5.366363242393818  9.728249642068256 21.77222495685483 5.655227679186633  10.334092 21.582951 5.354747  10.11521650807271 21.55341527872956 5.759168380216942  9.947125133995552 21.80176067812528 5.250806298969691  10.25912963399555 22.07407167812528 5.259380798969691  10.6460965 21.855262 5.3633215  9.897571500000002 20.3052185 5.3582305  9.284938584264665 22.1684602972667 5.933097967050287  11.0630683584892 22.54064476158644 6.462570469401967  11.4398995 21.679747 6.1671665  11.906608 22.168093 6.07074  11.4323545 22.147833 5.721318  9.697166500000002 20.510169 4.892749999999999  9.920089000000001 20.9744605 5.1511605  9.719684000000001 21.179411 4.68568  9.134269930836103 21.14754197169988 5.135770443424127  9.889843492484754 22.46688343971172 6.000633268371659  9.508818087873482 22.36656631376021 7.130389608591965  8.73582180557624 22.31648857071092 6.554492226023342  9.446532434681163 22.86311878012359 6.278503556235313  10.6536415 21.387176 5.80917  10.227293 21.1762305 5.485694000000001  10.34196167847239 23.04022812803222 5.539089550650154  9.972675536961592 23.43303988961866 6.2803420200
[...]
<PointData  Scalars="p"> 
<DataArray  type="Float64"  Name="p"  format="ascii">8.0026462289210158e+00  8.0026309057706317e+00  8.0026329567618522e+00  8.0026351320573230e+00  8.0026153311457549e+00  8.0026150180312090e+00  8.0026125774893480e+00  8.0026185074887426e+00  8.0026197530862575e+00  8.0026147477744836e+00  8.0026098137696930e+00  8.0026543705220998e+00  8.0026386974560726e+00  8.0026350789425837e+00  8.0026404375822651e+00  8.0026314016269602e+00  8.0026303985359206e+00  8.0026280018230196e+00  8.0026234178543785e+00  8.0026270454311668e+00  8.0026288173380014e+00  8.0026199434730412e+00  8.0026306372789389e+00  8.0026244497726324e+00  8.0026221500747283e+00  8.0026237918747167e+00  8.0026274901187833e+00  8.0026297478164565e+00  8.0026183728577021e+00  8.0026242578662110e+00  8.0026154902982736e+00  8.0026179869580343e+00  8.0026225436522331e+00  8.0026193008860496e+00  8.0026402361963509e+00  8.0026363430752347e+00  8.0026235055129042e+00  8.0026252311627477e+00  8.0026253848562749e+00  8.0026243859903001e+00  8.0026266226413707e+00  8.0026223902797575e+00  8.0026223561867749e+00  8.0026268427532319e+00  8.0026340851317297e+00  8.0026288732082360e+00  8.0026330851894087e+00  8.0026264595029240e+00  8.0026231642722863e+00  8.0026262142259768e+00  8.0026220098552034e+00  8.0026333736779698e+00  8.0026368479615044e+00  8.0026518619262674e+00  8.0026338221041531e+00  8.0026498502355849e+00  8.0026379911311558e+00  8.0026384190516566e+00  8.0026509510124626e+00  8.0026414642729140e+00  8.0026392960128288e+00  8.0026537166612837e+00  8.0026559655102893e+00  8.0026286498993109e+00  8.0026527065330200e+00  8.0026376892067166e+00  8.0026401669153682e+00  8.0026330535415493e+00  8.0026295884981451e+00  8.0026390245332557e+00  8.0026325498516311e+00  8.0026305250460279e+00  8.0026394753458181e+00  8.0026455971770840e+00  8.0026348275939672e+00  8.0026273689389722e+00  8.0026495807493720e+00  8.0026500123965665e+00  8.0026512749068583e+00  8.0026515847651112e+00  8.0026575099245747e+00  8.0026418119989717e+00  8.0026568559343065e+00  8.0026360657825020e+00  8.0026441307275604e+00  8.0026480489988838e+00  8.0026378442241395e+00  8.0026332871984867e+00  8.0026383129826595e+00  8.0026342515493578e+00  8.0026309366109754e+00  8.0026433569509798e+00  8.0026241876224731e+00  8.0026255707577150e+00  8.0026273067541336e+00  8.0026413010410735e+00  8.0026322882051026e+00  8.0026241914228393e+00  8.0026223398380107e+00  8.0026528300930373e+00  8.0026578011296419e+00  8.0026466447980074e+00  8.0026410696721033e+00  8.0026582495349849e+00  8.0026246715441882e+00  8.0026403901940171e+00  8.0026572660768363e+00  8.0026496997630545e+00  8.0026440474863954e+00  8.0026347634181647e+00  8.0026308507200206e+00  8.0026178193408892e+00  8.0025060762187454e+00  8.0025295493016131e+00  8.0025091366692660e+00  8.0025269386506093e+00  8.0025268905376183e+00  8.0025481776794827e+00  8.0025464751248663e+00  8.0025453237894411e+00  8.0025293149247414e+00  8.0025116295713765e+00  8.0025648580513025e+00  8.0025468255707679e+00  8.0025673578147103e+00  8.0025445057422324e+00  8.0025636814579464e+00  8.0025826606437303e+00  8.0025441566935136e+00  8.0024879018881521e+00  8.0025081614771789e+00  8.0024995727668955e+00  8.0025099873424494e+00  8.0025318282078857e+00  8.0024570548185068e+00  8.0024859330540501e+00  8.0024825022159991e+00  8.0024729561259758e+00  8.0024883901858281e+00  8.0024966646595992e+00  8.0025205882885686e+00  8.0025160365755621e+00  8.0025362023476880e+00  8.0025328680196210e+00  8.0025325812776469e+00  8.0025144991814869e+00  8.0025187669298212e+00  8.0025387766506402e+00  8.0025133780555624e+00  8.0025022317767505e+00  8.0025271672279334e+00  8.0024851990106463e+00  8.0024617734142716e+00  8.0024876076442304e+00  8.0025208515347028e+00  8.0025211795597286e+00  8.0026572151058861e+00  8.0026490064326001e+00  8.0026582867682823e+00  8.0026479216744306e+00  8.0026399923626528e+00  8.0026405426016183e+00  8.0026351478059858e+00  8.0026475830362660e+00  8.0026592248847255e+00  8.0026579528411528e+00  8.0026543508542023e+00  8.0026564979070294e+00  8.0026547698622057e+00  8.0026487601179745e+00  8.0026375454893355e+00  8.0026302804538361e+00  8.0026454538547114e+00  8.0026576733834407e+00  8.0026430042617278e+00  8.0026431662543445e+00  8.0026312610435291e+00  8.0026329375051652e+00  8.0026329097626423e+00  8.0026276634223645e+00  8.0026373029723086e+00  8.0026334277797471e+00  8.0026319070241776e+00  8.0026273487918598e+00  8.0026363264648666e+00  8.0026403465861549e+00  8.0026408216911040e+00  8.0026358157402822e+00  8.0026410609121488e+00  8.0026472985038168e+00  8.0026253475837823e+00  8.0026345944495052e+00  8.0026720060205534e+00  8.0026759979664472e+00  8.0026967384580860e+00  8.0026715935970003e+00  8.0026231758544579e+00  8.0026293331272420e+00  8.0026261411419739e+00  8.0026249281956208e+00  8.0026432420377880e+00  8.0026437696770731e+00  8.0026324192351179e+00  8.0026395492999889e+00  8.0026485399727409e+00  8.0026368701748805e+00  8.0026461772872963e+00  8.0026458592760736e+00  8.0026369834060382e+00  8.0026536030566984e+00  8.0026449108064828e+00  8.0026574098191183e+00  8.0026548831911875e+00  8.0026584647278511e+00  8.0026416116550365e+00  8.0026415979548560e+00  8.0026320467953322e+00  8.0026295108848302e+00  8.0026365249521429e+00  8.0026321496050752e+00  8.0026293287140540e+00  8.0026727157220066e+00  8.0021561673807344e+00  8.0021584978807514e+00  8.0021219409152202e+00  8.0021383112248898e+00  8.0021404689195599e+00  8.0021770411615467e+00  8.0021256767604054e+00  8.0021640737456767e+00  8.0022046083986176e+00  8.0021151506555555e+00  8.0025003007555497e+00  8.0024916655431735e+00  8.0025136169798099e+00  8.0024930729283561e+00  8.0025031970593457e+00  8.0025050552726373e+00  8.0025149817342687e+00  8.0024902800913331e+00  8.0025035728288199e+00  8.0025211262062470e+00  8.0024820005151529e+00  8.0024598571671941e+00  8.0024842858765037e+00  8.0024683769593743e+00  8.0024752649022250e+00  8.0024899346908018e+00  8.0024697022821343e+00  8.0024985332476266e+00  8.0024751752824308e+00  8.0024518072977227e+00  8.0024798035799378e+00  8.0025356579533291e+00  8.0024955367969337e+00  8.0025319707676239e+00  8.0025697269510410e+00  8.0026069963719983e+00  8.0025494985999579e+00  8.0024985277888465e+00  8.0025721708702431e+00  8.0026282513319167e+00  8.0025438965634770e+00  8.0025853103416917e+00  8.0025846382859722e+00  8.0025125721194090e+00  8.0025219404771128e+00  8.0025505681978597e+00  8.0025478735677336e+00  8.0020574568883092e+00  8.0020873125998424e+00  8.0020904106535458e+00  8.0021025130511614e+00  8.0021506566115796e+00  8.0021196079753825e+00  8.0021338772951776e+00  8.0021368548524272e+00  8.0021243642323636e+00  8.0021155623049740e+00  8.0024984137032558e+00  8.0025005594938747e+00  8.0024829725161286e+00  8.0025122253400589e+00  8.0024892119193805e+00  8.0024798466283844e+00  8.0024760838533755e+00  8.0025353374848702e+00  8.0025012622682041e+00  8.0024676938038031e+00  8.0020296809047338e+00  8.0020874488533025e+00  8.0020768912265723e+00  8.0020780629948138e+00  8.0020273199290486e+00  8.0020467681902172e+00  8.0020263381646437e+00  8.0020419088858485e+00  8.0021215512027446e+00  8.0020585498811485e+00  8.0020285924738257e+00  8.0019862471702101e+00  8.0020138648343586e+00  8.0020001435442953e+00  8.0019741366371928e+00  8.0020046732109869e+00  8.0019474254567040e+00  8.0026262529289429e+00  8.0025982005387881e+00  8.0025834664703464e+00  8.0025916998595026e+00  8.0026586531563080e+00  8.0025813996183999e+00  8.0025465443359725e+00  8.0025584752966505e+00  8.0026746817025689e+00  8.0025653156630767e+00  8.0020464023773172e+00  8.0020537287079065e+00  8.0020246683212886e+00  8.0020805704782223e+00  8.0020857162389962e+00  8.0020578148944477e+00  8.0025443918300123e+00  8.0025411659779291e+00  8.0025383415478881e+00  8.0025382590159033e+00  8.0025446442210590e+00  8.0025478534190988e+00  8.0025445525829682e+00  8.0025469600433592e+00  8.0025310492252402e+00  8.0025515185194891e+00  8.0022846560383023e+00  8.0022015056101274e+00  8.0021853010548707e+00  8.0022352406512933e+00  8.0022212693491674e+00  8.0028062877801673e+00  8.0030171434343522e+00  8.0028432564266723e+00  8.0030179572372617e+00  8.0031761965231496e+00  8.0029321230956061e+00  8.0032236265716605e+00  8.0029352746245213e+00  8.0027848839945452e+00  8.0029893745331879e+00  8.0025015724459045e+00  8.0023939684673060e+00  8.0024544645430744e+00  8.0024139658250384e+00  8.0024445418080390e+00  8.0023003043302996e+00  8.0023653547769094e+00  8.0023433409092402e+00  8.0023895814138086e+00  8.0024125280299891e+00  8.0027058248720842e+00  8.0026185347552072e+00  8.0026246034197843e+00  8.0026321046390443e+00  8.0027086663078144e+00  8.0025837760730383e+00  8.0026196407699999e+00  8.0025794045395102e+00  8.0025527376729606e+00  8.0025183649509977e+00  8.0025071553366089e+00  8.0025164372646156e+00  8.0025000498216858e+00  8.0025223858677990e+00  8.0025097064918373e+00  8.0025261125828511e+00  8.0025155634160718e+00  8.0025242124235447e+00  8.0025305432724139e+00  8.0025301649605645e+00  8.0025078515715595e+00  8.0025079533843932e+00  8.0025248446994972e+00  8.0025428176039970e+00  8.0025476173931036e+00  8.0025474730791188e+00  8.0024932110113234e+00  8.0024349726311126e+00  8.0024509658854104e+00  8.0024158316972187e+00  8.0023579473423414e+00  8.0024129647770526e+00  8.0023951754265781e+00  8.0024277317087193e+00  8.0023750295395413e+00  8.0022721618801000e+00  8.0022992005840781e+00  8.0023297173910439e+00  8.0022306536030481e+00  8.0022592000703003e+00  8.0022345800901338e+00  8.0022042134220257e+00  8.0025989441668255e+00  8.0026190292806483e+00  8.0026628802118633e+00  8.0025982885719120e+00  8.0026133098314300e+00  8.0026109774807050e+00  8.0026486392652441e+00  8.0026472446656349e+00  8.0023587675551866e+00  8.0023811792161528e+00  8.0023848588091031e+00  8.0023420697035910e+00  8.0023965498963445e+00  8.0023256661459303e+00  8.0023400185354436e+00  8.0023254351454902e+00  8.0024307296184105e+00  8.0023286346396478e+00  8.0025644628792669e+00  8.0025795497611867e+00  8.0025648090062624e+00  8.0025738105045345e+00  8.0025682645132576e+00  8.0025724785622465e+00  8.0025574051309860e+00  8.0025529608086199e+00  8.0025555482628778e+00  8.0025515009996830e+00  8.0025554130471495e+00  8.0025527840997199e+00  8.0025482781227364e+00  8.0020026529262047e+00  8.0020576858924279e+00  8.0019958431875597e+00  8.0020343293857508e+00  8.0020283130313619e+00  8.0019705356858815e+00  8.0020558018867192e+00  8.0019393247520405e+00  8.0019984228806145e+00  8.0020556106439411e+00  8.0054320907904337e+00  8.0033240005703092e+00  8.0035849864060538e+00  8.0034113820620227e+00  8.0038879993374135e+00  8.0030468675324702e+00  8.0029455160341616e+00  8.0025652282422861e+00  8.0025869744939282e+00  8.0025784240116717e+00  8.0025769056910914e+00  8.0025635394348846e+00  8.0025661136405688e+00  8.0025638786456259e+00  8.0025579679555925e+00  8.0024218953497535e+00  8.0024150011501032e+00  8.0024292958513321e+00  8.0024226916517556e+00  8.0024011094391749e+00  8.0024468803886304e+00  8.0024688834067792e+00  8.0024533844832408e+00  8.0024028504949154e+00  8.0024417157929477e+00  8.0024760099471912e+00  8.0024931120314626e+00  8.0024905185606414e+00  8.0025108549191479e+00  8.0025247844434819e+00  8.0025167402082573e+00  8.0028005331109586e+00  8.0027386791336088e+00  8.0026937319783791e+00  8.0027709116475503e+00  8.0026659194622560e+00  8.0024942391686054e+00  8.0024964502982421e+00  8.0025102893088569e+00  8.0025068095178007e+00  8.0025104699269889e+00  8.0025105725680685e+00  8.0025047463909367e+00  8.0031992736619877e+00  8.0028391627607895e+00  8.0028602570695799e+00  8.0029547939515222e+00  8.0029358490807816e+00  8.0027690349112959e+00  8.0033078275426011e+00  8.0027260392916588e+00  8.0032832078440563e+00  8.0025248171544945e+00  8.0027286245234208e+00  8.0022828927942786e+00  8.0023077427068667e+00  8.0022600611629908e+00  8.0022828270105197e+00  8.0022842070299482e+00  8.0023017440671698e+00  8.0022482349653146e+00  8.0022296235881782e+00  8.0022771370064554e+00  8.0025312674236400e+00  8.0025236170385856e+00  8.0025311328975661e+00  8.0025358882283051e+00  8.0025263954294186e+00  8.0025208258436784e+00  8.0025201532772083e+00  8.0025132900899560e+00  8.0025070914493170e+00  8.0025525978223175e+00  8.0025576975384176e+00  8.0025552118634256e+00  8.0025516502294529e+00  8.0025647163418991e+00  8.0025576031629058e+00  8.0025551945542279e+00  8.0021230124820093e+00  8.0021513135076567e+00  8.0020933588883683e+00  8.0021597920491914e+00  8.0020842414858127e+00  8.0021922755187180e+00  8.0024997021699633e+00  8.0025238072310358e+00  8.0022625944876840e+00  8.0023052144216020e+00  8.0022714817163010e+00  8.0023296442133756e+00  8.0023535187123382e+00  8.0023282780822225e+00  8.0022738127878821e+00  8.0023064664617269e+00  8.0025568069695456e+00  8.0025600022659287e+00  8.0025501033054844e+00  8.0020946162829656e+00  8.0021194484141205e+00  8.0021477461878074e+00  8.0021043440208359e+00  8.0021086326900708e+00  8.0021547442819490e+00  8.0021381091491630e+00  8.0021815311053697e+00  8.0021251594613094e+00  8.0024597830532223e+00  8.0024607618201280e+00  8.0024779501378323e+00  8.0024400958773416e+00  8.0024794510231700e+00  8.0024930470825026e+00  8.0025190720186501e+00  8.0024914547757238e+00  8.0024155688862795e+00  8.0019481433957971e+00  8.0019717677967144e+00  8.0019475417476436e+00  8.0018925355283752e+00  8.0019139216645758e+00  8.0019419280014716e+00  8.0021057129597288e+00  8.0021514235024931e+00  8.0021495890264660e+00  8.0021418685670458e+00  8.0021146673044115e+00  8.0021821560459205e+00  8.0021872544112345e+00  8.0025499635884056e+00  8.0025506272820408e+00  8.0025316925702299e+00  8.0025765567845486e+00  8.0020844727371401e+00  8.0020724537320493e+00  8.0020413193164863e+00  8.0020566998899021e+00  8.0025046757382725e+00  8.0025450870887660e+00  8.0025515936077749e+00  8.0025290839599776e+00  8.0025248819174539e+00  8.0025224563151340e+00  8.0025434970066502e+00  8.0025535812603525e+00  8.0025477214227898e+00  8.0025764890922524e+00  8.0025670660683872e+00  8.0025509562998849e+00  8.0025400921903440e+00  8.0025571327756904e+00  8.0025376687742131e+00  8.0027518402295108e+00  8.0026719242260658e+00  8.0026690832546965e+00  8.0025348007494532e+00  8.0025292552318206e+00  8.0025358527218202e+00  8.0025438214501108e+00  8.0025426804766564e+00  8.0025360588941759e+00  8.0025305060336489e+00  8.0024522094776902e+00  8.0024758441407258e+00  8.0024796439237065e+00  8.0024743934571472e+00  8.0024904595746928e+00  8.0024984077438077e+00  8.0024919511782873e+00  8.0024974043949886e+00  8.0024964245755914e+00  8.0024426135068989e+00  8.0023931319577155e+00  8.0024806982343417e+00  8.0024296682093077e+00  8.0024639493217524e+00  8.0025094516569943e+00  8.0025805975429734e+00  8.0023546342018292e+00  8.0023959660472777e+00  8.0025225146054222e+00  8.0025323877699961e+00  8.0025256480573788e+00  8.0025303485798531e+00  8.0025306057695751e+00  8.0025371748353162e+00  8.0025315716644023e+00  8.0025405331535620e+00  8.0025471142716302e+00  8.0025249241624898e+00  8.0025772834406546e+00  8.0025301043452810e+00  8.0025614216830654e+00  8.0025671621971561e+00  8.0025446449637805e+00  8.0025450099844342e+00  8.0025678888847196e+00  8.0025598544929952e+00  8.0025216854883112e+00  8.0023148129478603e+00  8.0022890388018091e+00  8.0022219149312317e+00  8.0022570317824702e+00  8.0024255300823803e+00  8.0025483882327944e+00  8.0025153477716753e+00  8.0024927121787304e+00  8.0024907627160591e+00  8.0024700358277929e+00  8.0032777816082348e+00  8.0035646192696266e+00  8.0034685077649357e+00  8.0064994951560777e+00  8.0035578686416606e+00  8.0024535514778474e+00  8.0024534551903344e+00  8.0024281829695827e+00  8.0024519503263090e+00  8.0024324587453268e+00  8.0024073083646456e+00  8.0024433951521914e+00  8.0024288610682675e+00  8.0024177691187948e+00  8.0024545910019391e+00  8.0024513307458438e+00  8.0024161685526387e+00  8.0024243345845960e+00  8.0024288903365797e+00  8.0020855962435871e+00  8.0020692830098099e+00  8.0020798853537958e+00  8.0021165368355405e+00  8.0021078714659701e+00  8.0020807649846564e+00  8.0021014870523093e+00  8.0020048646295674e+00  8.0020102370351847e+00  8.0020248013196724e+00  8.0020577690301256e+00  8.0020337816940934e+00  8.0020666391166806e+00  8.0020164924667068e+00  8.0025323126014491e+00  8.0025281105588597e+00  8.0025508590591219e+00  8.0025466663367784e+00  8.0022052212306587e+00  8.0022090880160590e+00  8.0021562641461941e+00  8.0021752356360629e+00  8.0021470035257121e+00  8.0021839238634307e+00  8.0021305928945150e+00  8.0021627030713915e+00  8.0022106034715854e+00  8.0019843725869091e+00  8.0019704633065718e+00  8.0019793872699108e+00  8.0019576510856023e+00  8.0019435058777226e+00  8.0019765144948689e+00  8.0025119661259314e+00  8.0025022255708667e+00  8.0024948276048313e+00  8.0025170407675343e+00  8.0024960536466558e+00  8.0024723842176293e+00  8.0020894638937197e+00  8.0021124554614005e+00  8.0020934078328203e+00  8.0020564700484655e+00  8.0020770472768294e+00  8.0020549667768304e+00  8.0021274043774966e+00  8.0022737646422542e+00  8.0022319931511081e+00  8.0022953475869087e+00  8.0023149413508179e+00  8.0022652974044579e+00  8.0023124614822194e+00  8.0022721213904937e+00  8.0024838835736123e+00  8.0024082007061494e+00  8.0024186698740927e+00  8.0024997878415913e+00  8.0023952801284253e+00  8.0023996660998211e+00  8.0024522045344817e+00  8.0023115686845863e+00  8.0024824070299108e+00  8.0024137722704047e+00  8.0023085412130452e+00  8.0023437242126114e+00  8.0023304744412549e+00  8.0023715494985463e+00  8.0022251050402726e+00  8.0023413706907576e+00  8.0021545331037220e+00  8.0022911415442195e+00  8.0022484214082663e+00  8.0021978904328783e+00  8.0023464038776808e+00  8.0023526372747913e+00  8.0024188404440206e+00  8.0025014972348743e+00  8.0025177169275477e+00  8.0025218003443612e+00  8.0024966089800191e+00  8.0020566326794835e+00  8.0020602461976633e+00  8.0020755576756422e+00  8.0020602851669640e+00  8.0020392369880859e+00  8.0020659170369512e+00  8.0020800509942589e+00  8.0020461361908275e+00  8.0020222480210226e+00  8.0020950085283751e+00  8.0024640791316717e+00  8.0024473236902143e+00  8.0024805024853514e+00  8.0024786466970710e+00  8.0024663528106306e+00  8.0025748524486193e+00  8.0025631778357429e+00  8.0025752180530851e+00  8.0025719430768856e+00  8.0025058974192760e+00  8.0025059033609924e+00  8.0024983425972014e+00  8.0025035371728581e+00  8.0025097974821477e+00  8.0025036336206838e+00  8.0024930599146664e+00  8.0024840867066622e+00  8.0024714547448177e+00  8.0024796447544730e+00  8.0025020666439506e+00  8.0024646476152839e+00  8.0024864918838450e+00  8.0024876463292305e+00  8.0025033423221679e+00  8.0024793134675907e+00  8.0024572448167621e+00  8.0025248012700043e+00  8.0025149903011865e+00  8.0025159699429835e+00  8.0025364919908828e+00  8.0023556135910141e+00  8.0020172409824220e+00  8.0020672026251880e+00  8.0020501962170112e+00  8.0021069922291943e+00  8.0020757742638562e+00  8.0020780853977147e+00  8.0020871535903559e+00  8.0020979870503908e+00  8.0020977955226353e+00  8.0021058654819885e+00  8.0021136873471708e+00  8.0025222871645116e+00  8.0025277140059519e+00  8.0025220094193728e+00  8.0025314108094232e+00  8.0025307534925538e+00  8.0025278715298818e+00  8.0024635459991789e+00  8.0024558663951062e+00  8.0024474453140328e+00  8.0024782493764803e+00  8.0024714376740071e+00  8.0024378231600153e+00  8.0022939943056475e+00  8.0021941537341998e+00  8.0022640853976093e+00  8.0022367057279506e+00  8.0025209246603897e+00  8.0025163383601559e+00  8.0025241128383762e+00  8.0025167482505868e+00  8.0026634305817872e+00  8.0027425381537043e+00  8.0026560407160332e+00  8.0027305701236298e+00  8.0026246855445713e+00  8.0025451294735888e+00  8.0025503642119933e+00  8.0025918595512273e+00  8.0022760255563092e+00  8.0022496201441751e+00  8