<?xml version="1.0"?>
<VTKFile type="UnstructuredGrid"  version="0.1"  >
<UnstructuredGrid>
<Piece  NumberOfPoints="6949" NumberOfCells="31002">
<Points>
<DataArray  type="Float64"  NumberOfComponents="3"  format="ascii">26.133774 7.882598 32.492443  26.76848994445688 8.212755924275978 32.08089662411849  26.66310040905817 7.481677926626871 31.87430955491804  27.2206165 7.848919 32.3414095  28.307459 7.81524 32.190376  27.85533244445688 8.179076924275979 31.92986312411849  27.74994290905818 7.447998926626871 31.72327605491804  27.19242681811635 7.080757853253742 31.25617610983608  27.29781635351505 7.81183585090285 31.46276317903653  27.40320588891376 8.542913848551958 31.66935024823699  26.184608 8.257787 31.336111  26.43452440905817 7.150366426626871 31.56000505491804  26.68851740905817 7.669272426626871 31.29614355491804  25.930615 7.738881 31.5999725  26.159191 8.070192500000001 31.914277  25.905198 7.5512865 32.1781385  25.676622 7.219975 31.863834  28.305004 8.982087999999999 32.366043  27.68389394445688 8.37938992427598 32.4163096241185  27.85410494445688 8.762500924275979 32.01769662411849  28.3062315 8.398664 32.2782095  28.134793 8.598977 32.764656  27.964582 8.215866 33.163269  28.1360205 8.015553000000001 32.6768225  27.052496 11.987636 31.510792  26.998677 11.065738 31.6611665  28.009282 11.413943 31.374016  26.987998 11.503782 31.261121  27.063175 11.549592 31.9108375  27.073854 11.111548 32.310883  28.019961 10.975899 31.7740615  26.9235 11.019928 31.01145  27.944784 10.930089 31.124345  28.966068 10.84025 31.23724  27.019861 10.068144 31.896021  28.26074251351315 9.875255954449116 31.85560537924959  27.43668101351315 9.840744954449114 31.48990487924959  27.9929645 10.454197 31.5666305  27.8439225 10.102655 32.2617215  28.667984 10.137166 32.627422  28.817026 10.488708 31.932331  28.40978451351315 10.22679795444911 31.16051437924959  27.8535010270263 9.61334590889823 31.08378875849918  26.79390694445688 8.400350424275979 31.50273062411849  26.4251585 8.564361999999999 31.851279  26.665709 8.870937 32.366447  27.03445744445688 8.70692542427598 32.01789862411849  26.3997415 8.3767675 32.429445  26.661316 9.243088 31.741182  27.21153344445688 9.305528924275979 31.78268562411849  26.842785 9.469540500000001 32.131234  26.838392 9.8416915 31.505969  27.3151455 8.5434015 32.764858  27.4853565 8.926512499999999 32.366245  27.870919 10.624357 32.4691525  27.0120655 10.548216 32.62938699999999  27.0468575 10.589846 32.103452  26.985069 10.026514 32.421956  26.950277 9.984883999999999 32.947891  27.8091305 10.061025 32.7876565  27.312592 12.869287 31.300837  27.900606 12.0189885 30.988861  27.6782705 12.4883925 31.2933505  27.8083185 12.929218 31.188373  27.182544 12.4284615 31.4058145  28.304045 12.989149 31.075909  26.9716805 10.544036 31.4537355  28.05881144445688 8.486798424275978 31.54409712411849  28.17819160626638 7.896768889653809 31.33069689660983  28.510938 8.122961500000001 31.80461  28.714417 8.430683 31.418844  27.6276405 9.483485999999999 32.65696699999999  27.6624325 9.525116000000001 32.131032  28.486494 9.559626999999999 32.4967325  26.807993 9.427910499999999 32.657169  28.439352 6.430969 32.218544  27.23066494537106 6.106704066063635 31.59801297630644  28.03552740905818 6.24743392662687 31.38694555491804  27.81588940905817 6.75586342662687 31.73736005491804  27.85412753631289 5.781809639436764 32.07919692138839  28.65899 5.9225395 31.8681295  28.878628 5.41411 31.517715  28.07376553631289 5.273380139436764 31.7287824213884  27.26890307262578 5.132650278873528 31.93984984277679  28.07925251351315 9.297716954449115 31.72491587924959  27.049178 8.049232 32.827856  28.5097105 8.7063855 31.8924435  27.62835345797003 9.078129878725093 31.37656950336808  24.909063 6.172998 31.309246  25.40999930402881 5.427221590000945 30.70326011757268  24.7967945 5.674572 31.005208  24.922494 6.1228245 30.579199  24.684526 5.176146 30.70117  28.28395901351315 9.022014454449115 31.25131637924959  27.38850051351315 10.31663695444912 31.04761937924959  28.574499 9.219628499999999 31.872058  28.843994 9.457169 31.378073  28.34874751351315 9.535257454449116 31.23093087924959  28.755989 9.7971675 32.0027475  26.7902115 10.3175835 31.0636835  28.905031 10.1487095 31.3076565  36.832638 21.543701 26.199955  37.2725579065171 21.00479219237334 26.02104049734259  36.670597 20.970496 26.236496  36.740776 21.0961485 25.6696645  36.648914 20.648596 25.139374  37.1806959065171 20.55723969237334 25.49074999734259  36.57873499999999 20.5229435 25.7062055  36.508556 20.397291 26.273037  37.1105169065171 20.43158719237334 26.05758149734259  37.7124778130342 20.46588338474668 25.84212599468518  35.828743 17.192183 26.525017  36.48246778821498 17.40217056511337 26.45836844012287  36.281378 16.9388095 26.141119  36.1131685 17.4142495 26.0057365  36.397594 17.636316 25.486456  36.93510278821498 17.14879706511337 26.07447044012287  36.76689328821497 17.62423706511337 25.93908794012287  36.5658035 17.160876 25.6218385  36.734013 16.685436 25.757221  37.13619257642995 17.61215813022674 26.39171988024574  36.84819 20.611948 28.681374  37.44606770915325 20.17533087481501 27.76370623076033  37.15033320915326 19.53610987481501 27.71873573076034  37.43820920915326 19.98088337481501 28.41683623076034  36.56031400000001 20.1671745 27.9832735  36.8560485 20.8063955 28.028244  36.272438 19.722401 27.285173  36.5681725 20.361622 27.3301435  36.863907 21.000843 27.375114  38.02822841830652 19.34981874963002 28.15229846152067  38.10201890597638 17.67655994399546 28.03179357236413  37.16013388959786 17.87283029819861 28.42719370618029  37.42139258779029 18.10985658184041 27.96202143208617  37.06749340060276 18.41668972858163 28.8003718463468  36.7407662696042 18.54315321968537 27.89224929180822  36.47950757141177 18.30612693604357 28.35742156590234  36.21824887321934 18.06910065240176 28.82259383999645  35.453289 17.862593 27.478098  35.5070685 16.935181 27.149353  36.07263639002954 17.36868779153047 27.61348663004915  35.641016 17.527388 27.0015575  35.3193415 17.270386 27.6258935  35.185394 16.678179 27.773689  36.26036339002954 17.03348279153047 27.13694613004914  35.93868889002954 16.77648079153047 27.76128213004915  36.69198378005908 16.87478258306094 27.74887526009829  37.42949668477127 21.29608194240885 25.3690305915708  34.766174 17.842693 28.607563  35.83576893660967 17.96584682620088 28.15034591999822  35.49221143660967 17.95589682620088 28.71507841999822  35.177641 18.336213 28.3433645  35.1097315 17.852643 28.0428305  35.589108 18.829733 28.079166  35.90367843660967 18.44941682620088 28.45087991999823  35.5211985 18.346163 27.778632  36.89094230054865 19.43859878857053 26.83855662662408  36.390497 20.059846 26.779105  36.26458150000001 19.6258345 26.511007  36.256725 19.529268 25.736841  37.00900130054865 19.77604378857053 26.33248862662408  36.88308580054866 19.34203228857053 26.06439062662408  36.3826405 19.9632795 26.004939  37.5094466010973 19.15479657714106 26.39194025324816  34.668488 19.066471 28.979675  35.2271949727064 18.58794298155484 29.62295691276892  35.2655675 18.483852 28.874193  34.717331 18.454582 28.793619  34.6789584727064 18.55867298155484 29.54238291276892  35.2167245 19.095741 29.060249  35.764961 19.125011 29.140823  34.7278014727064 17.94678398155484 29.35632691276892  34.68942894541279 18.05087496310967 30.10509082553784  36.261154 19.591915 28.518131  36.266796 19.657158 27.901652  36.554672 20.1019315 28.5997525  37.14469120915326 19.47086687481501 28.33521473076033  36.6868495 20.044055 25.5942725  36.9846014065171 19.99757569237334 25.78948349734259  36.560934 19.6100435 25.3261745  36.865143 19.690819 24.915508  37.2881924065171 20.73336319237334 26.60861999734259  36.6862315 20.699067 26.8240755  36.8482725 21.272272 26.7875345  34.968513 23.10043 33.085052  35.62481453696271 22.95652242343306 33.77909001032837  35.8208485 22.675276 33.217785  35.38454003696271 23.37027692343306 33.46786001032837  35.2087875 22.6866755 33.396282  35.449062 22.272921 33.707512  35.80056707392542 23.64012384686612 33.85066802065674  35.45383890931606 18.05998780775572 29.46384233276714  35.99160493660967 18.59705582620088 28.98170841999823  36.6924616348021 19.06783360984269 28.67967864590411  37.33619270915326 19.47116637481501 28.80970323076033  36.5009601348021 19.06753410984268 28.20519014590411  36.4526555 19.5922145 28.9926195  36.644157 19.592514 29.467108  37.38449734395536 18.94648598465769 28.02227387666444  35.32376409024335 17.44029901845761 29.16724149205312  36.04980152685302 17.55350284465849 29.27475691205134  35.28539156294975 17.54439000001245 29.91600540482204  35.8813541804867 17.03790503691522 29.72691998410623  36.257072 18.670582 30.06263  36.63778735604402 17.66406563719656 29.7177071924958  36.06921309024335 17.85424351845761 29.89477499205312  36.620676 18.1860535 30.4513855  36.98428 17.701525 30.840141  36.43281709024335 17.36971501845761 30.28353049205312  36.29474078821497 17.73737556511337 26.93490894012287  36.91408817824451 17.24347035664384 27.07029757017202  36.5066021348021 19.13277710984269 27.58871114590411  35.930773 19.276067 27.6821695  35.925131 19.210824 28.2986485  36.1649371348021 18.68644310984268 27.98570764590411  35.711241 18.1560985 26.939334  35.969193 18.449604 26.40057  36.55269278821497 18.03088106511337 26.39614494012287  35.898968 17.8208935 26.4627935  37.61096220706575 19.81033998094387 26.11703312396667  36.20399939002954 16.39692979153047 27.29351913004914  35.4507045 16.298628 27.305926  35.772379 16.55563 26.68159  35.716015 15.919077 26.838163  36.93847942301707 18.07765567495606 27.14198458602698  37.12510643535075 18.84897489841321 27.14209477252819  36.3549796348021 18.49637860984269 27.14640964590411  36.73931980054865 18.80220028857053 26.39625512662408  37.32281958876362 18.3834773536839 26.39183006674695  36.99965278821497 18.11876406511337 25.75049494012287  36.41615299999999 18.537487 25.75492  37.80573275353684 18.41567826056826 27.21186691280615  37.
[...]
<PointData  Vectors="u"> 
<DataArray  type="Float64"  Name="u"  NumberOfComponents="3" format="ascii">6.8635439402720593e+01 9.3350256206942177e+01 -5.0888171731467843e+01  4.6563250575479685e+01 9.7375162100736105e+01 -3.3978548853905316e+01  4.6698048103573491e+01 7.9736359539090486e+01 -4.1757766257494865e+01  4.0272943600032512e+01 9.3540669194883066e+01 -3.9396074545148750e+01  1.9332899851932073e+01 9.1898461198169386e+01 -5.1294580024422451e+01  3.1502234789228702e+01 9.4080482808605922e+01 -3.1719807788989840e+01  3.6926558924243125e+01 7.3286721469301369e+01 -4.4548868360551715e+01  4.7104990800122351e+01 6.1700371943193531e+01 -3.8507374184131791e+01  4.1472313786560669e+01 7.7636427595813174e+01 -3.0924336784845931e+01  3.8818770189136252e+01 9.6124549746581621e+01 -1.8449756699729605e+01  3.8578267225306583e+01 9.0492499014117229e+01 -2.6250888753220984e+01  4.8563872839780409e+01 6.9885002610969551e+01 -4.0745045027164501e+01  4.5068231913509926e+01 7.4814629924845534e+01 -2.9959276412182035e+01  3.9799700764263186e+01 8.7073607409788906e+01 -4.0214728792076052e+01  4.6392295814743761e+01 9.2631575027821398e+01 -4.1202543178242159e+01  6.7950371116546179e+01 8.4352667329267121e+01 -6.4186360775948273e+01  5.6910973449498670e+01 7.4923132927140017e+01 -5.7438762751766298e+01  3.4547584160526512e+01 1.3947590711656665e+02 -8.3303825702362144e-01  3.3471166928029270e+01 1.1346947598396221e+02 -2.8859868849569153e+01  3.1805115316574067e+01 1.1169914908874223e+02 -1.3949399932669774e+01  2.0026838914421457e+01 1.1258723285730636e+02 -3.1236959696813656e+01  2.6249220276030002e+01 1.4250336751738166e+02 -2.2021867206424030e+01  1.8238807960959868e+01 1.3457637180653978e+02 -4.0243740512453918e+01  1.5069799534521643e+01 1.1394389650134785e+02 -4.6739175491077411e+01  1.8309609546153762e+01 1.0523741546128758e+02 1.2169801421954719e+02  1.6244870891154314e+01 1.1488519128409672e+02 8.2350406782739526e+01  4.8656322861336385e+01 1.1129402663605892e+02 1.0252305701761904e+02  1.7283591206593542e+01 1.0068534350528088e+02 1.0780726782172708e+02  8.5931473921690955e+00 1.2584482129875724e+02 8.9563194245987006e+01  7.4025896031591953e+00 1.3654916682523813e+02 4.9854480510296042e+01  4.3862031088749703e+01 1.2558989761679335e+02 7.6619808739229256e+01  3.3401203423223400e+01 9.0968803766930307e+01 9.1419207368096451e+01  3.2639872374141021e+01 9.7594510541262224e+01 8.0336540694009187e+01  7.0798967414035241e+00 1.2217846132721898e+02 1.0270516350049439e+02  3.1071308119106888e+01 1.3691041380359553e+02 3.5565707287577624e+01  2.9521949818911946e+01 1.2108297072594549e+02 3.8131006597612433e+01  3.6362137714882778e+01 1.0742497431311060e+02 2.8502622120047217e+01  3.3882767709299110e+01 1.1541998667513394e+02 5.6666998823163816e+01  4.2432601230628691e+01 1.3807469694810052e+02 3.4308235116716183e+01  7.4345684862555501e+01 1.7429117236014824e+02 7.2964179575941458e+01  2.4390326248712501e+01 1.6266965483917645e+02 9.0704557505432234e+01  1.6155916226129630e+01 9.5836301771551661e+01 4.8213674607155525e+01  3.1901653200327267e+01 8.8459927224404098e+01 2.0262893318146691e+01  3.9978522165746277e+01 9.1159175668841087e+01 -2.0415107916199041e+01  4.1307839777561853e+01 1.0589593773535738e+02 -3.1296499550490978e+01  5.5656599475058435e+01 1.2273370923239062e+02 -2.8861770722603620e+01  4.2157259658591911e+01 1.0939337837992785e+02 -2.0103383687474562e+01  6.2436146703307813e+01 1.0107323321814467e+02 -4.2573005078336479e+01  4.0271990203656600e+01 1.0666666493080223e+02 -1.6104868340630665e+00  4.1482216395321572e+01 1.1179836695298968e+02 4.9479192807602006e+00  4.3334459011828315e+01 1.3193990590947911e+02 5.9025033714945421e+00  4.3158528045135526e+01 1.1298660534618578e+02 2.5091510778084906e+01  4.6734544036533897e+01 1.2268763474863235e+02 -2.8176122314443155e+01  4.1091954927392592e+01 1.2541958864085426e+02 -1.2585976222515141e+01  5.4619812694253028e+01 1.4430718390733406e+02 4.5764653641015563e+01  -7.0330407170138420e-01 1.5556912071765518e+02 1.5014528938430253e+01  1.3839968182395705e+01 1.3867527058334710e+02 4.8033081482919052e+01  2.6945817742214423e+01 1.5892837625420759e+02 1.4964925637029756e+01  4.1180867099805198e+01 1.6876224107126609e+02 -1.4098249559916461e+01  6.1944702116689719e+01 1.5271162684959631e+02 1.9720683542288132e+01  2.5218025887087450e+01 1.3383777571354761e+02 1.7528529302596158e+02  4.2824544693351953e+01 8.8980605970786073e+01 1.3790869105894069e+02  4.3176808659205470e+01 1.1096884273243927e+02 1.4750498827909405e+02  7.1631030336739727e+01 1.4365957522280826e+02 2.0641470438790267e+02  4.0956032848102645e+01 1.1255503882647537e+02 1.5232278963512420e+02  7.7372512045773604e+01 1.5736834413202212e+02 2.1846562173762982e+02  2.8205264770366639e+01 1.2023256727921154e+02 7.4454476124066161e+01  3.1397680244191939e+01 8.8855138008830920e+01 -2.1687596620551989e+01  3.5809763692508724e+01 7.2747627199163446e+01 -3.7976664583282016e+01  2.2290560780662783e+01 8.8879454219499081e+01 -3.8656628266140970e+01  2.3905269006319354e+01 8.0406918516698710e+01 -3.2238964849450689e+01  4.9404380283564372e+01 1.4383694333502797e+02 8.7645701360495976e-01  4.1079674694343126e+01 1.2793655929735569e+02 1.3078208890298514e+01  4.6426266749724718e+01 1.4705405682465209e+02 3.1187252624168931e+01  5.4937055512073712e+01 1.5081096386908652e+02 -1.8614924359661085e+01  2.7910852697865128e+01 5.0397124796412037e+01 -7.3919771253023839e+01  4.8746361657420955e+01 4.6634073655872740e+01 -5.3098710938443560e+01  4.5849454426603288e+01 4.2989824357115353e+01 -5.7820296704935622e+01  3.9149206057776134e+01 5.7392715907619326e+01 -5.4823339471093050e+01  4.1273169569894506e+01 4.2010724429814857e+01 -7.0844437529992774e+01  3.7995844477249442e+01 3.2122790060047116e+01 -7.7833747645769336e+01  5.5715964781219313e+01 1.0662909246272552e+01 -7.5905358849810369e+01  5.0921988963444441e+01 2.4707815972587454e+01 -7.5473065174558315e+01  4.9224992884898633e+01 3.0454660155556738e+01 -7.2368176860093143e+01  3.2711213681659920e+01 1.1032013945244208e+02 1.0860982270579829e+01  4.8126088037340189e+01 1.0617897888330518e+02 -3.8607476988182171e+01  1.4596974949929750e+01 1.0727502016779535e+02 -1.9254515043412542e+01  3.5651666157303545e+01 9.4057901507729710e+01 8.7648589559291679e-01  4.2994730621207680e+01 5.0509837427172457e+01 -6.4351904084464749e+01  3.6509713723630142e+01 2.8344830426528091e+01 -3.3936886809864312e+01  4.0037291474818701e+01 4.3216317253536438e+01 -6.7728454793899630e+01  1.2982707896649073e+01 4.3152839955107702e+01 -2.3427831535573109e+01  2.0162437236687850e+01 2.1383305300629850e+01 -5.6805664571279372e+01  2.7304042087126216e+01 8.6520830158825291e+01 -4.5631314808566810e+00  3.5046406245671619e+01 9.1052028140893370e+01 5.1206691376919927e+01  2.7195311064686827e+01 1.2292909189603621e+02 1.7249102734927330e+01  9.8181713753811750e-01 8.8463156795310326e+01 1.5093559850590530e+01  2.4354251271244316e+01 9.0441935020449421e+01 1.8409864021034739e+01  9.2754859010133099e+00 1.1562781599850835e+02 5.3665088765843898e+01  3.9685787467412794e+01 8.9923768049532654e+01 5.3103837258567857e+01  -1.3159886409175796e+01 1.0275988398197256e+02 4.8375702782232722e+01  7.9931597271409238e+00 5.4637207425597254e+01 -1.1407095347956417e+01  3.0552435878468724e+01 5.8092713844092707e+01 -1.8773397228678281e+01  1.9353092322746576e+01 7.6082848126504530e+01 -2.1322023908661617e+01  1.1358557123252037e+01 6.2384385893823932e+01 -2.3929198819245382e+01  1.5449049581498265e+01 6.5741516826096174e+01 -3.1591019204480631e+01  3.1887896588576474e+01 6.1513547665304827e+01 -2.7145349602971621e+01  2.5471155698517059e+01 7.6388820555582555e+01 -3.2059456954532692e+01  2.9422537157575704e+01 8.9788630169821502e+01 -3.8421722508391746e+01  3.7752442364132868e+01 7.3447513738698916e+01 -2.9293632997226901e+01  4.6852552595497002e+01 5.8914882768843903e+01 -2.2980779768152285e+01  6.7515203037045495e+01 1.2527878430712252e+02 -1.2290823493900153e+02  7.8811755049386221e+01 1.1072836547809580e+02 -9.8868120945808997e+01  6.1679363874710432e+01 1.3800009190741883e+02 -1.2322480837411932e+02  5.0093375252515685e+01 8.8031477647783419e+01 -1.1450685123485229e+02  4.1259620632707296e+01 7.5783403860017287e+01 -6.5556333627879440e+01  7.7183386975245654e+01 1.1418852198813245e+02 -7.7378712293709512e+01  6.6624851525530588e+01 9.7569273280952999e+01 -7.1560055694614675e+01  2.9551327964022242e+01 9.3352351733976064e+01 -8.8619507712967376e+01  6.0932995725483771e+01 1.4709035163629414e+02 -8.6349265688707320e+01  9.4354625827906261e+01 1.0350588782864691e+02 -6.3655175903532424e+01  5.0122309992652106e+01 1.3812516263573272e+02 -1.1650208656580423e+00  7.7228669963482446e+01 1.0005811325637413e+02 -2.7000628409595858e+01  1.0325535453041532e+02 1.1769484779684170e+02 -4.9410156322527904e+01  9.8168692051136674e+01 1.1625457202510169e+02 -1.9202501871728877e+01  7.3996415435172338e+01 1.5284719689282312e+02 -4.0078433904899178e+01  3.9349790224825576e+01 1.2184560500298336e+02 -1.3571040170030658e+01  7.8623779001541521e+01 1.4635176955622285e+02 -8.8623429629619665e+01  5.0125380806175890e+01 1.1735724295699110e+02 -3.9719446285897774e+01  2.8967633230872270e+01 9.6211739167406279e+01 -1.9665650462254675e+01  1.1556914111811911e+02 9.0537323068581472e+01 -2.4386440932709480e+01  1.5749242968914095e+02 9.0679366343542441e+01 -3.4085218949641778e+01  1.8291548797543223e+02 1.0567711961613543e+02 -6.8497096014728811e+01  1.5388219081278982e+02 1.0288350123229924e+02 -5.7363487102639048e+01  2.0930209757363249e+02 1.1934653314893228e+02 -6.2594307102274080e+01  1.5602209823167408e+02 1.2272904123741083e+02 -9.2300943027606053e+01  2.1100479523661087e+02 1.1871912906387702e+02 -1.1777464558078390e+02  2.6989133081157524e+02 9.3380233258182955e+01 -1.3576606600818116e+02  1.2342040002676359e+02 1.0661690705819284e+02 -1.9900624397684675e+02  7.2717432803637450e+01 1.1125103841574565e+02 -1.5171783099888006e+02  1.3677046467329527e+02 1.0344501545085350e+02 -1.3619338062002515e+02  7.6767058442134811e+01 1.1693892938331135e+02 -1.4884390584395169e+02  1.1892480445489112e+02 8.4108579671147339e+01 -1.9610025796543775e+02  1.0685715417924665e+02 9.0155432062583841e+01 -1.7718784024825328e+02  1.0957962054133934e+02 1.1887330575979293e+02 -1.0742850636543547e+02  1.3663625491503149e+02 1.0282544813705499e+02 -1.3029779097495569e+02  1.5169664546881930e+02 1.0834142976056042e+02 -8.7879738005958089e+01  2.4581542953744631e+01 3.8458804809333635e+01 -1.3643085521188148e+01  3.0923324296997748e+02 -4.6676810397766289e+01 -2.9788481067226064e+02  2.0023283723347302e+02 9.0013834827970271e+01 -1.8509554133753969e+02  2.8435373988025049e+02 3.2678064407993105e+01 -2.1719520329615472e+02  2.7409712091295194e+02 2.8257919852843589e+01 -3.4474353684197013e+02  1.6884552456228877e+02 5.2802052976176419e+01 -2.6975128027432481e+02  2.6390391387824127e+02 1.3662654120060361e+02 -2.8111647927341863e+02  2.7169560559117002e+02 1.0298762732698583e+02 -1.9397746355694611e+02  1.5396392770179295e+02 1.2974762488684743e+02 -2.4409542552534185e+02  6.9683054692557917e+01 1.0717896617587114e+02 -6.1011371905577029e+01  3.7574489562966008e+01 1.0486062033964488e+02 -5.4133024019697963e+01  2.5860938662724038e+01 1.1072358848693410e+02 -6.6196704870471734e+01  2.1756021748232488e+01 9.1678236086623045e+01 -5.3605535959732443e+01  5.1755972864429637e+01 8.9967622862841722e+01 -4.3283800117556240e+01  5.1537776294907665e+01 9.3762826168276703e+01 -5.0505901031488634e+01  2.8774216085670993e+01 9.0090586453429253e+01 -4.4826299115827645e+01  7.6696869008598313e+01 8.8252732863608927e+01 -4.1501578809364879e+01  5.4621530004814770e+02 -2.5008481314187623e+02 -2.6545005722219861e+02  4.1614928331189151e+02 -8.7567603553579019e+01 -2.3381813293347798e+02  3.7791447151934955e+02 -2.4504009074659379e+01 -2.6999848222684250e+02  4.7434845333168141e+02 -6.2466832164496488e+01 -2.8945792133051202e+02  3.7757510736902094e+02 -1.2052036503383793e+02 -1.9442417522836587e+02  5.0994704019267698e+02 -9.7411788383827727e+00 -2.9737096035739114e+02  5.7141839193723342e+02 1.1488716253677343e+02 -2.5659755204170096e+02  3.4516983727653775e+02 -7.5400068510723955e+01 -2.0833507160745106e+02  3.2517217906556715e+02 -8.8822739115319749e+01 -2.0067142420355907e+02  1.7691086314155197e+02 2.2902007978860669e+02 -9.3717123333326398e+01  1.2202425039080532e+02 1.8157302322600850e+02 -8.3160008132759231e+01  1.0209156516442935e+02 1.8496387116627398e+02 -1.8142493036291434e+01  1.3067490986323108e+02 1.3984337057891730e+02 -4.0146984777609035e+01  3.2806289154690276e+01 7.7859420707785077e+01 -3.8719346083977150e+01  4.0625271852733917e+01 7.9007936155410846e+01 -3.7353152442144662e+01  2.8812235521863354e+01 7.9602598464474582e+01 -4.6062903016874905e+01  2.9915463993949192e+01 8.0171320471711439e+01 -3.6509435793540206e+01  4.0697086360733906e+01 7.3505282228248049e+01 -2.4241437421189904e+01  3.4100873143134756e+01 9.7798745197023024e+01 -3.2412948187124805e+01  1.4366383723434394e+01 7.6867580778394611e+01 -1.3414153835735979e+01  3.9911337395706715e+02 2.3256733023244675e+02 -1.3675409755472066e+02  3.8916106191623294e+02 1.4948985570007810e+02 -1.8339688804288389e+02  4.0403802881294365e+02 1.9047197345341127e+02 -2.2589918663169618e+02  3.6676499885101947e+02 1.5057467345128677e+02 -1.6164063815530506e+02  4.7225702052761329e+02 3.0225056034094371e+02 -9.9190246794595936e+01  4.2774137441110383e+02 3.0243757158710076e+02 -1.1257919182839775e+02  3.3658281328315769e+02 1.1576152531553403e+02 -1.5572633896694177e+02  3.5873032056884182e+02 -2.1728389159461361e+01 -2.0232625647166273e+02  3.7216928715316641e+02 1.1904048172398238e+02 -1.7446926087575014e+02  2.1777294191045434e+02 1.6415046141661711e+02 -8.2028397388549024e+01  1.3820985315845641e+02 1.3999153016245165e+02 -1.7590884001431636e+01  1.7723576190231353e+02 1.5757237284354053e+02 -9.5879533917395790e+01  2.4373539301799613e+02 2.6717186337157926e+02 -4.4489852498541040e+01  1.7752181489674649e+02 2.3730466733772724e+02 3.5669141897890213e+01  1.3767575041848144e+02 1.1230095104974249e+02 -5.1286464133791462e+01  2.8600189924154063e+02 1.3161193569197966e+01 -1.9646175442820342e+02  2.8711494901058910e+02 6.6552288661373751e+01 -1.3038605613678638e+02  3.3444658072636440e+02 -9.8177670187449930e+00 -1.7812535497371863e+02  2.9196983924978440e+02 4.5528859298855537e+01 -1.3622689576346892e+02  5.5446526282741672e+02 1.7779898086592576e+02 -5.1228342869461912e+01  3.0008345886306950e+02 9.9076939439597865e+01 -7.3755724055055623e+01  3.9235321076486468e+02 5.2971719192227965e+01 -1.3902365184816520e+02  4.5845930313936526e+02 2.4218584372165412e+02 2.7304653568032478e+01  3.8444115161272572e+02 1.8260132343143155e+02 6.5039753743465283e+01  3.5273548283385060e+02 9.4321107315035320e+01 -6.1321856846164508e+01  9.5658571053229537e+01 1.1093308749432624e+02 -1.1022669903527611e+02  1.2194903494820900e+02 1.1161165980799596e+02 -7.9241549285755411e+01  1.1640910043438532e+02 1.3787480930611412e+02 -9.1611567876566639e+01  1.2204183981049320e+02 1.6264654542231270e+02 -1.2758746093560620e+02  1.9762138157356182e+02 2.5061354275351783e+02 -1.7248708796564728e+02  1.7430747992714723e+02 1.4710375855026382e+02 -1.5473489512762652e+02  7.1197034209685455e+01 1.1256302453551980e+02 -1.4005588537341688e+02  6.1189597161310878e+01 1.1937939497367412e+02 -1.0323687907358658e+02  7.8101594715078917e+01 1.0637826060126069e+02 -8.1309737266859770e+01  5.8405531982498132e+01 1.0767779849438402e+02 -1.1314286283630447e+02  6.0071223982219131e+01 7.4987071036650306e+01 -3.1386003260535716e+01  1.1271849631118999e+02 1.2981742740682373e+02 -9.7498577363864527e+01  8.3577222944921729e+01 1.3523336621928593e+02 -1.3618153514794011e+02  6.7399946335580879e+01 1.3937688655112299e+02 -1.0646066224122612e+02  7.7053841138938566e+01 1.7591452245659485e+02 -9.2542585774966923e+01  1.1685122183289569e+02 1.0728744821632553e+02 -8.0403079804131565e+01  1.0367193276616820e+02 1.0579132909117833e+02 -6.3057573054577823e+01  1.1042976800484630e+02 1.1725483632440138e+02 -1.1239189403617304e+02  6.6254069196087102e+01 1.0630048777056301e+02 -6.9963719631809141e+01  8.7921179551856326e+01 9.6540335668351887e+01 -5.2473337149135240e+01  6.8386586751065380e+01 9.6752623422347327e+01 -4.9606727114451417e+01  4.9606216729904318e+01 1.1736544137424360e+02 -6.4309668689048038e+01  1.1735541512719904e+02 9.2049439806342036e+01 -4.2062241560528584e+01  9.8323690046469622e+01 9.0622912043583611e+01 -3.6569539322065971e+01  1.4174371927856376e+02 9.1001496824404896e+01 -3.1712784731256683e+01  2.6134585158155539e+00 3.6895941270563007e+01 -1.3644833763811027e+01  2.8721815500752251e+02 1.2468547579251802e+02 -1.4743253418933685e+02  3.0639455547565660e+02 9.9886962669526767e+01 -1.3666088967748553e+02  2.7311383658113141e+02 8.7948236020739245e+01 -1.3591302154714288e+02  3.2273539093683343e+02 9.1606484220221603e+01 -1.5322038670941282e+02  3.3958525614775107e+02 5.0236132539576325e+01 -2.4061399653526829e+02  3.4662357067598003e+02 9.9872841154291308e+01 -1.6490555654910256e+02  4.3971038447546715e+02 1.5145664247868240e+02 -1.6546454837907942e+02  3.6179983168574682e+02 1.1640030745875468e+02 -1.1132736848236362e+02  7.1948657001977722e+01 1.9471868808581021e+02 3.0615822313899148e+01  1.4183895910901086e+02 6.4815712986223744e+01 -1.4786282313925005e+01  1.2355636282003879e+02 7.5557474448984848e+01 -2.5304216954852375e+01  1.4331037141733142e+02 1.1728763368668085e+02 -1.4867731890220927e+02  1.5729723586757419e+02 1.0603503623651764e+02 -9.4898598964086645e+01  1.9164337182349331e+02 9.5355582331221470e+01 -1.1151798220149166e+02  1.9793086103564625e+02 9.6003533726593545e+01 -6.3875465038168976e+01  2.4553836881700789e+02 9.8927081368101469e+01 -6.7660205412398923e+01  4.5582426242973312e+01 3.8383719297379450e+01 -8.8123931242758058e+00  5.4731044795954659e+01 5.6973070749304462e+01 -1.6918598771959271e+01  6.2737659788600460e+01 4.0136781488907054e+01 -1.1320712564099088e+01  5.6429481120868680e+01 5.1782441910953956e+01 -1.2272900720585705e+01  2.9366876913057632e+02 1.1735443419043673e+02 -1.1981807418411400e+02  3.0665765814395348e+02 1.2731417352980971e+02 -1.1916117563059683e+02  2.8992361573356618e+02 1.0732878656899265e+02 -1.1581449150080523e+02  2.9247597792227884e+02 1.2284300325822184e+02 -9.8879916290320267e+01  5.9352042831775968e+01 9.1709027280228483e+01 -3.7648698572766030e+01  2.1505606342993988e+02 7.8431586369621812e+01 -1.1319959193828073e+02  2.1553796699894104e+02 8.2477013893998944e+01 -8.7984019972883544e+01  1.9759438841939092e+02 5.3036838741246569e+01 -1.7291132078448877e+02  1.5240503315790178e+02 1.0663961563658106e+02 -9.9534553437991718e+01  1.6691973774260762e+02 1.0878659612584299e+02 -6.6341216122877626e+01  4.8274759089644738e+02 1.5803527316829491e+02 -2.6689192482720341e+02  5.8305962016395419e+01 9.5898602963212895e+01 -7.1748405609821774e+01  3.1547155838410231e+02 1.9722155170824414e+02 -7.4874001719690852e+01  1.8534017436040969e+02 7.1139975136938730e+01 -1.7672883107676816e+02  1.0837654344480660e+02 1.2732129164784355e+02 -8.0697677634861762e+01  7.9710449606199163e+01 1.4838390650997252e+02 -1.0258940900928695e+02  1.3039304710168594e+02 9.8037958258744240e+01 -5.0908842574387144e+01  1.6509146967829642e+02 1.1205222327345730e+02 -2.1198610501747623e+01  1.5446944725774017e+02 9.3099852812597064e+01 -1.2449308965853799e+01  7.0335796613063167e+01 1.3654772869421257e+02 -1.1300494477301683e+02  2.1214235843079539e+01 1.1846759647625518e+02 -7.6261120844566179e+01  3.9955174263815599e+02 -1.2569365845069613e+02 -3.3027901540537323e+02  4.0742296500102179e+02 2.3266019170574495e+02 -1.8303665547699561e+02  1.5383807024568796e+02 6.8287788863155455e+01 -1.4321547769687726e+01  9.1962254912892604e+01 1.3191449361653520e+02 -1.4530658310137397e+02  4.5815890612286296e+02 -4.4356816274794177e+01 -2.1246