<?xml version="1.0"?>
<VTKFile type="UnstructuredGrid"  version="0.1"  >
<UnstructuredGrid>
<Piece  NumberOfPoints="7073" NumberOfCells="31071">
<Points>
<DataArray  type="Float64"  NumberOfComponents="3"  format="ascii">27.273569 35.929295 22.854414  27.71151295467363 35.20192446817869 22.04511939541981  27.53692845467363 35.96535596817869 22.13178189541981  27.17444645467363 35.52593946817869 22.24533289541981  27.8106355 35.60528 22.6542005  28.1731175 36.0446965 22.5406495  28.347702 35.281265 22.453987  27.07532390934726 35.12258393635738 21.63625179083962  24.197256 32.610077 23.208294  24.478898 31.929682 22.649154  24.87423429917743 32.5653073175398 22.80856882737351  24.542653 32.1283055 23.232279  24.133501 32.41145349999999 22.625169  24.069746 32.21283 22.042044  24.81047929917743 32.36668381753979 22.22544382737351  24.88805 31.646534 23.256264  25.21963129917743 32.0835358175398 22.83255382737351  25.55121259835487 32.5205376350796 22.40884365474702  27.030176 34.948246 23.153799  28.021825 34.609127 22.77182  27.52742380285798 34.55571894075543 22.39967415227893  27.688939 35.1147555 22.803893  27.363062 34.4426175 23.121726  27.695948 33.936989 23.089653  26.87325540778986 34.35209555976127 22.0182054703303  26.30381625862812 35.02447969988012 22.12129693302239  27.05274995467363 35.03541496817869 22.39502539541981  26.85068145311622 34.26492659158257 22.7769790749105  26.10174775707072 34.253991323284 22.50325061251308  26.2812423039545 34.93731073170143 22.88007053760258  25.53230860790899 34.92637546340286 22.60634207520516  26.67118690623245 33.58160718316515 22.40015914982099  25.986164 36.523777 24.848421  25.46315379291896 35.77449850590484 24.38825112662983  26.125412 36.218796 24.270336  26.040598 35.834381 24.8356325  26.095032 35.144985 24.822844  25.60240179291896 35.46951750590483 23.81016612662983  25.51758779291896 35.08510250590484 24.37546262662983  26.179846 35.5294 24.2575475  26.26466 35.913815 23.692251  24.94014358583792 35.02522001180967 23.92808125325966  27.442701 32.810585 23.831264  26.61371942680341 32.33044632766372 23.2214811902395  26.89334230016394 31.81464877308232 23.77411802757195  27.31968112663947 32.5563905545814 23.26877316266755  26.73673930016394 32.58464077308232 23.78397202757195  27.47628412663947 31.7863985545814 23.25891916266755  27.599304 32.040593 23.82141  27.755907 31.270601 23.811556  26.03077760032789 32.35869654616464 23.7366800551439  27.19666125327893 32.30219610916279 22.7062823253351  25.26011181475408 35.74443432084266 23.12549768408982  25.8984843039545 35.42009523170142 23.14929653760258  25.62628751079958 36.23815408914123 23.66845214648723  24.98791502159915 36.56249317828245 23.64465329297447  24.96402930371853 35.79385659504607 23.78636727311707  25.23622609687346 34.97579773760626 23.26721166423241  29.828079 31.08527 22.767494  30.42706941193129 30.51518233060144 21.83674636308385  29.80402891193128 30.59073733060144 22.26352986308385  30.142224 30.4579525 22.3919935  30.4511195 31.009715 22.3407105  31.07416 30.93416 21.913927  29.77997882386257 30.09620466120289 21.75956572616771  26.576605 33.748806 24.675331  26.30369130016394 33.05375127308232 24.20600552757195  27.009653 33.2796955 24.2532975  26.788968 32.930094 24.7328415  27.001331 32.111382 24.790352  26.51605430016394 32.23503927308232 24.26351602757195  27.222016 32.4609835 24.310808  29.36659 30.076626 22.812189  29.37443359341046 30.48376499984199 22.4339587188845  29.57328441193128 30.08641533060144 22.28587736308386  29.1488675 30.0061055 22.4288225  28.931145 29.935585 22.045456  29.15671109341046 30.41324449984199 22.05059221888451  29.35556191193129 30.01589483060144 21.90251086308385  29.58112800534175 30.49355433044344 21.90764708196836  29.38227718682092 30.89090399968399 22.05572843776901  30.22821859341046 30.912531999842 21.98482771888451  29.60517809341046 30.988086999842 22.41161121888451  27.75536562663947 32.6449050545814 22.95489916266755  27.44630462663947 33.11959255458139 22.89796766266755  27.8783855 32.89909950000001 23.51739  27.5693245 33.373787 23.4604585  28.005009 33.4623015 23.1465845  28.31407 32.987614 23.203516  23.840157 34.728931 23.212433  24.11870298011279 35.16331357353742 22.56697866386522  24.7250588039545 35.34879823170142 22.73411053760258  24.07987698011279 34.64216857353742 22.74225566386522  23.878983 35.250076 23.037156  24.6862328039545 34.82765323170143 22.90938753760258  23.917809 35.771221 22.861879  24.92595278406728 34.74089080523885 22.4392102014678  24.31959696022558 34.55540614707483 22.27207832773044  26.583921 31.766876 21.844183  27.29337312663947 32.5619125545814 21.84711966266755  26.80513762663946 32.5546150545814 21.90198566266755  26.89029112663947 32.03453605458139 22.27523266266755  26.987003 32.2942525 21.41607  26.4987675 32.286955 21.470936  26.413614 32.807034 21.097689  26.9018495 32.8143315 21.042823  27.390085 32.821629 20.987957  23.919672 33.438759 24.036423  25.06394903787787 33.88517503309264 24.32747976187179  24.67946362067523 32.98371946938617 24.61779154802653  24.57517823984006 33.55395356525646 23.74280031583385  24.40844279803781 33.76998046783617 24.62110244603793  24.89721359607562 34.10120193567234 25.20578189207586  25.33496986051529 33.09891403464264 24.32416886386039  25.16823441871304 33.31494093722235 25.20247099406446  25.23068447968011 33.66914813051293 23.44917763166771  25.43925524135046 32.52867993877235 25.19916009605306  23.68552354559052 38.58681940362518 24.83780671163472  23.99913838920401 38.50081025219511 24.08529654306268  24.61047671475411 38.50267480115556 24.41681907006932  24.24546910645035 38.95346632495654 24.35451782959676  24.42897629291896 35.39822050590483 23.39498012662983  24.39015029291896 34.87707550590484 23.57025712662983  26.451488 33.91066 20.604387  25.77360956069087 33.682034415518 21.07062158860347  26.56133745311622 33.74613359158258 21.5022730749105  26.432551 33.358847 20.851038  25.88345901380709 33.51750800710058 21.96850766351396  25.75467256069087 33.13022141551801 21.31727258860347  26.54240045311622 33.19432059158257 21.7489240749105  25.09573112138174 33.45340883103601 21.53685617720693  24.58273856069087 32.83311941551801 21.78945008860347  24.889065 32.1655925 21.589228  25.708384 32.118355 21.136412  25.40205756069087 32.785881915518 21.33663408860347  25.62979829917743 32.3194463175398 21.77262782737351  25.3234718598683 32.98697323305781 21.97284991597698  28.4960315 31.1676865 23.207333  27.980046 31.4329835 23.116725  28.0663555 30.8718565 23.393142  28.185583 31.566431 23.625747  27.55037 31.1371535 23.302534  27.344833 31.003706 22.793512  27.8608185 30.738409 22.88412  28.615259 31.862261 23.439938  28.376804 30.473112 22.974728  25.82460429917743 31.8314233175398 22.66723782737351  25.080488 31.5853845 22.607859  25.493023 31.3944215 23.090948  25.272926 31.524235 21.959454  25.41206929917743 32.0223863175398 22.18414882737351  25.685461 31.333272 22.442543  26.097996 31.142309 22.925632  23.53945 35.766685 23.866949  24.23979679291896 35.39595250590484 23.89751512662983  24.26368251079958 36.16458908914123 23.75580114648724  23.7286295 35.768953 23.364414  24.45286201079958 36.16685708914122 23.25326614648723  27.90596012663946 32.0822285545814 23.07311016266755  28.02898 32.336423 23.635601  25.62704879803781 34.42666546783617 24.57822344603793  25.90364473984006 33.70897706525646 24.06225431583385  25.73690929803781 33.92500396783618 24.94055644603793  26.4667445 34.2504675 24.312998  26.356884 34.752129 23.950665  25.79378423984006 34.21063856525646 23.69992131583385  22.918543 36.896381 24.021997  23.61564811640875 37.65559105038253 23.67739168724532  23.95322901079957 36.72943708914123 23.83332514648723  23.3437615 36.8927055 23.449068  23.76898 36.88903 22.876139  24.37844751079957 36.72576158914123 23.26039614648723  29.5973345 30.580948 22.7898415  29.9114795 29.9536305 22.414341  23.654215 36.3278575 23.371544  23.8433945 36.33012549999999 22.869009  29.624702 29.380743 22.12755  29.93847991193129 29.62299533060144 21.60545636308385  29.59360291193128 29.73695633060144 21.59452186308386  29.70234041193129 29.73847383060144 21.94355786308385  29.5159645 29.3792255 21.778514  29.8608415 29.2652645 21.7894485  29.407227 29.377708 21.429478  24.71083432877606 37.94436630388321 24.07037992717844  24.39721948516258 38.03037545531328 24.82289009575049  25.10891542473463 37.47393150700139 24.80797347986626  25.32217265432616 37.94623085284366 24.40190245418509  25.55884713692701 36.16640149082069 25.115908736356  25.03583692984596 35.41712299672552 24.65573886298583  25.61328113692701 35.47700549082069 25.10312023635601  25.13153027385401 35.80902598164138 25.38339647271201  26.684486 31.06214 24.270437  26.94057362663947 31.6821680545814 23.48835966266755  26.35763180016394 31.71041827308232 24.00355852757195  27.2201965 31.1663705 24.0409965  28.37241617224294 32.39195405401336 22.76491494639878  28.0923765 31.7554455 22.5734915  26.391241 31.1022245 23.5980345  26.64732862663946 31.7222525545814 22.81595716266755  26.06438680016394 31.75050277308232 23.33115602757195  26.3739369258169 32.41136687212119 22.55756299004106  26.62755395311623 32.67424159158257 22.1221710749105  26.06756679917743 32.1437068175398 22.12651332737351  26.93392407975569 32.94190164616397 22.55322073757804  26.11119975229366 33.05107240912237 22.404501402284  29.495646 29.7286845 22.4698695  30.0405355 29.605689 22.0720215  25.16320780053093 33.56127848077448 22.49301690443732  25.95093569295628 33.62537765683904 22.92466839074435  25.39094853901749 33.09484288279626 22.92901064320737  29.2779235 29.658164 22.086503  24.53542073984006 34.19903956525647 23.33080531583386  24.42990779291896 34.23198950590483 23.98225212662983  23.8799145 34.083845 23.624428  25.08541403275902 34.3471840711613 23.68862944246369  25.912664 30.773661 25.347519  26.12508312067523 31.91688196938617 25.56270354802653  25.67595962067523 31.65117046938617 25.2733395480265
[...]
<PointData  Vectors="u"> 
<DataArray  type="Float64"  Name="u"  NumberOfComponents="3" format="ascii">1.9896675943056164e+02 -2.2378199788572104e+01 -1.0875275102772028e+02  2.0880302202404687e+02 -4.0873552355609597e+01 -8.2546036973826602e+01  1.8461094175508498e+02 -3.6093284909138056e+01 -7.9116442701084395e+01  1.9058634684475697e+02 -2.5602403632106938e+01 -8.8608792706957544e+01  2.0606236659897112e+02 -3.2704426914826001e+01 -8.1463740168358555e+01  1.8119470614318573e+02 -5.3769132927093167e+01 -7.0028259986349155e+01  2.1538900615043289e+02 -6.2079920668747789e+01 -8.3803775897047259e+01  2.0366946889350461e+02 -2.0765227900450348e+01 -7.1807344035210193e+01  1.4686997167492899e+01 -2.3789110504332079e+01 -3.7065075945792053e+01  4.0790035830104763e+01 -5.3266439772597202e+01 4.9603489184888204e+01  8.2119306470645171e+01 -1.0216205831728686e+01 -1.0004456344662657e+01  2.9930169436023874e+01 -3.9470365930245727e+01 -4.6395729764778260e+01  1.6148845872759736e+01 -2.0677948819621676e+01 6.2900450744586927e+01  1.0409090069327172e+02 5.5116926568535341e+01 1.5942706649637066e+02  1.0368659880924766e+02 2.1674930104757300e+00 7.3836697457588826e+01  5.1439246490806212e+01 -2.7428095587089793e+01 -6.1374249806723199e+01  1.0418380236006239e+02 -2.2552095907069752e+01 -2.5072269459716008e+01  1.6017555184731765e+02 5.5060878878893211e+00 2.0279448450524884e-01  2.0066251282533383e+02 -2.0872535440707594e+01 -1.4158795456921834e+02  2.4700122693534661e+02 -4.4456741339864330e+01 -8.3822517644344558e+01  2.2755889407838538e+02 -3.1605551576774889e+01 -9.0734982475819209e+01  2.2014389183155578e+02 -3.6361688358323427e+01 -9.6498637201382579e+01  2.4111679900878772e+02 -1.4354087119801015e+01 -1.3332573737894967e+02  2.6054212941613162e+02 -2.9677323118743974e+01 -1.3413726753843343e+02  2.1388518035568512e+02 -1.4965094082904390e+01 -7.5353998527441618e+01  1.6798421922993825e+02 -2.9044747290813109e+00 -7.3950898450913940e+01  1.9819326188925658e+02 -2.2737087488821732e+01 -9.1090311160895425e+01  2.0010535236448621e+02 -1.9068434006107520e+01 -1.1207095412740965e+02  1.6278146115048887e+02 -1.9332520344078925e+00 -7.7132495948266012e+01  1.5356723761584612e+02 -9.3451916696544632e+00 -1.1112701202888421e+02  1.2039324330507320e+02 3.9929829166862763e+00 -7.8266800431773206e+01  2.1532041547421434e+02 -1.2784266310865119e+01 -7.9019581813673597e+01  -2.8217109579133465e-01 -7.1013173153879015e+00 -1.5505524020012811e+02  5.2299281156889727e+01 -1.1529291532762175e+01 -1.3637544214099381e+02  3.6722352988446566e+01 -7.7566298668096740e+00 -1.7553344929862331e+02  -2.6885773929761534e+00 -1.5570099402958505e+01 -1.6336272404315022e+02  8.8485830651176123e+00 -2.8697465299460067e+01 -1.5720140668867828e+02  7.7770123269037185e+01 -1.1590041319914951e+01 -1.3949827668043699e+02  5.5821830909715196e+01 -1.5673951613282627e+01 -1.3426643325279119e+02  3.6880367270543253e+01 -2.2639963973264560e+01 -1.8173881460175153e+02  1.1243516186259787e+02 -1.1692265524340302e+01 -1.8261114506441652e+02  6.7270767527351992e+01 -1.1827798029501370e+01 -1.1915089245657023e+02  2.5157166587728571e+02 -4.2016055954115778e+01 -2.2353464270429123e+02  2.0389001222360622e+02 -2.6665501783944489e+01 -1.2350551267976880e+02  2.0439428216869797e+02 -2.8522060414724521e+01 -1.8980501097117232e+02  2.5690928060993980e+02 -3.9856647216389362e+01 -1.5323826246652766e+02  1.7818467307528735e+02 -2.7263225335404481e+01 -1.7418831310113893e+02  2.9672561687099824e+02 -5.4821148998678161e+01 -1.5773958905860292e+02  3.1727781727854557e+02 -4.2355117082807531e+01 -2.4701293808101053e+02  3.9392741907125861e+02 -9.0794428908224418e+01 -2.4035435090796622e+02  1.3221310491920065e+02 -1.4517923999102608e+01 -1.3243331495235910e+02  2.7135963655163266e+02 -4.2729514316357502e+01 -1.1317510512549867e+02  9.1886636910369376e+01 -2.7927850852656770e+00 -1.0743980758546319e+02  1.2134840258412913e+02 -7.1399208802844196e+00 -1.2039135444708062e+02  8.1411671719540820e+01 -6.6427534344374077e+00 -1.4196118872140983e+02  7.2076917525829970e+01 -5.3058828777853213e+00 -1.2430983846508198e+02  7.0593449048875414e+01 -7.9661688031817466e+00 -1.2100238521588616e+02  8.9550373166514404e+01 -5.0590695783107362e+00 -1.0392206678519641e+02  2.0474597620916259e+02 -7.0469124338067147e+01 -1.3819192889532354e+02  2.0391306647085230e+02 -6.1581422838595344e+01 -1.3900676315547022e+02  1.8413959073529489e+02 -8.6547641808000805e+01 -1.3867527378453045e+02  1.8294244761374387e+02 -7.4763791881053947e+01 -1.4041146392904793e+02  2.0008299922963610e+02 -6.2361861555961426e+01 -1.5093292863049828e+02  2.4016953073942648e+02 -5.5877040939343566e+01 -1.4980620319359758e+02  1.5978358526929225e+02 -7.3258953064229473e+01 -1.2014523710966021e+02  6.6559550843649674e+01 -4.0433846506083931e+01 -1.9917720819114047e+02  1.1540237243627153e+02 -2.3683493042800411e+01 -1.6508016768180354e+02  1.3136318103248610e+02 -5.2752446235816308e+01 -2.0955854138360635e+02  8.6488444820596783e+01 -2.8211423007814354e+01 -2.4503162433390904e+02  9.8993906346026051e+01 6.4528803024700709e-02 -2.6385362055082390e+02  1.4022746771659857e+02 -1.4624290278685583e+01 -1.9132367288779787e+02  1.6207690053841173e+02 -3.0426280148547992e+01 -2.5169251591144399e+02  1.5963705152425288e+02 -1.3209804653851728e+02 -1.4691992050712690e+02  1.7960363483819111e+02 -1.1166480600854946e+02 -1.4335059096988289e+02  1.4595000565635846e+02 -1.0976212798219144e+02 -1.2805310772272304e+02  1.7891258692991497e+02 -1.5328216320829716e+02 -1.4403020686370820e+02  1.3530712054792869e+02 -1.5231944000756425e+02 -1.3514373286518611e+02  1.7395927155037720e+02 -1.2302223641051837e+02 -1.3793929384668468e+02  1.4011678145838414e+02 -1.1356488710216145e+02 -1.1778285751683097e+02  1.7808763799214404e+02 -9.5351152995543615e+01 -1.3092176586295861e+02  1.9804040502495167e+02 -1.0148310309849505e+02 -1.3702919368482878e+02  2.0371060466206580e+02 -7.0341788165296194e+01 -1.3859530671475591e+02  2.0159354359976268e+02 -8.7209621263946488e+01 -1.3904065301825554e+02  2.7053823043881772e+02 -5.2506354538072323e+01 -1.2880804865382794e+02  2.5192028261760899e+02 -3.7018660145952495e+01 -1.2400005938025826e+02  2.7679855359791236e+02 -4.2855787041336072e+01 -1.5878982512718213e+02  2.7076325652628708e+02 -3.5998161920299637e+01 -1.6259207887851608e+02  2.8742473115350430e+02 -2.5119148789759798e+01 -1.3083004940460211e+02  2.7680421727531541e+02 -3.9861555852041931e+01 -1.3036913356197843e+02  2.3039755247483736e+01 -1.1627165913781699e+01 -1.0929277402682177e+02  2.7515840256293856e+01 2.1032278514476246e+01 -4.8648631103188983e+01  7.1738311084508638e+01 8.2476392766439446e+00 -7.7310465346118846e+01  2.6939280919899581e+01 1.2554225671884177e+01 -4.3714730029960812e+01  1.3393352537425976e+01 -4.1328379953047634e+00 -1.1552864818553758e+02  6.9194643218588610e+01 4.5078857775472683e+00 -7.5713940957413456e+01  2.0330589217252410e+01 8.2040020520666390e-01 -1.1213555595947992e+02  9.3225224784339048e+01 1.5325008576287956e+01 -5.1380343551170292e+01  6.8142349988266020e+01 2.6774031167268912e+01 -1.7880165394937510e+01  3.2790035583376653e+02 -5.4683148301002227e+00 5.9312156469545529e+00  3.0469220908493645e+02 -3.8883146152272836e+01 -7.7917553230084607e+01  2.8910724638602466e+02 -1.7532024989257238e+01 -4.8450111806668033e+01  2.8559254041352978e+02 -3.3797106665921049e+01 -7.2178295162817392e+01  3.6812211807348825e+02 -2.0940124730740180e+01 -3.9232921357098220e+01  3.4764218803451837e+02 3.7528389713202344e+01 4.4491016084929555e+01  3.3420766860279042e+02 3.7993667169397831e+01 4.8331326212358306e+01  3.5737955196634232e+02 -2.4844149722137594e+00 -2.8708725212661822e+01  3.6312703334714604e+02 -6.0993507744680571e+01 -1.0835365375368822e+02  3.8969986559155110e+01 -2.7667619858605978e+01 -1.2670828088103180e+02  6.8505070995003607e+01 -1.3973952191722010e+01 -1.1648711760524917e+02  5.7871403704660963e+01 -1.1701081471992962e+01 -1.2308986903626999e+02  5.1087895214924245e+01 -1.6253645663251582e+01 -9.7774376602616613e+01  6.1543780424437287e+01 -1.4233983335959538e+01 -1.1575049640695725e+02  5.2940923906607054e+01 -1.2264016236415106e+01 -1.1051613336525573e+02  7.5149073247541438e+01 -1.0449579803348332e+01 -1.2455961955128687e+02  5.4466914974831255e+01 -8.1150576449220040e+00 -1.1984672543578233e+02  9.1000410821310453e+01 -9.7408964677837488e+00 -9.3166713734995128e+01  5.4886582880466392e+01 3.7171462649115177e+00 -1.3461405516849084e+02  8.3751527938432332e+01 -2.1986120690193860e+00 -8.9513895307287981e+01  8.6598692843349554e+01 -3.3826975881320451e+00 -1.0992198135539734e+02  6.9313405694221274e+01 -1.8689793728550885e+00 -1.1108217498385254e+02  7.9138939099360144e+01 -2.5326541421222775e+00 -1.0622416543989934e+02  6.1976105080317772e+01 -6.6021031071319420e+00 -1.0729962447094233e+02  6.3029377147313554e+01 -9.1181740036675656e+00 -1.0576784077430051e+02  3.0070342850578288e+02 4.8651825573713133e+01 1.6375045651454126e+01  2.0112555068327308e+02 6.2882698262252369e+01 4.8042332712939263e+01  2.4631089474162849e+02 6.1402144962026046e+00 -3.2236278706562494e+01  3.5130204375921431e+02 5.7939428320374532e+01 7.1029648284974343e+01  1.8473797141773971e+02 1.9229245235980244e+01 -1.8170472132186596e+01  2.1507023368898803e+02 5.2673194712492752e+01 5.0516346034251008e+01  2.5365153883385068e+02 5.8505148889993819e-01 -3.6686699246036198e+01  1.4721842762603472e+02 5.3452578562520799e+01 3.8657512801576111e+01  1.2000052714941398e+02 5.1983700071846179e+01 7.7643076053873799e+01  1.5679816957874345e+02 7.7835612358511895e+01 1.2636770567144480e+02  2.4228817066018553e+02 8.8915215493862405e+01 1.5807155854938117e+02  1.8919619445947254e+02 6.6307166300309504e+01 7.8448109783715466e+01  2.1194579488712381e+02 2.8996765660344419e+01 6.2969994080553533e+01  1.5656659016343210e+02 2.7320235241347294e+01 2.5289383047805547e+01  2.4752661304024343e+02 -1.2103873910396347e+02 -1.0613193156132856e+02  3.0238792927802734e+02 -1.3025620053581792e+02 -1.3147068335943442e+02  2.5089173105977727e+02 -2.2844671137723100e+02 -9.0718333924170381e+01  3.3469884225370214e+02 -1.1272395842170269e+02 -9.7091427082971393e+01  4.2327686681531765e+02 -8.9695813306108747e+01 -2.0434074882419722e+02  3.8175767215184953e+02 -9.9693874567893019e+01 -1.3796663907100313e+02  2.8904729555877731e+02 -1.5552306617917876e+02 -6.7885086944261573e+01  2.5345516939661553e+02 -8.7292323617609483e+01 -1.1442987738648088e+02  2.4887255849138575e+02 -1.5760261460868685e+02 -1.1667681945273257e+02  1.6100201671260703e+02 -1.4350678403095426e+01 -2.5798565102788988e+01  8.9099454575443971e+01 -5.6137557236939209e+01 1.1302305210798064e+01  1.0918280917332419e+02 -4.2228873310326819e+01 -7.3146408502791701e+01  1.7485781631865311e+02 3.6864658448037835e+00 1.5837917977185015e+02  1.6412526120619350e+02 1.2485928373191977e+00 5.9634646497140963e+01  1.1713734319983492e+02 -2.6133264443485459e+01 3.1050489083961001e+01  1.7970631280115629e+02 -1.8608354538944710e+01 -5.9071141093311333e+01  9.3336352092321192e+01 -2.1387489224112670e+01 -1.3295919205383430e+02  6.5444768215609542e+01 -1.2869591376325525e+01 -1.1984038595472376e+02  7.3425709126176884e+01 -1.0374211450554062e+01 -1.2119189042241108e+02  5.1299484475712390e+01 -1.8683097566275876e+01 -1.4203868625210197e+02  6.7226172695516638e+01 -3.4539444660310927e+00 -1.1317211464621933e+02  2.9311383791774767e+02 -7.0704249286468794e+01 -1.2249967029699226e+02  3.0429669404856952e+02 -9.1114687425343789e+01 -1.1749532497297862e+02  5.2785262248965829e+01 -2.1667755575583595e+01 -1.3627473814636431e+02  9.4097209445463562e+01 -2.1244530408994905e+01 -1.3953260468274846e+02  4.7110588247914222e+01 -2.1317061599530238e+01 -1.3391272054866462e+02  7.4003526508382151e+01 -4.6534659348791465e+01 -2.0098431603936532e+02  1.0571372049945415e+02 -2.6306234015819321e+01 -1.9230175675597542e+02  1.0369013991112342e+02 -1.5119020136215976e+01 -1.3071411047952924e+02  1.2462238398984668e+02 -6.9090497818871102e+00 -1.0671266116713080e+02  9.4713621888244916e+01 -7.3412191937730524e+00 -1.2326386282128792e+02  8.2869659498731323e+01 -9.1147371528831727e+00 -1.2023619769814007e+02  1.0511825371349266e+02 -8.1419150613001765e+00 -1.2960984223048283e+02  6.2808066333908059e+01 -1.7095410625059770e+01 -1.5094790314062934e+02  7.0316001261715741e+01 -6.1734434033753862e+00 -1.2067850311043021e+02  1.7941802126745623e+02 -9.8911497459558063e+01 -1.6454540173888108e+02  1.4849891188559369e+02 -7.2437905284953345e+01 -1.3135284137402874e+02  8.9496304592899889e+01 -2.5390971341255362e+01 -1.4601211010264188e+02  2.3206243985121290e+01 -1.2839401827033177e+01 -1.4718631239448337e+02  6.6745351978983933e+01 -6.5369433255154902e+01 -9.3375459627164005e+01  1.4254271990224137e+02 -3.5969683510106030e+01 -1.1585469197750650e+02  1.1995808972419167e+02 -6.7727997192073005e+01 -1.0243971023682150e+02  1.2157617480560805e+02 -7.3305610634184092e+01 -1.1051946435526087e+02  7.8586202063638595e+01 -6.0033135608582150e+01 -8.5814574540419244e+01  9.9330515569370775e+01 -3.8409169393560617e+01 -1.1667835876684441e+02  8.0003331263843265e+01 -4.2794690745024496e+01 -6.9093301572217086e+01  7.2290302481337847e+01 -3.5056462503122723e+00 -1.1878959464151498e+02  6.7908500968059016e+01 -2.0440489782758280e+00 -1.0020918484295429e+02  4.8187912268270317e+01 -9.2774974820197531e-01 -1.1612232195255281e+02  6.0515064043037505e+01 -7.5463864618114107e-02 -1.2728197465536515e+02  1.4621521205000256e+01 -1.0065009154382324e+01 -1.1795674458628615e+02  5.3444917530948132e+01 -1.3006781388754646e+01 -1.1885925465799461e+02  1.6921278434663733e+01 -1.5261068431149297e+01 -1.2078034758748410e+02  3.5948870611657398e+01 -9.5510474650450981e+00 -9.9980840385210072e+01  1.9701338344123985e+02 1.9796410197678920e+01 -2.4980149117675177e+02  2.3370937268812969e+02 -1.9082929413665507e+01 -1.6682685879263528e+02  1.6063772090283280e+02 -6.6628354363383551e+00 -1.7628888465195658e+02  2.6253722898200391e+02 3.7490716246030318e+00 -1.7078810872708576e+02  2.7242509019022464e+02 -6.8276103939615354e+01 -1.2409452936193557e+02  2.8196260479505787e+02 -9.6701479706591542e+01 -1.3305388651948061e+02  1.9561610593121071e+02 -1.2194596594689928e+01 -1.6150831039403252e+02  2.4393083487056370e+02 -1.9300086876192129e+01 -8.8766658565434327e+01  1.5845121010983533e+02 -1.6255930619590966e+01 -1.0792109408256778e+02  2.2073257578669137e+02 -1.1999796033242742e+01 -5.7506337981192260e+01  2.5565795158245720e+02 -1.1499555296517817e+01 -4.8430052774987928e+01  2.2759261467296361e+02 -2.3496709986923920e+00 1.5173573341064888e+00  2.3856537116405903e+02 -2.5094687730193069e+01 -9.3836408256856501e+01  1.9440572612331775e+02 -1.8329088267975582e-01 -4.8415696461034798e+01  7.2866229455343486e+01 -1.4766455247400089e+02 -1.1308453468924685e+02  1.2964721318467207e+02 -3.0182330630876599e+01 -1.1833978602090801e+02  1.1903926718192105e+02 1.3573520633328810e+01 -2.8296963340794399e+01  1.4984247491553987e+02 -7.3099439456580679e+00 -8.5708348557816691e+01  1.2157907746425914e+02 -3.7380450470863340e+00 -5.3523376592168397e+01  9.8496931547852768e+01 -1.3431360571144626e+02 -7.9719591965571681e+01  5.4426347198816401e+01 -8.0070285570098232e+00 -8.5111826906079102e+01  6.0568036686680735e+01 -1.4724939707369568e+01 -1.1014089267953176e+02  2.7739947704835057e+01 -2.9465185508254173e+01 -1.2624025837171607e+02  7.9281660836827072e+01 -1.0760013747159688e+01 -1.0774690626712842e+02  6.4375162625439955e+01 7.9440050199231422e+01 -1.7624309577975461e+02  4.1372299762567501e+01 2.2225447692264904e+01 -1.4459442427916181e+02  5.5298580680400292e+01 2.9044392348545642e+01 -1.4657383059104475e+02  3.8019922731497580e+01 2.2999314357050203e+01 -2.0104049182016584e+02  3.7159505999968601e+01 7.8337617825575279e+01 -1.7688007208455863e+02  5.3757460830068204e+00 5.7817429081701725e+01 -1.4509955028786214e+02  1.6618145564229255e+01 4.2779205362767279e+01 -1.8227826665203216e+02  6.2918252281067424e+01 1.3838022225538522e+00 -1.7660181391305076e+02  3.3176754619832316e+01 -1.8598621262490454e+01 -1.2321328045881522e+02  8.1650365998506487e+01 -1.6234606716415971e+01 -7.7555701731633704e+01  7.4430270026503990e+01 -1.1810395304494534e+01 -1.1580018800000538e+02  3.5003489592552000e+01 -2.9181220541387994e+01 -1.0302220536027777e+02  1.2821072646788714e+01 -2.2503187546530722e+01 -9.1424790116525656e+01  1.0357721966577425e+02 -1.7931497488254148e+01 -9.4479373623254986e+01  8.0079474436588015e+01 6.9339530844895556e+00 -1.5740220891111775e+02  1.1507863493224305e+02 -5.8605082939966522e+00 -1.4399044867145960e+02  1.1877417137288708e+02 3.9705952778399287e+00 -1.3871839053745990e+02  1.2092674467287547e+02 3.8399149024648935e+01 -2.0728685196615723e+02  3.4903567633709486e+02 -8.9391996231952344e+00 -5.1099064049408632e+01  2.7944628115174311e+02 -2.1822694186962831e+01 -6.4150700987332641e+01  1.6630408764941771e+02 -1.7603073778088167e+01 -1.3165658389328019e+02  5.2196540752066198e+01 -1.8966452819945395e+01 -1.5305866016490396e+02  1.4541251663844119e+02 -2.5597697326492078e+01 -1.5613981955153861e+02  1.1405389293997142e+02 -4.0301100239170538e+01 -2.0236743019938066e+02  1.7485450059461635e+02 -2.4744288984670597e+01 -1.9504228688689514e+02  2.0725893817516800e+02 -3.7452869728692555e+01 -2.2896086362172474e+02  1.7747632190054136e+02 -1.6632231755948840e+01 -1.0142787760147039e+02  1.4540865369584424e+02 -1.3297093180985572e+01 -7.3586129425967329e+01  1.1167865396961568e+02 -1.2783271965540795e+01 -1.0506228144449280e+02  1.2545254081969797e+02 -1.7483853481681503e+01 -1.2951109738069133e+02  1.4806801615786367e+02 -1.1671902019937995e+01 -1.1909063498896769e+02  1.9747406461752453e+02 -2.0767982303912181e+01 -1.2631648077618920e+02  1.0638723386463545e+02 -2.2891502881443970e+00 -8.4226157101240076e+01  5.9845960668627875e+01 -1.4585509339842231e+01 -1.1728185418612986e+02  1.6341394122170288e+02 -1.2575508328680852e+01 -1.0501346245204823e+02  2.0892227097982834e+02 -2.8593708426737038e+01 -1.2981798486081146e+02  1.6653215093124186e+02 -4.0651994838106177e+01 -1.1008124330256018e+02  1.2044948828625618e+02 -2.4661510632024939e+01 -2.0714704582512928e+02  7.6766090505867112e+01 -1.6585780330715412e+01 -1.4074328893427102e+02  1.2338848912852917e+02 -9.1296396666725723e+00 -1.2234055847334773e+02  3.1098225904740013e+02 -4.5911952686805705e+01 -1.1425371266493806e+02  4.7581414205034761e+01 1.8024907922001256e+00 -1.4803655586086501e+02  2.8350732705576352e+01 -1.9863984093534219e+00 -1.3028456902584063e+02  5.0353848171570107e+01 -6.0219553277424316e+00 -1.3886488288681835e+02  2.6361629625144712e+01 -5.1234614580866982e+00 -1.8025705403559289e+02  1.0370396514767614e+02 3.6472375928945061e-01 -1.8308078922731656e+02  7.3320373602764477e+01 -2.9107344926426286e+00 -1.4387712729990400e+02  6.2066449732407229e+01 -4.7558142088102402e+00 -1.2531481488638404e+02  9.5394597595699125e+01 -2.1673582345148144e+01 -1.2268385678266964e+02  6.7556872144509398e+01 -1.1779532679529176e+01 -1.0325245684050739e+02  6.2127641740629883e+01 -1.6609497488918397e+01 -1.1891531714688236e+02  6.6908942525955084e+01 -1.5961675672378906e+01 -1.1240235902834878e+02  4.4785155628223009e+01 -1.3113368122634006e+01 -1.0522473339087486e+02  1.9185390831623076e+02 -8.0828088975668052e+01 -1.2698832445929392e+02  2.1797238973713782e+01 1.1752099268505049e-01 -1.0311706048900726e+02  3.6495593701280804e+01 -6.9503616840623306e-01 -1.2861625277969662e+02  4.8868495390119811e+01 -1.7096263062488187e-01 -1.1449917429924425e+02  3.2379641290798041e+01 5.0214195554365104e-01 -1.0100105914962003e+02  3.9007725806516355e+01 7.0645853186304008e-01 -9.8879590929769975e+01  6.3376029000209918e+01 -8.3516762372340470e-01 -9.4666520976115976e+01  7.5682256839980369e+01 -2.7268326148698532e+00 -1.1993184004413665e+02  6.0136019567606851e+01 -7.9504009237527662e-01 -1.1421833230990705e+02  1.2400082347087685e+02 -1.