<?xml version="1.0"?>
<VTKFile type="UnstructuredGrid"  version="0.1"  >
<UnstructuredGrid>
<Piece  NumberOfPoints="7132" NumberOfCells="32525">
<Points>
<DataArray  type="Float64"  NumberOfComponents="3"  format="ascii">-0.0551272132301288 5.041090247193045 7.584603779511452  0.5331715990528845 4.137432661354698 8.134487203580827  0.5940076978524104 4.874001989852244 8.39176583299929  0.5444135203266514 4.79575644294953 7.748907468973339  -0.06636913450389575 4.382766465598213 7.97018351411894  -0.01677495697813672 4.461012012500927 8.613041878144891  -0.005533035704369773 5.119335794095759 8.227462143537403  0.04406114182138925 5.197581340998473 8.870320507563354  -0.0776110557776627 3.72444268400338 8.355763248726428  1.143954253883432 4.550422638706014 7.913211158435225  5.504076 2.365913 9.8841  5.113623783926925 1.646428876343906 9.930721997116706  5.5194555 1.798906 9.572129499999999  5.6062395 1.8789415 10.1447565  5.708403 1.39197 10.405413  5.215787283926924 1.159457376343906 10.19137849711671  5.621619 1.3119345 9.832785999999999  5.534835 1.231899 9.260159  5.129003283926925 1.079421876343906 9.618751497116705  4.723171567853849 0.9269447526878121 9.97734399423341  5.736441 8.6418 13.853955  5.090975 8.284074 13.3518525  5.66506446060356 8.527200432999065 13.13151250538125  5.611213 8.1614965 13.7189915  5.216203 8.7643775 13.486816  4.695965 8.886955 13.119677  5.144826460603559 8.649777932999065 12.76437350538124  5.485985 7.681193 13.584028  5.53983646060356 8.046896932999065 12.99654900538124  5.593687921207119 8.41260086599813 12.40907001076249  9.077586999999999 4.625407 2.873781  9.7239739361295 5.122206682040856 3.655319086077495  9.190403482280225 4.646217712132866 4.239073862588453  9.736286093106644 4.654891894657071 3.050923872244702  9.065274843022856 5.092721787383786 3.478176213832793  9.861414732364011 4.208387819406151 3.811821521000362  9.202715639257367 4.17890292474908 3.63467864875566  9.327844278514736 3.732398849498161 4.395576297511321  9.052962686045712 5.560036574767572 4.082571427665586  10.39498518621329 4.684376789314141 3.228066744489404  13.12044921866628 3.958184266254846 2.134363478875325  12.54143422788636 3.084430463052145 2.771756952942847  13.34440681569118 3.37025991500061 2.392788112682361  12.90357131213696 3.786517246102242 3.215226329024834  12.31747663086146 3.672354814306381 2.513332319135811  11.51450404305664 3.386525362357915 2.892301159396296  12.10059872433214 3.500687794153778 3.594195169285319  12.68669340560764 3.61485022594964 4.296089179174341  13.12752890916186 3.198592894848007 3.473650962831869  13.56836441271608 2.782335563746375 2.651212746489397  12.783984 2.931067 12.959396  12.22713113664001 2.194420362214601 12.20130105233094  12.9273655 2.4269715 12.59738  12.6289455 2.9111925 12.192439  12.473907 2.891318 11.425482  12.37051263664002 1.690324862214601 11.83928505233095  12.07209263664001 2.174545862214601 11.43434405233095  12.772327 2.407097 11.830423  13.070747 1.922876 12.235364  11.67027827328003 1.457773724429203 11.44320610466189  7.845476 -0.7 4.551857  7.648714770490862 -0.247735674416304 3.905579600935501  7.89838288657607 -0.2595438115151785 4.288528528532186  7.716276770490862 -0.247735674416304 4.3871021009355  7.777914 -0.7 4.0703345  7.710352 -0.7 3.588812  7.83082088657607 -0.2595438115151785 3.807006028532187  7.587077540981724 0.2045286511673919 4.222347201871002  7.769183657066932 0.1927205140685174 4.123773629467688  7.951289773152141 0.1809123769696429 4.025200057064374  7.803341 1.595744 -0.7  7.664685953395992 1.471268530669165 -0.2510961645650914  7.729652201376918 1.590019570176822 -0.219613478808211  7.797134499999999 1.3888405 -0.26024275  7.790927999999999 1.181937 0.1795145  7.658479453395992 1.264365030669165 0.1886610854349086  7.723445701376918 1.383116070176822 0.220143771191789  7.655963402753837 1.584295140353644 0.260773042383578  7.590997154772911 1.465544100845987 0.2292903566266976  7.526030906791984 1.346793061338331 0.1978076708698172  7.632641 1.99555 3.001163  7.961532999999999 1.971332 2.113908  8.121759230602297 1.382067325601924 2.541139937272117  7.521734 1.780401 2.4300055  8.07244 2.186481 2.6850655  8.512238999999999 2.377412 2.368968  8.561558230602298 1.572998325601924 2.225042437272116  7.410827 1.565252 1.858848  8.010852230602298 1.166918325601924 1.969982437272117  8.610877461204595 0.7685846512038474 2.081116874544233  -1.2 3.61852 12.966431  -0.2857948085778305 2.817683307601343 13.60004230520481  -0.7935363085778304 2.925909807601344 12.95631005520481  -0.5697900974870189 3.42757982626734 12.93650852332612  -0.6922585 3.5102935 13.61016325  -0.184517 3.402067 14.2538955  -0.06204859748701896 3.31935332626734 13.58024077332612  0.06041980502596212 3.23663965253468 12.90658604665224  -0.1633264060648494 2.734969633868683 12.92638757853093  -0.3870726171556608 2.233299615202687 12.94618911040962  10.875809 -0.7 7.144336  10.41089517997895 -0.130784284244863 6.584591237524869  11.247624379016 -0.1192112340871452 6.276368235377599  10.8720445 -0.7 6.453246  10.86828 -0.7 5.762156  10.78271055899495 0.4500044816679918 5.716623472902468  10.40713067997895 -0.130784284244863 5.893501237524869  11.243859879016 -0.1192112340871452 5.585278235377599  11.619439758032 0.4615775318257097 5.408400470755198  9.945981359957901 0.438431431510274 6.024846475049737  12.256351 1.281044 -0.7  12.71354779829873 1.508630989691005 0.7244737005616114  12.04429929829873 1.590382489691005 0.5840902005616114  12.53245129829873 1.888496489691005 -0.2979322994383884  12.4374475 0.9011785000000001 0.322406  11.768199 0.9829300000000001 0.1820225  11.280047 0.684816 1.064045  11.9492955 0.6030645 1.2044285  12.618544 0.521313 1.344812  12.80855159659747 2.495948979382009 0.104135401123223  9.890093999999999 4.24127 2.375178  10.59840052152832 3.245317681178958 2.479739079698148  9.878933791566539 3.651837269129939 2.836971063968321  10.70229902152832 3.813897681178958 2.633739579698148  9.7861955 3.67269 2.2211775  9.682297 3.10411 2.067177  9.775035291566539 3.083257269129939 2.682970563968321  10.69113881309486 3.224464950308897 3.095532643666469  9.867773583133078 3.062404538259879 3.298764127936642  0.706125 10.404609 0.747228  1.61642343399373 10.27227548584247 0.4101572716370203  1.249437422602025 9.728333121985967 0.5780944802760302  1.268413 10.0291155 0.02361400000000002  1.830701 9.653622 -0.7  2.159735856595754 9.595999607828439 0.2410237519130504  2.17871143399373 9.896781985842471 -0.3134567283629797  1.811725422602025 9.352839621985968 -0.1455195197239698  1.792749845204049 9.052057243971934 0.4089609605520603  2.526721867987459 10.13994197168494 0.07308654327404059  2.557375 1.193606 8.065212000000001  1.849936421369301 1.447142515320888 8.189896500004441  2.132381964609046 1.764027003646987 8.354711289576596  2.32228533333801 1.234257576007544 8.674593147383536  2.08719566667602 1.274909152015088 9.28397429476707  1.614846754707311 1.487794091328432 8.799277647387974  1.897292297947056 1.804678579654531 8.964092436960129  1.707388929218092 2.334448007293974 8.644210579153189  1.424943385978347 2.017563518967875 8.479395789581034  1.142497842738602 1.700679030641776 8.314581000008879  8.250710556653278 4.628951471653523 10.51605752721284  8.276513246874025 4.088454241015662 9.54003974895447  8.95115497742645 4.418029146980542 9.631263324169336  8.729957285601543 4.076506728699655 10.32776995860989  9.20920401454981 3.524061985745788 10.13948239000695  8.75575997582229 3.536009498061794 9.351752180351525  9.430401706374717 3.865584404026674 9.44297575556639  9.651599398199622 4.207106822307561 8.746469121125834  8.976957667647195 3.877531916342681 8.655245545910969  8.30231593709477 3.547957010377801 8.564021970696102  9.065160000000001 7.505708 7.506297  9.331912080950225 7.257096335411111 6.646384192126684  8.896706080950224 7.011821835411111 7.260317692126684  9.656712500000001 7.0190345 7.206851  9.500366 7.7509825 6.8923635  9.935572000000001 7.996257 6.27843  10.0919185 7.264309 6.5929175  10.248265 6.532361 6.907405  9.488258580950225 6.525148335411111 6.960871692126684  8.72825216190045 6.517935670822222 7.014338384253367  1.421343605602355 2.233148926864192 12.31892224417628  0.7408817053141583 2.734894289699436 12.61275414541426  1.186764725376 3.209859384658468 11.98957509442919  1.544618301049272 3.05477428724688 12.81475335168567  1.667892996496189 3.876399647629567 13.31058445919506  0.8641564007610757 3.556519650082123 13.10858525292365  1.310039420822917 4.031484745041156 12.48540620193858  0.9521858451496454 4.186569842452744 11.6602279446821  0.5063028250878038 3.711604747493712 12.28340699566717  -0.735366137506767 10.82272648859684 10.12546181458761  -0.6446985387697407 10.77052599279874 10.0171916057479  -0.5545599407813621 10.63700650758661 10.1892375577572  -0.5390827155870492 10.78071175466799 10.12400682700913  -0.3427992936673313 10.73869702073914 10.12255183943065  -0.4638923420443357 10.58480601178852 10.08096734891749  -0.4484151168500228 10.72851125886989 10.01573661816942  -0.3582765188616442 10.59499177365776 10.18778257017872  -0.3737537440559571 10.45128652657638 10.25301330092679  -0.5540309400327144 10.71832549700065 9.908921396908188  1.233252181337159 12.11846431729369 2.824670572160975  0.7809444207283072 12.59818956641619 3.198440518888625  0.5948573044709046 12.25155063671482 2.848304540029038  1.060340374796256 12.54948164883401 2.795936602018068  0.9538562272692102 12.16717223487586 3.227174489031532  0.6744602732012616 12.21588015245804 3.62967840590209  0.315461350402956 12.300258554297 3.250808456899595  0.8874285682553527 12.98049898037434 2.767202631875159  0.4219454979300015 12.68256796825515 2.81957056988613  -0.04353757239534962 12.38463695613595 2.8719385078971  6.474486593152417 8.706308642066846 13.71196560345803  6.113126280396529 7.97415576492148 13.38874403601063  6.1151705 8.314761499999999 14.0570195  6.4939 7.987723 14.260084  6.8511718
[...]
<PointData  Vectors="u"> 
<DataArray  type="Float64"  Name="u"  NumberOfComponents="3" format="ascii">1.5807021818778202e+02 2.9345238088621604e+00 -2.1254694102983031e+01  1.3639316267192365e+02 2.1388814078633316e+00 3.0000439685739839e+00  1.4751086415782692e+02 1.0111618999433375e+01 5.2265634852493283e+00  1.3935411181820135e+02 1.0306942222183917e+01 -8.3921931775446517e+00  1.5790450944596833e+02 -3.0604982431538019e-01 -1.0682996544348068e+01  1.6220176757561356e+02 -1.7834415735246103e+00 4.6542677381166024e+00  1.6454224232018638e+02 5.4553223490536604e+00 -3.9965463595556820e+00  1.6869930590152762e+02 5.8334891265003250e+00 7.6203251751823604e+00  1.5622104402260413e+02 -1.3686798189248339e+01 4.3059942570453034e+00  1.1635792711553904e+02 1.8822788356975238e+01 8.3993737800851047e+00  8.6447780111328129e+01 1.3349990719294092e+02 1.1843077766277810e+02  4.5049116442406081e+01 7.0916078888416394e+01 6.0986723817582295e+01  -8.3495823647808578e+00 6.7028566219815303e+01 7.1103875907338633e+01  7.0645549384675405e+01 1.3187554503256075e+02 1.2134469863510610e+02  3.4879147479606992e+01 1.3040719167532981e+02 7.6713370100327182e+01  3.2571997314846485e+01 7.2011015426316362e+01 4.4721247777634666e+01  1.1815836977766487e+00 5.9596349846517050e+01 5.3348938913190061e+01  6.8645751531042603e+00 4.2226875293484483e+01 3.0146947663809456e+01  2.7727346797971421e+01 4.1772109982115317e+01 2.9026264390761096e+01  4.5388175517099256e+01 4.2987571289111486e+01 2.7239289699804875e+01  1.0049473399382528e+02 5.3288212058562197e+00 6.3658834326789595e+01  1.1165559734202024e+02 3.1325929099048587e+01 7.4861016644651826e+01  1.0690331920796388e+02 1.5987877987787510e+01 6.6072236310687515e+01  1.0370230659953044e+02 1.6884576569273879e+01 7.4717449201475716e+01  9.4623835273428412e+01 1.4640268401076566e+01 7.1507556987135843e+01  8.8525608079033432e+01 3.5161146122374731e+01 7.1579240883306483e+01  1.0503949936205842e+02 2.7120288192781334e+01 6.3523500730425923e+01  1.2156610445281643e+02 2.8345835582785089e+01 7.9941875988140566e+01  1.1648714087556073e+02 2.6818075702893641e+01 6.7927307124025461e+01  1.1268022856639131e+02 2.1189455717423932e+01 5.5785644166221076e+01  8.3271864505378304e+01 -9.3270572106462751e+01 -4.1322223253568815e+01  7.4611314359335381e+01 -7.8604810880024075e+01 -5.0961579689702646e+01  6.9706070636090729e+01 -7.8509843369540476e+01 -5.6972181216479754e+01  7.9818650617602358e+01 -8.8034717937260211e+01 -5.2342058035744408e+01  7.5813828843654051e+01 -7.9788126222214828e+01 -4.4120195405243535e+01  7.1711015263415518e+01 -7.6789462744739794e+01 -6.0531595882020014e+01  6.9795790318254291e+01 -8.3920296290263963e+01 -5.6579650137385435e+01  6.2424448991182253e+01 -7.5972806215043505e+01 -6.3253289238553343e+01  7.2787135991180051e+01 -7.2950445262038897e+01 -5.2106930180248895e+01  7.7794473323050212e+01 -8.4807418741088625e+01 -5.8480511485009913e+01  1.2551801843190650e+02 -9.5576816300121564e+01 -6.2037346064361529e+01  1.1890542157789298e+02 -6.7924746660414826e+01 -6.3584755102409922e+01  1.4668348484708093e+02 -8.7801190399141547e+01 -6.1978150437303405e+01  1.1561059326744409e+02 -9.0120205844137175e+01 -6.9731072829904306e+01  1.0464502704110426e+02 -7.7030608718928860e+01 -6.2864587993018134e+01  8.8627126054210237e+01 -6.4471497123380558e+01 -6.4961541999536465e+01  9.9321555216410530e+01 -7.1716411332730360e+01 -6.6816741154814537e+01  1.0421567893068706e+02 -7.6963953261737402e+01 -7.2822415783046935e+01  1.3433962498908392e+02 -8.1713449152798333e+01 -7.4709177072762273e+01  1.6856931795023951e+02 -7.6587328215449148e+01 -6.3486967081646583e+01  3.2411224703021819e+00 1.3400985818742029e+01 1.2200256098730604e+01  1.3334208423037738e+01 -7.9046430310761471e+00 -1.7454979768871077e+01  1.9767736842732804e+00 -3.1768715156837017e+00 -6.8544366192307065e+00  3.0084214992757277e+00 -1.0359869004985685e+01 -5.2945939491410536e+00  1.2896919796770961e+01 -1.9814558928936975e+01 -3.2645668323700946e+01  1.1073650668064717e+01 -8.7329694921036083e+00 -2.8650436436747924e+01  1.9985099916414519e+01 -1.4728398442784858e+01 -3.4553221525460195e+01  2.1027934571095352e+00 -1.4656281591123038e+01 -2.4429436718126354e+01  5.2025098698499428e-01 -6.7289765553344507e+00 -1.9126701109429785e+01  2.2821229031715419e+01 -1.3053538452948525e+01 -3.6476309647422859e+01  -1.2438635047760217e+01 -1.2071163086758228e+00 -3.8784639501429957e+01  -3.0501572157467038e-01 -8.0075435987745713e+00 -3.9890427498120609e+01  -5.6643850483899341e+00 -7.5007351269228657e+00 -4.1060466866036101e+01  -1.0702007084832960e+01 -2.0532809959358724e+00 -2.8083837705430600e+01  -3.6100052735005486e+00 -5.3326012469594453e-02 -3.9579461910275327e+01  -3.2114159163167879e+00 -1.0043485028295356e+00 -3.6546512056877859e+01  6.4391263737312326e-02 -6.8042347709275468e+00 -3.8619097671632751e+01  -1.0534165861881746e+01 -7.8252371640966940e+00 -2.5382494444246621e+01  -6.6048854286207952e+00 -1.1019916962899476e+01 -3.6917180213676367e+01  -1.6858437888387598e+00 -1.3542963861844868e+01 -4.3396030012609316e+01  1.2284602821245776e+00 2.7439950543330434e+00 -2.4721932114085940e+00  4.2046854896913191e+00 3.6326040171361225e+00 -1.3463639983396169e+01  4.9245293569000168e+00 3.1253262317320614e+00 -1.3186371698217144e+01  5.8032295406369112e+00 2.0119113862440563e+00 -1.3094359316812962e+01  8.4289577735740462e+00 3.4760570935279262e+00 -1.9107981743405304e+01  7.5343401081357433e+00 4.6304425880519613e+00 -1.9348144089424860e+01  7.7479495054945167e+00 4.1309961532783959e+00 -1.9158411177687558e+01  7.0258000758382533e+00 3.5372556177379124e+00 -1.9657147451295820e+01  5.6676747226700686e+00 5.5826932260309086e+00 -1.9678230704818500e+01  5.8950783363957333e+00 5.5910996170437119e+00 -1.9899845807426502e+01  -1.3667518488999248e+01 -3.1964622517449072e+01 -5.1742472446447621e+01  5.5198497449044535e+00 -2.8276683694555151e+00 -5.2236315801745320e+01  1.0292341379397836e+01 -1.3372654674157205e+01 -4.5371045310638948e+01  -1.9322245707756855e+00 -1.0062861925333699e+01 -4.4645694970460745e+01  3.5362677131417999e+00 -3.5573097433222962e+01 -6.8054210113659806e+01  1.3409616970449887e+01 -3.4070287277435078e+01 -6.8936991203978053e+01  1.8810576869370433e+01 -1.0842436576756784e+01 -4.6661878378896496e+01  7.7285443882255334e-01 -3.0898351519800458e+00 -3.9930643272085646e+01  1.0630962142595502e+01 -2.9046427167195121e+00 -3.5839584714409348e+01  2.2381126564895929e+01 -3.4323497775669636e+00 -3.3203228699677197e+01  1.8278263448418141e+02 4.4343004754303230e+01 7.8548490491109831e+01  1.1851641533637863e+02 -1.4390557500146992e+00 3.5152565591601281e+01  1.6883937558124182e+02 -4.8723201531791442e+00 4.8041769917387015e+01  1.4879870017352832e+02 1.9835334924243906e+01 5.3142586750869384e+01  1.2578331763392350e+02 4.4042211314012924e+01 6.6308864543877860e+01  8.6588107063643903e+01 2.9496145228569901e+01 1.2100792176684962e+00  1.0931436031537355e+02 2.0221528190727678e+01 2.9968427147230813e+01  1.2801083098436479e+02 7.0424076246390523e+00 3.1330876124200003e+01  1.3354400110138906e+02 -1.0088661921282087e+01 3.1995764544014936e+01  1.3513210273127916e+02 -3.4881382856580856e+01 3.4400741622038041e+01  4.9257574042943034e+01 2.4557447988667275e-01 -7.8715424601078979e+01  4.7068688096042671e+01 -9.5725646818849821e+00 -7.3452917198431734e+01  6.6037880358975301e+01 -8.7670321203767330e+00 -8.1155150297457197e+01  5.6340021427499153e+01 1.2147083223784347e-01 -7.7541078221989380e+01  6.2956887032981022e+01 -9.3958282608743466e-03 -7.4493816171224893e+01  6.2715406683736497e+01 -1.8071807208272922e+01 -7.3321865168915267e+01  5.2386141006724699e+01 -9.2892044209298259e+00 -7.0979529790434796e+01  7.3539157861109416e+01 -8.6608475053139404e+00 -7.6815887441753944e+01  8.4010185556459206e+01 -1.7710949328677845e+01 -8.0185525917421529e+01  4.3436146950625265e+01 -2.0500275483850096e+01 -6.9283375494667069e+01  8.0568548725698491e+01 -6.3047350689618966e+00 3.9660651138470122e+00  1.3930677731554849e+02 -1.2895694431197137e+01 -1.4455882241027071e+01  1.0735458563302029e+02 -1.2222622191728913e+01 -2.4502615577745704e+01  1.1220221053393145e+02 -5.0306458830339160e+00 -3.2715024296288533e+00  1.1435002331255383e+02 1.5837496826317417e+00 -7.0067896800488878e+00  8.9016997487010727e+01 -8.8187778330309747e+00 -3.2359959238053285e+01  9.8050315553036100e+01 1.6297645735686615e+01 -3.2610631886175675e+01  1.1831858466058749e+02 1.9173794899561468e+01 -2.9955343258442443e+01  1.5506301748850996e+02 1.8931630904685490e+00 -2.4183149367427152e+01  1.3027397051316055e+02 -3.5566716629038389e+01 -1.6204866471466794e+01  7.9570817929500436e+01 -1.0456050293759776e+02 -9.2162633795387563e+01  6.7629189912780049e+01 -5.5145178813877465e+01 -7.0539670942592593e+01  6.5135512215863798e+01 -7.7012032128225343e+01 -7.8515707209289502e+01  7.2378562777383692e+01 -7.2019523944610398e+01 -7.3096395727710245e+01  5.3881956421887331e+01 -6.9472590155487225e+01 -1.0765518855086151e+02  4.3413033433368319e+01 -4.1160932027436630e+01 -8.9290617771986248e+01  5.4114319472894827e+01 -5.7074893909717062e+01 -7.6005540819791662e+01  7.3729056977478422e+01 -6.0016298334622128e+01 -6.7135469846518731e+01  6.0034849384615967e+01 -6.2147354928111433e+01 -6.8951830192406661e+01  9.0486635516160618e+01 2.4074550531495966e+01 -9.6597004342203590e+01  4.2814789323780275e+01 2.0561748289762768e+01 -4.4697456736117786e+01  3.1978319110958616e+01 4.3344288320477871e+00 -7.0456435388084572e+01  2.2296440792293257e+01 1.0039287507561147e+01 -4.9052901671080029e+01  9.1535970452597581e+00 6.4454225121330460e+00 -1.0531966082586603e+01  3.6569425806672825e+01 2.0918853454879496e+01 -3.3064562214161789e+01  2.8351970536090917e+01 1.7604649019893145e+01 -1.5140916296975254e+01  1.8386146115357224e+01 1.4155990124288278e+01 -3.5928261548941379e+01  2.6711166252825379e+01 1.5739067165284119e+01 -4.5828253195448724e+01  4.0117641784234621e+01 2.9518092387347778e+01 -1.7256826601716710e+01  6.0514217951586744e+01 -1.9523111203013492e+01 2.3029831767917894e+01  7.2753418745653164e+01 -3.1079316014130818e+01 2.0180313408875428e+01  7.6271710625873453e+01 -2.2438157716759033e+01 2.4907832287426288e+01  6.6311861018054671e+01 -1.9806273228592250e+01 2.1061281269308569e+01  7.2563126427683329e+01 -2.0801095319894955e+01 1.8047365690078053e+01  7.9923454121891226e+01 -3.2430012657279008e+01 1.8670406538051463e+01  8.3685300728399099e+01 -2.1418481210311143e+01 2.2170983596707519e+01  9.2533518737337687e+01 -1.9658506906422168e+01 2.4958162646491900e+01  9.0572862494708914e+01 -2.9675113442209401e+01 1.9729115019207502e+01  8.9763734208274300e+01 -3.9085488242590721e+01 1.6873517425586844e+01  1.1372257624756035e+02 -4.0322867291303204e+01 -2.9535228794576089e+01  1.0252971396812575e+02 -6.3469625180482453e+01 -6.4485696585405549e+01  8.7042778119574066e+01 -5.7861099262627150e+01 -4.8990656139296092e+01  9.8208736673762118e+01 -4.9904821767849661e+01 -3.9586772769255944e+01  7.9789831738442828e+01 -5.2902901373188776e+01 -4.7386439250604710e+01  7.7875779395708420e+01 -6.6072386076281418e+01 -6.4685655337445496e+01  7.5061276197253548e+01 -5.7089073707910742e+01 -5.4747196029875454e+01  7.4147765202988708e+01 -6.1190670025706162e+01 -6.1579320835496880e+01  7.4496709828969003e+01 -6.8401790773433277e+01 -6.6421045389158422e+01  6.9685894127525003e+01 -8.0860375910552932e+01 -7.6395102225503834e+01  8.8798430404272892e+01 -6.1131550681106312e+01 -9.1992872324133231e+01  9.4636823168801044e+01 -4.8411768613441176e+01 -6.6314546841839174e+01  9.4679355910697652e+01 -5.8597550485350176e+01 -7.3085689355468475e+01  9.7497221970170273e+01 -5.2034759185816149e+01 -7.1296923449531008e+01  1.0408562942889154e+02 -2.8476290650982513e+01 -6.2513712331368055e+01  8.9144806977151035e+01 -2.6127438926284697e+01 -5.5910625758875483e+01  9.3645121972560474e+01 -4.7498320888578711e+01 -5.9674652619206192e+01  9.1469919769249671e+01 -5.4343815325607608e+01 -6.1758319223102163e+01  9.2142813650295565e+01 -5.8843810735793177e+01 -6.6523546611181715e+01  9.3622922618821647e+01 -6.4310814703313099e+01 -6.7794909815209962e+01  1.0502426286352629e+02 -4.1351704748023987e+00 6.1110150377262142e+00  1.1777024159220990e+02 -3.9995192515663276e+00 1.5838646267923673e+01  1.2583256070958200e+02 5.1936243493214915e+00 1.6348286447100957e+01  1.1189730191856101e+02 1.3381481088656116e+01 2.8334320716498365e+00  1.1412071613763715e+02 2.7428876788011831e+01 -1.6124956414909430e+00  1.1197292985630258e+02 1.7638771910329609e+01 1.5333079491530590e+01  1.2674881849059017e+02 1.8751185128799911e+01 1.7871301278013515e+01  1.4087976329614591e+02 1.0268816848645221e+01 2.6126122763236051e+01  1.3398268948412672e+02 9.2526204852095315e+00 2.9780555264519862e+01  1.9195076745057887e+02 -4.2021444018032788e+01 -1.0066454002594869e+00  1.9083799642189413e+02 -4.0400726193621800e+01 6.4543039446094164e-01  1.8801766542841654e+02 -4.4080998116664446e+01 -5.9876746601264896e-01  1.8926941652767218e+02 -4.0381621957143821e+01 -8.4190253730374764e-01  1.8660946228827075e+02 -4.0104224044324326e+01 -9.8861896328696852e-01  1.8710204417072899e+02 -4.1747835417161141e+01 5.4439498025815636e-01  1.8804068718696192e+02 -3.9851069737722376e+01 -4.4970707189560782e-01  1.8554874621043609e+02 -4.3058321494469091e+01 -3.7043010365134393e-01  1.8233078661632734e+02 -4.6754527674087178e+01 8.6851556660196092e+00  1.9001709303839777e+02 -3.9545381425450330e+01 -1.5008188092050283e+00  1.2661030934743688e+02 2.6744361245325333e+01 -4.0266155440831611e+01  1.3065891339697677e+02 3.2326568270638660e+01 -3.8718384284184012e+01  1.3159889727813007e+02 3.1221282156929870e+01 -4.8648557355543971e+01  1.2303037149155529e+02 2.5816860636438651e+01 -4.1071709667251696e+01  1.3307054705096994e+02 3.0539059338296703e+01 -3.9020242351244086e+01  1.4044492361825013e+02 3.4725278914685738e+01 -3.8579544154393993e+01  1.4218884827500861e+02 3.6751452543246813e+01 -4.6190177312627760e+01  1.1770573495513736e+02 2.5597470154068997e+01 -4.0707114173077521e+01  1.3003967532799294e+02 3.3276204347158732e+01 -4.7759112634691796e+01  1.4531550285307833e+02 3.6243745754433178e+01 -5.7322879729092193e+01  1.1182715643114125e+02 6.1532523330902544e-01 6.6569285295893607e+01  1.1346383565321236e+02 1.4238213997011078e+01 6.9378269543236883e+01  1.1972330211584440e+02 1.2311894966286153e-01 6.4627940014070703e+01  1.1228131843088951e+02 1.3634748549692199e+00 9.9357823670553699e+01  1.0887331135106966e+02 7.5105729859279231e+00 6.6917546633302152e+01  1.0667318300446583e+02 1.5113380621683503e+00 7.9321046707132339e+01  1.1717653647188328e+02 1.1961130179539788e+01 7.4688715466388857e+01  1.2081701319115351e+02 1.7680116745608242e+01 6.1538255955190458e+01  1.0361608105179366e+02 -7.1303110097327600e-03 7.0269022058989876e+01  1.8386774074514778e+02 1.0952416206721288e+01 -1.1267715014977100e+00  1.8849207813541449e+02 1.1658896576111925e+01 -1.1501324390720702e+01  1.8726349358065664e+02 9.7808682488457084e+00 -2.3485516617794735e+00  1.8277027105717565e+02 1.3989560401355916e+01 -7.3125890293517877e+00  1.8411589198986215e+02 1.3009425294895182e+01 -9.1241726022466914e+00  1.8423249037334679e+02 1.5958142734790313e+01 -1.6456002687891893e+01  1.8864830504627602e+02 1.1919222444138413e+01 -9.9027521933415201e+00  1.8259586062244583e+02 1.5636920842844477e+01 -1.5104622702512552e+01  1.8047351697663777e+02 1.3317019377998175e+01 -1.6194375854538730e+01  1.9334586189092741e+02 8.6961860473735353e+00 -3.5763901017448267e+00  4.6399032017374651e+02 1.4784560340260585e+01 2.4069094290480070e+01  3.2938997134139015e+02 4.3525458729083981e+00 2.7960494765405581e+00  3.8410993508389265e+02 -2.0214452744419741e+01 1.5815240771846534e+01  3.4995105838211998e+02 -3.9245531761948079e+01 3.9847574953428935e+00  3.7760520337469995e+02 -9.2891684317332150e+01 3.6623103336117168e+01  3.5158461955246349e+02 -1.4645083068090105e+02 4.8602611874895585e-01  3.0396639047574814e+02 -8.0961253712669546e+01 -5.2925800474635993e+00  2.9185953205733398e+02 -4.1579281443211030e+01 -1.0101652540416643e+01  4.9775081906723294e+01 -3.8320145390058521e+01 -6.2747223310360212e+01  6.2602716759819032e+01 -1.8302726534948849e+01 -6.6776386655609215e+01  6.4999950866932252e+01 -2.5600969404875077e+01 -6.0306861993276193e+01  6.7908426175771510e+01 -2.7250553184192828e+01 -6.8058061109984934e+01  4.7458618131010503e+01 -2.9858149242610796e+01 -6.5641424464491806e+01  8.5327224692584551e+01 -1.7382623398989580e+01 -7.0123636302714019e+01  8.4195465258070485e+01 -1.6338062510563443e+01 -5.9474426161319421e+01  1.9229808026060263e+02 -1.7443290725616016e+01 8.3599701747296436e+01  1.7759223153525642e+02 -7.3268419325197440e+00 6.6245392835305594e+01  1.6611011470642308e+02 -1.4141609718337484e+01 6.6580474691222889e+01  1.5503657979037214e+02 -1.9388019435986592e+01 8.0355695578078894e+01  1.3609921250304293e+02 -1.0926670589332872e+01 7.0059096403921018e+01  1.6159142312754588e+02 -3.5752648841402039e+00 5.4308182623827634e+01  1.5596511566253119e+02 -2.0461971767659288e+00 6.0592597837222726e+01  1.4841438047452360e+02 -5.1331686989196861e+00 6.1569686481477056e+01  1.5327786777121355e+02 -1.0988195429290760e+01 5.8882139195680232e+01  1.6919844227156543e+02 1.8206204062055131e+00 4.8593943503081327e+01  1.7326784064127779e+01 1.0988386968707767e+01 -3.5848709450013705e+00  2.9140176218948412e+01 2.1190860123768019e+01 -1.0396768883904860e+01  1.2742042838764650e+01 1.2494551951562537e+01 -1.8327509090801147e+01  2.6075589102622168e+01 8.0367017632258992e+00 -2.2487270633630995e+01  4.0398896820262124e+01 1.8629169605422916e+01 -3.7689345197996893e+01  3.1953720811197933e+01 2.4122877070196431e+01 -2.0941234497453888e+01  3.5708512451568438e+01 2.2250160345500202e+01 -2.6562812965958525e+01  3.0854386884202057e+01 1.0029514220092604e+01 -3.3895160757324973e+01  1.5912255257298243e+01 1.6021334355369085e+01 -2.6935605298437672e+01  4.1481364474780520e+01 3.1479461428051557e+01 -2.9043306203193385e+01  8.0649176046641557e+01 2.3566980024635949e+01 -5.6693787371848110e+00  7.9266145562107198e+01 -5.7726384054649875e+00 -3.1531258225993209e+01  1.4039742432105868e+01 1.6541021152742839e+01 2.9228585154341760e+00  5.5216662532473293e+01 -9.2967381047952689e+00 2.1634306183982407e+01  8.3003809249454449e+01 1.1808106337778815e+01 1.3626330511388185e+01  9.3038256813416467e+01 -3.4963209254328020e-01 -9.2077165708025301e+00  1.2473709112496817e+02 3.0341009865661466e+00 -2.0141467824570682e+01  1.1524400927733264e+02 5.3594151102360001e+00 -4.7335460823935982e+00  2.0427134255284841e+02 8.7476441498593303e+01 7.2035737434497648e+01  1.7546821072144706e+02 4.2594584019723776e+01 9.8717672305983371e+00  2.0382139847112424e+02 4.1097274995345849e+01 2.4105698294500325e+01  1.8006845412776406e+02 6.2527938019299029e+01 3.9117341860825206e+01  2.4346440728931333e+02 4.4119496772476047e+01 2.9219152049982924e+01  2.0043515310799651e+02 4.4179225609897557e+01 1.6492254126588445e+01  2.5186950981339214e+02 1.1878843583464061e+01 -7.8321804729702729e+00  1.9993040854613091e+02 2.1593765907094941e+01 -4.8732539858554356e+00  1.7294405708588010e+02 5.0140496440589494e+01 2.3854009217959756e+01  1.6999915178511495e+02 3.0454399477243083e+01 -8.8693912719445542e+00  8.4982470127937816e+01 -8.7379237014418123e+01 -5.0459929583722115e+01  9.5864608843189174e+01 -9.5208462760903856e+01 -6.7979543907483475e+01  8.5606556392211843e+01 -1.0327092034918054e+02 -6.7563339636739585e+01  8.9330149034712505e+01 -1.0673380995555941e+02 -6.0799409247787167e+01  9.0279774183801280e+01 -9.1460155702369363e+01 -6.7216655405017448e+01  9.3567020732950539e+01 -8.3175066923368320e+01 -6.5620652578629915e+01  1.0609361924977127e+02 -1.0561671772715943e+02 -8.1458043953829872e+01  1.0735339871605083e+02 -8.8479744294611550e+01 -7.6662468202035370e+01  9.1379473795273256e+01 -1.1780555559825753e+02 -6.7434348062542540e+01  2.0724936279867