<?xml version="1.0"?>
<VTKFile type="UnstructuredGrid"  version="0.1"  >
<UnstructuredGrid>
<Piece  NumberOfPoints="7190" NumberOfCells="32507">
<Points>
<DataArray  type="Float64"  NumberOfComponents="3"  format="ascii">37.10798641870377 28.58638421273891 12.56296826543283  36.67999736386938 28.00687554151081 11.86854612119978  37.5811004322883 28.30964238966958 11.79663737375714  36.95900170935188 28.83029460636946 11.59512413271642  37.032772 24.806784 13.699799  36.44500890453054 24.30999625127406 13.19058630412096  36.46826740453054 25.01492325127406 13.26669680412096  36.51767890453054 24.61698775127406 13.71127080412096  36.960102 24.4997925 13.1791145  36.9106905 24.897728 12.7345405  36.9833605 25.2047195 13.255225  36.933949 25.602655 12.810651  36.887432 24.192801 12.65843  36.00258580906107 24.42719150254813 13.72274260824192  36.200489 23.253279 14.747347  36.10153740453053 23.84023525127406 14.23504480412096  36.48441699999999 23.4070055 14.1907425  36.551407 23.786973 14.67381  36.902325 24.320667 14.600273  36.45245540453054 24.37392925127406 14.16150780412096  36.835335 23.9406995 14.1172055  36.768345 23.560732 13.634138  36.38546540453054 23.99396175127406 13.67844030412096  34.37238941144588 24.35519268991222 13.18089385967865  32.94545382980434 24.89578049202791 13.10819608492236  34.01203065901629 24.84275951720127 13.58407575141458  33.68176688122789 25.29717858346788 12.91421179409373  32.99114435100989 26.23916447702354 12.64752972850881  33.3214081287983 25.78474541075693 13.31739368582966  33.6516719065867 25.33032634449032 13.98725764315052  35.57968870196523 25.61480074090334 14.40286089817813  34.44524890901413 25.53683978813762 12.91267426130736  34.30464141164552 26.36519062749303 13.91190299990409  34.61568030427597 25.47256354269683 14.19505927066433  35.09821841407295 26.57170407114032 12.83731961806093  35.4092573067034 25.67907698634413 13.12047588882117  35.26864980933478 26.50742782569954 14.1197046274179  34.95761091670433 27.40005491049573 13.83654835665766  35.23882591144155 25.74335323178492 11.83809087946419  33.232407 23.334469 16.272203  34.46610362357244 23.24740181422465 15.80355620063161  34.52238006224183 23.61363466962413 16.30986394127559  33.97717206224183 23.76087816962413 15.92044994127559  33.777615 23.1872255 16.661617  34.322823 23.039982 17.051031  34.72193712448366 24.18728733924826 15.56869688255118  32.648624 24.352076 15.102296  33.20590340142738 24.47083524389853 13.85801042935051  33.77555079650822 24.11236307699469 14.23261864317  33.15014795329335 24.84120117224516 14.54477682157526  32.261692 25.394688 14.010588  32.95668195329335 25.36250717224516 13.99892282157526  32.62641817550494 25.81692623851177 13.32905886425441  37.388096 26.566526 12.975013  35.94577995835216 26.50135495524787 13.32359967832883  36.31346095572077 26.15493961589246 12.4065519397321  36.17285345835217 26.98329045524787 13.40578067832883  37.1610225 26.0845905 12.892832  36.08638745572078 25.67300411589246 12.3243709397321  35.62070586025131 25.08527236716652 12.78041674385306  35.57279175725017 24.69945946822984 11.88565081147069  34.80560766144372 25.04927296084857 12.50949236957142  35.13957350725234 24.00537919729349 12.55705230157792  35.18748761025348 24.39119209623017 13.45181823396029  35.9067576030588 23.65556570467476 11.93321074347718  35.95467170605994 24.04137860361145 12.82797667585955  38.97872471336903 28.03202927836621 13.44848261858024  39.59956909561966 28.12885426251404 12.86884448838088  39.37546198141271 28.94401954356772 13.36886771258498  40.08936235668452 28.15034613918311 13.75856180929012  36.06312895572077 24.96807711589246 12.2482604397321  36.9814705 25.3265405 12.2729285  37.028992 25.050426 11.735206  36.13390895572078 25.39688961589246 11.7866484397321  32.677555 26.683123 14.076364  33.16461345329335 26.00672467224516 14.03181082157526  32.4696235 26.0389055 14.043476  32.80918699999999 26.192676 14.518788  32.940819 25.702229 14.961212  33.29624545329335 25.51627767224516 14.47423482157526  32.60125549999999 25.5484585 14.4859  39.84775421352486 26.86095687070853 13.19937084445987  40.03408384569758 27.54331805868519 12.74428860132069  40.52387710676243 27.05541843535426 13.02803542222993  40.52387710676243 27.56480993535426 13.63400592222993  37.465755 30.727678 12.461257  37.28687070935189 29.65703110636946 12.51211263271642  38.0925045 30.331412 12.278928  37.597044 30.2274485 11.841439  37.728333 29.727219 11.221621  37.91362020935188 29.26076510636945 12.32978363271642  37.41815970935188 29.15680160636946 11.89229463271642  38.2237935 29.8311825 11.65911  38.719254 29.935146 12.096599  36.9005585 24.183758 13.6669685  36.9675485 24.5637255 14.150036  36.8278885 23.8767665 13.146284  35.61837894927853 23.68184907619403 13.68757657720675  34.97805460698982 23.5618969945441 14.61055371436138  35.36226146677237 24.30723942089819 14.64571974539655  35.46121306224182 23.72028316962413 15.15802194127559  37.17385870935188 27.45055010636946 12.26382413271642  33.123104 24.94352 16.321285  33.68528056224183 24.26968166962413 15.33549644127559  32.9405155 23.8432725 15.6872495  33.1777555 24.1389945 16.296744  33.92252056224183 24.56540366962413 15.94499094127559  32.885864 24.647798 15.7117905  33.56591834321488 23.11443440474953 15.37509132159474  34.3106834054567 23.54084357437366 15.02333826287033  34.63039098692499 26.74931209189258 14.62299229839603  34.94142987955544 25.85668500709639 14.90614856915627  33.97742148186617 25.71444780888988 14.69834694164246  34.30317105714565 26.09856927328944 15.40943624013441  33.83137806224182 24.94475816962413 15.26495444127559  33.03196149999999 25.3228745 15.6412485  32.79472149999999 25.0271525 15.031754  39.04239803148847 28.58823115590858 12.04304155690248  39.01056137242875 28.31013021713739 12.74576208774136  39.40423979053454 28.8619285645264 13.00060423550045  38.352859 26.829115 12.531496  38.66579185668452 27.43057213918311 12.98998930929012  38.69762851574423 27.70867307795429 12.28726877845124  39.06464425 26.93430625 12.612797  39.77642950000001 27.0394975 12.694098  39.37757710668452 27.53576338918311 13.07129030929012  39.40941376574423 27.81386432795429 12.36856977845124  35.376801 22.512373 15.57965  35.04936906224183 23.34983016962413 15.57417344127559  35.788645 22.882826 15.1634985  33.187313 26.92771 15.109224  33.81758295835216 27.04158895524787 13.95645617832883  34.07246195835216 27.16388245524787 14.47288617832883  32.932434 26.8054165 14.592794  33.41949245329335 26.12901817224516 14.54824082157526  32.83434967550494 26.46114373851177 13.36194686425441  34.80328075047093 23.64584966987608 13.41665220292512  34.54716326796477 24.27124001458024 14.37479537111492  34.63811534321487 22.70338640474953 15.02881482159474  38.07519222509612 28.58730768432374 12.30300491116766  37.73042270935188 27.70774960636945 12.54723213271642  33.97437763385711 26.81960969375964 13.24203904258324  35.57046484627739 23.29603617725735 12.79281064482438  36.3375513015294 23.60814885233738 12.78367437173859  34.18680451553518 24.75880684186929 14.77797726285085  34.97603905670556 24.98499671540778 13.79187737892839  35.15081291322444 24.9010440400758 14.98577889036466  36.3970948015294 23.92418335233738 12.29582037173859  34.11498513122572 25.99125885440423 12.2428103039865  35.105907 22.759901 16.735601  34.91392206224183 23.47359416962413 16.15214894127559  35.241354 22.636137 16.1576255  37.24804120935188 27.57645510636945 12.76899063271642  37.8704775 26.6978205 12.7532545  37.796295 26.5719155 12.248088  37.3139135 26.440621 12.4698465  37.239731 26.314716 11.96468  33.62199502857283 25.90039913664472 15.1853241200672  34.51255409081466 25.14292830626885 15.48906656134279  35.79113725551315 25.02099612172573 14.06280175321003  32.455158 24.873382 14.556442  41.2 28.268663 14.068641  41.2 27.7592715 13.4626705  41.2 27.569531 14.1230245  41.2 26.870399 14.177408  40.52387710676243 26.86567793535426 13.68838942222993  41.2 27.0601395 13.517054  41.2 27.24988 12.8567  33.74524202857283 26.51313963664472 15.2593301200672  39.81209185676244 26.95022718535427 12.94673442222993  39.41323946344694 27.44649307453737 13.32392673152005  33.064066 26.3149695 15.035218  35.60480961286966 27.41371089038922 12.5053361668122  36.03279866770405 27.99321956161732 13.19975831104525  36.82005215451748 26.99694643514135 12.07456848848337  36.25200830903498 27.4273668702827 11.17412397696673  34.714365 22.8999415 16.893316  36.25681885098261 25.60872787045167 13.60675594908907  39.062279 29.504158 14.466328  39.4172391247282 29.68008390438462 13.87779040329486  40.1311395 29.447878 13.790934  40.1311395 28.8864105 14.2674845  39.7721992494564 29.85600980876924 13.28925280658971  36.23927845572078 26.02903461589246 11.9013854397321  37.1343615 25.682571 11.849943  37.08684 25.9586855 12.3876655  35.74541711023826 26.58536005103381 11.50610742821546  36.74586965451749 26.87104143514135 11.56940198848336  36.67065363089695 26.21566197678985 10.9762238656019  35.420441 30.886131 11.600471  35.22859644021002 30.38804428401643 13.00485148620559  35.31225393054895 31.2804987038287 12.30099855558259  35.79595141519778 30.64874787158751 12.33104313883001  34.85308602501223 30.62542741242892 12.27427934737558  34.28573105002447 30.36472382485784 12.94808769475116  34.74489895556118 31.01979511625762 12.97480690295816  36.17146183039557 30.41136474317502 13.06161527766002  35.68776434574674 31.04311557541621 13.0315706944126  35.2040668610979 31.6748664076574 13.00152611116517  35.106331 32.416729 11.498723  34.59210361543591 31.74902383198857 11.59932103512555  35.091635 31.7417785 11.0935465  35.263386 31.65143 11.549597  34.57740761543592 31.07407333198857 11.19414453512555  34.74915861543591 30.98372483198857 11.65019503512555  35.24869 30.9764795 11.1444205  35.076939 31.066828 10.68837  34.07787623087182 31.08131866397714 11.6999190702511  34.698219 33.713467 12.117595  34.31348739275163 33.04121233756385 12.3286457
[...]
<PointData  Vectors="u"> 
<DataArray  type="Float64"  Name="u"  NumberOfComponents="3" format="ascii">1.7645352294964906e+02 -5.6205795259281466e+01 1.0121103101365292e+00  1.6801646836573838e+02 -3.5021691062147546e+01 1.5697052010588439e+00  1.9126406562871117e+02 -3.2782585923611634e+01 -9.7792191494279823e+00  1.9057116417053334e+02 -4.9157472027345655e+01 -1.6442127458607107e+01  4.0123034626081719e+01 6.2613510545008204e+01 6.2068329811077156e+01  2.8459603719261306e+01 1.9628037783499217e+01 1.4368271027083921e+01  4.6206407901377439e+01 2.6813242108534126e+01 3.4064569768012348e+01  3.9633420688069357e+01 3.7559560086433635e+01 4.1157683681772419e+01  -1.7289172671652013e+00 2.8155256049000641e+01 2.5540783428099672e+01  3.9896155271655065e+00 2.2425561401815457e+01 6.4514824195758695e+00  4.3379239446119705e+01 5.6535105548470263e+01 6.3260661518246117e+01  4.5347587942157077e+01 4.3026362542012592e+01 2.7911715112250786e+01  8.1939968271381023e+00 1.0901497745555790e+01 -1.9598147862579363e+01  4.9962418229437318e+01 2.0250041758186288e+01 3.0247546509074542e+01  2.2338300748733861e+01 4.8825965864483784e+01 3.6131934801106723e+01  3.5001838408520186e+01 3.3163708540897751e+01 3.3149686283794452e+01  1.1124379946109693e+01 4.2819158299446201e+01 2.0077223823250755e+01  2.2225962745058531e+01 5.5976926898212682e+01 5.1707060188558167e+01  4.4968682556299640e+01 7.4307897775818603e+01 7.0726970346662029e+01  3.8455757139469178e+01 4.4428528148971608e+01 4.7260603388141774e+01  1.0579470359971198e+01 4.8533579689097891e+01 3.9091031111204565e+01  6.4310541437132986e+00 2.8819402936917903e+01 9.6161145171549460e+00  2.6719587942977430e+01 2.7699555269994573e+01 2.1375079132938456e+01  7.6796831573834780e+01 -1.5544647989320790e+01 2.8818536090203931e+01  1.1296034713297513e+02 -3.5452791566322546e+01 5.1515734530051759e+01  8.2209511624825311e+01 -1.8169343175204535e+01 4.6480788867490325e+01  1.0201635384954396e+02 -3.1920693343629598e+01 4.3855673568433005e+01  1.2243014218630100e+02 -4.6047161754207828e+01 5.4128838053810910e+01  1.0675019319526450e+02 -3.3868119514804050e+01 6.4193476220148000e+01  8.4356183906112975e+01 -1.9248262887765080e+01 6.7943757062836951e+01  8.2042528339377796e+01 1.9025131149311290e+00 5.1985261101963310e+01  9.4915324178049076e+01 -2.3299886029610480e+01 3.6683960506537836e+01  9.1246023301596821e+01 -3.1788900434179023e+01 6.0081444726151119e+01  7.7589919637751365e+01 -1.1117772469850614e+01 5.5450418953910365e+01  1.0764421556524032e+02 -2.8237882381880134e+01 3.3441312427618200e+01  8.9690610673015897e+01 -8.4149734434517924e+00 3.0384121860598565e+01  9.6482965212405375e+01 -2.2313406807595779e+01 5.1370578581661469e+01  1.0750014438083292e+02 -4.8118961023536542e+01 4.9830339041828623e+01  1.0553760193425553e+02 -2.1490418656827121e+01 1.1158645925105438e+01  4.1545835335615074e+01 3.9731353701374971e+01 4.9878271371052051e+01  4.2098523984738243e+01 3.4067071944387514e+01 4.2179266818455758e+01  4.6460184397820690e+01 4.3640645482833584e+01 5.9479447005331551e+01  4.4846782165612943e+01 3.0486691793158233e+01 5.6586584444232379e+01  4.2669838934493583e+01 6.2859751248558808e+01 4.3796831701832026e+01  4.2722055477621971e+01 8.4950324924320398e+01 3.9623493136598036e+01  5.3455177301729606e+01 2.3778871714608261e+01 5.7565167361705285e+01  6.8307777526237658e+01 1.0359963206283776e+01 9.3294130605549228e+01  8.7879293235166173e+01 -2.1126740322549153e+01 5.9543925069184191e+01  6.8323958371182272e+01 -6.4229916666402804e+00 4.9548543307642674e+01  7.1758748440784515e+01 -6.4324575968951470e+00 8.3046050368103579e+01  1.3489930780208581e+02 -1.8895648969594358e+01 1.1530996084381452e+02  9.3685261482360673e+01 -2.0234643842206200e+01 9.0738768104703311e+01  1.2572066149485026e+02 -3.3546498296586165e+01 7.9706241531936314e+01  1.3970116505899421e+02 5.7893657984001145e+01 2.8817462119421478e+01  1.0718229561795037e+02 -1.0128339022533265e+01 3.4622103718628892e+01  9.1502881998291201e+01 1.0072744692857247e+01 8.3272003775408194e+00  1.2053620391119577e+02 -1.5232817982534968e+01 3.3472222116750892e+01  7.1919300235255136e+01 7.1643776007017067e+01 4.5205939696458806e+01  8.2969130895749586e+01 5.3927725463569658e+00 8.8272538125450914e+00  7.5720189816205249e+01 -2.0226551457514867e+00 1.6133906828242999e+01  8.3288944777390867e+01 -1.2672439440921078e+01 -3.6867660524862087e+00  8.9148821462590988e+01 -2.0367013284803416e+01 2.0319769818143570e+01  6.6542065183960247e+01 -1.0590303333760531e+01 4.3892765192107142e+00  6.3830537621857744e+01 9.1497234933897809e-01 2.7362942140267563e+01  6.3434430746584155e+01 -6.5526475659087922e+00 -2.5248198984240343e+01  4.7292131376093806e+01 5.6154782243658481e+00 -1.1550326567838842e-01  2.2166568021124138e+02 -3.0420192527081813e+01 6.3884525738204578e+00  2.4812964023769501e+02 -2.8695950573502202e+01 -3.6010947821412049e+00  2.3585177484754649e+02 -6.5668702511039015e+01 -1.2702360134388169e+01  2.6161839110269375e+02 -4.4860652935121252e+01 -8.2253119596547712e+00  6.6034372738089644e+01 -1.2842349753049755e+00 -5.0791810542692692e+00  9.9511769894635567e+00 2.9733982956034158e+01 -2.7115176443195971e+01  6.6324625757010381e+01 4.7337363020818986e+00 -7.1538330278760952e+01  8.6457848636817729e+01 -3.1703601628209643e+00 -1.3562081839345971e+01  9.6862845087998323e+01 -4.3973058762990370e+01 1.2019353515210204e+02  8.5916975361610483e+01 -2.8787635306747120e+01 9.3263050273603270e+01  1.0691852731867381e+02 -2.8805398342050115e+01 1.3415889229766861e+02  6.2517965483960879e+01 -1.9899459493837782e+01 1.2813473195142598e+02  4.7266675960791410e+01 -4.5338892043494532e+00 1.1642218431870211e+02  7.2465919191021257e+01 -1.4007576021589884e+01 8.9586179843121400e+01  6.9012305680134290e+01 -6.5805211191548834e+00 1.2484859883165363e+02  2.4192156344349235e+02 4.5252102502291656e+01 1.1380298096273014e+01  2.6168193762924579e+02 1.0386751914870885e+01 -5.3144376488887257e+00  2.7604739028206495e+02 5.5923406988609855e+01 7.8369674823112390e-01  2.8114940046796772e+02 6.3112707884390611e+00 4.2378277669799882e+00  2.0025447689347286e+02 -2.1196581618761735e+02 -3.8661294250290645e+01  1.9021136549469094e+02 -1.0042240313727110e+02 -2.3643451476628805e+01  2.1008291877765305e+02 -1.2153071974007936e+02 -4.1017375094993348e+01  1.8850681489789710e+02 -9.3403139957788454e+01 -7.4424299728156882e+01  2.0161924784094649e+02 -5.7104378003890666e+01 -7.2214648602697778e+01  2.0178394595563651e+02 -7.4888334169923979e+01 -2.0014957117310757e+01  1.9369367168669356e+02 -6.4982957877360903e+01 -2.3809137755378163e+01  2.2211102622084758e+02 -9.3198171432988858e+01 -6.2254095803688458e+01  2.2365634800849386e+02 -9.5627621352053765e+01 -3.3122139607095612e+01  5.4153647808204299e+00 4.1061664856457760e+01 3.2169854413424190e+01  4.4427728431052408e+01 7.6964609257733571e+01 6.9060628431390469e+01  4.2297882404564007e+00 1.9783684817589080e+01 1.7940227288129338e+00  4.3737329915999666e+01 1.3169260134581069e+01 1.7742533029817601e+01  4.7615718005953092e+01 1.8131641776419645e+01 3.5893458231796359e+01  5.6556801624848440e+01 1.9798360696940442e+01 4.6559725979845950e+01  4.6612607806236277e+01 3.4645805425902523e+01 4.6159255079424206e+01  1.6790160859155444e+02 -5.7719859258024000e+00 1.0626989829301081e+00  2.2463196370907788e+01 2.4342757165148281e+01 8.6153488420008813e+01  5.1142847050204153e+01 1.3257791253273648e+01 6.7508668462518330e+01  5.0366051985473916e+01 2.7380937072765406e+01 7.2073232507248164e+01  3.5153875770103376e+01 3.3854738047608954e+01 6.6333968913422908e+01  4.6990562301377452e+01 1.7616423011643555e+01 7.1198213220177919e+01  2.9661976204023745e+01 2.4560299183935768e+01 8.9604784271903853e+01  4.5533201526460466e+01 1.6103596445965156e+01 4.2875522004014819e+01  4.9235591293766973e+01 1.6354046828725266e+01 4.3715933259312706e+01  8.4005995867632933e+01 -3.7149864326002891e+01 6.4163183829520250e+01  7.7448763317344515e+01 -1.1456544034862114e+01 6.0795180396962394e+01  6.8009386041589437e+01 -1.6448231936632624e+01 7.5272854158273233e+01  5.9205748205927158e+01 -2.0511248833073395e+01 7.3695267784196048e+01  5.1834744665746150e+01 3.0650157264055693e+00 7.3393616957677111e+01  2.0953153374213688e+01 1.3216583547746795e+01 9.6045909149266834e+01  4.9549268345864768e+01 9.3838052792585120e+00 1.1596828128148904e+02  2.2783886357115807e+02 -4.1848459235726096e+01 -1.2206974039519118e+01  2.2592469587893837e+02 -3.6180682326833264e+01 -4.8029728394203008e+00  2.4228714162290751e+02 -6.0666305065087109e+01 -1.0652520204289189e+01  2.1025855828314582e+02 4.0367696809963824e+01 7.8226501587620021e+00  2.1039239831757237e+02 -4.0207896902535785e+00 8.3062713763288301e+00  2.1783453153349149e+02 -1.1122352267276936e+01 -5.5181822394365598e+00  2.2050466941575789e+02 2.7971814069371160e+01 -3.9696207224585556e+00  2.4478331785847061e+02 3.0981797205479758e+01 -1.0834412738603563e+01  2.3420002445226058e+02 -8.6281260084543898e-01 1.9368227439057273e+00  2.3981986613165984e+02 -1.4044936319593027e+01 -6.8040197787137711e+00  2.3639556603111227e+01 4.9553494450227696e+01 2.7146290542336370e+01  4.1264900182027795e+01 3.8817049994917106e+01 4.3201126448618503e+01  2.4168543693498052e+01 4.8580332291692670e+01 3.4475530030582675e+01  3.3523948182052884e+01 -4.7759085235429382e+01 1.1480513042918386e+02  9.1384372599023436e+01 -5.0032822932608987e+01 7.4935908313021343e+01  8.1264348814274953e+01 -5.0766333510127687e+01 7.4056936009706405e+01  5.8430415271648926e+01 -4.4390155708282059e+01 1.2075932737502593e+02  6.5775604052265493e+01 -2.4388869992146983e+01 9.4795867465408691e+01  1.1493059408069571e+02 -4.3049561215085944e+01 8.1671090854464765e+01  5.8565237107528255e+01 -3.1142814286714939e+00 1.8544179701735082e+01  6.2328706151006088e+01 4.1387229104225982e+00 4.5508226740225432e+01  3.4448394772521965e+01 2.3506562766758947e+01 2.7008862734862948e+01  2.0227881956578574e+02 -4.7955598099874649e+01 -8.7971216536664940e+00  1.8780679775723672e+02 -1.2896179611989373e+01 2.7441238268777481e+00  1.0660439082667412e+02 -4.5568872683526031e+01 5.6029141340955896e+01  4.7550980393466361e+01 -1.3992346165703833e+00 -6.6688046428855188e+00  3.1202405723479714e+01 6.6012033296015415e+00 -1.6375286591562492e+01  6.1595376013746360e+01 1.3214468090506601e+00 6.1532020852126983e+01  7.4342526969158470e+01 -4.0612546016556985e+00 4.0807269206584017e+01  6.7033695749664645e+01 1.0769424313327432e+01 5.6910334262914454e+01  4.2135687814847209e+01 2.3424662551466477e+00 -2.6800880489472547e+01  1.1288191255342431e+02 -3.8352365060585896e+01 3.2584577950024588e+01  4.1794587530466359e+01 8.4967990793534995e+01 3.7082569905679037e+01  4.8398818361336595e+01 4.6116835625316490e+01 5.3186759760957031e+01  3.4936460252189605e+01 6.6810081691587087e+01 2.9432742898909570e+01  1.6463224348295603e+02 -1.5183110482609788e+01 1.2325403154901451e+01  1.9467378867722005e+02 4.8896344344804589e+01 2.4186585008653989e+01  1.8543573214330559e+02 6.9200694941417112e+01 -8.2461909809017353e-01  1.2730827931845518e+02 9.6030911018528840e+01 4.0086408524262360e+00  1.1922762874858570e+02 7.2970255153142475e+01 -2.7075158638982536e+01  4.3910929453648791e+01 -1.3789974498353658e+01 8.8720305083106624e+01  5.9950816235788501e+01 1.8614852977098517e+00 6.6835486703020081e+01  6.7979515780435449e+01 1.5061538314951168e+01 4.4698852424983514e+01  8.7809375203559242e+01 2.9075974826376338e+00 1.1267589848636756e+02  3.6989075974775443e+02 -5.9852010731270042e+01 -1.9035750336356468e+01  3.1074122842096125e+02 5.3263964201480607e-01 -4.2282519783505096e-01  3.0669631367625794e+02 6.8381486055917016e+00 2.6214762193515115e+00  3.3451105792808676e+02 2.1828259630144572e+01 1.0936603196781681e+01  2.7656150276376235e+02 6.5127912809475774e+01 2.3114908977925097e+01  3.6194257042158853e+02 2.3278608070442935e+01 7.7905850973433637e+00  3.3322627217494761e+02 2.5572263850890742e+01 -3.0787192676363015e+00  4.4612710095042658e+01 -3.3246697888643979e+01 8.8974688731898780e+01  2.4096574304946637e+02 3.9600461498454720e+01 -7.4452276507212911e-01  2.3351716043488688e+02 4.1473262346915529e+00 8.3501366957749603e+00  2.8315075978813862e+01 -2.2780859180862130e+01 1.2874410425710653e+02  1.3205050965863526e+02 -3.8189057864030545e+01 2.3123422509733530e+01  1.3864274741160588e+02 -5.2544499368312238e+01 2.5137867824551812e+01  1.4481973792136816e+02 6.9982011002078766e+00 1.1623517028313777e+00  1.5699740890059152e+02 -2.6029000706994470e+01 1.5246122271939542e+00  5.1760977902597723e+01 8.9072079473339173e+01 4.0554398920971487e+01  8.2087539792256393e+01 1.9429026676394560e+01 4.2531419140362466e+01  2.1943203376686861e+02 -1.1371255730653770e+02 7.4050258042450743e+00  2.2811379091335866e+02 -7.3685704716626816e+01 -2.8540468598891120e+01  1.8874858385459532e+02 -1.2032040083720979e+02 -9.6983392490344954e+01  2.2150747780886084e+02 -1.0227658536679056e+02 -1.8602464145341180e+01  2.4241826153396573e+02 -7.9171313990364183e+01 -2.4696632138552829e+01  1.0022417762785848e+02 3.3470814879917534e+00 -6.0842236123143394e+00  3.5889258949925299e+01 3.8909717028059291e+01 -7.0606103288182354e+01  2.2094504253192607e+01 7.9933858773309609e+01 2.5362555606647281e+00  1.2953274294127542e+02 -2.1977333449239193e+01 7.5953821300200914e+00  1.4779407682768513e+02 1.6218292735621960e+00 -6.5446674129296865e+00  1.3251545821078335e+02 2.0344576681487545e-01 -2.1673719068227101e+01  1.3910256487442700e+02 -1.3318600124241158e+02 4.6952384845857011e+01  1.2532808856268392e+02 -1.1292051519476647e+02 2.2962468709450008e+01  1.1568699835437084e+02 -1.1639528848869119e+02 2.9038099613291052e+01  1.4058081911384429e+02 -1.2703582681703431e+02 9.7943478031153361e+00  1.2609948296110744e+02 -1.0953038424633792e+02 2.7090076358971359e+01  1.2264156399844668e+02 -1.0464527671222835e+02 3.4441881468477504e+01  1.1775628710131852e+02 -1.0906024400686501e+02 2.7153072454390099e+01  1.3713317282019992e+02 -1.3202274987423149e+02 1.2319121559118660e+01  1.1486719875322788e+02 -1.2654485858620430e+02 2.0087111841562546e+01  1.0345050937148899e+02 -1.1081402571667145e+02 2.2241340475033240e+01  7.1188823096905239e+01 -6.7812665287016188e+01 3.1782299985351013e+01  8.9028497455196899e+01 -8.8048979116514076e+01 2.0588048570930045e+01  1.0229129274591727e+01 -8.4358858078444456e+01 2.1145180917406002e+01  9.0384161885378589e+01 -1.0266041034536676e+02 7.2133072273824197e+01  8.5836968824185135e+01 -9.5214947883285205e+01 1.7532156307638267e+01  1.0135219781452344e+02 -1.0654777246634204e+02 3.7866126746178864e+01  3.9544976369660645e+01 -1.2962605377979551e+02 8.8040048186482863e+01  3.2710910780336370e+01 -8.5430021204618768e+01 -7.9057606801942280e+00  1.1796365963084676e+02 -9.2719498626863498e+01 1.7074483875752776e+01  1.2851364599177185e+02 -3.6852111527087615e+01 3.3445878745802768e+00  1.1899404645257577e+02 -7.3594083630713129e+01 8.5557263242354669e+00  1.2130565769353406e+02 -5.8239672683336245e+01 1.5594595875211713e+01  1.0035541317255564e+02 -5.4551810430119367e+01 2.4436962051060785e+01  9.5826444839671481e+01 -6.8682907273126972e+01 -1.8058354146826929e+01  1.0767220150773142e+02 -8.0820106024829471e+01 1.2388639764361475e+01  1.1881002251223933e+02 -7.2838915574158122e+01 3.7021546878586018e+00  7.8688972659029105e+01 -7.6454622658167153e+01 7.5082411567706195e+00  1.2508231216591912e+02 -8.8320168804853907e+01 1.1867663252085762e+01  1.5169777015241957e+02 -8.8805347572842479e+01 1.0320812106212429e+01  1.2513595268265577e+02 -7.9919709342060870e+01 -5.1981408472747406e+00  1.3356199048474161e+02 -8.9215035874154452e+01 1.2096489031851014e+01  1.3489072062637067e+02 -7.3916306904909391e+01 -1.4892560545821748e+01  1.1587981930055395e+02 -7.7220127703116560e+01 -1.3800152163235900e+01  1.2771761666814842e+02 -1.2609672281068393e+02 9.6868801516207483e+01  1.3466215550599685e+02 -9.0803582559533723e+01 8.5551379839883964e+01  1.3815375596132682e+02 -1.1025604775102181e+02 6.9137335664971616e+01  1.5303767867854151e+02 -1.0301137416938332e+02 7.2693449129724868e+01  1.3727817193880855e+02 -9.9157584442007803e+01 4.8704678768856382e+01  7.9544837844142066e+01 -1.5987539366350100e+02 2.2672123698769212e+01  1.1566414990622094e+02 -1.4826766940923423e+02 1.3804924506397569e+01  1.4721332510333008e+02 -1.6682731448297713e+02 -5.4525800173725338e+00  1.2440007059084314e+02 -1.5770412905638426e+02 7.9194640731771830e+00  2.0550656966697298e+02 -1.2122472762951972e+02 -2.3860483821860459e+01  1.5779262818485270e+02 -1.3605702410013416e+02 5.5136740133042004e+00  2.1812217134208151e+02 -1.6603602394754600e+02 -4.5646822945536876e+01  1.5507028792652511e+02 -1.6679751807659815e+02 1.4288927731878911e+00  1.3355754011979900e+02 -3.9663625437981807e+01 1.8955664197918885e+01  1.2941958270935211e+02 -6.0511156854930228e+01 3.2095277285284560e+01  1.4913921575477434e+02 -7.4693091327361756e+01 1.9061923649392767e+01  1.4878505808746613e+02 -1.4885655602685964e+02 6.4446488491969831e+01  1.3437842036979083e+02 -1.3301698526741683e+02 5.7669684005641592e+01  1.4781705891899364e+02 -1.4992438474255346e+02 7.3920005542751895e+01  1.1640002015821631e+02 -1.5074896782814429e+02 6.3846630648503201e+01  1.0278428786138299e+02 -1.4805846033980325e+02 6.4076301622394169e+01  1.1294069085606648e+02 -1.3140280997167974e+02 6.0498355655308046e+01  1.0655199146044210e+02 -1.5874486692121766e+02 6.8616223679125682e+01  1.3579168963414517e+02 -1.4698698372515233e+02 7.8856109948278529e+01  1.2916790700141433e+02 -1.2751558676451540e+02 6.2388305484984372e+01  1.2776138944216655e+02 -1.1558346665534484e+02 4.8811513835838596e+01  7.4567367747426985e+01 -8.0559539891528914e+01 1.1748980130314257e+02  9.1479071612273572e+01 -6.4516143627673657e+01 7.2662458352959661e+01  4.9096512450515831e+01 -6.4447198449877789e+01 1.1749308245512212e+02  8.6700908918435601e+01 -6.3619299392471973e+01 1.3094811871444588e+02  1.3251976409347930e+02 -5.3800455870732769e+01 1.0451089887823001e+02  1.2869986706371003e+02 -4.0220783642907811e+01 1.1122244110245715e+02  1.2823271668139685e+02 -4.9704919434545367e+01 7.8707803008206213e+01  1.1640933657356334e+02 -4.9273027589628647e+01 1.1222424060067877e+02  1.3142090083469495e+02 -1.0012529608392663e+02 2.9156128073369548e+01  1.3158065101881152e+02 -1.0342861881655109e+02 2.7865246095688047e+01  1.4177415528472903e+02 -1.0231784367169428e+02 3.2753730296302741e+01  1.3671834480077882e+02 -9.0755947134589590e+01 1.1140128259207021e+01  1.2254494020143795e+02 -9.1134260625080003e+01 1.4331634408410906e+01  1.6937781654892936e+02 -1.0370486368768171e+02 2.0201290756486259e+01  1.6190400135837157e+02 -8.6378918927293199e+01 -3.9804674967258316e+00  1.4807624896723371e+02 -9.4803976431167698e+01 1.2855833027891196e+01  1.6268005765508491e+02 -8.4743524384181086e+01 -4.4044034927998306e+00  1.3391977577465457e+02 -8.7814898886016096e+01 2.8887755974877646e+01  1.4912824356485294e+02 -9.9255375032067590e+01 1.5052191713222717e+01  1.3476028914373424e+02 -9.3510282408193248e+01 2.7092863951575712e+01  1.1857687651523543e+02 -1.0524921798004564e+02 3.6329097405390449e+01  1.2827748943877089e+02 -1.1172745041832181e+02 2.4619581159605719e+01  1.1714745997176377e+02 -1.0442140420785988e+02 3.8204276425475797e+01  1.0010754767599778e+02 -1.2118011175149068e+02 9.1674827565038044e+01  1.2349040691308372e+02 -9.3471890176823337e+01 5.8859070430957445e+01  1.2290544765387629e+02 -9.4378038383694587e+01 7.7558525075505401e+01  1.0498434983479852e+02 -9.9547546014456344e+01 7.8615479388479059e+01  1.2406431238196031e+02 -1.0826973640097314e+02 6.8728293492883864e+01  9.8249270328773122e+01 -9.9430090429042394e+01 1.0812559687215662e+02  1.1350244228601612e+02 -7.2090312092245100e+01 1.0521759100412814e+02  1.1019509829143104e+02 -8.4524262899890573e+01 8.3783479812695361e+01  1.1210863924557431e+02 -8.5662418485029434e+01 6.6871388520769173e+01  1.6188864122526758e+02 -6.4237190531099273e+01 7.772369