<?xml version="1.0"?>
<VTKFile type="UnstructuredGrid"  version="0.1"  >
<UnstructuredGrid>
<Piece  NumberOfPoints="6909" NumberOfCells="31529">
<Points>
<DataArray  type="Float64"  NumberOfComponents="3"  format="ascii">26.560234 11.376508 29.903128  27.26714685201205 10.59043836492515 29.47789412810288  26.71913570605112 10.6835309412556 29.43228528154568  26.99751035369672 11.43328001239351 29.21508204123309  27.10824514596094 11.28341542366955 29.94873684655719  27.43478670739344 11.49005202478703 28.52703608246619  27.15641205974784 10.74030295364912 28.74423932277878  27.54552149965766 11.34018743606306 29.26069088779029  27.65625629192187 11.19032284733909 29.99434569311439  26.87803741210224 9.990553882511209 28.96144256309137  24.140081 6.616005 28.826059  24.34773707493716 6.610185225459376 27.76785866049313  24.03965765422431 5.975744461504123 28.33916153599969  24.60124942071285 6.664368763955253 28.38454762449345  23.88656865422431 6.561821461504123 28.20937003599968  24.75433842071285 6.078291763955253 28.51433912449345  24.29317 6.029928 28.9558505  24.446259 5.443851 29.085642  23.63305630844862 6.507637923008246 27.59268107199937  25.0624178414257 6.712732527910506 27.9430362489869  20.306049 4.42301 24.886436  21.19046240599989 5.010654398797021 25.38791674104254  21.28141425438052 4.617670351080657 24.57986776063742  20.88211065161937 4.441425047716363 25.41832998040512  20.61440075438052 4.992239351080658 24.85602276063742  21.54912415161937 4.066856047716363 25.14217498040512  20.9730625 4.048441 24.610281  21.640076 3.673872 24.334126  20.92275250876104 5.561468702161315 24.82560952127485  21.45817230323875 4.459840095432726 25.95022396081024  28.031534 4.192349 31.819477  28.21517060389013 3.82134379511638 30.58845241229743  28.61945510389013 4.420653295116381 30.64555741229743  27.95735510389013 4.364499295116381 31.05825791229743  28.693634 4.248502999999999 31.4067765  28.2893495 3.6491935 31.3496715  29.355734 4.304657 30.994076  28.9514495 3.7053475 30.936971  28.547165 3.106038 30.879866  27.88317620778026 4.536649590232761 30.29703882459486  33.70788158517081 10.14862292097365 25.45927387738519  34.51348978284993 10.51056751473949 24.94783329935289  34.70109198000749 9.71745990977877 25.27195071362473  34.6471396380877 10.6970069388062 25.88840409465465  35.31909798052905 10.87251210850533 24.4363927213206  34.16882615650091 10.00612510765408 24.54737927528999  34.629770727831 9.863627294334512 23.63548467319479  34.97443435418003 10.36806970141992 24.03593869725769  35.16203655133758 9.574962096459199 24.36005611152953  33.45168152891731 5.760294958233405 25.48298533977314  32.28439006823815 6.241648994646896 25.99092302566261  32.42310287607415 5.835648021496638 25.43787639147023  32.81214907378292 6.216193902600992 25.21522174848698  33.06263533120854 5.379749077129052 25.70563998275639  32.92392252337254 5.785750050279309 26.25868661694876  32.67358913349977 4.999203196024698 25.92829462573965  32.53487632566377 5.405204169174956 26.48134125993202  32.17261661864853 6.672092846968578 24.94745815720082  32.39616351782777 5.811205142325213 27.0343878941244  34.22976059689036 11.06810864640677 24.91738217959097  34.42009316514256 11.0447499149224 25.4940937869556  35.13230474511431 11.94087690887115 25.52891369652602  35.22570136282168 11.40669450868824 24.98265320892331  34.94197217686211 11.96423564035552 24.95220208916139  34.75163960860991 11.98759437183989 24.37549048179676  35.03536879456948 11.43005324017261 24.40594160155868  22.40576961327381 6.068308913834421 26.0042446236116  22.2482532016849 6.480835179233546 26.80754474339077  22.29784270044956 5.737170493753005 27.06585963340401  23.01941296086121 6.287973418421333 26.79846284780549  22.8618965492723 6.700499683820459 27.60176296758466  22.91148604803696 5.956834998339918 27.86007785759789  22.18991578762531 5.406032073671591 28.12747464319642  22.14032628886065 6.149696759152132 27.86915975318318  22.09073679009599 6.893361444632672 27.61084486316995  34.509045 5.661462 26.221764  33.69827026445866 5.352923479116702 26.00861316988657  34.1897165 4.9975245 26.063961  34.4718095 5.3554795 25.9077225  33.98036326445866 5.710878479116703 25.85237466988657  34.226952 5.303507 26.3780025  33.944859 4.945552 26.534241  34.434574 5.049497 25.593681  33.94312776445865 5.404895979116702 25.53833316988657  20.73772 8.580441 24.885124  20.9065584499328 7.872593603526587 24.66402940021747  21.0823675 8.334967500000001 24.295867  20.419279 8.148707 24.4415265  20.100838 7.716973 23.997929  20.5881174499328 7.440859603526587 24.22043190021746  20.7639265 7.903233500000001 23.8522695  21.427015 8.089494 23.70661  21.2512059499328 7.627120103526586 24.07477240021747  21.07539689986559 7.164746207053173 24.44293480043493  25.360928 -0.7 25.919928  25.65517982806523 -0.1967335559258501 26.25965772252565  26.130771 -0.7 25.99585  25.696958 -0.7 26.3206225  26.032988 -0.7 26.721317  26.42502282806523 -0.1967335559258501 26.33557972252564  25.99120982806523 -0.1967335559258501 26.66035222252565  26.466801 -0.7 26.3965445  26.900614 -0.7 26.071772  25.94943165613046 0.3065328881482998 26.59938744505129  30.284725 16.955879 19.913183  30.4986935 15.8995975 19.7242955  30.31001 16.0967795 19.553108  30.832117 16.4256765 19.8819825  29.9513015 16.4298 19.755496  29.617878 15.903721 19.597809  29.9765865 15.5707005 19.395421  31.379509 15.895474 19.850782  30.857402 15.566577 19.5219075  30.335295 15.23768 19.193033  30.03380252703049 3.984624397042415 29.77624714633667  30.4080755 3.86383 30.528286  29.766757 3.6782095 30.961882  29.39248402703049 3.799003897042414 30.20984314633667  29.9970525 4.490277499999999 30.56048  30.638371 4.675898 30.126884  30.17778 3.051762 30.929688  29.80350702703049 3.172556397042415 30.17764914633667  29.42923405406098 3.29335079408483 29.42561029267334  32.493801 7.3404 28.54867  33.286888 7.390600000000001 28.1060095  32.65127329581797 7.386103240028419 27.97045266700225  32.815254 7.0604765 28.316532  32.965435 7.6705235 28.3381475  33.437069 8.000647000000001 28.127625  33.12290729581797 7.716226740028419 27.75993016700225  33.136707 6.780553 28.084394  32.97272629581798 7.106179740028418 27.73831466700225  32.80874559163595 7.431806480056837 27.3922353340045  27.243593 15.163486 26.479832  27.73498085153106 14.73178188508383 25.18745290734332  27.30134835153105 14.31475688508383 25.75384790734332  27.05733235153105 14.80212538508384 25.68042740734332  27.9212415 15.0931425 25.9868575  27.487609 14.6761175 26.5532525  27.731625 14.188749 26.626673  28.1652575 14.605774 26.060278  28.59889 15.022799 25.493883  26.87107170306211 14.44076477016767 24.88102281468665  20.104412 11.311199 27.265989  20.70545230256425 10.95367308307935 27.07186810248134  20.1387215 10.7673535 26.783362  20.311925 10.7674205 27.4769675  20.519438 10.223642 27.687946  20.91296530256425 10.40989458307935 27.28284660248134  20.3462345 10.223575 26.9943405  20.173031 10.223508 26.300735  20.73976180256425 10.40982758307935 26.58924110248134  21.3064926051285 10.5961471661587 26.87774720496268  31.636475 6.771777 29.036562  31.47034622379483 6.221350577012005 28.22595799941698  31.81785014318819 6.779448640056586 28.27141273638019  31.13358322379483 6.591819077012005 28.48382699941698  31.973238 6.401308500000001 28.778693  31.48108714318819 7.149917140056586 28.52928173638018  32.310001 6.03084 28.520824  31.32569928637638 7.528057280113172 28.02200147276037  30.97819536698302 6.969959217068591 27.97654673579716  30.63069144758965 6.41186115402401 27.93109199883396  25.253206 9.862287999999999 23.241171  25.47760256157541 9.114949849013097 24.27599466269648  25.09431222874345 9.218397715552662 23.60778338735402  25.89732125395904 9.270799675754777 23.44814027600125  25.63649633283196 9.758840133460435 23.90938227534246  26.01978666566393 9.655392266920872 24.57759355068491  26.28061158679101 9.167351809215212 24.11635155134371  26.54143650791809 8.679311351509554 23.65510955200251  25.73842748270249 8.626909391307439 23.81475266335527  24.9354184574869 8.574507431105324 23.97439577470804  25.725628 9.576727 29.224848  26.0099828478904 9.142354996587322 28.69488151323907  25.679082 8.951786999999999 29.3074265  25.378461 9.258853 28.8630085  25.031294 8.940979 28.501169  25.9634368478904 8.517414996587323 28.77746001323907  25.6628158478904 8.824480996587322 28.33304201323907  25.331915 8.633913 28.945587  25.632536 8.326847000000001 29.390005  26.2943376957808 8.707982993174644 28.16491502647815  27.401937 15.878433 21.811838  28.86031116184059 15.30718723974674 21.96667999132757  28.36480885462121 16.24243532039842 21.51758594067325  28.42019616184059 15.65546723974673 22.46120199132757  27.842052 15.530153 21.317316  28.282167 15.181873 20.822794  28.80492385462121 15.89415532039842 21.02306394067325  29.43845532368119 15.43250147949347 23.11056598265515  29.38306801646181 16.01946956014516 22.16694993200082  29.32768070924242 16.60643764079684 21.2233338813465  30.828413 17.661827 23.647116  30.98942438722726 17.68704596161372 22.86935951689145  31.331171 17.288637 22.961831  31.228548 17.9472015 23.266699  31.628683 18.232576 22.886282  31.38955938722726 17.97242046161372 22.48894251689145  31.731306 17.5740115 22.581414  31.833929 16.915447 22.276546  31.49218238722726 17.31385596161372 22.18407451689145  31.15043577445453 17.71226492322744 22.0916030337829  27.96421043874004 2.446484408718648 27.80624532590614  27.72157395641112 2.087584447981887 28.07466977695708  27.22282906304379 2.590970312373078 27.99580204264088  27.72785074174261 2.674557279768959 28.59390467756288  27.49149104474519 2.902630150819269 29.38156402921962  27.48521425941369 2.315657319032198 28.86232912861382  26.98646936604636 2.819043183423388 28.78346139429762  26.48144768734754 2.735456216027508 28.18535875937562  26.98019258071487 2.232070351636317 28.26422649369182  27.4789374740822 1.728684487245126 28.34309422800801  31.79521 8.116254 28.790464  3
[...]
<PointData  Vectors="u"> 
<DataArray  type="Float64"  Name="u"  NumberOfComponents="3" format="ascii">1.9017788300716720e-01 1.5552616339574768e-01 2.5425192893538462e-01  7.7010836812920092e-02 1.9335688823584429e-01 2.2174533558339576e-01  1.1983982041638913e-01 1.8753291051627408e-01 1.9116647424153552e-01  8.5985550572723446e-02 1.5242688314803124e-01 2.0218842517687696e-01  1.3070282726175317e-01 1.8373076507727379e-01 3.0598535710715918e-01  1.7865801278396886e-02 1.4332998205763645e-01 1.5075456424784028e-01  6.4755814680478946e-02 1.7349015414996691e-01 1.5736193413724067e-01  4.5996495393075217e-02 1.5855810736428083e-01 2.3757972271815198e-01  7.2740386030787085e-02 2.1387265659291507e-01 3.4152181365250872e-01  9.6385141672095026e-02 1.8754288262855973e-01 1.6053979586330774e-01  6.1368781166824715e-01 1.3529273082741611e-01 1.8677463506840056e-01  4.0445325751027877e-01 1.6648324729080483e-01 8.3935431372639938e-02  5.1007876637427529e-01 1.3360835993077669e-01 8.6822407458819362e-02  4.1759676411455521e-01 1.6064050331833962e-01 1.7366324566728797e-01  5.0021655346616156e-01 1.5126995901064208e-01 3.7361805070054675e-02  3.8748821002353950e-01 1.3045533048694311e-01 2.1279883764970386e-01  6.1903796276549738e-01 1.8686500323866151e-01 3.8453156343653716e-01  5.5489178416523222e-01 1.0959863880335023e-01 3.3041259325595429e-01  4.4568716838733696e-01 1.7047359431509299e-01 2.6935553485945358e-02  3.3131370077493177e-01 1.6255187400609925e-01 1.3646304730889869e-01  8.7907202291815700e-01 -1.7046704270185756e-01 -1.2917853692271053e-01  6.0380261351973519e-01 -5.4855378880655885e-02 -1.0576694656434768e-01  5.3263107442103208e-01 -1.6148510000083388e-01 -1.6486051648044192e-01  6.3165869650222639e-01 -1.6956298567285699e-01 -1.5932926891299862e-01  7.1758262186928856e-01 -8.5732759816806586e-02 -1.3084169820820604e-01  4.5833824358939512e-01 -1.4731181307942184e-01 -1.6502794583697283e-01  4.9293134031011138e-01 -2.7738965390201720e-01 -2.2737195645453617e-01  3.4247800431905295e-01 -2.1792962404247262e-01 -2.1100894671973169e-01  6.5783154831338897e-01 -1.8317990424306600e-02 -1.0368434065496780e-01  5.4812953330098901e-01 -5.8570196597396339e-02 -1.0994791736645297e-01  -7.2250486961401642e-02 1.0104711288755364e-01 1.9352139039323143e-01  6.7191443270785030e-03 1.0914055342218015e-01 9.2530734868538966e-02  -7.7441808123206689e-03 1.1157298187596637e-01 7.3969818182603189e-02  -1.8811995120263828e-02 1.1396233624411062e-01 1.2613476159840850e-01  -6.1611681998573926e-02 1.1774758313266044e-01 7.8573626023312054e-02  -3.4699793346943446e-02 1.2334625348875021e-01 9.9940632410071922e-02  -4.6173737046374341e-02 1.0695003566357626e-01 3.1963798144096806e-02  -3.4710085256170205e-02 1.1795296743538376e-01 5.1199113930938234e-02  -1.2923544585273618e-02 1.0845486867957818e-01 5.4819389318539746e-02  2.7945640495582666e-02 1.0669902653836637e-01 1.1384608165199775e-01  2.1346035015099005e-01 1.2190943163152991e-01 1.3995586764053447e-01  1.7974262506406721e-01 1.1890971395318832e-01 1.9825494363546767e-01  1.7947209510336051e-01 1.3169551097674603e-01 1.7875294836878794e-01  2.2343097975429602e-01 1.6466970928572322e-01 2.2988553878532109e-01  1.5071358028915419e-01 1.1349980232021302e-01 2.4157727310753691e-01  1.5105908423963926e-01 9.7076580998146075e-02 1.5561422877782244e-01  9.9609457853971947e-02 7.8349871994539702e-02 1.6862560641067295e-01  1.2521285212764599e-01 9.5581386241324784e-02 2.0471559582115273e-01  1.2798595736346269e-01 1.0686320248324202e-01 1.9108531577278906e-01  1.0780107397529293e-01 1.1443095087681168e-01 -3.6466336553516776e-02  1.1415359277262141e-01 1.1028249011492230e-01 -4.4579983912927765e-02  1.0095142589581087e-01 9.8995359642266648e-02 -5.3068199439632938e-02  1.0277007227830096e-01 9.4239858310508615e-02 -3.2736855359737055e-02  1.0408940948399342e-01 1.1993487648836269e-01 -5.8192109032319209e-02  1.1422010466146218e-01 1.3001640846922169e-01 -4.9374877546348152e-02  1.0039551684121693e-01 1.2497755822096507e-01 -7.3441460761027533e-02  1.0692805465891450e-01 1.3269760411662473e-01 -6.0754794168053350e-02  9.6341890974760064e-02 7.6018787401447574e-02 -3.3935724022776247e-02  1.1325757563684669e-01 1.3956438988513714e-01 -5.6526209425285995e-02  1.9559763516224615e-01 1.0730684118996810e-01 2.0402189577188645e-01  2.2230657229261205e-01 1.4079563822174260e-01 2.2656417961440409e-01  2.0654158431367503e-01 1.7558925905745756e-01 3.1121160069285198e-01  1.8281868783986707e-01 1.3100930281110587e-01 2.6845544466281984e-01  2.0228655061715528e-01 1.3018776461406945e-01 2.9380503806274078e-01  1.8431125882151694e-01 8.6159711820776308e-02 2.5779610777503048e-01  1.6350507639104014e-01 1.0487392007704932e-01 2.4850935415196079e-01  4.9185187616890519e-01 1.2133162952618229e-01 -1.3589199141211931e-02  5.1240812695856397e-01 1.8894564807420394e-01 3.1371410296852091e-03  5.1369658942499385e-01 1.2375006734524578e-01 -1.7685860791231300e-02  4.5226648930572783e-01 1.6060578138830275e-01 8.5758155604402954e-03  4.7745612287660277e-01 1.9908759142212648e-01 -1.3302171064403914e-02  4.9713734321862235e-01 1.4010358795700981e-01 -1.1821337265453242e-02  5.3618445126669878e-01 1.1460501803708303e-01 -3.5655613384184159e-02  5.2108232751677153e-01 1.7044376149684573e-01 -2.4467561411197408e-02  5.0192654374139523e-01 2.4778211792213800e-01 -2.0515395245030422e-02  1.3151010664781421e-01 1.7421460445086509e-01 -2.2089178912403373e-02  1.1215691699985936e-01 1.3772389930761139e-01 -5.4256518244502297e-02  1.2114081274343724e-01 1.2971579257898463e-01 -6.0052107601373805e-02  1.0787571728183268e-01 1.4730303379766857e-01 -4.1370513807478880e-02  1.1792810904201127e-01 1.3905400033027232e-01 -3.2104885205146032e-02  1.1698796227694686e-01 1.6054821744933642e-01 -5.8949591217443441e-02  1.1021538989615012e-01 1.6941084250229549e-01 -7.3778952110417836e-02  1.0175716463112645e-01 1.2848696074535426e-01 -4.5926152632883861e-02  1.0582957114447462e-01 1.2340195641363590e-01 -4.0983198081212924e-02  7.7831128769222402e-01 5.6420956424677560e-01 1.9940752744438628e-01  7.9876006350023998e-01 2.7232742738961147e-01 1.5216565839302042e-02  6.6163440397159090e-01 2.6255630614419329e-01 6.5030282988597287e-03  1.0378100298897581e+00 5.0813948150952326e-01 -1.3544285656396288e-01  1.3122680329236931e+00 -1.0474418820520427e-02 -2.4107944173001460e-02  9.1931876964700832e-01 1.4462341516085370e-01 -1.0040584235041145e-01  8.3883717496415955e-01 2.6893490315511664e-01 -1.7944480664714055e-01  5.4577613320255280e-01 1.9834120091755203e-01 -1.9057651142476698e-01  6.7448133193707227e-01 1.9148924784533419e-01 -1.0789638075305578e-01  7.3079787774588834e-01 1.3432638343935502e-01 -6.1912051950174796e-02  1.7182142385312454e-01 5.9098622731787421e-04 7.4301622736389888e-03  1.8136014489877941e-01 6.0382948141267216e-04 2.7583491649390376e-02  1.5806710240336627e-01 -2.7829176844056515e-04 3.8204145345220354e-02  1.7892788940103957e-01 3.4635974734817913e-04 2.9719179490294463e-02  1.8146382624526844e-01 3.2259058930187085e-04 4.4772555118135722e-02  1.6319123649789835e-01 6.2485914884879709e-03 5.3865397004788665e-02  1.8402193260482785e-01 4.5396787823451783e-03 4.4939706108504972e-02  1.6286434018673951e-01 -5.0356416935173963e-04 5.3096064838667793e-02  1.4493127402040068e-01 -5.1513368515818461e-04 6.3252219825332884e-02  1.8867757715104191e-01 1.1846743215056745e-02 4.3245111818721517e-02  -1.0572025812030405e-02 5.0770941246993176e-02 7.5322640825483426e-03  -9.3301333808306075e-03 5.5158528516098371e-02 2.3175309235105235e-02  -7.8421724545087047e-03 5.3328120712969579e-02 2.1834965852781888e-02  -7.2986431769021401e-03 5.1961263568960782e-02 2.1212927334458245e-02  3.9611428555836871e-04 4.7627689176096097e-02 3.0109374975387352e-02  -1.0572919431330064e-02 4.4702572721459652e-02 2.2692209019780276e-02  -1.8139272152389210e-02 5.4882171855531590e-02 2.0575838678228289e-02  -1.9106762470614996e-03 5.8672237076017431e-02 2.2897593431034431e-02  -9.3001938393484987e-03 6.1383973323424247e-02 2.3405467697530009e-02  -1.5027223242570805e-02 6.5508331478765919e-02 2.4847425872295735e-02  2.4755802875225590e-02 8.8979965239656275e-02 -7.1425030416549676e-04  -1.1019162767463603e-03 7.5695786450617045e-02 -2.8062504388443262e-02  -2.3724055622047532e-02 7.9072810973441890e-02 -6.6871385060829607e-03  9.5225854903560718e-03 9.2891989728197205e-02 2.2656827319615276e-02  -1.6271911352899324e-02 9.9881328613096759e-02 -1.5888805702684410e-02  7.1063780167795378e-05 9.7102231526931052e-02 -3.0303930642249583e-02  -8.2060548237216247e-03 6.3198679974633604e-02 -1.4866586355926954e-02  1.8424565513188836e-02 7.4678704299392593e-02 7.9647268133470304e-03  4.6765043357522809e-02 8.2274044505105559e-02 2.8993872589669213e-02  1.4706964897203101e-01 1.1899638744759758e-01 -7.9273752569289785e-02  2.0787526801637249e-01 1.5800866209677730e-01 -7.6116996615181190e-02  1.6821962272262295e-01 1.3429022302135418e-01 -6.3286841477232125e-02  1.5676469350603792e-01 1.4614077821562640e-01 -7.5601186748073035e-02  1.9414485999852688e-01 1.3675162694942292e-01 -8.5463699003700891e-02  2.8275184413836124e-01 1.7375487447160315e-01 -6.6876794570349507e-02  2.1023684788341315e-01 1.5520658594635814e-01 -5.8919570525111556e-02  1.7479656187579884e-01 1.6777812540209464e-01 -6.6625323509123313e-02  1.7428830423171668e-01 1.5185120113402537e-01 -5.1247722631240542e-02  1.7680057939154936e-01 1.4230214596618670e-01 -3.7882135810967235e-02  -2.0326625563093248e-01 2.1310107495048594e-01 3.1415403833233997e-02  -1.1957356654092069e-01 1.6228084433121767e-01 6.3181846687321186e-02  -1.1350686527021725e-01 2.0067557609857581e-01 5.3726096758588797e-02  -1.5243515578628750e-01 2.2250363794220249e-01 6.8677722656485085e-02  -1.5869362719017738e-01 1.4513117222957664e-01 3.0565423213591635e-02  -1.5203002904493831e-01 1.8513137358648521e-01 3.2304733001975644e-02  -9.8181721678440748e-02 1.6515270444579006e-01 2.7280101278972083e-02  -9.1016614248598970e-02 1.3209027065211790e-01 4.5501357089644354e-02  -1.1805719210204917e-01 1.0000914981180477e-01 4.2301302993457836e-02  -1.0856233926634613e-01 2.1202901511752190e-01 8.2693228426450160e-02  -9.4047793696643896e-03 4.9150648561798277e-01 1.8287807198497633e-01  3.4242914063244749e-02 5.3776957283741533e-01 1.8448972073238160e-01  -9.3296548389552453e-02 5.3031882966032529e-01 2.1615386421795260e-01  -5.2137333539608956e-02 5.1617186619047639e-01 1.2516833778163633e-01  6.6932093633236461e-02 7.9711427163952164e-01 1.5705998668903060e-01  7.4840436889923520e-02 6.4809781739756422e-01 1.6704971038512573e-01  7.6108410453532060e-02 8.4262220756539363e-01 1.5360736829989899e-01  4.0305311760232422e-02 7.6822541113719289e-01 7.3104348405421266e-02  6.1379857963898235e-02 6.2900018804623004e-01 1.3653437235760441e-01  1.2604861419349986e-01 5.6366038082671732e-01 1.5793344001978685e-01  8.0831988447033626e-02 1.1933313228997040e-01 -5.9063342107828626e-02  9.0575822514646062e-02 1.2554090751079836e-01 -4.7018613684263015e-02  1.0925415853044136e-01 1.2211625141622209e-01 -5.2889370504949837e-02  8.2439911244797062e-02 1.1762340013894237e-01 -3.8272362109556750e-02  9.4686162192578860e-02 1.4147434178413656e-01 -6.8765225142390543e-02  9.4550535724332280e-02 1.0717188318161995e-01 -5.0700386980096629e-02  9.2904327272957013e-02 1.5500765728296478e-01 -7.1580708776172952e-02  1.0865499351606979e-01 1.0163257439303973e-01 -4.2060500328521044e-02  9.6718951145830484e-02 1.0940453723893519e-01 -3.2108635130911570e-02  9.1408176581149483e-02 1.1435990755763635e-01 -2.4460732158439882e-02  1.9790600423818744e-01 3.3625042623633677e-01 6.6827709920736306e-02  2.1412934606180284e-01 2.4296187447677525e-01 6.8787698821454468e-02  2.4690429041021758e-01 2.6478258655274084e-01 7.7578716715621041e-02  1.9280143565975610e-01 2.4279054511401224e-01 7.3723107506849572e-02  1.7565438105823197e-01 2.7521031366554100e-01 6.2443082793277135e-02  1.6759688420940774e-01 2.3976126416108595e-01 6.3448515514520937e-02  1.8688067490715665e-01 2.1758953190212188e-01 6.6599514868660115e-02  1.9764908468408093e-01 2.0290190131082700e-01 8.1157042199039547e-02  2.1600925239360749e-01 2.1469610867164007e-01 6.9218986462912593e-02  2.6186720770008365e-01 2.2391141071522139e-01 6.8679737829015555e-02  1.5849368266279101e-01 1.9546402690631420e-01 1.6557586895400395e-01  1.5151667622693593e-01 2.0811370609302679e-01 1.5348291437881631e-01  1.5875235896076675e-01 2.0584879759330174e-01 2.0267878406567172e-01  1.5491586737920673e-01 2.3361033424008557e-01 1.6728402952766339e-01  2.4452485299473756e-01 2.6861329346292401e-01 1.7258129635654046e-01  1.7429701607321546e-01 2.0148911131510025e-01 1.6454447760701518e-01  1.9326094802708096e-01 2.2227243361787422e-01 1.4958997591739503e-01  2.0481268401661795e-01 2.2559749055496245e-01 1.8885529727179134e-01  1.8108690165159169e-01 2.0269893028338185e-01 2.1006986897869293e-01  1.6313165692139245e-01 1.9798963249423285e-01 1.3074807706878858e-01  -5.4137207039689585e-02 5.9458567243062865e-02 6.9528473320448744e-02  -3.5925069570132133e-02 6.4679705579077068e-02 4.2813970224047877e-02  -3.9573480805684257e-02 4.0504645771526224e-02 4.3043104970939626e-02  -5.6288885815516103e-02 6.4425920313786883e-02 6.0452852899874426e-02  -4.0517639403347031e-02 6.7298423574921412e-02 4.2853660827908827e-02  -3.0562724273918880e-02 7.2581406107854948e-02 3.5875701798016371e-02  -3.5592105870051148e-02 5.2716132897731686e-02 3.1837151506807819e-02  -4.6726097499892996e-02 5.8712186019180886e-02 3.9804677046353897e-02  -3.7174112090261682e-02 4.4482519713660650e-02 3.7233073116056496e-02  -2.8223098097002755e-02 3.4617112562036971e-02 2.7845335107176201e-02  -1.9576374209513990e-02 9.7283123161492520e-03 1.3285628000344357e-02  -1.5606025020678094e-02 1.4639803336859993e-02 1.7085206549597096e-02  -1.3188926622968836e-02 2.4690539122732603e-02 1.7845534300399517e-02  -1.2045227682046199e-02 8.1542524495341381e-03 1.5099160410603496e-02  -7.2983274685845196e-03 9.1841258436230998e-03 1.0337618217640392e-02  -8.6021287010765446e-03 1.3571881006137166e-02 1.2330350538160454e-02  -5.0010027753832377e-03 1.9899113278200879e-02 1.2806643981255767e-02  -7.4643271596131454e-03 3.7171812852081695e-02 7.8794817408217623e-03  -5.6337700134795358e-03 2.6944222891568680e-02 1.2319433790114132e-02  -9.3823743918805963e-03 1.8670380000104913e-02 1.2829995362949582e-02  1.3194577548033709e-01 6.4998808364433766e-02 8.3993038234002601e-02  1.2791686177813058e-01 5.3782742723689901e-02 9.3723098218628051e-02  1.5015134890196244e-01 6.2772660549953799e-02 1.0886126152185005e-01  1.1066808365350679e-01 6.7599678790386225e-02 9.4098584686543391e-02  8.3029892941991063e-02 7.8863412258082313e-02 1.0780664838307538e-01  1.0422249974789999e-01 5.7641926339800052e-02 1.0327894538895620e-01  1.2847451188805459e-01 6.8011645859080441e-02 1.3021112930169351e-01  1.8363346670826630e-01 6.2939626697880460e-02 1.3985013842182889e-01  1.4690858509988980e-01 5.0792052322157229e-02 1.2295688700831792e-01  1.2369947916736775e-01 4.3825344237422785e-02 1.0626229495069187e-01  1.0510351054500093e-01 6.5657315124754159e-02 -8.3312775574263351e-02  1.2459342690405183e-01 1.0798995656643968e-01 -6.0052647985826803e-02  1.0678294745874750e-01 9.0875052522338601e-02 -5.6167725311470150e-02  9.6714226437184247e-02 9.7345765099257409e-02 -6.7337919492601317e-02  1.2250725573008849e-01 9.0065103606612212e-02 -8.0705095640402291e-02  1.1516295163949550e-01 1.1224187720091103e-01 -6.3557394615577273e-02  3.3551545493566239e-02 5.6086490864856613e-02 -1.6468080518438684e-03  6.5076368101910753e-02 4.7387698700809770e-02 1.9860917401975226e-02  5.3479498356694112e-02 6.2626008922854026e-02 4.9387031149575695e-03  4.7833857261496054e-02 6.0852580128802458e-02 5.1420812266466413e-03  4.4118308298668141e-02 4.0755551474922644e-02 1.0027335834747630e-02  5.7404006662263571e-02 2.6226153193999412e-02 2.0416305399408280e-02  6.0968021941505079e-02 4.1259305984615996e-02 1.6503707701505332e-02  6.6291823287475821e-02 6.1541535752641041e-02 1.1901289124616580e-02  7.2511824394262792e-02 6.6022694663750631e-02 1.4162312557087140e-02  7.3205139298261321e-02 6.7704592074039158e-02 1.7168873944024585e-02  -3.2092322983401478e-02 4.9738406151936546e-02 2.2338331147187904e-01  3.8489239894942934e-02 1.0563973014458820e-01 1.6114490906656395e-01  5.9382228077879658e-03 7.4072623968160903e-02 1.8832736436495220e-01  -3.9835043577184388e-03 5.7458177751322032e-02 1.7478434173405719e-01  5.8093733178945736e-04 1.0088688514330572e-01 1.6800515909895153e-01  -1.9942730448152456e-04 1.0362943940242832e-01 1.4541411054920944e-01  -3.0976971622844246e-03 8.8266419956295847e-02 1.4934451530777973e-01  1.9613662163853393e-02 9.9649829762296915e-02 1.6070633346184110e-01  5.0332450240141775e-02 9.5532947410352342e-02 1.9892298220692040e-01  9.6101661752510142e-02 9.5077571666477262e-02 5.6657342786283087e-02  5.6171507552121691e-02 9.7822086065329272e-02 1.1157460316244616e-01  9.5666795652385186e-02 1.0348210580138756e-01 9.4980936824943296e-02  3.7078504576339787e-02 9.7519570363139491e-02 6.5176438326013067e-02  6.4907455596095009e-02 8.0542381395936599e-02 6.6142635131480707e-02  1.5413454482040920e-01 1.0675167728753186e-01 7.7134029404147431e-02  1.2017346538373318e-01 8.8822685104433100e-02 9.8945806765758565e-02  -3.8378061022759098e-02 6.8679991205010477e-02 8.1176358012167202e-02  -4.5384050284216562e-03 4.5254969152817008e-02 6.8795952919085607e-02  -1.7090333909704311e-02 6.2257351880218796e-02 6.6399247779889717e-02  -2.0948475985112031e-02 7.2303567178920905e-02 6.7774167709597613e-02  -3.3065476655636012e-03 5.6637003204428091e-02 7.3265119290914310e-02  -3.7466566631687605e-02 5.9399677552102167e-02 8.3725527375676526e-02  -3.4196482025498805e-02 4.3954487959226692e-02 7.3895079440180367e-02  -1.4660377750424749e-02 6.7180691442261659e-02 6.3311547206707772e-02  -4.1555401884599237e-04 6.5718697777957649e-02 7.1397228384333600e-02  2.8662834321415247e-02 5.3692637950863903e-02 6.6367174284568925e-02  1.7026929186095753e-02 2.9450909338085474e-01 2.1514274675906664e-01  1.7875374326873406e-02 5.3821556711827645e-01 2.2965072007327028e-01  4.0452448107640197e-02 4.1201907522926301e-01 2.0135102531535526e-01  -5.4794152019401299e-02 3.6829350751006296e-01 3.0305667796230823e-01  -1.6704921976385137e-02 4.0666021113033096e-01 2.5796781512163097e-01  5.0602814835433912e-02 4.7705742550225644e-01 1.9715943089168886e-01  4.0774146054028723e-02 4.6028798392008030e-01 2.7025618716940103e-01  6.7801342447406834e-02 4.6328016860364774e-01 2.1329867536400174e-01  9.4739642298558163e-02 4.6490468928802775e-01 1.7493137335670172e-01  1.8074060921640496e-02 3.8046427437947491e-02 7.0240401120509055e-02  2.4556326798655208e-02 3.6311742473398127e-02 7.9543663469340525e-02  2.8308829062858948e-02 3.5950070092237489e-02 7.0915359130695146e-02  2.4898283698267000e-02 3.9840401226720772e-02 7.5180063142888928e-02  2.6366168225711296e-02 3.8925179600349649e-02 8.2977187076962319e-02  2.7182081455940504e-02 3.4800550237531917e-02 8.1995634044545226e-02  3.5825458127527944e-02 3.6796117690759918e-02 8.0143632092326944e-02  4.0487831011231955e-02 4.0010291410919559e-02 7.6058893615071399e-02  3.0626415746483764e-02 3.5878371853326076e-02 8.0121267002690053e-02  2.9379803868950852e-02 3.3019998521021839e-02 8.0837241772023574e-02  -2.9003470679742943e-03 -1.4880137745772607e-03 4.3348792051681540e-03  -3.9416518193700380e-03 2.5074982986175889e-03 5.8922208883767889e-03  -5.6171494762168985e-03 -1.7534159400051355e-03 7.3264399954520876e-03  -3.0082596524320343e-03 6.9136958020828414e-04 5.0363097485719771e-03  -4.6817468679741176e-03 -4.8203197692406184e-04 5.6021604811387939e-03  -4.6776287795666288e-03 5.0021060291086583e-04 5.6444250312292178e-03  -7.9575097020321943e-03 -1.5068570351358304e-04 8.2595122127455661e-03  -2.1505643202845109e-03 3.7068071231557862e-03 4.788163349