<?xml version="1.0"?>
<VTKFile type="UnstructuredGrid"  version="0.1"  >
<UnstructuredGrid>
<Piece  NumberOfPoints="6999" NumberOfCells="32339">
<Points>
<DataArray  type="Float64"  NumberOfComponents="3"  format="ascii">23.58092019452273 16.21529779592547 28.36551943186091  23.94169977322959 15.26247190874414 28.67405056214778  23.15625345402096 15.60588113169206 28.18107378557882  23.6419993800619 15.07240056153783 27.5248572414886  24.06666612056366 15.68181722577124 27.70930288777069  22.7315867135192 14.99646446745865 27.99662813929673  21.276884 15.17242 30.063667  21.5656326629617 14.91921164964335 29.51642003608626  21.4916335 14.5130345 29.9496935  21.0868655 14.586879 29.632735  21.85438132592341 14.66600329928671 28.96917307217252  25.289906 15.803418 28.264219  24.44764050013355 16.22239232687917 27.15777960584148  24.81638747683125 16.54993299907067 27.76334593400124  25.451441 16.1068385 27.77013  25.612976 16.410259 27.276041  24.97792247683125 16.85335349907067 27.26925693400124  24.3428689536625 17.29644799814134 27.26247286800249  24.43541309726136 16.00935789796274 28.31486921593046  23.96189457409261 16.75587289703341 27.8139961499317  22.199099 15.776879 27.153082  23.40323309726136 15.95007539796273 27.30275971593046  22.4653428567596 15.38667173372933 27.57485506964836  22.89000959726136 15.99608839796273 27.75930071593046  21.1909026629617 14.88945664964335 28.94570403608626  20.902154 15.142665 29.492951  20.527424 15.11291 28.922235  21.6847055 14.931783 30.150726  22.092527 14.691146 30.237785  18.11236710183011 29.48653935909648 38.94712976741629  17.60349005681118 29.69154983122344 39.63299208552009  18.1697512711776 29.96220543805853 39.29458374453139  17.50581526272818 30.09993087693465 39.24600353518105  17.54610588746368 29.21588375226139 39.28553810840498  16.89926342362626 30.71332239477282 39.54487730294581  17.56319943207567 30.5755969558967 39.59345751229615  16.93955404836176 29.82927527009956 39.58441187616974  16.97984467309726 28.9452281454263 39.62394644939366  18.22713544052509 30.43787151702058 39.64203772164651  14.600124 30.364397 30.8983  15.7124913106676 30.139623785721 31.39288184574156  15.2182498106676 29.933610285721 31.55855334574155  15.0303765 29.9166335 30.589593  15.0943655 30.5704105 30.7326285  15.588607 30.776424 30.566957  15.524618 30.122647 30.4239215  15.460629 29.46887 30.280886  15.6485023106676 29.485846785721 31.24984634574155  15.8363756213352 29.502823571442 32.21880669148311  18.31964534282536 28.74123686820763 34.34365595330932  18.45537056238523 28.24417030160958 33.31992550568457  17.98588155338781 28.34370408692359 33.61322895049069  18.4195877462919 29.27491403606621 33.20966407198812  18.51953014975843 29.80859120392479 32.07567219066693  18.55531296585177 28.77784746946816 32.18593362436337  18.08582395685435 28.87738125478217 32.4792370691695  17.65211776395027 27.94617130563955 32.88280194767207  18.12160677294769 27.84663752032554 32.58949850286594  18.59109578194511 27.74710373501153 32.29619505805982  20.325512 21.666412 24.937841  21.346661 21.830453 24.430275  20.91000375602126 22.21033387017774 25.30829873155315  21.0572455 21.4839075 24.844032  20.6149275 22.0129575 24.524084  20.904343 22.359503 24.110327  21.64173725602126 22.02782937017774 25.21448973155315  21.19941925602126 22.55687937017774 24.89454173155315  21.788979 21.301403 24.750223  21.49449551204252 22.75425574035549 25.6787564631063  22.331068 18.46438 26.275326  23.33249388361299 17.84582328448673 26.84422891555316  22.45507229055007 17.87559480807114 27.20316395886769  23.01655288361299 18.59278578448674 26.78245691555316  22.647009 17.7174175 26.337098  22.96295 16.970455 26.39887  22.77101329055007 17.12863230807114 27.26493595886769  23.70203776722597 18.72119156897347 27.28958783110632  23.14055717416306 18.00400059255788 27.71029487442085  22.57907658110014 17.28680961614229 28.13100191773539  22.23245194070635 17.90702744665176 29.59015684680481  21.66733151362954 17.77308267097031 28.8887547774396  21.36851489924952 17.50361105011387 29.70137816012698  21.43320871634781 18.25373258799863 29.51099511024675  20.63396549198927 18.6004377293455 29.43183337368868  20.80339447217271 17.36966627443242 28.99997609076177  20.868088289271 18.11978781231718 28.80959304088153  20.56927167489097 17.85031619146074 29.62221642356891  20.50457785779268 17.10019465357597 29.81259947344914  21.10221108655274 17.63913789528886 28.18735270807439  21.07944961218519 23.83737523495628 35.20707494619607  21.20602879125393 25.33541874303486 35.13077026001703  21.49363111023198 24.56194738721555 35.49321619384529  21.94538401102064 24.49557189133724 34.58073908895904  20.79184729320713 24.61084659077559 34.8446290123678  22.8113184098561 25.1537685477182 33.95440323172201  22.35956550906743 25.22014404359651 34.86688033660826  21.65778169204259 25.26904324715656 34.21829315513078  20.50424497422908 25.38431794659492 34.48218307853955  21.90781260827877 25.28651953947482 35.77935744149451  20.547686 26.150841 28.909435  21.2765315 25.6125815 28.4443845  21.55641275033486 25.97746935197899 29.4108127620894  20.786238 25.5870125 28.8760165  21.0379795 26.17641 28.477803  21.528273 26.201979 28.046171  22.04670625033486 26.00303835197899 28.9791807620894  21.02479 25.023184 28.842598  21.79496475033486 25.41364085197899 29.3773942620894  22.56513950066972 25.80409770395798 29.9121905241788  26.54454229127114 27.16334320106164 32.96754357631569  26.93541927937848 27.41549827319234 34.20430439702483  26.3488740903162 27.26987192385307 33.71136916926031  26.58858530276085 27.7737567053958 33.25356405202587  27.13108748033342 27.30896955040091 33.46047880408021  26.63262831425057 28.38417020972996 33.53958452773604  26.39291710180592 27.88028542818724 33.99738964497048  27.17513049182314 27.91938305473507 33.74649927979038  27.7176326693957 27.45459589974018 33.95341403184472  26.15320588936127 27.37640064664451 34.45519476220493  21.180689 17.090727 32.368683  21.7593984960986 16.92520954314993 33.10480106916444  21.76580799609861 17.33003854314993 32.66095906916445  21.17611747573484 17.14883157640976 33.31610698946934  21.1742795 16.685898 32.81252499999999  21.16787 16.281069 33.256367  21.76123647183345 17.38814311955969 33.60838305863379  21.16970797573484 16.74400257640976 33.75994898946934  21.17154595146969 17.20693615281953 34.26353097893868  22.35092699219721 17.56935008629986 32.95323513832889  19.438686 16.550791 34.217705  20.11024308416702 16.26557181989337 34.57063980760207  19.8867855 15.85058 34.557545  19.69787708416702 16.56146331989336 34.61720380760207  19.851052 16.2548995 34.17114100000001  19.4744195 16.1464715 34.604109  19.510153 15.742152 34.990513  19.73361058416702 16.15714381989336 35.00360780760207  20.263418 15.959008 34.124577  19.95706816833404 16.57213563978673 35.01670261520414  21.112112 19.680626 37.175507  21.05612854088642 18.69275283342029 36.27324826367371  20.91767704088642 19.45316133342029 36.33891476367371  20.5983475 19.133278 37.0114005  21.2505635 18.9202175 37.1098405  20.084583 18.58593 36.847294  20.40391254088642 18.90581333342029 36.17480826367371  20.736799 18.3728695 36.945734  21.389015 18.159809 37.044174  20.72324208177284 19.22569666684057 35.50232252734742  26.09609322128622 29.44030881241683 33.91006603060639  25.73426721092965 30.03337184441017 34.35077425165531  25.64494959868745 29.8220718918766 33.82676800558449  26.06831063746503 29.84672018418267 33.84415273765093  25.67273218250864 29.41566052011076 33.89268129853996  25.76204979475084 29.62696047264433 34.41668754461077  25.24937114373106 29.39101222780468 33.87529656647351  25.33868875597327 29.60231218033825 34.39930281254433  25.42800636821546 29.81361213287182 34.92330905861515  26.04052805364383 30.25313155594851 33.77823944469547  19.341038 25.765722 24.138029  19.08615400689912 24.92301038042361 25.31437669488221  18.72332035846392 24.76129088858901 24.68482485056663  19.74203032524734 25.03892833109112 24.68203502965722  18.68516168165178 25.6498040493325 24.77037066522499  18.02928536330356 25.53388609866499 25.40271233044998  20.14302265049468 24.31213466218223 25.22604105931444  25.411572 29.898615 31.258276  25.2586201565953 29.50497289216113 30.46269609031019  24.9942846565953 29.87177989216113 30.81189559031019  25.6679625 29.933342 30.5642145  25.6759075 29.531808 30.9090765  25.924353 29.968069 29.870153  25.2506751565953 29.90650689216113 30.11783409031018  25.932298 29.566535 30.215015  25.940243 29.165001 30.559877  24.57699731319059 29.84494478432225 30.36551518062037  20.443649 15.101321 35.266197  20.64603297041934 16.3721679170565 35.48449188302842  20.16400846323469 15.65763032940669 35.69219986959405  20.20035858416702 15.83672831989336 35.14144980760207  20.88932338625232 15.63676059716314 35.60923907542634  21.33499777250465 16.17220019432627 35.9522811508527  20.60968284948702 16.19306992656982 36.0352419450204  19.92071804740171 16.39303764930005 35.56745267719612  19.88436792646938 16.21393965881337 36.11820273918809  18.50842677837865 30.8028206731309 34.29187784260844  18.59816521337154 32.20194532904544 33.58226904746165  18.3076761402794 31.63031255446378 34.36102568070061  19.03821040608675 31.34277130903763 34.46716481895383  18.79891585147079 31.37445344771255 33.51312120936948  19.56799403379486 31.88272194494437 34.64245179529922  18.8374597679875 32.17026319037052 34.536312657046  18.10692550218014 32.45780443579667 34.43017351879278  23.46097276738132 17.29162880714181 27.69673739286894  23.65290947683125 17.13345149907067 26.83067143400124  23.27193509726136 16.59287639796273 27.38219471593045  23.07999838781144 16.75105370603388 28.24826067479815  17.695433 22.990068 36.360863  18.40005700025393 23.76474217650237 36.95673223123018  19.09535924942303 23.30697158636818 36.95764089559185  17.79743334178574 23.18471204561152 37.0179181099754  18.29805665846819 23.57009813089084 36.29967712125479  18.49273559095483 22.7269414
[...]
<PointData  Vectors="u"> 
<DataArray  type="Float64"  Name="u"  NumberOfComponents="3" format="ascii">7.4252544319592118e+01 -2.3508963647582693e+01 6.7687992184655787e-01  5.8914372170783345e+01 -1.6285914884993630e+01 -4.2689039972243261e+00  7.9210742239241952e+01 -2.9425325093858341e+01 -1.3382371474085907e+01  6.5799006204991855e+01 -2.4428014527507198e+01 -2.9078451384375484e+01  6.2482880277306222e+01 -2.7297758082654916e+01 -2.3490894961863365e+01  7.3395786470845891e+01 -3.3410664662191799e+01 -2.4182485602191186e+01  1.9998435498435700e+02 -1.1770901547166116e+02 1.4849702288409112e+01  1.1221840526376667e+02 -9.5610489689173860e+01 7.6627493803277087e+00  6.8967276029203617e+01 -8.0389714706364614e+01 9.8599052809574879e+00  2.5673332442834631e+01 -1.3130147382458344e+02 2.9419267916445719e+01  8.7445384115816026e+01 -6.5051325147783658e+01 -1.1488438067463054e+01  3.5736280680634643e+01 -3.7236139955005683e+01 -3.2381618496521483e+01  6.0146479489095874e+01 -3.5571900199933168e+01 -3.3666434514266676e+01  3.9286229664869914e+01 -3.2578662093932977e+01 -2.3609904391605063e+01  4.3507701278587568e+01 -4.8305056861029954e+01 -4.6238787867234720e+01  5.1987587086160261e+01 -5.2240526462506679e+01 -5.4194640881993180e+01  4.5896543257159919e+01 -4.0835598309698732e+01 -3.5478846491138292e+01  5.9307274411686109e+01 -3.8687445687671833e+01 -1.7405978869891214e+01  4.6957267797171212e+01 -2.3517912405424223e+01 -1.0532118100841128e+01  6.7350701107422054e+01 -2.9415006697579621e+01 -7.8551351235570461e+00  7.5714792038692380e+01 -5.9492664758442608e+01 -6.0030912386404914e+01  7.3190552532983304e+01 -3.4601619634268339e+01 -3.2098293738670009e+01  7.5871480781466985e+01 -4.4331417281680459e+01 -4.2065425331708369e+01  9.0842029870802989e+01 -4.1404157237484711e+01 -2.4930855931916145e+01  9.2367515318769165e+01 -1.5429627656204897e+02 -1.9195912686846928e+01  2.5977220995540642e+02 -2.3943575323415101e+02 -1.2451555484780641e+01  3.9417791813669874e+02 -2.9122181559865811e+02 -6.1034812449817103e+01  1.1151041666851417e+02 -6.6247612780785659e+01 2.7317201162722206e+01  8.8355573313733444e+01 -3.3043488916262930e+01 2.2952944007277381e+01  5.3294539056586103e+01 -1.0625252764254977e+02 -1.7431727231164590e+01  6.1381037673787176e+01 -1.1842337653098497e+02 -1.0976291463322859e+01  5.8173763739766223e+01 -1.0606786795883771e+02 -1.8749135922839081e+01  7.3974733378086739e+01 -1.1851508084655761e+02 -1.7006944152815652e+01  5.3592007463971534e+01 -1.1738918665567294e+02 -1.2707580566532906e+01  1.0594729803768965e+02 -1.4593765215267925e+02 -1.6854909688609265e+01  8.9974473149788238e+01 -1.1616334271124774e+02 -9.4922444248949596e+00  7.3305868642369759e+01 -1.3459444640310249e+02 -9.9203540653739086e+00  4.4384669531784475e+01 -1.3084318557909816e+02 -5.6514284528408485e+00  6.1935580215340423e+01 -9.3951606387826274e+01 -1.3782893975137787e+01  1.4849039342232908e+02 -9.2682902483310684e+01 -7.6197722123384466e+01  1.2128718899737660e+02 -7.7951191794173198e+01 -3.7718308823786707e+01  1.2935140098856814e+02 -8.8467852561086019e+01 -3.8294256921326500e+01  1.1380275704565776e+02 -7.8633962701185297e+01 -7.8657562230558256e+01  1.3215151419333685e+02 -8.9348740792004648e+01 -7.7295350281547812e+01  1.2416009507811324e+02 -7.9481145842480416e+01 -8.0819193098571517e+01  1.1343569555231120e+02 -6.7800583963290663e+01 -7.8120440254217016e+01  8.7044115850968268e+01 -5.8444613497037885e+01 -7.7592272534748233e+01  1.0328219717701883e+02 -6.8304069023770239e+01 -3.5872584017706529e+01  1.1222256374043420e+02 -7.6111039849457185e+01 -3.9623669045939147e+00  7.5695867813555793e+01 -5.2258094844151358e+01 9.5139050339484967e+00  8.5075357011537335e+01 -4.1100808628536669e+01 1.8326287308471244e+01  7.9926240684458378e+01 -4.5133348393474428e+01 2.0963675194316536e+01  9.0744943086449226e+01 -4.3677825714329025e+01 7.8666802763000732e+00  9.8885304852440171e+01 -3.4935772903064077e+01 8.9186815340117820e-01  9.0638905882752653e+01 -3.0790861144945715e+01 1.2395938099018350e+01  8.8784702525752735e+01 -3.7305270696926996e+01 1.1505772564714510e+01  8.0908308652910719e+01 -3.5716893832904788e+01 2.4849876068375515e+01  8.5694983815371884e+01 -2.8666863448581875e+01 2.4464048768809747e+01  9.0219727379367697e+01 -2.4784521058668521e+01 2.4772685426961260e+01  1.6068353934280097e+02 -2.7496569942162569e+01 1.5515860134632330e+01  1.0303756846860293e+02 -6.9112049107151591e+01 1.6189815660004047e+01  1.2863471933167156e+02 -2.3116579183198890e+01 3.6662473506321071e+01  1.2441368133079547e+02 -5.7016027853177249e+01 3.4134193531082997e+00  1.4338063648292723e+02 -5.7653033536113497e+01 2.4987705374588405e+01  1.2255818910561227e+02 -6.3658567224475107e+01 4.6801263355850118e+01  1.0862318246881956e+02 -3.3449691218328219e+01 3.7614467629996625e+01  1.1496292086264405e+02 -3.0884027031790431e+01 4.8024221343516672e+01  9.8933600226094740e+01 -6.5552060800118838e+01 1.4494339942524276e+01  1.1174243227773609e+02 -1.0938569756724425e+01 5.4402517847030133e+01  1.2114673678631686e+02 -6.0355681877422739e+01 -2.6135412891169604e+01  8.8950255358637150e+01 -4.8426535974035268e+01 -1.3795804380982874e+01  1.2589392032288453e+02 -4.6184749374420868e+01 -1.5525215548279945e+01  9.9638727815551817e+01 -4.5703133150864417e+01 -6.6286688543203720e-01  9.0846871622115572e+01 -6.8373467754691475e+01 -4.0021612768637567e+01  8.4995093637099245e+01 -6.3881156565717994e+01 -4.7739895143102792e+01  1.0328088429845992e+02 -4.9416739249554993e+01 -2.6111019720721494e+01  8.2053310817609983e+01 -3.2770765520718662e+01 1.7641734851262960e+01  1.0088848232356931e+02 -2.9892801762730269e+01 1.2165979741481083e+01  1.2807291361786693e+02 -2.9699419978270662e+01 7.9851113184754485e+00  1.4120479580865063e+02 6.0216604077147373e+00 7.9698990486814978e+01  1.7564193860703918e+02 -1.1825008540847679e+00 4.9854926345882525e+01  1.9410116398165968e+02 1.6977250135662526e+01 7.9591005329139463e+01  1.7762854894290047e+02 2.0163930368752780e+01 8.6649576539388349e+01  2.0554970441385331e+02 3.6811074237546208e+01 8.9739146600346999e+01  2.3461248403973948e+02 1.5776654011367915e+01 5.3212761907338432e+01  2.0968492552763365e+02 2.0651947729130690e+01 5.8666977520747636e+01  2.2841333840805441e+02 3.9932213993954285e+01 8.2168860245490038e+01  2.5677705509084507e+02 3.7682195442680658e+01 7.0714877248859338e+01  2.1952607221983902e+02 -5.5568047651887875e+00 2.3504037030609098e+01  6.3768139672776812e+01 -5.2973446671175758e+01 -8.8639942842723354e+00  7.3728544922154981e+01 -5.3470301996375404e+01 -6.3867468314606590e+00  7.3487158376775199e+01 -5.1210390360151877e+01 -9.8821297462648534e+00  7.5845520491610685e+01 -4.7486574966612082e+01 3.3654189204999034e+00  6.5822232452483973e+01 -5.6621792641348534e+01 -4.8557360406397079e+00  9.3412968630744587e+01 -3.5595057969456143e+01 2.2375080299023164e+01  9.1766991921045403e+01 -4.5126384524453307e+01 -1.3110415308966730e+00  7.7165076357748404e+01 -4.8349843828852251e+01 6.4587126471307972e+00  6.9387458065096837e+01 -5.7669037121290074e+01 -3.1792925434955871e-01  8.1041770633873128e+01 -5.3521541347236067e+01 -1.7594587815997560e+01  1.6293027020288827e+02 -3.2104225288718844e+01 6.8093823340655916e+01  -1.4397425751347056e+01 6.5813326940423963e+01 4.5502000503861474e+01  5.6528910599869519e+01 -1.1162412122411197e+01 4.5701147091565936e+01  -8.0098930134506059e+00 -3.5690486920220522e+01 -2.2998032006396025e+00  4.3900409351061455e+01 -5.0309050195574102e+01 -4.2958299794222917e+01  2.4126281254938146e+01 4.5258406317984090e+01 2.7130059871199418e+01  6.1525431582172921e+01 7.6516526927985575e+00 4.9889544979612417e+01  4.6104637438359525e+01 7.8867339000875759e+01 1.1834020609742343e+02  4.9838199364682453e+01 1.2385447628059014e+01 6.8103829504268219e+01  6.2037239141781420e+01 -2.1960940972084844e+00 5.9714747428994066e+01  1.2394891714446838e+02 3.7503722913071069e+00 1.2681820803637136e+02  1.3552005618591286e+02 1.9351785516783018e+00 1.1267318861900833e+02  1.3384132024427254e+02 3.9537040903402745e+00 1.1437326290539899e+02  1.3260784338538551e+02 9.1176557208740157e+00 1.2201728353232191e+02  1.3851033945519765e+02 3.6165829913865188e+00 1.2157227646017508e+02  1.3657792955422266e+02 1.9065155850466791e+01 1.1208263348970860e+02  1.3529657335832465e+02 6.3044544088213925e+00 1.1169751476008524e+02  1.3423510053386281e+02 9.3775686631628687e+00 1.1182273952619143e+02  1.3834472380081863e+02 -2.3764135512895987e+00 1.1021307451714918e+02  1.3887146968996495e+02 5.1898644732485479e+00 1.1587178962345159e+02  -3.7343699304841181e+01 -4.7181379363702312e+01 1.1673583250224718e+02  8.6389498727986602e+00 -3.2133003406425438e+01 7.5585836173516626e+01  9.5965446142659570e+00 -2.5007809944214870e+01 1.1753929344917702e+02  -4.7831332569681564e+00 -2.7030406840327618e+01 5.9777542115741163e+01  -2.0534904378172747e+01 -4.2235044794562448e+01 6.6652007506374161e+01  -7.4242179100440122e+00 -3.2832805689957205e+01 5.0755530320582054e+01  2.0756224241100995e+01 -2.1043854744095682e+01 6.3368793201472677e+01  6.5073776854834584e+00 -2.4461094544662899e+01 4.1571167081573606e+01  1.4806367307103594e+01 -1.8642111277710484e+01 3.4261907342652087e+01  3.9906712785512994e+01 -1.6236832728660382e+01 9.7445727285407784e+01  -1.8490160923485286e+00 -1.2312015652487268e+01 9.0995585469388658e+00  5.5452536917813404e+00 -1.3457509417470790e+01 1.2666707075100526e+01  5.1540265306722484e+00 -1.0956364254113439e+01 1.0129595953393611e+01  2.7854389359242751e+00 -1.2732070580461468e+01 1.0867092575620505e+01  1.5270250265737493e+00 -1.4628482953683774e+01 1.0354324459387463e+01  2.2196457215626006e+00 -1.1787852621331536e+01 9.5319102118812751e+00  3.0735814262486159e+00 -8.5269922171669918e+00 7.2373679632082251e+00  4.7736284901570274e+00 -1.0539609979041357e+01 8.7637011209850559e+00  3.0088873461741064e+00 -1.4799800056726271e+01 1.3687706720660263e+01  6.0709845230288444e+00 -1.2442290505352597e+01 1.1200198092869716e+01  4.1756706269121764e+01 -6.3983561847261150e+01 -2.6872494610391048e+01  3.1601845496129616e+01 -3.5211359681831446e+01 5.4176048401746764e+00  3.3011664935328753e+01 -4.8081960172186648e+01 -4.2076506113813661e+00  2.1373725428504482e+01 -5.5386944094949818e+01 3.6100554192052332e+00  3.3628519578940328e+01 -4.6974124193536326e+01 -6.9608145861557116e+00  6.7772243895376851e+00 -4.1988051691704882e+01 3.6214942385338382e+00  1.7094064005040678e+01 -4.0255712753818059e+01 1.8295846957426958e+00  2.3460939983568164e+01 -3.8345965181715009e+01 4.7150309644280917e+00  4.0566147539442412e+01 -3.2775855910970328e+01 7.8438527594168352e+00  2.2628419995441256e+01 -3.5913453757920657e+01 4.3447307993864532e+00  1.4294848169524903e+02 1.8595287148434057e+01 8.1162388045453994e+01  1.4775125720980023e+02 1.3997459904736829e+00 8.1745924428502377e+01  1.5748299934922079e+02 1.3524498160682388e+01 6.6874869212173039e+01  1.4527637523043003e+02 1.4019782944016830e+01 6.5316413615516311e+01  1.5209704940238925e+02 1.6261325093921254e+01 8.3384964218477720e+01  1.4496180336456686e+02 4.4537844304187368e+00 8.8053850424431275e+01  1.5771997621638840e+02 1.0650820347884064e+01 9.1277850881064367e+01  1.5039752147509120e+02 4.0305162621260626e+00 9.1711643214584939e+01  1.4624316575130823e+02 -3.5717453287454513e+00 9.8466358461825109e+01  1.5098301591412641e+02 4.5184087588823409e+00 5.5843135673757097e+01  8.4167512066123749e+01 -2.0752673518243703e+00 1.0072287951578832e+02  9.8057147334529162e+01 2.7395569519207989e+01 7.7102612212610552e+01  1.0135886060953115e+02 2.9423294776339265e+01 7.7582571594444801e+01  1.0371172188112759e+02 1.0993319884754413e+01 8.1441463652093191e+01  8.0269374724254575e+01 2.6421347284357370e+01 8.7704975572695091e+01  7.7810260880682151e+01 4.8966878981467900e+01 8.9316950809335651e+01  1.1216848902246751e+02 1.0812304840467453e+01 7.0244484451839455e+01  1.0075059447738376e+01 -4.7240657511735122e+01 6.4016343033013854e+01  1.8867160484378918e+01 -2.6688397944635565e+01 4.7593190975611698e+01  2.1328734478873322e+01 -2.7713778941502589e+01 4.9321945711709120e+01  -2.1187435480097752e+00 -3.2243864555620419e+01 3.6983200870504596e+01  1.3711982201414001e+01 -5.1568012782848314e+01 7.1519937703594209e+01  -1.2190425716615831e+00 -1.5728928501211728e+01 1.7353693022418881e+01  1.5878985161421427e+01 -1.6989655153847803e+01 3.0356264357862443e+01  -5.3840120371746627e+00 -2.8697170852683225e+01 3.3620998878523508e+01  7.5876286885450535e+00 -4.1637409509808293e+01 7.1055614824885922e+01  3.5004009151257428e+01 -1.3916695177305007e+01 3.8263141517064447e+01  9.8273209145830904e+00 -6.1308784226246473e+00 1.4959097534857875e+00  1.5651705786675327e+01 -8.8055622375674396e+00 1.0780937770267395e+01  9.4737922591170296e+00 -4.7054056602070098e+00 4.7891820396019060e+00  9.7128248993359598e+00 -8.7615363477657198e+00 8.2824947719268263e+00  1.6028804006125029e+01 -2.7215094322642681e+00 4.5826379174287100e+00  2.5719635218010364e+01 -9.9928548204421896e-01 7.5373374719084199e+00  1.5373544773957914e+01 -4.4770100403207751e+00 6.8671208144260962e+00  7.7693771106036458e+00 -9.7386714076142447e+00 8.2814707282829811e+00  8.2419756346913839e+00 -6.9363740450187059e+00 6.1852337787330720e+00  9.8773780060585665e+01 -4.9793867715366673e+01 -4.0465807441026254e+00  1.3221806785126159e+02 -5.8290959833927282e+01 7.5987727574672459e-01  1.0483921471473936e+02 -5.2989974246705771e+01 4.7424289429015714e+00  1.0849111680306183e+02 -4.1780109201409495e+01 -1.4408019889567720e+01  1.1886880483606843e+02 -4.6850941682151145e+01 -2.4122639328184623e+00  1.2660078716372958e+02 -3.0951303790428341e+01 -2.6185036897375518e+01  1.1646635436588119e+02 -4.3601266091151224e+01 -7.2662001520698514e+00  1.1666443394166043e+02 -6.3667670790069138e+01 2.2302062362987439e+01  8.4774306775677033e+01 -3.2805450306961554e+01 -2.5383563439925636e+00  7.7586369998964798e+01 -4.7288562267810441e+01 -2.7983408515396032e+01  8.5152981321967374e+01 -4.0025239157365874e+01 -2.4354714838322163e+01  9.8613042837531736e+01 -2.8741885354113222e+01 4.0442117091499794e+00  3.8778122820125482e+01 -4.6712817568107234e+01 -5.3153902730672700e+00  3.8030093940245834e+01 -4.8055930318536845e+01 -7.3566303004489244e+00  4.4504583611132517e+01 -4.7427822716467844e+01 -1.4555118644397703e+01  3.4204150119818173e+01 -4.2220660488802608e+01 -7.4883655879348749e+00  4.2383051580820933e+01 -5.0719621592987288e+01 -4.2476805236322486e+00  4.1334069313608644e+01 -4.1547785372349317e+01 -1.5943671868769371e+01  4.3317614695568871e+01 -3.5825185972037708e+01 -2.4810748838642432e+01  3.7196847270531769e+01 -3.7554158031242032e+01 -1.5168601088448908e+01  4.6493492349845688e+01 -5.4213536830824474e+01 -4.9648011290311311e+00  3.0089605170295023e+01 -3.9931738096726932e+01 -7.7062343675710396e+00  -2.7731752542792223e+00 1.0705748558126182e+01 6.9619181573376991e+00  1.0670667708801478e+01 1.6579435554092374e+01 1.5962116169160867e+01  6.4229867045104703e+00 8.1152665962692190e+00 1.8427480423901134e+01  1.2393289141446147e+01 1.9412464393470973e+01 1.1051120623969423e+01  2.3004208149915808e+00 1.9867493838323700e+01 8.2765145213386919e+00  3.7322047082841854e+00 2.4546066412086340e+01 7.7649229211198652e+00  1.4497871041422361e+01 2.5682120120251568e+01 1.0146357819720233e+01  2.3303442774239056e+01 2.6693789799666064e+01 1.0275622614967238e+01  2.1038789108208764e+01 1.7779484187427002e+01 1.7759055282790197e+01  1.7582447984384515e+01 7.8260438510600050e+00 2.7837363069539723e+01  5.0968378093047491e+01 -4.4796447881341424e+00 5.7562898993906387e+01  5.6573148323567196e+01 -1.6735839772334582e+01 5.7162107147421878e+01  4.5870268588958005e+01 -1.2889666424851239e+01 6.2268978226445554e+01  5.4054067435051934e+01 -8.9999704649354939e+00 6.1598702750548185e+01  4.6720195831460181e+01 -1.7154207670638392e+01 5.2710498896690694e+01  5.4347121696544328e+01 -1.3606393031117644e+01 5.6249212365000709e+01  4.3642115066517043e+01 -1.0258564770930580e+01 5.5858252506744584e+01  3.5212352663156970e+01 -1.3625078716038761e+01 5.3661415525680091e+01  5.4049974998988830e+01 -2.6140163202093266e+01 5.0104864612600416e+01  5.8700611176296519e+01 -1.1240805742913256e+01 6.7053033266915619e+01  2.2537423040423040e+01 -6.0322254004159234e+01 3.7621093505147869e+01  6.1388790036794056e+01 -2.8384857476872202e+01 5.5448250931520178e+01  7.4189472630426224e+01 -2.8999329955869598e+01 4.7592472896558455e+01  4.1342364371278805e+01 -3.7112616743201549e+01 5.7154621084529694e+01  4.9490487537471211e+01 -4.6148091272924169e+01 3.9129571889699982e+01  6.2606152530798404e+01 -4.3092160965511674e+01 2.9753009603706872e+01  7.8960667831391760e+01 -3.5669614986319907e+01 3.1685671385675011e+01  6.8052136368693581e+01 -3.6305981990303401e+01 4.0138100380566293e+01  5.9068608494892715e+01 -2.2003996613334699e+01 6.9797512981174989e+01  3.8217157383571966e+01 -6.2984610357958452e+01 -2.5629176554038640e+01  5.0695707392520902e+01 -5.3870027781403451e+01 -1.6811666902866111e+01  3.8535275836672426e+01 -5.3256671484773612e+01 -1.6547846012540194e+01  5.3193696333013563e+01 -5.6625678094192381e+01 -1.1724069487567457e+01  5.0394341182129260e+01 -5.9383923647184773e+01 -1.7577016228300145e+01  5.5890502889734428e+01 -5.4026019773388121e+01 -1.3816991495155104e+01  5.5420070086039004e+01 -5.1546428888413125e+01 -8.8679735926234109e+00  5.1675655515591714e+01 -5.4477172173263689e+01 -1.8176221682765320e+01  4.4447849937827165e+01 -4.6755803920945901e+01 -8.5891582010565592e+00  1.1195984620895675e+02 -6.7578740440134325e+01 -7.5020905477498118e+01  9.1045757466617744e+01 -3.4961629854961096e+01 -4.8252872349666582e+01  1.1512740080794188e+02 -4.9659251644568158e+01 -5.3526340642710601e+01  9.7080328596036736e+01 -3.7312783710041984e+01 -6.6154405563980120e+01  8.0536334802296935e+01 -6.6823305617274453e+00 -6.0587212737177403e+01  9.6640704225596082e+01 -2.7125184238731482e+01 -2.9411522308451282e+01  7.8806887209108453e+01 -1.0554246437783911e+01 -3.5781232344235015e+01  1.0327212680445952e+02 -2.8283065535776412e+01 -4.5015743792654568e+01  1.1443610748786681e+02 -3.7807658762848327e+01 -3.5644459098860459e+01  7.8794843007868209e+01 -1.4559412203298640e+01 -1.8026799354890155e+01  6.5586289941692897e+01 -5.8457823018518852e+01 -3.3892552617833516e-01  7.0824665943016825e+01 -5.9377672477711300e+01 3.5006141011627516e+00  6.7154957007747214e+01 -6.3635547344625699e+01 2.4312599757866025e+00  6.7102892679786819e+01 -6.9654957327931967e+01 -2.1854406535527344e+00  6.7226593973152987e+01 -5.9536289463652821e+01 3.3545109936301603e+00  6.8245994226508799e+01 -5.8871779241501535e+01 1.6902656177656148e+00  7.7965052224143733e+01 -6.4726654620198758e+01 1.0091320533055448e+01  7.4608693414990285e+01 -6.1522057941317307e+01 7.3184314222446272e+00  6.8409447024474048e+01 -6.1162062532250744e+01 5.8296475833011421e+00  3.9563591533861353e+02 6.9552573078633193e+00 3.0553576925729402e+01  3.0291067800996308e+02 -5.0411297132612916e+01 2.2677280502418700e+01  5.0415513650823067e+02 -7.0987642905256818e+00 -1.5960141610864046e+01  3.2957034971309020e+02 -6.9966690890815983e+01 2.4591390033642238e+01  2.6486436007408798e+02 -9.7766059535199474e+01 -1.0181992829245667e+01  2.1535000172897688e+02 -6.6656075693931541e+01 1.9379099389888655e+01  2.1214230135231608e+02 -4.2770338278239706e+01 2.1909225240020117e+01  8.2741674859133425e+01 -4.7336329787553161e+01 -2.0523486219178002e+00  7.3675936338442611e+01 -5.3424987077611121e+01 1.0633447264999706e+01  7.8890455907584567e+01 -5.2809522003885597e+01 5.7705656930806546e+00  8.3396386462480137e+01 -4.5142436286337045e+01 1.1150019251634744e+01  7.4947925698413940e+01 -5.2755758506047044e+01 5.9302687956889133e-01  8.2271062182650596e+01 -4.4876489160611911e+01 2.4834955907366425e+01  8.0131410484448750e+01 -5.6994711042429039e+01 1.6863601426323743e+01  6.0709024878298969e+01 7.9356731121969091e+00 6.8564163345796359e+01  6.1314302189204483e+01 1