<?xml version="1.0"?>
<VTKFile type="UnstructuredGrid"  version="0.1"  >
<UnstructuredGrid>
<Piece  NumberOfPoints="7175" NumberOfCells="31838">
<Points>
<DataArray  type="Float64"  NumberOfComponents="3"  format="ascii">19.063416 5.402838 37.967827  19.9211565782979 4.565518756130301 38.12544596670817  19.47824687045888 4.595784006729099 38.11696277458443  19.35683087045889 5.017012506729099 37.58544777458443  19.184832 4.981609499999999 38.499342  19.62774170783901 4.951344249401203 38.50782519212374  19.306248 4.560381 39.030857  19.74915770783901 4.530115749401203 39.03934019212374  19.65024574091777 4.631187013458198 37.20306854916886  20.19206741567803 4.499850498802405 39.04782338424748  20.612497 2.941676 36.362888  19.82107875019082 3.00536290630893 37.17784250950703  20.10368105110076 2.607731896590063 36.77080323036161  20.63899855110076 2.915036896590063 36.89941923036161  19.79457719909006 3.032002009718867 36.64131127914542  20.0771795 2.634371 36.234272  19.541862 2.327066 36.105656  19.25925969909006 2.724697009718867 36.51269527914542  18.97665739818012 3.122328019437733 36.91973455829084  20.66550010220153 2.888397793180126 37.43595046072322  20.503675 0.656945 39.089844  20.81274532583319 0.5966672840006785 38.56498703384372  21.22073536408013 0.9945584110051269 38.6270807990925  20.72150686408013 1.085635911005127 38.71348179909249  20.31351682583319 0.6877447840006785 38.65138803384372  21.0029035 0.5658675 39.003443  21.502132 0.47479 38.917042  20.93933872816027 1.514326822010254 38.33711959818498  20.53134868991332 1.116435695005805 38.27502583293622  20.12335865166638 0.7185445680013569 38.21293206768745  20.13137137045889 3.786431506729099 36.78297827458443  21.09050274349265 3.730623608390229 36.89754141322133  21.56850848698529 4.519571216780458 37.43219482644267  20.15787292155965 3.759792403319162 37.31950950494604  21.11700429459341 3.703984504980292 37.43407264358294  20.60937711395153 4.575379115119327 37.31763168780576  22.575911 0.731494 39.018883  21.51646152805914 1.864950403992419 39.31748520924817  21.75762486408014 1.122910411005127 38.67800129909249  22.32338327805914 1.736985903992419 38.87946570924817  21.76898925 0.8594584999999999 39.4569025  20.9620675 0.9874229999999999 39.894922  20.95070311408013 1.250874911005127 39.1160207990925  22.07085555611829 2.742477807984838 38.74004841849634  21.50509714213928 2.128402314997546 38.53858400834066  19.634081 4.133739 39.8654285  20.14297122725279 3.587302944283034 39.80757134429642  19.5371523769647 3.525740055510685 39.73300839885205  19.96975324745267 3.847585448733118 39.23391227399838  20.30542549490534 3.561431897466235 38.60239604799678  20.47864347470546 3.301149393016152 39.1760551182948  19.87282462441737 3.239586504243802 39.10149217285043  19.44022375392939 2.91774111102137 39.60058829770409  20.04604260421749 2.979303999793719 39.67515124314846  20.65186145450559 3.040866888566069 39.74971418859283  18.68421 0.635899 38.893246  19.5873775 0.0281805 38.67466  19.40378432583319 0.6772217840006785 38.55308903384372  19.166194 -0.03205049999999998 38.512356  19.1053935 0.6961299999999999 39.05555  19.526577 0.756361 39.217854  19.82496782583319 0.7374527840006784 38.71539303384372  19.648178 -0.7 38.131466  19.88576832583319 0.009272284000678477 38.17219903384373  17.85581 3.163335 38.626389  18.77201769483137 3.169218657551871 38.90969649254831  18.63370167317495 2.343192330065614 38.73025208209145  18.53446967317495 3.103251330065614 38.44417858209145  18.09335802165642 3.229302327486257 39.09190691045686  18.19259002165642 2.469243327486257 39.37798041045686  17.955042 2.403276 38.9124625  18.054274 1.643217 39.198536  18.33090604331285 3.295269654972515 39.55742482091372  19.21312934634989 3.043167660131229 38.2619681641829  20.081453 1.483536 37.014336  20.37347655110077 2.185966896590063 37.22514323036161  19.52905519909006 2.302932009718867 36.96703527914542  19.64729117317495 2.263351830065615 37.63815208209145  19.93931472427571 2.965782726655677 37.84895931245306  19.09489337226501 3.082747839784481 37.59085136123687  18.742811 3.9042845 39.498983  18.97797017317495 3.473726080065615 38.88047558209145  19.0915173769647 3.411012805510685 39.54978564885205  18.53685852165643 3.599777077486257 39.52820391045686  18.88556489862112 3.106505382996942 39.57900655930891  19.32667655013964 2.980454385576299 38.93127823094349  19.52411824745267 3.732858198733118 39.05068952399839  19.3732358769647 3.739061055510684 39.31572264885205  19.80583674745267 4.060906448733117 38.81662652399839  19.0245295 4.232332749999999 39.26492  18.913948 3.457181 40.7  19.0347108769647 2.683131055510685 40.15029414885205  19.1770858769647 3.187461055510685 40.15029414885205  19.379465 2.747506 40.7  18.771573 2.952851 40.7  18.629198 2.448521 40.7  19.64260287696469 2.477786055510685 40.15029414885205  19.23709 2.243176 40.7  19.844982 2.037831 40.7  18.93356592346109 1.725031096137053 38.96475673420622  18.7904255 1.199789 39.208195  18.369242 1.139558 39.045891  19.24853392346109 1.221372096137053 38.81211173420623  19.66971742346109 1.281603096137053 38.97441573420623  19.81285784692218 1.806845192274106 38.73097746841245  20.505594 3.790222 35.283306  20.42169450777097 5.093085461991974 36.48336066797263  20.07791987045889 4.210704506729099 36.24318727458443  21.03705124349265 4.154896608390229 36.35775041322134  20.84936863731209 4.672602955262875 35.52347939338821  21.38082588080474 5.037277563653103 36.59792380660954  21.19314327462418 5.554983910525749 35.76365278677641  21.03616072725279 2.179383944283035 40.22485709429642  20.24842172725279 2.539348944283034 40.22485709429642  20.6162615 2.518655 40.7  20.632721 1.677866 40.7  21.387541 2.999479 40.7  21.01970122725279 3.020172944283035 40.22485709429642  21.4040005 2.15869 40.7  21.42046 1.317901 40.7  20.88504 -0.7 38.118595  21.69480877538938 -0.1508669608914535 37.82910790738858  21.815297 -0.112605 38.48767650000001  21.07309777538938 -0.1508669608914535 37.85924990738857  21.506751 -0.7 38.088453  21.193586 -0.112605 38.5178185  21.38164377538938 0.4365280391085465 38.25847340738858  22.128462 -0.7 38.058311  21.26115555077875 0.398266078217093 37.59990481477715  20.011137 4.853166 40.7  20.250992 4.3342565 40.28271425  20.4149085 4.1209355 40.7  19.9865255 4.2801315 40.7  19.822609 4.4934525 40.28271425  20.43952 4.69397 40.7  20.867903 4.534774 40.7  19.961914 3.707097 40.7  19.7979975 3.920418 40.28271425  21.61385 1.428142 37.113514  21.40524736408013 0.9391989110051269 37.96151604909249  21.27659436408013 1.471234411005127 37.7253167990925  21.43750277538938 0.9132040391085465 37.35670940738858  21.742503 0.8961065 37.34971325000001  21.871156 0.364071 37.58591250000001  21.56615577538938 0.3811685391085465 37.59290865738858  21.10024713946951 0.9562964501136734 37.96851220648107  19.75927742062762 3.302299778798732 38.43218210608984  20.05914167091376 2.684138544870171 38.66668675820461  19.62654080042579 2.362293151647738 39.16578288305827  19.51299359663604 2.425006426202668 38.49647281629767  20.23917897456185 2.347621492727116 38.08346396456783  20.8024194151809 2.20136230759519 37.8865350294541  20.51039586408013 1.498931411005127 37.67572779909249  19.94715542346109 1.645190596137053 37.87265673420622  20.37609828754122 1.66058600714218 38.53404853329872  21.071468 3.7514925 35.3639165  20.88356 4.238626500000001 34.8922615  21.637342 3.712763 35.444527  20.6223821115328 2.537879359738245 38.46975782309088  21.3681778291599 2.815437800582482 38.08799943960977  21.18814052551181 3.151954852725536 38.67122223324655  20.48546279855343 3.22491484532318 38.01917325436  21.60292524349265 4.116167108390229 36.43836091322133  20.15826642346109 1.231895096137053 38.91041073420622  19.96810824929428 1.262694880137731 38.47195476804995  21.05108121329815 0.9030723394440135 37.34347045279716  20.71382557737829 0.9461647504491404 37.95527325188965  20.87473398868753 0.3881343785525601 37.58666586018573  20.48831242659631 0.3780026788880271 37.57342690559432  19.31345156954894 3.876757516447966 37.06140155372985  20.550381 5.798308 40.7  20.89337483375962 5.475404671418612 40.00808244689227  21.14955704911336 6.451447358750482 40.07946694706845  20.338628 6.325400999999999 39.82734050000001  21.23636866751925 5.152501342837223 39.31616489378455  20.42196443509181 3.770358693684237 39.39876878642016  19.91307420783901 4.316794749401202 39.45662594212374  20.24874645529168 4.030641198134321 38.82510971612213  19.43854974745267 3.956409948733118 38.45018102399839  19.25968867317495 3.801774330065614 38.64641258209144  18.938961 4.4558845 38.6644115  18.571674 4.351388 38.297966  18.89240167317494 3.697277830065614 38.27996708209145  20.1743285 1.347388 39.894922  19.99359317346109 1.577116596137053 39.31294973420623  19.80727612696469 2.132564555510685 39.74775514885205  19.92058659551902 1.334138971403592 39.88285460259932  19.66684469103804 1.320889942807183 39.87078720519864  19.73985126898011 1.563867567540645 39.30088233680554  19.55353422248372 2.119315526914276 39.73568775145137  18.7472488769647 2.280479055510685 39.39956214885204  18.79019 1.0243685 39.796623  18.86055934551902 1.482053471403592 39.53466160259931  18.475222 1.5280275 39.949268  18.89617 1.412838 40.7  19.28150734551902 1.366863971403592 40.28539360259932  19.17552734551902 0.9783944714035916 39.38201660259932  20.41309497725279 2.194127444283034 39.82231809429642  20.00965525 1.6926095 40.297461  19.2113735 1.0845995 39.958927  19.59671084551902 1.038625471403592 39.54432060259932  18.242504 2.805928 39.6631945  18.48005202165642 2.871895327486257 40.12871241045686  18.341736 2.045869 39.949268  19.14802134551902 1.884705471403592 40.28539360259932  18.762684 1.9306795 40.7  19.75591334551902 1.679360471403592 40.28539360259932  19.370576 1.7253345 40.7  19.4179165 5.540058999999999 38.3826945  19.772417 5.67728 38.797562  19.98224220783901 5.088565249401203 38.92269269212374  19.5393325 5.1188
[...]
<PointData  Vectors="u"> 
<DataArray  type="Float64"  Name="u"  NumberOfComponents="3" format="ascii">1.7470310243313034e+02 1.1978152837596683e+02 1.2674277640540039e+02  1.5843027795744214e+02 9.1737360263216814e+01 7.5056682393934537e+01  1.6669512837109349e+02 9.8769956112018875e+01 9.1042087607475750e+01  1.8294041532691492e+02 9.8455172485759363e+01 1.0259382481856414e+02  1.5835903607088426e+02 1.2432863831350906e+02 1.0777326362644007e+02  1.4537780126490713e+02 1.1367832564384578e+02 9.1238379145068933e+01  1.4782673720394334e+02 1.2626236066303221e+02 8.9245705222194459e+01  1.2699073894262661e+02 1.1626737692303956e+02 7.9351834944088182e+01  1.9349161591608069e+02 8.4205943407236020e+01 8.9087488399449740e+01  1.2113591715617831e+02 1.0053026256155782e+02 5.4815648074805821e+01  2.8608877877247625e+02 3.9117119230748379e+01 3.8836937442480043e+01  2.0801514572965169e+02 6.7350648679105717e+01 8.0434024534375368e+01  2.4245320635849765e+02 6.8721979078106386e+01 8.4323135980965304e+01  2.4085972798606318e+02 4.6350446735951707e+01 3.5510877941311236e+01  2.2524431075340846e+02 7.2650900552021142e+01 9.1651125118319086e+01  2.6557543332858762e+02 8.1468851056987276e+01 1.1120651550344949e+02  2.0177928556895685e+02 1.0969697225821847e+02 1.6379765741911550e+02  2.0473204011016549e+02 7.9327218399061906e+01 1.0632902388464703e+02  2.0558794907552900e+02 7.2159685159325250e+01 9.2377160087376026e+01  2.0459374544503331e+02 4.6837005887922018e+01 3.4017920840242610e+01  1.8425603412584519e+02 4.7650725464315222e+01 6.5263921201619581e+01  1.8692411042663866e+02 3.3585389393089599e+01 2.5486601086691483e+01  1.6575689070757551e+02 2.3623253264334153e+01 2.0049728135181514e+01  1.7397165373799950e+02 3.2302076202670037e+01 3.9495233972490368e+01  1.9028081972477821e+02 4.6957026591452710e+01 4.2110065199005454e+01  1.7043797711336001e+02 3.6341261448227762e+01 5.2071215611992429e+01  1.5823340658905516e+02 2.3084848835484248e+01 1.4768647548177459e+01  1.7770729670956842e+02 3.1209695778679396e+01 2.4652937586473008e+01  1.9330308125038434e+02 3.3618850164214969e+01 3.8074439766841238e+01  2.1126215620030808e+02 4.1382414964324354e+01 5.9250267234007332e+01  2.1262143895348754e+02 7.0165383851337978e+01 7.5457784312783517e+01  2.0124395925494005e+02 4.0360436055204673e+01 2.0068809495074962e+01  1.5552571940840863e+02 6.3117580158390155e+01 1.7425402587228902e+01  1.9500503108415714e+02 6.7654287631687552e+01 6.4017827136189879e+01  1.7760259101222994e+02 4.9203095493650082e+01 2.2451762975578301e+01  1.7749362999411267e+02 7.4666484114916386e+01 5.6381171352966291e+01  1.5588744237238504e+02 -4.1483979248879510e-01 4.2443442035083327e+00  1.3352833017043602e+02 2.6266082500722959e+01 1.1092679397661339e+01  1.5338588652322724e+02 2.2338388037252745e+01 1.4903481363766165e+00  1.3318548339511455e+02 1.6658817162032040e+01 -5.0714456523662310e+00  1.2442141996884064e+02 2.1696587311318229e+01 2.0753392435536475e+00  1.1282278472598507e+02 2.4240209376039306e+00 4.7205440852114599e+01  1.5194514803332413e+02 2.2558511189521610e+01 3.8089191458892387e+01  1.2923755547821861e+02 3.0045429300758041e+01 -3.4198658513522475e+00  1.5207844861877422e+02 2.9795791086109965e+01 8.6127527216624511e+00  1.3480143535275619e+02 1.2700158428482781e+02 5.1780013785589233e+01  1.1719524452386133e+02 7.5631510452390174e+01 3.1385163270166689e+01  1.2784206982275128e+02 6.3778637236176365e+01 3.7166913097195703e+01  1.3140357893771514e+02 8.2329089412591969e+01 4.9139973137123171e+01  1.4952175601815918e+02 6.8816900740590199e+01 4.8788601748847078e+01  1.3298156571392312e+02 6.1424474084914877e+01 3.5232031951277293e+01  1.3802305567645467e+02 6.5974243803082260e+01 5.4572164692955212e+01  1.1740589289634582e+02 5.5852262122940502e+01 5.7169470198791167e+01  1.2421398032781453e+02 5.7539786834296308e+01 3.7591866839266508e+01  1.2090956313443404e+02 5.2580709314551399e+01 2.3626774217299495e+01  1.7842350107858090e+02 6.3448634330475556e+01 1.3432197705378175e+02  1.7080062697210681e+02 6.3228804934096701e+01 6.0384582666797762e+01  1.7886785574362128e+02 5.6509555322989875e+01 8.6870084144122188e+01  1.8180443785551410e+02 6.1682302886566418e+01 8.5639937196722684e+01  1.3957600877718494e+02 6.2873382239102909e+01 1.2401216215348150e+02  1.4069973370736002e+02 6.4484238710329706e+01 7.0525353595336426e+01  1.7909237554884197e+02 5.9798799965899235e+01 6.2754844337300042e+01  2.4100344853119327e+02 4.2607495151424850e+01 1.0058390031827258e+02  2.4969898137624523e+02 3.2639563675876509e+01 4.5649609490584332e+01  2.7195818678930448e+02 7.9210044910063957e+01 1.9547542889059710e+02  1.3874192073714360e+02 7.2517672519281277e+01 1.1448051257153544e+02  1.6871781195740093e+02 6.3800687181460056e+01 1.3192601049717155e+02  1.8544419655184768e+02 7.7145537714497507e+01 1.3353832525226994e+02  1.0854879109361528e+02 6.6752751846431408e+01 2.0245644251084576e+02  5.0936915657823711e+01 6.8720359188809098e+01 1.9128176542205341e+02  2.4306581764637980e+02 1.0031819288854207e+02 2.4721229784257801e+02  1.9104244730929142e+02 6.2447900385158064e+01 2.2209637342786573e+02  8.1178069980128527e+01 5.9098716632898963e+01 1.1705740511975411e+02  1.7802157182035569e+02 6.8311993668561172e+01 9.2287186191406050e+01  2.6758043943578792e+02 6.5718555839755254e+01 1.1423369973456376e+02  2.3594382492945425e+02 4.6040112901671883e+01 5.8618484368701054e+01  2.1299501247000521e+02 7.4072963490034070e+01 1.0369153617262154e+02  2.0009649234692631e+02 6.0503829862930338e+01 8.3749973910723142e+01  1.8586670911593708e+02 6.1580424936068020e+01 6.6654291555017210e+01  1.9800300277476933e+02 6.9224261838036952e+01 9.1120420691394528e+01  9.3909100729031749e+01 6.1696944212152211e+01 7.5425393305167944e+01  1.3332594261289228e+02 7.5655067310329656e+01 9.6815847980892670e+01  1.1281308737361923e+02 6.2065869155381769e+01 6.6328099657097908e+01  8.8992468280720587e+01 6.8581564817105402e+01 9.6202127863599799e+01  9.8272788200300397e+01 5.8523885197884852e+01 8.7112752947405099e+01  1.4544073246691957e+02 6.1989010996194168e+01 8.1500046152468016e+01  1.4413186504455655e+02 7.8151632604054939e+01 6.6238690788673011e+01  1.3677280702227046e+02 7.0052790759978564e+01 5.6756281577081225e+01  1.4302193113544615e+02 8.8227056037725546e+01 6.3909286610074084e+01  1.4607747022041838e+02 7.4000628890598165e+01 5.1038338459606777e+01  4.1821064713775968e+01 3.5491169653231694e+01 6.5856068810029802e+00  7.7892244603617115e+01 4.8482470271354750e+01 4.7333914859407152e+01  8.3892806236304764e+01 4.5965574426751346e+01 3.5657830146092394e+01  8.7278869895274127e+01 4.5838053125851239e+01 8.6887678967059223e-01  3.3342532681937364e+01 5.5299974774381766e+01 7.0788648867600372e+00  2.0595855838936863e+01 3.5355290040694534e+01 2.2991615523639290e+01  1.1237899847369879e+02 4.8355235842291428e+01 2.9576717520337770e+01  8.0628720229744971e+01 4.7571870525103137e+01 -4.4776488089735960e+00  1.2761348962895126e+02 2.3015478049021507e+01 7.5626993943061764e+00  1.4964076385095902e+02 4.9086281861917001e+01 1.1868979359113601e+02  1.1305111712160222e+02 3.7620073690143776e+01 1.4999932346524619e+02  1.8682017924514525e+02 5.1423376870113792e+01 2.0854259162303785e+02  1.6114054705444607e+02 5.3377739081329992e+01 9.7284371468746969e+01  1.5795497228291006e+02 5.0693329878535202e+01 7.4070589452890701e+01  1.6725199929242694e+02 4.9536491674622262e+01 6.8669839105566382e+01  3.0715539926103105e+02 6.6774590321196754e+01 1.2164342333263245e+02  2.0515715735091933e+02 6.9873148699011182e+01 7.3148367354985155e+01  2.2512539340424658e+02 6.6665173756259662e+01 8.1547430576529891e+01  2.1722482726251027e+02 4.1892880869783156e+01 3.2230416827536914e+01  2.6168335089111849e+02 4.4763279898485159e+01 6.9763195333673352e+01  1.8835867344505670e+02 6.2028459235902027e+01 3.2802996604862962e+01  2.2709590495664509e+02 5.9120171587051253e+01 5.3681391447569958e+01  1.1494146843984686e+02 1.7888321372378954e+01 1.2439148986208245e+01  1.1884183086296727e+02 3.8774031357528017e+01 1.8443731963921948e+01  1.1788840036584402e+02 3.1159620047027150e+01 -7.0180105461881503e-01  1.0065336133047624e+02 -3.1725726106575056e+01 1.5135073501970091e+01  1.0319853936903114e+02 3.7312390908664227e+01 2.6156664599036503e+00  1.1146197211194854e+02 4.5633094563142052e+01 8.6708273305696224e+00  1.1156769183376316e+02 2.0538843006728285e+01 1.6949789683883119e+00  8.0273160851033765e+01 1.5889259218047437e+01 1.7829093788678567e+00  2.0501716420152701e+02 -1.8462434219104276e-01 -4.2658809993901565e+00  1.8429094834593215e+02 8.2907836233736063e+00 -1.3421501302251833e+01  1.7043745883948060e+02 8.2046296856762417e+00 -5.2978123868527121e+00  2.0676559080731232e+02 7.3748053081830385e+00 -4.9402836784595170e+00  1.9076402268387713e+02 -1.7074935501839550e-01 -6.6140054354514008e+00  1.8968043453207932e+02 1.7440015417766183e+01 2.9574411595261965e+00  1.8281130892173695e+02 1.7993202629094302e+01 1.6478686337902162e+00  1.5964561598156041e+02 -7.8262864237384522e-01 -2.0033035103352521e+01  2.0251264649539098e+02 1.1265513753274121e+01 -5.6053332482827285e+00  4.3073927719518480e+01 8.6617702766328208e+01 9.1925922331389316e+00  5.5872439007867285e+01 1.0740352445596109e+02 3.0089541910966140e+01  7.4689312054120592e+01 9.7541439630776850e+01 -1.4700478590358859e+00  8.5467212734771909e+00 1.1798151158087623e+02 8.4352679384108509e+00  1.4708890141397264e+01 1.2147828283886723e+02 6.6415224195826667e+01  6.1023980754388539e+01 9.6870410138024141e+01 1.2729809209603413e+00  6.9789902791387391e+01 8.8440512861237224e+01 1.0035267681118838e+00  1.1507146378274244e+02 1.0163472377070656e+02 5.4440968435512902e+00  1.3182229661665642e+02 1.3891070271471312e+02 3.6443458953089845e+01  2.0394975900786682e+02 1.9692941541238664e+01 -5.1230832662271446e+01  1.8522217132831025e+02 1.9401685949922985e+01 1.3454735779409794e+00  1.9539138300316969e+02 2.7088840863315014e+01 2.1265544375729055e+00  2.1638623143009374e+02 2.4040306882044380e+01 -6.5097176390376488e+00  2.0125152957307438e+02 1.6979231908234581e+01 -3.5213592397123335e+01  1.8300008033795041e+02 9.2242709967923204e+00 -2.9334799705146843e+01  1.9534656051659323e+02 1.3401305201510080e+01 -1.4703838048429645e+01  1.9427087391197335e+02 2.2234854630251917e+01 1.0795432489030745e+01  1.6156774936995245e+02 6.8400257766665518e+01 6.9363753237621395e+01  1.5778201095333077e+02 5.4537469975847863e+01 5.7566070593144573e+01  1.3980397098215636e+02 5.2792795058946254e+01 6.6243575285799125e+01  1.6936406125321821e+02 5.7373328075887059e+01 7.9542576546882330e+01  1.8309996973886541e+02 4.7954246699005360e+01 5.1304948700506998e+01  1.8646981653180555e+02 3.7976800890033999e+01 2.5332927906434190e+01  2.2214545662411120e+02 3.0490402264572506e+01 3.5894961903790445e+01  2.0513446036713708e+02 4.9661127357768585e+01 7.1658456988771817e+01  1.7488098410478460e+02 3.9850804340069168e+01 4.7642899417666136e+01  3.3902122440021964e+02 -1.2909514228694476e+01 2.1422503266765570e+01  3.7994521920242818e+02 6.2672009688471675e+01 1.6721377620877013e+02  2.6354721127062493e+02 -2.9619146892515296e+01 -5.8370897843246325e+01  1.6267929783442509e+02 4.5901605590727542e+01 3.8557249857698835e+01  1.5974250153521982e+02 3.9420064645035907e+01 8.5405183566915124e+00  1.3919878330292616e+02 4.8356461789808257e+01 1.9040896681422343e+01  1.7113795235026114e+02 5.7860949842759481e+01 4.5198466604541551e+01  1.9559017753350020e+02 3.2488871261191726e+01 3.4502287835098966e+00  1.7139840552338211e+02 4.5851691413507005e+01 5.7752090661565518e+01  1.8900799600623247e+02 4.6457384761386656e+01 6.6254654979967270e+01  2.1414499778121808e+02 1.4817147413035872e+01 -4.6928984829169913e+00  2.0756913382025724e+02 2.8525894237318759e+01 2.6525229501111365e+01  2.1118844724163347e+02 1.2885363313504262e+01 4.7008830788077143e+00  2.2503056484118389e+02 8.6349826727183725e+00 3.2651744322966745e+00  2.0333123066528657e+02 7.5300037809483797e+01 8.8214420411771044e+01  6.0627826487364615e+01 1.3293469925450381e+02 -2.5475656333673014e+00  6.6455267180617000e+01 1.1938075665897287e+02 1.5996520555458135e+01  6.9050831686761470e+01 1.5139738346171305e+02 8.8717179003861304e+00  6.3569537569856585e+01 1.4687339880937856e+02 2.3695593346171862e+01  8.6182032554619624e+01 1.0283166558756538e+02 1.7709257791808479e+01  1.1976044668498403e+02 7.4245954238129755e+01 3.4885050869987495e+01  1.0699468058313806e+02 1.1991674495859792e+02 6.5030566970695389e+01  1.3543306762945718e+02 8.3026541432175165e+01 5.0966131758763439e+01  1.6074793441484681e+02 8.4212335378134625e+01 8.1160490556121459e+01  1.5881614315287788e+02 8.1066118344533876e+01 8.4359467317161261e+01  1.6400834971400795e+02 1.0153493856172301e+02 8.7587940303220819e+01  1.8227040184540974e+02 9.7693187355171645e+01 1.2695441057642569e+02  1.7329645099952063e+02 8.0857991014806771e+01 1.0488848707529978e+02  1.5110406074416142e+02 1.6186677370222267e+01 6.3403179113050683e+01  1.5247393433847756e+02 4.0713147474442522e+01 5.8332063496489596e+01  1.2607841862849418e+02 4.5149709215461208e+01 4.8615343268333625e+01  1.7696881571871390e+02 4.7414439420213313e+01 5.1789933561378483e+01  1.2545095444593943e+02 6.1224192671857139e+01 3.4663929278266146e+01  1.4331377775198357e+02 4.5105715477674764e+01 6.4951043107468493e+01  1.1807306746178109e+02 4.4758580796919254e+01 5.5276540651778170e+01  1.0672845369850873e+02 5.0908815989601685e+01 1.1477371569987763e+02  1.5779277861603994e+01 1.4218152034075652e+01 1.1587177248651633e+02  7.6851582390527909e+01 2.9030816264669944e+01 1.1583533450913838e+02  3.3216230640570700e+01 5.2285235678151079e+00 1.1007292912538711e+02  1.4956856485706865e+01 2.4076736319155700e+01 2.1847196114837541e+01  5.9427494977461912e+01 5.2172261323926939e+01 2.9308314890306175e+01  1.0360415803311865e+02 5.2415531582239510e+01 9.6157126176454270e+01  1.2806799891905501e+02 3.3553622910749894e+01 3.2968915799902362e+01  1.4676069976952226e+02 2.5525969777270201e+00 5.1763818500515015e+01  5.2050462041672183e+01 6.5081543493161035e+01 4.7013717099937338e+01  1.3033652300080371e+02 6.4591109087356372e+01 4.8517224357000650e+01  8.3163803714616140e+00 4.5520015578914318e+01 1.2875893571289586e+02  4.8340660043585544e+01 5.0140621460356080e+01 7.9097218766905002e+01  3.8785925432679178e+01 3.3372049220244016e+01 1.1396123821420598e+02  7.0074624827019647e+01 4.3208734709080417e+01 3.7997431529924881e+01  1.3106138198203727e+01 2.6512923460735664e+01 1.3104042220905594e+01  1.4566705183120348e+02 6.2512987596573566e+01 1.9094033743497757e+01  6.9595718334528527e+01 6.5336100572385263e+01 -2.8094145247737075e+00  1.4376424125908574e+02 1.3217860860986312e+02 1.1474417011132174e+02  1.0973295342484627e+02 1.4187188923285385e+02 9.6007905948850976e+01  1.1182142805479478e+02 1.1832204908989476e+02 7.5088944628092179e+01  1.1379279956326762e+02 1.3004529673275403e+02 1.1045298202310360e+02  1.1068989899855404e+02 9.5995367211843060e+01 1.4441392858504992e+02  1.2672404693847922e+02 7.1374483120590924e+01 9.8155227845430929e+01  1.8877020938878215e+02 1.0854642344512652e+02 1.8551087593490851e+02  1.7696690928675102e+02 2.8241895776407478e+01 -1.0505692890045927e+01  2.7731320884532300e+02 -1.9084752227405364e+01 -7.3824927898532744e+00  2.3723723346544423e+02 -2.1411357369790881e+01 -5.0308557396282396e+01  2.2383402346633335e+02 -2.9065817264179181e+01 -7.5589358440864530e+01  1.7936916794323801e+02 -1.4081375984500093e+01 -7.4089999825418289e+01  2.5679363222861747e+02 3.1611493791160644e+01 6.1199763204328882e+01  2.8835881000995778e+02 -1.4651507656117865e+01 -1.7126537835853264e+00  2.3311750742982267e+02 2.2182605374235521e+01 3.0771533760630685e+01  2.4717259315543501e+01 3.3732631874658765e+01 -1.7093037420070466e+01  6.3524985779752818e+01 -1.3841075640155406e+01 -5.8307147606219772e+01  9.0592305114026843e+01 3.4390370290470791e+01 -7.4470176180901593e+00  3.7571205271261022e+01 -9.8888732950929228e+00 -1.4715301310809885e+01  3.5205990467570395e+01 3.3886453342126238e+01 -5.5102641270840941e+01  8.4709622760300007e+01 4.4351954550869131e+01 -7.3344235247910547e+01  1.0387139196854189e+02 3.8595651977507181e+01 -2.2929006692632068e+01  7.7308999879667411e+01 -1.8350779385543593e+01 -1.7029832261683598e+01  9.9933581899566633e+01 1.9581206212346554e+01 -9.9603035376362694e+00  5.8633885308874298e+01 1.2965987132062151e+02 -8.2076057024908966e-01  3.9371575946007617e+01 1.5536787284868652e+02 -4.5766819147117950e+00  4.9833099383509882e+01 1.2036812141920048e+02 -2.6230489878720764e+00  1.9546077103584190e+02 2.4092791510902948e+01 1.2674287638647327e+01  2.1355208440000635e+02 1.9412319819066347e+01 1.4494893093437742e+01  9.2667720907407144e+01 7.1708338654089872e+01 1.0616385145219621e+01  1.1172490966674769e+02 6.8225421521067105e+01 1.6456094796118816e+01  1.0154925339621175e+02 7.5265083071660385e+01 1.8948510031963394e+01  1.1819539200584012e+02 8.2177476008167616e+01 3.2550523477943109e+01  1.0160017432487648e+02 9.8725629249563497e+01 3.5978390133875727e+01  1.0980359246904442e+02 5.7747152720663365e+01 4.2434475175605533e+00  1.2078530766362769e+02 8.2922560886744634e+01 2.0903098950714249e+01  1.5305190436699405e+02 6.5915779266951830e+01 3.3083365101999398e+01  1.3951324172699307e+02 4.6168608539912725e+01 2.8122205161924346e-02  1.7017193827511480e+02 7.8653759538736452e+01 6.9128831798212616e+01  1.8939638512203527e+02 9.4154352100589833e+01 1.0013576065207744e+02  2.5474184900383716e+02 2.5811153779001490e+01 -1.7858276459490082e+01  2.0425352831786265e+02 3.0826209199639560e+01 1.3280650649677417e+01  1.6514488626904719e+02 2.9188998094809492e+01 -2.7016863343870079e+00  2.3502016019710385e+02 2.6669569260645616e+01 -4.9221198372274650e+01  1.5910727752016317e+02 2.4268194701264100e+01 -1.0052220167947301e+01  1.7160870185669103e+02 1.3340704240155955e+02 5.3731353700841026e+01  1.1358351435820725e+02 1.2037794622858256e+01 -2.0365903416629418e+00  1.2363482191453213e+02 1.7246299207004398e+01 -5.5515035738790326e+00  5.0437338386181992e+01 4.0813257030196155e+01 4.5318189012847789e+01  1.3549564507498053e+02 4.1364527149148230e+01 2.1300805620984566e+01  1.2712473160465353e+02 7.7888407756374844e+00 4.0768590818557456e+01  1.5599089682675452e+02 1.6983335277585955e+01 -7.6146366825295440e+00  5.2441740185280800e+01 4.8968673196816837e+01 6.5911752459212494e+01  1.4031172342126678e+02 4.6306053382829852e+01 4.3279115629850352e+01  8.4223379910802095e+01 9.6873840310104200e+01 2.7734339797857263e+01  6.9470788073487611e+01 9.1430949513853093e+01 7.8861017365379240e+00  1.0511845739872663e+02 2.5469000602306412e+01 -2.5274131269522815e+01  3.3023851403950732e+02 3.4761719683389764e+01 6.5549092405277463e+01  1.3711872708381117e+02 7.3017027958378322e-01 7.8126196375574793e+01  1.7352397575609865e+02 1.3718194516326824e+01 -5.4884898879769164e+00  1.5682434475076644e+02 1.0158521588599811e+01 -1.0600193644674563e+01  1.2119236311074692e+02 2.8890600687588762e+01 1.8887453998391963e+00  8.8061995848550623e+01 -1.2148819071904049e+00 2.9166070421667019e+01  1.2680657586367883e+02 2.2747611543187027e+01 2.7686059179314260e+01  1.2706713964388605e+02 3.9795307831103706e+01 1.2722326301151035e+01  1.1493671308624680e+02 1.8244108300224781e+01 -5.4528488948326626e+00  1.1321783588346653e+02 3.2503017213367563e+01 5.1836633552458498e+00  1.0974522543510207e+02 2.3491618509038322e+01 2.4860920133905866e+00  9.0704795750091662e+01 2.0192346898849554e+01 1.1271613061053700e+00  1.0081982300015657e+02 3.6878263249414749e+00 7.5322351088620598e-01  1.2160696605961888e+02 -3.1850364860522111e+00 -1.0014551512171614e+00  8.1369825824571976e+01 4.0811390343243382e+01 1.8449372124106134e-01  1.6893066430541052e+02 5.7551608347216316e+01 5.8464852236195902e+01  1.8532899420217669e+02 2.2841496329389503e+01 7.9035715826775032e+01  1.7860478640034086e+02 7.6453998848153532e+01 5.3507606813511245e+01  1.5700297301336172e+