<?xml version="1.0"?>
<VTKFile type="UnstructuredGrid"  version="0.1"  >
<UnstructuredGrid>
<Piece  NumberOfPoints="6867" NumberOfCells="30626">
<Points>
<DataArray  type="Float64"  NumberOfComponents="3"  format="ascii">17.565653 15.741632 30.41201  18.27740571688882 15.72356718652476 29.66729980295481  18.23325528552726 16.20368143766724 30.2160691782019  17.80595671688882 15.94389118652476 29.69702380295481  18.037102 15.521308 30.382286  18.508551 15.300984 30.352562  18.70470428552726 15.98335743766724 30.1863451782019  18.04626043377765 16.14615037304952 28.98203760590962  18.47355900241609 16.40594062419201 29.50108298115671  18.90085757105453 16.66573087533449 30.02012835640379  17.991413 18.223293 29.748327  17.9101515 17.542426 30.346983  18.44613528552726 17.44451193766724 29.8842276782019  18.1919595 17.9360685 30.1467655  17.709605 17.8296505 29.9485445  17.427797 17.436008 30.148762  18.16432728552726 17.05086943766725 30.0844451782019  18.392506 17.648844 30.545204  18.64668178552726 17.15728743766724 30.28266617820189  19.267576 16.69112 27.360313  18.64347772233638 17.54533822857898 28.31513329047378  18.48002090603984 17.15093217919348 27.68357401405874  18.65691821688882 16.41863518652476 28.17117530295481  17.86936312292867 16.87844736571824 28.49443631701355  18.82037503318536 16.81304123591026 28.80273457936985  19.59448963259307 17.479932098771 28.62343155283008  17.69246581207969 17.61074435838695 28.00683502811749  18.1296805 15.9143665 30.6345835  18.693708 16.087101 30.857157  18.79728278552727 16.37641593766725 30.43864267820189  18.6011295 15.6940425 30.6048595  17.94363121688883 16.48431968652476 29.85913630295481  17.73702871688882 16.79107918652476 29.56539980295481  17.6343995 17.1292485 30.4424985  17.841002 16.822489 30.736235  18.37092978552726 16.74410993766725 30.3781816782019  18.92352395630375 16.1181507583158 29.06823405028952  18.79295131629654 17.8516125493855 29.18587927641504  18.01883671688882 17.18472168652476 29.36518230295481  19.2476736018238 17.07283148705275 29.32177995461694  19.18498978552726 17.58810693766724 30.0985411782019  18.7302675 18.366888 29.9626405  18.930814 18.0796635 30.361079  19.469122 18.510483 30.176954  19.09014978552726 15.86542443766724 29.7254161782019  18.9514325 15.4263005 30.3548735  18.8939965 15.183051 29.891633  19.394314 15.551617 30.357185  19.14758578552726 16.10867393766724 30.18865667820189  19.336878 15.3083675 29.8939445  19.279442 15.065118 29.430704  19.70271771442361 16.88296276445523 29.91636391492647  19.395203 17.240833 30.896225  19.14803028552726 16.95328193766724 30.45817667820189  19.56535528552726 16.40641943766725 30.3305796782019  19.044011 15.819359 30.607171  19.4617805 16.1171045 30.749094  19.4321625 17.875658 30.5365895  18.8938545 17.4448385 30.7207145  18.66285121688882 15.60563418652476 29.20637080295481  19.0444555 16.663967 30.876691  18.6181025 17.031661 30.81623  18.116754 17.2356665 30.6407195  17.7033275 16.2820605 30.5741225  18.267355 16.454795 30.796696  17.84193940603985 17.91701867919348 28.87758101405874  19.59755073941493 15.82088407179104 29.75580774733471  19.756893 15.2283385 29.6639005  19.10181689424896 17.66384794478147 27.73556497228953  18.3142618002888 18.12366012397495 28.05882598634827  18.93605778849791 18.63657588956295 28.11081694457906  19.20258989424896 18.57352944478147 29.14388547228953  18.46373539424896 18.42993444478147 28.92957197228953  18.645037 19.476833 29.115007  18.79054739424895 19.05670444478147 28.61291197228953  18.318225 18.850063 29.431667  19.0570795 18.993658 29.6459805  11.047062 23.411825 27.50049  10.68155166761969 22.81263735516849 26.68527317659668  10.70982555432618 22.73276469855911 27.38469503495342  10.48092366761969 23.2777263551685 26.97611217659668  11.24769 22.946736 27.209651  11.448318 22.481647 26.918812  10.91045355432618 22.26767569855911 27.09385603495343  9.914785335239383 23.14362771033699 26.45173435319337  10.14368722194587 22.59866605372761 26.86031721155011  10.37258910865235 22.05370439711822 27.26890006990685  8.39306284832905 18.55220505850474 27.96713152068408  9.131277410759012 18.36748628615564 26.9991291502816  9.063000614722135 19.16401880579074 27.14811281742635  8.407775868387844 18.59142824730289 27.24202211735949  9.116564390700217 18.32826309735749 27.72423855360618  9.048287594663343 19.12479561699259 27.87322222075094  9.703512340997634 19.69738617548044 27.7793129208178  9.77178913703451 18.90085365584534 27.63032925367305  9.840065933071385 18.10432113621024 27.48134558652829  8.422488888446638 18.63065143610105 26.5169127140349  12.372149 26.424828 28.523603  11.50636099742826 26.18566531082258 27.90398932787632  12.05943991992524 26.69997186867873 27.49819578905737  12.327632 26.1939975 28.094527  12.283115 25.963167 27.665451  11.1936519173535 26.46080917950131 26.87858211693369  11.46184399742826 25.95483481082258 27.47491332787632  12.01492291992524 26.46914136867873 27.06911978905737  11.74673083985049 26.97511573735746 26.47278857811474  10.64057299485652 25.94650262164516 27.28437565575263  8.121670999999999 12.988977 27.21302  8.447175269068076 11.90380438745853 27.59344709050862  8.491668269068075 12.41083638745853 27.88128959050862  7.7094615 12.3440885 27.4278515  8.077178 12.481945 26.9251775  7.297252 11.6992 27.642683  8.079458769068076 11.76594788745853 28.09612109050862  7.664968500000001 11.8370565 27.140009  8.032685000000001 11.974913 26.637335  8.861665538136151 11.83269577491706 28.54955918101723  16.723715 17.827473 29.293522  17.56013140603984 17.52337617919348 29.07779851405874  17.20809040603984 17.71910867919348 28.65017851405874  17.357564 18.025383 29.5209245  17.075756 17.6317405 29.721142  12.370244 22.93928 25.748463  11.6205905459969 23.24817378154346 24.83818919007522  10.95428613664642 23.18590527228016 25.34486776910654  11.80892727831213 23.54150751105093 25.45253770183074  11.51560285833428 22.58367776122923 25.64079306727579  12.18190726768476 22.64594627049253 25.13411448824447  10.66096171666856 22.22807552245846 25.53312313455158  11.32726612601905 22.29034403172176 25.02644455552026  11.24761055662427 24.14373502210186 25.15661240366149  11.99357053536953 22.35261254098506 24.51976597648895  16.447969 20.073736 27.518938  17.12809040215355 19.64718952577856 26.45768134750849  17.26820798814714 20.3634792310693 27.13980354624298  16.6495441132595 20.15111891246595 26.72517208815836  16.92651528889405 19.56980661331261 27.25144725935012  17.4050615777881 19.06587722662521 26.98395651870025  17.74675427704119 19.8595498443819 26.8723128055931  16.851119226519 20.2285018249319 25.93140617631673  17.46978310140664 20.44086214353525 26.34603763440134  18.08844697629429 20.65322246213859 26.76066909248595  6.428513 22.336426 26.746407  7.177488517239055 21.5129954570217 26.30587944742276  7.17102348632914 22.02304846034557 26.39877826043413  6.838730017239055 21.7598704570217 26.88944744742276  6.7672715 22.089551 26.162839  7.10603 21.842676 25.579271  7.50978198632914 21.77617346034557 25.81521026043412  7.248947034478111 21.18331491404339 27.03248789484552  7.581240503568196 21.44649291736727 26.54181870785688  7.91353397265828 21.70967092069114 26.05114952086825  12.818912 20.728109 25.077728  12.9561875 21.2232865 24.0210515  13.123015273975 20.48036618433594 24.62689769463562  13.2636525 21.0306985 24.805234  12.511447 20.920697 24.2935455  12.203982 21.113285 23.509363  12.815550273975 20.67295418433594 23.84271519463562  13.708393 21.333288 24.53274  13.567755773975 20.78295568433595 24.35440369463562  13.42711854795 20.23262336867189 24.17606738927125  15.277133 19.235134 27.195723  15.86223203713605 18.69911790626495 27.1778706698223  15.60998303713605 19.02243990626495 26.6455746698223  15.84910076421096 18.35975349932257 27.03060909380623  15.529382 18.911812 27.728019  15.781631 18.58849 28.260315  16.10134976421097 18.03643149932257 27.56290509380623  16.42106852842193 17.48437299864515 26.86549518761245  16.18195080134701 18.14705940558752 26.48046076362852  15.9428330742721 18.8097458125299 26.0954263396446  13.084145 16.740307 28.076242  13.04059784774708 15.9891385164336 27.20721506497491  12.39429084774708 16.3417210164336 27.16718956497491  13.06034134774707 16.76926201643359 27.32019306497491  12.4180945 16.312766 27.9232385  13.0644015 15.9601835 27.963264  11.752044 15.885225 27.770235  12.398351 15.5326425 27.8102605  13.044658 15.18006 27.850286  13.03653769549415 16.79821703286719 26.56414412994982  13.102865 11.640915 22.884512  14.6628100880428 11.7766612583652 22.93959927657413  13.77714624126667 12.35588171106241 23.38679068406065  13.97408562959841 11.30348084323658 23.24430829954165  13.79158945844439 12.11409541512862 22.57980297703248  14.48031391688877 12.58727583025725 22.27509395406495  14.64836687086508 12.01844755429899 23.7465869836023  14.46587069971105 12.82906212619104 23.08208166109313  14.84530625919682 10.96604668647316 23.60410459908331  14.45142748253333 13.07084842212483 23.8890693681213  18.643187 14.283376 28.326319  18.01936017950826 14.27709436619688 27.27278933601954  17.76689817950826 13.73813036619688 27.65965283601954  18.03236867950827 14.43437636619689 28.01098383601954  18.6301785 14.126094 27.5881245  18.3777165 13.58713 27.974988  18.112246 12.890884 27.623657  18.364708 13.429848 27.2367935  18.61717 13.968812 26.84993  17.42155035901653 14.58537673239377 27.69564867203908  13.4147945 20.66409 24.976634  13.859535 20.9666795 24.70414  14.010677 20.600071 24.87554  13.718897773975 20.41634718433594 24.52580369463562  10.21881756910896 23.26858116768846 27.69385648808985  9.390573138217922 23.12533733537693 27.8872229761797  9.881581123435138 22.58952086624757 27.57806152304327  9.652679236728652 23.13448252285696 27.16947866468653  8.595976016658739 21.09438240528439 24.90203551262706  9.260289284182841 21.41897062575008 24.41299632669006  8.877454885109188 21.93863739328964 24.90478401504574  9.628468866663653 21.6
[...]
<PointData  Vectors="u"> 
<DataArray  type="Float64"  Name="u"  NumberOfComponents="3" format="ascii">1.3822872494365330e+02 5.8480537837932857e+01 1.1065114191480177e+02  2.1491578916466091e+02 1.0015368491747637e+02 1.1743291256037095e+02  1.9875380578660892e+02 7.5193372417296132e+01 8.1768397576516520e+01  1.8644183034755403e+02 8.1645808720284251e+01 1.2802248612927374e+02  1.6459739168595337e+02 5.5637961506358636e+01 9.4978161901007738e+01  1.8354940543818614e+02 8.6632065261770592e+01 8.3432060344233747e+01  2.2153632956013379e+02 8.6085740902546505e+01 6.1362860734323668e+01  2.2752830191520425e+02 1.1391445826824032e+02 1.1838528160833495e+02  2.3237741363320265e+02 9.2146480251536545e+01 9.1804528853899114e+01  2.4039508171127372e+02 7.3738542744032159e+01 5.7180675530056092e+01  2.1342229546368458e+02 6.5395214911144961e+01 6.0098603267716697e+01  1.9250276990074445e+02 6.1407916384656424e+01 6.7343966373724115e+01  2.2112500775773708e+02 6.8628836966456220e+01 6.0660322201531791e+01  2.0422193086655622e+02 5.8695221201468399e+01 5.4561398509125176e+01  2.0266053938101047e+02 6.0470547115021823e+01 7.3409849780189091e+01  1.7427976960761100e+02 5.0911466790798237e+01 9.2650830520048970e+01  2.0256023038362301e+02 6.9193812203813124e+01 6.9645719790822312e+01  1.9537051887384732e+02 5.7147974298154999e+01 1.9907330667897543e+01  2.2191857828193926e+02 6.5140742553447112e+01 4.3357108126174630e+01  3.4842727370487091e+02 1.7212639958967333e+02 1.3510581132612754e+02  2.4615978437230203e+02 8.9095107222340943e+01 7.9452864395216579e+01  2.4905878904919763e+02 1.2859303757163667e+02 1.0469809675103265e+02  2.6226767161717436e+02 1.3816306879031328e+02 1.2814941454219201e+02  2.2102701891854230e+02 1.0597022724794269e+02 1.0214108837660055e+02  2.6187774605094097e+02 9.6890918618794188e+01 9.1128856194091725e+01  2.6414072537953052e+02 6.2551922708477043e+01 6.7199914428803723e+01  2.2522420249115800e+02 1.0415493872448174e+02 8.7779312865371438e+01  1.8100224390850730e+02 6.8418473644447090e+01 7.6646142478074580e+01  1.7905907644730550e+02 6.4818754706619430e+01 2.2962254074175831e+01  2.1948767182115898e+02 7.4582657579250593e+01 3.8189287233858494e+01  1.6917138750729569e+02 8.2792868240983623e+01 6.2604358582505334e+01  1.9607598094148148e+02 8.1019745089300201e+01 9.6816276468806350e+01  2.0235022657093796e+02 7.9580397807049735e+01 1.0295091226530096e+02  1.5604689372869234e+02 4.7168084753729026e+01 8.1965985400180656e+01  1.3826738253312308e+02 4.7493135168365576e+01 5.4423596911830508e+01  2.0333345450065232e+02 6.6105764460382517e+01 4.9454517496588196e+01  2.7468511368453130e+02 9.8783117381177775e+01 9.7848304036384263e+01  2.3616111844188771e+02 7.1317572272346283e+01 6.7985025420554052e+01  2.2081851864264246e+02 8.1319966295513112e+01 8.6915388456593192e+01  2.6075271921321155e+02 7.2652769672740007e+01 6.9747048891735972e+01  2.5715987591745892e+02 6.6001688322094722e+01 5.0062446210877098e+01  2.3543571876264534e+02 6.6689073068953576e+01 4.8567070120450673e+01  2.4738922481792915e+02 6.3454385990584683e+01 -1.7236602528929140e+01  2.6571516072060757e+02 7.0540236908093348e+01 8.3478863744120872e+01  2.7960257294733890e+02 9.2086751971370532e+01 7.3902549021348463e+01  2.3674307377446360e+02 9.6026868953687526e+01 3.4433648593125191e+01  2.6018748625728199e+02 1.1733847934130031e+02 9.3678856486200104e+01  2.8326369235638606e+02 8.0204014463835279e+01 1.9496221745517289e+01  2.5695338059411398e+02 7.9915310191620662e+01 3.9956291088817295e+01  3.3609118659070680e+02 7.9662195417245201e+01 4.9703374424907707e+01  3.8107452125137195e+02 1.5787449942110277e+02 1.2891542904442824e+02  2.7045715980009936e+02 6.3268121726300151e+01 5.4027724059629257e+01  2.9184528631075528e+02 1.0030634546531113e+02 3.8930159333904200e+01  2.5078822403438471e+02 7.4146328870833699e+01 2.9892496551708689e+01  2.7934641831355538e+02 7.3970318734169950e+01 1.9103576127595822e+01  2.3373054104183649e+02 9.1834971941332739e+01 1.9242075321474733e+01  2.6380715997050521e+02 7.2814322932455269e+01 -4.2715356355758196e+01  3.2011692889741158e+02 7.3583268018200201e+01 7.2854242782528573e+01  2.4748249205442812e+02 3.2618550069162879e+01 4.6116252574810424e-01  2.6015644452453546e+02 1.3482462317574416e+02 1.2906277945058423e+02  2.1778951252504987e+02 9.1925365630295389e+01 -8.7442389127367370e+00  2.1737708244365038e+02 6.2594930131707684e+01 2.0145608867148631e+01  1.7793232001361690e+02 6.5307156598295521e+01 2.9296544295917485e+01  1.4084809362417354e+02 7.2131595289500993e+01 8.9356959436761400e+01  1.7141897004029863e+02 4.4614484006470924e+01 4.0048800954816443e+01  2.2212044107685483e+02 8.1559537924767739e+01 7.8441231380746260e+01  3.0915800417673319e+02 6.4776741991715284e+01 4.7004788628009713e+01  3.5849066887319827e+02 5.3477651829374970e+01 4.1882901340173305e+01  2.6801611686882950e+02 8.8959974725926159e+01 7.0263783219814229e+01  2.3498821540234323e+02 9.3139217715422760e+01 7.4458988806004555e+01  2.3153502520603001e+02 7.2052298231276382e+01 6.1779308018805985e+01  2.3287686911813276e+02 6.0503573671367889e+01 6.2619251078087679e+01  2.2725190590951115e+02 7.3492349150685342e+01 6.5189573155475287e+01  2.1029079053814996e+02 7.3354467051914867e+01 5.4964410747301500e+01  2.1973865205675301e+02 7.0305337884712443e+01 6.0809631383038287e+01  2.2051851286734561e+02 6.9945856933979357e+01 5.2085773096097448e+01  2.4194583490387078e+02 5.4654912840774713e+01 5.6476955609729913e+01  3.3324446561736458e+01 -1.1287771017818763e+01 -9.0397819094783898e+01  9.6576226704261174e+01 -7.3293014997359425e+00 -9.0596909518016503e+01  6.4890152883947636e+01 -7.8111194372098565e+00 -8.1109844376443576e+01  7.8322639624766197e+01 -2.8270596411073301e-01 -7.8037937656183146e+01  4.8593859732325967e+01 -2.0482804043760801e+01 -1.1145297357691726e+02  8.4019851914295785e+01 -7.8723053042115119e+00 -1.3864969419459391e+02  7.3554255131746288e+01 -1.2724616670503018e+01 -9.5864175690301593e+01  1.0103469983232641e+02 1.3801542578734843e+01 -5.6443529407488001e+01  9.8002794226668954e+01 -1.1454278863979130e+00 -6.4961864272164703e+01  8.5542662173090690e+01 -1.3355241192348146e+01 -7.0825182617757989e+01  1.1050943053854020e+02 -7.7607327781229387e+01 -4.2919161109901907e+01  1.1410838428527815e+02 -7.5885911154731374e+01 -4.6786180241651898e+01  1.1678574080908201e+02 -7.1834592439788253e+01 -4.3990653845345584e+01  1.1400387816181470e+02 -7.9907810866695016e+01 -4.4620249880700698e+01  1.0645030345117029e+02 -7.3432189194437555e+01 -5.0504339604915174e+01  1.0992531462098744e+02 -6.9806643494910148e+01 -4.7500290821134868e+01  1.0373753264727826e+02 -6.3954099360673503e+01 -5.5517516619546505e+01  1.0902253902502819e+02 -7.2510004943567367e+01 -5.7728022564628439e+01  1.1710345895407487e+02 -7.1485354813334538e+01 -5.9443953219257814e+01  1.1199314285402892e+02 -8.5819682960849789e+01 -3.9675890341866946e+01  4.2337413417835696e+00 -6.4338660548453293e+00 -2.8144289280566735e+01  1.0584219634462727e+01 -1.4153634906996501e+01 -3.7276300915574971e+01  7.9278953353041750e+00 -2.0402332146337109e+01 -4.0838878556151165e+01  3.0097461118630489e+00 -7.9322105909631970e+00 -3.4915098914072743e+01  -5.3408014574362483e-01 -9.5591492244842176e+00 -4.5562323510051883e+01  2.0805631545536642e+01 -3.2907610248540870e+01 -5.1062858937219360e+01  1.1992452088829127e+01 -1.7210589063080409e+01 -4.9651098026858023e+01  6.3299338389056281e+00 -2.5809195753385328e+01 -5.1224575288510636e+01  1.5173782406907261e+01 -3.9085287745736075e+01 -4.6819225441846960e+01  2.2683349123643076e+01 -1.8609382990210413e+01 -4.6742438846843363e+01  -1.9893765074614258e+01 -3.9930989259801116e+01 1.2166574245828524e+01  -3.9176484918382759e-01 -3.3526521398498744e+01 3.2420505777533428e+01  1.2398545652292903e+00 -4.4323689817630296e+01 1.9166430272853681e+01  -2.3911815239977624e+01 -2.9103785024613060e+01 1.7412923700994888e+01  -2.7379278735655756e+01 -2.3853639008893488e+01 3.2441674803944494e+01  -2.1627439562608668e+01 -2.6376500354292460e+01 1.6839076489425082e+01  -2.3044243654424235e+00 -3.4477913134455072e+01 2.1421313205751634e+01  -2.4293653537537100e+01 -2.2466393309065005e+01 2.6446427318668025e+01  -3.4273021165567464e+01 -1.8514802978427245e+01 4.4901771864413071e+01  1.9908118503109648e+01 -4.7463659029579247e+01 2.1544024504228727e+01  2.2932156035259919e+02 6.6367037164338626e+01 9.0842889276503186e+01  2.1812676672572235e+02 7.9448266560369504e+01 8.7580740412318036e+01  2.2019293336228219e+02 8.5040649358252594e+01 8.5114794272236324e+01  2.1555238768641121e+02 6.5313302716523950e+01 7.8969186959359973e+01  1.8872145034306413e+02 5.2205667348037871e+01 1.1803174941956327e+02  2.2288284417055948e+02 -4.2316453233643072e+00 -1.9673084584699484e+02  2.3645438573322588e+02 -2.9095498371392314e+00 -1.1270122480216484e+02  1.7638170917970132e+02 -1.7324501911665169e-01 -8.5022070988689777e+01  2.0357204542662549e+02 -2.7025330525708203e+01 -1.4741100698738461e+02  1.7875770016399207e+02 -4.6928990983307965e+00 -1.2814048434419922e+02  2.5644947403928398e+02 -1.9798318058331388e-01 -1.4859576199364457e+02  1.6823392982710331e+02 -4.4482966544845910e+00 -6.3411453388054980e+01  2.1625717792455845e+02 -7.0800346427539251e-01 -8.5626404630583608e+01  1.6968774315116269e+02 -2.4074317168793797e+01 -1.1688487496221776e+02  2.7578782209438407e+02 1.0131216034412237e+01 -1.0160032809530910e+02  1.8819748759699499e+02 1.5411986170595117e+02 6.2132315959407848e+01  2.0470377516526744e+02 1.0929755050937047e+02 7.1402762547221045e+01  1.7784883471127091e+02 1.0881839556746428e+02 7.4154760020380991e+01  1.8404191010266229e+02 1.2712775129208275e+02 8.2849216748857756e+01  2.0458690025346908e+02 1.1751767255906951e+02 6.4767002994568017e+01  2.1380270043346195e+02 1.0926827422400163e+02 6.8184627037413748e+01  2.0026341180053677e+02 9.6562456982080008e+01 6.4924904901081035e+01  1.9735164521907495e+02 1.0991168510142843e+02 7.9265103071432975e+01  1.8923709874099214e+02 9.5104136569962449e+01 7.1364612510681852e+01  1.8170259103644747e+02 7.9759287515208314e+01 6.4793979950206420e+01  2.6924178057412917e+02 -2.6737882279138429e+01 -8.2331874687711263e+01  1.2928219593326190e+02 -7.5209225441978642e+00 -5.1596135222615764e+01  1.5378229504002641e+02 7.6683685256209273e+00 -6.3823977750633233e+01  1.9204481685587291e+02 -2.2314925577379405e+01 -6.4668548782994620e+01  1.3604400233772139e+02 1.2197629960821116e+01 -1.0995867793049321e+02  6.3197235370141797e+01 2.3180771992042889e+01 2.1102562157361515e+01  1.0558802110323693e+02 1.4145892280659394e+01 1.6262240418242492e+01  1.6327354804966606e+02 -4.1552036410131443e+01 -4.0406674689284173e+01  1.4631622822309274e+02 -2.0690006539851801e+01 -2.8584146802828588e+01  1.2972211802263951e+02 -3.9073380383907474e-01 2.3825098445599715e+00  2.8653949068935913e+02 -4.6545327777666131e+01 -1.4241025389427310e+02  3.0248738392398883e+02 2.3634344265711128e+01 -9.7743452472188636e+01  3.0248060028035286e+02 4.0939674744918939e+00 -7.2466206356690051e+01  3.3668418083918522e+02 -2.7149488799337909e+01 -1.5223002516447855e+02  2.8621685222840841e+02 -2.8090804056635377e-01 -9.0565771393263006e+01  3.4490627590602480e+02 1.4589335739259365e+01 -3.8472964933198199e+01  2.9338365470760783e+02 2.2166130828927365e+01 -8.6508509592258093e+01  3.8925840807607221e+02 4.5272398489872977e+01 -3.5058582005774817e+01  3.1702861984196443e+02 3.5574330835073816e+01 -6.7652458269056552e+01  2.7342268745375304e+02 4.3873218900413356e+01 -5.2478728817498784e+01  2.5407250763069393e+02 1.3182834471016437e+02 4.8431896322195556e+01  2.1989940460523715e+02 1.1035623192071004e+02 6.3660444161928808e+01  2.2323179282226522e+02 1.2053265727380939e+02 6.5570983205542618e+01  2.1599641277540474e+02 1.0032417355621239e+02 6.4955407028126317e+01  2.6482254928265263e+02 1.2845428382575111e+02 4.8185934400194867e+01  2.4755886323410832e+02 9.7850698229840290e+01 4.6644171610056951e+01  2.1691014737057532e+02 9.4972553344431589e+01 6.8086371858923258e+01  1.9723092782462282e+02 1.0744616604058905e+02 8.5889355669875499e+01  2.0531352014928146e+02 1.1005247747830553e+02 7.6335285382133250e+01  2.1338266851827296e+02 1.1907314816537166e+02 7.5806632308602559e+01  2.4740922843841071e+02 4.5848051186295375e+00 7.0099042440882243e+01  1.8869047167541916e+02 1.2807847324507630e+01 4.1085057215509671e+01  2.0639649944587427e+02 -8.7606526772015325e+00 1.6143321140267165e+01  2.1318371359356445e+02 9.4027690253645400e+00 3.8443138897212869e+01  2.3749249916043075e+02 -9.7986180963463223e+00 4.1129630746101270e+01  2.2801828852346404e+02 8.2761272013836589e+00 8.2851281682474649e+01  2.3086186171992281e+02 -3.0589276149877335e+01 -4.2337530370793466e+01  2.0541057913033066e+02 -2.5284807771291756e+01 4.2792979929087636e+01  1.7602562061467034e+02 1.2956078255799596e+01 6.7275780877732359e+01  1.9230144393287159e+02 1.0432579259814242e+01 2.3311543942990927e+01  1.7465208912881374e+02 -4.7848423345313611e+00 -7.6917175238958066e+01  6.3699485974506018e+01 -1.9313792348306674e+01 -1.3745148661249919e+01  1.1563964347249134e+02 -1.4705173123986206e+00 -2.6397303210018357e+01  1.0770598427500646e+02 -2.3447099832891382e+01 -3.0377177634648753e+01  8.0564588294332736e+01 -1.2490635354010124e+01 -5.9368211773186076e+01  4.9357009369061338e+01 -1.0425122772289191e+01 -3.1009532246504701e+01  8.8665273480304634e+01 -1.3141470144897603e+01 5.7758298272580899e-01  6.9408997772291599e+01 -1.9177488671018628e+00 -1.2532616666733466e+01  9.6124970786873234e+01 -4.3347758143009607e+01 -6.6296747871407371e+00  9.1392624644303268e+01 7.5446122642772000e+00 6.5076026321021692e+00  1.5100942315748438e+02 2.4713405664029833e+02 1.7417409128818690e+02  8.4063158308934050e+01 1.4569335668904696e+02 1.0527357716915164e+02  8.6063624581032656e+01 1.4496368653710954e+02 7.6235329743878282e+01  1.3124266838763825e+02 1.8878434443390762e+02 1.2523214146447877e+02  6.3306067999845816e+01 1.9182414270574293e+02 1.2224810576381068e+02  7.1151399323550933e+01 1.7685404926093383e+02 8.5566525487337174e+01  4.5166590040229536e+01 1.3974144129970313e+02 4.5137391199634479e+01  4.8064811149344003e+01 1.4235809909458717e+02 7.8155473699569967e+01  4.6653030595944720e+01 1.3688190385193846e+02 1.0546555054312340e+02  1.2961963116658652e+02 1.4318545025044278e+02 1.0250789810226257e+02  3.5253332761656333e+02 -5.6693087314887896e+00 -8.7752871468525427e+01  4.1910728008010375e+02 1.0560114370712292e+02 3.6279068416300412e+01  3.5759370692512698e+02 1.0384243061871159e+02 3.9040186545428746e+01  3.0354353119133583e+02 4.8077258500115960e+01 -3.9943563857688652e+01  6.0973153074913725e+01 6.5194022361706070e+00 -5.7814272135898307e+01  8.8538348906073509e+01 2.1917142015100136e+01 -4.1584885784165756e+01  8.5570844965573528e+01 1.8504345806722038e+00 -5.4313256051056626e+01  8.8395491334576718e+01 1.5837761162646872e+01 -5.3134311326495713e+01  1.8845817303579622e+02 -3.8650072934547936e+01 8.5489359046775292e+01  2.2132013765690354e+02 -2.1924898488104869e+01 6.5617192584235411e+01  1.8530691612311981e+02 3.3552295959834555e+00 6.3657174947662654e+01  1.7780669273461629e+02 -1.4166285623508660e+01 4.9978301237435119e+00  2.0921363332114416e+02 -4.2381532384973655e+00 -9.9437081279159862e+00  1.7301931344598469e+02 1.1021238310987206e+01 -1.1910454052425466e+01  1.7449711810926129e+02 3.6946985751578936e+01 4.7056372826522669e+01  2.1770952006254950e+02 1.0796774927827286e+01 4.5311516568483675e+01  2.4815452740035644e+02 -6.1667612561216556e+00 4.6801836610638112e+01  2.4746161000884794e+02 2.4547656797962254e+01 3.0273401534582388e+02  2.4013989315552118e+02 2.2513278184702155e+00 2.6310997951976339e+02  2.6380841515899465e+02 -1.5362603704883593e+01 2.1945360265950222e+02  2.0227213913693078e+02 1.5683076971203569e+01 2.2293974073757758e+02  2.0763131317816496e+02 2.0598647601393871e+01 1.6926668966065475e+02  2.2961037031424326e+02 2.0948172464169311e+01 1.9976613134092921e+02  2.2592930665080533e+02 -1.4344988415176712e+00 1.9351942573996340e+02  2.4298383789993724e+02 -3.5390388762520594e+01 1.7646340953933623e+02  2.5785840988235839e+02 -2.4482177768609581e+01 2.1435677672464627e+02  2.6768970771953019e+02 1.9500209739760199e+00 2.4269940435761131e+02  2.0699436992715053e+02 1.0350931754548611e+02 1.1366658611334940e+02  2.0615853887129273e+02 1.3166685711980173e+02 1.2188024670407947e+02  1.7226134556762554e+02 1.3506897425510405e+02 1.2173154965667140e+02  1.9546643395842446e+02 1.1227775696074981e+02 1.0455168231816705e+02  2.0599644270624776e+02 1.2501906815287070e+02 1.0896148419475318e+02  2.1486095045611364e+02 9.6765906011161789e+01 9.4873873429048146e+01  2.0836840473323139e+02 8.8943709488038365e+01 1.0075840720022336e+02  2.9716000119390884e+01 -4.8693340048992546e+01 -3.4019620488737615e+01  5.5179004450773817e+01 1.7575234049909771e+01 2.0244139674841019e+01  4.7969015666124747e+01 -1.9736966350394574e+01 -8.8836125303390556e+00  -3.1121151914639729e+00 2.0039668850783978e+00 -9.6171600035217397e-01  8.8712883259526460e+00 -9.6703645175854476e+00 -2.6646395875752933e+01  2.7767276340164059e+01 4.7479663182613443e+01 8.6308702988101924e+00  4.1168334622825737e+00 6.5640921975305872e+01 5.4404659520995068e+01  1.6627015498438560e+00 5.0375570347938172e+01 8.0611477977147089e+01  4.5166138585855073e+01 1.0410087642592318e+01 3.7406842363436645e+01  7.8340330506970290e+01 -9.0906895186698158e+00 1.2469801459099786e+01  2.8211655980437547e+02 1.3326669669700061e+02 6.1904316560180376e+01  2.3273220532280135e+02 1.2718314187486214e+02 6.9124376726612638e+01  2.0622742091763814e+02 1.1608318895273379e+02 6.7667345197412956e+01  1.9859457203167256e+02 1.1881338807647906e+02 7.3051591383600922e+01  1.9393221942635807e+02 1.2477925164030914e+02 1.1492525002435285e+02  1.7844768459084347e+02 1.2799359370710630e+02 7.4642721162105317e+01  1.7636998242368290e+02 1.2294686350721270e+02 7.8258903730520643e+01  2.1077593559236249e+02 1.2782327368640365e+02 1.1083403016533330e+02  1.9720565244766840e+02 1.3469245975307427e+02 1.1079822461715500e+02  2.0177557585671337e+02 1.1051313380716633e+02 4.8282692156857031e+01  1.3386560889538231e+02 -8.9206223978729739e+01 -2.9688842635820563e+01  1.1987921087333264e+02 -8.5943755688488523e+01 -4.3002326652636796e+01  1.3135004307752030e+02 -9.1694105472132620e+01 -3.6935949725402523e+01  1.1823606549241497e+02 -8.9601350562390735e+01 -3.1805219709351761e+01  1.2357752885038482e+02 -8.4540402510133177e+01 -4.8436263116891226e+01  1.1497220299540469e+02 -9.1119157509353968e+01 -6.6535769834598511e+01  1.2723005550546794e+02 -8.8496598311755108e+01 -4.7868235824712187e+01  1.0859293002842321e+02 -8.6533624927333648e+01 -3.3770230374491305e+01  1.2090847402139408e+02 -8.5950737435872512e+01 -3.4365505073520794e+01  1.3766996496635991e+02 -8.5281898510168915e+01 -3.6056301810109574e+01  9.0467683120023096e+01 -2.2652322777112143e+01 -1.4819979617712934e+02  1.7390188523277030e+02 -1.0726281384531056e+01 -1.1717186226843680e+02  1.6435100896479335e+02 -2.9016165691864249e+01 -1.1687941983461319e+02  1.4042624420607342e+02 -1.6548099791255858e+01 -1.0305235369669690e+02  1.2378944992513522e+02 -1.5256637563475458e+01 -1.7014412212254143e+02  1.8618409286758717e+02 -7.3753453491593204e+00 -1.8654449190630422e+02  2.0473791367879306e+02 -1.4640785524532205e+01 -1.2070201534940179e+02  1.9684188215909256e+02 -1.5388416412264498e+01 -6.6661819632767163e+01  2.2109760818080548e+02 -2.3682795026861221e+01 -6.2347821447222607e+01  3.5571958332207982e+00 -2.1121643308319427e+00 -3.8774392489496371e+01  1.4070324110250159e+01 -9.2340600619374236e+00 -4.5244369049615116e+01  1.7979799346714962e+01 8.1109805797972201e-01 -2.7982256898643211e+01  2.1349182437987981e+01 2.3029689900605974e+00 -4.6592487616975738e+01  5.0908935292992794e+01 1.5970392281744147e+01 -4.6905143073388295e+01  2.2869766550864238e+01 -3.5650971857807439e+00 -3.1208230892903856e+01  3.3981