<?xml version="1.0"?>
<VTKFile type="UnstructuredGrid"  version="0.1"  >
<UnstructuredGrid>
<Piece  NumberOfPoints="7014" NumberOfCells="31500">
<Points>
<DataArray  type="Float64"  NumberOfComponents="3"  format="ascii">15.872958 34.306061 37.652058  15.78684070565135 33.53533321777367 38.22749618181541  15.36854814332848 34.00850660575988 38.38914321277983  16.1353935 34.2130645 38.15996  16.397829 34.120068 38.667862  15.63098364332848 33.91551010575988 38.89704521277983  14.86413828665696 33.71095221151975 39.12622842555966  14.928355 32.993465 37.594818  14.89624664332848 33.35220860575987 38.36052321277982  15.4006565 33.649763 37.62343799999999  -1.2 25.831078 17.81633  -0.228621069040678 26.09979403078725 17.72855193677565  -0.6264236614065265 26.02670358322141 18.36377307521628  -0.6412857106407504 26.39978225094158 18.25291414953715  -0.08257142128150075 26.96848650188317 18.68949829907429  0.3449552695527954 26.29541961400866 18.27599501199193  0.3300932203185716 26.66849828172883 18.1651360863128  -0.06770937204727689 26.59540783416299 18.80035722475343  -0.05284732281305304 26.22232916644282 18.91121615043256  0.7427578619186439 26.3685100615745 17.64077387355131  1.161661 26.712828 19.030704  0.6655212516934469 26.00178137386473 18.32695480895967  1.274367930959322 25.95957053078725 18.40007993677565  0.952209430959322 26.54066903078725 18.33573893677566  0.874972820734125 26.17394034307748 19.02191987218401  1.4838195 26.1317295 19.095045  -1.2 27.19809 18.383066  -0.6264236614065265 26.71020958322141 18.64714107521628  -1.2 26.4785615 18.5907105  -1.2 26.514584 18.099698  0.0536049999999999 25.7461615 16.415292  0.001611551420703877 25.47564664478011 17.17199515122651  0.3981814309593219 26.05733578078725 17.02803293677565  -0.5731975 25.78861975 17.115811  -0.6412857106407504 27.08328825094159 18.53628214953714  1.30721 25.757874 16.099516  0.7875182655253578 25.43117586690261 16.90989641697387  1.024983930959322 26.06319203078725 16.87014493677565  0.6804074999999999 25.75201775 16.257404  2.101717 26.539682 18.622568  1.811574265525358 25.82793611690261 18.01353441697387  1.422237430959322 26.45409603078725 18.13167093677566  1.764233430959322 26.40235553078725 17.66509543677565  2.443713 26.4879415 18.1559925  2.785709 26.436201 17.689417  0.5395447893592497 26.84065725094158 18.86010114953714  0.5544068385934735 26.46757858322141 18.97096007521628  1.631689 26.626255 18.826636  14.14811607485801 37.05613734751935 34.30382165867984  14.48055251685882 35.70979237485072 34.10390430015774  14.66713443700359 36.22842248691802 33.138411098923  13.86507543074879 36.31467872219915 34.27497876436531  14.76359316096804 36.45125100017093 34.13274719447227  13.76861670678434 36.09185020894624 33.28064266881604  14.05165735089356 36.83330883426645 33.30948556313057  13.95519862692911 36.61048032101354 32.3151494675813  15.37907024707808 35.84636465282249 33.96167273026471  13.58203478663956 35.57322009687894 34.24613587005077  4.68252 40.7 35.28688  4.283843869849257 40.0888159072876 34.85512512702139  4.528809982984866 40.26384988037171 35.53746974990084  4.190723858258129 40.24154295456798 35.49731092076104  3.698927716516258 39.78308590913595 35.70774184152207  4.130133852834122 39.6526657876593 35.10571487692224  3.792047728107386 39.63035886185557 35.06555604778242  4.037013841242994 39.80539283493968 35.74790067066188  4.375099965969731 39.82769976074342 35.78805949980169  3.885167739698514 39.47763181457519 34.42337025404278  10.296865 33.437237 34.892544  10.87274354112886 33.77729791038987 34.32746311312238  11.229089 33.43166 34.82843800000001  10.739502 33.11492 34.5440065  10.786452 33.75397700000001 35.1769755  10.43010654112886 34.09961491038987 34.67600061312238  11.276039 34.070717 35.461407  10.91969354112886 34.41635491038987 34.96043211312238  11.182139 32.792603 34.195469  10.56334808225773 34.76199282077974 34.45945722624475  10.26631177343213 33.78709096358204 33.21697867215767  9.504971363186606 34.44214065809947 32.24023971947905  9.375616250675563 34.05323588622902 33.14109329346027  9.866741087467428 33.65440484023222 32.61874311584685  9.904542049151312 34.57482678144928 32.83847527578988  9.542772324870489 35.36256259931653 32.45997187942208  9.01384652639474 34.84097170409626 32.76258989709248  9.46717040150272 33.52171871688241 32.02050755953602  8.976045564710855 33.9205497628792 32.54285773714945  8.484920727918992 34.319380808876 33.06520791476287  2.677584 37.431374 40.7  3.358080339813594 37.29855400844032 39.96965405311809  3.064599839813594 37.70724750844032 39.96965405311809  3.3131885 37.3740025 40.7  2.9710645 37.0226805 40.7  3.264545 36.613987 40.7  3.606669 36.965309 40.7  3.948793 37.316631 40.7  3.700204339813594 37.64987600844032 39.96965405311809  3.451615679627189 37.98312101688063 39.23930810623619  9.492372099589206 39.39439589843897 30.26094032485475  9.559083967047936 39.36843568229919 30.90354172903758  9.271462267517503 39.63657851126909 30.76415702044246  9.295891016842539 39.09686663151867 30.66840514146496  9.755565049794603 39.66596494921949 30.49607691242738  10.018758 39.937534 30.7312135  9.5346552177229 39.90814756204961 30.99929360801509  9.099409934095872 38.79933736459837 31.07586995807516  9.074981184770834 39.33904924434879 31.17162183705267  9.050552435445798 39.87876112409921 31.26737371603017  14.796559 38.824474 36.978821  14.30859095132617 38.19259514686303 36.51059870999505  14.34503195132617 37.66180714686303 36.84372070999505  14.19297695132617 38.33300464686303 37.05123470999505  14.948614 38.1532765 36.771307  14.912173 38.68406450000001 36.438185  15.100669 37.482079 36.563793  15.064228 38.012867 36.230671  15.027787 38.543655 35.897549  13.58939490265234 37.84153529372607 37.1236484199901  10.499228 35.076008 31.840103  10.38911011544919 35.21681971205975 32.75378043511824  10.86733795301395 35.07354241240148 32.4438459954072  10.38276988671607 34.43154948179102 32.52854083607883  10.02100016243524 35.21928529965827 32.15003743971104  10.75087983973001 34.4290838941925 33.13228383148603  11.23544790602789 35.07107682480296 33.0475889908144  9.619215000000001 30.141434 40.7  9.593918277669875 30.83064730828479 40.35004159131503  9.299595277669876 30.46742130828479 40.35004159131503  9.702674012663381 30.46727191157871 40.04583368560412  9.913537999999999 30.50466 40.7  10.207861 30.867886 40.7  9.996997012663382 30.83049791157871 40.04583368560412  9.786133025326762 30.79310982315743 39.39166737120824  9.383054290333257 30.7932592198635 39.69587527691915  8.979975555339752 30.79340861656958 40.00008318263007  7.680345 35.436943 35.329578  8.020389951751252 34.51833381947085 35.26891910278296  7.769310241490873 34.60098095347796 34.90411151414933  7.687890951751251 34.68452131947086 35.50055860278296  8.012843999999999 35.2707555 35.0979385  8.345343 35.104568 34.866299  8.101809241490873 34.43479345347797 34.67247201414933  7.695436903502504 33.93209963894171 35.67153920556591  7.776856193242125 33.84855927294882 35.0750921169323  7.858275482981746 33.76501890695593 34.47864502829867  10.672959 38.365978 40.7  11.48090936194563 38.01300152221216 40.04167211060155  10.83543936194563 38.05673302221216 40.04167211060155  11.153259 38.843727 39.780687  11.318429 38.3222465 40.7  11.633559 39.321476 38.861374  11.31573936194563 38.53448202221216 39.12235911060155  11.798729 38.79999549999999 39.780687  11.963899 38.278515 40.7  10.99791972389126 37.74748804442432 39.3833442212031  2.7794 37.653881 36.514172  2.291900317944932 38.62517481934854 36.54765061464316  2.699711566117902 38.47664873963157 36.03411453618662  2.988184966872399 38.22246011128088 36.61555418649755  2.083115351072533 38.05659570806766 36.44626842814561  1.386830702145066 38.45931041613533 36.37836485629121  2.003426917190435 38.87936344769923 35.96621096433222  3.196969933744797 38.79103922256176 36.7169363729951  2.9084965329903 39.04522785091245 36.13549672268417  2.620023132235803 39.29941647926314 35.55405707237323  12.455539 34.381413 32.077377  12.93459123172888 33.93668015575305 32.4638025380909  13.10923558460881 34.58927223645978 32.48882844498696  12.9755045 34.16093650000001 31.9552075  13.49547 33.94046 31.833038  13.45455673172888 33.71620365575305 32.3416330380909  13.62920108460881 34.36879573645979 32.36665894498696  13.76293216921762 34.79713147291957 32.90027988997392  13.58828781633769 34.14453939221283 32.87525398307787  13.41364346345777 33.4919473115061 32.85022807618181  7.165578 38.8349 36.791325  6.984816516399395 38.43279513533192 35.73520924509747  7.081523607758234 39.10966745533293 36.1489754209364  6.708829452457691 38.54506678172113 36.03999476243487  7.06887090864116 38.15802767999899 36.37755882416106  6.97216381728232 37.48115535999798 35.96379264832213  6.612122361098852 37.86819446172012 35.62622858659593  6.252080904915383 38.25523356344226 35.28866452486973  6.624775060215926 38.81983423705405 35.39764518337127  6.997469215516468 39.38443491066585 35.5066258418728  4.467381 35.7579 38.249638  5.061961838588172 36.5773824185063 38.2708505652355  4.584876811045412 36.65876936033928 38.58582932469386  4.581958999999999 36.3422125 37.936905  4.696537 36.926525 37.624172  5.176539838588171 37.1616949185063 37.9581175652355  4.699454811045412 37.24308186033927 38.27309632469387  4.702372622090824 37.55963872067855 38.92202064938773  5.179457649633584 37.47825177884557 38.60704188992936  5.656542677176343 37.39686483701259 38.292063130471  10.935289 37.411026 31.057106  11.73601645325837 38.09598064180449 31.0432435463382  11.639289 37.4750195 30.858923  11.273882 37.879635 30.6210955  11.612475 38.348244 30.185085  12.07460945325837 38.56458964180449 30.6072330463382  11.977882 37.9436285 30.4229125  12.343289 37.539013 30.66074  12.44001645325837 38.15997414180448 30.8450605463382  12.53674390651674 38.78093528360898 31.0293810926764  8.53917232404827 34.7877126459742 35.15912650684498  9.012335712242981 35.14451291304951 35.
[...]
<PointData  Vectors="u"> 
<DataArray  type="Float64"  Name="u"  NumberOfComponents="3" format="ascii">2.5581828635097088e+02 -2.8663148132721585e+02 1.6313866470341569e+01  2.0947228433620262e+02 -2.2706368255084973e+02 -2.8925190050685689e+01  2.1541562299745536e+02 -2.2090268742961541e+02 -6.4468791763831454e+00  2.4174661252527372e+02 -2.2907477752053174e+02 -3.4021734184594024e+01  2.0259079439003705e+02 -1.9531610151947814e+02 -3.5844239402260925e+01  1.9838699344003101e+02 -2.0846136563294809e+02 -1.6414754692325108e+01  2.0649877745866604e+02 -2.0013946651755779e+02 -1.1773767749608766e+01  2.1422752387888136e+02 -2.6755574770500590e+02 -3.5025875880719617e+01  2.1330168077073890e+02 -2.4101079181644582e+02 -2.3183438216834503e+01  2.3929739907043154e+02 -2.4761316590886784e+02 -3.6239639150535119e+01  2.0040973294614116e+02 -2.9944670484687265e+02 4.0013366934056300e+01  1.7668843437948186e+02 -2.9790288480075640e+02 5.2244367084514778e+01  1.7981158950060839e+02 -2.7540964967720583e+02 6.8804664597189458e+01  1.7767139818929138e+02 -2.8373589386779105e+02 8.3393433841462937e+01  1.3516710822303827e+02 -3.2337830679881966e+02 5.2002323294072376e+01  1.6057123570286225e+02 -3.0501480288350388e+02 6.2494111596858282e+01  1.4735468452969127e+02 -3.1056644253064798e+02 5.4723603970677949e+01  1.3734820083819307e+02 -2.9958215656566932e+02 1.0500629330688328e+02  1.4862935876157002e+02 -2.6133156765492311e+02 6.8903948833785904e+01  1.5897305699754943e+02 -3.3248340069029791e+02 5.5753239812870355e+01  1.2403634144885547e+02 -3.9159328594940098e+02 8.3871854980612852e+00  1.7572660579379843e+02 -3.1933449192309456e+02 5.2261849581617639e+01  1.9084840318843575e+02 -3.3942303078804207e+02 5.3889798069747357e+01  1.4831977859587752e+02 -3.3925170733018683e+02 4.3968521864037335e+01  1.6979588291841310e+02 -3.4032689521205390e+02 3.6086575360132798e+01  2.0583787119546943e+02 -3.8991537625770553e+02 3.9494395221501442e+01  1.9280328736078607e+02 -2.9545530063106378e+02 6.1033915962039096e+01  1.4983762790961313e+02 -2.9019465098478241e+02 1.4109767543382691e+02  1.9641397370506297e+02 -2.6550653736733329e+02 1.2282206074403580e+02  2.0025849739933321e+02 -2.8619991238969459e+02 8.1527582952503082e+01  1.6835067348439259e+02 -4.5639421083327881e+02 2.2526915073506842e+01  1.7298203500582665e+02 -3.2040635621001098e+02 8.3417503647100461e-02  1.7071750336108531e+02 -3.3967074249728120e+02 5.6004463683633588e+01  1.8560339350193544e+02 -3.3355730749883372e+02 2.9634389082338295e+01  1.5900957638528996e+02 -3.2523494576505470e+02 5.3041617986128450e+01  1.9296699721764168e+02 -4.7886315656038772e+02 7.8789334862648133e+00  1.7029612292429184e+02 -3.2907146376079470e+02 -3.7501172982799003e+00  1.7164483527645638e+02 -3.8058881962095347e+02 6.1510420633442244e+01  1.5970513557512396e+02 -5.2590795469116199e+02 -1.7646131837735979e+01  2.5978541405494269e+02 -4.4798998721791475e+02 3.0462341093497290e+01  2.1455887720388432e+02 -3.2946021695058573e+02 6.2221934657700672e+01  1.7296507493954701e+02 -3.6304931787339530e+02 4.4823816149124418e+01  2.0168205134191217e+02 -3.7240888530302362e+02 5.5424711948573211e+01  3.1663151433180280e+02 -4.1947572220991577e+02 9.8095777587811241e+01  3.3376814604323863e+02 -3.6981864179498444e+02 5.1678375119742270e+01  1.0623456825811029e+02 -3.7187087762084894e+02 6.2793359639659101e+01  1.2170705309337087e+02 -2.9329826780108385e+02 5.5898321180002895e+01  1.5227958651526865e+02 -4.4589449054399893e+02 1.0509644257869130e+01  1.7729860353443965e+02 -2.8982862113904392e+01 -1.0155656228483649e+02  2.0562461946905529e+02 -6.5988392196466705e+01 -1.0867140735391438e+02  2.0824730765960942e+02 -5.3671534494242046e+01 -9.2210042898494407e+01  1.9287929908495738e+02 -3.4476687536123897e+01 -9.5701120079722287e+01  1.9091727821351984e+02 -4.8229974137002671e+01 -1.1459144451217361e+02  2.1932134476033752e+02 -4.0219544647112649e+01 -8.1665223842068627e+01  2.0229964495168565e+02 -3.0154562956265249e+01 -8.6787707076966385e+01  2.1946180239976027e+02 -3.1897476760949090e+01 -7.7276078376418482e+01  1.9835483473840915e+02 -7.7684656343032060e+01 -1.2003545558641974e+02  2.1765758988025337e+02 -4.0825222000341434e+01 -9.5671399915995863e+01  3.2802281142231806e+01 1.9804482513040134e+00 3.7459013117364690e+00  2.0871461870688076e+01 1.9709788664092409e+00 4.1989291243984672e+00  1.5796951896020021e+01 5.5268013099630018e+00 -1.2348132088450443e+01  2.1796556240204144e+01 5.8150737631758842e+00 1.2691816233555695e+00  1.7402279718061539e+01 5.7281542722476053e-01 -7.9366636794289329e+00  1.9473521967806782e+01 2.5174161603325542e+00 -5.3605754693065910e-01  1.5937478987434480e+01 1.8028240419383801e+00 -1.1044712093220272e+00  2.0224298271419030e+01 6.8832997716900577e+00 -3.9024953799544400e+00  1.2772823090040378e+01 6.2254212628298511e+00 -8.0992962256607566e+00  1.3787014090317493e+01 1.0231300450276870e+00 3.4495597274352052e+00  2.4918694614422091e+02 6.3771562641886455e+01 1.7869055478792191e+00  2.3791849530815850e+02 3.1778162885551701e+01 -1.7464606583967736e+01  1.5976325066639063e+02 4.0560607568303013e+01 -4.4760821985891276e+01  2.6682907849270191e+02 3.7102199864535486e+01 -8.7399549574688695e+00  2.1165936596580767e+02 1.7511623020729228e+01 -1.1138177487181646e+00  2.2056930906690178e+02 4.9175264020867871e+01 6.0131947454694101e+00  1.5493253398303270e+02 4.5412127359831217e+01 -3.0442877578445479e+01  1.9642340380542214e+02 4.3801183463634899e+01 -1.4809999885894465e+01  3.0979384655343910e+02 -1.5538830301585644e+01 -7.7948011656748932e+01  2.0922467346829004e+02 5.0863949249534699e+01 5.0759121580643400e+00  2.9211994134762745e+02 3.4265217748519738e+01 6.4261092094234286e+01  2.5689047406886641e+02 6.8379081450606634e+01 1.8257306942230790e+02  2.4715836898107548e+02 6.3374944774807787e+01 9.7724993393638258e+01  2.8866346971673403e+02 3.9118920028248823e+01 1.3136054545209814e+02  2.7016410233391792e+02 7.1522200939610315e+01 1.1160476008404076e+02  2.5789803474481965e+02 1.1705074270535702e+02 1.5145721929678191e+02  2.4148755444540370e+02 9.0076594914890336e+01 1.4386169865925280e+02  2.4722930457566767e+02 3.9539019968754019e+01 1.9027637426484617e+02  2.3179538449318326e+02 5.1382997728992734e+01 1.3865275194076057e+02  2.1807886656944561e+02 5.9879284145666354e+01 1.1900545859174734e+02  1.2608549096683399e+01 -3.8037381866873439e+00 5.3382636934473582e-01  1.2324097603384219e+01 -2.6294006895025550e+00 2.7722083622447391e+00  1.1541817316354418e+01 -2.4204351945155880e+00 2.4719278865703944e+00  1.1179890582000731e+01 -3.8258110302223902e+00 3.8709344938877496e-02  7.0518062250520757e+00 -6.8403371035145808e+00 2.4216392647990541e+00  1.0369559758516225e+01 -5.0146121419994856e+00 1.8758256381482319e+00  1.1672158697367831e+01 -4.0416013902730672e+00 1.3227996666931058e-01  1.2416241064966101e+01 -3.3532890205369696e+00 4.9040226995798436e-01  1.2852194038960825e+01 -2.6728768882379956e+00 1.6853848435183318e+00  1.2996417579795454e+01 -1.9958659986569127e+00 3.1421609894319573e+00  3.5613374688402644e+02 6.0830464127967021e+00 9.1194938253263430e+01  2.8377700178694914e+02 -2.1598871398964707e+01 8.9127887102985511e+01  2.7237803375652385e+02 -1.4206118238614213e+01 1.0907945605544226e+02  3.1036407240216852e+02 -3.6577247997779736e+00 1.1692836385521908e+02  2.8056000339609210e+02 -7.1228931655577512e+01 7.0588431002988713e+01  3.4295775146796780e+02 2.7254716638697833e+00 9.0222915658979019e+01  2.6530681426303289e+02 -3.4872831654513028e+01 1.2458759804767256e+02  2.9366739738242649e+02 2.5736102676982586e+00 1.3022929820440709e+02  2.6225512261101318e+02 5.7783771635470726e-01 1.2002763545759736e+02  2.4126845677204511e+02 7.9876429326427156e-01 1.1788013583371706e+02  1.3022815090751621e+01 -3.1628955088643004e+01 -8.7376684361983962e+01  6.2037593765006967e+01 -3.1995829904018418e+01 -9.2836339414122477e+01  5.5123939326165683e+01 -3.4224362143031108e+01 -8.2657365143792759e+01  4.6566118855125502e+01 -2.7816072192645240e+01 -6.7228654820598351e+01  1.3091090726267236e+01 -4.1106376157834390e+01 -1.0887345853088686e+02  2.3111325135375981e+01 -3.9207071125204983e+01 -1.1362577445212422e+02  3.7095491387483314e+01 -4.7799408536291459e+01 -1.3469602815675407e+02  6.0236791901451348e+01 -5.1764865244674098e+01 -1.5286496375094379e+02  6.0831391234863169e+01 -5.5360737622084770e+01 -1.5746252630316320e+02  7.5025007170363395e+01 -2.1729073692777124e+01 -5.2757632951222035e+01  3.9428535572165106e+02 1.3157060813675093e+02 1.8319706866427887e+02  2.7379043006550660e+02 8.1046490797486015e+01 7.5018800802370990e+01  3.1924974014980876e+02 6.8340997766139864e+01 4.8675101595065144e+01  3.2205203694120928e+02 5.7983950225182760e+01 1.1850333199383444e+02  2.9983220113364604e+02 1.1147098064673317e+02 1.7219926485889789e+02  2.9116116553825134e+02 3.7231799600688326e+01 4.1504464461408602e+01  2.7898713404412104e+02 3.5466804553882000e+01 9.7138356048143368e+00  4.3263273401486948e+01 1.0065512228288733e+02 -5.4876821057179848e-01  4.0581166445009430e+01 7.4971261638489352e+01 -3.7715932030593007e+00  4.6144975264854544e+01 8.8516099326706680e+01 1.6831777830185251e+00  6.0048340956757713e+01 7.8850732809757048e+01 -4.5460220985354729e+00  5.8115612887732773e+01 6.2793735215027937e+01 -3.5045583989888671e+00  2.3031636161875749e+01 4.0324852494921615e+01 -4.8393440774013508e+00  3.9187886585429155e+01 5.4594705508119802e+01 -1.4049952388319422e+01  5.6506634368934165e+01 8.0851371081565176e+01 -3.6542379798227009e+00  5.0025310635256226e+01 8.7119745989566212e+01 1.1533688762408263e+00  4.5494702749028875e+01 9.1649984244112048e+01 4.4366296156691671e+00  1.4373890732625998e+02 1.0292608402859055e+02 1.2492572151217976e+02  1.5244034818356195e+02 8.1506344974071595e+01 7.1606691896958054e+01  1.5524320169673859e+02 6.0560407770362531e+01 9.2978957443895638e+01  1.3396967420539906e+02 8.4727756113545354e+01 7.8627697758463881e+01  2.0338275375696307e+02 2.5169409069293170e+01 1.5563822107908553e+02  2.3332282883156671e+02 1.2595574486076463e+02 6.5416858827873710e+01  1.7812405124730338e+02 7.8377145360426368e+01 8.1579347393182331e+01  1.2322071251666154e+02 9.8209080678415077e+01 6.4869659988969573e+01  1.4080070091306493e+02 9.1374401574083151e+01 7.0542277991287463e+01  1.5950579867686250e+02 8.0659410149191160e+01 7.6408512887948888e+01  9.0243167122169922e+01 -2.3034167349807122e+00 -2.4327637416066641e+00  9.5978558220874433e+01 2.0905100295672026e+00 -4.2219857138554868e+00  9.3201737305562006e+01 6.5589546897764892e+00 -3.6042518624063917e+00  9.8856064133135988e+01 -5.8357866604366961e+00 -1.3632467376246671e+01  9.9146796072080193e+01 -4.2693322917904011e+00 -2.5194829453842358e+00  9.8923198695254456e+01 8.6079255801851495e+00 -1.4265494070410314e+00  9.4566753179709735e+01 6.3681480909611219e+00 -7.1922940588382183e+00  1.0092438733687095e+02 2.5548340348323190e+01 4.2232952850794625e+00  9.3331069970458046e+01 2.1930888409652638e+01 3.7340047776102785e+00  9.6273592119005357e+01 8.9830800361781797e+00 -4.8120900983155677e+00  1.1538817651698361e+01 3.4910284375626293e+00 1.5086204489339550e+00  1.0898043897574984e+01 3.9067465654763311e+00 -5.9573294906069818e-01  1.0203360580934421e+01 3.7397145915590184e+00 -1.9316771939066271e+00  9.7392120066375156e+00 2.5867709176751692e+00 7.9802989879400821e-01  1.3026638041616106e+01 4.7671154371063311e+00 -6.8065059734765343e-01  1.4887389574254815e+01 6.9606285154990273e+00 -2.1189899963014192e+00  1.0690951162531791e+01 4.8858400451140325e+00 -2.2816695158669433e+00  8.1932855056623364e+00 1.0234864202384768e+00 -5.1169347334771265e-01  9.2526977970191968e+00 2.3748239532691122e+00 -2.6897923380489219e+00  9.5391589756656021e+00 2.6764938224262016e+00 -2.9867598076041055e+00  3.7209108269322354e+02 -4.5959811858496998e+01 -4.2862834229492847e+01  3.3332946186743601e+02 -8.6399307380935923e+01 -7.1948513816442301e+01  2.9813890110643166e+02 -6.6651356489752061e+01 -7.1651959527903870e+01  3.3196820889734477e+02 -7.9676249290358598e+01 -8.0390833705844855e+01  3.0921027465482445e+02 -1.1358064077054222e+02 -1.1375542994359054e+02  3.1312473255004124e+02 -1.1399998596079992e+02 -8.0843956825948467e+01  2.8260728097104322e+02 -9.1725017234414153e+01 -7.9330508637261644e+01  2.5978851150270651e+02 -8.0718329920390985e+01 -7.7572162092498033e+01  2.8847924902062675e+02 -1.0168183461531750e+02 -7.3002516071963726e+01  3.2088654523776984e+02 -1.2810575134937451e+02 -6.8495217487197706e+01  8.4171311902121033e+01 2.9529964275856269e+01 1.3915447309252494e+01  7.4630451176025886e+01 2.7115759811925404e+01 1.9185592411490671e+01  7.7719541103540834e+01 1.8995392013064968e+01 2.0954374829381170e+01  6.6295802989283303e+01 2.6253746750496909e+01 1.7398153569608738e+01  7.7738446537628178e+01 3.4441607292066870e+01 1.4141203854403786e+01  8.0620682130705148e+01 5.6319140032391935e+01 2.1979501672947649e+01  6.6561735682027830e+01 4.8583782564044157e+01 2.0254627282703201e+01  5.1580560755418958e+01 3.5456600378286012e+01 2.0670691987037653e+01  6.3600297063605545e+01 1.7745919506934992e+01 2.2883906885689026e+01  7.4886909514853969e+01 1.1300620252067292e+01 2.6709313202636213e+01  -1.9889235804364624e+01 3.2254785467961845e+01 2.0886736574137533e+01  1.5496596766797492e+01 2.4739249190659304e+01 1.1755551659699446e+01  1.0190371200001989e+01 9.9603142502139086e+00 5.2970158516873083e+00  -1.0059997041915345e+01 2.6718896466052680e+01 7.9133672711652796e+00  4.9701917998127376e+00 1.5106171091395920e+01 -3.8180656119616080e-01  2.5453964647579376e+01 1.7912321594043760e+01 5.4753455342100645e+00  1.9299326850573305e+01 5.4567406923520085e+00 4.1359861695146813e+00  2.2476126072645112e+01 9.2718686966066721e-02 1.8596123106162279e+00  3.0371662457531386e+01 4.3416038579628209e+00 2.0090234538310034e+00  4.1415287058207284e+01 1.4214522731498768e+01 3.4508052280669217e+00  2.4545386261409780e+02 -5.8395260414519399e+00 -2.5965328506970597e+01  2.5229893129336952e+02 -9.1209362248509454e+00 -3.9256379537104465e+01  2.5072307131848436e+02 -1.0553981911160507e+01 -4.4571884105894966e+01  2.7053765993356899e+02 -1.9870708459765986e+01 -1.9244940186311677e+01  2.8843715362782513e+02 -1.9513201293744487e+01 -3.1562900182404157e+01  2.6645993610866503e+02 -1.0062147800576685e+01 -4.8062952590180657e+01  2.6630017863854522e+02 -1.1571769433345555e+01 -5.4502014234932325e+01  2.5760099118409056e+02 -1.6005115295761026e+01 -6.1034403140613911e+01  2.5177411999929100e+02 -7.1757177427875876e+00 -5.7910835557909792e+01  2.4957014373470605e+02 1.3558843415963359e-01 -6.2001483762273381e+01  1.7422195755425051e+02 1.0067879761504652e+02 5.0769158881814775e+01  1.5374871861336510e+02 1.1483591948594520e+02 2.8071035513666331e+01  1.9180884225360467e+02 1.0769991701020351e+02 5.7009057648479221e+01  2.0412951067409205e+02 8.7673360303468343e+01 4.6110617227937553e+01  1.8536545065753083e+02 9.2225288478568487e+01 4.4046697065735309e+01  1.8246227183381799e+02 8.4422055783751915e+01 3.1657922999604136e+01  1.5990854183656992e+02 7.3876609849298404e+01 1.4927157975923992e+01  1.6535261552198730e+02 8.8204683452759397e+01 2.7328576562150470e+01  1.6602414531503720e+02 9.7080915502067043e+01 4.1844706939776501e+01  4.4297055208359119e+01 4.9900018390602035e+01 2.5235985952017888e+01  8.0891510852540762e+01 6.0410789818399479e+01 2.2759738522846877e+01  6.8591860593658410e+01 6.3941199967063469e+01 3.1906113233333517e+01  7.6373482711601568e+01 4.7970442840874611e+01 1.6694552397539734e+01  5.9943537420921160e+01 5.0273170861397013e+01 1.9417245581770729e+01  9.3010882897705343e+01 4.6234085573023975e+01 1.0444722314947798e+01  9.2832158608656044e+01 5.5134764548896506e+01 1.7184829431907918e+01  8.5490414552564772e+01 5.0626452551937625e+01 1.1649420803198112e+01  7.2599477495151532e+01 5.3239608711768234e+01 1.2150495450974747e+01  9.7599577751685615e+01 7.3811889884820843e+01 3.0484609695404593e+01  1.2493448525408960e+01 -2.4491180761057509e+00 3.8669177564282080e+00  1.4990845311124293e+01 -2.2025748454515637e+00 4.4453558169093510e+00  1.2684819657187814e+01 -4.0367272457346477e+00 3.3101934426372606e+00  1.4155155038206995e+01 -1.2596069531587100e+00 3.8599492417468459e+00  9.9299995001783383e+00 4.3601297066526072e+01 7.1175229217482237e+00  5.0377497553667844e+01 4.9440279491428747e+01 -2.4427084074959052e-01  4.8006633004178141e+01 4.8893906587965766e+01 9.2432355231576206e+00  3.4061893546498958e+01 5.2449235607250664e+01 -2.8244097436299867e-02  3.4099726178789304e+01 3.8250301184363316e+01 -5.9992281546386528e-01  5.0716119937887093e+01 3.4809720285288968e+01 2.4447501713416017e-01  6.1504509517512197e+01 5.6581891872104734e+01 8.3058491481183871e+00  6.1503597071578561e+01 4.4607969284404547e+01 6.5501015034517742e+00  4.8985050967098367e+01 6.0318944841049870e+01 1.0472457964463895e-01  2.1503595775958422e+02 -1.5841362695087909e+02 2.1454344214725842e+00  1.9661288787195244e+02 -1.9355797722399146e+02 -1.4883216962018567e+01  1.9495299187133983e+02 -1.8347355536832234e+02 -8.3040939018317541e+00  2.1478982545522177e+02 -1.7854896749582747e+02 -9.7407156437854354e+00  2.0453158679729219e+02 -1.7794461452190112e+02 1.6338096614445181e+00  2.0266968932794742e+02 -1.6691765026094794e+02 -1.6310189760074139e+00  1.9033966072797875e+02 -1.6521949489549098e+02 4.9640973384490321e+00  1.8248401798082566e+02 -1.6745116155552944e+02 1.7773951889687352e+00  1.5944596484974957e+02 -1.8134228783948356e+02 -2.6987664140571161e+00  4.4333697287517805e+02 -2.2812880160527740e+02 -6.6388949141200001e+01  4.1842317980477054e+02 -1.1054872911851255e+02 -2.0995468299568579e+01  3.7351636939948656e+02 -1.1340597117589309e+02 -1.0068341965257839e+02  3.8937167682105502e+02 -1.4079822808662939e+02 -6.5895017477188858e+01  4.1778333872802131e+02 -1.8193775888977157e+02 -6.0453326753442852e+01  4.1926730606366186e+02 -1.0613302938347320e+02 -4.4931591228455090e+01  3.8734733430238327e+02 -8.2128568039728506e+01 -2.6667120213677983e+01  4.5244495508966770e+02 -1.5109863965291962e+02 -4.6061467815461270e+01  4.9189733006344750e+02 -2.1279843750041621e+02 -5.1533536333826490e+01  3.5484736515139076e+02 -5.2357170839406592e+01 -3.5324901507734708e+01  4.0922579587335257e+01 -4.1237443751625431e+00 -1.5684480233647808e+01  3.9292081580947233e+01 -1.2103810312444313e+01 -1.8506020542450464e+01  2.5548266362959474e+01 -1.7192768306252930e+01 -3.3354848898246949e+01  2.2035172800695921e+01 -1.0367684605305209e+01 -1.6263146098676774e+01  2.6455935272162416e+00 -1.7151284538361168e+01 -1.7554167962676207e+01  2.4596304777153176e+01 -2.8178633072741054e+01 -4.1938393127061666e+01  1.8169426625613109e+01 -2.2057624234173058e+01 -2.3178676536656877e+01  -8.5312181886654337e-01 -2.7035480821950330e+01 -3.6041471335944749e+01  3.9180525375401366e+01 -2.7560407663361584e+01 -2.3817032679351701e+01  5.8226554486077994e+01 7.6509078169848664e+01 3.3303351624213988e+01  5.7156788001905618e+01 6.8240590298875347e+01 3.2131167582281861e+01  6.0550492981699733e+01 6.1181614124654146e+01 4.3601939237131347e+01  4.1738018467985306e+01 7.5690118350916222e+01 3.8084593597832765e+01  4.0039100477276982e+01 4.2998149399103433e+01 5.5885291334985844e+01  5.7264087005929760e+01 5.3571535912679032e+01 3.9812797983734853e+01  7.3811181991481561e+01 3.1340641321860943e+01 5.6826580574552878e+01  8.0325702752417286e+01 8.1585884700544511e+01 2.5487792990163939e+01  6.7531720793794634e+01 6.0946969711014198e+01 3.1497337543809241e+01  5.7352350023102098e+01 6.7856684384831397e+01 2.4545405341239039e+01  6.8820038530714157e+01 1.1385647257313931e+02 4.0119508671376245e+01  4.1087705890958169e+01 1.1184938109530316e+02 6.0876356694129399e+01  4.2561142536865319e+01 1.1006063129798892e+02 5.1854357420130370e+01  3.2035295867898526e+01 1.1098930499677007e+02 6.4167468163404962e+01  9.6756900089922819e+00 1.1223475822462990e+02 5.4958903211781625e+01  3.7985490256441494e+01 1.0238713330669384e