<?xml version="1.0"?>
<VTKFile type="UnstructuredGrid"  version="0.1"  >
<UnstructuredGrid>
<Piece  NumberOfPoints="6996" NumberOfCells="31833">
<Points>
<DataArray  type="Float64"  NumberOfComponents="3"  format="ascii">5.62145 19.4617 5.965164  5.980531483001929 19.25336214335386 5.168002922272935  5.255844 19.4666345 5.3725275  5.6571075 19.101135 5.685542  5.692765 18.74057 5.40592  5.61492548300193 19.25829664335386 4.575366422272936  6.016188983001928 18.89279714335386 4.888380922272935  5.2915015 19.1060695 5.092905500000001  4.890238 19.471569 4.779891  6.339612966003858 19.04502428670772 4.37084184454587  6.189139 22.269846 8.085290000000001  5.639331 21.359103 7.909052000000001  5.7806675 22.1773785 7.6704005  5.5772195 21.935996 8.332501499999999  5.372196 22.084911 7.255511  5.230859499999999 21.2666355 7.4941625  5.168748 21.8435285 7.917612  5.931665538372182 20.78327806671199 7.421323055538938  6.073002038372183 21.60155356671198 7.182671555538938  5.3318305 21.1768635 6.949507000000001  5.089523 20.44836 7.732814  5.190493999999999 20.358588 7.1881585  5.291465 20.268816 6.643503  6.032636538372182 20.69350606671199 6.876667555538938  6.773808076744364 21.11819613342397 7.109832111077876  6.026289993755675 19.98301123811346 5.548449224587332  6.605896772726599 19.33165348265802 5.858908030523175  7.590343545453197 19.20160696531604 5.752652061046351  6.964978255728528 19.12331562601188 5.06174695279611  7.010736766482273 19.85296472077147 5.442193255110507  6.431129987511349 20.50432247622692 5.131734449174663  6.385371476757603 19.77467338146732 4.751288146860267  7.456408 18.910143 0.871977  6.169259158302958 18.03406553992222 1.72453709555472  6.773275640555038 18.91981519422679 1.607697664761341  6.972649140555038 18.28247769422678 1.985889664761341  6.090143281110077 18.92948738845357 2.343418329522682  6.481473538372182 21.69402106671199 7.597561055538938  5.196949 17.576508 0.871428  5.850646307859058 18.16607544568988 0.9243934086683638  6.119134517747919 17.80437184569543 0.202827930793379  5.324933290111138 18.38500759999445 0.8072794778749848  5.5934215 18.023304 0.08571400000000001  5.989894 18.4701 -0.7  5.721405790111138 18.83180359999445 0.02156547787498486  5.452917580222277 19.19350719998891 0.7431309557499697  5.725202 19.442579 7.144005  7.18207581109878 20.15990154937001 6.431242086062113  6.657772772726599 19.32209298265802 6.448328530523176  6.985683297708032 19.60724311719071 7.310286361521231  6.249505038372183 20.28038756671199 7.126918555538937  8.246164595416065 19.77190723438142 7.476567723042463  7.918254070434632 19.48675709984872 6.614609892044406  7.509986336080215 20.44505168390269 7.29319991706017  8.718538000000001 18.299734 3.476065  8.111189444922285 18.40823388232955 3.379849552709087  8.264261790927316 18.45602437071163 3.905872564299437  8.088886644952179 17.65376867620326 3.787457586711634  7.809985581854631 18.61231474142326 4.335680128598874  7.656913235849601 18.56452425304118 3.809657117008523  7.481538089874464 17.76226855853281 3.69124213942072  7.503840889844569 18.51673376465911 3.283634105418173  7.208631319527202 20.14807850024079 4.674206343003848  7.788238098498127 19.49672074478535 4.984665148939692  7.162872808773457 19.41842940548119 4.293760040689452  7.986132651543056 19.79183452425466 4.216678236833034  7.244548662647231 18.24083366512592 4.820270578119061  7.047995803688547 18.16517566898656 4.141332634901988  6.509362354721844 18.45718843776815 4.837851436092559  7.074799273929244 18.82866951406549 4.353260986572372  6.312809495763161 18.38153044162879 4.158913492875486  6.286006025522464 17.71803659654985 3.946985141205102  8.617585999999999 22.563337 8.919978  9.307805229384281 22.60084105217377 7.974525639189997  9.082532 23.323364 8.3133695  8.482573500000001 22.9141595 8.502022  8.707846729384279 22.19163655217378 8.163178139189997  9.217544499999999 22.9725415 8.731325500000001  9.817503 23.381746 8.542673000000001  8.347561000000001 23.264982 8.084066  8.572834229384281 22.54245905217378 7.745222139189996  8.798107458768561 21.81993610434755 7.406378278379994  7.172522 23.013288 7.590046  7.785957767756463 21.46906611888576 7.258105194728935  7.685230113207627 22.1635000731653 8.074683751751996  7.98531472938428 22.41661205217378 7.498212139189997  6.973165038372182 22.06574206671198 7.349939055538938  7.485873151579809 21.21595413987728 7.834576807290933  8.498022842591908 21.56682412533907 7.982849890941992  8.197938226415253 21.3137121463306 8.559321503503991  8.903918113207627 21.6920010731653 8.964230751751995  9.113741999999998 22.3168135 9.144559000000001  8.786192 21.902466 9.627634  8.407762113207626 21.9385245731653 8.739649751751996  8.290036000000001 22.1489895 9.403053  9.609897999999999 22.07029 9.36914  7.700164563653914 18.90696085336965 5.044166094822613  7.898059116698843 19.20207463283896 4.276179182715953  8.081014 18.970089 2.089686  7.085578640555038 18.94978819422678 2.216552164761341  7.768711 18.940116 1.4808315  7.6557815 18.2728055 1.250169  7.9680845 18.3027785 1.8590235  7.661331969208285 21.11693453841186 6.347846498963065  8.522136027092312 20.79592166936448 7.441473000711229  8.397510228544135 20.44379008889059 6.531214304945358  8.673481660220382 21.46780452387365 6.496119582614124  8.548855861672205 21.11567294339976 5.585860886848254  5.4073625 19.9454695 7.438409500000001  5.5083335 19.8556975 6.893753999999999  6.197629038372183 20.28994806671199 6.537498055538938  5.673326 19.4521395 6.5545845  5.4564575 19.865258 6.3043335  7.38145 22.443369 8.742523  7.077629038372182 21.78078256671198 7.926177555538938  7.276986 22.7283285 8.1662845  6.7852945 22.3566075 8.4139065  6.6808305 22.641567 7.837668000000001  5.053978 21.7293425 7.0347755  4.912641499999999 20.911067 7.273427  4.73576 21.373774 6.81404  5.0136125 20.821295 6.728771500000001  4.85053 21.48796 7.6968765  8.636295491783109 19.6784037478116 6.169643178157824  8.069599703562702 20.15863995435789 5.669256473947302  8.357806 20.133598 2.608573  7.942792055889898 19.53294554595599 3.287591875095591  8.171969325771528 19.96271626212733 3.412625618416517  7.836094555889898 19.95782054595599 2.993777875095591  8.464503499999999 19.708723 2.902387  8.571201 19.283848 3.196201  8.278666825771527 19.53784126212733 3.706439618416517  7.314383111779795 19.78204309191198 3.378982750191182  7.650257881661426 19.78693880808332 3.797830493512108  8.768872999999999 17.541089 3.422815  8.503184000000001 18.1234065 3.07104  8.28783 17.947079 2.666015  7.744986770693812 19.15428414445688 3.750156171125604  7.562184346817213 19.19717891666762 3.857331439395028  7.409112000812183 19.14938842828555 3.331308427804677  5.524317 18.076275 4.916781  5.647489483001928 18.73045314335386 3.975775422272935  5.905161512761232 17.89715579827492 4.431883070602551  5.931964983001929 18.56064964335386 4.643811422272935  5.620686012761231 18.06695929827492 3.763847070602552  5.2398415 18.2460785 4.248745  4.955366 18.415882 3.580709  6.921726927924214 18.78087902568342 3.827237974982022  6.826998038891826 19.41353368930985 3.874912297368526  7.134727644446514 18.53547977707231 5.5287565443428  7.978894661613126 18.38756017347522 5.547202188948066  6.602469032127857 20.81125930482544 6.120783280126269  7.489992924591777 20.80999770981334 5.358797668011459  6.188074653316271 18.32376199250171 3.145201735363893  6.395501313919764 18.08015572160988 2.469984917717866  5.701226140555038 18.09146119422678 2.643902664761341  6.796992085477322 18.72311057655634 2.813526217470428  6.894923457683516 18.11738518060448 3.615309623311638  6.86530403880719 20.27325459605879 7.893331985075708  8.222051410915659 20.54280969035601 8.017944613273226  6.454662790111138 19.05182509999445 0.8075539778749848  5.771530430666177 19.06149729422124 1.543274642636326  7.789694113207627 21.8785405731653 8.650922251751997  8.08977872938428 22.13165255217378 8.074450639189998  7.895835444922284 18.23190638232956 2.974824552709086  5.643546140555038 18.25299769422679 1.607423164761341  4.785501 18.118954 1.916169  5.437822140555038 18.52422069422678 2.129793664761341  5.608541 18.4084225 5.1613505  5.2072775 18.773922 4.848336  6.641554272726598 18.97108848265802 5.579286030523175  7.999518 22.503353 8.831250499999999  7.671968 22.0890055 9.314325499999999  9.20400272938428 21.94511305217377 8.387759139189997  9.7137005 22.726018 8.955906500000001  9.045757999999999 19.159122 4.157317  8.425532790927315 18.22228437071163 4.297163064299436  8.427871790927316 18.88571837071163 4.246498564299436  8.701553790927315 18.49033587071163 4.708862064299437  9.043419 18.495688 4.2079815  9.31944 18.7637395 4.619680499999999  8.632496272726598 19.52126698265802 5.426236030523175  9.674649 19.840927 5.09982  9.360203500000001 19.5000245 4.6285685  9.6338855 19.104642 5.090932  9.593121999999999 18.368357 5.082044  8.591732772726598 18.78498198265802 5.417348030523176  8.318050772726599 19.18036448265802 4.954984530523175  8.882148000000001 18.729428 3.816691  4.922802 18.9437255 4.1803  7.8645055 22.8541755 8.413294499999999  7.7600415 23.139135 7.837056  7.792427444922284 18.74341138232955 2.686660052709087  7.697698555889898 19.37606604595599 2.734334375095591  8.037520944922285 18.90029088232955 3.239917552709087  8.326107499999999 19.1269685 2.6429435  8.21941 19.5518435 2.3491295  5.743180173364726 17.6748890273831 2.256360252956525  6.723151 18.6901215 0.08598850000000002  6.702263196444936 19.35576524018278 2.861200539856932  6.214878123556968 18.98725583758065 3.357130087034276  5.522754640555038 18.67268469422678 2.962063664761341  8.190593290927316 18.94808137071163 3.765940564299437  8.515945325771527 19.47547826212733 4.186997618416517  8.808479500000001 19.221485 3.676759  7.679497944922284 18.07610088232956 2.455997552709086  6.786793772726599 18.64703548265802 6.090937030523175  8.26749425660763 20.45375373382721 4.901269561840644  5.119209290111138 18.65623059999445 1.329649977874985  4.991225 
[...]
<PointData  Vectors="u"> 
<DataArray  type="Float64"  Name="u"  NumberOfComponents="3" format="ascii">-2.3271523815247956e-03 -6.2033512848839742e-03 -1.3326601188955102e-02  -5.0914492055676936e-03 -9.6035001556490033e-03 -1.0300668922218682e-02  -4.8106171932793427e-03 -4.3094838812226775e-03 -1.2791775848661143e-02  -1.6281709467248155e-03 -9.3317679924973685e-03 -1.2832127309666964e-02  -2.1907011403623257e-03 -1.2112663670595216e-02 -1.1062871342450285e-02  -4.1882332542128404e-03 -7.2875591385274758e-03 -8.3333447208285977e-03  -3.6324394035161718e-03 -1.1196493818105510e-02 -9.0669275344812793e-03  -3.7424638130010238e-03 -8.1230677833673375e-03 -1.0372001592503984e-02  -5.5967467545799902e-03 -1.4715866875934717e-03 -8.4368958320481611e-03  -4.3215150312279618e-03 -1.1420861091017654e-02 -8.4065728107369994e-03  -1.8538344099044615e-02 -7.5354581525793017e-03 -1.8727391682509778e-03  -9.6589551118170438e-03 -4.2937551959244319e-03 -2.8970349493010693e-03  -1.4861129150709832e-02 -6.2472663740960012e-03 -7.6961157881938460e-03  -1.1497667816447468e-02 -6.4525973986182834e-03 1.5002531556201524e-03  -1.2920239119049411e-02 -9.4029022866048875e-04 -1.4963755365505071e-02  -4.0515082775551556e-03 -2.3101334074103240e-03 -9.2773359608503622e-03  -3.4937505126637950e-03 -3.8614691350281533e-03 -2.6653001576582591e-03  -9.9333822113146925e-03 -4.9483685204372869e-03 -6.1961398728116015e-03  -1.6754913050281903e-02 -4.7601116635730212e-03 -9.9101605364620773e-03  -9.0037596184795472e-03 7.7590153182943494e-04 -1.3601919639728092e-02  -3.8460076797487632e-04 -2.4433971898952080e-04 -2.6038902011729843e-03  3.8095392619013626e-04 1.0982785472820646e-03 -9.3005472372060232e-03  -3.8787967024377003e-03 8.2654440476637528e-04 -1.4156013588872880e-02  -1.1217969644823696e-02 -5.0574318692832541e-03 -9.9891914615376221e-03  -1.9136093618432340e-02 -9.6430870214868070e-03 -8.3661163099333549e-03  -8.7964975905796845e-03 -6.8582369567265645e-03 -1.1336991323540702e-02  -6.5198972736177363e-03 -1.2972390659666010e-02 -1.0573418047929588e-02  -9.2281820209066008e-03 -1.9697680180765547e-02 -1.0706512300083236e-02  -6.5226968230143907e-03 -1.5154829120609366e-02 -9.8886268738069567e-03  -1.1266892540528225e-02 -1.3443436909472207e-02 -1.1369328591039821e-02  -1.2889989152528002e-02 -7.1695105910595134e-03 -1.1122918295111099e-02  -8.4049395313847176e-03 -9.3430243727926163e-03 -9.8354402479936768e-03  -2.2697652382218389e-03 -1.3125980677902112e-02 -1.9414708661972236e-03  1.4294928265600429e-03 -1.1304627970815832e-02 -2.4826041487386345e-03  -1.5233230126906762e-03 -1.0405063329141529e-02 -3.0412935677646981e-03  5.9358367702945562e-05 -1.3335904002342894e-02 -3.2297782252138510e-03  -1.2576043294275719e-03 -9.0803134484818381e-03 -4.0074535165918364e-03  -1.9764327852128293e-02 -7.6550112805503197e-03 -5.8366491545886320e-03  4.0442459807423061e-03 -1.3289305351332187e-02 -8.7487245818152534e-04  2.3889202675882282e-03 -9.9679786230403491e-03 -1.1738282679280849e-03  3.2303218268177501e-03 -1.1565343232293650e-02 -1.8421911858124626e-03  3.0913535548864842e-03 -7.4168196597375171e-03 3.2423269366599355e-04  7.7175807391030270e-03 -1.2105410840584271e-02 8.2037253212406572e-04  4.6107368434152333e-03 -1.1328795668537665e-02 3.3770399628347918e-04  1.5855933115141506e-03 -6.6964918879095607e-03 4.9838709847172674e-04  2.9866830912406403e-05 -5.5783985759223914e-03 -7.9290388540573362e-04  1.1931788768744286e-03 -7.1352210317650253e-03 -8.4164412535564139e-03  -1.5005007922175193e-02 -1.4521465841855196e-02 -9.9877673666695539e-03  -6.1709673576919510e-03 -1.3793883113730927e-02 -9.5192050205763091e-03  -9.6745316988829065e-03 -1.5006065469549993e-02 -6.9032940420425517e-03  -9.2741151850761483e-03 -7.7160063779781038e-03 -7.7491512152928661e-03  -1.9800797451798583e-02 -2.6538652381543130e-02 -6.2041822098045348e-03  -1.3890151000249503e-02 -2.2921966114391856e-02 -9.7415170970397823e-03  -2.0777850303948301e-02 -1.7118831906820935e-02 -6.7995914815898503e-03  -3.0765780166017759e-03 -2.3910494907314880e-02 -8.0024380071067099e-03  -2.5904454036349582e-03 -2.0088540586260924e-02 -7.2397070934133315e-03  -3.6124748361702325e-03 -2.1873650677302899e-02 -9.0307026171392631e-03  1.2363151140247850e-03 -2.3797625543045181e-02 -6.8734026413093700e-03  -4.3601583044145745e-03 -1.9966241803289646e-02 -9.4332417087147520e-03  -3.2318781527854745e-03 -1.8232987373234755e-02 -8.2175171470236317e-03  1.5012562152722671e-03 -1.9662196086936912e-02 -6.4078079183169032e-03  -2.1679419755065085e-03 -1.6622829740521931e-02 -6.7096689977429623e-03  -1.2178430396145233e-02 -1.2307330959375104e-02 -1.1488362420963502e-02  -1.0586859940142914e-02 -1.8649485951579389e-02 -1.1801157144795132e-02  -7.3493346785826006e-03 -1.3982622278124489e-02 -9.7551817726844493e-03  -1.0828818888897720e-02 -1.6923537531266585e-02 -1.2774680144546587e-02  -2.0554511007753289e-03 -1.8545072673224014e-02 -8.9333768816555054e-03  -9.3436446561338696e-04 -1.6936406431032055e-02 -7.4890206739769045e-03  -2.4702082330370304e-03 -1.4534289456527091e-02 -8.5457990265536236e-03  -4.4514640167740739e-03 -1.5528276415563492e-02 -8.8445892636475343e-03  -1.3409507920793117e-03 -1.3180429394227765e-02 -7.1949006529693302e-03  1.2707767644414081e-03 -1.4692331750765605e-02 -6.0044821516997363e-03  -5.4277684933193564e-02 -2.0859267518524023e-02 1.0736010140534996e-02  -6.7358370828125458e-02 -1.6630134329837485e-02 -9.8520973022118048e-03  -6.4341095484326691e-02 -1.2492143070931192e-02 -1.1626324156017576e-02  -5.3945245274056190e-02 -1.6594094775902461e-02 -5.9863206881598566e-04  -5.3799764439547336e-02 -1.9427240449355183e-02 -2.3732120225484397e-03  -6.9411845435265976e-02 -2.1191375989801208e-02 2.2075585702100273e-03  -7.5876610067092315e-02 -1.2849765976432068e-02 -2.2533381566908053e-02  -4.6923317116176491e-02 -1.4029814745576505e-02 -8.1242800350141368e-03  -5.0780933579372516e-02 -1.4454650917156361e-02 -9.3272640938883485e-03  -4.9623660392762579e-02 -2.1180034825676999e-02 -1.1102849471562429e-02  -3.2007701278484409e-02 -9.8539616754342151e-03 -9.8522524385138057e-03  -3.1583207211972060e-02 -1.5170921895556961e-02 -8.8588210514943914e-03  -3.5129222913936796e-02 -1.3853249718953442e-02 -2.1364008548440706e-03  -3.9522929610461548e-02 -1.2511962134275509e-02 -9.4577241171605857e-03  -2.6135440103339409e-02 -9.1910778209215796e-03 -8.5438659202792741e-03  -2.7103930467283988e-02 -1.4665128237816294e-02 -3.3636808954128736e-03  -4.4408721519585151e-02 -2.1457938365618483e-02 -2.6988479716237692e-03  -3.6575271482997780e-02 -2.0079966937013333e-02 3.9628117944181260e-03  -5.4681740989967920e-02 -2.3287279467273742e-02 1.2177262444250095e-02  -7.0639217564741910e-02 -2.5311044366478908e-02 1.7279647946588553e-02  -5.0312951573740793e-02 -1.6463883584344637e-02 2.3678115450685124e-02  -4.5553606995482269e-02 -1.9562599283626539e-02 7.5478590205779210e-03  -4.1246186957441575e-02 -1.6697828869522587e-02 1.7618264869967613e-02  -8.1652836927410655e-02 -3.4701270440279701e-02 1.1732414465758706e-02  -6.7776025460916621e-03 -1.9851368120074389e-02 -1.0493624105479835e-02  -7.6124348447754141e-03 -1.8517020815217562e-02 -1.0794431827942111e-02  -3.2592597499670464e-03 -1.4302336846255700e-02 -4.8064862455632750e-03  -2.2880252495222266e-03 -1.1880920098278685e-02 -4.5577879725802687e-03  -3.0475822236536105e-03 -1.3410617735873789e-02 -2.9422712533310239e-03  -3.0066914658688016e-04 -1.4266714493482003e-02 -3.2590300665869009e-03  -1.9507302497532664e-03 -1.5636626240813703e-02 -3.2315196383191263e-03  -2.5387592351087708e-02 -1.4333840454286612e-02 -1.2857624847436253e-02  -3.6426845818718363e-02 -2.6287615971194341e-02 -7.4909638669755432e-03  -2.6775900089947468e-02 -2.4702279936629136e-02 -1.2742180956876773e-02  -4.0826915878212827e-02 -2.0123414565081103e-02 -1.7327598025905673e-02  -3.0484899448027840e-02 -1.9611494296744046e-02 -1.9636766513138403e-02  2.0026304215343539e-03 -1.6290653960087389e-03 -5.0888097447141902e-03  1.2986081102467240e-03 -3.0341705121339131e-03 -1.0780865594057028e-02  -9.9843770049272539e-03 -6.8506322862358984e-03 -1.0602793733703177e-02  5.7390890369505502e-04 -6.9121295651537532e-03 -1.1271002621186646e-02  -2.8812639547889569e-03 -1.5087237772807886e-03 -1.4842639279177880e-02  -3.3309859563134030e-02 -1.3363184490949380e-02 8.4031864819409923e-03  -2.5886281668321996e-02 -1.1331601941244260e-02 -2.6711938182636232e-03  -3.1965030634064300e-02 -1.3682854100373721e-02 -3.1427253642920660e-03  -2.6275983316699742e-02 -1.0633129581439974e-02 3.1615643062454114e-03  -2.6029010010936590e-02 -8.9082456699874739e-03 -5.5902510723103045e-03  -8.9631509152084121e-03 1.8892060701511997e-04 -2.4055763867555539e-02  1.2708627744586038e-03 3.1588520661941732e-03 -1.1642986098997003e-02  -1.9333265463961011e-02 8.8388398433069098e-03 -2.4694570327875323e-02  -6.2338353251683238e-03 5.9009375440400597e-03 -2.0352053381365726e-02  2.1020106316360452e-03 -3.6440055017351249e-03 -7.3181349959178478e-03  -1.8489390473962107e-02 -2.9345291737519978e-02 -1.2631370859347922e-02  -1.8565471458758673e-02 -2.0348943202526414e-02 -1.3819172221744785e-02  -6.8330629274803312e-03 -1.2922280533901409e-02 -1.1466655142522222e-02  -6.7152574616506635e-03 -1.4987015990140811e-02 -9.9252543474384110e-03  -8.8753578967530576e-03 -1.4836290783802315e-02 -1.2165651975365994e-02  -7.3625438323464973e-03 -1.2463608866231258e-02 -9.9873519193514667e-03  -6.3972992651674500e-03 -1.5127299898129089e-02 -1.1389307081691500e-02  -5.9427516450207317e-03 -1.7828887831390517e-02 -1.0615023912725259e-02  -8.3487065946216497e-03 -1.7725282680910955e-02 -1.1894674033904675e-02  -7.2478987012437497e-03 -1.1884626911405084e-02 -9.1200085334725515e-03  -8.9141970177357473e-03 -1.4246555617618527e-02 -1.0825827306278806e-02  7.1402615492973179e-04 -2.7731155707798199e-02 -5.3311670242311105e-03  -1.5585927089752632e-03 -2.2925739374205244e-02 -5.2862529355537039e-03  -7.0937808054245724e-04 -2.1787749725834762e-02 -3.6427971609713935e-03  -5.9505454644501491e-03 -1.6592223233651494e-02 -9.4732263377372890e-03  -6.1194206039579683e-03 -1.5803643258079127e-02 -9.3827095155421762e-03  -4.7013677973334724e-03 -1.4224054390557728e-02 -7.9395790489172422e-03  5.2279041584800910e-04 -1.2683513976530406e-02 -6.9577660386294891e-03  -1.1640652879863606e-03 -9.2729998189920778e-03 -6.7325681597874094e-03  5.0783776762814304e-04 -1.3643547007740602e-02 -6.6390777596654254e-03  -1.8254478935352720e-03 -1.1663541811023895e-02 -7.7166389410673253e-03  1.2689615234499501e-03 -1.1328160309085568e-02 -5.4029064768268279e-03  1.2832617995304776e-03 -1.1005603244068449e-02 -6.7495010771390996e-03  1.8498947750189172e-03 -7.3446841541757735e-03 -4.9823167959824385e-03  -3.2621650760414011e-03 -1.4206849387419989e-02 -7.6254817139006425e-03  -6.0788466014422568e-03 -1.1730609547547047e-02 -8.4647305510448610e-03  -3.9045236100241549e-03 -1.7982373346687223e-02 -9.6422335232685084e-03  -4.1702792129768556e-03 -2.3370249103947423e-02 -9.7937343451927009e-03  -1.6041468484235561e-02 -8.3160463540622436e-03 -1.1287844517462075e-02  -1.9104791639439612e-02 -1.2752528536541114e-02 -1.3773571350585951e-02  -4.8084548458074139e-05 -1.1828509396868955e-02 -5.0860683231603206e-03  9.4914775767700134e-04 -1.2482706776767685e-02 -3.5863409946451990e-03  1.4515850563986152e-03 -1.0779897308082527e-02 -3.8416640869702993e-03  -1.8145417522697801e-03 -1.2442978110504788e-02 -5.4192283641338575e-03  -1.9818212867567285e-04 -1.5621901384973120e-02 -6.3929270514160915e-03  -1.3606475103944672e-02 -1.1931653710309137e-02 -3.2909379097536412e-03  -2.8524027170581334e-02 -2.3975877294310215e-02 -2.3032334476411572e-03  -1.1106050693272219e-03 -8.9522342059164817e-03 -1.3485947324464597e-03  -6.5510386967838907e-04 -7.2970776611668243e-03 -2.3752560326593887e-03  -3.5067152033462112e-02 -1.4971425147105345e-02 5.4752833854262422e-03  -4.1163723934887313e-02 -1.5862996316244372e-02 -2.1271509560716350e-03  -1.2713291185982353e-03 -1.9063176854146303e-02 -5.5411657803006676e-03  1.7686212070359964e-03 -9.4798028517464935e-03 -1.8915983320348575e-03  3.4833617411524792e-03 -8.5138049194801776e-03 -2.0397667796335185e-03  1.0687279553399120e-03 -8.2996332663980675e-03 -2.9329745762152149e-03  -2.2451672599633535e-03 -1.2490004647737633e-02 -7.8436808657467386e-03  -2.4638929687205880e-04 -7.7436361599811290e-03 -7.0711335325896168e-03  -4.7563273102906849e-03 -1.4317091289878191e-02 -1.0321219305922049e-02  -4.1718745707428083e-02 -1.5632623906393275e-02 7.6853693365946524e-03  -3.5656922621286120e-02 -1.3882326749790241e-02 1.4006063046357195e-02  -6.2883213873448335e-02 -2.5192975027531830e-02 -1.2911906785822405e-04  -8.7515998852680688e-02 -2.5395345009577300e-02 -2.1419444299905274e-03  -9.1187091797421960e-03 -2.4219123578749863e-02 -1.3882252272616089e-02  -3.4128068968044879e-03 -2.4754304987815230e-02 -9.3081995177765903e-03  -6.9112119196125879e-03 -2.2114252434083687e-02 -1.1292484821554320e-02  -6.4519217565056431e-03 -2.6286688292723941e-02 -1.0232194427442198e-02  -7.7254973691028061e-03 -2.5459780239172374e-02 -1.1281033277335654e-02  -8.7837791955624137e-03 -2.8116254633102477e-02 -1.2445980471403431e-02  -1.4864366548962093e-02 -2.6793189376004601e-02 -1.4190478734963237e-02  -1.9006312755709288e-02 -3.4266100059812267e-02 -2.1458349344429146e-02  -1.2136584075908828e-02 -2.7516678022713705e-02 -1.6565783550196896e-02  -1.2991527292432211e-02 -3.2420896765971395e-02 -1.5293791194207497e-02  -8.2539751444551442e-03 -3.3602962512590130e-02 -9.3561002775200252e-03  -8.5494802152018354e-03 -2.7261314890374807e-02 -1.1129132895013733e-02  -9.8593272919474551e-03 -2.2775195077791442e-02 -1.1997979884912831e-02  -5.4358320135965898e-03 -2.2902590643744249e-02 -1.1147230221377190e-02  -6.5263131081568946e-04 -4.4332028590133403e-03 -7.2486963959907356e-03  -3.9406064804205380e-02 -1.4651167251765922e-02 1.6990540027072578e-03  -3.8762804003888193e-02 -1.2836259910907633e-02 -9.0675498734191437e-03  -2.7961054666880134e-03 -1.5419687447903700e-02 -5.9978019084867256e-03  -4.5676466997576007e-03 -1.3131170676869895e-02 -7.5512571487983179e-03  -4.3320016720573553e-03 -1.7341622107769326e-02 -8.2437713287314956e-03  -3.9809368973896132e-03 -1.5209918423421571e-02 -7.7723144614391471e-03  -3.6200809249954001e-03 -1.2493061073157579e-02 -8.1125484616768641e-03  2.1209926422760808e-03 -1.1669618768830350e-02 -2.8030377638650732e-03  4.2030398722256234e-04 -1.3138573185862971e-02 -7.7124204008633822e-04  -3.9651346300109006e-03 -1.0206395432439451e-02 -6.1298647400896090e-03  -2.8107690386023677e-03 -1.0083116900203637e-02 -6.0935053214824812e-03  -7.8639597593131057e-05 -8.2434811744122212e-03 -4.5361539837573727e-03  -5.4687561929515167e-03 -1.9312834058991611e-02 -9.8720791246223582e-03  -9.9083087837262707e-03 -2.0648924652356924e-02 -1.3347093184795211e-02  -7.1421845388239796e-03 -2.1322363783902090e-02 -1.2402495193233770e-02  -2.7958854280666549e-04 -1.7463104125943759e-02 -3.8335350038362723e-03  -3.3136422469150673e-03 -1.6386839747471973e-02 -9.8654676283169429e-03  -1.8867200406200504e-02 -1.8155237867842310e-02 -1.6357332067394887e-02  1.8103605840666562e-03 -6.1994750910333496e-03 -1.2619423067413216e-03  4.4616124091706785e-03 -1.0204360661969192e-02 -1.9625605392461422e-04  -9.3723441041097005e-02 -2.1681348484852887e-02 -5.6721266278284607e-03  3.3498589290974264e-03 -7.7784128560929077e-03 -4.1133476715524888e-03  -4.4020395682482340e-03 -1.9871177647202989e-02 -8.9262757159458573e-03  -3.6716598429438114e-03 -1.8435614540938890e-02 -6.7440919742643548e-03  -2.7770306628674378e-03 -1.6562701950032965e-02 -4.8935422092624518e-03  -1.4348948344923682e-02 -2.3704741979473243e-02 -1.6346008060365087e-02  -2.5503397158169596e-02 -2.7905971025826766e-02 -2.1311849246757018e-02  -1.5243325960412890e-02 -1.9492721626474859e-02 -1.9350006644075469e-02  -1.2776197827907962e-02 -1.8036042867136910e-02 -1.5592460713372027e-02  -1.0348340621187035e-02 -1.4774618817035947e-02 -1.2940725135108844e-02  -9.9410131915138832e-03 -1.5634703727368141e-02 -1.4595657516040004e-02  -9.1766722789598538e-03 -1.7942127828973788e-02 -1.4538704836879961e-02  -1.1537260750583084e-02 -2.1685083300881338e-02 -1.7000761769526574e-02  -1.7334829931780739e-02 -2.6123835757508047e-02 -2.0510062417186337e-02  -2.1675059133241401e-02 4.2399657414577109e-02 7.4178942567405787e-02  -2.4001309749228421e-02 2.8348480849688988e-02 5.3324080990837311e-02  -3.4375612752389345e-02 2.9877146674476347e-02 5.8132781301263169e-02  -9.3900967380630296e-03 3.0273938436364497e-02 5.6303994142358094e-02  -3.2567564294018699e-02 3.0844396504540177e-02 5.7412892168187152e-02  -1.3721066078916003e-02 2.3687565814038518e-02 5.5774774582969755e-02  -1.9794125326532647e-02 3.7655435601336315e-02 7.2329786291039699e-02  -2.4631769726056619e-02 3.2702897266620248e-02 6.2547717005205644e-02  -3.6884961922889724e-02 2.7243774491422727e-02 4.7006537445530808e-02  -1.3103023560418958e-02 2.1051780831438466e-02 4.7206809536340218e-02  -6.2920120390485126e-02 -3.4701312855305186e-02 1.1233839865577216e-01  -7.9686502959646438e-02 -7.7767356462457679e-02 9.9771963731478078e-02  -5.5708481591934547e-02 -7.0345790029612887e-02 8.9604820149532111e-02  -6.7654759520894350e-02 -4.3980528536778800e-02 9.6692134407288119e-02  -6.8126716305461979e-02 -7.2919499641095314e-02 1.0258246458624838e-01  -8.7085133948980362e-02 -6.9123456337019759e-02 1.0149187372611601e-01  -3.8728380247055050e-02 -9.5448567992528655e-02 9.3137646376066335e-02  -6.8864789159162318e-02 -1.0256079017998097e-01 9.1495118125247701e-02  -9.9109332676265510e-02 -1.1541152828420020e-01 1.0781978351704787e-01  -6.6623350159070144e-02 -5.0163689789263471e-02 8.9829275383877263e-02  -1.0673654998412791e-03 1.3653407018164761e-02 1.5834277324848826e-02  -3.4207372130097704e-04 1.1062961822621049e-02 1.4530530102953144e-02  -5.2695538872515413e-04 1.3112133044847728e-02 1.5561238213807864e-02  -5.1631690668250952e-04 1.2487547211854850e-02 1.1945021849757908e-02  1.4258454847964472e-04 1.1293641361925812e-02 7.9801123031676743e-03  1.3212048363475795e-04 9.6650866642074909e-03 1.0531765143467861e-02  -1.5232304502767926e-04 1.1779905831036870e-02 1.1671569500334301e-02  5.6028614228834717e-06 1.2733592060639409e-02 1.5307341117847257e-02  6.3616994085288867e-05 1.0744822106156520e-02 1.4298410098676806e-02  -1.2311509682619743e-04 8.5035472914310566e-03 1.3235809518948287e-02  -1.9272968074055287e-03 2.2650891707559780e-03 -1.2572463808287774e-02  -4.7010023109638113e-03 1.2770429176820911e-03 -7.3759281385011805e-03  -8.2064343029643121e-04 1.0162609946448715e-04 -4.9574194616697357e-03  -3.8563826110710082e-03 2.5940120049214705e-03 -7.3002321809652682e-03  -1.7788626944026250e-03 1.1249257794921294e-03 -1.3257412157157873e-02  -5.3129970389000590e-04 3.6977426952446174e-04 -4.6620495089062736e-03  -4.4619991962304238e-03 5.3793871648315237e-05 -1.1932906187519073e-02  -3.4998131931814449e-04 -5.0715613278447074e-04 -1.3578641910394322e-04  -3.1305445763714006e-03 8.5246572322837698e-04 -2.5598416469768035e-03  -4.8502826485418114e-03 2.1143971074959835e-03 -3.6966320405352822e-03  3.3738398472074253e-03 8.9833629239535473e-03 2.8374958117488611e-02  6.9970247716024401e-03 9.6305429615105541e-03 2.7460941656236172e-02  8.2427387428547928e-03 1.0852723389935072e-02 3.2114955208415605e-02  5.4184966459670603e-03 1.1625082518969695e-02 3.0795745414743805e-02  2.4153027952488349e-03 1.6172474746413465e-02 3.3447234476333305e-02  8.8609219310693231e-03 1.0675008418478850e-02 3.2086536680341907e-02  5.3558562832911058e-03 1.1406423745306000e-02 3.0673028748869541e-02  8.8742783667927119e-03 1.3402417715309249e-02 3.5024146412642253e-02  1.2475698596035560e-02 1.3667325104290761e-02 3.3869115799698125e-02  8.4184930669490236e-03 8.6051942546492392e-03 2.7979250252584961e-02  -5.8137665035035563e-03 -2.0268189308271034e-03 -2.7