<?xml version="1.0"?>
<VTKFile type="UnstructuredGrid"  version="0.1"  >
<UnstructuredGrid>
<Piece  NumberOfPoints="13419" NumberOfCells="62925">
<Points>
<DataArray  type="Float64"  NumberOfComponents="3"  format="ascii">21.89048750225894 17.21746402473768 6.010966162953602  21.9591080263456 16.29211156534724 6.594462128800966  21.95308333476427 16.87949649750922 6.637411451685075  22.16492254019516 16.6211881161389 6.367228877029122  21.89651219384026 16.6300790925757 5.968016840069494  22.4393575781314 16.0249122075401 6.723491591104642  22.22751837270051 16.28322058891044 6.993674165760595  22.17094723177649 16.03380318397691 6.324279554145013  21.90253688542158 16.04269416041372 5.925067517185385  22.01567916726961 16.54152897028077 7.263856740416548  22.62552070617676 15.13006019592285 6.55479621887207  22.10296561954744 14.95943868710247 6.287638796362867  22.41838550567627 15.14447021484375 6.167507648468018  22.37961578369141 14.82746505737305 6.420557498931885  22.13371086120605 14.52486991882324 6.286318778991699  21.85706069706209 14.65684354855266 6.153400076422681  22.17248058319092 14.84187507629395 6.033268928527832  22.21125030517578 15.15888023376465 5.780219078063965  21.89583041904696 14.97384870602337 5.900350225958814  21.58041053291813 14.78881717828209 6.020481373853662  18.56743049621582 13.75069046020508 9.591569900512695  19.39861337880535 13.52293831252761 9.369581604518444  18.88083377946427 13.71950171056423 8.863784553544781  19.09762327413005 13.92944342040724 9.567136669673474  18.86842060089111 13.34418535232544 9.394014835357666  19.16941070556641 12.9376802444458 9.196459770202637  19.41102655737851 13.8982546707664 8.839351322705557  19.18182388413956 13.31299660268459 8.666229488389751  19.62781605204429 14.10819638060941 9.54270343883425  19.19423706271272 13.68831296092339 8.135999206576866  21.77664088735669 15.02882896692978 6.508704944600614  22.02254580984204 15.33142410547958 6.6429436645408  21.41957091350733 15.53278801503632 6.731091110209531  21.49999072321273 15.1608025966592 6.375786242031596  21.7036650442911 15.02694881512371 5.59306324819087  21.89592456817627 14.90261030197144 5.318624019622803  22.01908493041992 15.21198034286499 5.472932100296021  22.08808994293213 14.84951019287109 5.625910997390747  21.96492958068848 14.54014015197754 5.471602916717529  21.7726700568033 14.66447866512981 5.746042145285596  21.82691955566406 15.26508045196533 5.165645122528076  24.03187942504883 15.26751041412354 9.710575103759766  23.52920885130725 14.76273692345698 9.769887594205837  23.41167326018176 15.16303694939692 9.640548852903347  23.62720842406116 15.14513695931513 9.992450860959988  23.93387985229492 14.88511037826538 9.488011837005615  23.81634426116943 15.28541040420532 9.358673095703125  23.60080909729004 15.30331039428711 9.006771087646484  23.71834468841553 14.90301036834717 9.136109828948975  23.83588027954102 14.50271034240723 9.265448570251465  23.22253742307349 15.02276350450673 10.27432661816021  20.4667650382411 12.99935812187028 8.526714911378434  20.01845446693642 14.23253266745215 8.120455328836773  20.2352439616022 14.44247437729517 8.823807444965464  19.83050105047691 13.34383554139683 8.33135705897765  20.65471845470061 13.8880552479256 8.315813181237555  20.04729054514269 13.55377725123985 9.034709175106343  20.84267187116011 14.77675237398092 8.104911451096678  18.04789924621582 12.85072040557861 8.043774604797363  18.59716337222152 13.01314221834249 7.857977175440299  18.62106815446427 13.269516683251 8.089886905687115  18.24940794009261 13.12887250398702 7.69594171019982  18.39565467834473 12.73499011993408 8.205810070037842  18.74341011047363 12.61925983428955 8.36784553527832  18.96882358659317 13.15378639760647 8.251922370927593  18.4509166339694 13.40702460239543 7.348108815602277  18.82257684834106 13.54766878165941 7.742054011089571  22.16490386776039 15.87833419429507 9.96161574502754  22.21165371090823 16.12617063090635 9.362538535549035  22.368875381029 16.35099611128853 9.745623701837003  22.55977432915353 15.91457895167647 9.469866653795853  22.95464479054666 15.95082370905787 8.978117562564165  22.60652417230137 16.16241538828774 8.870789444317349  22.76374584242214 16.38724086866993 9.253874610605315  22.57284689429761 16.82365802828199 9.529631658646466  22.41562522417684 16.5988325478998 9.1465464923585  22.25840355405607 16.37400706751762 8.763461326070532  18.25985908508301 12.51231956481934 7.488379955291748  18.48702352541976 13.01280747865743 7.028630995478141  18.85746203315574 12.65373578852357 7.420285468980262  18.3553878595262 12.95967208360738 7.418244385447013  18.39149475097656 12.56545495986938 7.098766565322876  18.52313041687012 12.61859035491943 6.709153175354004  18.95299080759893 13.10108830731162 7.350149899135527  18.98909769904929 12.70687118357362 7.03067207901139  19.45506498122847 12.79515201222781 7.352190982668778  22.12545013427734 16.49790954589844 5.014445781707764  22.1399157960706 16.63488023227532 5.655258170424911  22.25137242049848 16.86248792501768 5.1999473026861  22.00796881826814 16.85768678531806 5.512705972330682  22.01399350984946 16.27030185315608 5.469756649446574  22.13389110448928 17.2222651644373 5.698207493309019  22.37729470671962 17.22706630413693 5.385448823664437  23.27686034773675 17.72123560108357 7.080517013491411  22.64626975750318 17.13138228568216 7.17218687695398  22.36415743266779 17.71081170308901 7.29585211717448  22.58367392499784 17.46934981291063 6.545741588222507  21.67097100992888 17.45892591491607 6.761076691905576  21.45145451759883 17.70038780509444 7.511187220857549  21.73356684243422 17.1209583876876 7.387521980637048  22.45681953430176 14.36577033996582 7.157674789428711  21.95857886787675 14.49802339845954 7.513237225403236  22.02527726742365 14.0829164819988 7.248852726383115  22.09159196468928 14.4026768045696 7.0432476963233  22.39050483703613 14.04601001739502 7.363279819488525  22.32380643748922 14.46111693385575 7.627664318508646  22.32419013977051 13.72624969482422 7.56888484954834  22.2574917402236 14.14135661128495 7.833269348568461  21.7263643950768 14.43958326917338 6.928820603217891  22.19079334067669 14.55646352774569 8.097653847588582  21.21809005737305 16.23041915893555 10.35280990600586  21.43811085468761 15.58026607959613 10.43134466955621  21.8904067220882 15.77999217801912 10.41831788609409  21.23920109516613 15.85465057819232 10.17023960897882  21.41699981689453 15.95603466033936 10.61391496658325  21.69149696256672 16.05437667661531 10.1572128255167  21.61590957641602 15.68165016174316 10.87502002716064  21.7126080003598 15.67860809587208 9.974642528489662  21.26031213295921 15.47888199744909 9.987669311951784  19.79700088500977 14.68006038665771 11.8273401260376  20.37020303337541 14.52435020765277 11.5064470134019  20.1728139682721 14.59477604672254 10.95064943874798  19.91996438941468 14.31779612347425 11.27520960415325  20.04985046386719 14.95704030990601 11.50277996063232  20.30270004272461 15.2340202331543 11.17821979522705  20.04292789381959 13.95553186029079 10.72307908226891  18.20722007751465 13.20604038238525 6.206081867218018  18.85808888573869 13.03911544934175 6.624833952936993  18.70013371606096 13.33284046307466 6.373298298869  18.32906835574202 13.30653249239034 6.777095341410147  18.36517524719238 12.91231536865234 6.457617521286011  18.82198199428833 13.43333257307975 6.94431177306113  19.19304735460727 13.45964054376406 6.540514730519982  21.58411026000977 16.01910018920898 4.968634128570557  21.18234152630466 15.56037250256402 5.107409162353289  21.54595470428467 15.40148544311523 4.859703540802002  21.70551490783691 15.64209032058716 5.067139625549316  21.34190172985691 15.80097738003594 5.314845247100603  21.42455005645752 15.77849531173706 4.761198043823242  21.26498985290527 15.53789043426514 4.553761959075928  21.46330637768406 15.42396751141412 5.413350744079363  21.09969319970405 15.5828545708629 5.661056365630651  23.90933990478516 16.08157920837402 9.314094543457031  23.04528047098974 15.99988153172081 9.491821854607359  23.36836262436143 15.67612487433543 9.506148617148519  23.43199234766591 16.01620145871594 9.146106053010598  23.52262802810899 16.06525928137889 9.659810345053792  23.7550745010376 15.69244480133057 9.160432815551758  23.27772694391835 15.62706705167249 8.992444325105325  23.13591615143282 16.04893935438375 10.00552614665055  21.43358408524638 16.22344307171216 8.241108961753511  21.59379196307979 15.12537822892837 8.231250151911771  21.53593120874346 15.62913052810986 8.659513719071379  21.88924807012292 15.84872357779399 8.299348907240187  21.13812797820324 15.50009772284654 8.173010206425094  21.24047510170033 14.90578517924424 8.591414963742963  22.34491205499946 15.47400408387582 8.357588852726865  21.99159519362 15.25441103419169 8.717753664558057  21.63827833224054 15.03481798450756 9.077918476389247  20.52803486119541 15.99798054955503 5.004450342077757  20.64714335842964 15.5552858856236 5.207621633014398  20.72979168503026 15.53280381732472 4.653974429737036  21.06323302907042 16.00306716649544 4.904237871416648  20.98058470246981 16.02554923479433 5.45788507469401  20.86147620523558 16.46824389872575 5.254713783757369  20.19459351715524 15.5277172003843 4.754186900398144  21.0862455368042 16.6798152923584 9.825624465942383  21.39141464663854 16.23241053443414 9.854950141221762  21.35774040222168 16.52164459228516 10.12969923019409  20.94659519195557 16.38858985900879 10.04873514175415  20.67510032653809 16.54676055908203 9.744660377502441  21.11991978122106 16.39058123450739 9.550875376970053  21.49739074707031 16.81287002563477 9.906588554382324  21.53106499148717 16.52363596778375 9.631839465409994  21.56473923590402 16.23440190993274 9.357090376437665  21.76328945590367 16.81049071174127 9.482310485154867  21.32353973819127 16.67478571753961 9.279316138536215  21.52208995819092 17.25087451934814 9.404536247253418  21.72961521148682 17.09972476959229 9.757059574127197  
[...]
<PointData  Scalars="p_O2"> 
<DataArray  type="Float64"  Name="p_O2"  format="ascii">9.9973927035548471e+01  1.0000738274614307e+02  1.0003049436073871e+02  1.0000614863108554e+02  9.9992919177921536e+01  9.9987475758841683e+01  9.9978007800252840e+01  9.9972272618342444e+01  9.9993477596674850e+01  9.9982577436049979e+01  9.9989981899575909e+01  1.0000183126844180e+02  1.0003324588405206e+02  1.0007567690327382e+02  1.0002676805111811e+02  9.9940749147391969e+01  1.0004974229236143e+02  9.9997040402205627e+01  9.9959987625938169e+01  9.9934494956377904e+01  1.0007056313137457e+02  1.0004992050483698e+02  1.0002313841832049e+02  9.9951393627210464e+01  9.9945478900222071e+01  1.0001031533158094e+02  1.0000741906116681e+02  1.0004964705872081e+02  1.0000917598637096e+02  1.0000438944180911e+02  1.0000611473360131e+02  9.9969609460678527e+01  9.9964560522358326e+01  1.0003146438516343e+02  9.9954345474406992e+01  1.0008816616862785e+02  1.0008455536021084e+02  1.0011881072611955e+02  9.9999675988601751e+01  1.0000131510576882e+02  1.0005294570313930e+02  1.0000899599320644e+02  1.0001381223916961e+02  1.0000232239424692e+02  9.9979643525138115e+01  1.0000147844910317e+02  1.0002739816723771e+02  1.0000699601733966e+02  1.0003919932587912e+02  9.9988693260548672e+01  1.0000099893136318e+02  9.9989796329612190e+01  9.9954356561633006e+01  1.0001585447126483e+02  9.9925268538728929e+01  9.9998804984382502e+01  1.0003876764680183e+02  9.9990519684030033e+01  1.0004995750676984e+02  1.0001718970487200e+02  9.9969271893897087e+01  1.0004341050570177e+02  9.9998170731258284e+01  9.9960350303284613e+01  1.0008397173666916e+02  1.0002696780215263e+02  9.9989821652337383e+01  1.0001008429846877e+02  1.0000366520375991e+02  1.0000696931298036e+02  9.9991808733685033e+01  9.9982461646620663e+01  9.9967473911410224e+01  9.9982826170022264e+01  9.9983794831141736e+01  9.9973728311788093e+01  9.9996223391251434e+01  1.0002461163289955e+02  1.0006924762300083e+02  9.9919772786715242e+01  1.0010860411202326e+02  1.0003607337443059e+02  1.0003119374477264e+02  9.9962728404140705e+01  9.9948554351098338e+01  1.0001450676195395e+02  1.0000971861411800e+02  1.0003198203002876e+02  9.9932058544654026e+01  9.9991763577346504e+01  1.0004406855412384e+02  1.0006145912070883e+02  9.9998314858847024e+01  9.9977486930844123e+01  1.0002808684213662e+02  1.0005253614514210e+02  9.9960875876770928e+01  1.0004778643768555e+02  9.9976347074030357e+01  9.9975525327499014e+01  1.0002116428105842e+02  1.0001794614350960e+02  1.0001669989909938e+02  9.9998277840939494e+01  1.0006648697447126e+02  1.0000965669379308e+02  1.0000967147051043e+02  1.0000946155726746e+02  9.9975533897259311e+01  1.0000078704604971e+02  1.0000432128803405e+02  1.0000929695090396e+02  1.0000534700131757e+02  1.0001961719882529e+02  1.0000991491410765e+02  1.0000341374471738e+02  1.0000646910139726e+02  9.9993983194510292e+01  1.0001251741762606e+02  9.9983249548517747e+01  1.0003327561435660e+02  1.0002812570244183e+02  1.0000959454967966e+02  9.9914525082927852e+01  9.9973430838016114e+01  1.0002331063151578e+02  1.0003146631336575e+02  1.0003050767617860e+02  9.9937843935416183e+01  1.0002221879022419e+02  1.0004270769429925e+02  1.0000330529293980e+02  1.0004150426698787e+02  1.0002449456874879e+02  1.0000439182062986e+02  1.0011478372243950e+02  1.0009505644138115e+02  9.9943261552591849e+01  1.0023859194163288e+02  1.0002280048319199e+02  9.9913339215328847e+01  9.9962285456353101e+01  1.0001071288556255e+02  9.9990405397962519e+01  9.9999085269909443e+01  9.9965971960876843e+01  9.9987028036488525e+01  1.0002962984621479e+02  1.0000594996648653e+02  9.9990305407316427e+01  1.0000387324019161e+02  9.9990633879367650e+01  1.0002761169498427e+02  9.9980036264483431e+01  1.0005636164482148e+02  1.0000007575855678e+02  9.9985605004683904e+01  9.9993234852392405e+01  1.0001351578704312e+02  1.0004715679262539e+02  9.9971133871515278e+01  9.9895323480840105e+01  1.0004772025269942e+02  9.9967997384752238e+01  9.9980497845742391e+01  9.9995694425865423e+01  9.9958091388262133e+01  1.0000895183753096e+02  1.0000462287371617e+02  9.9970214456909957e+01  9.9977725095529181e+01  9.9993105052505868e+01  9.9994785606934002e+01  1.0001028459590816e+02  1.0000479780346529e+02  9.9994322346601180e+01  9.9996691344208585e+01  9.9933729504799913e+01  9.9980904682309458e+01  9.9969344236574983e+01  9.9976841280375254e+01  9.9986609679452670e+01  1.0005411197200628e+02  9.9986389645674961e+01  9.9848670135996485e+01  9.9949697497929947e+01  9.9884256022186449e+01  1.0003397238679555e+02  9.9946456063447087e+01  1.0023425774630877e+02  9.9897851091820513e+01  1.0003981995539961e+02  9.9857065412195908e+01  9.9982002437066555e+01  9.9970199556952679e+01  1.0004352641506470e+02  9.9969443842103260e+01  9.9977286843748033e+01  1.0000626946929378e+02  9.9971533903931416e+01  9.9969083817523938e+01  9.9915825244414478e+01  9.9893016540967665e+01  1.0001377902693410e+02  9.9998075849267082e+01  9.9972132291570063e+01  9.9975906404329891e+01  9.9975074565573351e+01  9.9982119794837004e+01  1.0002177150735102e+02  9.9986982762881141e+01  1.0000014852743732e+02  9.9981936117908575e+01  9.9983384988730904e+01  9.9958770154176392e+01  9.9974622912423555e+01  1.0000657604757359e+02  9.9955138050401274e+01  9.9902705162242071e+01  9.9932121751940585e+01  9.9894559252733913e+01  9.9978182598391868e+01  1.0000113946496289e+02  9.9927283295735151e+01  9.9977826212581590e+01  1.0001610865798160e+02  1.0001778094820772e+02  9.9985783127433749e+01  9.9928010075084671e+01  1.0004142536791498e+02  1.0003452638319391e+02  9.9995494037765610e+01  1.0004289181526450e+02  1.0002289012843886e+02  1.0002086269311692e+02  9.9944363095201467e+01  9.9961064694993965e+01  1.0003222581014444e+02  1.0007008398325132e+02  9.9990602634398925e+01  9.9935348202371500e+01  9.9993121342396023e+01  1.0001019465188197e+02  1.0001115100106840e+02  1.0005715289962076e+02  9.9975775984476542e+01  9.9986080741783070e+01  9.9926404757469840e+01  1.0000222066032853e+02  9.9996938144357799e+01  1.0001004627047998e+02  9.9994470227219679e+01  9.9991879758171635e+01  1.0000364312136473e+02  9.9993551489247920e+01  9.9961283807111641e+01  9.9987856030875719e+01  9.9984800563623764e+01  9.9991142197883903e+01  1.0001604524047340e+02  9.9998901873312164e+01  1.0000128541066134e+02  9.9995307670594016e+01  9.9987956861104905e+01  9.9968335737035190e+01  1.0004059703440994e+02  1.0000052645817313e+02  9.9982337673881545e+01  9.9966541963614702e+01  1.0001179141046293e+02  9.9971076149322386e+01  1.0002650272218432e+02  9.9998371151320072e+01  9.9966604012607959e+01  9.9990602318310820e+01  1.0004019371690454e+02  1.0002051001347550e+02  9.9990992935468498e+01  9.9998005906230148e+01  9.9987071597917847e+01  9.9996169659233516e+01  9.9999774353350873e+01  9.9978080144020396e+01  9.9973867028095952e+01  9.9980931015063405e+01  9.9978568240881529e+01  9.9984619116475159e+01  9.9992178849757650e+01  1.0001328313825108e+02  1.0000023215848445e+02  9.9971817936378670e+01  1.0000889695668377e+02  1.0005888231898038e+02  1.0003869533772614e+02  9.9993565338358025e+01  1.0001767558627267e+02  1.0001329252927084e+02  1.0002865205369045e+02  9.9992565359592163e+01  9.9982942650971168e+01  1.0001803571638438e+02  9.9985168684698465e+01  1.0003179337968875e+02  1.0000103248549320e+02  9.9923097056048590e+01  9.9983559176172534e+01  1.0000638499735138e+02  1.0001296514393928e+02  1.0003181837325903e+02  1.0001336476299669e+02  9.9987968514061592e+01  9.9981580475941172e+01  1.0001561219325684e+02  9.9982474639527268e+01  1.0001004194600850e+02  1.0002802591233036e+02  9.9985420372222819e+01  1.0002338596146446e+02  9.9998020753779912e+01  1.0000790636885256e+02  9.9977436158163115e+01  9.9993085852699494e+01  9.9981465286925101e+01  9.9998875835383657e+01  1.0000989680917252e+02  9.9991915594703769e+01  1.0000649551983376e+02  9.9999590540385952e+01  1.0001410492766932e+02  1.0001746566477073e+02  1.0002001792716368e+02  1.0001980785876577e+02  1.0001670864297689e+02  1.0001893752548605e+02  1.0000950495971674e+02  9.9987829323425231e+01  9.9985527584954241e+01  9.9999226999021033e+01  9.9952946672325254e+01  9.9994906920075351e+01  1.0000577184485607e+02  1.0002518993782108e+02  1.0000514795765430e+02  1.0000409677126888e+02  1.0002881243325554e+02  1.0000948916108207e+02  1.0002728828492786e+02  1.0001379266617825e+02  1.0000589295492875e+02  1.0001530388547852e+02  9.9990446583211721e+01  1.0006128172427231e+02  1.0005559454418457e+02  1.0002191644779256e+02  1.0001368475180526e+02  1.0007685348989044e+02  1.0001296355258950e+02  1.0003052663558839e+02  1.0006986755230945e+02  1.0002122019091590e+02  1.0001247364429192e+02  1.0000361717507880e+02  9.9987987645938944e+01  1.0000583965682385e+02  1.0001508805346695e+02  1.0002315723262640e+02  1.0000842752098339e+02  9.9979256979750318e+01  1.0005376109645782e+02  1.0004052662901003e+02  9.9972188502006205e+01  1.0009417030280191e+02  9.9968006849584256e+01  9.9992459091321663e+01  9.9967625484650227e+01  9.9936318617863279e+01  9.9987624673457390e+01  9.9984926002081224e+01  9.9999278859319418e+01  9.9991669917211766e+01  1.0003919555606160e+02  9.9962873786974740e+01  1.0006688624228426e+02  1.0002726746344949e+02  1.0001620515493191e+02  1.0007834839045995e+02  1.0009664868446974e+02  1.0002343284106821e+02  1.0001097811929337e+02  1.0000104675050027e+02  1.0002239213808535e+02  1.0000387720117828e+02  1.0000156395017216e+02  9.9992831223551846e+01  9.9958766931793235e+01  9.9991513359428140e+01  1.0000722350262630e+02  1.0000714208206587e+02  1.0006356315182704e+02  9.9996949731975761e+01  1.0004248247387262e+02  9.9995919414761360e+01  1.0000530745771545e+02  1.0001830866381965e+02  1.0006126629055859e+02  1.0006535627344952e+02  9.9994225466001552e+01  9.9997354782528959e+01  9.9987682178830767e+01  9.9978406974690841e+01  1.0004506490668697e+02  9.9995684687477137e+01  9.9999077549195178e+01  9.9982123188009254e+01  9.9986861480993042e+01  1.0009825165562987e+02  1.0000163710953245e+02  1.0000473342481406e+02  9.9997696521724194e+01  9.9983287356005761e+01  9.9974762216384590e+01  9.9977329032260698e+01  9.9976989956411757e+01  1.0003560124736337e+02  9.9991180004742745e+01  1.0003310739024656e+02  1.0001410615523810e+02  9.9993929631329394e+01  9.9997937014405721e+01  1.0002546647858665e+02  9.9972257461838879e+01  9.9985074858129238e+01  1.0002387548694195e+02  9.9959893237725979e+01  9.9992556700749986e+01  1.0000413529354685e+02  1.0002349705914494e+02  1.0001480111549188e+02  9.9935378833881501e+01  9.9980585068615042e+01  1.0007456342697222e+02  9.9981327480618177e+01  1.0001632453042774e+02  1.0006242556123767e+02  1.0001479215685534e+02  1.0002652961548003e+02  1.0002296170585919e+02  1.0005316110693278e+02  1.0000539267128964e+02  1.0014636466892790e+02  1.0007663239566766e+02  9.9979569969722306e+01  1.0008234720629616e+02  1.0012904806810563e+02  1.0017500692436990e+02  1.0001545194306755e+02  9.9996241425937214e+01  9.9847498637493445e+01  9.9900800949126790e+01  9.9912689299567916e+01  9.9943692311610164e+01  9.9990106167309946e+01  9.9957387359928390e+01  9.9940290735866995e+01  1.0002434146306503e+02  9.9928897598416825e+01  1.0000702377363992e+02  9.9978730195276611e+01  9.9991897034550419e+01  1.0000103615512882e+02  1.0001815287801745e+02  1.0002658598775297e+02  9.9962885736715407e+01  1.0014187862776210e+02  1.0004916695017525e+02  1.0011343146128304e+02  1.0011612490524507e+02  1.0002842877842185e+02  9.9994544943830647e+01  9.9992493907627590e+01  1.0000063535179288e+02  1.0001035594582633e+02  1.0005220260279191e+02  1.0003036887024092e+02  9.9997057267186221e+01  9.9981693010541946e+01  1.0001783329598894e+02  9.9996057012449683e+01  1.0000399525448607e+02  1.0002044829124159e+02  9.9978124107539870e+01  9.9990355584041581e+01  9.9974185858778156e+01  1.0001611768184212e+02  1.0002267962802601e+02  9.9984718920908222e+01  9.9993149279314011e+01  1.0001725583412208e+02  9.9891247653731227e+01  9.9883657101654464e+01  9.9930750530065467e+01  9.9962474461595221e+01  1.0002387957500612e+02  1.0002712937193357e+02  9.9970549321453703e+01  9.9981451017012333e+01  9.9973825836293642e+01  9.9930314129089439e+01  1.0001518607479298e+02  9.9989184682493658e+01  1.0001862416062198e+02  1.0002058845612129e+02  9.9936737536824126e+01  9.9954379992276984e+01  9.9929365227504718e+01  9.9932908905081888e+01  9.9937652992686282e+01  1.0004506011487655e+02  9.9963445734061509e+01  1.0001679233177046e+02  1.0002069443430513e+02  1.0003391830511161e+02  9.9875989516695483e+01  9.9923134163313961e+01  9.9938085594364608e+01  9.9955535042436935e+01  1.0005106373843192e+02  1.0005485998288580e+02  9.9985666551158076e+01  1.0000901619178063e+02  9.9969235376569529e+01  9.9911999054852771e+01  1.0003868769215906e+02  1.0005039141595825e+02  1.0000758364858481e+02  1.0009282603572943e+02  9.9986905548184268e+01  1.0008124292690441e+02  9.9970662241035299e+01  9.9916056055554151e+01  9.9992384344003696e+01  9.9996054783298959e+01  9.9989208329951978e+01  9.9953411064624405e+01  1.0001489825089750e+02  9.9973330030179582e+01  9.9950232696941541e+01  9.9920347301458960e+01  9.9839992283312029e+01  9.9929141215779310e+01  1.0015062094771343e+02  9.9983775529003978e+01  9.9991838564425322e+01  9.9948506719077912e+01  1.0002821849752087e+02  9.9994531803166467e+01  1.0001208765803429e+02  1.0000156292433805e+02  1.0000860589804950e+02  9.9990403597618823e+01  9.9992991555453969e+01  9.9997211080683329e+01  1.0002957816088777e+02  9.9982030819846244e+01  1.0002887248515384e+02  1.0002193695545317e+02  1.0004870396018343e+02  1.0002443661548048e+02  1.0003134596422073e+02  9.9998985656627710e+01  1.0000412877969215e+02  9.9963078679632105e+01  9.9996960470587609e+01  9.9998267841202292e+01  1.0001230150071214e+02  1.0000611122476001e+02  1.0000330131470824e+02  1.0002799975251909e+02  1.0000347547381556e+02  1.0006836209465989e+02  9.9972179767109594e+01  1.0000690943530167e+02  9.9997981201582192e+01  9.9939997407333038e+01  9.9955000716000626e+01  9.9991552164636261e+01  9.9989552335737599e+01  9.9977659085410323e+01  9.9991033088103322e+01  9.9971051429860353e+01  1.0000008226229754e+02  1.0000561189580415e+02  1.0004255956782730e+02  9.9951825334417890e+01  9.9996365209583530e+01  9.9987792025528023e+01  9.9983553997437554e+01  9.9982428654236315e+01  9.9987025405174094e+01  1.0002203584274548e+02  9.9980912071061553e+01  9.9997240783714261e+01  1.0000627647189712e+02  9.9994121727200834e+01  1.0000054854403878e+02  1.0001744563455127e+02  1.0000561784276609e+02  9.9989497138899310e+01  1.0006309284481942e+02  9.9789008547666285e+01  9.9907391290115669e+01  9.9829012718536376e+01  9.9901368018378378e+01  9.9930954109133708e+01  9.9992783790243735e+01  1.0000773784698946e+02  1.0001333921711364e+02  1.0000639817200236e+02  1.0002342441987467e+02  1.0001886129046495e+02  9.9978905801510280e+01  1.0002010490535372e+02  1.0000709903768625e+02  1.0000162719021237e+02  9.9990663395056927e+01  1.0002271330725669e+02  9.9948515689958612e+01  1.0004362681169957e+02  1.0000299104039749e+02  9.9960222399453698e+01  1.0018110435630625e+02  1.0009336176994763e+02  1.0001598288852146e+02  1.0001599031235939e+02  1.0001445583003796e+02  9.9971619076130565e+01  9.9993029749044354e+01  1.0001091635517757e+02  1.0002402011398249e+02  1.0006301171148365e+02  1.0001385317530851e+02  1.0000010769144789e+02  1.0000236018667097e+02  9.9992875045812013e+01  1.0000322267860194e+02  9.9977859005686412e+01  9.9991902942710297e+01  9.9998706405446029e+01  9.9986703941847225e+01  1.0000754029089838e+02  9.9993752904423360e+01  9.9989965890612766e+01  9.9988015982194227e+01  9.9959272582508731e+01  9.9976548812993983e+01  1.0000920998782972e+02  1.0000919071400878e+02  1.0000496454062989e+02  9.9954964541280106e+01  9.9997522230857442e+01  1.0001109619370150e+02  1.0000914257335606e+02  1.0004120565981083e+02  9.9988089435183937e+01  1.0002389806480909e+02  9.9974955021282497e+01  9.9992071499131697e+01  1.0001594905307194e+02  1.0000171616250093e+02  1.0005041825574425e+02  1.0003900331239375e+02  1.0008302096441842e+02  9.9997600000902736e+01  1.0001273314742797e+02  1.0000650766846363e+02  9.9971502736246208e+01  1.0000812754007832e+02  9.9976664283528891e+01  1.0005730106776781e+02  1.0002663781289164e+02  1.0001396617514993e+02  1.0000728126702960e+02  9.9982607785656839e+01  1.0003496685625761e+02  1.0001852160324017e+02  1.0001862220917717e+02  1.0004198402484495e+02  1.0002688721330719e+02  1.0003450845108081e+02  1.0003109670515998e+02  1.0002275963273345e+02  1.0001756127374985e+02  9.9954734383052696e+01  1.0013626983647795e+02  1.0001580122596211e+02  1.0010672427753471e+02  1.0005160440801461e+02  9.9991425669864753e+01  1.0003469542910638e+02  9.9971826424583810e+01  9.9989248979960919e+01  9.9866923884892387e+01  9.9988837323346502e+01  1.0003018531428891e+02  9.9993981626773788e+01  1.0006205933578958e+02  9.9997359913937288e+01  1.0003199022079919e+02  1.0000014932099329e+02  1.0000405750238593e+02  1.0003582325023818e+02  1.0001876604876819e+02  1.0005108581867259e+02  1.0005069143520267e+02  1.0001365295757940e+02  9.9993135221611340e+01  9.9992608580604525e+01  9.9905629329366832e+01  9.9973056375658743e+01  9.9999877412461586e+01  1.0001769615132268e+02  1.0001430682181244e+02  9.9967733293520013e+01  1.0002888924408367e+02  1.0004358733159314e+02  1.0000210091660063e+02  1.0001170071107485e+02  1.0001788668584423e+02  1.0000484970013358e+02  1.0001692948329455e+02  1.0013656274943135e+02  1.0005463943539266e+02  1.0001138616042030e+02  9.9978378296217244e+01  9.9983748380060419e+01  1.0001378507856882e+02  1.0003236863710644e+02  9.9977144833584646e+01  9.9979326937399733e+01  9.9966684728275268e+01  9.9980130923620379e+01  1.0002813205755420e+02  1.0002074384911634e+02  9.9909321184650096e+01  1.0000011694301712e+02  9.9997174697604251e+01  1.0001087358781517e+02  1.0004186559534941e+02  9.9876170207487434e+01  1.0005061341858232e+02  1.0002733630855349e+02  9.9996300276402522e+01  9.9957453258590036e+01  9.9941275121800672e+01  1.0000070865220253e+02  9.9994141500521224e+01  9.9980750809463984e+01  1.0000142817220129e+02  1.0006244261733487e+02  1.0000123955030364e+02  9.9993519822468784e+01  1.0004160690317062e+02  9.9960414056186366e+01  9.9983134151959007e+01  9.9992337220453393e+01  1.0000101911749411e+02  1.0000606527402569e+02  1.0002101871350392e+02  1.0002527541346714e+02  1.0000588539563873e+02  9.9986207172287564e+01  1.0000273103471389e+02  1.0011080282511745e+02  9.9970375379390489e+01  1.0004485048068697e+02  1.0004430866881889e+02  9.9919131834740440e+01  9.9874722386482972e+01  1.0001234166623136e+02  9.9992450829834510e+01  1.0003589658139282e+02  9.9972784533415577e+01  9.9967272519808077e+01  1.0002218278827537e+02  1.0001049900700475e+02  9.9976751303681610e+01  9.9983242926931183e+01  1.0002933252942790e+02  1.0002358113153315e+02  9.9962651061028794e+01  1.0000175306191539e+02  9.9875619402091388e+01  9.9933543871630974e+01  1.0005551110641994e+02  1.0001586527565935e+02  9.9976101625356108e+01  9.9916738295983464e+01  1.0000587013123089e+02  1.0011276234423190e+02  1.0020864557682897e+02  1.0000739685657138e+02  1.0001840171686608e+02  1.0002373744616938e+02  1.0000665248925499e+02  1.0004520537075663e+02  1.0000460489105475e+02  1.0000797520573789e+02  9.9969625294982492e+01  9.9994396491434813e+01  9.9996800762738204e+01  1.0002524434596855e+02  1.0003078904380429e+02  1.0007942338526045e+02  9.9993303615117767e+01  9.9871168531535375e+01  9.9781072109823327e+01  9.9924921907031646e+01  9.9909034736588296e+01  1.0004585668368226e+02  9.9984756988851615e+01  1.0003368308527732e+02  1.0000568747490880e+02  9.9907751880034610e+01  1.0006592296206151e+02  9.9974849007564188e+01  1.0005695101071815e+02  1.0003589938515407e+02  9.9978841997846899e+01  9.9996866460501494e+01  1.0000988255720878e