<?xml version="1.0"?>
<VTKFile type="UnstructuredGrid"  version="0.1"  >
<UnstructuredGrid>
<Piece  NumberOfPoints="2374" NumberOfCells="8554">
<Points>
<DataArray  type="Float64"  NumberOfComponents="3"  format="ascii">3.491737 24.333311 38.653694  3.763129410559318 23.72554154065291 36.23772721655934  4.600878406467806 23.70129615299237 38.20827648052114  2.607065 23.326437 38.215244  21.875109 29.693321 27.174175  23.248989 30.274828 26.663322  22.69297733705231 30.52345182579761 28.57738909344157  23.98835938662714 29.4754134603602 27.76430797303302  0.603087 37.120468 38.408585  0.840201 38.402462 39.102985  1.784479158640057 37.52984042831012 38.7158587054848  1.283072151409495 37.95290740074805 37.74073669664242  16.79941424799168 24.60460649313291 23.17113876084336  18.146114 22.903234 22.726053  19.2397300105064 23.94790921680569 22.3875312646937  18.49419130302256 24.19161074413307 24.10587986579632  12.17979 19.551338 25.942934  13.175875 19.469131 25.57136  13.08130061751723 18.00038007476514 24.92425460592401  11.56694902066717 19.32501785234147 24.89493636516489  17.094559 22.791235 21.863554  15.72875411876159 23.50856259587203 21.45128056831344  17.89846943049611 24.11819751425848 21.33414985808046  20.34217540441008 30.94176115095182 28.07369951504002  21.860861 30.978186 27.049639  20.548445 30.556133 27.165522  20.226061 16.045265 30.431065  18.601713 15.650207 30.505194  19.187529 17.158514 30.720884  18.56398782553488 16.35153669187024 29.43790809359852  21.401131 20.9091 30.133209  21.824112 22.1346 30.577898  21.801973 20.832096 31.250626  23.52343056057761 20.84486543641665 30.10634614645468  21.037849 22.780125 22.652899  21.377769 22.56448 23.650848  22.206396 22.069073 22.684021  22.337645 24.037346 22.15365  24.4331032782854 19.10334070084133 32.84325518244611  26.11516882444566 21.34532548574294 32.51288702110441  26.01870860464278 21.01607144239694 34.2206792758689  25.83888365107529 19.02745405254516 31.99768249309716  10.73988342026573 34.59715082409032 33.60318708036579  10.13628703520688 35.95558630749017 32.97296975323494  11.91410490186142 35.89788233028639 34.51999081214717  11.49963691198201 36.45251480971842 32.89944086236505  12.865725 30.549925 31.58032  14.461902 30.250158 30.963356  14.478126 31.437176 31.173027  14.24962610243645 30.4537177766633 32.45074226159696  7.457604497486559 35.0196921044006 31.02297966678735  8.239817940784576 33.73526054058998 33.66484733007432  6.064605576299736 34.74651541576341 32.59896136681805  6.531255504545751 32.76130078689942 31.47900942603741  15.879499 9.88095 27.863424  14.30091457628605 10.78207968885675 27.88434519251815  14.40276155437471 9.185214808890127 28.14947118965172  15.219549 9.679304999999999 28.893991  10.86953508453429 26.16772754504927 27.25014401375098  9.744802732829816 27.76499425316915 28.22804614957508  10.248037 27.151585 26.049356  8.949819 27.23411 27.524057  0.02680700000000003 23.550537 27.819399  0.764763 22.644672 27.826822  1.664134621025515 23.37633461093433 26.75038887463403  1.756580265155169 22.93406388867158 28.02831800347363  2.653628 34.847507 30.597332  3.485443 34.419056 31.911306  1.973563 34.609741 32.497864  2.120902974201627 33.32629723265568 31.73956793842947  13.13854127723309 11.1159699495441 25.00718419066072  11.884646 12.087271 23.012318  11.16199419227807 11.26452199530272 24.07112222411918  12.5947391777735 12.92134602632377 23.84462202154605  27.617762 21.916403 28.782112  27.282631 23.306063 28.261587  27.671703 22.244009 27.64992  26.48124165100097 22.24405384901802 29.04610192786879  3.707137 39.328079 38.692787  4.611993 38.583508 37.834431  4.673864 38.350456 39.263859  3.253054083885039 37.75843972253169 38.73667112377554  16.277306 32.788628 34.270859  16.746464 31.885647 34.939095  16.67862486818228 31.28967246771138 33.33260411050047  17.69310615378565 32.34942627569119 34.08534203347786  5.763709 29.472672 30.982405  4.219729410099634 28.07297453785526 31.86070609598556  4.758743316715847 29.50455105324741 32.60526506221306  3.691202405051743 29.29849904717437 30.83337410969204  11.119224 32.906277 34.245434  12.305717 33.807682 34.295013  12.383677 32.112816 33.60722  11.55352397110689 33.04289778195716 33.0581139535344  4.921835 33.540028 26.260792  5.03504 33.560276 25.179058  3.9426 34.028347 24.826385  4.371099990713065 35.67092091712594 26.13706810087084  21.426325 26.159191 28.186615  20.921843 27.15448 27.858118  20.629951 26.226082 28.911295  21.43650944182444 27.43567116581838 28.67323650471103  13.078354 24.638405 24.720684  13.738943 24.7232 24.290228  13.68289705312351 24.1420276043081 24.8510587093889  13.21621241994345 23.81973047003651 24.27589785328621  5.547022 23.122042 34.558323  5.947637 24.186884 35.470734  5.812864 24.260544 34.201469  4.540649036872873 24.94704293019029 35.32844184172298  16.264322 26.657925 26.440674  16.011839 25.736786 25.350739  15.989194 27.281675 25.012581  17.56483557456625 26.0839199657307 25.48762804718453  20.856035 17.42239 32.275009  22.17009456140849 18.80845296123536 33.58611903216813  21.35108141854242 17.08093916846398 34.19362378749199  23.12940742595719 17.19336480911176 33.02110421049332  19.363241 15.492702 28.212431  20.403065 16.309216 27.926426  18.88758713550765 17.5443077596264 28.55238054639297  22.4640234392994 33.58014088754311 29.98313970488231  23.37087909792902 32.4823262364006 31.95363559435039  21.94083982636654 32.00002900060284 31.59040340472844  23.40427245760558 31.83577251959085 30.19039021136287  6.677454 31.441936 39.389454  6.478061 33.132816 39.990357  7.874747 32.282337 39.990357  7.380348530048219 32.90377804932274 38.21144286874158  6.567558 17.009865 30.984125  5.517309 17.640806 30.691559  6.845605 18.20541 31.181265  6.52234222462245 18.43862054557491 29.6537930143415  26.390989 28.178122 30.783493  26.639238 27.888723 29.536324  25.18293509859707 26.83799338363055 30.36774849311921  24.81014412577453 28.79609696063112 29.53874018650403  4.847517 34.685501 38.791553  5.759671865949858 36.64160670622064 38.26573376802241  4.291849 36.015755 39.339779  6.075333 35.148335 39.990357  9.19318 34.426727 39.990357  7.733386709034172 35.40763802979601 38.05642941776812  9.124724300762058 33.89022761670225 38.43664314899475  7.858265 33.979588 39.990357  13.425848 18.029024 23.109835  14.720148 17.577374 23.091503  13.85383485821176 16.30846832115598 23.8568315871984  5.927545841203485 37.44252580808571 26.4088136695961  5.628606 37.675838 24.062458  4.067003756204165 38.15822251054711 24.79860677123283  6.564009 37.759037 25.363991  12.606518 13.174052 22.527735  13.021832 11.549407 22.873644  14.25640540768064 12.56220990984307 23.23308371632143  24.683931 40.003617 24.97451  25.515766 40.003617 26.41625  23.736696 40.003617 26.202049  25.27648990268477 38.27765366193208 26.25954402500962  2.076619 22.254501 30.698639  2.437979 21.347383 31.806593  3.682052350732664 22.81856774399645 32.47707875580636  2.481176506574315 23.57548020685159 32.07802426603327  5.641459 30.48027 39.09779  7.864541697810786 30.85275924752638 38.55904670099615  6.261143575698088 30.34089319402128 37.62596112594539  5.94495 26.291397 32.892464  5.867522 24.893793 32.951851  4.047499738892058 25.66750972076643 33.69044783721145  4.156026434022519 25.92491430340069 31.57538140784649  13.98639295630729 22.32551205816349 23.72124214641227  13.274985 22.312054 22.47353  12.71248807030971 23.15502946159068 23.76434376548295  13.82578608523117 23.47759654008759 23.34652563012695  19.973347 38.413609 24.692127  21.09711383281632 37.34906775640901 25.91782431944432  20.816755 37.494129 24.754929  20.60156288414963 38.87619631313602 25.33120629819327  4.46014 26.551758 29.028824  4.208613 27.961252 29.338703  3.162722642184209 25.96664364818947 29.42134365216867  3.662426028563189 27.54383676787637 30.56730091679312  8.948842000000001 32.842514 36.844234  8.718802940557444 32.08033774462921 38.96962360993875  9.729246 32.506638 37.904728  27.434017 31.666138 38.20916  28.88177741882668 30.90345436053992 36.86611627766306  28.59928463990128 30.36780908794309 38.11223092231792  27.40078342409683 29.8390277361579 37.1575307999409  4.11617 34.650375 32.975658  4.76998 35.182808 31.785521  4.747394070488325 33.70217112729507 31.95783305032437  16.339495 24.369007 37.184399  17.665119 23.152575 36.295567  16.959396 24.760969 35.786816  17.1538573182322 24.85139712126142 38.1247994343777  24.943087 16.428158 30.589571  23.33969254484892 17.59702249175462 29.94758088808981  24.07158336695067 17.33347211327211 31.49664030682112  24.43701060713767 18.0499959830163 29.63914912875719  5.987033 39.288567 26.532547  7.052782 39.206371 27.422525  5.025211215042855 38.50372039791999 28.13003036437829  1.224364 23.066236 29.268156  0.662416 24.571497 28.672291  2.543260281390609 24.4473531632908 28.05630469855596  8.800796 36.048061 30.072336  9.469277999999999 35.416435 31.13423  8.551897 36.10701 31.823  20.083529 22.908091 23.372805  18.972717 22.242779 24.239134  20.605116 21.950623 24.719082  20.82372474614904 23.8997977273566 24.93837487058486  20.332865 25.906664 28.139894  21.292984 25.548697 27.792768  20.60103 24.676243 28.38765  20.32172089522129 24.77003999890606 27.12356244178297  27.355162 33.915268 32.556149  26.400732 34.647362 32.645981  26.619858 33.260448 32.7169  26.91585322292278 34.19348695988882 33.60429961950593  21.43457 33.210121 26.641903  19.988356 32.844509 26.662355  20.97982 31.969378 27.009714  20.22946160894747 32.7034461898218 28.55547352925732  15.45027667643325 30.87226922128711 32.20934785004458  17.16636996688465 29.5387277954515 32.16741343098334  15.39793273015579 29.63402492507673 32.95770050242487  15.51664503768801 29.51240243249222 31.49252117657681  22.546513 28.543169 34.771179  23.455486 29.575907 35.144863  23.761312 28.266302 34.580429  22.90002603146367 29.90683221075128 34.13910914470747  15.412413 35.374397 38.40395  15.148372 35.825916 36.893959  15.695393 34.581436 37.605907  14.056927
[...]
<PointData  Scalars="c_HbCO2"> 
<DataArray  type="Float64"  Name="c_HbCO2"  format="ascii">1.0577575770152165e-27  -1.6750107852319642e-28  3.0326312592900442e-28  -8.8240285929603786e-30  -1.5314011024259495e-33  6.2590975676563321e-34  -1.6736717424987446e-33  4.5281316643244097e-34  1.0754686318344911e-31  8.3272840090618314e-32  -3.0443358691117788e-31  6.2605900407385780e-32  -1.1422486090377061e-31  2.0911715019148074e-32  4.7121143153394946e-33  -2.2584588986912311e-32  -7.9555670642354308e-29  4.0741955955072726e-30  7.6812574274668103e-30  3.4637577878949339e-29  2.4408796094430885e-31  -1.2724140943673050e-30  1.4248668311993320e-31  8.5060906535104386e-33  -1.1306727308191191e-33  -4.6772265534498372e-33  1.6793718724274532e-33  -1.1840689144354458e-32  2.6861065247538824e-34  1.2158928338632853e-32  -2.3622890166337711e-34  -1.2269788329971225e-34  8.3034963984232034e-35  1.9161903786551230e-35  -1.6097338573652291e-34  2.2583621620651318e-33  -7.2504498064935951e-34  -5.4727645890481296e-34  -4.3191414008184094e-36  -8.2083619200921418e-38  8.1348221688283076e-37  -3.9434069579725095e-37  -5.9017391986737456e-28  1.0489544339788913e-27  -1.8904587706997451e-28  -1.4170287822606919e-28  1.9803377866439023e-28  -2.6047160786937485e-29  5.1029667523497647e-30  8.1672395095449155e-30  -4.1969769477499807e-26  -2.4183637084169760e-26  -4.0701022504518499e-25  4.9950188556067186e-25  1.7441990374338482e-30  -3.4443243031483965e-30  -1.5427071243560455e-30  1.6229900521968188e-31  8.2422714867562364e-30  4.9084043069047431e-28  -1.8849217402512182e-28  -2.8018092219567450e-30  6.4000000000000270e-22  -2.4161286335610034e-22  -1.0396215414579516e-22  -8.7247026523594518e-24  4.2314552367062927e-23  -1.8201076042538314e-23  3.7580582881171026e-23  1.0688698883992082e-23  8.3916364140891092e-30  2.5136333102795325e-28  1.5088182807786581e-28  -1.6301816812733079e-29  -3.0545613922899447e-37  -1.3685671397973317e-36  2.7519980596216811e-37  1.5216417952525450e-36  6.2747995305693001e-31  2.2499568812713366e-30  -2.1808967971983960e-29  3.4009703335872961e-30  -7.3268052003491118e-30  3.3732056912446488e-31  -7.9589714186891503e-31  4.0487188233628324e-31  -1.3076783785842306e-25  3.4008914270073137e-25  5.5040540736689373e-25  -1.9209033557433919e-24  -2.5284135799221386e-27  6.2540732055257719e-28  -4.0993353221122659e-29  -1.5026180289826527e-27  4.2780835357534381e-25  -6.1891504729812741e-25  1.2326412303848764e-24  2.8978520776457924e-25  -5.3547316469748455e-35  -1.4640502630339385e-33  2.0427822463029002e-33  -7.5486425652806553e-34  4.2867206153959508e-29  -3.5030889904836939e-29  -7.1162955214058016e-30  5.1627789917000786e-29  5.3180813496538594e-27  -2.3642070604164858e-27  1.7435011535768406e-26  5.3170197390345640e-27  -1.0670248729023138e-33  -3.6683527505000842e-31  4.4051926617817163e-32  1.0644746731379439e-31  3.5742171412423424e-35  -1.5960942178336322e-35  -4.4785601744039477e-36  -4.9986926975792826e-36  4.7758996797770332e-33  3.0558465038152277e-33  -2.5218690419157576e-32  -4.4116148137259793e-33  2.9100619277628910e-33  -7.2042884901081270e-33  1.1764935529242600e-33  6.2440970781576237e-28  -6.2395057584554863e-28  -2.1585584077992387e-28  9.7964006515719934e-28  1.1707641478460107e-27  -8.6374541857505854e-27  -3.7669583958232109e-27  3.5574015709129266e-27  -5.4202968148051394e-35  -7.1826744522460950e-35  3.9982631252432516e-36  2.5049743565322960e-34  2.8971537849994883e-28  -1.9862887611162488e-28  -4.4776962851723537e-29  1.5217060684154028e-28  5.9840357021443038e-31  -1.5524646543998676e-28  4.4584153540016515e-29  -6.4170889372886146e-29  1.0780142328837337e-29  -2.8184544021498763e-30  -7.9786733645210086e-31  -1.0695997556098131e-25  4.9832321516139616e-26  -5.5033897763735577e-25  6.0476132807516673e-26  4.7168040509463474e-29  -3.4395016361023515e-29  1.9597858708651034e-30  -1.9150973608948621e-35  -4.5668022970763971e-35  8.5852446588554974e-35  3.8723783338810727e-35  1.8416742423111909e-24  -2.8421621502460712e-25  3.2840489102113390e-26  -2.1364359507842504e-25  3.1645413014225728e-28  6.6106529355263761e-28  -2.4783387460749581e-27  1.0595453681064583e-25  5.8508359588394822e-26  -6.4274148071767672e-26  -5.7949222348180571e-25  -1.6684200380996402e-29  8.2530089088226158e-30  -1.6561779278054206e-29  1.5420307826152994e-29  -1.0796438824150763e-34  4.5959170462485882e-34  -2.9542922624729404e-34  -9.1771363875200021e-35  -2.2782470844580637e-24  -7.7895855127717200e-24  9.9457237162232218e-24  -3.4226689504724762e-24  2.4148203187157253e-28  -5.7554923165736877e-28  -2.1798301932757817e-28  1.0256383781988638e-36  -3.5448783908787319e-37  2.5312088520193533e-37  -1.6233424106449879e-36  1.3102642285987561e-24  2.8399105046393373e-24  -8.0914637429550221e-25  4.9011599169437515e-34  2.7994343226239235e-34  -2.0446336571399210e-33  1.2991782539025305e-34  3.1227283296691930e-35  -1.7980091533981460e-34  1.3430421703620193e-35  1.0362452332410353e-35  -1.7498172098715230e-25  7.8874593604601684e-27  1.7076309843417965e-25  -1.2236398895801698e-23  -1.5340249640342514e-22  4.4264687100130393e-23  1.0338097483679516e-25  1.8332962804544965e-26  2.1003719426118144e-26  -3.0651081251474088e-33  4.6641594799629899e-32  -7.3393735701621906e-33  -8.4687971260273479e-33  -2.6205174693745760e-33  3.0411649839274587e-34  1.8092480945508438e-33  -3.6224188461347239e-33  3.2241602514685917e-35  -1.0914227512232578e-34  -1.1560714111260845e-36  -3.2144581084742648e-35  -7.2402344246500528e-34  -2.4483368543589364e-33  -1.5165145563844231e-33  1.9466355854611298e-33  1.7952700654673950e-30  1.1898046641249123e-31  -2.3856008651531878e-30  1.5792219380591594e-30  -2.0240710595276384e-33  6.1946097316267515e-34  7.1013189098344620e-34  -1.6792483045243800e-33  1.3371711080271005e-30  -1.9351675001347656e-30  1.4213469571752011e-30  -8.3040353316030937e-30  -1.2797514240262071e-34  1.4355021390485599e-33  -3.6169843176377049e-34  2.7214440451941863e-35  -6.6705932956297062e-27  -2.3510180504077291e-26  9.3461937242378929e-26  2.0772634852032838e-26  7.0169635863159531e-34  -1.4269577475463449e-33  -6.4308545668167400e-34  1.2896090623627242e-36  -2.1377126438653456e-28  3.9029738713222620e-29  -3.6738094907255537e-30  -2.4598829767203076e-31  1.1550760760574433e-30  -2.9109398249290408e-28  -1.7942937026943956e-28  6.6310434812162242e-29  6.1857897561874280e-29  -6.8082973993330606e-27  1.1678185893917960e-27  1.2531858775896023e-27  6.3199303794665023e-28  3.3355331000119604e-34  -6.6640376495041042e-34  1.4263853100316378e-33  -4.4885581055072151e-29  3.4681553356054544e-29  -3.3144303583025960e-29  -1.7256549148509584e-22  6.4000000000000270e-22  -1.8980142506062062e-23  -7.0415546580483065e-23  1.7387390992616113e-35  3.4814715652395729e-36  5.5596621311021058e-36  -1.3038067672168400e-35  -8.0421749640839815e-35  1.1786571676923987e-34  5.3521385137842474e-36  1.7406895225292676e-34  -2.3367439459625598e-26  1.7168899789499666e-26  4.2332135080781113e-26  3.4458976284564809e-26  -1.0942234120224874e-26  9.1263186534043392e-28  3.4764575340824107e-28  5.2197927535871520e-28  8.5001497312067826e-29  6.6883898410264050e-29  -5.7970014270724164e-28  3.6093084877050142e-28  6.3756127454727454e-35  -2.6644650397713030e-34  -5.2936849099056944e-35  -1.1351202963851830e-34  3.4389303945143775e-34  -2.5110851703038309e-34  9.7604133957631282e-34  1.1502019077079118e-27  1.7017429430439121e-28  1.7104946023922919e-28  -9.2179576174678065e-27  2.2281415550212157e-37  -2.3983771173924762e-36  -7.3155462314585526e-38  -5.2812166652476391e-37  -1.2026355698993416e-29  -8.2379581034776451e-30  -5.1240109314541970e-30  4.1727712546114848e-29  4.3304740276312188e-38  -1.8451476383548662e-36  1.0332632220060987e-37  5.2721218020929458e-37  2.8324344923558410e-32  -4.8655566654572139e-32  -4.0405078652666695e-32  1.7498425690768764e-30  7.8187951540078429e-30  1.7117328961119317e-31  -7.4562332214579111e-30  2.3586364881623606e-29  7.8522737502304903e-30  -4.5566886493393759e-30  6.2019799849206090e-30  7.3795179929998085e-31  7.9263763934096033e-30  -1.7564795851559951e-29  -6.2578845927709900e-23  -3.2045006169796197e-22  1.4424173738579195e-22  -1.9883028924598281e-22  -7.6728606429278643e-28  8.8628077696620020e-27  -2.2396111041595855e-27  3.1274283053448992e-27  2.9134723700566116e-26  -1.9649919663120851e-28  1.3532233202195567e-27  6.3652128769569797e-28  9.6482790218737649e-29  -7.5788076977663389e-31  2.3942576953434101e-26  -7.2173350732139083e-27  5.8830983750922916e-26  1.7344297209792251e-26  4.6013448680387627e-25  1.0631874484475847e-24  -3.8737017312040707e-25  1.5300387431750683e-24  6.4000000000000270e-22  6.4000000000000270e-22  -1.4251485311960331e-22  -2.1080869679398725e-22  3.9155255932587328e-33  2.0473898877560718e-34  -4.3395798760764699e-34  3.8576989460324038e-26  6.8732661773078735e-26  3.0342120405187655e-27  -7.3852379626492159e-26  -5.6004326549709757e-27  2.2517910491757939e-28  4.0892327871535577e-29  4.9483118104100591e-28  4.3759468841282478e-36  1.1210943857971180e-35  -1.1925056478404123e-35  -1.3492654998909944e-35  -6.3173789885835864e-34  1.2897948903495733e-33  3.1167590943005216e-34  -1.4668104593165051e-33  1.0150949433115242e-33  -3.3842894322570961e-38  -4.2845275027252297e-39  -1.6124966721398836e-38  1.1015499465721405e-37  -3.0173177868905019e-30  -2.4036211862843228e-31  -9.5686287525084286e-30  4.7995587744556350e-29  6.5528004289826274e-25  4.6545643672572939e-24  -5.7088110743177230e-25  -9.0599534903673931e-25  -5.1198589940144053e-29  2.6155921077421693e-29  3.0795513628937249e-30  -9.4182962052061203e-32  6.4842593040057008e-36  -3.4334016834853667e-36  2.6040342785600023e-35  -6.2737976793093069e-36  2.1543884083832235e-30  -4.3463445525449408e-40  2.8408569390163792e-39  -4.4613459488625593e-40  -4.5069950534243060e-40  5.3422801901232067e-33  -6.3160592860707880e-32  3.2584588325165033e-33  1.2861549730001924e-32  -9.2741547946744401e-33  -2.1657114027516397e-33  1.3244040131486493e-32  -2.8237654239101251e-33  -8.3084570167640978e-24  5.9443800694333780e-23  2.7953614166572425e-24  -1.4126240869364861e-22  -1.4592400876444608e-36  1.6117536099239228e-34  2.3428716329174205e-34  -2.4651484551249284e-34  -2.0910554131534537e-28  -2.6285017421583746e-28  7.1329229554694500e-29  -2.1755439740387480e-28  2.1727137939836476e-35  3.3880623906656945e-23  -1.0893976125222834e-23  -2.3486795703899332e-24  -3.4634502988458926e-33  -7.7536818777785906e-32  5.0297579555562835e-32  -1.7399781920962141e-32  2.0777459272699616e-32  -1.0895910960848905e-31  -1.1194911603217162e-30  -1.6367439758092283e-30  3.3890901614238196e-31  3.2930267909168176e-35  -1.3001553133191742e-33  2.7437278614552378e-34  -1.5318165096972367e-32  5.6067043331694553e-32  2.9062227817163516e-32  6.7594056397157638e-33  6.4000000000000270e-22  6.4000000000000270e-22  -1.4377781889453411e-22  1.7181812090110890e-26  2.3790872694488916e-26  -5.9092919292718865e-36  -3.2192162968382910e-35  1.5479747495015525e-35  -5.0471921602258676e-39  2.3473560507703764e-38  -1.4892195130691229e-38  1.4223935490102498e-38  -4.2268012128867675e-26  1.2841803869960262e-25  4.3687057442523873e-30  1.0923553447196289e-35  -1.8974613518598314e-28  1.5496400132364400e-31  6.7343762688096892e-31  -2.7916151996436144e-31  -7.5078285339730895e-31  2.8363332054185154e-33  3.7646006392782731e-33  -7.8803597126536923e-34  -1.9689536816313649e-32  -5.7795247411363391e-31  -2.2735546447559122e-30  3.9224183834449129e-30  8.2186338876331522e-32  -2.8568735033291254e-36  3.6832508683561715e-36  3.8847971807596119e-36  1.7176307899491659e-35  7.5107019167920977e-28  1.6924218913816221e-27  -2.1312738836551573e-27  6.4000000000000270e-22  6.4000000000000270e-22  1.5347883516455773e-26  3.4224986329380904e-35  -2.3485806563776874e-34  2.3581797860703891e-35  3.4118009830572567e-35  1.0481351128495996e-35  1.7773895380519899e-35  2.7009022357258281e-36  -1.1487266592200591e-30  9.6791322593274685e-30  -6.2031265681413327e-31  -3.3121305276933657e-29  5.0032861110044049e-30  5.7007227614755478e-35  9.6967695343278484e-34  -7.5809525089125444e-33  -9.4037861854155691e-33  -1.1627474807965495e-28  -1.8057555195303537e-32  1.9648603109220441e-33  1.3393379353266649e-33  -1.0770343318220639e-32  -2.0001553244388054e-34  -1.6269149697651435e-36  2.2626281736856439e-35  -2.7442874426598566e-28  7.6008550957531857e-29  -1.5204684698095468e-28  -2.1340561564673296e-37  1.0314620254028620e-36  -6.2603335237315406e-36  8.7410464576074356e-33  7.0778775102122282e-33  -3.2137486814297979e-33  -3.1845456761195156e-25  3.5977495400886165e-32  1.9392310788559433e-32  -6.8952494233887259e-32  -6.9603323728514612e-32  -6.0446899302826453e-34  3.1345476195687252e-33  -5.7430113382577472e-34  8.6365910088613774e-35  -8.7508165395747066e-35  1.9851962243522193e-34  9.8721682879644942e-35  2.0708744331263121e-34  6.2034037842730909e-32  7.1109915733295555e-34  3.8206215833641672e-35  -1.7148830030530029e-28  1.8571052153654817e-27  -4.3635464204729998e-29  -1.5497167130415271e-27  -4.8829352493567503e-26  2.3808405252819086e-25  -1.7488619533145858e-25  3.7892405588390712e-29  -5.3021961074108624e-29  -1.0675514066399958e-28  -3.1348715800609903e-29  1.0397803794455973e-24  -4.9925086229609861e-24  4.7899248368990625e-25  -1.9764987350966943e-29  2.6536994075675091e-29  -7.1970271131263282e-29  1.3565588246399249e-28  5.3752665149746225e-32  -4.0505875903630233e-31  2.2392388320313888e-31  9.3352468700649707e-27  -7.9953870515967456e-28  2.0549379496538205e-27  -9.7612690373566253e-28  3.5116774447065505e-24  -2.4074534004584233e-23  2.1585572081951221e-32  3.5099933118459774e-28  -1.5414813778362889e-26  3.3839634078743695e-28  2.9174910039949120e-28  -3.3213007674673345e-30  -1.8726365509773200e-27  3.6869644521787839e-34  -1.1731358196345123e-33  -1.6410567065895832e-33  -5.2514831997401468e-32  1.7960995763582162e-33  3.5901525560796629e-32  -1.6841150939427855e-22  1.7983022219351105e-23  -2.6370897329389371e-37  -1.6112826908618522e-39  -8.5621324591962984e-38  9.6433050051369729e-38  -2.1572041481872754e-36  6.4662094564570761e-38  -4.3423512553757942e-36  4.3215541764230507e-36  1.8418581861332923e-35  3.4596774273433856e-36  9.6640851298218045e-36  -3.5923948225644255e-35  -6.8779601117471886e-27  1.3999613581534077e-27  -4.4844824430122193e-35  7.9445107438570054e-36  -2.2011945992377294e-37  -4.5631213552287025e-36  -1.3903673633096123e-34  2.2761095148796162e-35  2.6414153177248975e-35  5.6772638405644323e-33  1.7732011489022669e-32  -2.8309669931586344e-32  1.6036256398405910e-35  -1.6466679809038271e-35  -2.4553461869870321e-35  2.9633704191560191e-35  7.4059609726978035e-35  -7.3908159140051969e-35  -9.4680148087274784e-35  -2.0130425654031436e-30  -3.3378530244541896e-29  4.2413200399934740e-29  4.2662641198753536e-30  -1.5526256225602151e-29  -1.5890154524997503e-25  1.9559746430601997e-24  -1.5164207315339526e-27  -8.5130176515979055e-27  1.5617601515640289e-27  8.3189799318000005e-27  3.9917859613474148e-26  4.7231453996471120e-33  1.0179674492446356e-33  -1.8510982062016842e-31  -9.7171773506625058e-32  -4.2365426974113397e-33  2.5485717549754365e-31  -3.8289075441149309e-29  -7.3677422356892356e-29  -4.1064421568796110e-28  4.3482209428612760e-28  1.7941745657657455e-35  -3.6724937674375463e-35  -4.2811637655795056e-35  -2.9305839345372302e-35  -3.2046905103668129e-35  4.2367956184169699e-27  -8.4930681471825541e-28  -4.5166460463317338e-27  -3.2818237941620665e-34  2.5541572494147093e-35  2.0828764045889598e-33  -1.8298731622056697e-34  8.2602408618321741e-30  -3.0120678839399324e-32  1.7626215232308872e-28  2.3147129584901534e-34  -2.2822124827267235e-29  -1.3157869751060038e-30  3.0291196573421409e-29  1.1021007367802843e-25  -5.0017410574408663e-25  1.0973182291437305e-32  -3.1708125679623381e-33  -1.4393365501173025e-32  -3.9154684160567859e-30  6.6308183251583750e-30  -2.4848181006608731e-32  -5.8465611944213253e-32  7.9673421266847602e-26  3.8186702501714014e-26  -1.2532410894370597e-25  -1.7620154586029342e-25  2.5807635737863611e-36  -1.7413006341007442e-36  6.0823011879718087e-37  -1.0860273283350224e-37  4.8179352027232687e-26  4.1814122451324454e-26  -7.6770937315884276e-25  -4.1904252286049468e-25  -8.9997498528091446e-26  2.6445245740702604e-25  -2.6774618470575567e-24  -8.7014444278444974e-26  1.5651529096042644e-34  1.6378246892415732e-39  3.9204205445889627e-40  -2.6039609315992722e-39  6.7115903060743695e-40  -2.3957923503600737e-32  -7.1328562576944437e-29  -1.1512113007628746e-26  -8.4853220951119947e-26  -9.4745504459374004e-27  5.5298227693447128e-37  -8.9099003243481979e-37  -1.4865079092082029e-36  2.1838331936151303e-37  6.4000000000000270e-22  -2.1714250692615746e-22  6.4000000000000270e-22  -1.9316227829156757e-22  -3.6044510667777807e-34  3.3662241527933640e-33  -3.4051243871475196e-26  -3.4471730092331148e-26  5.5730242875278562e-25  2.9385528193345939e-33  7.0781043880619920e-33  3.3005367092907695e-27  2.0185550493537126e-27  -2.9651725246673387e-27  -5.8444708890174107e-27  -6.9288767051174130e-31  -6.2555333451749056e-30  7.9051056626481061e-27  1.2717842435485408e-26  -3.9376724531346257e-27  -1.1625281399236712e-27  6.1660850828783516e-29  2.1615466485178512e-28  -8.2574198976645624e-31  3.5357218460750299e-36  1.1188527255767099e-35  3.0867961253878369e-36  3.5768676570869836e-36  -5.8216032700966739e-31  -7.8620214404296437e-31  -1.8562243184660828e-30  5.6348219487346344e-31  -9.3367802366814917e-31  1.2735599053510179e-31  3.4019863671646082e-31  2.8281209006977835e-33  3.8788293579307947e-26  2.3072330012691871e-27  3.7483106225568913e-29  -2.0961411074268008e-33  5.0268314320388403e-34  -1.2316241008798645e-34  -5.4733951102776770e-35  -7.7967187332522925e-29  -1.9247486358344532e-29  4.7165061181375068e-29  9.0980600813895719e-29  -9.7263083296161995e-35  1.7099002248186828e-36  -2.3466047808080314e-36  -3.2986870276987760e-36  -2.2085226304871682e-33  9.9527934969277914e-33  1.2952627823145548e-35  5.1770284135605607e-36  2.2436368345589062e-36  3.1376315893379340e-36  3.2645270499104338e-34  -1.8850237294900522e-34  -2.2172215909401971e-33  -1.6316408133652226e-33  1.1660502961171462e-22  -3.3871308603737547e-23  -3.0438725506756769e-33  4.7156110363652843e-33  -2.7941493611790640e-33  -1.0022041325858063e-33  1.0474147176719429e-33  1.4693115618086592e-34  -3.1367431545216677e-34  2.4014340114177206e-34  1.3985425412487713e-38  3.0578321999082829e-31  7.0891227299574782e-31  1.0855422021462209e-30  -1.1938462023310168e-30  -6.6222185744582706e-31  3.3086735386272255e-31  -1.5170840012426621e-31  1.8136194930926620e-31  3.2502743634080736e-27  -4.9125651232895998e-26  -9.7176455883089543e-33  -2.4257952445247697e-33  6.9963887409272786e-32  4.5333689429308768e-33  -7.1793841547014369e-30  -1.0610647587141909e-29  5.1745915641128217e-29  5.9764992661107522e-33  5.9799962252153035e-33  -2.6470508754384718e-33  1.8682756706673420e-38  -1.7535472417565359e-39  2.6245291623983829e-39  1.4895024951350360e-29  -2.0017789645719405e-31  4.2367090506592232e-30  -6.6444273147218254e-30  5.7293577314058030e-30  -6.9669920284825271e-30  -5.2775509702606286e-26  1.8549882391379289e-25  9.9873467739613713e-27  -2.9429537629774546e-26  -6.3715400032380773e-27  -6.4649284783618027e-28  1.1775421889766745e-37  -9.0193199320813791e-37  -8.5346052596298955e-30  -2.0025737342247266e-32  7.2768292769001815e-32  3.0405369946613482e-32  -6.2516957686379918e-31  5.2646957982080765e-30  1.0925939608593114e-29  6.6489682430865170e-37  1.3388092300450218e-29  3.1019114337191943e-29  1.4023170681122942e-28  -2.4623565053231553e-28  -2.6054857598212409e-28  4.2569565376354066e-28  3.6712438476529262e-31  4.9585576342946346e-30  -9.1961305662485664e-32  4.2407007463631181e-32  2.3313865188766421e-32  -2.6916904971848288e-35  6.4510307724404954e-35  4.1443218393819481e-28  -2.5057388528868752e-29  -2.390