<?xml version="1.0"?>
<VTKFile type="UnstructuredGrid"  version="0.1"  >
<UnstructuredGrid>
<Piece  NumberOfPoints="8104" NumberOfCells="32465">
<Points>
<DataArray  type="Float64"  NumberOfComponents="3"  format="ascii">11.04776000976562 12.59253025054932 7.84740686416626  10.98902034759521 13.27591037750244 8.406218528747559  11.06840038299561 13.71747970581055 7.407683849334717  10.71920967102051 13.02810955047607 7.304673194885254  13.02639007568359 20.41160011291504 23.46294975280762  13.75387987181121 20.72360957386427 23.64843823364253  13.06702041625977 21.14399909973145 24.49810981750488  13.47033023834229 20.558349609375 24.33264923095703  0.09939099848270416 9.730006217956543 6.812564849853516  0.09939099848270416 10.25753974914551 6.09824800491333  0.09939099848270416 10.62012958526611 7.12263822555542  1.004651314250311 10.38245773835112 6.805679594290402  17.34350443680255 16.86503734057729 18.51287330597221  17.91034970129846 17.80975375989816 18.4196817954645  18.17638983452468 16.73117144046491 17.7476060571159  17.15334726783361 17.24743787269251 17.10214274953087  5.894306319203034 16.52181023966828 21.35463552270587  7.299532559372599 16.49401268575357 22.14818882512456  7.34225686901161 15.89672330182677 21.15639177377791  7.115045205792756 17.18756830871195 20.97220483005579  15.24293575328377 9.496932332770193 24.01394413874447  15.452047096528 10.96078076570944 24.03395476588156  15.30231206876763 10.19800290109123 23.4426378381416  14.38837727145405 10.24810768425243 24.08367385229049  10.62491035461426 8.517734527587891 26.5118408203125  11.83830226047937 7.765695745501291 26.2495332633479  11.17844009399414 7.976909160614014 25.8271598815918  11.76351842964487 8.593973595856344 26.69043386386788  1.924406051635742 17.76457023620605 24.35383033752441  2.652589233739742 17.35756745117177 23.95753872534853  1.901358008384705 16.69158935546875 24.36017990112305  1.726403951644897 17.1634407043457 23.84209060668945  7.965136051177979 23.73414993286133 23.9155101776123  7.927705764770508 22.85902976989746 24.72328948974609  8.275815725008206 22.73208417469563 23.20098367024903  9.004402254008891 22.97820147996902 24.34942497505758  15.94301986694336 21.29179954528809 26.4011402130127  16.11311912536621 22.26279067993164 26.58312034606934  17.21133089215029 21.65320929510779 25.69139988720908  16.17704427387513 22.54079277486307 25.26027325560772  15.03370952606201 8.509059906005859 19.34230995178223  14.97751998901367 8.842292785644531 18.66819000244141  15.92687906386735 9.466555716588621 19.27722590305559  15.82498732792421 8.347935438106164 19.0229179841174  17.97294044494629 13.39982986450195 28.28627014160156  17.27644920349121 13.27602958679199 28.76582908630371  17.78965950012207 14.0600700378418 28.86137008666992  17.29761698269241 13.38570961912325 27.91113884972066  2.319084882736206 25.79446029663086 16.29328918457031  1.160062618164561 25.32611551945532 16.97554802771234  1.84749192184199 26.1107655923582 17.00228445364244  1.404997944831848 25.36783027648926 15.98567962646484  17.02544975280762 9.71726131439209 22.62701988220215  17.24413670523961 8.686283092001378 23.11706573022736  17.44457054138184 9.441779136657715 22.20199012756348  17.70636940002441 9.166142463684082 22.92539978027344  4.911716938018799 22.46944999694824 26.49673080444336  4.348631411712614 22.52274042586354 27.74787178285976  3.665626390300553 22.18963262643954 26.34688373312634  4.769721095018223 21.53722159354084 27.12003837417191  8.316856331062748 9.766925164264414 4.914294185757972  9.039445263592407 10.31653951185316 5.271380375096214  8.432402372836394 11.29029129444437 5.502798304786157  7.938842280608309 10.18961989161545 5.851418122856628  12.23448344386505 10.15476546945671 26.01045628217506  11.34232075310654 10.21074257491787 24.4265620156904  12.36047176741179 9.489286034207009 24.81774945309512  10.88167072924191 9.70563326606608 25.2735668689523  5.473738193511963 21.76763916015625 18.18597030639648  5.674769878387451 20.93980979919434 17.87022018432617  5.880791187286377 21.32410049438477 18.53717041015625  5.255184385460064 21.44025116355542 18.920210144108  7.503255844116211 17.66186904907227 14.01463031768799  6.495824813842773 17.85296058654785 14.45977020263672  6.954018115997314 18.16926002502441 13.84323024749756  6.521876834474805 17.13608432407465 13.79561705971948  14.17582035064697 1.264510035514832 0.1048400029540062  14.64348030090332 0.6071130037307739 0.6565790176391602  14.86781024932861 1.799960017204285 0.1048400029540062  14.5092981410163 1.423112289766759 1.171476399845034  20.34692276644379 22.51970747800477 26.50411893867406  21.12413315639407 21.41629268037797 27.55386541947272  21.08473813022053 20.68531288870108 26.48146153228549  22.13973813505081 22.09856062427963 26.36496277165584  4.02503776550293 10.40275001525879 22.00705909729004  4.840386867523193 9.825771331787109 22.01609039306641  5.032009787077012 9.879154907805528 22.8418319107321  4.042827591458906 9.966188156901065 22.77030418233764  5.71541686834439 13.81931715299889 11.00879489658979  6.335039950184822 14.30044234384561 11.87778160875428  5.140546665398348 14.8755900869257 10.79994522638816  4.990396671473241 14.50082413360242 12.05199107934865  15.54895973205566 10.27204990386963 28.50665092468262  15.10013961791992 9.86546802520752 29.11652946472168  14.4602852615372 10.70894889723005 28.92264518513157  14.51703939445483 9.879484892892048 28.21751871562706  11.16044998168945 0.09558500349521637 6.488171100616455  10.6318998336792 0.09558500349521637 7.097518920898438  11.63846969604492 0.09558500349521637 7.244607925415039  11.31838578949527 0.6961893084347961 7.221836724965405  3.939162387944976 11.91584512274063 3.70827789073501  2.9378963069043 11.60262258421202 3.239084080414848  4.275823646926199 11.5098669937177 2.754461607256722  3.830421032097437 10.6037552143173 3.470271026836476  12.06305980682373 25.99286079406738 28.78470039367676  11.7076997756958 25.23418045043945 28.28557968139648  11.00975371909792 25.85456407921117 28.81699046305849  11.63616741219823 26.35363063193272 27.64040626882027  15.0611400604248 16.72793960571289 23.12188911437988  15.38545989990234 16.59144973754883 24.11174964904785  15.08753967285156 17.50196075439453 24.10790061950684  14.40190218903226 16.47966689680319 23.78947753280206  13.87079117267746 15.52418249355264 23.0649849159607  14.19826232357906 15.15348630414606 23.73379642073076  13.9733506713287 15.55035551256457 24.46167675707219  13.24723876169078 13.73944198113977 16.79469021969166  12.39385014507964 12.35464271022589 16.4856390863416  13.57784051988094 12.92263755664768 15.82374506525858  13.92977700206404 12.45480809839192 16.9505301510282  17.27443615275933 21.16506586969771 19.76894867500152  17.99702072143555 21.25823020935059 20.93314933776855  18.31365813423937 20.5706488280989 19.96663524769215  18.00439021764579 21.93872671671285 20.18598874517781  19.48140907287598 18.49868965148926 30.13994979858398  19.68695160587882 17.18013696548733 30.20980909321848  20.12165203748596 18.28859568693252 29.44809570329394  19.8971004486084 17.88488006591797 30.75041961669922  20.53532981872559 24.40102005004883 22.43350028991699  19.93538093566895 24.68548965454102 22.63203048706055  20.07892990112305 25.0859203338623 22.00408935546875  19.3958151192896 24.15002299345992 22.11893564414456  14.15240955352783 24.32183074951172 20.63851928710938  14.62563037872314 23.46697998046875 20.69425010681152  14.80502986907959 23.8919792175293 19.99320030212402  15.34643740552127 24.54455052947393 21.03136869302453  17.52621078491211 17.94348907470703 13.76852035522461  16.99127006530762 17.97357940673828 13.02260971069336  17.15469932556152 17.10106086730957 13.42428970336914  16.32462943861542 17.52181283634117 13.23270398432359  11.49279975891113 0.09558500349521637 3.342657089233398  11.82726001739502 0.09558500349521637 4.071989059448242  12.57624767607076 0.805107125684277 3.942777852208582  11.49206023055885 1.113854667434848 3.677004848712172  0.632095992565155 2.743419885635376 7.726728916168213  1.323341965675354 2.745059013366699 7.550306797027588  0.8659150004386902 3.443213939666748 7.105521202087402  1.137949658822444 3.651716394392513 8.095499878565278  6.315930008713635 20.29872505255518 9.315721348030022  7.77174979742095 19.87771146066953 8.926403541802012  7.574534643473436 20.90715873568816 9.765917941163188  7.771659049062478 20.08450387210853 10.37717232036229  16.44614028930664 26.00999069213867 26.33798027038574  16.03520965576172 26.83992004394531 25.66492080688477  16.09416961669922 26.91464042663574 26.43891906738281  16.96024618686164 26.73699560515645 26.55675381002572  9.97292423248291 7.475716114044189 24.87092018127441  9.58549976348877 6.921122074127197 24.48695945739746  9.310087203979492 7.721371173858643 24.60479927062988  10.34156087118312 7.992109768550137 24.29892539168162  18.90007189054778 24.26249889067362 24.02105713494519  19.43744138275273 23.69677956010199 25.32376396446953  19.30910423926712 23.22817486951943 24.03733947255641  20.05065908083927 24.07179514117268 24.13814087445362  8.314351081848145 18.91546058654785 12.16154003143311  9.036752700805664 18.58098030090332 11.55375003814697  8.869854927062988 18.48619079589844 12.37067985534668  8.082978698446214 18.41252480727453 11.83038153270756  14.62289224491885 16.0608937167411 21.49618116523181  14.05195999145508 16.16622924804688 20.84823989868164  14.95522656816785 15.97485425167054 20.29802367234113  14.41202729757972 15.20424085642448 21.10154860110938  5.218859190028217 21.98603590724418 28.81890483398217  4.676205075609293 21.44736067236387 30.12771380520065  5.824290651816852 21.21821696733302 29.11592011048639  5.969214159339058 21.66757108999511 29.97916455789222  12.15874779290814 12.83607963278179 3.767538948333254  12.18907509361935 13.92706942214599 4.254980329993743  12.70309577587385 13.65486993001768 2.940822372851311  11.1395714808671 13.83
[...]
<PointData  Vectors="u"> 
<DataArray  type="Float64"  Name="u"  NumberOfComponents="3" format="ascii">3.5251540799496474e-02 2.8022122001253407e-02 1.3807202942757960e-01  1.5549479113779381e-02 -4.3121937209468567e-02 -3.4380068374511908e-03  1.2117776838595030e-01 4.8932299536983484e-02 1.4833178336655178e-01  2.1025468320654064e-01 4.9485932365595488e-02 1.9456296439005893e-01  2.7762963592660633e-01 3.9758502931825174e-02 -1.4322569047246433e-01  2.3721420380254316e-01 6.0270631756536554e-02 -6.2484354416241526e-02  3.4658080637401573e-01 3.8071774929212245e-02 -1.7585624343621928e-01  3.8976753595070557e-01 7.2992130304235528e-02 8.0257591386475170e-04  2.0304109661139341e-01 5.5005218812782426e-02 -2.0081754736259116e-03  2.0740775521336458e-01 5.6924386162172845e-02 -8.7143740265555741e-03  1.4436234324043232e-01 1.1575246246359819e-01 6.4971975264416365e-02  1.6513976879339964e-01 4.5811682393631384e-02 -3.1465228337119967e-03  4.6177768663578617e-02 7.5228251675609245e-02 4.3345715745657766e-03  3.8225852270136751e-02 8.7294715004276352e-02 1.6586810493866871e-02  4.1139661347441278e-02 5.5183647041216553e-02 5.2451597798173826e-04  5.7559384492000605e-02 6.1111535894420796e-02 2.3385937378238134e-02  1.3012519397593009e-01 -3.4495534316060415e-02 5.8419360678815845e-04  1.0508890521663683e-01 -1.0896212463620004e-01 7.2153504241958119e-03  1.2318022476975304e-01 -1.2072266660284210e-01 1.9245205944397773e-02  6.7745577722258629e-02 -6.0900892164971798e-02 2.2743577559964433e-02  1.2730960606326031e-01 -5.2593530849212970e-02 -4.5610824337407867e-02  8.4862937979824943e-02 -4.8687832241015805e-02 7.3146839826380245e-04  1.1021084838791369e-01 -9.2611520684856341e-02 -3.0377065248978236e-02  1.2970566708437792e-01 -3.5298887598443414e-02 -2.6455878782487480e-02  2.1547915522534596e-02 -9.9743444667470982e-02 8.7556108174615205e-02  6.0243905981920275e-02 -3.7242710155515869e-02 7.9845459233753038e-02  6.5228516548543877e-02 -6.9481750204861289e-02 2.0544835898859151e-01  7.6660195799830994e-02 -2.8669067748478758e-02 6.5729885098900959e-02  -3.9680775223922334e-02 2.3637242365105093e-01 1.0600542764669615e-01  2.9714309547006105e-02 1.7481320194445463e-01 2.6919450238379168e-02  6.6501472314966628e-02 1.9892585965585025e-01 5.9809240510544258e-03  7.9362115007149583e-02 1.9711639466770281e-01 4.3502984478423379e-02  3.0118537124095912e-01 8.2064454592977051e-02 2.1318916772716068e-01  1.7568976977222175e-01 5.1821858945067405e-02 2.0395189166238070e-01  3.1261086327210741e-01 2.6295858222445255e-02 1.6031914994107288e-01  2.0495410066678313e-01 4.4834856824739748e-02 8.8581373202379285e-02  1.3892093274905357e-01 1.2784932841638580e-01 1.2875426628137157e-01  1.1548430846644978e-01 9.9983572973849966e-02 1.3165230516128687e-01  1.6554856920630642e-01 8.6609847833049619e-02 8.2983143569521481e-02  1.7228295951146633e-01 8.8470120129435184e-02 1.0918868452591082e-01  4.4665740838078999e-03 -9.0439262077977853e-02 9.4952779277544364e-02  6.8595639920823390e-02 -1.0250798753872220e-01 1.6423676518140132e-01  1.1590308337734460e-01 -1.0951618254162331e-01 4.9673045655490126e-02  1.1347355188166215e-01 -7.7090927532474318e-02 7.2320203603491368e-02  7.7975469953125154e-02 1.7080648901715853e-01 4.8576301182586115e-02  9.0166977166880866e-02 1.5376108027910632e-01 1.1086735351478233e-03  1.3698087330054406e-01 2.5947796826290564e-01 9.1419254750010046e-02  8.2044695960208580e-02 1.2681224822173784e-01 4.1499206874033481e-02  3.1487453086792822e-01 -4.9449862126441740e-01 -4.2336715913477430e-02  1.6709576572576046e-01 -4.3922821275662394e-01 -2.3055112774787848e-02  2.4765533999968589e-01 -5.3345743040919591e-01 4.4032050008570640e-02  1.4761848034332031e-01 -5.3046526498918267e-01 -1.2724124925785721e-01  8.2455514780387748e-02 -6.1581327924357526e-02 -1.1156526815523078e-01  1.1255046969473187e-01 -8.4482677894219274e-02 -6.2107496801658842e-02  9.1114584488224987e-02 -5.4486772171536475e-02 -9.8734478176882370e-02  7.0002413451210443e-02 -1.0354954702911899e-01 -8.7999996606916014e-02  2.0805785076959074e-01 -7.0114806453462353e-02 1.2137859877775362e-01  1.3679814648971664e-01 -5.6230971865208978e-02 7.0519302004544579e-02  1.2243902640071128e-01 -1.6785458450910874e-02 1.3512720857342028e-01  1.8959321433307563e-01 -5.0929713394608500e-02 8.7053362865878281e-02  1.2060967071041706e-01 4.2955472836319307e-03 -5.0443371805663627e-02  1.2091211040583394e-01 2.4989047841386863e-02 -2.8260279507468442e-02  1.3165090612654815e-01 3.6142274675193396e-02 -3.0481299624004018e-02  1.2851511614654418e-01 2.7833516094548372e-02 -6.6322138004977424e-02  1.2151109220383789e-01 -5.1013493047185358e-03 5.4843981900194981e-02  1.8767720781357275e-01 1.3467355438656939e-02 1.2538303940197948e-01  1.8329623822823043e-01 4.7170797991713392e-03 6.3177785205234455e-02  1.3602114112853289e-01 6.1620504644529595e-04 1.3412884505743616e-01  8.1547014040719498e-02 -7.2276422009630067e-02 8.0806574713559912e-02  4.3699707463036364e-02 -5.5710495732966547e-02 6.3012086383918600e-02  3.2777502991981455e-02 -4.2157465050620596e-02 7.4459087692784753e-02  6.7075835337145492e-02 -5.9000063102772116e-02 1.0776470466360456e-01  2.6147481077025864e-01 -6.6415916141934858e-02 -3.9249618592533238e-02  2.4036179339223188e-01 -1.1084769740936425e-01 -7.9372331586312919e-02  2.4569985868949248e-01 -9.3077469804952059e-02 -7.6978117270631100e-02  2.1800697785538511e-01 -7.1989465387015658e-02 -6.3410735449312750e-02  2.4006680198880820e-01 -1.8265658407983276e-02 1.7567579356092202e-03  2.4370676546228381e-01 5.3139668909140299e-03 -1.9244020426637431e-02  2.6598849190440760e-01 -3.5972678438916841e-02 -8.2136001261572545e-04  2.5094440029701442e-01 -2.8455896763552244e-02 -1.3626631752126471e-02  1.3147654995885419e-01 1.5213802524078337e-02 5.4673258240460217e-02  1.3801555959105974e-01 8.3992222869979771e-03 5.5515264770933694e-02  1.5541022521381737e-01 -7.5976396943552875e-03 2.3585787389358331e-02  1.0682789524472193e-01 -1.0528951092555713e-02 4.8865846964801500e-02  3.9214793524096847e-01 1.5234600226290346e-01 -2.6157378561382064e-02  5.2421987608263099e-01 1.5868410283149201e-01 -7.4360714065703576e-02  4.8281376504201434e-01 1.1906374761178845e-01 -1.5150400149143056e-01  3.6818569333814627e-01 1.6181081043674272e-01 -1.0962752409594580e-01  1.3312825227106451e-01 2.4615293132808883e-03 -4.0730672675334485e-02  1.5122529883736299e-01 -4.8245609951163837e-03 -3.2267743720349171e-02  1.6470059462826586e-01 -1.2776833578194710e-02 -5.9446745663171353e-02  1.6060219224944725e-01 -3.0769919992884923e-02 -4.7672654851742935e-02  4.6238704887444360e-02 3.2702653294587491e-02 -5.1733310452217893e-02  1.7004292474923004e-02 1.2971623101007846e-02 -4.0163161043555343e-02  5.5619293867564770e-02 1.8571973704118724e-02 -2.7099120100232400e-02  6.1886388621669307e-02 5.7443556597479980e-03 -2.2596785280574384e-02  7.0905564603727864e-02 1.1745493162434240e-04 -8.5684827803466923e-02  5.6955010813125061e-02 1.9823654529203203e-05 -8.2177058913844428e-02  7.1145617735213426e-02 -4.4561376634631977e-04 -9.1082029340942311e-02  6.7003762389671997e-02 -9.2996330069729360e-03 -8.7406142016238558e-02  1.7868083248210082e-01 6.9883003512152125e-02 1.9584542491618322e-02  1.5387341773973884e-01 5.4296619107223047e-02 3.8335780117399916e-03  1.6677364595504957e-01 9.2948724941169680e-02 2.9049375941014179e-02  1.4877069549439376e-01 8.5364590034265553e-02 3.4754920097954688e-02  2.7443682439584377e-03 -3.0453504783705741e-03 -2.5089241199589257e-02  9.8114724713216700e-05 2.2603051031886696e-03 -3.1913998606680448e-02  8.0747021185934541e-03 -5.6843853601809243e-03 -1.9407420532320613e-02  1.0905717455464708e-02 -1.4361151519660244e-02 -3.8817725530158845e-02  -1.4056170875865425e-03 2.8128511039052260e-02 2.2057518538592660e-03  5.0429634452323645e-02 2.6714667700043083e-02 9.8304194240843704e-02  1.9683087586312577e-02 6.8120408591572007e-02 9.6754947404151234e-02  6.8170054134530880e-02 4.0692458350724506e-02 2.3267677020479639e-02  6.7135350825407628e-02 3.8320224013783558e-02 -2.2696208742881658e-02  7.9154256041592916e-02 3.6992007093699410e-02 7.5199265820686222e-03  1.0822166700902461e-01 4.1488011230672993e-02 2.0520995478845939e-02  2.4117681418427109e-01 5.3377326347041627e-02 7.0320143280178174e-02  2.4015879641363047e-01 2.1721906032341337e-02 3.3366120738249218e-02  2.2737997498483156e-01 3.0408921678145313e-02 6.6840610846011783e-02  2.1649154623377126e-01 1.5133728161340261e-02 6.4598896867064423e-02  7.5766247964536779e-02 1.0737677254873419e-01 2.8505561047276307e-02  1.1282266979069343e-01 1.0945972019613485e-01 1.8607643368028112e-02  1.0263301619259269e-01 1.1629075989051410e-01 4.2457729002221493e-02  1.0244247565697155e-01 1.0423558670661076e-01 3.6762003999788934e-02  2.8308296251867476e-01 7.6369417694630640e-02 5.6751152539476719e-02  2.7429819903300123e-01 5.9139280108873503e-02 3.0500062815410522e-02  2.3775153336036994e-01 5.3302423607381952e-02 7.7408592965109435e-02  3.2369002479111558e-01 1.1072878865906528e-01 5.7872974012655357e-02  9.4604914021233250e-02 -3.1379539434548194e-02 7.7785528060609399e-02  8.8114247402252086e-02 -4.1095099809316270e-02 8.7895287423762083e-02  6.4090625781594135e-02 -2.0633682507332898e-02 -1.7442608991191634e-02  9.1718282525898531e-02 1.1482985617219754e-02 4.8937349065454334e-02  7.2238024269804191e-02 5.7939702629053520e-02 -1.1951696995625360e-01  5.4091416866280592e-02 5.0287156250145515e-02 -9.2877619855675692e-02  5.8446691910600968e-03 5.0192016434769220e-02 -4.2646297437299953e-02  9.5561643572769847e-02 6.7994400955504908e-02 -3.2905880884993743e-02  1.1467964385268366e-01 3.2778284830093700e-02 7.8464282166814156e-02  3.9164646081047499e-02 2.9430350506333847e-02 1.0803480879443295e-01  1.0161997099396869e-01 7.4812503387449037e-03 1.0516806034020117e-01  7.6145187277443141e-02 3.4558489707709764e-02 7.2357917812790495e-02  1.0887309227185572e-01 1.9997767416855608e-04 -5.9531772635998750e-02  1.1567020845752309e-01 -2.6591551433172438e-04 -7.3833339541124643e-02  1.4586841762660385e-01 -1.7626353991019299e-02 -7.9299579307682014e-02  1.0631431475481781e-01 -2.0214361632443608e-02 -6.5485416752458142e-02  2.9454252295110960e-02 -3.5426143331621918e-02 -3.3337561470242499e-02  5.4979319000484368e-02 -1.6833020476332554e-02 1.3227320543783757e-02  5.0743970595195975e-02 6.1874260519968862e-03 -2.4898482932279645e-02  1.0344057733216085e-01 2.0089968766206431e-03 -7.2213650502090622e-03  1.6545375264472154e-01 -2.5637234783809783e-02 -1.3760568278559981e-01  1.6059311739532581e-01 5.2768324098861020e-03 -7.9658400749922045e-02  2.0800556921932167e-01 1.4009284265179691e-02 -1.3392766597133918e-01  1.8830707037559871e-01 -2.0505019485437526e-02 -1.3505754204916023e-01  2.7667463560506003e-02 9.0165922801038051e-02 1.2569183430466027e-01  4.1128514818460308e-03 9.1443795510934678e-02 1.1002150652584904e-01  -3.5687784608071316e-04 5.4670717123807153e-02 9.2279138490228826e-02  2.4419945867145101e-02 5.6848283488350748e-02 9.5385499315616892e-02  1.8102898244524265e-01 2.8445698371425347e-02 5.3775482661411640e-02  1.8312000343774021e-01 2.4179005836040757e-02 8.9758277574655182e-02  1.8329799186450552e-01 2.3675382141648969e-02 1.0124542324799182e-01  1.9303504466871441e-01 2.3468225122339866e-02 1.2042248191425058e-01  1.1250318802677614e-01 2.0615901110074223e-02 7.1458022656332970e-02  1.2022811219875319e-01 2.1459177081147633e-02 6.5247601986640563e-02  1.3191753252105320e-01 6.3481867522470806e-04 6.0954980072750575e-02  1.1603869571146616e-01 5.1286982133159943e-03 7.3902153765163667e-02  1.7310884348147615e-01 -9.3475526440051068e-02 -3.4719843688358648e-02  1.6912301716354808e-01 -1.1116559091995808e-01 -7.3600489745994924e-02  1.8388014350193929e-01 -1.2019854805992666e-01 -3.2867811126887372e-02  1.8865796190180750e-01 -6.9616740657929721e-02 -6.2253544075882385e-02  4.5829425287077334e-02 5.2727211778262832e-02 -4.5981520446009130e-02  3.0974906927134484e-02 5.8480208396817494e-02 -3.9924994810608572e-02  4.6654516891103948e-02 6.9063006521559486e-02 -1.6199746996688882e-02  3.5940996917572118e-02 4.8871342202435580e-02 -2.9074687434648146e-02  1.2485039371946563e-01 -6.3822830069850664e-02 1.7597386183966574e-02  7.9790382946731075e-02 -6.5703010933208836e-02 7.2366056031764603e-03  1.1992430991142149e-01 -6.4928774336842437e-02 -3.3746863282058002e-03  1.0263857000386302e-01 -6.6472023695725385e-02 -2.2911258522740698e-02  1.1617200780355065e-01 1.0555476429220985e-01 2.9837291335968109e-02  1.7967013428770898e-01 8.8245491054696229e-02 3.3054122641035369e-02  1.4579891278950363e-01 1.2324661761449462e-01 2.7895892010830668e-02  1.5685415903577130e-01 5.3670548691257272e-02 5.0961310296007301e-03  9.5654960261097585e-02 -5.2180120833096241e-02 -7.0824657032696095e-02  1.0791111071391096e-01 -4.3703285735185692e-02 -7.4133184762632545e-02  1.2622698581052477e-01 -5.8966366090926779e-02 -7.1392981594118624e-02  1.0844088404263486e-01 -2.8822774384422399e-02 -7.0411343817707389e-02  1.5647536028107114e-03 4.7016259567487083e-02 -2.4299699611186731e-02  2.1258097797694119e-02 3.6981339065924455e-02 -7.3138933081390023e-02  -5.0125390661352126e-03 3.9504110752951099e-02 -3.5340844112326593e-03  5.7615663561915463e-02 5.1339429785842057e-02 1.0062200053899526e-02  1.0011151068695601e-01 3.2555049024882071e-02 4.8360192637632429e-04  1.2827882590080789e-01 5.4072467339199605e-02 -1.5048811982292484e-03  1.3531026357202747e-01 3.2987727385579299e-02 -1.1948797659554330e-02  1.0079928075948420e-01 3.4318458069674235e-02 -2.2727433825655438e-02  2.0138007982778263e-03 -1.1367131004615162e-03 1.8196642571093762e-03  7.9018905575694142e-03 1.4447087180876454e-02 1.4812872690382516e-02  -9.1196508545466541e-04 2.9345279906175284e-04 -6.1119429596760808e-04  6.4733095357247831e-03 -1.1572870763153652e-04 -3.0051120439942005e-03  2.0235221460954378e-01 -5.4267577146848968e-02 -7.9541860643803655e-02  1.6576657603972256e-01 -7.8113395137637279e-02 -3.8869025593637446e-02  1.7838472443035086e-01 -4.3174592311071985e-02 -8.6676080168398867e-02  1.4931401229806057e-01 -5.5618347671808510e-02 -1.0214902994855275e-01  8.2654370826960769e-02 -5.0148816150084631e-02 -6.0565254676984474e-02  7.6593732260216957e-02 -6.0260856756044694e-02 -5.3702092765120904e-02  9.0643717742072569e-02 -5.3325988258085058e-02 -5.7605838742634148e-02  8.1424587153439559e-02 -5.7463767123349295e-02 -5.9721830578699078e-02  1.7290707484872195e-01 -6.7215621873688375e-02 2.4486548720911577e-01  1.6863413737428964e-01 -7.8642489896212475e-02 3.0304643978017187e-01  8.6424705717802183e-02 -1.2043902078602342e-01 2.5194060843018357e-01  1.4235853719435257e-01 -1.0926258192347481e-01 2.1324596293052964e-01  1.5032447473952754e-01 9.0318419154864729e-02 6.6064455439124366e-03  9.1629945281785377e-02 9.2814315464539096e-02 1.7110976330206681e-02  2.7436382065295899e-02 4.5233623934442309e-02 -1.1308616888861315e-02  2.8282242211264311e-02 9.0792906636752921e-02 1.3323667072959943e-03  5.9564620475797178e-02 4.0896205510263565e-02 -1.9895307486700705e-02  6.1675152112198296e-02 6.9525755735397085e-02 -1.7563689141127286e-03  2.0545920472831333e-01 3.4398751639405235e-02 6.6025619792958300e-03  2.4731365344138115e-01 6.6974167083747274e-02 3.0780529341146324e-02  2.3584832338016809e-01 2.1875808362950670e-02 2.9958184487964425e-02  1.9941537646984692e-01 4.3881395512287681e-02 2.0009400750776361e-02  5.9415409583209323e-02 -4.9373487037095889e-02 -1.1830486066413905e-02  3.8503839051301003e-02 -4.0911572262751938e-02 -1.1207063870989417e-02  5.4386688159716638e-02 -5.6264310182203063e-02 -2.2673756301217297e-02  6.5935331185969906e-02 -5.7269234071819539e-02 -1.9667872089475409e-02  2.1514522708088321e-01 -7.6265858920651838e-02 5.5902051060818282e-02  1.8908800012519872e-01 -5.5706531948805628e-02 1.3182047445052184e-01  2.0220393587116009e-01 -8.3291371678054865e-02 2.9022522308817404e-02  1.5532170359745587e-01 -9.2708585381430814e-02 8.7776052156396889e-02  1.5039257263634506e-01 -7.6938523273231219e-03 -6.4783453685992129e-02  1.5846613181722249e-01 7.2381379377717034e-02 -3.6905218107206608e-02  1.4568108009207573e-01 4.6189474817254616e-03 -4.2442178372679856e-02  1.8897612982026055e-01 -6.5869697147067398e-03 -5.6810875217297531e-02  1.0704629827060694e-02 -7.7687425181481255e-03 -2.3910941642697831e-02  8.7279640845210935e-02 -6.7179864207020622e-03 -2.7020754560832239e-02  7.8057595522960418e-02 -4.2743923409039618e-02 -8.4518459775972110e-03  6.1048732168239375e-02 3.0499117038079979e-02 5.0700108185539874e-03  1.1252821143905282e-01 1.7030829633874159e-02 -5.2869853071036123e-02  1.1015800334746778e-01 6.2345421664569189e-02 -3.0714326632727839e-02  1.2354340279121293e-01 3.3821801274066809e-02 -2.1709659134605017e-02  1.6198776004409782e-01 7.3628080170440771e-02 -2.0868813232548758e-02  7.0159731573452747e-02 -3.6131970684130418e-02 -1.5248023378185915e-01  8.2014893699231289e-02 -6.9114424353290014e-03 -1.1610544142985306e-01  1.1454217303463689e-02 -3.1242571145628307e-03 -1.1591060652051453e-01  8.1048017450107881e-02 -3.3087326008824837e-02 -9.2576813939819827e-02  6.9486529703761055e-02 9.4563530664869492e-05 -9.7631630899991093e-02  8.2745410727222926e-02 6.2694960285252768e-04 -1.2072918761460298e-01  8.2189556883767084e-02 4.8218047971076273e-04 -1.0408613259418277e-01  7.7124241234695287e-02 -9.8320473231855079e-03 -1.0567607628496614e-01  3.2792150632691343e-02 -4.5105431110935984e-02 -3.6718636735563949e-02  2.4995304408552115e-02 -1.0763365935973502e-02 -2.3918383891010999e-02  4.7023566322411232e-02 -2.9072605557294212e-02 -4.2591272285257852e-02  6.2112809342237361e-02 -4.5600458163157630e-02 -1.6613031082573046e-02  1.2539896853518795e-01 7.4161664689516515e-02 3.7086325710237553e-02  8.9122551741067146e-02 4.8528459463888722e-02 3.1426877246475922e-02  1.0681573356785708e-01 6.1841700260673864e-02 4.9489851038730437e-02  1.0795888564399672e-01 5.2328272799480102e-02 6.3788107388309451e-02  7.8671148672307761e-02 -3.9161244261990358e-02 -4.9722985473418246e-02  1.1390474810958008e-01 -2.7364245066935612e-02 -4.6586029679441560e-02  7.9820816880648238e-02 -2.4593288415805228e-02 -4.3600046862081561e-03  9.7907693352641989e-02 -1.1278611035476168e-02 -1.7982986130879206e-02  1.3975596772095381e-01 1.2443603795046791e-01 1.6627467407532778e-02  1.7561733392355822e-01 4.0412067188608562e-02 5.4221632499936695e-02  1.3421886676948883e-01 1.0411698248756324e-01 4.7918751397472086e-02  1.2267447116837116e-01 7.5792623633028730e-02 2.2888482765352137e-02  2.4197665033925667e-01 4.0287111999932373e-02 4.6523557942746284e-02  2.0948734156019197e-01 4.4808278948233957e-02 7.6801749265066929e-02  1.9281135467884533e-01 3.6592079431517925e-02 1.0017406603296787e-01  3.8122382331321959e-02 1.4078128114882679e-01 2.6026995250176120e-02  4.1886572333511216e-02 5.8054728772266175e-02 2.2605744287518988e-02  1.2277864370093669e-02 8.6503836754397170e-02 4.1648468134437171e-02  8.8304865652576014e-03 7.0825177538294509e-02 2.1380464091066562e-02  2.3186333391692218e-01 -8.4377999922421454e-02 -6.1086934513140095e-02  2.8562174884514679e-01 -2.8036935646166081e-02 -8.8606995366912501e-03  3.5953974222760460e-01 -1.0092406072188982e-01 -2.3022014888614253e-01  2.4972638096951685e-01 -5.8345132719288345e-02 -9.9312010403366249e-02  1.0864133769836189e-01 1.0242724488536307e-02 7.8761177622521786e-02  1.1313437737402875e-01 2.1204271400441056e-02 8.7080920268206533e-02  1.3392059859690686e-01 6.6422259012102573e-03 4.4160774444339419e-02  1.1169693032184248e-01 3.4533145432393123e-02 5.4428867504704832e-02  8.6767841457850894e-02 -7.6341150261431137e-02 -6.1663276523067474e-02  7.4157699840180419e-02 -8.6820915591347136e-02 -4.6972475460738787e-02  7.9475436856974710e-02 -9.6795015082823482e-02 -5.8514831863692135e-02  8.1203228359408380e-02 -8.1458890956775235e-02 -6.4011163199961599e-02  1.3575661216405210e-01 -3.394030129