<?xml version="1.0"?>
<VTKFile type="UnstructuredGrid"  version="0.1"  >
<UnstructuredGrid>
<Piece  NumberOfPoints="781" NumberOfCells="2706">
<Points>
<DataArray  type="Float64"  NumberOfComponents="3"  format="ascii">34.727505 8.761358 28.181412  36.230503 8.004273 28.035908  36.20105141160379 9.655168503878997 27.05782333903771  37.05855570888922 9.143239546835588 28.7957531040404  30.643978 8.828338 20.149931  30.472158 10.018025 20.730074  30.704874 9.242824000000001 21.886198  32.1330532103625 9.548575560361337 21.02793721603661  24.42555728364329 7.924703931399338 20.9257239943911  25.52604220587801 8.041521693139075 22.01261080030337  24.75390989630648 6.069662195717622 21.96427130743814  26.0138314225413 7.080206696594637 20.79799768503218  26.986074 13.149429 21.665844  26.35944 13.863859 22.831881  26.187952 12.511276 22.62958  27.72282295728263 12.3001348960359 22.37511095145554  27.42787458594599 12.5012973342424 24.50789605041086  28.24990739688597 10.40832041791297 24.72436048635451  26.2638105435198 10.79209650416438 25.12190848700783  27.77795984418952 11.22790855108825 23.21424493926048  33.95882 12.380974 25.74259  34.900417 13.515557 26.937126  34.220669 11.723448 27.648743  35.55281928766212 11.44620511560445 26.12179283379933  23.998638 9.64545 24.83898  24.738129 10.734863 24.825304  24.74467445715664 9.675223422501722 26.56274101707806  26.23948654019549 8.770432639894592 24.95252664737948  20.14632 1.417538 16.398058  21.563847 1.274047 16.475145  21.10154800269757 3.304820249120732 15.71656266714377  21.36802341077921 2.761692078790119 17.34451091965136  25.227747 4.373749 30.480396  26.195877 3.292058 30.181664  25.513439 3.519166 29.245939  26.70266461500627 3.822640313376106 29.01260817230949  28.400078 16.684351 24.910408  29.525892 16.122728 24.798874  28.717213 14.986911 25.424215  27.47521865293133 16.09305259931137 24.07353198775731  27.347046 3.946131 32.612373  28.219015 5.139935 32.708256  28.036272 4.072453 31.572989  26.51088940061191 5.449310012718981 31.29611645745178  33.882523 6.135503 27.234423  34.443916 5.539751 26.378656  33.299595 5.33041 27.511793  32.67057194640444 5.419097434931327 26.23078494076189  29.803442 12.037508 25.164845  30.6323195275721 10.94128111002582 23.28620648823264  29.48072958350656 11.82724239534056 23.88931516747176  31.329355 11.913311 24.721186  24.28077168563594 2.564697732426421 22.96016400750684  25.859442 4.479366 22.256742  25.3784364547228 1.973702945363697 21.59051210458852  24.94205639185635 4.317296471411528 21.24113309824257  29.10937712766804 10.12690423385931 26.37118206102314  30.836985 11.14521 25.731064  30.38413690383628 8.918816306435254 25.44254748566116  29.53998966672044 10.26677243669752 24.36835551093299  22.433735 2.192615 15.670708  22.53464238030225 4.028910368198624 17.72750398751279  23.925081 2.944424 16.912939  23.099922 3.774462 15.474267  21.67882915363332 3.4409097273366 19.54719762209974  22.03663154072899 2.04944053016664 18.45710314244266  22.40279677083951 7.085333707839973 17.8523181460271  21.14790622373773 5.658094308426587 18.87020719565848  20.76425835847693 5.317885679614571 16.04477776296784  22.78470960790574 5.377866607485695 16.56812650784422  16.623423 3.631472 22.70237  17.20343090556982 6.407464695605575 22.27978332819347  18.48483188977565 5.349353193599256 23.27481759010965  18.71144066776469 4.756541712725502 21.77647874713872  18.304379 7.962238 13.956465  17.838755 6.605564 14.664795  19.62530623345626 7.435380316768669 14.80661979659608  18.21428771206384 8.13078727408794 15.43346410295956  19.224672 8.143941999999999 20.556801  16.89384709088943 7.73538198070745 20.49054707198344  19.40082598838438 6.690981286718174 19.99691113326132  18.43081819605657 6.373757959223653 21.42704897359218  24.815601 15.018764 30.11487  25.222019 15.646739 28.94343  23.57370419042402 14.32847036048409 28.37543475546417  22.97997902295267 15.68175976368546 29.63832147830586  34.124744 10.05992 27.883242  34.38873562697281 8.967617359176661 26.92315208476565  32.22472 1.584453 30.742558  32.69384 2.509623 29.573154  32.814739 1.100253 29.576033  31.44308545636861 1.158024130023976 29.8816849190068  21.332857 15.645403 27.832462  20.54472 15.038239 28.98192  21.216002 14.270632 27.410847  21.532972 13.781041 29.712822  28.445316 13.506498 26.05603  29.426723 13.439396 25.0786  27.01254229810809 14.55013354220105 24.78450382859105  30.360321 8.626984999999999 23.200813  32.07169231167106 7.749466589478192 23.97724717195783  32.22989017540971 10.05933621743181 24.37373920041361  29.579206 11.426975 26.041124  32.100296 6.076256 23.667233  30.667542 7.296461 23.994192  31.053387 5.731659 24.866144  17.83635267881768 7.1439021376017 18.75222211017999  18.31645800001824 5.463959489889867 20.128787774387  22.113438 10.487752 25.626837  22.98107833294263 9.491751775891251 26.65507945300109  23.297878037975 11.11476722948757 27.1245132351711  21.54312408854472 10.46297844246535 26.8116438287324  22.66925410380813 6.571680945052351 25.38304938323424  21.464529 8.016249 23.660513  21.05091058977149 5.813082534523343 23.80734087812751  20.77802094812546 7.45512622173529 25.69136743193053  24.4790948189595 3.683268625209525 18.70497809232079  23.22726060069639 1.977871855119085 18.91291391008665  23.316109 0.849531 22.15468  23.51137241322994 2.880101117821482 20.87223383595384  22.836863 13.402243 26.208267  24.79865734372849 13.00310599829392 27.58266174777134  23.956528 11.815459 25.72237  25.079689 9.908545999999999 23.45792  25.626411 11.620834 23.726191  26.72421787657854 9.777313849902106 23.45076437347956  24.47357076770903 4.45396730521469 23.12251026726088  26.380333 3.736956 31.530107  27.32695271805115 3.19529775137247 27.41587184302885  27.398947 5.123847 25.835409  25.85195407982448 4.274521366448915 27.7106880175255  27.37404515212016 5.473219292028904 27.64691502001885  33.90499943903405 11.81719870892101 23.92467996748683  34.411565194466 10.08594379457419 23.45469327422317  32.7334698689967 11.58628721206241 22.50813614696301  22.884445 1.513319 23.674623  22.085041 3.275728 23.415548  24.18217071042839 3.421672276640372 24.93588649262072  28.895741 14.099552 20.004522  27.973001 13.711998 20.94367  28.782476 12.639539 20.41103  28.69246694244458 13.03969515149351 21.7088307570769  34.85144 10.240164 28.938042  35.89774475219677 10.92823992107082 28.75246371103216  22.816509 8.710449000000001 27.967979  21.5012975551045 9.077804628744476 26.39270893313934  22.17485140348763 8.186687381475364 26.35928343287428  30.482183 12.75771 24.402164  22.78316930568153 4.624447230597121 22.37619631001856  22.77487746820396 6.168227636504969 20.35582613890765  24.67121133310294 7.552619862085008 18.84998131579135  24.56888 9.318452000000001 19.888395  26.0240660483714 8.833281431557097 20.22034309841773  20.016367 9.766667999999999 13.040743  20.360241 8.459818 12.150245  20.800371 9.863859 11.67307  21.62580670348767 10.11792219249332 13.54447171308322  19.56783602282238 5.823444017314205 22.28559863805336  19.71838751569714 4.706188479997284 21.50050413709124  19.7184914864188 5.850842836486034 21.42018224444458  30.96966711894041 5.918381290684858 27.06547201208166  29.56010245563807 8.215176663490759 27.03095991842453  29.41206790288599 6.390613205999075 28.15661152897317  30.54921281231535 7.631258949926189 28.32751002736814  16.185274 5.666206 20.089417  17.304924 4.390378 20.70933  30.60103 4.540255 30.305828  32.02383 4.352312 29.39546  30.84879426701051 2.362075433418248 28.02752137068103  30.96983132983739 5.00735857058361 28.33564394748304  19.419724 8.241987 25.728615  20.515667 8.85061 25.20417  20.131916 8.912566 26.927168  21.257271 12.362161 29.041973  20.501719 13.508912 28.55077  21.59439383351314 12.96924162861256 27.70947042454152  31.511925 3.035544 30.520887  24.793236 8.808033999999999 28.420609  23.59200702793706 8.165873213762495 27.14751303341448  25.38979915027305 7.440488062655505 27.34021747029294  30.851954 17.779215 23.678652  30.47459971971842 17.4970855647754 21.33584328780804  31.864393 18.175722 22.177732  31.631565 16.299572 23.022688  24.203207 6.396809 28.983366  22.671469 6.254069 28.878956  23.755842 7.771793 28.309727  23.53648483148674 6.406732018852757 27.11117493825205  35.632233 10.573171 21.287909  33.78379039833663 9.805574403763222 22.18082389653656  35.954418 8.849339000000001 21.857931  35.548069 10.544644 22.681021  25.259293 -0.01335700000000001 25.852705  24.12298 -0.01335700000000001 25.267155  23.986198 -0.01335700000000001 26.493357  25.19491054811844 1.179711950414966 26.52207344106023  31.96146 16.290285 21.234493  23.806604 9.280471 28.029341  24.655426 9.931711999999999 28.462328  21.539196 3.792578 24.582836  21.017931 4.460058 23.685696  22.75691753452964 4.712999405971477 24.04829063060882  26.132885 3.771261 23.150356  26.326265 3.748574 21.481291  29.401321 20.47896 22.481657  28.409756 19.867294 21.318554  29.984665 20.873661 21.234116  30.40529497637392 19.40576825761654 21.74251124711271  22.77511 4.611095 28.926662  21.45906452692377 4.971923714326957 27.47448895491183  23.21455850716659 4.590029063191253 27.91373139586258  25.75414058229087 1.559903469441207 19.58597660956983  23.48148 10.49785 25.688887  21.052334 3.439524 25.645649  20.698074 2.091919 26.45159  22.65803160187376 3.171045127022186 27.05842035178386  20.52008178123247 3.271953444114773 27.47893330467694  24.11469124034784 5.46665478554641 18.00920530622165  24.117748 4.554443 16.543989  23.607321 11.587106 29.137987  24.102209 12.631007 29.7463  22.66555957527148 12.41571015261647 28.09721839129268  29.421413 15.586593 19.747499  28.355749 15.188688 20.811869  30.41042804398044 15.34465003832608 20.76107214385308  26.607296 0.696671 27.652939  25.659012 1.256169 27.865808  26.405468 1.458027 28.266708  26.8750035364341 1.570016440322816 27.20909369600955  31.15205 18.817389 23.430933  29.967758 19.285805 23.608908  31.380978 19.642134 22.912775  26.644098 15.125365 22.813364
[...]
<PointData  Scalars="c_HbCO2"> 
<DataArray  type="Float64"  Name="c_HbCO2"  format="ascii">-1.4882091054875743e-38  9.4031247027512926e-40  1.1715145968823862e-39  7.6232906193804600e-40  2.1386387565966879e-37  4.4462259484699371e-39  -1.8432581828362935e-37  -2.0975001508467829e-38  -3.2474743706532729e-34  2.1469895882491807e-34  -2.6308526443137629e-34  1.6523006173546561e-34  -2.7648604583434309e-37  -5.7238190994266282e-37  2.1921678409118742e-36  3.8056103682768944e-37  3.7131320412353213e-37  -1.8823693656135072e-36  6.6412914521844120e-36  -2.9733828165026428e-36  -6.1244772673948228e-40  -2.5296478464098502e-40  1.1523139427107093e-39  6.6656550678237747e-40  -3.6746832635427547e-34  7.8469783928135296e-35  -1.4152791844496934e-34  -7.5098850067096599e-36  3.7488446008900327e-33  -1.1945972584671515e-34  -2.7598364525199205e-33  -2.7413027073990642e-34  -1.3773208304714105e-35  3.4480267298239120e-36  -7.7405727785302511e-36  -3.4639600107316157e-36  -6.1732410489310758e-38  1.7916700905879189e-38  -8.7739412531687569e-38  -6.2287134478931080e-38  7.2884821072549148e-37  7.2031584823671732e-36  -8.4209176207835726e-37  -4.8123592784848433e-36  4.3499817926135438e-38  -2.0542220153446800e-38  1.8985627552033359e-38  4.5913157574805797e-38  -1.6799324014255599e-37  -2.9018507729277423e-37  4.9923805903819151e-37  3.7310473561525451e-38  6.7948924076374557e-35  7.8915459275932452e-35  4.9090900323057126e-35  -4.1183000616625832e-34  1.4610356953079535e-37  -3.6296146556770444e-37  3.0271692550313583e-37  1.0779729113677689e-36  9.3539024897842135e-34  -1.3539270739177847e-33  1.0572041831364492e-34  4.5004446085540159e-34  -8.6349475153736695e-34  6.2984336891788193e-34  6.5779804563081123e-33  -2.0159667807041442e-33  6.6148531685918226e-33  -2.7610506226785282e-33  -2.7246215049710513e-30  2.6913305296747179e-30  7.0944943290127968e-31  -2.0334933684968749e-31  -3.9911205051362077e-31  -5.6601748793759688e-31  3.9940957437960057e-32  4.5566421769707876e-31  1.0205185420162212e-31  3.3533705756139922e-31  4.5378929244065253e-32  -6.5064157270265954e-31  1.3976001905095764e-35  1.9540450653534997e-35  -8.2911352969201879e-36  -7.9918059560292971e-35  -3.2032005519465207e-39  3.1550657462217350e-39  -9.7519145958075359e-38  5.7405297769560517e-38  -5.6049088354063109e-38  5.3612972175673404e-38  -2.3041876116311605e-34  -1.5185686928141668e-33  9.2189556184044763e-35  2.1755781749615557e-34  8.0621294280519108e-37  -2.7238473411561627e-37  3.1809048839536394e-38  -4.8140047461381740e-37  1.0849424722206369e-37  -2.1858058492737955e-38  8.4070419084754300e-37  5.2694614165686141e-38  -5.6422935398170757e-37  -1.9758140910722192e-37  9.9675511323020627e-32  -6.9933211519692726e-32  -8.8067160022462907e-34  -2.6505286688875164e-35  4.1041241474178777e-35  -1.5872639545019400e-34  -4.3188881700926787e-33  -1.9230928941403602e-32  2.8061119501422028e-32  1.3836674248287192e-32  -1.7057650395060957e-35  2.3996886674762191e-34  1.0784617389605177e-34  -2.1929366349881676e-34  3.4599299210866982e-37  -1.7133562850366000e-36  -3.2684871617948347e-35  -3.0371163809756174e-35  -5.7806095040990436e-36  2.7006701843997493e-35  2.7761596501169387e-34  1.6047955903283353e-35  -9.4750753970526754e-36  1.1318284074596988e-35  1.0362167731697786e-36  1.0155022714420645e-35  7.0290128115081120e-40  6.3167356502115849e-40  2.6143734129896078e-38  -3.8586372602520677e-34  9.7353081460399918e-34  2.3506179264847805e-34  -3.7674774551000026e-39  3.5753338083162238e-38  3.1930558567202103e-38  -5.1300800716109000e-38  2.3889932133760836e-39  -4.6449995930178427e-40  4.6629465941746133e-35  1.3035730889907394e-33  -9.6138868081401529e-35  -6.7591995409800052e-38  6.3925199529143233e-34  1.8163051520622483e-33  -8.4202949196231142e-34  -3.2706699409300331e-35  1.0498140272200639e-34  -5.3235693327655311e-33  -1.5048191780998322e-34  -1.0659656027900091e-34  -1.0438341602506973e-33  1.4093739953879641e-31  3.3846964147982784e-32  1.0033292067290989e-31  1.1409796367835347e-37  -8.1499510035767180e-37  -2.9787549870524816e-36  1.0432442725925193e-36  6.7909420390293508e-31  8.4358452348821729e-31  -3.7393815712561610e-37  7.1366488204801260e-38  -3.9050297308870677e-37  2.8786288744922904e-37  1.0232686755277544e-31  -2.8835032747106007e-32  -4.9908219767362138e-33  -2.9925107026576602e-35  1.0967938516490502e-34  -7.3811698326900341e-35  2.3942264759805430e-37  1.6742955855681412e-36  1.6582739722595835e-34  -6.0926088911501050e-35  -2.1733219850009252e-40  -5.5091316746550266e-40  2.5097791431945205e-40  -4.2590409046490840e-40  -6.0699824735065541e-36  -2.1333632809077749e-34  1.5509552423680913e-34  -6.5192075398258080e-35  -2.1557603339994145e-39  -2.4376765682338749e-39  -3.3795178991267610e-39  3.2709504165090239e-39  7.7136612723291772e-36  5.6076241858373913e-35  -1.9428034007056119e-35  3.2536673609530903e-35  -5.8004720121058776e-40  -1.8351319773066009e-35  3.7969504792496203e-35  -4.0238016704392410e-33  -1.6797863331971216e-34  -3.7114361701462603e-33  -8.5810473961558363e-35  4.5332627454600300e-35  -8.4060477665826743e-40  -4.1061722839785336e-40  3.3888488786311727e-40  -3.1716971006269758e-40  -6.0187889395958090e-34  1.7296493336642780e-33  -6.8757908624012070e-34  1.2241374477940458e-36  3.0433726229770384e-34  -9.3159209127706058e-33  -3.9387411311535363e-33  1.3442107025590790e-33  -4.0566967755691321e-33  -6.9286111558088302e-34  1.0459940242344951e-33  -6.0540192118888093e-37  1.1568956368767495e-35  -1.5586337958223330e-35  7.0262077771255096e-40  -5.7550815146742966e-39  -1.4311776481544531e-40  4.2827845990162990e-36  -4.1752352884694557e-35  -1.3557417726903477e-36  -6.8041850332589629e-36  -1.0230226494966751e-39  2.7168940398111075e-39  -2.1224989497666686e-40  8.4107752567322355e-38  9.2644512216822591e-38  -2.5054211808541066e-38  3.6952888538977331e-39  -1.1118532609615481e-38  -1.0123383194730994e-38  3.8708526568047016e-39  1.7517310600776062e-39  1.2773630467516156e-39  2.7044989904093414e-39  -1.8830054952723471e-39  -4.3813986068930163e-39  -2.8959296731408844e-31  8.8789099378192269e-32  6.4332107335291305e-32  -2.1628385450829724e-31  -6.3773396819190500e-34  1.6833180007215835e-34  3.5809965481989144e-33  -1.3479342177065530e-35  -3.6635035881716299e-35  6.8189320487697862e-35  -1.3535728352593902e-31  1.1211846566991735e-32  6.0217066028275474e-32  1.5579220063857668e-32  -8.4665197920471397e-32  2.6686732113256674e-32  1.3809909090573104e-32  -6.7637206626291961e-35  6.7268042878460865e-35  -1.3824862373599943e-34  2.5151579390928887e-37  -7.6305084079119279e-38  3.8847036901353338e-37  4.0343496507030122e-36  1.1831244239955253e-39  1.0650390574422460e-40  1.5591372257845595e-40  -7.5425180314830751e-36  1.0180838920469928e-34  -1.3422959836561661e-35  -3.4252145740513646e-35  1.3826125155259528e-34  1.5729315620842872e-33  1.4282296415569693e-33  -3.2746871288877208e-34  6.1828952479555457e-38  1.5706265410149902e-38  -2.6667074739829963e-31  7.0900036916838072e-32  -2.4463470161045483e-31  2.1246677280863974e-36  2.5327738300084161e-39  8.0266954855872871e-39  6.4208968407001909e-39  -1.4590505560706109e-38  5.0194021587194435e-40  1.4484562553792761e-40  2.3324247234893605e-40  -1.7407401539536321e-39  2.2556856492770980e-40  -1.8167106116459996e-40  -2.6307336618449638e-40  2.9897475427101249e-36  -2.5467422481034608e-37  3.7546278185588612e-38  1.0488588316237204e-38  -5.2935925810851008e-35  9.8662649501357263e-36  -1.2140194430350196e-35  8.9471536177177543e-36  -3.4142062561982558e-34  -8.2544246552058315e-36  -9.5157189760271398e-35  7.1285682432502959e-37  -3.7159341072672521e-36  1.9634894779894290e-32  -1.9243645312281134e-32  -4.4442791870401133e-40  -6.4860608576961717e-41  -2.0936069642378358e-40  1.6291738536633492e-36  5.5364614681282992e-36  1.5879278493563682e-35  -3.4584468754191308e-36  2.8906133486274656e-34  4.1449535693500421e-32  -2.9607390228949499e-33  -2.3692595823731812e-32  6.2340673243347857e-39  -4.8661663381701318e-39  4.2954343179233346e-39  1.6991178546604367e-34  -1.5753338175877081e-35  1.6509719462096090e-34  6.8599203231140808e-36  1.4447885537078992e-35  -7.8662592491212993e-38  4.0209012763558747e-39  7.9478112018166753e-39  -9.5928670271783423e-40  -3.0958343045655934e-39  1.0968445311118174e-38  6.1256084328850034e-35  9.3102836713962093e-37  1.6744615335328070e-36  1.4966875121896055e-36  -7.0465851240812363e-36  1.5922906297860628e-36  -2.0108087999247808e-36  -3.5354727003566784e-36  -2.2816713912554215e-37  1.0713556911036514e-37  5.2086716955942857e-38  -5.3087426982673356e-37  1.3069592498645964e-33  2.1869985670483051e-32  -5.7138199142529878e-35  8.4389562392507602e-35  3.7523782687025624e-34  -9.8927974276790303e-34  6.9740756639012675e-35  -7.9583220657073926e-36  -5.4120311194978099e-36  -1.3846311285871020e-35  -1.6594942678729751e-35  -4.6600380299916136e-36  -9.1151058976078584e-37  -1.0751883666085393e-36  9.2993233564283231e-36  -1.4241611215887113e-37  -2.9969430428797857e-38  7.6291840082657651e-38  9.3624104299940367e-38  6.8388300374193001e-35  -5.1827317081793180e-38  -1.2923618011044036e-38  2.2786956958613907e-34  -2.7884727056895953e-35  -2.1204617679068758e-34  1.4951129406378418e-39  4.3712007333974421e-36  -5.1442294245788640e-36  -3.6715112411095781e-36  4.5428115804151272e-32  -2.8527196679141151e-32  1.2654005423717514e-32  -2.0267632996410659e-32  5.4609891399666346e-37  -2.9708149490204962e-34  -3.0912225161903811e-31  -1.6440283747727915e-35  -6.6469175503097146e-36  3.0884224995707713e-35  -5.4410392032237503e-34  3.3679774938717209e-32  3.2236248140967341e-39  1.6923885061323896e-39  -2.4201226453703947e-40  5.4628261752924440e-37  3.3919166422189803e-35  -4.3327845722940899e-35  1.3693354703099516e-34  8.1163157223931749e-37  -8.0925595607739767e-36  8.8934913015355613e-37  -1.7891452970537170e-36  1.9885275755244463e-35  -1.5439719802286957e-40  6.4019443599134325e-32  8.5383027955766023e-34  1.7994287093424156e-40  -2.4319719593338132e-40  -1.2102719841921833e-40  -2.2244783262481962e-36  1.5059078503175733e-30  6.2917181301429892e-32  -5.2035091284441472e-32  -2.1444806528659460e-34  -2.0566625969754653e-34  -1.8529131702933778e-38  1.2678635979363525e-38  -2.8398569145568966e-38  1.3746334294463766e-31  3.1680937970314566e-38  6.0962233436449587e-37  3.4132999022782807e-36  6.3032432615079845e-33  5.0554997403928894e-35  -6.2458420551994457e-37  1.1797105985483020e-36  -2.4011223713280546e-36  1.3816746008493322e-36  -3.1969804505968126e-34  5.3608541705268844e-33  -1.3570229527478902e-36  7.6530782132005787e-38  1.8450727191976213e-36  -8.9391150464578920e-36  2.4717027520859669e-36  -5.4078936365170079e-37  2.1947180125075144e-37  -5.2539645242755156e-36  -1.6075530550415490e-33  -6.8703635947937530e-33  -6.2377655474683868e-38  -1.0495321140496208e-34  -1.2970220253343217e-34  7.2890488033386691e-35  -1.2111641290557006e-34  5.8379454428880551e-39  -1.8293282108732213e-35  2.6349358663027203e-34  -2.0705045821589860e-33  -1.9564278593424352e-38  2.3299303589471349e-39  1.0875808491220987e-31  -6.0764408548391354e-38  2.7867850247988206e-38  1.2723556920245598e-36  5.9488684632968014e-38  -8.2868385874044236e-37  -3.7432651182100250e-36  5.5861116570346003e-36  8.2555396802822448e-39  1.7352774310979744e-39  1.1500262605351596e-40  3.2802160400993164e-39  3.2658589638813343e-37  3.3103352386152801e-33  1.2732202519781498e-36  1.3794574765462142e-36  2.1385489246799591e-36  9.3491752011308935e-37  1.4132439689322675e-36  1.1255684966894002e-37  -2.2333599737729082e-31  2.6162479047378736e-38  -2.2496105695980078e-31  3.9054472766931946e-39  2.5640317902328221e-39  -9.1259032589736704e-35  -6.0935232447748585e-33  -1.0875392151864674e-33  3.4204354507996633e-38  6.9347499296272414e-38  -2.5026780902036290e-37  -2.8622740122983585e-37  -2.2761656924658072e-38  3.7625955942007688e-38  4.9602744931164032e-39  2.0942122191001622e-38  4.8676527608179760e-40  1.3974213090363780e-40  1.2487355218479899e-37  1.2985809538394246e-38  -1.1262103437910753e-35  -3.2621631855106764e-40  -7.9424555180073074e-38  -1.1312217204037150e-39  5.0932235702878120e-36  2.1830577543100465e-31  -1.5365880938802053e-32  -2.9061351181502849e-31  1.0851088950329221e-34  1.0418835747587944e-37  4.9518346112271424e-38  -2.1152203963317819e-34  -3.0580421635115616e-36  -7.2858417398427108e-37  1.3438014541688646e-36  5.9253757092678799e-37  -3.3968007933227964e-38  -1.7210871374973801e-38  -9.9967419434057390e-34  3.0707244596035157e-39  -2.6136422970442784e-39  -1.8259014479294006e-38  -5.0898343428745032e-37  2.6213861689675600e-36  8.9135337574639629e-38  3.8284658151411333e-31  -2.3468441727556965e-37  1.7019617055489926e-37  -2.0684726541854657e-37  3.5422881162383182e-38  -8.5866361298868233e-37  3.9185393834702134e-37  7.6797347767561059e-34  3.2351004079802148e-33  -1.5027041960724566e-34  1.1359684192673992e-33  1.8227622112559509e-38  1.2753903311011622e-37  -2.2973338306540728e-38  -2.8096945318184350e-34  -1.1580643950689544e-33  1.3782286216105065e-40  -4.9675251817195111e-39  -5.9731693689980733e-38  3.4371315220246875e-37  4.2761971402222470e-37  -5.6224743513287534e-38  5.0419053549344850e-33  1.7585375935422738e-33  -6.5140774799424293e-32  3.9904007876603078e-36  -1.0109119050851249e-38  -4.6468216020365462e-39  2.1073295850556043e-39  -3.1377569104138081e-36  1.0295582106767717e-30  -1.0649888275757287e-35  3.8835634511714600e-37  2.0919762580171764e-32  -1.3369350621963934e-33  1.6097654276890153e-33  2.0771142468699143e-33  -1.2278888840117681e-38  7.0489047233810089e-39  3.7754675890940823e-35  2.6871323740463289e-35  3.9912487451952189e-35  -6.1449990944380118e-33  9.6806934295707239e-36  -2.1997079483569305e-37  1.9800384920311400e-36  2.2216181418497384e-35  -5.1775558017612330e-35  2.6718674433567229e-32  -1.1357853935364199e-38  -3.1345702999252186e-32  -3.9827408894525862e-36  5.4171760696699606e-35  -1.0468942725753820e-32  7.4327378141246503e-32  -9.0108454867439926e-33  -1.5099887197735770e-32  2.6001964517134533e-33  -4.4550335513145542e-33  -2.8293042034587084e-36  -3.4816644961325839e-36  -6.9926283046761862e-33  2.4228483993181904e-33  -1.0003481897913720e-33  6.0754397527943638e-37  -3.4759121516656531e-34  8.2968642838461531e-33  -1.0221043171192669e-31  5.6613086141595786e-33  -1.6186878246845722e-40  -1.5443026887020080e-37  -1.8734622310443496e-37  4.6922228035534557e-38  4.4879352674949218e-35  9.3572389342568768e-36  -1.8081400783314063e-37  4.6458309428326078e-36  4.5694223682217924e-32  9.9548534541163055e-35  1.0965112791216156e-41  -7.6529154279074050e-32  1.0600529523353123e-31  8.9937235234749906e-41  1.5226228052693485e-35  -1.7339172368366280e-36  2.1351534891995373e-36  -2.8802888147491467e-36  -4.5211590619860241e-35  8.5933979856571960e-35  -4.0645810881467367e-34  -5.7446612577739944e-33  1.3469565830237458e-32  1.1631438706154220e-32  -5.2252653295537088e-30  -2.5053461594908809e-36  -6.1772826618556843e-36  -6.8899701931555829e-31  1.0963229905990551e-39  1.8901207102337275e-34  -8.6441614298829628e-35  -7.1112069446366287e-35  4.3668081246678686e-31  -4.5231397385191321e-30  -5.9329435506618721e-35  1.6220708099308921e-36  -1.0863797327265123e-35  -7.6243529474795894e-35  1.4545566356261836e-35  -2.6640709500209480e-39  -1.5654309765015909e-37  3.7156890342453516e-38  1.3951782589962113e-39  -1.2713039897848742e-35  -7.3345313595489866e-36  -8.9223384915067019e-39  -6.1725578674853037e-39  -4.0565182585414911e-35  -8.5608456682614050e-32  1.3940862851527636e-33  3.3474782461219273e-33  1.0830057019368697e-38  -4.6636425010576776e-33  -3.1675848609814814e-37  -1.5827185353444471e-37  -4.6153150307761584e-35  8.0835309141215049e-37  9.7277994401357535e-31  -1.1267664191993574e-37  -3.9203305178136548e-33  5.5858542401254654e-40  3.1220749292884191e-35  1.7495257893502292e-34  -1.4669219708196532e-38  -3.4089270112267405e-38  -3.6320071771359934e-37  -1.4419149911359606e-37  -1.8150540798575669e-33  -1.5636363349598832e-33  -2.3754320991577707e-34  2.2428762653345387e-33  1.4517389287309069e-36  -2.6528381806303255e-38  1.5903078644394774e-38  -7.2417348369828014e-31  -3.5455585954944174e-38  1.7353485613369847e-37  3.1871153132434525e-38  7.0198970388608733e-38  2.3871903358284775e-39  6.2370176206572574e-33  1.5007282819673669e-36  2.2165883847566761e-33  2.4155831423194890e-40  4.2183208722866783e-33  1.4148107260395912e-33  -1.7429863912069709e-36  1.0060223760488076e-36  6.6473309921947824e-40  -1.1811732215408901e-39  -1.6142372362883812e-32  2.5785893502299707e-37  5.9656080044830369e-37  -7.4763146075660480e-33  9.0981887947916832e-41  -7.6002466675211802e-36  3.5891845284063080e-31  -1.0280150322964734e-38  -1.8052317314299648e-32  -3.1506780022768151e-39  1.7844798534438569e-39  2.6697268497077855e-34  1.3294621990990644e-36  7.1085395497688261e-38  -6.1907807062081881e-37  -7.4955297983395097e-41  -9.1830196726058567e-39  5.8247770417951257e-36  1.5707593843783755e-35  2.0329783095649673e-37  -3.3555765223198453e-33  5.1265731539640842e-36  1.6830183750088925e-38  -3.6334798378532082e-38  -5.4184264302149157e-36  -1.5984043036580199e-38  2.3445279777664382e-35  -1.6419406934901084e-32  2.3443882178973331e-37  1.1227144547262364e-37  -3.6317015686341345e-39  7.4217860075232181e-39  2.2111490346554480e-37  -3.7630735861709326e-34  9.6048527373026791e-35  -1.2630995898430628e-33  9.9922529563130163e-38  3.6115393993379623e-37  1.4783933290969907e-34  9.2827244478012538e-38  6.4073006642899090e-33  1.4316292897171309e-35  4.7123897503776438e-34  -5.8963326693863661e-34  8.7698986779044365e-31  8.5500701695611910e-31  -6.3994974566683030e-30  -2.9845786699933179e-40  1.3765788077514879e-40  6.3424939155683556e-34  -4.5385674808209173e-33  -1.3573684382922699e-36  7.3996813348478828e-37  8.8681651738992367e-39  -6.0880418313991515e-36  6.7889313698147066e-37  -3.7317524320412116e-38  6.1361712046991634e-31  1.2181099459692109e-30  2.7547669690194863e-35  5.8818375414212812e-40  -9.7194372770787939e-33  8.7804048692087805e-37  -3.7062128192726663e-37  6.1395980851224774e-33  5.2024723163208477e-33  6.7971895151670479e-37  -5.2040490311841917e-32  3.0571055969327345e-30  3.0615532458076441e-30  -6.6045057788942166e-35  2.5413020102977906e-38  4.6237740100377696e-34  1.3777396351306422e-34  -1.5724743002208339e-31  -5.1817666937352397e-35  -2.1906215915572712e-36  -3.0784602037448004e-35  7.5572295739012891e-37  8.8526489365167037e-37  -4.6509230475204822e-34  -8.0888911323540436e-33  2.3774707222859337e-37  1.8684464080823851e-36  -3.9468042958588701e-33  9.3546586632041111e-37  -1.3723113327061797e-35  3.9328772803031091e-35  4.7229873027533562e-34  1.8481270517252242e-38  -1.1133192522623253e-38  2.7391814851280981e-37  4.4341059499456089e-36  -6.2759511639470506e-39  9.8269909281574008e-36  2.9706850129565465e-36  -1.5450354941682635e-34  1.4813122677478920e-37  -5.2838227270613462e-37  -3.8516079163544617e-40  -3.0636484243821598e-34  -6.1014754593775321e-41  -1.2587823272325255e-32  2.1176220635492636e-38  -8.1716117652707703e-40  7.0710311274773681e-33  5.4296495565478040e-35  -6.0441494559658283e-36  </DataArray> 
</PointData> 
</Piece>
</UnstructuredGrid>
</VTKFile>