<?xml version="1.0"?>
<VTKFile type="UnstructuredGrid"  version="0.1"  >
<UnstructuredGrid>
<Piece  NumberOfPoints="816" NumberOfCells="2775">
<Points>
<DataArray  type="Float64"  NumberOfComponents="3"  format="ascii">3.491737 24.333311 38.653694  3.763129410559318 23.72554154065291 36.23772721655934  4.600878406467806 23.70129615299237 38.20827648052114  2.607065 23.326437 38.215244  0.603087 37.120468 38.408585  0.840201 38.402462 39.102985  1.784479158640057 37.52984042831012 38.7158587054848  1.283072151409495 37.95290740074805 37.74073669664242  10.73988342026573 34.59715082409032 33.60318708036579  10.13628703520688 35.95558630749017 32.97296975323494  11.91410490186142 35.89788233028639 34.51999081214717  11.49963691198201 36.45251480971842 32.89944086236505  7.457604497486559 35.0196921044006 31.02297966678735  8.239817940784576 33.73526054058998 33.66484733007432  6.064605576299736 34.74651541576341 32.59896136681805  6.531255504545751 32.76130078689942 31.47900942603741  2.653628 34.847507 30.597332  3.485443 34.419056 31.911306  1.973563 34.609741 32.497864  2.120902974201627 33.32629723265568 31.73956793842947  3.707137 39.328079 38.692787  4.611993 38.583508 37.834431  4.673864 38.350456 39.263859  3.253054083885039 37.75843972253169 38.73667112377554  5.763709 29.472672 30.982405  4.219729410099634 28.07297453785526 31.86070609598556  4.758743316715847 29.50455105324741 32.60526506221306  3.691202405051743 29.29849904717437 30.83337410969204  11.119224 32.906277 34.245434  12.305717 33.807682 34.295013  12.383677 32.112816 33.60722  11.55352397110689 33.04289778195716 33.0581139535344  4.921835 33.540028 26.260792  5.03504 33.560276 25.179058  3.9426 34.028347 24.826385  4.371099990713065 35.67092091712594 26.13706810087084  5.547022 23.122042 34.558323  5.947637 24.186884 35.470734  5.812864 24.260544 34.201469  4.540649036872873 24.94704293019029 35.32844184172298  6.677454 31.441936 39.389454  6.478061 33.132816 39.990357  7.874747 32.282337 39.990357  7.380348530048219 32.90377804932274 38.21144286874158  4.847517 34.685501 38.791553  5.759671865949858 36.64160670622064 38.26573376802241  4.291849 36.015755 39.339779  6.075333 35.148335 39.990357  9.19318 34.426727 39.990357  7.733386709034172 35.40763802979601 38.05642941776812  9.124724300762058 33.89022761670225 38.43664314899475  7.858265 33.979588 39.990357  5.927545841203485 37.44252580808571 26.4088136695961  5.628606 37.675838 24.062458  4.067003756204165 38.15822251054711 24.79860677123283  6.564009 37.759037 25.363991  2.076619 22.254501 30.698639  2.437979 21.347383 31.806593  3.682052350732664 22.81856774399645 32.47707875580636  2.481176506574315 23.57548020685159 32.07802426603327  5.641459 30.48027 39.09779  7.864541697810786 30.85275924752638 38.55904670099615  6.261143575698088 30.34089319402128 37.62596112594539  5.94495 26.291397 32.892464  5.867522 24.893793 32.951851  4.047499738892058 25.66750972076643 33.69044783721145  4.156026434022519 25.92491430340069 31.57538140784649  4.46014 26.551758 29.028824  4.208613 27.961252 29.338703  3.162722642184209 25.96664364818947 29.42134365216867  3.662426028563189 27.54383676787637 30.56730091679312  8.948842000000001 32.842514 36.844234  8.718802940557444 32.08033774462921 38.96962360993875  9.729246 32.506638 37.904728  2.50017 40.003617 23.075459  1.267499 38.554485 22.550705  2.147431 40.003617 21.532776  2.462447826113686 38.14520302808795 21.69123070199086  4.11617 34.650375 32.975658  4.76998 35.182808 31.785521  4.747394070488325 33.70217112729507 31.95783305032437  5.987033 39.288567 26.532547  7.052782 39.206371 27.422525  5.025211215042855 38.50372039791999 28.13003036437829  8.800796 36.048061 30.072336  9.469277999999999 35.416435 31.13423  8.551897 36.10701 31.823  15.412413 35.374397 38.40395  15.148372 35.825916 36.893959  15.695393 34.581436 37.605907  14.0569272610166 35.52535191620734 37.38019494960862  3.237194 35.565033 22.632822  4.767841 36.346806 23.343134  4.103163 36.756397 21.944866  2.954376348658149 36.97993038885619 23.24698520512901  8.413506999999999 38.118698 30.710207  7.952608 39.143265 29.944914  8.285653999999999 37.477982 29.841377  6.96047521804117 38.30729371696605 30.20678767264546  0.725976 30.255003 29.70612  0.02680700000000003 31.547579 30.259071  0.981898 31.05102 31.047232  1.429528486083722 31.95483307794743 30.15687570847614  1.77154 26.514025 35.802876  1.741779 27.261383 34.722748  2.840180495133695 28.05461242886726 35.30644130173434  2.890080661388932 26.01990406655274 35.11727378413246  7.623644 35.596951 35.423592  6.554256518232359 35.68868670286827 36.60463910637007  6.065669159606535 34.8069885239962 35.42076226291469  7.766799327915774 35.03600779137635 36.07942404751582  8.056710000000001 27.683594 39.384457  8.58497 27.944098 39.307259  8.142677000000001 28.061996 38.44109  7.973685 28.773165 39.990357  9.572519 37.139828 39.990357  10.64432 38.389282 39.990357  11.162582 37.024349 39.990357  10.49086394812591 36.57585236879772 38.20733883802088  2.1404 36.53006 38.991447  3.210762 36.625607 39.990357  3.533179 36.610668 38.481861  1.839679101227398 30.24549023586339 28.10764553433802  1.129670055728285 32.11966442555734 26.78582090306421  2.559787 31.652945 26.983936  1.325141136432241 30.273358576872 26.70909192882823  8.572895000000001 33.53146 27.295223  9.585381 33.650139 29.040327  7.83918297429179 34.29562610138936 29.39668732504326  7.513870149747669 33.0600166744177 28.2559227279302  5.027388599132223 36.33186971571431 28.10008711629326  6.892355414377342 34.88503004115164 28.48684389050279  6.973848193280287 36.49735081323644 29.60953621514694  5.631201588038532 35.07800334322631 30.27663836307641  0.02680700000000003 33.494999 28.056759  0.02680700000000003 32.078873 29.0012  1.689911387890301 32.10180116780366 28.30537259583109  1.479868612274965 33.80603219518191 29.56019955545604  11.623145 33.968327 32.026222  13.305231 33.657326 31.872005  12.979053 35.302101 31.727983  12.50531123456445 34.59174647552635 32.99941884685436  12.44405014121807 37.32684997207451 38.18712788120018  13.46869485831235 35.89686010359049 38.37514270554392  12.01627032231037 34.88150456790533 38.24265074043592  12.35657099992179 35.77676177599736 36.74306224186  3.895901 35.192017 23.645988  4.970907 35.046379 24.049143  3.484012072566549 36.44397436386654 24.79472961447719  14.61748577631441 34.62076775921613 32.98161934447208  14.82711034193815 36.3158536889915 34.28552413802571  16.11121988629556 35.9593734524323 33.85197959954429  14.87714355231105 36.16848891716023 32.04388316243688  3.279831 38.594887 39.990357  1.904530210588901 34.21532351543812 26.06575883133671  1.415967 35.562401 27.024403  2.004528 36.179787 26.383593  1.090819 34.970406 26.024574  3.438446516616402 32.86369351125002 29.70010734725276  4.041749 35.131378 30.465921  5.800328077532436 32.91987331397785 29.68925594399678  0.02680700000000003 26.024086 28.046942  0.662416 24.571497 28.672291  0.02680700000000003 24.583996 26.884348  1.63751444247734 25.63357725102335 27.48755575277098  7.438717 36.31918 25.944456  7.398265 38.075985 26.995888  0.02680700000000003 29.191679 27.870087  0.02680700000000003 30.833199 28.181568  6.170963 35.687046 24.649467  14.49789769821375 38.35906891737877 33.61779897526313  13.97362781457666 38.55699652270248 31.15286622427799  13.35293665728928 36.69341894896381 32.70327242019523  4.776487 37.149807 37.569118  3.470437 37.694729 37.059368  6.231664192554446 34.87653703679585 38.25263449506433  8.249909000000001 36.473808 27.387804  3.474542 20.065659 37.325596  2.344524 21.260567 37.237984  4.059918430361469 22.07665920781867 37.76405497172473  3.541486233208299 21.2970719731311 36.02412312717848  5.636549 39.29863 30.141195  4.625766 38.218693 29.38471  4.351255 39.190292 29.12368  14.861241 33.251736 34.024681  13.780857 32.094486 33.737865  13.333708 33.281509 33.714043  14.29413717163111 32.61850671665945 32.52858611984708  2.766728 27.399797 31.923908  2.113667 27.267929 30.8456  2.048329 26.0471 32.084385  10.247683 30.701237 39.270065  9.348064986845491 31.49379496293508 39.23692409731642  10.261154 31.456106 39.295631  9.89255 31.005133 38.754032  1.200426 24.50938 30.170448  2.543260281390609 24.4473531632908 28.05630469855596  1.149256 26.12007 29.657486  0.653517 32.423904 31.490183  1.706937 31.530283 32.172577  15.123103 31.36916 34.029362  13.378062 30.767908 33.591454  14.24962610243645 30.4537177766633 32.45074226159696  2.87541 29.503675 33.468197  3.734738153258459 31.02979939018765 32.58653176382396  2.694309 30.614759 32.639343  8.291062 32.173084 36.298531  6.037271830592046 33.41433453533368 36.86221341888562  7.314485512360674 33.6498527035554 35.16235808882958  6.119127384892789 31.85861429234082 35.62346058086197  12.07617486721951 38.42288890839973 32.37635261539535  11.390626 40.003617 34.506832  10.288734 40.003617 32.943436  10.10289110013668 37.8863950870175 33.7315051269423  4.89715 34.152744 36.461483  5.041805 33.526024 37.935757  4.911188 32.469734 36.974308  7.042832454685493 37.14699290492619 37.33797413653988  8.384468999999999 37.512695 39.990357  9.384359589255739 38.25699408286753 38.09655666387023  8.780302357233714 36.42050889008285 38.67061080788081  7.766269 36.893139 31.022118  6.49866 35.972336 32.191906  6.925707 30.183067 31.005865  5.628476528603532 31.3624059484801 32.62703286866142  5.187995996513818 31.00583916071344 30.58779547061627  2.782394 37.46175 27.321535  4.836693 37.050365 29.556269  4.290681 36.036575 29.510868  3.575597 36.87973 28.657701  6.483456545684485 37.7847395118396 28.65712062030336  13.665773 34.423508 34.466194  5.981058 25.287668 34.459206  4.447879408615597 27.38483951908852 33.44295908034881  5.107932457426512 28.84821269816939 35.20254468287617  0.02680700000000003 32.368225 25.392359  0.706825 33.29744 24.381422  0.02680700000000003 33.761696 25.250351  1.156076097754122 33.20147736209875 25.45271994151601  2.893765 19.365746 35.757271  3.25
[...]
<PointData  Scalars="p_CO2"> 
<DataArray  type="Float64"  Name="p_CO2"  format="ascii">4.5000774816539298e+01  4.4997628024410865e+01  4.4998467881584524e+01  4.5001169454744883e+01  4.5000122934335735e+01  4.4999757695654807e+01  4.5000056129691067e+01  4.4999045811659308e+01  4.4998656615188295e+01  4.5029625497528933e+01  4.4966320398223175e+01  4.5016106868280090e+01  4.4684564521231678e+01  4.4949643888254755e+01  4.5041903607560826e+01  4.5024489081039114e+01  4.4991736321924542e+01  4.5002217715938592e+01  4.5031025507979315e+01  4.4887908994642373e+01  4.4998483601479606e+01  4.5010031895032974e+01  4.4997789271434151e+01  4.4999679432586433e+01  4.5020728076833677e+01  4.5024520249532472e+01  4.5012686026154334e+01  4.4950950764774817e+01  4.4962967394697401e+01  4.5101026941297185e+01  4.4992404319311390e+01  4.4835843483882506e+01  4.5029195533636809e+01  4.5018501408489037e+01  4.4968273668962418e+01  4.5000311825208676e+01  4.4998887859517176e+01  4.4997504965795770e+01  4.4998594736374862e+01  4.4992843804091855e+01  4.4993650585051171e+01  4.4984975051498502e+01  4.4994215832419592e+01  4.5036970714507575e+01  4.5005212731134513e+01  4.4964079516045999e+01  4.5000095120090997e+01  4.5003490302749384e+01  4.5001155899087401e+01  4.5007133313284960e+01  4.5036982484047293e+01  4.4998090800465171e+01  4.4978861005042887e+01  4.4997849356688938e+01  4.4985381559935149e+01  4.5021146609902928e+01  4.4997021328539518e+01  4.5005005650858912e+01  4.5004519064037517e+01  4.5006910069916835e+01  4.5017333732482392e+01  4.4994322076422435e+01  4.4975930721352704e+01  4.5004422901683249e+01  4.4999037827693684e+01  4.5005219376416022e+01  4.4985895453052755e+01  4.4989225473944778e+01  4.4997610260845583e+01  4.4980308716129166e+01  4.4989830317842916e+01  4.4994411743729081e+01  4.4972806712147637e+01  4.4992724742528821e+01  4.4887857796688088e+01  4.5039881013628417e+01  4.5087091276874958e+01  4.4902022024859050e+01  4.4940617942248792e+01  4.5019656820367153e+01  4.5046276185117051e+01  4.4988135051838057e+01  4.5066906169273075e+01  4.4926244701972394e+01  4.5007473662441605e+01  4.5095089099387735e+01  4.5121348827944701e+01  4.4898242986761851e+01  4.5078966642327856e+01  4.5000027378967303e+01  4.4793300545691238e+01  4.4898640035752393e+01  4.4863363073097716e+01  4.5105927588044096e+01  4.5234805811252016e+01  4.4954567030077897e+01  4.5057853163970890e+01  4.5225138714989619e+01  4.4631707705130658e+01  4.4949619589940397e+01  4.5000000000000064e+01  4.5067033978111731e+01  4.5088609384760744e+01  4.4991305145684883e+01  4.5009185548141481e+01  4.5022184276695704e+01  4.4999061415439670e+01  4.5126422103079570e+01  4.5018480541898782e+01  4.4985926991800305e+01  4.5058312003466213e+01  4.4986164449976620e+01  4.5044475658435850e+01  4.4989738672636008e+01  4.5010897082274695e+01  4.5005586197856829e+01  4.4997064768794715e+01  4.5000181880336832e+01  4.4992913931957119e+01  4.5001508973299309e+01  4.5002689111333794e+01  4.4992894542752381e+01  4.4998757173365497e+01  4.4869632202973932e+01  4.5016904602193208e+01  4.4910911908996695e+01  4.4989079795498533e+01  4.4996254918600656e+01  4.4961978522093119e+01  4.4991714830111263e+01  4.4994656157349695e+01  4.4972244801572600e+01  4.4984168641468017e+01  4.4994698248891417e+01  4.5000000000000064e+01  4.5000000000000064e+01  4.5048458513135522e+01  4.4992733185662715e+01  4.5000111314929462e+01  4.5013229434363431e+01  4.4992505325650761e+01  4.5066668622179925e+01  4.4997234231024031e+01  4.4982120954033739e+01  4.5018623824917611e+01  4.4982465003195834e+01  4.5139311243755479e+01  4.5036731148348125e+01  4.4983885747287339e+01  4.5020792910604833e+01  4.4954592653281829e+01  4.4998055225855367e+01  4.4992428845562017e+01  4.4998251101349304e+01  4.5195813794756020e+01  4.4975500876473127e+01  4.5009409042826945e+01  4.5045719148158788e+01  4.5046860645435942e+01  4.4980276121931198e+01  4.5041646733332698e+01  4.5000000000000064e+01  4.4951385037623432e+01  4.5000000000000064e+01  4.5053796930129728e+01  4.4982310067282981e+01  4.4996686486411797e+01  4.5000000000000064e+01  4.5000000000000064e+01  4.5047457020518010e+01  4.5015498966434670e+01  4.4989283171158185e+01  4.5006784721639498e+01  4.4995372059788060e+01  4.5000501974356816e+01  4.4981918787261719e+01  4.5015259023881050e+01  4.5000987643056398e+01  4.4998973563312944e+01  4.5004700462536135e+01  4.5002288093833059e+01  4.5023063873390633e+01  4.5063417022552343e+01  4.4962942251421708e+01  4.4966601772795634e+01  4.4978206528924005e+01  4.4936531792978478e+01  4.5144689315084833e+01  4.4980063872922315e+01  4.5021074885765422e+01  4.4986746174673300e+01  4.5013120713766256e+01  4.4984303029059738e+01  4.5050777410038691e+01  4.4978011283181822e+01  4.4985012030478224e+01  4.4958436067347648e+01  4.5074011474010149e+01  4.4930383167223496e+01  4.5021595687837596e+01  4.5049791638056753e+01  4.4984239503425869e+01  4.4908010218118996e+01  4.4984449763869570e+01  4.5008095529470232e+01  4.5003808025193791e+01  4.4990716780159786e+01  4.5027580935070119e+01  4.4978038201646669e+01  4.4978195945375560e+01  4.4979201145440491e+01  4.5004292440739050e+01  4.4963618013000598e+01  4.5089646979280559e+01  4.4999111411341957e+01  4.4995633275350770e+01  4.4990998195375035e+01  4.5011508441784194e+01  4.4968013885098166e+01  4.5009708798960894e+01  4.5017769406673807e+01  4.5613206861244024e+01  4.4968433735163011e+01  4.4937839349458208e+01  4.4996491732856015e+01  4.4990109131635840e+01  4.5048353391069078e+01  4.4983275347094441e+01  4.5003581161063664e+01  4.5042706029761170e+01  4.4914353310776995e+01  4.4983834722412020e+01  4.4998777318444041e+01  4.4995286095374063e+01  4.4996061070365144e+01  4.5000000000000064e+01  4.4998479953902766e+01  4.5000000000000064e+01  4.4958217647095488e+01  4.4998619577511043e+01  4.4998425332645660e+01  4.4999561111452373e+01  4.4997720250422056e+01  4.5009868458655987e+01  4.4991119338598125e+01  4.5023165044586591e+01  4.5049961153493463e+01  4.4936342151192981e+01  4.4998450777213606e+01  4.5004710129155434e+01  4.4980528474187246e+01  4.4999290462141353e+01  4.4972872518955164e+01  4.5033169033033509e+01  4.4999180157478357e+01  4.5018659297439036e+01  4.4998528505051517e+01  4.5009306250735634e+01  4.4997875469002601e+01  4.4997917355187987e+01  4.5034558633946816e+01  4.5016150808684877e+01  4.5003929949252111e+01  4.4990609185327045e+01  4.4964747652671065e+01  4.4857268909248148e+01  4.5025831509827910e+01  4.4795831738220691e+01  4.5025854539515301e+01  4.5001408662037619e+01  4.5010042501027144e+01  4.4990364291485740e+01  4.5021204314085452e+01  4.4962213999906659e+01  4.5000442117639288e+01  4.5013985479514176e+01  4.5008923993712834e+01  4.5004661357164458e+01  4.5114525810802121e+01  4.4856444298302868e+01  4.5000000000000064e+01  4.4991857409329434e+01  4.5001057196215491e+01  4.4991284796998855e+01  4.5033767134116417e+01  4.4952498471982075e+01  4.4972680210775174e+01  4.4998425460357524e+01  4.4908480536551352e+01  4.4990165503760011e+01  4.5003948559359934e+01  4.5000629980261785e+01  4.5015633198259273e+01  4.5005950333703645e+01  4.5008958362117816e+01  4.4981221015590336e+01  4.4996531667897109e+01  4.4963660572588495e+01  4.4978839705919377e+01  4.5006171021035826e+01  4.4985032729617032e+01  4.5063728263622984e+01  4.5019258252781334e+01  4.5005499053800342e+01  4.5059747328752195e+01  4.5067128232176756e+01  4.4970088994090531e+01  4.5004836214253537e+01  4.4883853331928862e+01  4.4996259850417275e+01  4.5011421830640778e+01  4.4978949453087324e+01  4.4992774972312780e+01  4.5016229225520512e+01  4.5007027255573433e+01  4.4996529647418846e+01  4.4991182372969675e+01  4.5000203357078476e+01  4.4999484105323830e+01  4.5001107467334627e+01  4.5000214125488625e+01  4.5048077438025679e+01  4.5002305172452999e+01  4.5061828277940613e+01  4.4991342773349196e+01  4.4998054408495364e+01  4.5001622013186925e+01  4.4984531510267622e+01  4.4955454362809803e+01  4.5004986960151172e+01  4.4938726432590762e+01  4.5018378900875774e+01  4.5035009064760565e+01  4.4986805819715940e+01  4.4999436637735030e+01  4.5044371817550783e+01  4.5002643944742069e+01  4.5003833159077395e+01  4.4996664980010053e+01  4.5038341878500248e+01  4.5030670767015714e+01  4.5042143841408553e+01  4.5000211843478972e+01  4.4979397271103252e+01  4.4988571121400788e+01  4.5042004521647492e+01  4.5015628390459774e+01  4.5040795305572203e+01  4.4832907701964537e+01  4.4991595287595082e+01  4.4998700977788936e+01  4.4997834949051011e+01  4.4997374775244580e+01  4.4927537762927884e+01  4.5008073803439991e+01  4.5011785656287380e+01  4.5033298168996630e+01  4.5007658475763904e+01  4.5000674670983010e+01  4.4988264513591425e+01  4.4999843949124639e+01  4.5005084676718454e+01  4.4977633752324685e+01  4.5010810212556486e+01  4.5009743590829821e+01  4.4998335712229391e+01  4.4708283305870239e+01  4.5120456314911628e+01  4.4964207918087894e+01  4.5004136547001245e+01  4.4986632649300233e+01  4.5010038282979515e+01  4.4998690073269948e+01  4.4983321302224304e+01  4.4869207387946311e+01  4.4899252341855451e+01  4.5064401816511349e+01  4.4960237074774547e+01  4.4999688689877793e+01  4.5027566241708548e+01  4.4975987964562599e+01  4.5002281119982442e+01  4.5001376741809089e+01  4.5000405913160158e+01  4.4999710079315314e+01  4.5001259605465613e+01  4.5000811720980771e+01  4.4965889997433074e+01  4.5047080758126121e+01  4.4963136824363680e+01  4.4988932178572966e+01  4.5000439766761410e+01  4.5000523664361076e+01  4.4999185846066624e+01  4.5003629640915278e+01  4.5039467957988975e+01  4.5156210675564552e+01  4.4978093709684572e+01  4.4988340282628414e+01  4.4950248233185704e+01  4.5043658823063375e+01  4.4992124229238499e+01  4.5006630941043909e+01  4.4974378462977242e+01  4.5001173364949388e+01  4.5046505958391954e+01  4.5193346492411592e+01  4.4976650135502673e+01  4.5012735283714520e+01  4.5035993108770647e+01  4.5022297408520181e+01  4.4997646882975609e+01  4.4998418559741211e+01  4.5002092448752691e+01  4.5013284750415735e+01  4.4957984721535929e+01  4.4972442222594125e+01  4.5003355199537587e+01  4.4999300397578523e+01  4.5000873008993374e+01  4.5000000000000064e+01  4.4998172000427289e+01  4.5035659620464749e+01  4.4992910358436781e+01  4.5041392826096519e+01  4.4995323973705318e+01  4.4968842610459582e+01  4.4986675170545801e+01  4.5005291143028266e+01  4.4962957068495271e+01  4.5005025363961096e+01  4.5009845907179539e+01  4.4998747664457092e+01  4.4972999480503148e+01  4.4979636785672888e+01  4.5035698776299661e+01  4.4999948596204710e+01  4.4987878000809459e+01  4.4992070959193569e+01  4.5023078426868736e+01  4.5018222535057753e+01  4.4958835396034281e+01  4.4938614292123084e+01  4.5001538023763366e+01  4.5008643415254404e+01  4.4939460246866098e+01  4.5009521960484577e+01  4.5002141889884932e+01  4.4990172086245202e+01  4.4996782360399280e+01  4.4995818354544667e+01  4.5023618019870121e+01  4.5070359080623192e+01  4.5001359044013988e+01  4.5000547693050677e+01  4.5002218496213530e+01  4.5001237381112666e+01  4.5037080902500087e+01  4.4951799035084328e+01  4.4993641777930144e+01  4.5008945728670930e+01  4.5000000000000064e+01  4.5030692333256276e+01  4.4968745388101134e+01  4.5030353154745129e+01  4.5007612700486881e+01  4.4998362615751823e+01  4.5009343478540856e+01  4.4912357186842421e+01  4.5010281488120427e+01  4.4999356499474452e+01  4.4997540246243517e+01  4.5004708425306418e+01  4.5002891157220191e+01  4.4997614683784889e+01  4.5000185436715768e+01  4.5001507568980863e+01  4.4999401974049128e+01  4.5000343051455445e+01  4.5001385833016556e+01  4.4912861416846845e+01  4.5008716418405832e+01  4.5005632074311869e+01  4.4995092086667206e+01  4.5012143187710571e+01  4.5006079297988585e+01  4.5008269307086607e+01  4.5015849211273071e+01  4.4953420992064444e+01  4.4989464164373359e+01  4.5006223963357783e+01  4.4993472851578979e+01  4.5003035583409535e+01  4.4963768187247872e+01  4.5000382194591459e+01  4.5020534777314445e+01  4.4993507041134805e+01  4.4996040500635125e+01  4.4970013091380871e+01  4.5016911323679018e+01  4.5047693554829522e+01  4.4990151624714571e+01  4.5003941968260818e+01  4.5003333418919524e+01  4.5040903652533814e+01  4.4999733618834341e+01  4.4996812033358388e+01  4.5107910626757565e+01  4.5001366833281530e+01  4.5001504443677334e+01  4.5001642485969271e+01  4.5013901570493523e+01  4.5063710101293175e+01  4.4849002390397281e+01  4.5041215752072283e+01  4.4976667649356500e+01  4.5002452730789351e+01  4.4981754572631466e+01  4.4978297698898004e+01  4.5020817021029536e+01  4.5002385547454814e+01  4.4558065744858411e+01  4.4876326939368809e+01  4.4833318106328740e+01  4.5003158733424875e+01  4.4999888256667688e+01  4.4999315278494393e+01  4.5003220004372388e+01  4.4997315281248518e+01  4.4981147610163902e+01  4.4880022299443723e+01  4.5024245726376137e+01  4.5005259424821439e+01  4.5022286940184465e+01  4.5000421205350328e+01  4.5000516060505397e+01  4.5000520073478945e+01  4.4967472212319890e+01  4.5007362994124314e+01  4.4971776784632027e+01  4.4998405728747514e+01  4.5012400568204079e+01  4.5002052772436620e+01  4.4993204848344952e+01  4.4847751145031140e+01  4.5002417296493043e+01  4.5007630438342908e+01  4.5029774609883759e+01  4.4975797205501927e+01  4.4978406726020367e+01  4.5108054882886577e+01  4.5150875978833632e+01  4.5037220394241324e+01  4.4979670019588191e+01  4.5000490074944125e+01  4.5070845800341615e+01  4.5038375458066767e+01  4.4973971061891206e+01  4.5023650511160071e+01  4.4981349740854711e+01  4.5005980095293268e+01  4.4993977397488450e+01  4.5004363991913827e+01  4.4971796335244157e+01  4.4902014486935542e+01  4.4984040661359195e+01  4.5085390110089882e+01  4.5013974106349018e+01  4.5006878596604324e+01  4.4991506674557698e+01  4.5065812253131604e+01  4.4999347376565268e+01  4.5017994128416845e+01  4.4962298880812895e+01  4.4972498876240806e+01  4.5038395499442004e+01  4.5010160218811642e+01  4.4953431216231778e+01  4.4928643170673453e+01  4.4892754372459649e+01  4.5009390653638896e+01  4.4999627204494374e+01  4.4994938059671917e+01  4.4994983150757562e+01  4.5003013724593437e+01  4.5041334725463784e+01  4.4985937418974466e+01  4.5000421376469987e+01  4.5027480862449814e+01  4.5010611608750487e+01  4.4986590765425753e+01  4.4954867576117607e+01  4.5059339462125990e+01  4.5013203990601077e+01  4.5029814477374913e+01  4.5197327580966402e+01  4.4994645868446391e+01  4.4995375490488271e+01  4.5009931551956434e+01  4.4994185425459435e+01  4.4948720363279307e+01  4.5005768266298112e+01  4.4993164803501564e+01  4.5050585955524532e+01  4.4998641974902846e+01  4.4998536697023440e+01  4.4998274644630150e+01  4.4991678102662185e+01  4.5000000000000064e+01  4.4992265137466674e+01  4.4967134689299712e+01  4.5010940203737292e+01  4.5007323344383316e+01  4.4991036020910705e+01  4.5013556613345486e+01  4.5012438403436406e+01  4.5000413470404737e+01  4.5000558765198420e+01  4.4999361774381896e+01  4.5007830562462715e+01  4.5010587932340343e+01  4.5000980078203426e+01  4.4972098074271820e+01  4.4931484764504717e+01  4.5000811767722226e+01  4.5001276041294915e+01  4.4926644963119408e+01  4.5015635369084578e+01  4.4997429848163243e+01  4.5000987465669056e+01  4.4918992374937169e+01  4.5301328693584907e+01  4.4998640598896309e+01  4.5024819948528240e+01  4.5004449879583653e+01  4.5008348357584403e+01  4.5013499748455331e+01  4.4941859339395769e+01  4.5049238933147102e+01  4.4997696412343636e+01  4.5000240000680307e+01  4.5002576082710384e+01  4.4983329890398437e+01  4.4998389218952553e+01  4.4999350019118296e+01  4.4990042899405765e+01  4.4998987763066033e+01  4.5002726253146555e+01  4.4777773715353177e+01  4.4979709270818496e+01  4.4998468432359410e+01  4.5014041239610080e+01  4.4953992387872873e+01  4.4974985592426158e+01  4.4995842617887426e+01  4.5000620371000110e+01  4.5023802431010324e+01  4.5012884657040622e+01  4.5000742231738542e+01  4.5054068542762479e+01  4.5007738070373975e+01  4.5005662232018594e+01  4.5265040432529617e+01  4.5001916242188095e+01  4.5008008842601441e+01  4.4981685416870846e+01  4.5086092111815859e+01  4.5094745604592248e+01  4.4999453333208272e+01  4.4992802457368199e+01  4.4969061551485581e+01  4.5040769715687411e+01  4.5094003976711399e+01  4.4970115314522303e+01  4.5002572598470110e+01  4.4958900181046154e+01  4.5067394052559457e+01  4.5125921581654822e+01  4.4998383952866909e+01  4.4989084271479115e+01  4.4994062095542141e+01  4.4933983425336649e+01  4.5000000000000064e+01  4.4964234905618419e+01  4.5000331721344097e+01  4.4955661158064487e+01  4.5040784941284812e+01  4.5023536061996154e+01  4.5010653153293347e+01  4.5035298444256554e+01  4.4980084034941918e+01  4.4996942357305727e+01  4.4966546476542398e+01  4.4972108555005207e+01  4.4986432172054450e+01  4.5016257962487707e+01  4.4988150740791774e+01  4.4982707245233932e+01  4.4988592468880405e+01  4.5023496143605712e+01  4.4986231202228417e+01  4.5026489246423786e+01  4.5000938357278372e+01  4.5005278263112984e+01  4.4929366893982909e+01  4.4758738059209129e+01  4.5004332507179640e+01  4.5081620925079299e+01  4.5032552642196435e+01  4.5006166564157674e+01  4.4957711750554694e+01  4.4988890438339112e+01  4.5011081306622231e+01  4.5015620843994412e+01  4.4953766156648499e+01  4.5012158425279125e+01  4.5020095047959714e+01  4.4998863536123949e+01  4.4998369568002296e+01  4.5044179389029381e+01  4.5000000000000064e+01  4.4963584361963413e+01  4.4973391552464030e+01  4.5009842296531708e+01  4.5065196294673250e+01  4.4945730410479989e+01  4.4996057651538663e+01  4.5057851491044502e+01  4.4976186713034622e+01  4.4968207166172945e+01  4.5017700225187994e+01  4.5022200585399432e+01  4.5003920684255093e+01  4.4996409985175539e+01  4.4998775222557995e+01  4.5020780442107196e+01  4.4994538556185837e+01  4.4994499839762696e+01  4.5004163102399879e+01  4.5026108630618261e+01  4.4997099561742495e+01  4.4965083668195710e+01  4.5000072004563783e+01  4.5000203212814448e+01  4.4999212827810545e+01  4.4922634136561250e+01  4.4997594415569175e+01  4.4994436778347065e+01  4.4987530211109060e+01  4.4955739877939571e+01  4.4995392447792888e+01  4.5016646121890368e+01  4.5006624928041660e+01  4.4999594368189136e+01  4.4988218494691509e+01  4.4952668346919289e+01  4.5031392730740748e+01  4.4982201448672541e+01  4.5001562951722420e+01  4.5011818703300179e+01  4.5000000000000064e+01  4.4939897262046337e+01  4.5010295091285002e+01  4.4855850619899805e+01  4.5098773234064268e+01  4.4995973316797681e+01  4.5014033291278380e+01  4.4960552775588177e+01  4.4975134697763451e+01  4.5000005244819661e+01  4.5003475281244867e+01  4.4992695184794449e+01  4.4977544099109721e+01  4.4982163412266893e+01  4.5029338949760913e+01  4.4999704930297199e+01  4.5029254724956161e+01  4.4980455326015843e+01  4.4989901539673070e+01  4.4964738854913122e+01  4.4985365939212500e+01  4.5001449665765328e+01  4.4999890651085501e+01  4.5010678553402485e+01  4.5003251421956548e+01  4.5011150790038151e+01  4.4971876870757647e+01  4.4984604404036489e+01  4.4929290033769277e+01  4.4911459993307460e+01  4.4999969811942726e+01  4.4918491652353133e+01  4.5037865258285905e+01  4.4966600603544443e+01  4.5005370431332295e+01  4.5005563059376350e+01  4.5000314279460930e+01  4.5000715575118257e+01  4.5009312706833292e+01  4.4971130011698925e+01  4.4997690612938577e+01  4.5000225086433538e+01  4.5002241018320838e+01  4.4949290110718060e+01  4.5000000000000064e+01  4.5019929112627182e+01  4.4999728039162399e+01  4.4999924816714120e+01  4.4999587632439741e+01  4.5001233120152058e+01  4.4999430208143146e+01  4.4982750387308045e+01  4.4976648252501455e+01  4.5045828049622486e+01  4.5012194482762084e+01  4.5003003222890328e+01  </DataArray> 
</PointData> 
</Piece>
</UnstructuredGrid>
</VTKFile>