<?xml version="1.0"?>
<VTKFile type="UnstructuredGrid"  version="0.1"  >
<UnstructuredGrid>
<Piece  NumberOfPoints="3850" NumberOfCells="18761">
<Points>
<DataArray  type="Float64"  NumberOfComponents="3"  format="ascii">0 15 25  1.25 16.25 26.25  1.25 16.25 25  0 16.25 25  0 17.5 25  1.25 17.5 26.25  1.25 17.5 25  2.5 17.5 25  0 16.25 26.25  0 17.5 26.25  0 17.5 27.5  2.5 15 25  3.75 16.25 26.25  3.75 16.25 25  3.75 15 25  5 15 25  5 16.25 26.25  5 16.25 25  5 17.5 25  2.5 16.25 25  3.75 17.5 26.25  3.75 17.5 25  6.25 16.25 26.25  6.25 16.25 25  6.25 15 25  7.5 15 25  7.5 16.25 25  7.5 17.5 25  6.25 17.5 25  1.25 18.75 26.25  1.25 18.75 25  2.5 18.75 26.25  2.5 18.75 25  2.5 20 25  0 18.75 25  0 20 25  1.25 20 25  0 18.75 26.25  3.75 18.75 26.25  3.75 18.75 25  5 18.75 25  5 20 25  3.75 20 25  3.75 21.25 26.25  3.75 21.25 25  5 21.25 25  5 22.5 25  2.5 21.25 25  2.5 22.5 25  3.75 22.5 26.25  3.75 22.5 25  3.75 23.75 26.25  3.75 23.75 25  5 23.75 25  5 25 25  0 10 0  1.25 11.25 1.25  1.25 11.25 0  0 11.25 0  0 12.5 0  1.25 12.5 1.25  1.25 12.5 0  2.5 12.5 0  2.5 12.5 1.25  2.5 12.5 2.5  0 12.5 2.5  1.25 12.5 2.5  1.25 11.25 2.5  0 11.25 2.5  0 11.25 1.25  0 12.5 1.25  5 12.5 0  5 12.5 1.25  5 11.25 1.25  3.75 11.25 1.25  5 11.25 0  3.75 11.25 0  5 12.5 2.5  5 11.25 2.5  3.75 11.25 2.5  3.75 12.5 1.25  3.75 12.5 0  3.75 12.5 2.5  7.5 12.5 0  7.5 12.5 1.25  7.5 11.25 1.25  6.25 11.25 1.25  7.5 11.25 0  6.25 11.25 0  7.5 12.5 2.5  7.5 11.25 2.5  6.25 11.25 2.5  6.25 12.5 1.25  6.25 12.5 0  6.25 12.5 2.5  10 10 0  10 11.25 1.25  10 11.25 0  8.75 11.25 1.25  8.75 11.25 0  10 12.5 0  10 12.5 1.25  10 12.5 2.5  10 10 1.25  10 10 2.5  10 11.25 2.5  8.75 11.25 2.5  8.75 12.5 1.25  8.75 12.5 0  8.75 12.5 2.5  1.25 13.75 1.25  1.25 13.75 0  2.5 13.75 1.25  2.5 13.75 0  2.5 15 0  2.5 15 1.25  2.5 15 2.5  2.5 13.75 2.5  1.25 13.75 2.5  0 13.75 0  0 15 0  1.25 15 1.25  1.25 15 0  0 13.75 1.25  0 13.75 2.5  0 15 2.5  1.25 15 2.5  0 15 1.25  3.75 13.75 1.25  3.75 13.75 0  5 13.75 1.25  5 13.75 0  5 15 0  5 15 1.25  5 15 2.5  5 13.75 2.5  3.75 13.75 2.5  3.75 15 1.25  3.75 15 0  3.75 15 2.5  6.25 13.75 1.25  6.25 13.75 0  7.5 13.75 1.25  7.5 13.75 0  7.5 15 0  7.5 15 1.25  7.5 15 2.5  7.5 13.75 2.5  6.25 13.75 2.5  6.25 15 1.25  6.25 15 0  6.25 15 2.5  8.75 13.75 1.25  8.75 13.75 0  10 13.75 1.25  10 13.75 0  10 15 0  10 15 1.25  10 15 2.5  10 13.75 2.5  8.75 13.75 2.5  8.75 15 1.25  8.75 15 0  8.75 15 2.5  3.75 16.25 1.25  3.75 16.25 0  5 16.25 1.25  5 16.25 0  5 17.5 0  5 17.5 1.25  5 17.5 2.5  5 16.25 2.5  3.75 16.25 2.5  6.25 16.25 1.25  6.25 16.25 0  7.5 16.25 1.25  7.5 16.25 0  7.5 17.5 0  7.5 17.5 1.25  7.5 17.5 2.5  7.5 16.25 2.5  6.25 16.25 2.5  6.25 17.5 1.25  6.25 17.5 0  6.25 17.5 2.5  8.75 16.25 1.25  8.75 16.25 0  10 16.25 1.25  10 16.25 0  10 17.5 0  10 17.5 1.25  10 17.5 2.5  10 16.25 2.5  8.75 16.25 2.5  8.75 17.5 1.25  8.75 17.5 0  8.75 17.5 2.5  1.25 12.5 3.75  1.25 11.25 3.75  2.5 12.5 3.75  2.5 12.5 5  0 12.5 3.75  0 11.25 3.75  0 12.5 5  1.25 12.5 5  5 12.5 3.75  5 11.25 3.75  3.75 11.25 3.75  5 12.5 5  5 11.25 5  3.75 11.25 5  3.75 12.5 3.75  3.75 12.5 5  7.5 12.5 3.75  7.5 11.25 3.75  6.25 11.25 3.75  7.5 12.5 5  7.5 11.25 5  6.25 11.25 5  6.25 12.5 3.75  6.25 12.5 5  10 11.25 3.75  8.75 11.25 3.75  10 12.5 3.75  10 12.5 5  10 10 3.75  10 10 5  10 11.25 5  8.75 11.25 5  8.75 12.5 3.75  8.75 12.5 5  1.25 13.75 3.75  2.5 13.75 3.75  2.5 15 3.75  2.5 15 5  2.5 13.75 5  1.25 13.75 5  1.25 15 3.75  0 13.75 3.75  0 13.75 5  0 15 5  1.25 15 5  0 15 3.75  3.75 13.75 3.75  5 13.75 3.75  5 15 3.75  5 15 5  5 13.75 5  3.75 13.75 5  3.75 15 3.75  3.75 15 5  6.25 13.75 3.75  7.5 13.75 3.75  7.5 15 3.75  7.5 15 5  7.5 13.75 5  6.25 13.75 5  6.25 15 3.75  6.25 15 5  8.75 13.75 3.75  10 13.75 3.75  10 15 3.75  10 15 5  10 13.75 5  8.75 13.75 5  8.75 15 3.75  8.75 15 5  1.25 16.25 3.75  2.5 16.25 3.75  2.5 16.25 5  2.5 17.5 5  1.25 16.25 5  0 16.25 3.75  0 16.25 5  0 17.5 5  1.25 17.5 5  3.75 16.25 3.75  5 16.25 3.75  5 17.5 3.75  5 17.5 5  5 16.25 5  3.75 16.25 5  3.75 17.5 5  6.25 16.25 3.75  7.5 16.25 3.75  7.5 17.5 3.75  7.5 17.5 5  7.5 16.25 5  6.25 16.25 5  6.25 17.5 3.75  6.25 17.5 5  8.75 16.25 3.75  10 16.25 3.75  10 17.5 3.75  10 17.5 5  10 16.25 5  8.75 16.25 5  8.75 17.5 3.75  8.75 17.5 5  2.5 12.5 6.25  2.5 11.25 6.25  1.25 11.25 6.25  2.5 12.5 7.5  1.25 12.5 6.25  0 12.5 6.25  0 12.5 7.5  1.25 12.5 7.5  5 12.5 6.25  5 11.25 6.25  3.75 11.25 6.25  5 12.5 7.5  5 11.25 7.5  3.75 11.25 7.5  3.75 12.5 6.25  3.75 12.5 7.5  7.5 12.5 6.25  7.5 11.25 6.25  6.25 11.25 6.25  7.5 12.5 7.5  7.5 11.25 7.5  6.25 11.25 7.5  6.25 12.5 6.25  6.25 12.5 7.5  10 11.25 6.25  8.75 11.25 6.25  10 12.5 6.25  10 12.5 7.5  10 10 6.25  10 10 7.5  10 11.25 7.5  8.75 11.25 7.5  8.75 12.5 6.25  8.75 12.5 7.5  1.25 13.75 6.25  2.5 13.75 6.25  2.5 15 6.25  2.5 15 7.5  2.5 13.75 7.5  1.25 13.75 7.5  1.25 15 6.25  0 13.75 6.25  0 13.75 7.5  0 15 7.5  1.25 15 7.5  0 15 6.25  3.75 13.75 6.25  5 13.75 6.25  5 15 6.25  5 15 7.5  5 13.75 7.5  3.75 13.75 7.5  3.75 15 6.25  3.75 15 7.5  6.25 13.75 6.25  7.5 13.75 6.25  7.5 15 6.25  7.5 15 7.5  7.5 13.75 7.5  6.25 13.75 7.5  6.25 15 6.25  6.25 15 7.5  8.75 13.75 6.25  10 13.75 6.25  10 15 6.25  10 15 7.5  10 13.75 7.5  8.75 13.75 7.5  8.75 15 6.25  8.75 15 7.5  1.25 16.25 6.25  2.5 16.25 6.25  2.5 17.5 6.25  2.5 17.5 7.5  2.5 16.25 7.5  1.25 16.25 7.5  1.25 17.5 6.25  0 16.25 6.25  0 16.25 7.5  0 17.5 7.5  1.25 17.5 7.5  0 17.5 6.25  3.75 16.25 6.25  5 16.25 6.25  5 17.5 6.25  5 17.5 7.5  5 16.25 7.5  3.75 16.25 7.5  3.75 17.5 6.25  3.75 17.5 7.5  6.25 16.25 6.25  7.5 16.25 6.25  7.5 17.5 6.25  7.5 17.5 7.5  7.5 16.25 7.5  6.25 16.25 7.5  6.25 17.5 6.25  6.25 17.5 7.5  8.75 16.25 6.25  10 16.25 6.25  10 17.5 6.25  10 17.5 7.5  10 16.25 7.5  8.75 16.25 7.5  8.75 17.5 6.25  8.75 17.5 7.5  1.25 18.75 6.25  2.5 18.75 6.25  2.5 18.75 7.5  2.5 20 7.5  1.25 18.75 7.5  0 18.75 6.25  0 18.75 7.5  0 20 7.5  1.25 20 7.5  3.75 18.75 6.25  5 18.75 6.25  5 18.75 7.5  5 20 7.5  3.75 18.75 7.5  3.75 20 7.5  6.25 18.75 6.25  7.5 18.75 6.25  7.5 18.75 7.5  7.5 20 7.5  6.25 18.75 7.5  6.25 20 7.5  8.75 18.75 6.25  10 18.75 6.25  10 18.75 7.5  10 20 7.5  8.75 18.75 7.5  8.75 20 7.5  11.25 18.75 6.25  11.25 18.75 7.5  11.25 20 7.5  12.5 20 7.5  5 12.5 8.75  5 11.25 8.75  3.75 11.25 8.75  5 12.5 10  3.75 12.5 8.75  2.5 12.5 8.75  2.5 12.5 10  3.75 12.5 10  7.5 12.5 8.75  7.5 11.25 8.75  6.25 11.25 8.75  7.5 12.5 10  6.25 12.5 8.75  6.25 12.5 10  10 11.25 8.75  8.75 11.25 8.75  10 12.5 8.75  10 12.5 10  10 11.25 10  8.75 11.25 10  8.75 12.5 8.75  8.75 12.5 10  1.25 13.75 8.75  2.5 13.75 8.75  2.5 15 8.75  2.5 15 10  1.25 12.5 8.75  2.5 13.75 10  0 12.5 8.75  0 12.5 10  1.25 13.75 10  1.25 12.5 10  1.25 15 8.75  0 13.75 8.75  0 13.75 10  0 15 10  1.25 15 10  0 15 8.75  3.75 13.75 8.75  5 13.75 8.75  5 15 8.75  5 15 10  5 13.75 10  3.75 13.75 10  3.75 15 8.75  3.75 15 10  6.25 13.75 8.75  7.5 13.75 8.75  7.5 15 8.75  7.5 15 10  7.5 13.75 10  6.25 13.75 10  6.25 15 8.75  6.25 15 10  8.75 13.75 8.75  10 13.75 8.75  10 15 8.75  10 15 10  10 13.75 10  8.75 13.75 10  8.75 15 8.75  8.75 15 10  1.25 16.25 8.75  2.5 16.25 8.75  2.5 17.5 8.75  2.5 17.5 10  2.5 16.25 10  1.25 16.25 10  1.25 17.5 8.75  0 16.25 8.75  0 16.25 10  0 17.5 10  1.25 17.5 10  0 17.5 8.75  3.75 16.25 8.75  5 16.25 8.75  5 17.5 8.75  5 17.5 10  5 16.25 10  3.75 16.25 10  3.75 17.5 8.75  3.75 17.5 10  6.25 16.25 8.75  7.5 16.25 8.75  7.5 17.5 8.75  7.5 17.5 10  7.5 16.25 10  6.25 16.25 10  6.25 17.5 8.75  6.25 17.5 10  8.75 16.25 8.75  10 16.25 8.75  10 17.5 8.75  10 17.5 10  10 16.25 10  8.75 16.25 10  8.75 17.5 8.75  8.75 17.5 10  11.25 16.25 8.75  11.25 16.25 10  11.25 17.5 10  12.5 17.5 10  11.25 17.5 8.75  1.25 18.75 8.75  2.5 18.75 8.75  2.5 20 8.75  2.5 20 10  2.5 18.75 10  1.25 18.75 10  1.25 20 8.75  0 18.75 8.75  0 18.75 10  0 20 10  1.25 20 10  0 20 8.75  3.75 18.75 8.75  5 18.75 8.75  5 20 8.75  5 20 10  5 18.75 10  3.75 18.75 10  3.75 20 8.75  3.75 20 10  6.25 18.75 8.75  7.5 18.75 8.75  7.5 20 8.75  7.5 20 10  7.5 18.75 10  6.25 18.75 10  6.25 20 8.75  6.25 20 10  8.75 18.75 8.75  10 18.75 8.75  10 20 8.75  10 20 10  10 18.75 10  8.75 18.75 10  8.75 20 8.75  8.75 20 10  11.25 18.75 8.75  11.25 18.75 10  12.5 18.75 10  12.5 20 10  11.25 20 8.75  12.5 20 8.75  11.25 20 10  1.25 21.25 8.75  2.5 21.25 8.75  2.5 21.25 10  2.5 22.5 10  1.25 21.25 10  0 21.25 8.75  0 21.25 10  0 22.5 10  1.25 22.5 10  3.75 21.25 8.75  5 21.25 8.75  5 21.25 10  5 22.5 10  3.75 21.25 10  3.75 22.5 10  6.25 21.25 8.75  7.5 21.25 8.75  7.5 21.25 10  7.5 22.5 10  6.25 21.25 10  6.25 22.5 10  8.75 21.25 8.75  10 21.25 8.75  10 21.25 10  10 22.5 10  8.75 21.25 10  8.75 22.5 10  11.25 21.25 8.75  12.5 21.25 8.75  12.5 21.25 10  12.5 22.5 10  11.25 21.25 10  11.25 22.5 10  3.75 12.5 11.25  3.75 11.25 11.25  5 12.5 11.25  5 12.5 12.5  2.5 12.5 11.25  2.5 12.5 12.5  3.75 12.5 12.5  10 12.5 11.25  10 11.25 11.25  8.75 11.25 11.25  10 12.5 12.5  10 11.25 12.5  8.75 11.25 12.5  8.75 12.5 11.25  7.5 12.5 12.5  8.75 12.5 12.5  7.5 12.5 11.25  1.25 13.75 11.25  2.5 13.75 11.25  2.5 15 11.25  2.5 15 12.5  1.25 12.5 11.25  2.5 13.75 12.5  0 12.5 11.25  0 12.5 12.5  1.25 13.75 12.5  1.25 12.5 12.5  1.25 15 11.25  0 13.75 11.25  0 13.75 12.5  0 15 12.5  1.25 15 12.5  0 15 11.25  3.75 13.75 11.25  5 13.75 11.25  5 15 11.25  5 15 12.5  5 13.75 12.5  3.75 13.75 12.5  3.75 15 11.25  3.75 15 12.5  6.25 13.75 11.25  7.5 13.75 11.25  7.5 15 11.25  7.5 15 12.5  6.25 12.5 11.25  7.5 13.75 12.5  6.25 13.75 12.5  6.25 12.5 12.5  6.25 15 11.25  6.25 15 12.5  8.75 13.75 11.25  10 13.75 11.25  10 15 11.25  10 15 12.5  10 13.75 12.5  8.75 13.75 12.5  8.75 15 11.25  8.75 15 12.5  1.25 16.25 11.25  2.5 16.25 11.25  2.5 17.5 11.25  2.5 17.5 12.5  2.5 16.25 12.5  1.25 16.25 12.5  1.25 17.5 11.25  0 16.25 11.25  0 16.25 12.5  0 17.5 12.5  1.25 17.5 12.5  0 17.5 11.25  3.75 16.25 11.25  5 16.25 11.25  5 17.5 11.25  5 17.5 12.5  5 16.25 12.5  3.75 16.25 12.5  3.75 17.5 11.25  3.75 17.5 12.5  6.25 16.25 11.25  7
[...]
<PointData  Vectors="u"> 
<DataArray  type="Float64"  Name="u"  NumberOfComponents="3" format="ascii">2.0000000000060589e+02 1.5298097030830133e-10 -3.2506216814158831e-11  1.9999999999899885e+02 -1.0524372619938626e-10 -1.7060515930020825e-11  1.9999999999910366e+02 -2.5953642068289259e-10 -1.2639724095349312e-10  2.0000000000006293e+02 -1.2638048965727696e-10 1.4136934890602766e-10  2.0000000000063574e+02 1.3444033146428709e-10 -4.7870870129774121e-11  1.9999999999906069e+02 -1.7257182049207780e-10 -1.1144464210479007e-10  1.9999999999900291e+02 -4.8275180272297618e-11 7.5833430567726845e-11  1.9999999999821429e+02 1.7471920908065988e-10 5.5085961185930091e-12  1.9999999999972610e+02 -7.3006257540408151e-11 6.2095059080253559e-12  2.0000000000002953e+02 -1.4593062828298273e-10 -1.3992964849285472e-11  2.0000000000060754e+02 1.3101899783676044e-10 1.0636880890774742e-10  1.9999999999820682e+02 1.4059923769029781e-10 1.6134729282452145e-11  1.9999999999719006e+02 -1.2137996408115407e-10 -7.6668696198697651e-11  1.9999999999707492e+02 -2.5477289289784963e-10 -1.0681591394961235e-10  1.9999999999722021e+02 -7.2416389819353258e-11 7.2750472299022065e-11  1.9999999999647940e+02 1.6232622050996449e-10 -3.2015775783693744e-11  1.9999999999614684e+02 -1.2253524805821583e-10 -1.1479013303299663e-10  1.9999999999627721e+02 -5.7848399380034884e-11 7.8360583833781147e-11  1.9999999999645829e+02 1.1180166541793364e-10 -2.2029271347443109e-11  1.9999999999817527e+02 -6.4410990977429702e-11 -9.5150316425771197e-12  1.9999999999718230e+02 -1.3779622140105915e-10 -1.0957742272017126e-10  1.9999999999716658e+02 -4.9510156479821532e-11 4.5559431714758803e-11  1.9999999999535405e+02 -1.4260721967546743e-10 -1.1075453991864260e-10  1.9999999999521580e+02 -2.3688738314430423e-10 -7.9497066041950396e-11  1.9999999999538434e+02 -6.9448610804554045e-11 9.7726036647815706e-11  1.9999999999467340e+02 1.3049022603264442e-10 -2.4034272061647707e-11  1.9999999999448593e+02 -3.9243196225343129e-11 7.8130311891079757e-11  1.9999999999466212e+02 1.4530418536999911e-10 -3.4852825042519077e-11  1.9999999999544323e+02 -5.9824402506659720e-11 8.9930955419201662e-11  1.9999999999902064e+02 -1.0049475467573321e-10 -5.5558227951059603e-13  1.9999999999907965e+02 -2.4354885120343131e-10 -8.1863187091843453e-11  1.9999999999810433e+02 -2.3332992435972357e-10 -1.7991549548313022e-10  1.9999999999821370e+02 -6.8660559136853224e-11 -1.3302071903397986e-11  1.9999999999821594e+02 1.8686267442557346e-10 -3.0711861825693185e-11  2.0000000000012284e+02 1.6308650534293954e-11 7.0764211671611311e-11  2.0000000000052947e+02 1.4801579521417723e-10 -6.5588860303460841e-11  1.9999999999903287e+02 -4.4080904418959144e-11 4.4315229886739821e-11  1.9999999999971007e+02 -3.6783704351082446e-11 1.6665894355776179e-11  1.9999999999718324e+02 -8.5597115202984722e-11 -6.5494333536113900e-11  1.9999999999701842e+02 -2.4242888199242295e-10 -4.9163748232704234e-11  1.9999999999628790e+02 -2.1353261691199566e-11 8.1276181038892276e-11  1.9999999999645541e+02 1.8547738254326125e-10 -3.8358345642067012e-11  1.9999999999720151e+02 -3.6076333544399623e-11 5.7528239409907652e-11  1.9999999999716644e+02 -7.0638817193587376e-11 -9.5806928903443589e-11  1.9999999999710383e+02 -2.1939129016969281e-10 -4.8903577171403485e-11  1.9999999999625408e+02 -4.3208633184227163e-11 5.9015900556471196e-11  1.9999999999646099e+02 1.1030287347257894e-10 -2.0950707677104026e-11  1.9999999999815927e+02 -7.0843949350330153e-11 -3.1249977996494693e-12  1.9999999999819138e+02 1.6121722839023937e-10 -1.9157621806884659e-11  1.9999999999720825e+02 -2.0649454319119739e-10 -1.0093284652578489e-10  1.9999999999726003e+02 -1.2625080473712298e-10 6.4527738371774965e-11  1.9999999999719225e+02 -6.3021788586101360e-11 -6.1673930304922180e-11  1.9999999999705835e+02 -2.0158778456298849e-10 -4.7206828324294474e-11  1.9999999999630577e+02 -4.3194522406266709e-11 9.0043535293854244e-11  1.9999999999645465e+02 1.4628159748803516e-10 1.5388154973438574e-11  2.0000000000057943e+02 1.0312317533722271e-10 7.8145886249888419e-10  1.9999999999900749e+02 -7.7361955991479170e-11 -1.0460095225785279e-10  1.9999999999910605e+02 -2.3187123033149237e-10 -5.6509875371851968e-10  2.0000000000000043e+02 -8.5449084517900147e-11 4.4085780041066054e-11  2.0000000000063025e+02 1.4067363045575739e-10 8.0024941906547585e-10  1.9999999999906638e+02 -2.2782330096568858e-10 -2.2387961814474351e-10  1.9999999999902315e+02 -1.0585443726848764e-10 -1.7439928265626113e-11  1.9999999999818360e+02 1.7005427357110362e-10 7.5023264076192721e-10  1.9999999999816140e+02 -8.7727054694967808e-11 -8.1118594249337701e-11  1.9999999999815262e+02 1.3102070427574792e-10 2.3847675130339282e-10  2.0000000000054808e+02 1.8620125867546605e-10 1.8562686043732900e-10  1.9999999999902724e+02 -7.3072112871327478e-11 6.0809211508856256e-11  1.9999999999908596e+02 -1.4732816500031719e-10 -7.3230680034254138e-11  2.0000000000000381e+02 -1.3477244695264198e-10 -8.2284805275274438e-11  1.9999999999972792e+02 -9.9727732595788659e-11 -1.3620790926708635e-10  1.9999999999997721e+02 -6.5476359490297493e-11 -8.0901275789859056e-11  1.9999999999650288e+02 1.5945368239715645e-10 7.3127932316837043e-10  1.9999999999636867e+02 -5.4751971717648941e-11 -9.0509787935335983e-11  1.9999999999616108e+02 -1.3649701537388789e-10 -2.0293460623148125e-10  1.9999999999717767e+02 -1.0188775223177181e-10 -1.4212169639260736e-10  1.9999999999630222e+02 -7.8463909200747824e-11 -5.9464374096038938e-11  1.9999999999705312e+02 -2.4138237176739190e-10 -5.2141569781070854e-10  1.9999999999645388e+02 1.0643879065244036e-10 1.9466090408872133e-10  1.9999999999634710e+02 -6.5480477273272079e-11 2.2380039714519067e-11  1.9999999999714549e+02 -1.4922515405229761e-10 -1.5507165655214992e-10  1.9999999999713668e+02 -1.5060726744345529e-10 -2.1661765361087470e-10  1.9999999999720293e+02 -5.8152231690619733e-11 -3.1738668598369962e-11  1.9999999999718287e+02 -1.5652244808451394e-11 4.4917930662086651e-11  1.9999999999464822e+02 1.4518618281475351e-10 7.4261724331094423e-10  1.9999999999452970e+02 2.1640941856705748e-11 -9.2264467311287180e-11  1.9999999999433399e+02 -1.5363530718613659e-10 -2.1368106081466857e-10  1.9999999999535345e+02 -8.0210896710740414e-11 -1.9147495316388322e-10  1.9999999999442844e+02 -3.2156058871944559e-11 -2.7570343835930027e-11  1.9999999999521791e+02 -1.9420240235543087e-10 -5.1410675717536198e-10  1.9999999999467565e+02 1.1612822549598674e-10 1.6359865416332042e-10  1.9999999999453414e+02 -5.0347663816370817e-11 1.3146226790971541e-11  1.9999999999532122e+02 -1.2958246566040971e-10 -2.1580967257217551e-10  1.9999999999530195e+02 -2.0196971822892689e-10 -2.4309935349849864e-10  1.9999999999541572e+02 -7.5600745216982412e-11 1.1099504398882008e-11  1.9999999999535876e+02 -3.6601959612024533e-11 3.5553404403565882e-12  1.9999999999291421e+02 1.0024410418361892e-10 7.3632011814390112e-10  1.9999999999262423e+02 -1.6712880007641642e-10 -2.3120164283111201e-10  1.9999999999266385e+02 -2.3454508751314420e-11 -5.6957807731398103e-11  1.9999999999355447e+02 -1.1027618132972543e-10 -1.7670167547896491e-10  1.9999999999343268e+02 -1.9391746370720166e-10 -5.0527744359383404e-10  1.9999999999288610e+02 1.2504096084350639e-10 6.8001518136475943e-10  1.9999999999271074e+02 1.6100711969068546e-11 -6.3087872012278176e-11  1.9999999999289668e+02 1.1720761232548447e-10 1.8562315814632735e-10  1.9999999999267274e+02 -1.3894142456285057e-11 -7.1144186423085240e-11  1.9999999999287527e+02 1.0773957471795574e-10 1.5467398985333122e-10  1.9999999999268434e+02 -4.7369439094616905e-11 5.5353162477848034e-11  1.9999999999348969e+02 -1.5387261646489843e-10 -1.7428573142017885e-10  1.9999999999347335e+02 -1.3628871958604169e-10 -2.0993139060867486e-10  1.9999999999358408e+02 -6.0018236283821494e-11 -9.4812793995530731e-12  1.9999999999359784e+02 3.2746755435462258e-11 3.5255938467989979e-11  1.9999999999896465e+02 -8.1847521547272766e-11 -9.2204616420182940e-11  1.9999999999909707e+02 -2.2995050671103609e-10 -6.4620016189160995e-10  1.9999999999816399e+02 -2.5464208168326268e-10 -3.4484741255112876e-10  1.9999999999824024e+02 -5.4975808982664425e-11 6.6750221690888991e-11  1.9999999999822717e+02 1.5868700858029336e-10 7.5033464714282404e-10  1.9999999999818382e+02 -4.1602564822939403e-11 -7.7811682782238406e-11  1.9999999999818181e+02 1.3127812921945291e-10 1.8231145903544051e-10  1.9999999999824314e+02 -5.1863714187509929e-11 1.9347709365769394e-11  1.9999999999903932e+02 -1.9315135943585655e-10 -6.3135231466822126e-11  2.0000000000001143e+02 -1.8664982156613411e-11 8.9817062839747880e-11  2.0000000000059751e+02 1.8932620983593791e-10 7.7232427675661584e-10  1.9999999999902508e+02 -1.2122619588824930e-10 -2.0172169213432392e-10  1.9999999999895468e+02 -6.5712310977969164e-11 3.8034127004219663e-11  1.9999999999965695e+02 -9.2689153444275089e-11 -1.1392482818907090e-10  1.9999999999996811e+02 -1.2858125191785650e-10 -7.5388534089084500e-11  2.0000000000058270e+02 1.2760873458902386e-10 1.0840848065421891e-10  1.9999999999901354e+02 -5.6871759727901381e-11 -3.4987595718789765e-12  1.9999999999997382e+02 1.3857670204645203e-11 -9.1939562430606149e-11  1.9999999999716263e+02 -6.0277980979906247e-11 -2.0499023636842241e-10  1.9999999999707057e+02 -2.2672704154984248e-10 -4.9118319072977027e-10  1.9999999999612001e+02 -1.3013969691419656e-10 -2.4545256584913204e-10  1.9999999999624916e+02 -3.5483651140457889e-11 -3.0594204367882738e-12  1.9999999999649009e+02 1.1660848086679540e-10 7.2252144240264195e-10  1.9999999999634491e+02 -1.1233424536234216e-11 -1.1878925190669136e-10  1.9999999999645559e+02 9.9041508099922855e-11 2.0140567946594544e-10  1.9999999999633695e+02 -2.9856514329440659e-11 6.4104846117631736e-11  1.9999999999714441e+02 -1.3031850529270722e-10 -1.4706314345806444e-10  1.9999999999709246e+02 -2.4521183671498217e-10 -2.7214246983648102e-10  1.9999999999718673e+02 -1.6188478603568493e-10 4.2975958463654511e-11  1.9999999999718793e+02 -2.2618672278569642e-11 6.5169358413808666e-11  1.9999999999537653e+02 -1.1133183681100801e-10 -2.2566259779119455e-10  1.9999999999523553e+02 -2.2705905257057449e-10 -5.2843281975346363e-10  1.9999999999439871e+02 -1.5703574119080624e-10 -2.3768974750540112e-10  1.9999999999444950e+02 -4.4587465450654235e-11 2.1343769203774075e-11  1.9999999999467059e+02 1.0003943378807931e-10 7.3960470897451349e-10  1.9999999999456156e+02 -3.9532475286990881e-11 -7.7587724096960720e-11  1.9999999999465035e+02 1.0646501819420320e-10 1.9797756723407027e-10  1.9999999999460869e+02 -2.9100957468994306e-11 4.9415266874141417e-11  1.9999999999529004e+02 -9.2042238481344217e-11 -1.9492598692477129e-10  1.9999999999529535e+02 -1.8361975864284353e-10 -2.4604035222464334e-10  1.9999999999532903e+02 -9.2832870705420667e-11 2.6573336453795599e-11  1.9999999999540893e+02 1.0606514570729924e-11 7.5025053279738065e-11  1.9999999999350928e+02 -1.0594203994529509e-10 -2.0153472338245858e-10  1.9999999999340938e+02 -2.2987153415936942e-10 -4.9645673270205027e-10  1.9999999999263244e+02 -1.7864270298836623e-10 -2.3326571221686827e-10  1.9999999999267021e+02 -2.4484273802824603e-11 -3.2729331751118435e-11  1.9999999999288983e+02 1.1836136519737186e-10 7.1421084449697947e-10  1.9999999999267988e+02 1.6578122102399355e-11 -9.3290256397414894e-11  1.9999999999285077e+02 1.1187063686930193e-10 1.8620861344895932e-10  1.9999999999266203e+02 -5.9865861606427372e-11 5.0309551092889789e-11  1.9999999999349410e+02 -1.3946352896275978e-10 -1.2723208889477846e-10  1.9999999999347921e+02 -1.8099677065565164e-10 -2.1806535855784099e-10  1.9999999999357817e+02 -1.3439782706740156e-10 3.0646107004562322e-11  1.9999999999357831e+02 -2.1349221264991357e-11 3.9460921412252549e-11  1.9999999999717508e+02 -5.9489071330213893e-11 -1.7118622242654296e-10  1.9999999999721487e+02 -2.1982611223629356e-10 -5.6774990364826603e-10  1.9999999999617228e+02 -1.4742461884858842e-10 -2.5433354760831017e-10  1.9999999999628238e+02 -7.9974694789239691e-11 3.5709298484808987e-11  1.9999999999644461e+02 1.7756854855567349e-10 7.4248264183661515e-10  1.9999999999640161e+02 -6.8719631425677467e-11 -1.0041762922839737e-10  1.9999999999639530e+02 1.6447089782676529e-10 2.2209045223284670e-10  1.9999999999632354e+02 -8.7341498818993348e-12 7.9877982343781870e-11  1.9999999999722021e+02 -1.0422106656370755e-10 -2.2459683662563024e-10  1.9999999999535709e+02 -8.3392615378366396e-11 -2.0925507701704582e-10  1.9999999999522856e+02 -1.8181343134603923e-10 -5.6165109952649303e-10  1.9999999999434021e+02 -1.1160588523215281e-10 -2.3976641983677614e-10  1.9999999999438688e+02 -3.5329507742967832e-11 4.3791263957415189e-11  1.9999999999462210e+02 1.3102095085519722e-10 6.9843963045074077e-10  1.9999999999454576e+02 -6.3855971372215372e-11 -5.2046009724223328e-12  1.9999999999463645e+02 1.4930535399630699e-10 1.5297464532205882e-10  1.9999999999451947e+02 -3.4818015110585854e-11 7.4675040633735315e-11  1.9999999999534384e+02 -1.2891961298952573e-10 -1.3119556051827220e-10  1.9999999999533628e+02 -1.1833200905562796e-10 -2.5434791054223788e-10  1.9999999999544255e+02 -1.2455962988121804e-10 2.8286516268401024e-11  1.9999999999548891e+02 -4.8344075088808493e-11 6.3444789376267356e-11  1.9999999999355734e+02 -7.6075753220654430e-11 -1.5739486604600286e-10  1.9999999999342401e+02 -2.3236300067489251e-10 -5.1658494225008385e-10  1.9999999999261846e+02 -1.2962724659644713e-10 -2.5770370603389161e-10  1.9999999999268351e+02 -5.9246616201021316e-11 1.2583122550298365e-11  1.9999999999290546e+02 1.3879208077983957e-10 7.3634023376575841e-10  1.9999999999267243e+02 -6.6587680138002281e-11 -9.9888791499156386e-11  1.9999999999282517e+02 1.3774019702557357e-10 1.3952558369156169e-10  1.9999999999266097e+02 -5.2947726063068426e-11 4.6472568568169087e-11  1.9999999999352983e+02 -1.1543735971992735e-10 -1.8443426203317526e-10  1.9999999999351760e+02 -1.2814337126706356e-10 -1.7231327727641328e-10  1.9999999999357652e+02 -3.6651611723009406e-11 -4.8962165200175783e-13  1.9999999999354944e+02 -4.2188572010399432e-11 4.7213904912852299e-11  1.9999999999905626e+02 -1.7492026865073286e-10 -1.4840661871692432e-10  1.9999999999898975e+02 -7.3347641799156792e-11 -7.6860414438519733e-11  1.9999999999817706e+02 -6.8222934358366616e-11 -4.4911597210433198e-11  1.9999999999819940e+02 1.1628436307378834e-10 1.3466899137411593e-10  2.0000000000005537e+02 -8.8009138197371441e-11 -7.7131928933798582e-11  1.9999999999963524e+02 -5.0139338956114831e-11 -1.5266556886937447e-11  2.0000000000056431e+02 1.2376967570195746e-10 1.2614961253055420e-10  1.9999999999901632e+02 -1.9032496224604543e-11 1.0578252067759840e-11  1.9999999999634196e+02 4.3153931614903692e-12 -4.4638326640688437e-11  1.9999999999615380e+02 -1.1935618155576681e-10 -1.0295934328922783e-10  1.9999999999714879e+02 -7.7911508515058572e-11 -8.7370822012545810e-11  1.9999999999646505e+02 1.4121578737199528e-10 1.1730666074294963e-10  1.9999999999630657e+02 -2.9735903568960034e-11 -4.2075409902724156e-12  1.9999999999714268e+02 -1.4481723696521602e-10 -1.3712883624179903e-10  1.9999999999711798e+02 -1.4136035108509276e-10 -1.1468122047618427e-10  1.9999999999715735e+02 -8.9142954179710266e-12 5.9625362290783252e-12  1.9999999999455565e+02 4.9230138543213234e-11 4.4824722197308240e-12  1.9999999999437784e+02 -1.1478635059568467e-10 -1.5472907601944133e-10  1.9999999999532184e+02 -9.6527988344995556e-11 -8.8132699202608428e-11  1.9999999999464100e+02 1.4968691766209242e-10 1.5712314755565887e-10  1.9999999999455508e+02 7.0394487487861326e-12 8.2200529961552471e-11  1.9999999999530925e+02 -8.5122741924780285e-11 -1.5540202208702772e-10  1.9999999999530411e+02 -1.7170989363477383e-10 -6.6273735107780766e-11  1.9999999999545463e+02 3.7750650099107223e-11 4.2778620128574788e-11  1.9999999999263250e+02 -1.0827515260759047e-10 -5.3679410868844974e-11  1.9999999999358880e+02 -9.6862770523386834e-11 -6.4851047000010202e-11  1.9999999999270239e+02 -4.1369197339659847e-11 3.3924819424185586e-11  1.9999999999289764e+02 7.1128402247178304e-11 1.4779155865525805e-10  1.9999999999274320e+02 2.9029370816381343e-11 -3.6533408509628911e-12  1.9999999999289770e+02 1.1598507763687260e-10 1.5432393732426468e-10  1.9999999999271824e+02 1.4840531547043255e-11 3.7353755659852581e-11  1.9999999999359213e+02 -8.2553036846794910e-11 -1.6659005579814916e-10  1.9999999999353187e+02 -1.5144574869367605e-10 -6.5320079341008401e-11  1.9999999999364914e+02 3.9165505318036302e-12 4.1048449457549436e-11  1.9999999999896889e+02 -1.1621349604160465e-10 -1.1188475172001726e-10  1.9999999999815611e+02 -2.5541016765479126e-10 -2.0395687237139406e-10  1.9999999999819408e+02 -1.5114105508278359e-10 -1.7826147579848391e-11  1.9999999999821779e+02 1.5103619748358090e-10 1.2270926820991497e-10  1.9999999999818672e+02 -9.0206984468447989e-11 -9.9498117123308070e-11  1.9999999999902556e+02 -1.5800900212610613e-10 -1.5420242586832571e-10  1.9999999999904080e+02 -2.1121456665331655e-10 -1.2472763206755992e-10  1.9999999999961591e+02 -9.2077392437083050e-11 -7.9022283881570421e-11  2.0000000000005235e+02 -7.4724665569258446e-11 -7.2716114200305935e-11  2.0000000000050989e+02 1.4773431961863663e-10 1.4135252172435364e-10  1.9999999999899995e+02 5.3349796695228451e-12 3.4967752917640358e-11  2.0000000000002419e+02 -1.1348828185514079e-10 -9.7967320476868605e-12  1.9999999999714245e+02 -9.5633584708736515e-11 -6.5647719781156641e-11  1.9999999999613090e+02 -1.3755202575060566e-10 -1.0729084467731863e-10  1.9999999999635565e+02 3.7079496787448768e-12 1.7672849346396544e-12  1.9999999999645451e+02 1.1012355220273925e-10 1.2157633950429309e-10  1.9999999999635298e+02 -6.0364122029094204e-11 4.5639117356014578e-11  1.9999999999716755e+02 -1.3619690092277860e-10 -1.8864879050919370e-10  1.9999999999712676e+02 -1.8980524470781851e-10 -9.4660811564097223e-11  1.9999999999721749e+02 1.5847243089597926e-11 -3.3287250553902378e-13  1.9999999999534725e+02 -8.4731329563518536e-11 -2.9864481313731993e-11  1.9999999999438248e+02 -1.1371687993829657e-10 -9.0154661283867115e-11  1.9999999999455554e+02 5.9316413043668059e-12 2.6178797843659770e-11  1.9999999999462034e+02 1.1046941028692748e-10 1.2634960985635903e-10  1.9999999999454710e+02 -4.0281982249670014e-11 1.0122073510207628e-11  1.9999999999532503e+02 -1.3897002070950489e-10 -2.1765615326417375e-10  1.9999999999532062e+02 -1.8268550625121149e-10 -8.4164871118528478e-11  1.9999999999543044e+02 -1.5319809845317085e-12 -2.3631640063441948e-11  1.9999999999351846e+02 -1.0767947946651458e-10 -8.0251156613492346e-11  1.9999999999260683e+02 -1.1646620718704100e-10 -8.5548952809081197e-11  1.9999999999266339e+02 -8.6937749331942483e-12 3.4253374996621666e-11  1.9999999999286405e+02 9.3478174651369437e-11 1.1745474496127907e-10  1.9999999999265981e+02 -6.6216211692433688e-11 5.3941275302723666e-11  1.9999999999352465e+02 -1.4184696895432188e-10 -1.6792431595680991e-10  1.9999999999350968e+02 -2.0294908515838603e-10 -9.4861805508931193e-11  1.9999999999362615e+02 -2.8309260801876595e-11 2.6093970305724259e-11  1.9999999999898139e+02 -6.5772389591825031e-11 -4.3533134804530259e-11  1.9999999999819070e+02 -2.0860203986870480e-10 -4.3254851689935669e-12  1.9999999999817786e+02 -6.0417707104817869e-11 -7.2036612688519952e-11  1.9999999999816072e+02 1.3867377586794334e-10 7.8301134555188052e-11  1.9999999999901510e+02 -9.4082468204375510e-11 -1.4906545870121448e-10  1.9999999999972425e+02 -1.9415687316284754e-11 6.3304820746439152e-12  2.0000000000001430e+02 -1.1423957623382255e-10 -4.0022739600645310e-11  2.0000000000063122e+02 1.4866541881563836e-10 6.1902605281289293e-11  1.9999999999895343e+02 -7.2618641313575460e-11 7.1496388248605341e-11  1.9999999999715641e+02 -6.2628770435164749e-11 -8.0281937779193209e-11  1.9999999999616136e+02 -1.0381525007877293e-10 -1.1006969591611316e-10  1.9999999999635651e+02 -3.5731944145102498e-11 1.4697310974871048e-11 