<?xml version="1.0"?>
<VTKFile type="UnstructuredGrid"  version="0.1"  >
<UnstructuredGrid>
<Piece  NumberOfPoints="3819" NumberOfCells="18971">
<Points>
<DataArray  type="Float64"  NumberOfComponents="3"  format="ascii">25 27.5 32.5  25 28.75 33.75  25 28.75 32.5  23.75 28.75 33.75  25 30 32.5  25 30 33.75  25 30 35  25 27.5 33.75  25 27.5 35  25 28.75 35  26.25 28.75 33.75  26.25 30 33.75  26.25 30 35  27.5 30 35  26.25 31.25 33.75  26.25 31.25 35  27.5 31.25 35  27.5 32.5 35  25 31.25 35  25 32.5 35  26.25 32.5 35  26.25 32.5 33.75  26.25 33.75 35  26.25 33.75 33.75  27.5 33.75 35  27.5 35 35  26.25 35 35  26.25 35 33.75  27.5 36.25 35  26.25 36.25 35  26.25 36.25 33.75  27.5 37.5 35  26.25 31.25 36.25  27.5 31.25 36.25  27.5 32.5 36.25  27.5 32.5 37.5  26.25 32.5 36.25  26.25 33.75 36.25  27.5 33.75 36.25  27.5 35 36.25  27.5 35 37.5  27.5 33.75 37.5  26.25 33.75 37.5  26.25 35 36.25  27.5 36.25 36.25  26.25 36.25 36.25  27.5 37.5 36.25  27.5 37.5 37.5  27.5 36.25 37.5  27.5 33.75 38.75  26.25 33.75 38.75  27.5 35 38.75  27.5 35 40  26.25 35 38.75  27.5 36.25 38.75  26.25 36.25 38.75  32.5 25 25  32.5 25 26.25  32.5 23.75 26.25  31.25 23.75 26.25  32.5 25 27.5  32.5 23.75 27.5  31.25 23.75 27.5  30 25 25  31.25 25 26.25  31.25 25 25  30 25 27.5  31.25 25 27.5  30 25 26.25  35 22.5 27.5  35 23.75 27.5  33.75 23.75 27.5  33.75 23.75 26.25  35 25 27.5  33.75 25 27.5  33.75 25 26.25  27.5 25 25  27.5 26.25 26.25  27.5 26.25 25  26.25 26.25 26.25  26.25 26.25 25  27.5 27.5 25  27.5 27.5 26.25  27.5 27.5 27.5  27.5 25 26.25  27.5 25 27.5  27.5 26.25 27.5  25 25 27.5  26.25 26.25 27.5  26.25 25 27.5  25 27.5 27.5  26.25 27.5 27.5  28.75 26.25 26.25  28.75 26.25 25  28.75 25 25  30 26.25 26.25  30 26.25 25  30 27.5 25  30 27.5 26.25  30 27.5 27.5  28.75 25 26.25  30 26.25 27.5  28.75 26.25 27.5  28.75 25 27.5  28.75 27.5 26.25  28.75 27.5 25  28.75 27.5 27.5  31.25 26.25 26.25  32.5 26.25 26.25  32.5 26.25 27.5  32.5 27.5 27.5  31.25 26.25 27.5  31.25 27.5 27.5  31.25 27.5 26.25  33.75 26.25 26.25  33.75 25 25  35 25 25  35 26.25 26.25  35 25 26.25  35 26.25 27.5  35 27.5 27.5  33.75 26.25 27.5  33.75 27.5 27.5  36.25 26.25 26.25  36.25 25 26.25  36.25 25 25  37.5 25 25  37.5 26.25 26.25  37.5 25 26.25  37.5 25 27.5  37.5 26.25 27.5  37.5 27.5 27.5  36.25 26.25 27.5  36.25 25 27.5  36.25 27.5 27.5  38.75 26.25 26.25  38.75 25 26.25  38.75 25 25  40 25 25  40 26.25 26.25  40 25 26.25  40 25 27.5  40 26.25 27.5  40 27.5 27.5  38.75 26.25 27.5  38.75 25 27.5  38.75 27.5 27.5  41.25 26.25 26.25  41.25 25 26.25  41.25 25 25  42.5 25 25  42.5 26.25 26.25  42.5 25 26.25  42.5 25 27.5  42.5 26.25 27.5  42.5 27.5 27.5  41.25 26.25 27.5  41.25 25 27.5  41.25 27.5 27.5  43.75 26.25 26.25  43.75 26.25 27.5  43.75 27.5 27.5  45 27.5 27.5  28.75 28.75 26.25  30 28.75 26.25  30 28.75 27.5  30 30 27.5  28.75 28.75 27.5  27.5 28.75 26.25  27.5 28.75 27.5  27.5 30 27.5  28.75 30 27.5  31.25 28.75 26.25  31.25 28.75 27.5  32.5 28.75 27.5  32.5 30 27.5  31.25 30 27.5  27.5 25 28.75  27.5 23.75 28.75  26.25 23.75 28.75  27.5 25 30  26.25 25 28.75  25 25 30  26.25 25 30  26.25 23.75 30  30 25 28.75  30 23.75 28.75  28.75 23.75 28.75  30 25 30  30 23.75 30  28.75 23.75 30  28.75 25 28.75  28.75 25 30  32.5 25 28.75  32.5 23.75 28.75  31.25 23.75 28.75  32.5 25 30  32.5 22.5 30  32.5 23.75 30  31.25 23.75 30  31.25 25 28.75  31.25 25 30  35 23.75 28.75  33.75 23.75 28.75  35 25 28.75  35 25 30  35 22.5 28.75  35 22.5 30  35 23.75 30  33.75 23.75 30  33.75 22.5 30  33.75 25 28.75  33.75 25 30  36.25 23.75 28.75  36.25 23.75 27.5  36.25 22.5 27.5  37.5 22.5 27.5  37.5 23.75 28.75  37.5 23.75 27.5  37.5 25 28.75  37.5 25 30  36.25 22.5 28.75  37.5 22.5 28.75  37.5 22.5 30  37.5 23.75 30  36.25 23.75 30  36.25 22.5 30  36.25 25 28.75  36.25 25 30  38.75 23.75 28.75  38.75 22.5 28.75  38.75 23.75 30  38.75 22.5 30  40 22.5 30  40 23.75 30  40 25 30  38.75 23.75 27.5  38.75 25 28.75  40 25 28.75  38.75 25 30  26.25 26.25 28.75  27.5 26.25 28.75  27.5 27.5 28.75  27.5 27.5 30  27.5 26.25 30  26.25 26.25 30  26.25 27.5 28.75  25 27.5 30  26.25 27.5 30  28.75 26.25 28.75  30 26.25 28.75  30 27.5 28.75  30 27.5 30  30 26.25 30  28.75 26.25 30  28.75 27.5 28.75  28.75 27.5 30  31.25 26.25 28.75  32.5 26.25 28.75  32.5 27.5 28.75  32.5 27.5 30  32.5 26.25 30  31.25 26.25 30  31.25 27.5 28.75  31.25 27.5 30  33.75 26.25 28.75  35 26.25 28.75  35 27.5 28.75  35 27.5 30  35 26.25 30  33.75 26.25 30  33.75 27.5 28.75  33.75 27.5 30  36.25 26.25 28.75  37.5 26.25 28.75  37.5 27.5 28.75  37.5 27.5 30  37.5 26.25 30  36.25 26.25 30  36.25 27.5 28.75  36.25 27.5 30  38.75 26.25 28.75  40 26.25 28.75  40 27.5 28.75  40 27.5 30  40 26.25 30  38.75 26.25 30  38.75 27.5 28.75  38.75 27.5 30  41.25 26.25 28.75  42.5 26.25 28.75  42.5 27.5 28.75  42.5 27.5 30  41.25 25 28.75  42.5 25 28.75  42.5 25 30  42.5 26.25 30  41.25 26.25 30  41.25 25 30  41.25 27.5 28.75  41.25 27.5 30  43.75 26.25 28.75  43.75 25 28.75  43.75 26.25 30  43.75 25 30  45 25 30  45 26.25 30  45 27.5 30  43.75 27.5 28.75  45 27.5 28.75  43.75 27.5 30  26.25 28.75 28.75  26.25 28.75 27.5  27.5 28.75 28.75  27.5 30 28.75  27.5 30 30  27.5 28.75 30  26.25 28.75 30  25 30 30  26.25 30 30  28.75 28.75 28.75  30 28.75 28.75  30 30 28.75  30 30 30  30 28.75 30  28.75 28.75 30  28.75 30 28.75  28.75 30 30  31.25 28.75 28.75  32.5 28.75 28.75  32.5 30 28.75  32.5 30 30  32.5 28.75 30  31.25 28.75 30  31.25 30 28.75  31.25 30 30  33.75 28.75 28.75  33.75 28.75 27.5  35 28.75 28.75  35 28.75 27.5  35 30 27.5  35 30 28.75  35 30 30  35 28.75 30  33.75 28.75 30  33.75 30 28.75  33.75 30 27.5  33.75 30 30  36.25 28.75 28.75  36.25 28.75 27.5  37.5 28.75 28.75  37.5 28.75 27.5  37.5 30 27.5  37.5 30 28.75  37.5 30 30  37.5 28.75 30  36.25 28.75 30  36.25 30 28.75  36.25 30 27.5  36.25 30 30  38.75 28.75 28.75  38.75 28.75 27.5  40 28.75 28.75  40 28.75 27.5  40 30 27.5  40 30 28.75  40 30 30  40 28.75 30  38.75 28.75 30  38.75 30 28.75  38.75 30 27.5  38.75 30 30  41.25 28.75 28.75  41.25 28.75 27.5  42.5 28.75 28.75  42.5 28.75 27.5  42.5 30 27.5  42.5 30 28.75  42.5 30 30  42.5 28.75 30  41.25 28.75 30  41.25 30 28.75  41.25 30 27.5  41.25 30 30  43.75 28.75 28.75  43.75 28.75 27.5  45 28.75 28.75  45 28.75 27.5  45 30 27.5  45 30 28.75  45 30 30  45 28.75 30  43.75 28.75 30  43.75 30 28.75  43.75 30 27.5  43.75 30 30  46.25 28.75 28.75  46.25 27.5 28.75  46.25 27.5 27.5  47.5 27.5 27.5  47.5 28.75 28.75  47.5 27.5 28.75  47.5 27.5 30  47.5 28.75 30  47.5 30 30  46.25 28.75 30  46.25 27.5 30  46.25 30 30  46.25 30 28.75  48.75 28.75 28.75  48.75 27.5 28.75  48.75 27.5 27.5  50 27.5 27.5  50 28.75 28.75  50 27.5 28.75  50 27.5 30  50 28.75 30  50 30 30  48.75 28.75 30  48.75 27.5 30  48.75 30 30  28.75 31.25 28.75  30 31.25 28.75  30 31.25 30  30 32.5 30  28.75 31.25 30  27.5 31.25 28.75  27.5 31.25 30  27.5 32.5 30  28.75 32.5 30  31.25 31.25 28.75  31.25 31.25 27.5  32.5 31.25 28.75  32.5 31.25 27.5  32.5 32.5 27.5  32.5 32.5 28.75  32.5 32.5 30  32.5 31.25 30  31.25 31.25 30  31.25 32.5 30  33.75 31.25 28.75  33.75 31.25 27.5  35 31.25 28.75  35 31.25 27.5  35 32.5 27.5  35 32.5 28.75  35 32.5 30  35 31.25 30  33.75 31.25 30  33.75 32.5 28.75  33.75 32.5 27.5  33.75 32.5 30  36.25 31.25 28.75  36.25 31.25 27.5  37.5 31.25 28.75  37.5 31.25 27.5  37.5 32.5 27.5  37.5 32.5 28.75  37.5 32.5 30  37.5 31.25 30  36.25 31.25 30  36.25 32.5 28.75  36.25 32.5 27.5  36.25 32.5 30  38.75 31.25 28.75  40 31.25 28.75  40 31.25 30  40 32.5 30  38.75 31.25 30  38.75 32.5 30  38.75 32.5 28.75  41.25 31.25 28.75  42.5 31.25 28.75  42.5 31.25 30  42.5 32.5 30  41.25 31.25 30  41.25 32.5 30  43.75 31.25 28.75  45 31.25 28.75  45 31.25 30  45 32.5 30  43.75 31.25 30  43.75 32.5 30  46.25 31.25 28.75  46.25 31.25 30  47.5 31.25 30  47.5 32.5 30  46.25 32.5 30  33.75 33.75 28.75  35 33.75 28.75  35 33.75 30  35 35 30  33.75 33.75 30  36.25 33.75 28.75  37.5 33.75 28.75  37.5 33.75 30  37.5 35 30  36.25 33.75 30  36.25 35 30  38.75 33.75 28.75  38.75 33.75 30  40 33.75 30  40 35 30  38.75 35 30  27.5 25 31.25  27.5 23.75 31.25  26.25 23.75 31.25  27.5 25 32.5  26.25 25 31.25  30 25 31.25  30 23.75 31.25  28.75 23.75 31.25  30 25 32.5  28.75 25 31.25  28.75 25 32.5  32.5 23.75 31.25  31.25 23.75 31.25  32.5 25 31.25  32.5 25 32.5  32.5 22.5 31.25  32.5 22.5 32.5  32.5 23.75 32.5  31.25 25 31.25  31.25 25 32.5  33.75 23.75 31.25  35 23.75 31.25  35 25 31.25  35 25 32.5  33.75 25 31.25  33.75 25 32.5  36.25 23.75 31.25  37.5 23.75 31.25  37.5 25 31.25  37.5 25 32.5  36.25 25 31.25  36.25 25 32.5  38.75 23.75 31.25  40 23.75 31.25  40 25 31.25  40 25 32.5  38.75 25 31.25  38.75 25 32.5  41.25 23.75 31.25  41.25 23.75 30  41.25 25 31.25  42.5 25 31.25  42.5 25 32.5  41.25 25 32.5  26.25 26.25 31.25  27.5 26.25 31.25  27.5 27.5 31.25  27.5 27.5 32.5  27.5 26.25 32.5  26.25 26.25 32.5  26.25 27.5 31.25  26.25 27.5 32.5  28.75 26.25 31.25  30 26.25 31.25  30 27.5 31.25  30 27.5 32.5  30 26.25 32.5  28.75 26.25 32.5  28.75 27.5 31.25  28.75 27.5 32.5  31.25 26.25 31.25  32.5 26.25 31.25  32.5 27.5 31.25  32.5 27.5 32.5  32.5 26.25 32.5  31.25 26.25 32.5  31.25 27.5 31.25  31.25 27.5 32.5  33.75 26.25 31.25  35 26.25 31.25  35 27.5 31.25  35 27.5 32.5  35 26.25 32.5  33.75 26.25 32.5  33.75 27.5 31.25  33.75 27.5 32.5  36.25 26.25 31.25  37.5 26.25 31.25  37.5 27.5 31.25  37.5 27.5 32.5  37.5 26.25 32.5  36.25 26.25 32.5  36.25 27.5 31.25  36.25 27.5 32.5  38.75 26.25 31.25  40 26.25 31.25  40 27.5 31.25  40 27.5 32.5  40 26.25 32.5  38.75 26.25 32.5  38.75 27.5 31.25  38.75 27.5 32.5  41.25 26.25 31.25  42.5 26.25 31.25  42.5 27.5 31.25  42.5 27.5 32.5  42.5 26.25 32.5  41.25 26.25 32.5  41.25 27.5 31.25  41.25 27.5 32.5  43.75 26.25 31.25  45 26.25 31.25  45 27.5 31.25  45 27.5 32.5  43.75 25 31.25  45 25 31.25  45 25 32.5  45 26.25 32.5  43.75 26.25 32.5  43.75 25 32.5  43.75 27.5 31.25  43.75 27.5 32.5  46.25 26.25 31.25  46.25 25 31.25  46.25 26.25 32.5  46.25 25 32.5  47.5 25 32.5  47.5 26.25 32.5  47.5 27.5 32.5  46.25 27.5 32.
[...]
<PointData  Vectors="u"> 
<DataArray  type="Float64"  Name="u"  NumberOfComponents="3" format="ascii">1.9999999998246673e+02 -4.2092279791769189e-11 9.9944910358756604e-11  1.9999999998216848e+02 4.8598249655581125e-11 -1.5446995681709812e-10  1.9999999998226536e+02 1.2346296704503052e-10 7.6839422891831051e-12  1.9999999998312808e+02 4.4140622564933863e-12 -1.0748312021190849e-10  1.9999999998246466e+02 -5.7423617422789719e-11 8.7189922010803410e-11  1.9999999998222282e+02 -2.3193176177523995e-11 -7.2206558358310219e-11  1.9999999998247571e+02 -4.7026732746291606e-12 7.2641125921440807e-11  1.9999999998222978e+02 1.4436296414146113e-10 -1.6245684587334190e-11  1.9999999998241358e+02 -6.3713001868227188e-11 5.3201271464344692e-11  1.9999999998235339e+02 -8.0001894666512501e-12 -4.6672146880609110e-11  1.9999999998143889e+02 3.4602961027906009e-11 -6.2067081639003602e-11  1.9999999998134393e+02 3.7238510061720028e-12 -5.8951998597178834e-11  1.9999999998149875e+02 6.3610148219117298e-12 -1.0425884920002750e-10  1.9999999998076660e+02 2.8355600999179505e-11 5.4579762090687377e-11  1.9999999998146342e+02 -8.3737309445105219e-11 -4.0486296660772063e-11  1.9999999998140953e+02 -9.5495474458971352e-11 -2.4367653396377058e-10  1.9999999998060363e+02 -4.3825095801647193e-12 6.3653809645485909e-11  1.9999999998080020e+02 9.0155551623854253e-11 2.7280963589446590e-11  1.9999999998235208e+02 -1.7413122264983119e-11 -3.6834370174586769e-11  1.9999999998244144e+02 9.5156812825468664e-11 7.4054706408561818e-11  1.9999999998149471e+02 1.3562455474837877e-12 -3.3911098571780569e-11  1.9999999998144145e+02 -2.4409183108057800e-10 -6.2642482181550274e-11  1.9999999998143824e+02 -1.3435942675179758e-10 -2.4754963517497958e-10  1.9999999998147416e+02 -8.1292033248863325e-11 -7.5256346553798717e-11  1.9999999998057248e+02 -4.9064073142190927e-11 5.1524896180903485e-11  1.9999999998080804e+02 1.1604057891273706e-10 5.1461042609529777e-11  1.9999999998152444e+02 -5.5661317882878492e-12 -4.6847614658167778e-11  1.9999999998144295e+02 -2.2386240405821341e-10 -7.3621240040423068e-11  1.9999999998062859e+02 -4.2081542441583833e-11 1.0613281204115497e-10  1.9999999998141237e+02 -1.0554829107160149e-10 -1.6842906339015839e-10  1.9999999998140837e+02 -8.0985172988789449e-11 -7.3243248719339562e-11  1.9999999998077251e+02 8.3558846563572795e-11 5.7105924833667489e-11  1.9999999998145029e+02 -8.0597016167622084e-11 -9.9234404192637141e-11  1.9999999998058004e+02 -8.2704157273844939e-11 -1.1208163909954241e-10  1.9999999998064450e+02 1.6765378511054040e-11 2.0068362777560626e-11  1.9999999998083106e+02 1.0588810584148511e-10 9.9479291624115553e-11  1.9999999998143431e+02 -2.0601327520096819e-10 -1.0258992186779906e-10  1.9999999998143585e+02 -1.1232792029706815e-10 -8.9603089204523456e-11  1.9999999998059158e+02 -1.1449788347009592e-10 -1.0412355931091495e-10  1.9999999998065482e+02 3.7161122471350117e-11 -3.3944972594426763e-11  1.9999999998081216e+02 7.1056863513166350e-11 9.2770559760157773e-11  1.9999999998062572e+02 -6.7774383118744484e-11 3.8487706587947580e-11  1.9999999998147302e+02 -1.1484088339756314e-10 -1.3456673864270150e-10  1.9999999998144116e+02 -1.5863112170362565e-10 -1.1384668163872456e-10  1.9999999998057879e+02 -1.3114034914196093e-10 -1.2487472334154003e-10  1.9999999998144310e+02 -8.0707709078836194e-11 -1.0592548210541215e-10  1.9999999998062600e+02 1.8204424071202095e-11 -1.5642392167004252e-11  1.9999999998080801e+02 7.2117203472495595e-11 9.8926024783092422e-11  1.9999999998062742e+02 2.8786223221065937e-11 -7.3543016805695024e-12  1.9999999998058681e+02 -1.2354169564478372e-10 -1.1953682584532123e-10  1.9999999998147644e+02 -8.7067809592588893e-11 -9.5433944624447125e-11  1.9999999998063538e+02 -4.9207615000408805e-11 8.7855169583710239e-12  1.9999999998081299e+02 8.6964522070873794e-11 7.5009885965595458e-11  1.9999999998142869e+02 -1.6658634914984847e-10 -1.0253870532362867e-10  1.9999999998052422e+02 -1.1233734624114505e-10 -8.6140383821791965e-11  1.9999999998145938e+02 -1.1010611956858075e-10 -8.9724927317101635e-11  1.9999999997752974e+02 4.3785598589764432e-11 -2.3413318326332856e-12  1.9999999997740250e+02 -1.8934125587173579e-11 -2.4015387238901672e-11  1.9999999997720690e+02 1.1872157397666798e-11 -9.1091481418460165e-11  1.9999999997818057e+02 -5.9336498322327230e-11 -1.1116007412379443e-10  1.9999999997754185e+02 4.6095042146120740e-11 1.2148445712373695e-10  1.9999999997748196e+02 -6.0591146779303833e-12 5.1929817415225106e-11  1.9999999997811096e+02 7.9834687313419414e-11 -1.0065306009675779e-10  1.9999999997915830e+02 9.4466059882074455e-11 2.7810768380641912e-11  1.9999999997811594e+02 -1.3273481186080414e-10 -1.1167954899037949e-10  1.9999999997818850e+02 -6.7187116272865874e-11 9.2932389419555570e-11  1.9999999997915882e+02 6.2701690597476505e-11 1.2929335807812627e-10  1.9999999997822707e+02 7.7897278941877298e-11 -6.2762555243137663e-11  1.9999999997906545e+02 -1.0331855934071480e-12 -5.6333790240824838e-11  1.9999999997591934e+02 -5.1138899606079301e-11 6.6445627443338865e-11  1.9999999997562512e+02 -1.3634835227624461e-12 -3.4966457374284480e-11  1.9999999997649959e+02 -1.3183904677391141e-11 -9.3946500920047190e-11  1.9999999997658739e+02 -8.5748328707485825e-11 -1.8700309583696546e-11  1.9999999997592789e+02 5.8979244336194457e-11 4.9891201252762352e-11  1.9999999997655081e+02 4.6268437502488875e-11 -9.9843008849751702e-11  1.9999999997650488e+02 -2.7243131875047187e-10 -4.2000581903353893e-14  1.9999999998070001e+02 1.0153300125927625e-10 2.7632984663562319e-11  1.9999999998064808e+02 -2.2938253516495433e-10 -1.9980956339042340e-10  1.9999999998069944e+02 -7.4297341729837094e-11 1.3868233096641596e-11  1.9999999998150369e+02 -3.8244741867063422e-11 -8.3493573686187627e-11  1.9999999998144227e+02 -2.0856504998537272e-10 1.0322175759385988e-11  1.9999999998066889e+02 1.2682012909008790e-10 1.7701064446972341e-11  1.9999999998060736e+02 -8.6369013410308623e-11 -4.1535889979133114e-11  1.9999999998067770e+02 1.4015686023758109e-10 8.5411729660463538e-11  1.9999999998070973e+02 -1.0239820964976478e-10 -7.9418032302999693e-11  1.9999999998070652e+02 9.1553213251310534e-11 1.2144826888968193e-10  1.9999999998070675e+02 -4.6356712206506665e-11 -7.0803751083780036e-11  1.9999999998245346e+02 9.9378598541729374e-11 1.4138522950727489e-10  1.9999999998143926e+02 -7.7067482894465169e-11 -1.0756614006809377e-10  1.9999999998148053e+02 -1.0173852648959950e-10 -2.9188457951111461e-11  1.9999999998243155e+02 9.2780471193506376e-11 4.6649336811772247e-11  1.9999999998147695e+02 -1.1799474417374259e-10 2.2818966392221752e-11  1.9999999997978520e+02 -7.6627908537311923e-11 -8.5129608365788134e-11  1.9999999997966702e+02 -1.8866955120572950e-10 -5.9490077192681854e-11  1.9999999997981755e+02 -1.3603317226289614e-10 -1.0168999391426400e-11  1.9999999997890890e+02 -1.3202249224159096e-10 -9.4996619588875579e-11  1.9999999997897964e+02 -3.4219477130009374e-11 6.9319473108615948e-11  1.9999999997911516e+02 7.7275411069292866e-11 3.1305783096266353e-13  1.9999999997904720e+02 -1.1552760510680057e-11 2.2889779089659240e-11  1.9999999997915199e+02 8.9290786333701265e-11 8.1100667986231767e-11  1.9999999997974038e+02 -1.2764682087277322e-10 -1.0952541501538790e-10  1.9999999997907381e+02 2.4230811537096430e-11 -2.3305171363656468e-11  1.9999999997975209e+02 -1.2316649675753236e-10 -1.4074775900237583e-10  1.9999999997982204e+02 -2.4967028257377415e-11 -2.5700831570943224e-11  1.9999999997978873e+02 -2.0228167519678657e-10 -1.1922359829562636e-10  1.9999999997986757e+02 -9.0621133155243714e-11 6.9369634396035915e-11  1.9999999997984685e+02 -3.8050701937952793e-11 1.7539036970690042e-11  1.9999999997812932e+02 -9.8388754031449614e-11 -5.9531842539061343e-11  1.9999999997721056e+02 -8.7996904971493543e-11 7.7682401784484050e-12  1.9999999997742006e+02 -2.2659363522982745e-11 -3.3752756813768132e-11  1.9999999997750891e+02 9.6232043730193359e-11 3.4223613065312783e-11  1.9999999997809999e+02 -1.0847019249803324e-10 -1.5474907214462955e-10  1.9999999997817972e+02 9.3475957432034271e-12 -1.7760564145639226e-11  1.9999999997814351e+02 -2.1418750752465714e-10 -6.2054440409370180e-12  1.9999999997654302e+02 -5.2035120446175519e-11 -5.6862928684821428e-11  1.9999999997658065e+02 1.8043732962595054e-11 1.5310510915400603e-10  1.9999999997587520e+02 4.3040072874167370e-11 2.1471421062005854e-11  1.9999999997569662e+02 -9.1744323498447372e-11 2.5513145597074328e-11  1.9999999997576859e+02 4.4855097136724484e-11 2.4569402839583442e-12  1.9999999997571734e+02 -4.5055567472556003e-11 3.2843976760670865e-11  1.9999999997591760e+02 1.2183753726128121e-10 2.3192689554260199e-11  1.9999999997649971e+02 -1.2915593504296899e-10 -2.0799683153203165e-10  1.9999999997659009e+02 -1.1159456875092388e-10 3.9867238376540973e-11  1.9999999997493731e+02 -6.8670857556110027e-11 4.0686936660862702e-11  1.9999999997484042e+02 -8.7469324971181676e-13 3.2747760482027866e-11  1.9999999997497093e+02 6.0473558691798079e-11 1.1039037640722740e-11  1.9999999997432329e+02 3.6267106008536889e-11 4.9955177477246930e-11  1.9999999997396071e+02 -9.4863924951870813e-11 -4.8387547845563338e-11  1.9999999997409944e+02 4.4285435217694975e-11 1.3130623478765919e-11  1.9999999997435225e+02 1.7532842600921107e-11 2.7604655996793331e-11  1.9999999997424436e+02 -3.5935884752579910e-11 -5.1478634182548272e-11  1.9999999997436842e+02 1.2139718707550528e-10 -8.9771767393764447e-12  1.9999999997479821e+02 -2.1198376379012027e-10 -2.1357416017367312e-11  1.9999999997496542e+02 -1.0523674841753372e-10 7.1475726116208339e-11  1.9999999997496818e+02 -9.1817825808161266e-11 7.0436358668596818e-12  1.9999999997336198e+02 -7.2263954550226041e-11 -4.4513372603119012e-11  1.9999999997323454e+02 -5.7663702314654751e-11 -1.7534762126447806e-10  1.9999999997342715e+02 8.7660129860176183e-12 1.7139072541045445e-11  1.9999999997276672e+02 5.5938560189528907e-11 5.7733807168886976e-11  1.9999999997245973e+02 -8.4170642080945078e-11 -6.6148163208331685e-11  1.9999999997261907e+02 4.1517886512756172e-11 -7.9435093355829916e-11  1.9999999997277209e+02 -1.4481779581513497e-11 8.1421663009907076e-11  1.9999999997263578e+02 1.5081675542920462e-11 -3.5588404201004229e-11  1.9999999997274296e+02 1.0723114207098647e-10 -8.2523421499145520e-13  1.9999999997332071e+02 -7.7778919814282416e-11 -1.6358472293803576e-10  1.9999999997338591e+02 7.9171348615081925e-11 -1.1509748992096643e-10  1.9999999997341092e+02 -5.7783254562580021e-11 2.7484900939577966e-11  1.9999999997179199e+02 -5.2966993517355805e-11 -7.6382994588585711e-11  1.9999999997165114e+02 -3.9163644624297992e-11 -1.6597702308567120e-10  1.9999999997185344e+02 4.8794472834744103e-11 -4.3238126379758866e-11  1.9999999997116029e+02 7.1971110162609148e-11 2.3640027841059150e-11  1.9999999997086246e+02 -7.1261603273179573e-11 -9.6058649971034757e-11  1.9999999997107054e+02 4.7340280975757174e-11 -1.9212756939801601e-11  1.9999999997113883e+02 -3.0217105385334705e-11 3.2764042274943280e-11  1.9999999997109109e+02 -1.6876827878419302e-11 -5.4646022152332054e-11  1.9999999997116612e+02 1.2346509930702035e-10 5.5547948851796134e-12  1.9999999997170724e+02 -1.1033403684059678e-10 -1.9400016359490703e-10  1.9999999997184344e+02 2.5994311876717722e-11 -8.4750208150350786e-11  1.9999999997183804e+02 -5.0020975704274892e-11 3.9095282455608661e-11  1.9999999997022516e+02 -9.0459854354335107e-12 -6.4662366027493954e-11  1.9999999997020652e+02 8.6079046702047269e-12 -2.8013565109370863e-10  1.9999999997028729e+02 -7.8337199862650081e-11 3.2871454627959020e-12  1.9999999996966031e+02 6.5999513053955804e-11 1.1434178209843640e-12  1.9999999997982417e+02 -8.5981273101375419e-11 -3.8144715465169365e-11  1.9999999997883563e+02 -9.9212578655905423e-11 -1.5010054054556439e-11  1.9999999997906946e+02 -4.4784499420031884e-11 -2.9541739131981137e-11  1.9999999997912292e+02 7.8512401683585747e-11 2.1458234546995864e-11  1.9999999997985577e+02 -1.4121704261372967e-10 -2.0224709752411771e-10  1.9999999998081012e+02 -9.9127426302546089e-11 -2.4879305127043854e-11  1.9999999998080668e+02 -5.6254294618869144e-11 -1.2799498029751044e-10  1.9999999998063504e+02 1.1223345273602774e-10 5.7292301663608781e-11  1.9999999997985296e+02 -4.2641800361661270e-11 1.1975548565766880e-10  1.9999999997819759e+02 -7.4334980517326041e-11 8.8278737688071473e-12  1.9999999997812407e+02 -1.0230577481191268e-10 -2.2945049877454009e-10  1.9999999997731217e+02 -3.7961173745528680e-12 2.7052573771427219e-11  1.9999999997750498e+02 8.8176022156646479e-11 -1.4710118117059072e-11  1.9999999997823895e+02 -1.4300765523336477e-10 2.6856706536153360e-12  1.9999999998068415e+02 -8.4593353008183613e-11 -3.5351276493194432e-11  1.9999999998066662e+02 -1.8721405940601048e-10 -2.0041218359950746e-10  1.9999999998144386e+02 -7.6605612854881193e-11 -5.2849048133084006e-11  1.9999999998068560e+02 1.0311973831329678e-10 1.0520548714569907e-10  1.9999999998143704e+02 -1.0105819243648910e-10 -9.1449449351047183e-11  1.9999999998244212e+02 6.1993647576546376e-11 5.3405359207437927e-11  1.9999999998150474e+02 -4.9091564526604549e-11 -4.0796139898191695e-11  1.9999999998141718e+02 -1.1558377327192197e-10 -7.8929583629050852e-11  1.9999999997899059e+02 5.1227963493843603e-11 -4.5285936731306883e-11  1.9999999997895949e+02 -3.9802324667317947e-11 -1.3901289741426932e-10  1.9999999997979222e+02 -1.0785223910657250e-10 -7.6752370410105890e-11  1.9999999997913443e+02 1.0916329361028104e-10 9.9379890109745798e-11  1.9999999997902506e+02 -3.4802459160994004e-11 4.8678981778020760e-12  1.9999999997975846e+02 -9.6990416145792121e-11 -1.7721735398200070e-10  1.9999999997974743e+02 -1.7189266533847674e-10 -9.0966640459875051e-11  1.9999999997985927e+02 -3.3712032068189838e-11 -6.9205654428292533e-12  1.9999999997732763e+02 1.1923987763103928e-11 -2.6591752246773463e-11  1.9999999997734548e+02 9.4984789861825298e-11 -1.0474755084726462e-10  1.9999999997814243e+02 2.1266375454491104e-11 -7.2316646926672570e-11  1.9999999997754674e+02 1.6552208668204100e-11 9.2410721350461708e-11  1.9999999997750967e+02 -4.1308288562200558e-11 9.1948327976232407e-11  1.9999999997742322e+02 5.3161436473909707e-12 2.5152568608369754e-11  1.9999999997816340e+02 -2.8037675335052861e-11 -2.2219648897468809e-10  1.9999999997804292e+02 4.0246504860435510e-11 -2.0374154098445933e-10  1.9999999997821408e+02 -2.6728963213537871e-11 1.3258079147776276e-11  1.9999999997556117e+02 1.8143674151409557e-12 -9.3815038117241786e-11  1.9999999997647447e+02 5.8231848179860308e-12 -9.2621176095773162e-11  1.9999999997583120e+02 -1.7328641154018203e-11 -6.3126373095004058e-11  1.9999999997594577e+02 2.8081944297440690e-11 1.3513633245361164e-10  1.9999999997574062e+02 5.1536822299989345e-11 -5.3405884752540972e-14  1.9999999997592178e+02 -9.1812924021154393e-11 1.1000882238701225e-10  1.9999999997581980e+02 -2.7889457818289403e-11 4.1623215983561920e-11  1.9999999997647674e+02 8.4230392234711138e-11 -1.5404192104261571e-10  1.9999999997657437e+02 7.3796052640485666e-11 -6.2291661363554469e-11  1.9999999997639051e+02 1.0099754245820149e-11 -2.4135143819641157e-10  1.9999999997648160e+02 2.8474651555315293e-11 -2.1560810859672167e-11  1.9999999997494461e+02 -6.9415337670294159e-11 -6.9028160943127945e-11  1.9999999997485665e+02 -1.8501610637073590e-12 -7.7014163041666903e-11  1.9999999997499663e+02 9.9334176790921268e-11 2.6916549960406814e-11  1.9999999997425741e+02 -2.5898424094267626e-11 1.0621417032331274e-11  1.9999999997413107e+02 1.0710253720695961e-10 -1.0329831618503488e-10  1.9999999997418107e+02 -5.6273468053667995e-12 3.0148957433195449e-11  1.9999999997416251e+02 2.4023226985856779e-11 -6.0375105776813896e-11  1.9999999997432013e+02 -2.9084785040053330e-12 9.8801695510376551e-11  1.9999999997487430e+02 5.8278341747092608e-11 -1.2954191136928287e-10  1.9999999997412203e+02 9.7100360400508542e-11 7.7554161086499305e-12  1.9999999997430473e+02 -1.0592843491097379e-10 1.2922476459258416e-10  1.9999999997425758e+02 3.6176106688387314e-12 -1.6367068339726265e-11  1.9999999997485818e+02 1.0388442018502669e-10 -1.0892496944527732e-10  1.9999999997495513e+02 5.4736814992773033e-11 -1.5680400085220408e-11  1.9999999997485767e+02 -2.1690402820124931e-10 -1.0050339786784825e-10  1.9999999997495090e+02 2.0038248607802862e-11 -9.2496327367068760e-11  1.9999999997343440e+02 -3.8490401279169296e-12 -6.4825137266118842e-11  1.9999999997321859e+02 -3.4012152904212035e-11 1.9936069380994637e-11  1.9999999997330906e+02 -4.6766909030867585e-11 -1.8292266350400153e-10  1.9999999997338244e+02 1.2548265585459493e-11 -8.6018346263680912e-11  1.9999999997270066e+02 1.5187938529859369e-11 9.1896346913227983e-11  1.9999999997250967e+02 -1.5894182504772105e-11 -2.0498277818675504e-11  1.9999999997276967e+02 2.5303929500465945e-12 6.5095746348433393e-11  1.9999999997323854e+02 2.1108048359381772e-10 1.2549166602264942e-11  1.9999999997322004e+02 -1.0929854827769098e-11 -2.0599778515369643e-10  1.9999999997261659e+02 3.4787905190619277e-11 -8.0956295444817458e-11  1.9999999997339000e+02 2.6323099694378738e-11 -1.1597175241525726e-10  1.9999999998147018e+02 -7.4658212326764032e-11 -3.4627342040189583e-11  1.9999999998069407e+02 -2.2725361531908832e-10 -1.8450636100411425e-10  1.9999999998072204e+02 -1.1377783833333464e-10 -1.7427606022882316e-11  1.9999999998069092e+02 1.0805335559882800e-10 1.4828863561082109e-10  1.9999999998070695e+02 -2.7310352196276395e-11 -1.1572637026782758e-10  1.9999999998142187e+02 -1.0474047024761656e-10 -5.8653770270348142e-11  1.9999999998141445e+02 -1.1047253529324008e-10 -9.5026125370749678e-11  1.9999999998244925e+02 3.2828059755863939e-11 6.7372757821729768e-11  1.9999999998150196e+02 -3.4747651487041855e-11 -3.3926042508948200e-11  1.9999999997977210e+02 -6.7943775884417079e-11 -5.1163298526388673e-11  1.9999999997885513e+02 -1.0556840682548443e-10 -9.1175572814962113e-11  1.9999999997902802e+02 -3.8514245036902077e-11 -2.8578783054477080e-11  1.9999999997911090e+02 8.2854237325818624e-11 9.3069216011063458e-11  1.9999999997901776e+02 -4.7895387687623963e-11 1.2022082293251260e-11  1.9999999997981260e+02 -9.4721538689344747e-11 -1.6851546282209604e-10  1.9999999997980447e+02 -2.3004245896533963e-10 -1.1559709686569281e-10  1.9999999997984730e+02 -4.6416901894978294e-11 1.3970250663168921e-11  1.9999999997814552e+02 -1.1727151914893837e-10 -7.6704017521916564e-11  1.9999999997725007e+02 -1.2553089694151825e-10 -1.1505165311629660e-10  1.9999999997739701e+02 -3.1502039434003006e-11 -4.5415085328979045e-11  1.9999999997750066e+02 8.4063246678725259e-11 8.4470817222095274e-11  1.9999999997740150e+02 -7.1753901468198231e-11 -3.6654698180883858e-11  1.9999999997809456e+02 -1.1440308774698566e-10 -1.7446227915556702e-10  1.9999999997810636e+02 -1.6060915281067844e-10 -1.2081148532583851e-10  1.9999999997815306e+02 -3.4037237161956672e-11 -1.9952044161213750e-11  1.9999999997653512e+02 -9.4851321229529160e-11 -7.5305585872518705e-11  1.9999999997563637e+02 -1.2090998736977064e-10 -1.0970318983491050e-10  1.9999999997580289e+02 -4.2516193632643376e-11 -6.2145767910501384e-11  1.9999999997588182e+02 8.8578210113047989e-11 8.5232696902240925e-11  1.9999999997576231e+02 -4.8094691194857585e-11 -2.6957092906511991e-11  1.9999999997650656e+02 -1.3132376081796108e-10 -1.7605430948369195e-10  1.9999999997650687e+02 -1.9454029746732031e-10 -1.1251358141945791e-10  1.9999999997661391e+02 -8.4219942321688369e-12 -8.5574287635817478e-12  1.9999999997490821e+02 -7.5854695631044784e-11 -8.2001367981103850e-11  1.9999999997408997e+02 -1.0578656185514605e-10 -1.2705941901915340e-10  1.9999999997421574e+02 -2.3871707290249903e-11 2.8325767175053370e-11  1.9999999997431874e+02 8.4225735724774001e-11 6.0656234614367835e-11  1.9999999997419948e+02 -2.0563888871968950e-11 -2.1168929171844787e-11  1.9999999997489979e+02 -1.3697021385230949e-10 -1.9850981187404796e-10  1.9999999997489286e+