<?xml version="1.0"?>
<VTKFile type="UnstructuredGrid"  version="0.1"  >
<UnstructuredGrid>
<Piece  NumberOfPoints="4075" NumberOfCells="20137">
<Points>
<DataArray  type="Float64"  NumberOfComponents="3"  format="ascii">27.5 37.5 37.5  27.5 37.5 38.75  27.5 36.25 38.75  26.25 36.25 38.75  27.5 37.5 40  27.5 35 40  27.5 36.25 40  26.25 37.5 38.75  27.5 38.75 38.75  27.5 38.75 37.5  26.25 38.75 38.75  27.5 40 37.5  27.5 40 38.75  27.5 40 40  27.5 38.75 40  27.5 38.75 41.25  26.25 38.75 41.25  27.5 40 41.25  27.5 40 42.5  27.5 37.5 41.25  27.5 37.5 42.5  27.5 38.75 42.5  26.25 40 41.25  27.5 41.25 41.25  27.5 41.25 40  26.25 41.25 41.25  27.5 42.5 40  27.5 42.5 41.25  27.5 42.5 42.5  27.5 41.25 42.5  45 37.5 35  45 37.5 36.25  45 36.25 36.25  43.75 36.25 36.25  45 37.5 37.5  45 35 37.5  45 36.25 37.5  42.5 35 37.5  43.75 36.25 37.5  43.75 35 37.5  42.5 37.5 35  43.75 37.5 36.25  43.75 37.5 35  47.5 37.5 35  47.5 37.5 36.25  47.5 36.25 36.25  46.25 36.25 36.25  47.5 37.5 37.5  47.5 35 37.5  47.5 36.25 37.5  46.25 36.25 37.5  46.25 35 37.5  46.25 37.5 36.25  46.25 37.5 37.5  50 37.5 35  50 37.5 36.25  50 36.25 36.25  48.75 36.25 36.25  50 37.5 37.5  50 35 37.5  50 36.25 37.5  48.75 36.25 37.5  48.75 35 37.5  48.75 37.5 36.25  48.75 37.5 35  48.75 37.5 37.5  42.5 35 38.75  42.5 33.75 38.75  41.25 33.75 38.75  42.5 35 40  42.5 32.5 37.5  42.5 32.5 38.75  42.5 32.5 40  42.5 33.75 40  43.75 35 38.75  43.75 33.75 38.75  45 35 38.75  45 35 40  43.75 33.75 40  43.75 35 40  47.5 35 38.75  46.25 35 38.75  46.25 33.75 38.75  47.5 35 40  48.75 35 38.75  48.75 33.75 38.75  46.25 36.25 38.75  47.5 36.25 38.75  47.5 37.5 38.75  47.5 37.5 40  47.5 36.25 40  48.75 36.25 38.75  50 36.25 38.75  50 37.5 38.75  50 37.5 40  50 35 38.75  50 35 40  50 36.25 40  48.75 36.25 40  48.75 35 40  48.75 37.5 38.75  48.75 37.5 40  45 35 41.25  45 33.75 41.25  43.75 33.75 41.25  45 35 42.5  47.5 35 41.25  47.5 33.75 41.25  46.25 33.75 41.25  47.5 35 42.5  46.25 35 41.25  46.25 35 40  46.25 35 42.5  48.75 35 41.25  48.75 33.75 41.25  50 35 41.25  50 35 42.5  48.75 35 42.5  48.75 33.75 42.5  30 37.5 32.5  30 38.75 33.75  30 37.5 33.75  28.75 38.75 33.75  30 37.5 35  30 38.75 35  30 40 35  27.5 37.5 35  28.75 38.75 35  28.75 37.5 35  27.5 38.75 35  27.5 38.75 33.75  27.5 40 35  28.75 40 35  32.5 37.5 32.5  32.5 38.75 33.75  32.5 38.75 32.5  31.25 38.75 33.75  32.5 40 32.5  32.5 40 33.75  32.5 40 35  32.5 37.5 33.75  32.5 37.5 35  32.5 38.75 35  31.25 38.75 35  31.25 37.5 35  31.25 40 35  35 40 32.5  35 40 33.75  35 38.75 33.75  33.75 38.75 33.75  35 40 35  35 37.5 35  35 38.75 35  33.75 38.75 35  33.75 37.5 35  33.75 40 33.75  33.75 40 32.5  33.75 40 35  37.5 40 32.5  37.5 40 33.75  37.5 38.75 33.75  36.25 38.75 33.75  37.5 38.75 32.5  36.25 38.75 32.5  37.5 40 35  37.5 37.5 35  37.5 38.75 35  36.25 38.75 35  36.25 37.5 35  36.25 40 33.75  36.25 40 32.5  36.25 40 35  40 40 32.5  40 40 33.75  40 38.75 33.75  38.75 38.75 33.75  40 38.75 32.5  38.75 38.75 32.5  40 40 35  40 37.5 35  40 38.75 35  38.75 38.75 35  38.75 40 33.75  38.75 40 32.5  38.75 40 35  42.5 37.5 32.5  42.5 38.75 33.75  42.5 37.5 33.75  41.25 38.75 33.75  42.5 38.75 35  42.5 40 35  41.25 38.75 35  41.25 37.5 35  41.25 40 35  41.25 40 33.75  43.75 38.75 35  43.75 38.75 33.75  45 38.75 35  45 40 35  43.75 40 35  33.75 41.25 33.75  35 41.25 33.75  35 41.25 35  35 42.5 35  33.75 41.25 35  36.25 41.25 33.75  37.5 41.25 33.75  37.5 41.25 35  37.5 42.5 35  36.25 41.25 35  36.25 42.5 35  38.75 41.25 33.75  40 41.25 33.75  40 41.25 35  40 42.5 35  38.75 41.25 35  38.75 42.5 35  41.25 41.25 33.75  41.25 41.25 35  42.5 41.25 35  42.5 42.5 35  41.25 42.5 35  30 37.5 36.25  30 36.25 36.25  28.75 36.25 36.25  30 37.5 37.5  30 35 37.5  30 36.25 37.5  28.75 36.25 37.5  28.75 37.5 36.25  28.75 37.5 37.5  27.5 37.5 36.25  32.5 37.5 36.25  32.5 36.25 36.25  31.25 36.25 36.25  32.5 37.5 37.5  32.5 35 37.5  32.5 36.25 37.5  31.25 36.25 37.5  31.25 35 37.5  31.25 37.5 36.25  31.25 37.5 37.5  35 37.5 36.25  35 36.25 36.25  33.75 36.25 36.25  35 37.5 37.5  35 35 37.5  35 36.25 37.5  33.75 36.25 37.5  33.75 35 37.5  33.75 37.5 36.25  33.75 37.5 37.5  37.5 37.5 36.25  37.5 36.25 36.25  36.25 36.25 36.25  37.5 37.5 37.5  37.5 35 37.5  37.5 36.25 37.5  36.25 36.25 37.5  36.25 35 37.5  36.25 37.5 36.25  36.25 37.5 37.5  40 37.5 36.25  40 36.25 36.25  38.75 36.25 36.25  40 37.5 37.5  40 35 37.5  40 36.25 37.5  38.75 36.25 37.5  38.75 35 37.5  38.75 37.5 36.25  38.75 37.5 37.5  42.5 37.5 36.25  42.5 36.25 36.25  41.25 36.25 36.25  42.5 37.5 37.5  42.5 36.25 37.5  41.25 36.25 37.5  41.25 37.5 36.25  41.25 37.5 37.5  43.75 37.5 37.5  28.75 38.75 36.25  30 38.75 36.25  30 40 36.25  30 40 37.5  30 38.75 37.5  28.75 38.75 37.5  28.75 40 36.25  27.5 38.75 36.25  28.75 40 37.5  27.5 40 36.25  31.25 38.75 36.25  32.5 38.75 36.25  32.5 40 36.25  32.5 40 37.5  32.5 38.75 37.5  31.25 38.75 37.5  31.25 40 36.25  31.25 40 37.5  33.75 38.75 36.25  35 38.75 36.25  35 40 36.25  35 40 37.5  35 38.75 37.5  33.75 38.75 37.5  33.75 40 36.25  33.75 40 37.5  36.25 38.75 36.25  37.5 38.75 36.25  37.5 40 36.25  37.5 40 37.5  37.5 38.75 37.5  36.25 38.75 37.5  36.25 40 36.25  36.25 40 37.5  40 38.75 36.25  38.75 38.75 36.25  40 40 36.25  40 40 37.5  40 38.75 37.5  38.75 38.75 37.5  38.75 40 36.25  38.75 40 37.5  41.25 38.75 36.25  42.5 38.75 36.25  42.5 40 36.25  42.5 40 37.5  42.5 38.75 37.5  41.25 38.75 37.5  41.25 40 36.25  41.25 40 37.5  43.75 38.75 36.25  45 38.75 36.25  45 40 36.25  45 40 37.5  45 38.75 37.5  43.75 38.75 37.5  43.75 40 36.25  43.75 40 37.5  47.5 38.75 36.25  47.5 38.75 35  46.25 38.75 36.25  46.25 38.75 35  47.5 40 35  47.5 40 36.25  47.5 40 37.5  47.5 38.75 37.5  46.25 38.75 37.5  46.25 40 36.25  46.25 40 35  46.25 40 37.5  48.75 38.75 36.25  48.75 38.75 35  50 38.75 36.25  50 38.75 35  50 40 35  50 40 36.25  50 40 37.5  50 38.75 37.5  48.75 38.75 37.5  48.75 40 36.25  48.75 40 35  48.75 40 37.5  28.75 41.25 36.25  28.75 41.25 35  30 41.25 36.25  30 41.25 35  30 42.5 35  30 42.5 36.25  30 42.5 37.5  30 41.25 37.5  28.75 41.25 37.5  27.5 42.5 35  28.75 42.5 36.25  28.75 42.5 35  27.5 41.25 37.5  27.5 42.5 37.5  28.75 42.5 37.5  31.25 41.25 36.25  31.25 41.25 35  32.5 41.25 36.25  32.5 41.25 35  32.5 42.5 35  32.5 42.5 36.25  32.5 42.5 37.5  32.5 41.25 37.5  31.25 41.25 37.5  31.25 42.5 36.25  31.25 42.5 35  31.25 42.5 37.5  33.75 41.25 36.25  35 41.25 36.25  35 42.5 36.25  35 42.5 37.5  35 41.25 37.5  33.75 41.25 37.5  33.75 42.5 36.25  33.75 42.5 35  33.75 42.5 37.5  36.25 41.25 36.25  37.5 41.25 36.25  37.5 42.5 36.25  37.5 42.5 37.5  37.5 41.25 37.5  36.25 41.25 37.5  36.25 42.5 36.25  36.25 42.5 37.5  38.75 41.25 36.25  40 41.25 36.25  40 42.5 36.25  40 42.5 37.5  40 41.25 37.5  38.75 41.25 37.5  38.75 42.5 36.25  38.75 42.5 37.5  41.25 41.25 36.25  42.5 41.25 36.25  42.5 42.5 36.25  42.5 42.5 37.5  42.5 41.25 37.5  41.25 41.25 37.5  41.25 42.5 36.25  41.25 42.5 37.5  43.75 41.25 36.25  43.75 41.25 35  45 41.25 36.25  45 41.25 35  45 42.5 35  45 42.5 36.25  45 42.5 37.5  45 41.25 37.5  43.75 41.25 37.5  43.75 42.5 36.25  43.75 42.5 35  43.75 42.5 37.5  46.25 41.25 36.25  46.25 41.25 35  47.5 41.25 36.25  47.5 41.25 35  47.5 42.5 35  47.5 42.5 36.25  47.5 42.5 37.5  47.5 41.25 37.5  46.25 41.25 37.5  46.25 42.5 36.25  46.25 42.5 35  46.25 42.5 37.5  48.75 41.25 36.25  48.75 41.25 35  50 41.25 36.25  50 41.25 35  50 42.5 35  50 42.5 36.25  50 42.5 37.5  50 41.25 37.5  48.75 41.25 37.5  48.75 42.5 36.25  48.75 42.5 35  48.75 42.5 37.5  28.75 43.75 36.25  28.75 43.75 35  30 43.75 36.25  30 43.75 35  30 45 35  30 45 36.25  30 45 37.5  30 43.75 37.5  28.75 43.75 37.5  27.5 43.75 35  27.5 45 35  28.75 45 36.25  28.75 45 35  31.25 43.75 36.25  31.25 43.75 35  32.5 43.75 36.25  32.5 43.75 35  32.5 45 35  32.5 45 36.25  32.5 45 37.5  32.5 43.75 37.5  31.25 43.75 37.5  31.25 45 36.25  31.25 45 35  31.25 45 37.5  33.75 43.75 36.25  33.75 43.75 35  35 43.75 36.25  35 43.75 35  35 45 35  35 45 36.25  35 45 37.5  35 43.75 37.5  33.75 43.75 37.5  33.75 45 36.25  33.75 45 35  33.75 45 37.5  36.25 43.75 36.25  36.25 43.75 35  37.5 43.75 36.25  37.5 43.75 35  37.5 45 35  37.5 45 36.25  37.5 45 37.5  37.5 43.75 37.5  36.25 43.75 37.5  36.25 45 36.25  36.25 45 35  36.25 45 37.5  38.75 43.75 36.25  38.75 43.75 35  40 43.75 36.25  40 43.75 35  40 45 35  40 45 36.25  40 45 37.5  40 43.75 37.5  38.75 43.75 37.5  38.75 45 36.25  38.75 45 35  38.75 45 37.5  41.25 43.75 36.25  41.25 43.75 35  42.5 43.75 36.25  42.5 43.75 35  42.5 45 35  42.5 45 36.25  42.5 45 37.5  42.5 43.75 37.5  41.25 43.75 37.5  41.25 45 36.25  41.25 45 35  41.25 45 37.5  43.75 43.75 36.25  43.75 43.75 35  45 43.75 36.25  45 43.75 35  45 45 35  45 45 36.25  45 45 37.5  45 43.75 37.5  43.75 43.75 37.5  43.75 45 36.25  43.75 45 35  43.75 45 37.5  46.25 43.75 36.25  46.25 43.75 35  47.5 43.75 36.25  47.5 43.75 35  47.5 45 35  47.5 45 36.25  47.5 45 37.5  47.5 43.75 37.5  46.25 43.75 37.5  46.25 45 36.25  46.25 45 35  46.25 45 37.5  48.75 43.75 36.25  48.75 43.75 35  50 43.75 36.25  50 43.75 35  50 45 35  50 45 36.25  50 45 37.5  50 43.75 37.5  48.75 43.75 37.5  48.75 45 36.25  48.75 45 35  48.75 45 37.5  28.75 46.25 36.25  28.75 46.25 35  30 46.25 36.25  30 46.25 35  30 47.5 35  30 47.5 36.25  30 47.5 37.5  30 46.25 37.5  28.75 46.25 37.5  28.75 47.5 36.25  27.5 47.5 37.5  28.75 47.5 37.5  31.25 46.25 36.25  31.25 46.25 35  32.5 46.25 36.25  32.5 46.25 35  32.5 47.5 35  32.5 47.5 36.25  32.5 47.5 37.5  32.5 46.25 37.5  31.25 46.25 37.5  31.25 47.5 36.25  31.25 47.5 35  31.25 47.5 37.5  33.75 46.25 36.25  33.75 46.25 35  35 46.25 36.25  35 46.25 35  35 47.5 35  35 47.5 36.25  35 47.5 37.5  35 46.25 37.5  33.75 46.25 37.5  33.75 47.5 36.25  33.75 47.5 35  33.75 47.5 37.5  36.25 46.25 36.25  36.25 46.25 35  37.5 46.25 36.25  37.5 46.25 35  37.5 47.5 35  37.5 47.5 36.25  37.5 47.5 37.5  37.5 46.25 37.5  36.25 46.25 37.5  36.25 47.5 36.25  36.25 47.5 35  36.25 47.5 37.5  38.75 46.25 36.25  38.75 46.25 35  40 46.25 36.25  40 46.25 35  40 47.5 35  40 47.5 36.25  40 47.5 37.5  40
[...]
<PointData  Vectors="u"> 
<DataArray  type="Float64"  Name="u"  NumberOfComponents="3" format="ascii">1.9999999998080253e+02 7.6656774853130776e-11 9.3272527768567457e-11  1.9999999998061261e+02 -2.9025988043972595e-11 -7.5062582246471855e-11  1.9999999998052331e+02 -1.1730441984641289e-10 -8.4661680998331747e-11  1.9999999998146475e+02 -1.1427135438978795e-10 -9.3729029932181198e-11  1.9999999998081108e+02 4.3412243609591345e-11 1.0233403272419628e-10  1.9999999998081290e+02 7.6681824970546684e-11 6.9099061894367796e-11  1.9999999998062285e+02 1.5931450466412448e-11 1.0224161057011795e-11  1.9999999998143656e+02 -2.1053320493875648e-10 -1.6053803848866875e-10  1.9999999998058752e+02 -1.1432143525294121e-10 -1.1428766919656685e-10  1.9999999998059596e+02 -2.9877831169088053e-11 -4.5206598006541453e-11  1.9999999998141277e+02 -7.3157078981750143e-11 -1.1102859256262051e-10  1.9999999998079551e+02 1.1071012277938625e-10 5.3270647864560167e-11  1.9999999998063421e+02 2.3567218820236266e-11 -6.2138919193595387e-11  1.9999999998079554e+02 9.2521542809877757e-11 9.5860907693178070e-11  1.9999999998062083e+02 -2.8104504680376275e-11 1.1164721867824253e-12  1.9999999998057677e+02 -1.1208532639978244e-10 -1.3970222402149761e-10  1.9999999998143048e+02 -7.4215478853426217e-11 -1.1279987802676302e-10  1.9999999998062799e+02 -5.4150559267175127e-12 -3.0211537063563945e-11  1.9999999998080986e+02 8.0692032749981040e-11 8.9794625223491699e-11  1.9999999998058848e+02 -6.5541876785693019e-12 -7.7378635307802064e-11  1.9999999998076845e+02 7.0334525920776563e-11 1.0682548076488147e-10  1.9999999998060625e+02 7.2981571327354021e-12 3.7961082736983391e-12  1.9999999998139623e+02 -2.1202848800023654e-10 -1.5065982502705338e-10  1.9999999998058615e+02 -1.3481024308784269e-10 -1.5067473739026474e-10  1.9999999998061759e+02 -2.4495001149507757e-11 -2.7251218972436378e-12  1.9999999998143053e+02 -1.1624880615754072e-10 -1.3347597014933562e-10  1.9999999998081984e+02 6.6640761165651766e-11 8.7550311572836277e-11  1.9999999998063851e+02 4.2231392547919967e-12 -1.4077803218785897e-11  1.9999999998081003e+02 8.0103278907481515e-11 8.1120951579808567e-11  1.9999999998062543e+02 -4.0072692988654863e-11 2.8727164662280111e-11  1.9999999996961586e+02 1.3303172177983361e-10 -2.1283588005359304e-12  1.9999999996956603e+02 -8.5113445518452699e-11 -3.7043323630840707e-11  1.9999999996938260e+02 -1.4273747662697882e-10 -9.8476308370630378e-11  1.9999999997023892e+02 -9.9814571296141087e-11 -1.1769046932653282e-10  1.9999999996963555e+02 7.4152197271415503e-11 8.1961005215828740e-11  1.9999999996962967e+02 6.8808400775110123e-11 6.7245129301550657e-11  1.9999999996957311e+02 -8.5987199359034653e-11 -9.8453774534405128e-11  1.9999999997110513e+02 5.4658680360682602e-11 8.0012652983734298e-11  1.9999999997025068e+02 -1.2077553776272150e-10 -1.5796438439273350e-10  1.9999999997029758e+02 -6.1701255454268734e-11 8.7083082355320819e-12  1.9999999997116115e+02 1.0343924897849061e-10 3.4663758661485516e-11  1.9999999997025299e+02 -1.7063276531418545e-10 -1.4874897884594246e-10  1.9999999997024446e+02 -2.8549264011356966e-11 -4.4362664642195248e-11  1.9999999996813034e+02 1.1117002775291263e-10 4.7727189064002847e-11  1.9999999996804905e+02 -9.1601245398780439e-11 -3.3160745771027116e-11  1.9999999996787915e+02 -1.0537914115223030e-10 -1.1011434160763322e-10  1.9999999996872086e+02 -1.1070555917279619e-10 -8.5836241966100161e-11  1.9999999996809262e+02 7.3562501066819758e-11 5.6803878191481406e-11  1.9999999996806599e+02 7.5644943123981049e-11 4.4133056620069774e-11  1.9999999996801048e+02 -2.6311609206865989e-11 -2.1527003833481856e-11  1.9999999996868991e+02 -1.0450899200615731e-10 -1.8726898536923881e-10  1.9999999996880865e+02 -1.1002204450338243e-12 -6.6245784755786124e-11  1.9999999996871395e+02 -1.7024581887068430e-10 -1.0278660230005498e-10  1.9999999996880987e+02 -1.2324331229571410e-10 -6.8723891927787487e-12  1.9999999996647776e+02 4.6838576338148315e-11 3.8197791797148023e-11  1.9999999996632070e+02 -1.3897969342130593e-10 -2.0082160258628423e-11  1.9999999996620809e+02 9.8094954331888861e-12 5.2961660311195619e-12  1.9999999996721112e+02 -8.4133679669089113e-11 -9.9047933488461421e-11  1.9999999996647688e+02 3.3397718039403799e-11 2.0082231428125707e-11  1.9999999996649328e+02 2.7029610590571218e-11 1.9728489289687090e-11  1.9999999996630012e+02 -2.3750909593020024e-11 1.1297973867689861e-11  1.9999999996724685e+02 -9.4899365427751605e-11 -2.2488408433353446e-10  1.9999999996729923e+02 -2.1245524411546090e-11 -3.3140283898138262e-11  1.9999999996720842e+02 -1.4880870325315954e-10 -1.1190507947744701e-10  1.9999999996727462e+02 -9.6291240104872003e-11 6.7568011906461067e-11  1.9999999996726021e+02 -7.7053138472865071e-11 -4.0161445753068920e-11  1.9999999997111706e+02 -1.1029423435444754e-10 -1.3156103932148064e-11  1.9999999997090131e+02 -8.1331706568186299e-11 -1.3362855275962154e-10  1.9999999997173691e+02 -1.0599941826873628e-10 -1.0331680054252284e-10  1.9999999997112698e+02 7.5935568934736063e-11 9.6287779277163694e-11  1.9999999997116143e+02 6.9794430297495168e-11 6.4836766859591371e-11  1.9999999997103225e+02 -5.7801919244249497e-11 -2.8318137598951199e-11  1.9999999997114082e+02 9.4234675281100282e-11 9.8833264602907760e-11  1.9999999997108853e+02 -4.4180966814929142e-11 -7.4991974603493494e-11  1.9999999997018455e+02 -1.2691120343029649e-10 -1.0026527852592522e-10  1.9999999997020976e+02 -1.1157427235152397e-10 -8.1585291389771345e-11  1.9999999996952326e+02 -8.2258373536549612e-11 -4.1908571880097072e-11  1.9999999996959096e+02 9.5528227476517719e-11 8.8242387952594078e-11  1.9999999997021757e+02 -1.3413228973945878e-10 -1.6421911745619632e-10  1.9999999997030204e+02 -7.2087363785363663e-11 5.1765322970896711e-11  1.9999999996803314e+02 1.1104257406362314e-11 -4.5540712150982113e-11  1.9999999996869201e+02 -1.1046679809908597e-10 -1.2192131290689222e-10  1.9999999996869485e+02 -1.3638399611377622e-10 -1.0881855555090733e-10  1.9999999996807577e+02 7.4684617829661111e-11 9.1498123543644828e-11  1.9999999996724813e+02 -1.8721387419144042e-10 -9.0887629671146810e-11  1.9999999996722210e+02 -1.1791741205964435e-10 -1.0227429393023746e-10  1.9999999996872378e+02 -8.8289174861264345e-11 -8.8182069195088840e-11  1.9999999996782657e+02 -1.0919607795570967e-10 -9.7603709015637765e-11  1.9999999996808759e+02 -1.3112029754898214e-10 -6.9362267800986972e-11  1.9999999996809112e+02 4.8944077794214721e-11 9.5344782721926634e-11  1.9999999996805934e+02 -5.0224960711964805e-11 -1.1398153141177947e-10  1.9999999996721135e+02 -9.9179579131710569e-11 -9.7132542485892896e-11  1.9999999996623799e+02 2.4318873641308717e-11 1.9527856774300862e-11  1.9999999996637806e+02 -1.5535341359062421e-10 2.8867934896393492e-12  1.9999999996645030e+02 1.9577497837429333e-11 4.2642387373043130e-11  1.9999999996632957e+02 1.5371001955835148e-11 -1.4729217091304597e-11  1.9999999996647469e+02 2.2482377824322085e-11 4.7862183260717277e-11  1.9999999996631968e+02 -8.2234209797289236e-12 -1.4629028830963780e-10  1.9999999996724850e+02 -8.9861428214036858e-11 -1.1383969920339247e-10  1.9999999996731691e+02 -2.7213581826664124e-11 -2.0813444567725544e-11  1.9999999996723469e+02 -1.2473109441223923e-10 -1.1922326505876606e-10  1.9999999996729829e+02 -9.4053199921807534e-11 -2.6083032380561221e-11  1.9999999996960040e+02 -1.0683861613418787e-10 1.3160988905176414e-11  1.9999999996937746e+02 -1.0193122796675477e-10 -6.9157273030066923e-11  1.9999999997020916e+02 -8.7994390454027883e-11 -7.2829764461051191e-11  1.9999999996961532e+02 6.0206050036252417e-11 9.0499205099214690e-11  1.9999999996800005e+02 -8.0259559325148297e-11 -8.8361672207080735e-12  1.9999999996787190e+02 -9.9766026414358875e-11 -8.5166688768836180e-11  1.9999999996868496e+02 -8.9634277461619991e-11 -8.2904672911375025e-11  1.9999999996806301e+02 4.6212457944636981e-11 8.4017883633632987e-11  1.9999999996869349e+02 -1.2031280950022497e-10 -1.3275144495481276e-10  1.9999999996878927e+02 6.0102704949761879e-12 3.1759196712225555e-11  1.9999999996875943e+02 -6.8219844488792939e-11 2.1522005001235843e-12  1.9999999996723034e+02 -1.5439967785135834e-10 -9.6807565536612054e-11  1.9999999996720237e+02 -1.1865977106048912e-10 -1.0889848595044761e-10  1.9999999996630808e+02 -1.6142001104149090e-10 -1.9265192997710573e-11  1.9999999996650817e+02 4.8329194032973734e-12 2.2783876798609419e-11  1.9999999996721846e+02 -1.3178014765680733e-10 -9.0577623420485222e-11  1.9999999996720504e+02 -1.1447446198074551e-10 -1.5310978403978946e-10  1.9999999997908773e+02 8.0085085169112764e-11 2.2442858785893124e-11  1.9999999997880730e+02 -6.1680721098521137e-11 -3.4433126761465924e-12  1.9999999997901946e+02 -3.0771482577032500e-11 -9.4100524710682313e-11  1.9999999997978193e+02 -9.0525787928718830e-11 -2.0636365629590149e-12  1.9999999997911840e+02 1.0560517889128264e-10 1.0897051208776060e-10  1.9999999997901995e+02 -1.0947243884858318e-12 -3.4204593780277989e-11  1.9999999997908111e+02 1.2530080302815769e-10 3.6566253732208767e-11  1.9999999998077482e+02 7.9923784585516107e-11 6.0400022742515917e-11  1.9999999997973498e+02 -6.7831698884579901e-11 -1.5555070004774074e-10  1.9999999997980336e+02 -3.4173743229700274e-11 -3.5370989044561595e-11  1.9999999998060485e+02 3.0705674070984577e-12 8.5436635531198064e-11  1.9999999998072681e+02 -3.1687234008792137e-11 -4.8147277729418251e-11  1.9999999998080315e+02 9.5652634579414489e-11 7.6970223665739371e-11  1.9999999997985520e+02 -5.0412562368645683e-11 5.4557419289439899e-11  1.9999999997746482e+02 1.2664703475483685e-10 6.5222670323598405e-11  1.9999999997739715e+02 -2.1359985447534140e-10 -1.7556763439795454e-10  1.9999999997743859e+02 -4.1902493389861638e-11 -2.7285232342164920e-12  1.9999999997819700e+02 -5.4340681977336068e-11 -9.7767439510669067e-11  1.9999999997744683e+02 9.3087458784804297e-11 8.3070382406421101e-12  1.9999999997736214e+02 -7.3000711398373773e-11 4.7051628615439001e-12  1.9999999997744965e+02 1.4617342738505864e-10 5.7254424346405538e-11  1.9999999997746772e+02 -1.1273363453719848e-10 -1.1777492776756056e-11  1.9999999997749015e+02 7.4365180635920694e-11 7.2692517058219888e-11  1.9999999997739135e+02 -7.0087202279797384e-11 -2.7182914533559738e-11  1.9999999997806606e+02 -9.4886832976891800e-11 -2.5907434629356995e-10  1.9999999997818040e+02 -2.2783256803846384e-11 -3.1002816283293430e-11  1.9999999997818276e+02 -7.1133425978598296e-11 -1.8819616939824822e-11  1.9999999997590047e+02 1.0244756293598573e-10 1.0377419039545340e-11  1.9999999997581230e+02 -3.1173887633052033e-11 -1.7435155089777186e-11  1.9999999997564009e+02 -9.5826075496699672e-11 -1.0864793566266014e-10  1.9999999997652051e+02 -8.1591981131565958e-11 -9.4422971089766724e-11  1.9999999997587841e+02 1.0532092726849120e-10 7.1928981305066372e-11  1.9999999997586698e+02 6.6842185612157520e-11 9.6367107971335836e-11  1.9999999997577416e+02 -6.9049888067158959e-11 -8.1535689436052971e-12  1.9999999997651517e+02 -1.2928640632800338e-10 -1.1846538029377084e-10  1.9999999997658057e+02 -3.4324569892240725e-11 1.7041258191662348e-11  1.9999999997650733e+02 -1.7594472247492941e-10 -1.2237430170476446e-10  1.9999999997656832e+02 -3.5356366078726906e-11 1.0582666922634524e-10  1.9999999997656889e+02 -2.0534102919263914e-11 1.0640784695920079e-11  1.9999999997427497e+02 1.1635792641796748e-10 -1.6234069297551628e-11  1.9999999997418510e+02 -4.1990135867338689e-11 -1.4200134198425450e-11  1.9999999997396094e+02 -1.3184356940795084e-10 -8.7314847225160702e-11  1.9999999997494257e+02 -9.8013674843071845e-11 -9.2089700488500813e-11  1.9999999997414167e+02 -3.9372602528720766e-11 8.7990835070801719e-11  1.9999999997477593e+02 -1.9008828156227253e-10 -1.0763673100664502e-10  1.9999999997427443e+02 9.9397412470349778e-11 7.0962254544336272e-11  1.9999999997428401e+02 5.3454966947719986e-11 5.3377769646604848e-11  1.9999999997418013e+02 -4.9935945252406244e-11 -2.1155449593676070e-11  1.9999999997488771e+02 -1.2872447547001033e-10 -1.7895629352660274e-10  1.9999999997495061e+02 -2.8196213564779737e-11 -2.4963394792481512e-11  1.9999999997486253e+02 -1.3881956185499254e-10 -1.2096247780389756e-10  1.9999999997496892e+02 -3.1885470894666358e-11 7.2882088772090669e-11  1.9999999997497576e+02 7.6151425240720359e-12 -1.5926827600290606e-11  1.9999999997275867e+02 1.2295676443092812e-10 -1.2373280032840708e-11  1.9999999997265647e+02 3.7233813896408942e-11 -2.0975196235378761e-11  1.9999999997253661e+02 -1.2329665993527546e-10 -7.7647321080853683e-11  1.9999999997335416e+02 -9.3869311709090128e-11 -6.2164898617896581e-11  1.9999999997260767e+02 -5.8487531996188694e-11 2.9237402113930830e-11  1.9999999997320884e+02 -2.2024834260489449e-10 -1.0083925510093160e-10  1.9999999997273767e+02 1.0930611662939182e-10 6.1794428166613379e-11  1.9999999997270379e+02 6.6829403821049926e-11 8.8781532978206572e-11  1.9999999997263365e+02 -4.8920798349828549e-11 -2.3176925112615150e-11  1.9999999997329101e+02 -1.1690212158930320e-10 -2.1359771503103315e-10  1.9999999997329931e+02 -1.5138072577717092e-10 -1.1004844234988441e-10  1.9999999997339592e+02 -1.1599976486137009e-11 5.6716157574907105e-11  1.9999999997341331e+02 1.1449485734238601e-12 -8.5689489567368141e-12  1.9999999997119610e+02 7.9722049687553143e-11 5.4470417668964738e-11  1.9999999997089097e+02 -1.5599353790632506e-10 1.1068968317166539e-12  1.9999999997112550e+02 -6.6493316750346231e-11 -1.1759335415053869e-14  1.9999999997183349e+02 -8.6175748147288498e-11 -4.0212448021521980e-11  1.9999999997105485e+02 -5.6607799332585622e-11 -8.1910526734716397e-11  1.9999999997117894e+02 1.0232055684258968e-10 -2.1497914683037933e-11  1.9999999997180976e+02 -1.3037266511962822e-10 -1.6713502531071780e-10  1.9999999997191384e+02 -6.7529466067582634e-11 -4.6571038692776783e-11  1.9999999997183303e+02 4.2979031532961586e-11 -3.3139637666871949e-11  1.9999999997177710e+02 -2.1760780208433987e-10 -8.0158725920504530e-11  1.9999999997021257e+02 -1.5060089797119686e-10 -2.3700014944807651e-10  1.9999999997023875e+02 -9.3854040993738169e-11 -2.1258179359305032e-11  1.9999999996941398e+02 -4.2798855473236996e-11 -5.1978810235898336e-11  1.9999999996963572e+02 7.3378497095258276e-11 -5.2943166821520292e-11  1.9999999997023215e+02 -8.8026616453299412e-11 -3.6010466470561574e-11  1.9999999997655735e+02 -3.7188320896695510e-11 -5.1314201153406923e-11  1.9999999997559556e+02 -8.4704338913792496e-11 -3.1321412022379232e-11  1.9999999997578419e+02 -3.0353703422501616e-11 -3.7020761355993499e-11  1.9999999997586440e+02 1.2817674046863806e-10 2.4350884080270746e-11  1.9999999997656488e+02 -1.0796707400834193e-10 -2.6029204421482925e-10  1.9999999997488803e+02 -6.9348125608760530e-11 -6.2930712833977976e-11  1.9999999997396210e+02 -6.5935192157440127e-11 -2.3037858742406112e-11  1.9999999997418601e+02 -1.3301083334409775e-11 -3.7510171096586400e-11  1.9999999997429614e+02 1.1184415816368869e-10 9.3083109186309917e-12  1.9999999997489050e+02 -1.2225042104522990e-10 -1.8938147855644012e-10  1.9999999997495004e+02 -9.4579527856626604e-11 -2.9838705684939101e-12  1.9999999997334319e+02 -4.8507670065835649e-11 -6.2739677214174763e-11  1.9999999997243577e+02 -7.8568637585519436e-11 -6.4401618353239528e-11  1.9999999997264493e+02 -4.1708728477245945e-11 -3.7381143849748993e-11  1.9999999997275512e+02 1.1898039336460511e-10 -2.6322837706450945e-11  1.9999999997330136e+02 -1.0978736849633907e-10 -2.0230273237868307e-10  1.9999999997340140e+02 -7.0244835352139356e-11 -3.3931237823115897e-12  1.9999999997182417e+02 -5.3400800605149892e-11 -2.7042792368765774e-11  1.9999999997176963e+02 -1.1922818115976967e-10 -2.9330695664260014e-10  1.9999999997098234e+02 -6.4675186676630939e-11 -6.9231407563132458e-11  1.9999999997117052e+02 1.0861065976686630e-10 -5.9530182904923960e-11  1.9999999997180032e+02 -8.7242662480647033e-11 -6.8373247230226542e-11  1.9999999997903899e+02 -1.8613689811003530e-11 -6.2079563764121487e-11  1.9999999997884609e+02 -1.1356332077215181e-10 -1.2859445202179570e-10  1.9999999997973939e+02 -6.9653459690236700e-11 -4.0656387178607061e-11  1.9999999997904155e+02 9.5642413902559225e-11 9.7180247101061271e-11  1.9999999997903930e+02 1.5703445517015005e-11 1.0048702088202963e-10  1.9999999997901779e+02 -4.1214154134491735e-11 -1.2717311910520032e-10  1.9999999997978918e+02 -8.7078566728704758e-11 -6.7822032358187456e-11  1.9999999997971844e+02 -1.7830758615483044e-10 -6.7870328160342011e-11  1.9999999997979810e+02 -8.2925727398165340e-11 1.6470548398127071e-11  1.9999999998062165e+02 2.1239752518456689e-11 -2.0795231873697934e-11  1.9999999997737194e+02 -4.8123077957055623e-11 -6.2501623670718809e-11  1.9999999997724731e+02 -8.9155801821982317e-11 -1.2223055749013099e-10  1.9999999997813882e+02 -8.4471303975958716e-11 -1.0098556605273250e-10  1.9999999997750626e+02 9.5212685222392101e-11 6.4927431703235533e-11  1.9999999997751863e+02 -7.0742002327131030e-12 1.2538457715786497e-10  1.9999999997740446e+02 -9.4574366484741322e-11 -6.0218718372939636e-11  1.9999999997812384e+02 -9.3883586690081519e-11 -1.9498787215751737e-10  1.9999999997817403e+02 -3.7169310472405887e-11 -1.0294328782400667e-10  1.9999999997810116e+02 -2.2042590173901863e-10 -1.3293576467896395e-10  1.9999999997815013e+02 -1.0154244256582900e-11 -4.6267759275968039e-11  1.9999999997580821e+02 -1.3968213391324089e-11 -5.8933619702129747e-11  1.9999999997562503e+02 -6.0580600270528149e-11 -1.2475917392034325e-10  1.9999999997653248e+02 -8.7670417084099680e-11 -1.0496911327729454e-10  1.9999999997589683e+02 7.9534213314231340e-11 3.4075139901859744e-11  1.9999999997590214e+02 8.5030345578189782e-12 1.0302564371652967e-10  1.9999999997578649e+02 -5.5535139029729816e-11 -3.0121105851766966e-11  1.9999999997648672e+02 -1.1130590835040046e-10 -1.8244477183944283e-10  1.9999999997653848e+02 -2.8642803212192250e-12 -1.1283888272677198e-10  1.9999999997653089e+02 -1.9898450765634069e-10 -1.3349650395214055e-10  1.9999999997657468e+02 -6.8985630213065014e-12 -2.3755759756211477e-11  1.9999999997418502e+02 -2.7808394362486231e-11 -4.3199042402768341e-11  1.9999999997402162e+02 -1.0369348899870972e-10 -1.0346137442183586e-10  1.9999999997492324e+02 -8.0145975854960736e-11 -7.6186171530881639e-11  1.9999999997428017e+02 5.2207547230358510e-11 7.1436901074285228e-11  1.9999999997430223e+02 5.8665408044007881e-12 9.5873515909086700e-11  1.9999999997417217e+02 -6.1786757692155691e-11 -2.2083007962698126e-11  1.9999999997489985e+02 -9.9704948397320092e-11 -2.0989634513741669e-10  1.9999999997498503e+02 -2.0091794485199562e-11 -1.2348380739742200e-10  1.9999999997484485e+02 -2.1673204336162597e-10 -9.3679524695790304e-11  1.9999999997494734e+02 -1.1711209466655711e-11 -2.8693945664459768e-11  1.9999999997260500e+02 -1.5381393274788656e-12 -7.9442579571028466e-11  1.9999999997250845e+02 -1.4645895323285141e-10 -1.1502296098010936e-10  1.9999999997338116e+02 -1.0629984038670908e-10 -9.6552942653132361e-11  1.9999999997269785e+02 6.9205792163233948e-11 9.1464756487138636e-11  1.9999999997268191e+02 2.7989961786550601e-11 8.8902380145738511e-11  1.9999999997257862e+02 -8.4579294176125105e-11 -3.1067684820891904e-11  1.9999999997330823e+02 -1.2583500248140849e-10 -2.1965952412495261e-10  1.9999999997339563e+02 -1.3581361872226438e-11 -1.3503546192582112e-10  1.9999999997330366e+02 -2.1713273317602408e-10 -9.9246738636968218e-11  1.9999999997337275e+02 -2.6079596529095760e-11 -2.6541510915768918e-11  1.9999999997110754e+02 -3.2954168535527355e-11 -5.9376804508926823e-11  1.9999999997103859e+02 -1.1354961127677484e-11 -3.9174028218718358e-11  1.9999999997183309e+02 -8.4506933609600647e-11 -1.1619845608796386e-10  1.9999999997116163e+02 3.3687710658173627e-11 6.4118466282785923e-11  1.9999999997110032e+02 -3.5975344933850065e-11 2.5437087406287672e-11  1.9999999997178520e+02 -1.6824562066793102e-10 -1.1574808519251529e-10  1.9999999997179899e+02 -1.9075181946607260e-10 -1.