<?xml version="1.0"?>
<VTKFile type="UnstructuredGrid"  version="0.1"  >
<UnstructuredGrid>
<Piece  NumberOfPoints="4055" NumberOfCells="19818">
<Points>
<DataArray  type="Float64"  NumberOfComponents="3"  format="ascii">27.5 50 17.5  27.5 50 18.75  26.25 50 18.75  26.25 48.75 18.75  27.5 50 20  27.5 37.5 0  27.5 37.5 1.25  27.5 36.25 1.25  26.25 36.25 1.25  27.5 36.25 0  26.25 36.25 0  27.5 37.5 2.5  27.5 36.25 2.5  26.25 36.25 2.5  26.25 37.5 1.25  26.25 37.5 0  25 37.5 2.5  26.25 37.5 2.5  30 37.5 0  30 37.5 1.25  30 36.25 1.25  28.75 36.25 1.25  30 36.25 0  28.75 36.25 0  30 37.5 2.5  30 36.25 2.5  28.75 36.25 2.5  28.75 37.5 1.25  28.75 37.5 0  28.75 37.5 2.5  32.5 37.5 0  32.5 37.5 1.25  32.5 36.25 1.25  31.25 36.25 1.25  32.5 36.25 0  31.25 36.25 0  32.5 37.5 2.5  32.5 36.25 2.5  31.25 36.25 2.5  31.25 37.5 1.25  31.25 37.5 0  31.25 37.5 2.5  35 37.5 0  35 37.5 1.25  35 36.25 1.25  33.75 36.25 1.25  35 36.25 0  33.75 36.25 0  35 37.5 2.5  33.75 37.5 1.25  33.75 37.5 0  33.75 37.5 2.5  33.75 36.25 2.5  36.25 37.5 1.25  36.25 37.5 0  36.25 36.25 1.25  36.25 36.25 0  37.5 37.5 0  37.5 37.5 1.25  37.5 37.5 2.5  36.25 37.5 2.5  27.5 38.75 1.25  27.5 38.75 0  26.25 38.75 1.25  26.25 38.75 0  27.5 40 0  27.5 40 1.25  27.5 40 2.5  27.5 38.75 2.5  26.25 38.75 2.5  26.25 40 1.25  25 38.75 2.5  25 40 2.5  26.25 40 2.5  28.75 38.75 1.25  28.75 38.75 0  30 38.75 1.25  30 38.75 0  30 40 0  30 40 1.25  30 40 2.5  30 38.75 2.5  28.75 38.75 2.5  28.75 40 1.25  28.75 40 0  28.75 40 2.5  31.25 38.75 1.25  31.25 38.75 0  32.5 38.75 1.25  32.5 38.75 0  32.5 40 0  32.5 40 1.25  32.5 40 2.5  32.5 38.75 2.5  31.25 38.75 2.5  31.25 40 1.25  31.25 40 0  31.25 40 2.5  33.75 38.75 1.25  33.75 38.75 0  35 38.75 1.25  35 38.75 0  35 40 0  35 40 1.25  35 40 2.5  35 38.75 2.5  33.75 38.75 2.5  33.75 40 1.25  33.75 40 0  33.75 40 2.5  36.25 38.75 1.25  36.25 38.75 0  37.5 38.75 1.25  37.5 38.75 0  37.5 40 0  37.5 40 1.25  37.5 40 2.5  37.5 38.75 2.5  36.25 38.75 2.5  36.25 40 1.25  36.25 40 0  36.25 40 2.5  40 40 0  40 40 1.25  40 38.75 1.25  38.75 38.75 1.25  40 40 2.5  40 38.75 2.5  38.75 38.75 2.5  38.75 38.75 0  38.75 40 1.25  38.75 40 0  38.75 40 2.5  41.25 40 1.25  41.25 40 0  41.25 38.75 1.25  42.5 40 0  42.5 40 1.25  42.5 40 2.5  41.25 40 2.5  41.25 38.75 2.5  27.5 41.25 1.25  27.5 41.25 0  26.25 41.25 1.25  26.25 41.25 0  27.5 42.5 0  27.5 42.5 1.25  27.5 42.5 2.5  27.5 41.25 2.5  26.25 41.25 2.5  25 42.5 0  26.25 42.5 1.25  26.25 42.5 0  25 41.25 2.5  25 42.5 2.5  26.25 42.5 2.5  28.75 41.25 1.25  28.75 41.25 0  30 41.25 1.25  30 41.25 0  30 42.5 0  30 42.5 1.25  30 42.5 2.5  30 41.25 2.5  28.75 41.25 2.5  28.75 42.5 1.25  28.75 42.5 0  28.75 42.5 2.5  31.25 41.25 1.25  31.25 41.25 0  32.5 41.25 1.25  32.5 41.25 0  32.5 42.5 0  32.5 42.5 1.25  32.5 42.5 2.5  32.5 41.25 2.5  31.25 41.25 2.5  31.25 42.5 1.25  31.25 42.5 0  31.25 42.5 2.5  33.75 41.25 1.25  33.75 41.25 0  35 41.25 1.25  35 41.25 0  35 42.5 0  35 42.5 1.25  35 42.5 2.5  35 41.25 2.5  33.75 41.25 2.5  33.75 42.5 1.25  33.75 42.5 0  33.75 42.5 2.5  36.25 41.25 1.25  36.25 41.25 0  37.5 41.25 1.25  37.5 41.25 0  37.5 42.5 0  37.5 42.5 1.25  37.5 42.5 2.5  37.5 41.25 2.5  36.25 41.25 2.5  36.25 42.5 1.25  36.25 42.5 0  36.25 42.5 2.5  38.75 41.25 1.25  38.75 41.25 0  40 41.25 1.25  40 41.25 0  40 42.5 0  40 42.5 1.25  40 42.5 2.5  40 41.25 2.5  38.75 41.25 2.5  38.75 42.5 1.25  38.75 42.5 0  38.75 42.5 2.5  41.25 41.25 1.25  41.25 41.25 0  42.5 41.25 1.25  42.5 41.25 0  42.5 42.5 0  42.5 42.5 1.25  42.5 42.5 2.5  42.5 41.25 2.5  41.25 41.25 2.5  41.25 42.5 1.25  41.25 42.5 0  41.25 42.5 2.5  45 40 0  45 41.25 1.25  45 41.25 0  43.75 41.25 1.25  43.75 41.25 0  45 42.5 0  45 42.5 1.25  45 42.5 2.5  45 40 2.5  45 41.25 2.5  43.75 41.25 2.5  43.75 40 2.5  43.75 42.5 1.25  43.75 42.5 0  43.75 42.5 2.5  47.5 40 0  47.5 41.25 1.25  47.5 41.25 0  46.25 41.25 1.25  46.25 41.25 0  47.5 42.5 0  47.5 42.5 1.25  47.5 42.5 2.5  47.5 40 2.5  47.5 41.25 2.5  46.25 41.25 2.5  46.25 40 2.5  46.25 42.5 1.25  46.25 42.5 0  46.25 42.5 2.5  50 40 0  50 41.25 1.25  50 41.25 0  48.75 41.25 1.25  48.75 41.25 0  50 42.5 0  50 42.5 1.25  50 42.5 2.5  50 40 1.25  50 40 2.5  50 41.25 2.5  48.75 41.25 2.5  48.75 40 2.5  48.75 42.5 1.25  48.75 42.5 0  48.75 42.5 2.5  26.25 43.75 1.25  26.25 43.75 0  27.5 43.75 1.25  27.5 43.75 0  27.5 45 0  27.5 45 1.25  27.5 45 2.5  27.5 43.75 2.5  26.25 43.75 2.5  26.25 45 1.25  25 45 2.5  26.25 45 2.5  28.75 43.75 1.25  28.75 43.75 0  30 43.75 1.25  30 43.75 0  30 45 0  30 45 1.25  30 45 2.5  30 43.75 2.5  28.75 43.75 2.5  28.75 45 1.25  28.75 45 0  28.75 45 2.5  31.25 43.75 1.25  31.25 43.75 0  32.5 43.75 1.25  32.5 43.75 0  32.5 45 0  32.5 45 1.25  32.5 45 2.5  32.5 43.75 2.5  31.25 43.75 2.5  31.25 45 1.25  31.25 45 0  31.25 45 2.5  33.75 43.75 1.25  33.75 43.75 0  35 43.75 1.25  35 43.75 0  35 45 0  35 45 1.25  35 45 2.5  35 43.75 2.5  33.75 43.75 2.5  33.75 45 1.25  33.75 45 0  33.75 45 2.5  36.25 43.75 1.25  36.25 43.75 0  37.5 43.75 1.25  37.5 43.75 0  37.5 45 0  37.5 45 1.25  37.5 45 2.5  37.5 43.75 2.5  36.25 43.75 2.5  36.25 45 1.25  36.25 45 0  36.25 45 2.5  38.75 43.75 1.25  38.75 43.75 0  40 43.75 1.25  40 43.75 0  40 45 0  40 45 1.25  40 45 2.5  40 43.75 2.5  38.75 43.75 2.5  38.75 45 1.25  38.75 45 0  38.75 45 2.5  41.25 43.75 1.25  41.25 43.75 0  42.5 43.75 1.25  42.5 43.75 0  42.5 45 0  42.5 45 1.25  42.5 45 2.5  42.5 43.75 2.5  41.25 43.75 2.5  41.25 45 1.25  41.25 45 0  41.25 45 2.5  43.75 43.75 1.25  43.75 43.75 0  45 43.75 1.25  45 43.75 0  45 45 0  45 45 1.25  45 45 2.5  45 43.75 2.5  43.75 43.75 2.5  43.75 45 1.25  43.75 45 0  43.75 45 2.5  46.25 43.75 1.25  46.25 43.75 0  47.5 43.75 1.25  47.5 43.75 0  47.5 45 0  47.5 45 1.25  47.5 45 2.5  47.5 43.75 2.5  46.25 43.75 2.5  46.25 45 1.25  46.25 45 0  46.25 45 2.5  48.75 43.75 1.25  48.75 43.75 0  50 43.75 1.25  50 43.75 0  50 45 0  50 45 1.25  50 45 2.5  50 43.75 2.5  48.75 43.75 2.5  48.75 45 1.25  48.75 45 0  48.75 45 2.5  27.5 46.25 1.25  27.5 46.25 0  26.25 46.25 1.25  26.25 46.25 0  27.5 47.5 0  27.5 47.5 1.25  27.5 47.5 2.5  27.5 46.25 2.5  26.25 46.25 2.5  25 47.5 0  26.25 47.5 1.25  26.25 47.5 0  25 46.25 2.5  25 47.5 2.5  26.25 47.5 2.5  28.75 46.25 1.25  28.75 46.25 0  30 46.25 1.25  30 46.25 0  30 47.5 0  30 47.5 1.25  30 47.5 2.5  30 46.25 2.5  28.75 46.25 2.5  28.75 47.5 1.25  28.75 47.5 0  28.75 47.5 2.5  31.25 46.25 1.25  31.25 46.25 0  32.5 46.25 1.25  32.5 46.25 0  32.5 47.5 0  32.5 47.5 1.25  32.5 47.5 2.5  32.5 46.25 2.5  31.25 46.25 2.5  31.25 47.5 1.25  31.25 47.5 0  31.25 47.5 2.5  33.75 46.25 1.25  33.75 46.25 0  35 46.25 1.25  35 46.25 0  35 47.5 0  35 47.5 1.25  35 47.5 2.5  35 46.25 2.5  33.75 46.25 2.5  33.75 47.5 1.25  33.75 47.5 0  33.75 47.5 2.5  36.25 46.25 1.25  36.25 46.25 0  37.5 46.25 1.25  37.5 46.25 0  37.5 47.5 0  37.5 47.5 1.25  37.5 47.5 2.5  37.5 46.25 2.5  36.25 46.25 2.5  36.25 47.5 1.25  36.25 47.5 0  36.25 47.5 2.5  38.75 46.25 1.25  38.75 46.25 0  40 46.25 1.25  40 46.25 0  40 47.5 0  40 47.5 1.25  40 47.5 2.5  40 46.25 2.5  38.75 46.25 2.5  38.75 47.5 1.25  38.75 47.5 0  38.75 47.5 2.5  41.25 46.25 1.25  41.25 46.25 0  42.5 46.25 1.25  42.5 46.25 0  42.5 47.5 0  42.5 47.5 1.25  42.5 47.5 2.5  42.5 46.25 2.5  41.25 46.25 2.5  41.25 47.5 1.25  41.25 47.5 0  41.25 47.5 2.5  43.75 46.25 1.25  43.75 46.25 0  45 46.25 1.25  45 46.25 0  45 47.5 0  45 47.5 1.25  45 47.5 2.5  45 46.25 2.5  43.75 46.25 2.5  43.75 47.5 1.25  43.75 47.5 0  43.75 47.5 2.5  46.25 46.25 1.25  46.25 46.25 0  47.5 46.25 1.25  47.5 46.25 0  47.5 47.5 0  47.5 47.5 1.25  47.5 47.5 2.5  47.5 46.25 2.5  46.25 46.25 2.5  46.25 47.5 1.25  46.25 47.5 0  46.25 47.5 2.5  48.75 46.25 1.25  48.75 46.25 0  50 46.25 1.25  50 46.25 0  50 47.5 0  50 47.5 1.25  50 47.5 2.5  50 46.25 2.5  48.75 46.25 2.5  48.75 47.5 1.25  48.75 47.5 0  48.75 47.5 2.5  26.25 48.75 1.25  26.25 48.75 0  27.5 48.75 1.25  27.5 48.75 0  27.5 50 0  27.5 50 1.25  27.5 50 2.5  27.5 48.75 2.5  26.25 48.75 2.5  26.25 50 1.25  25 48.75 2.5  25 50 2.5  26.25 50 2.5  28.75 48.75 1.25  28.75 48.75 0  30 48.75 1.25  30 48.75 0  30 50 0  30 50 1.25  30 50 2.5  30 48.75 2.5  28.75 48.75 2.5  28.75 50 1.25  28.75 50 0  28.75 50 2.5  31.25 48.75 1.25  31.25 48.75 0  32.5 48.75 1.25  32.5 48.75 0  32.5 50 0  32.5 50 1.25  32.5 50 2.5  32.5 48.75 2.5  31.25 48.75 2.5  31.25 50 1.25  31.25 50 0  31.25 50 2.5  33.75 48.75 1.25  33.75 48.75 0  35 48.75 1.25  35 48.75 0  35 50 0  35 50 1.25  35 50 2.5  35 48.75 2.5  33.75 48.75 2.5  33.75 50 1.25  33.75 50 0  33.75 50 2.5  36.25 48.75 1.25  36.25 48.75 0  37.5 48.75 1.25  37.5 48.75 0  37.5 50 0  37.5 50 1.25  37.5 50 2.5  37.5 48.75 2.5  36.25 48.75 2.5  36.25 50 1.25  36.25 50 0  36.25 50 2.5  38.75 48.75 1.25  38.75 48.75 0  40 48.75 1.25  40 48.75 0  40 50 0  40 50 1.25  40 50 2.5  40 48.75 2.5  38.75 48.75 2.5  38.75 50 1.25  38.75 50 0  38.75 50 2.5  41.25 48.75 1.25  41.25 48.75 0  42.5 48.75 1.25  42.5 48.75 0  42.5 50 0  42.5 50 1.25  42.5 50 2.5  42.5 48.75 2.5  41.25 48.75 2.5  41.25 50 1.25  41.25 50 0  41.25 50 2.5  43.75 48.75 1.25  43.75 48.75 0  45 48.75 1.25  45 48.75 0  45 50 0  45 50 1.25  45 50 2.5  45 48.75 2.5  43.75 48.75 2.5  43.75 50 1.25  43.75 50 0  43.75 50 2.5  46.25 48.75 1.25  46.25 48.75 0  47.5 48.75 1.25  47.5 48.75 0  47.5 50 0  47.5 50 1.25  47.5 50 2.5  47.5 48.75 2.5  46.25 48.75 2.5  46.25 50 1.25  46.25 50 0  46.25 50 2.5  48.75 48.75 1.25  48.75 48.75 0  50 48.75 1.25  50 48.75 0  50 50 0  50 50 1.25  50 50 2.5  50 48.75 2.5  48.75 48.75 2.5  48.75 50 1.25  48.75 50 0  48.75 50 2.5  27.5 37.5 3.75  27.5 36.25 3.75  26.25 36.25 3.75  27.5 37.5 5  27.5 36.25 5  26.25 36.25 5  26.25 37.5 3.75  25 37.5 5  26.25 37.5 5  25 37.5 3.75  30 37.5 3.75  30 36.25 3.75  28.75 36.25 3.75  30 37.5 5  30 36.25 5  28.75 36.25 5  28.75 37.5 3.75  28.75 37.5 5  32.5 37.5 3.75  32.5 36.25 3.75  31.25 36.25 3.75  32.5 37.5 5  32.5 36.25 5  31.25 36.25 5  31.25 37.5 3.75  31.25 37.5 5  33.75 37.5 3.75  33.75 36.25 3.75  35 37.5 3.75  35 37.5 5  33.75 37.5 5  33.75 36
[...]
<PointData  Vectors="u"> 
<DataArray  type="Float64"  Name="u"  NumberOfComponents="3" format="ascii">1.9999999998076231e+02 -5.5886850846737746e-10 1.2465803799542564e-10  1.9999999998056654e+02 8.0063909266318844e-11 -4.3678940979845108e-12  1.9999999998153154e+02 1.7504895980500807e-10 -7.5975807422401145e-12  1.9999999998145452e+02 2.8470026778723272e-11 -9.2942997653894878e-11  1.9999999998074665e+02 -5.4359452335370500e-10 9.4111769068806995e-11  1.9999999998082981e+02 1.3115240826440717e-10 6.7451131679368909e-10  1.9999999998070305e+02 -3.8073741903349929e-11 -9.8565411685988142e-11  1.9999999998049964e+02 -1.7507694045419740e-10 -1.8687685149619768e-10  1.9999999998141956e+02 -9.5144681250019749e-11 -1.4114386781212441e-10  1.9999999998056964e+02 -1.2429966469297908e-10 3.8062492863923865e-11  1.9999999998133595e+02 -2.4704941919894882e-10 -4.3614820349765850e-10  1.9999999998077823e+02 5.9625581323700273e-11 1.7084871911626773e-10  1.9999999998069060e+02 -9.0879937832728703e-11 4.0843051911842168e-11  1.9999999998142044e+02 -1.1845644945012794e-10 -1.6183950495325150e-10  1.9999999998139620e+02 -2.3169566473206352e-10 -1.8887937960801671e-10  1.9999999998147402e+02 -1.3625173503705009e-10 -1.0973537720559130e-11  1.9999999998232283e+02 7.2105849495323310e-11 1.7969323332065936e-10  1.9999999998148289e+02 -5.3094204748090550e-11 5.5750046701155306e-11  1.9999999997916206e+02 1.1024606119464445e-10 6.6601076146780597e-10  1.9999999997903433e+02 -3.2491071450905413e-11 -8.7510660596082541e-11  1.9999999997886044e+02 -1.3456423668556604e-10 -2.0281243120584021e-10  1.9999999997979677e+02 -8.8540529515168848e-11 -1.2732035486868126e-10  1.9999999997902836e+02 -3.4671428406532147e-11 2.0371679075057331e-11  1.9999999997969607e+02 -1.9988334600197938e-10 -4.6068787673900003e-10  1.9999999997913338e+02 9.0489174094294458e-11 1.6182551638380841e-10  1.9999999997902611e+02 -4.5381760809767831e-11 1.7079245306424548e-11  1.9999999997974410e+02 -1.3371893697198777e-10 -1.4518233947625303e-10  1.9999999997976482e+02 -2.1911259529701428e-10 -1.8841017297761188e-10  1.9999999997983383e+02 -9.8102528002569379e-11 1.2587025981638221e-11  1.9999999997987962e+02 -4.7907104500557001e-11 7.9054906921886407e-12  1.9999999997756080e+02 1.2530938369618146e-10 6.5534282051980834e-10  1.9999999997740127e+02 -1.1913662030222034e-11 -1.0852759487584646e-10  1.9999999997724422e+02 -1.2834606691192727e-10 -1.6017846514445114e-10  1.9999999997815047e+02 -9.2732164941074589e-11 -1.5349288750858737e-10  1.9999999997735722e+02 -7.4963159576470376e-11 -8.0844218415200744e-11  1.9999999997800808e+02 -2.4604979583982578e-10 -4.7703166304988069e-10  1.9999999997749890e+02 7.2775874094485832e-11 1.7790329070976434e-10  1.9999999997739474e+02 -7.0506367032496954e-11 1.7459775464884529e-11  1.9999999997815718e+02 -1.0351829940064112e-10 -2.0495652065547533e-10  1.9999999997810627e+02 -1.7648070309979902e-10 -1.8954822334850427e-10  1.9999999997817187e+02 -8.6531138880256135e-11 4.2718302527995580e-11  1.9999999997820200e+02 -1.2865237124414073e-11 1.5420924988586543e-11  1.9999999997592104e+02 1.1159064209106448e-10 6.3832865148914709e-10  1.9999999997580173e+02 -1.0497560220941618e-11 -8.6017067226248500e-11  1.9999999997564134e+02 -1.3819827163331984e-10 -1.8663852575025352e-10  1.9999999997658722e+02 -1.0352485362157749e-10 -1.6508006832760209e-10  1.9999999997574076e+02 -9.0094306001762231e-11 5.6966344329487462e-11  1.9999999997642581e+02 -2.0288754604454859e-10 -4.7855469555122437e-10  1.9999999997592306e+02 7.6624760942448539e-11 1.5925692070206518e-10  1.9999999997653495e+02 -1.8175893457769931e-10 -2.1400385904518492e-10  1.9999999997658406e+02 -1.1445410680302365e-10 -3.6038627486406410e-11  1.9999999997663622e+02 2.0781219850170913e-11 3.1638695787529008e-11  1.9999999997652023e+02 -1.7542267315657742e-10 -1.5776040137464605e-10  1.9999999997487046e+02 -1.7937098407653501e-10 -1.6917081403267553e-10  1.9999999997493572e+02 -9.8579701029552280e-11 -1.2658618707643033e-11  1.9999999997494709e+02 -1.3616512543777399e-10 -1.4988559867000509e-10  1.9999999997482433e+02 -2.2646493585929411e-10 -4.9028503325304622e-10  1.9999999997435469e+02 8.4902617724061722e-11 6.4424381166833226e-10  1.9999999997422003e+02 -7.3716654226409815e-11 -1.0800475533427217e-11  1.9999999997433710e+02 7.1498255391363762e-11 1.5747314382265352e-10  1.9999999997497906e+02 -2.3381051690529994e-11 1.8601145203137636e-11  1.9999999998054886e+02 -1.3078336727693474e-10 -2.4770859577927239e-10  1.9999999998059775e+02 -1.0757360244816468e-10 2.9854481189567244e-11  1.9999999998142849e+02 -8.1679626242626123e-11 -1.3470500382957976e-10  1.9999999998136678e+02 -2.3801600302991253e-10 -4.8259496888812512e-10  1.9999999998081222e+02 1.1936668095613566e-10 6.9480395491593980e-10  1.9999999998067710e+02 -1.1152396881900895e-11 -8.4097592526981341e-11  1.9999999998078752e+02 1.2012592106582664e-10 1.6893913733014947e-10  1.9999999998068597e+02 -7.7908752461647505e-11 6.6807320031585792e-11  1.9999999998139174e+02 -1.1685690153909264e-10 -1.4195402157484697e-10  1.9999999998143028e+02 -1.7028548827843527e-10 -1.8107627014991471e-10  1.9999999998240355e+02 -5.3547973851049966e-12 -3.6850445782271070e-11  1.9999999998229964e+02 1.0772247291488035e-10 1.6780868191653850e-10  1.9999999998147680e+02 -1.9477337043919592e-11 1.1072895842203997e-11  1.9999999997977216e+02 -1.2004837090964175e-10 -1.7822429889635816e-10  1.9999999997969832e+02 -2.3007763219474936e-10 -4.6659544078436096e-10  1.9999999997892360e+02 -1.3446946348544101e-10 -1.9998490583873919e-10  1.9999999997898701e+02 -9.7357546950670670e-11 -7.9064668902537018e-12  1.9999999997918789e+02 1.2242126286141247e-10 6.7090921585786088e-10  1.9999999997906286e+02 -8.6628428631480701e-12 -8.2227942819708585e-11  1.9999999997915913e+02 1.0257764706254958e-10 1.5600668199401997e-10  1.9999999997907256e+02 -6.5089666879539704e-11 8.0673218461050699e-11  1.9999999997978509e+02 -1.2669788030865780e-10 -1.2047418353668255e-10  1.9999999997977051e+02 -1.5940039859581129e-10 -2.0270863476257110e-10  1.9999999997982857e+02 -9.3182120447131153e-11 3.6856241694641564e-11  1.9999999997984386e+02 3.2965033146426404e-12 7.6225543666181419e-11  1.9999999997814908e+02 -9.7549633157406774e-11 -1.6385526078548975e-10  1.9999999997803440e+02 -2.1395314325419282e-10 -4.5760339623942295e-10  1.9999999997723720e+02 -1.1127357892464521e-10 -1.9488966981961232e-10  1.9999999997734670e+02 -5.6680860122986031e-11 -1.7729009595060266e-12  1.9999999997755822e+02 1.0794771492290765e-10 6.6449094156660987e-10  1.9999999997743606e+02 -1.4925502821293689e-11 -7.1564019449290319e-11  1.9999999997750933e+02 9.4266742451873150e-11 1.6050711021571497e-10  1.9999999997742853e+02 1.6889105277076738e-12 3.5836291293114126e-11  1.9999999997812745e+02 -9.7131356666327005e-11 -1.3837173165651591e-10  1.9999999997810647e+02 -1.9885015402899236e-10 -1.8355139537636794e-10  1.9999999997816622e+02 -1.1252887348092077e-10 1.1461226971005435e-11  1.9999999997823639e+02 -1.5722858550875405e-11 6.9663270576395344e-11  1.9999999997657048e+02 -8.0939316585449396e-11 -1.5387010940359547e-10  1.9999999997643306e+02 -2.0914945869608231e-10 -4.8677657663522605e-10  1.9999999997563333e+02 -1.2489534556194817e-10 -1.8584314882998332e-10  1.9999999997576163e+02 -9.5598140269746593e-11 -6.0782735874665910e-12  1.9999999997594358e+02 1.3319788210294156e-10 6.4473280917614084e-10  1.9999999997579451e+02 -4.0604774605561992e-11 -8.5763931737159035e-11  1.9999999997590933e+02 8.4323904900097131e-11 1.5867331982127802e-10  1.9999999997580449e+02 -2.3532014930030703e-11 9.7126583112105585e-12  1.9999999997652804e+02 -8.7108137664023826e-11 -1.5261385896418175e-10  1.9999999997652407e+02 -1.9002596165702003e-10 -1.7733879954197493e-10  1.9999999997659219e+02 -5.8585540832675714e-11 2.0492669535055089e-11  1.9999999997660959e+02 -1.9033660674993898e-11 4.2442901770298548e-11  1.9999999997491383e+02 -5.7313122504016618e-11 -1.4583597434839521e-10  1.9999999997478847e+02 -2.1944788210000227e-10 -4.2278433006292349e-10  1.9999999997404942e+02 -1.0087088118130356e-10 -1.6094170247360063e-10  1.9999999997415523e+02 -3.4316408864066488e-11 1.4805383987053710e-12  1.9999999997433272e+02 1.3322863943556626e-10 6.3180137400111339e-10  1.9999999997421170e+02 -3.6578301396989062e-12 -8.3320230540004203e-11  1.9999999997432374e+02 7.3046987833243531e-11 1.6459062041180248e-10  1.9999999997421409e+02 -3.3167801828354237e-11 6.8358601493522253e-11  1.9999999997492358e+02 -1.0543067430811610e-10 -1.5913668230384680e-10  1.9999999997490579e+02 -1.9663624965010392e-10 -1.9892444157420797e-10  1.9999999997495388e+02 -3.9346252701654358e-11 1.4699931568480135e-11  1.9999999997497403e+02 -7.1413880007987081e-12 5.1415208518045661e-11  1.9999999997280821e+02 7.2907401884634435e-11 6.4985650473429719e-10  1.9999999997266269e+02 -3.9822290357008983e-11 -9.9838500485859604e-11  1.9999999997250515e+02 -9.5911201940608901e-11 -1.9606819401473411e-10  1.9999999997340510e+02 -5.2006138501375582e-11 -1.5512764039473580e-10  1.9999999997278820e+02 9.7459388691761467e-11 1.6912199338888587e-10  1.9999999997266491e+02 -4.6713318222912433e-11 3.3229959621672986e-11  1.9999999997334842e+02 -1.1087883924550217e-10 -1.7163225713286610e-10  1.9999999997329863e+02 -1.9390044379783256e-10 -4.2024380989948102e-10  1.9999999997335124e+02 -2.2775853899557804e-10 -1.7322515903414031e-10  1.9999999997341655e+02 -1.0145799438115928e-10 1.2380657278761493e-11  1.9999999997340686e+02 -3.2965833943538625e-11 3.7932518821224626e-11  1.9999999997177162e+02 -1.5944210961329470e-10 -1.7216593908650890e-10  1.9999999997180743e+02 -1.0239576613565505e-10 4.3361152409668435e-11  1.9999999997180970e+02 -7.4728013803878256e-11 -1.6979331996693616e-10  1.9999999997128356e+02 9.1037764896765416e-11 6.5750058719134586e-10  1.9999999997113900e+02 -1.4970877504042865e-11 -5.4654633674098134e-11  1.9999999997122083e+02 8.9214883838628498e-11 1.5686324462621618e-10  1.9999999997184742e+02 7.6096497034137661e-12 2.3248326316002940e-11  1.9999999997181607e+02 -1.2674981949251257e-10 -1.3152397888278138e-10  1.9999999998053855e+02 -1.0406863639332798e-10 -1.9478558993928937e-10  1.9999999998063529e+02 -2.9977605830641384e-11 -1.9439331694776508e-11  1.9999999998144315e+02 -6.9392035069647015e-11 -1.2744716410321038e-10  1.9999999998134848e+02 -2.2592606075015641e-10 -4.4122541330939475e-10  1.9999999998082149e+02 1.2080918552866853e-10 6.4727048289802898e-10  1.9999999998069387e+02 -1.5814999301030566e-11 -3.9855465100347443e-11  1.9999999998079883e+02 1.1881316077950990e-10 1.6622257857465488e-10  1.9999999998067412e+02 -3.4665845160877078e-11 5.8874854428408404e-11  1.9999999998140200e+02 -1.1684760829131464e-10 -1.3496962636110407e-10  1.9999999998236450e+02 1.2782212627210660e-10 6.7780369824553898e-10  1.9999999998144054e+02 -1.7547946437562618e-10 -2.0978955888096650e-10  1.9999999998149588e+02 -8.6489101197246963e-11 1.0805393378844198e-11  1.9999999998239562e+02 -6.6460533138094365e-11 -3.2392775927346805e-11  1.9999999998232082e+02 1.1870351241650676e-10 2.0901848046047810e-10  1.9999999998148897e+02 -2.0305588832452562e-11 7.6881727341438074e-11  1.9999999997976508e+02 -8.3258433103056428e-11 -1.3970735999489800e-10  1.9999999997965656e+02 -2.1828922417962092e-10 -5.1462231467370000e-10  1.9999999997892650e+02 -1.4742350844340254e-10 -1.8371681723046206e-10  1.9999999997898166e+02 -9.8394607752195681e-11 -9.3927191044122657e-12  1.9999999997919682e+02 1.4037002514314323e-10 6.7460961503101105e-10  1.9999999997907929e+02 2.4459663163006313e-11 -6.9350215585571741e-11  1.9999999997913778e+02 1.0152612327922675e-10 1.7419331977575705e-10  1.9999999997906028e+02 -6.2726606647306199e-11 5.4985105163878006e-11  1.9999999997976343e+02 -1.0564562190197732e-10 -1.6284100764607572e-10  1.9999999997971091e+02 -1.1777356767309625e-10 -1.7484294210228160e-10  1.9999999997977807e+02 -5.4129091705506445e-11 1.6709402897981279e-11  1.9999999997981030e+02 1.5130741346525948e-11 2.1793755838896817e-11  1.9999999997815399e+02 -6.8970071079235570e-11 -1.3277422630980917e-10  1.9999999997803749e+02 -2.0378144357390580e-10 -5.3085603695562721e-10  1.9999999997725158e+02 -1.2872077175022829e-10 -1.6586023502299164e-10  1.9999999997740119e+02 -2.1280005716172415e-11 -9.0014581934204080e-12  1.9999999997755535e+02 1.2446779660492985e-10 6.3517461313715646e-10  1.9999999997742094e+02 6.6984884402035077e-12 -8.2803156477337485e-11  1.9999999997750780e+02 6.5856151472818106e-11 1.5662957731399519e-10  1.9999999997742972e+02 -8.4548989193675952e-12 3.8659834575855102e-11  1.9999999997813723e+02 -1.3524169211367355e-10 -1.7486443269350601e-10  1.9999999997810983e+02 -1.8987861301734054e-10 -2.2037981925995448e-10  1.9999999997819370e+02 -5.5975177211599681e-11 5.7262651704172913e-11  1.9999999997824483e+02 -1.3126259474069528e-11 3.4449593221518282e-11  1.9999999997655860e+02 -7.3441886981790114e-11 -1.7734735078208453e-10  1.9999999997643172e+02 -1.8305440429957505e-10 -4.1137808221571831e-10  1.9999999997564643e+02 -1.2001872060159463e-10 -1.9703904243188816e-10  1.9999999997575765e+02 -6.8841005067016735e-11 1.1659462171670363e-11  1.9999999997590211e+02 1.1278823181968782e-10 6.6080245499873866e-10  1.9999999997581020e+02 3.3347066512391954e-12 -8.4906597074975897e-11  1.9999999997590319e+02 6.1529548463704259e-11 1.3759879391434052e-10  1.9999999997582961e+02 -4.9356120532094114e-11 3.6411658945503798e-11  1.9999999997651787e+02 -1.2120994086118464e-10 -1.3862024188424068e-10  1.9999999997653737e+02 -1.8353228002991497e-10 -2.0287155690891470e-10  1.9999999997659134e+02 -5.7135798307632994e-11 1.2909986512942408e-11  1.9999999997661385e+02 -2.5131304319747401e-11 2.1074355896633706e-11  1.9999999997494700e+02 -7.7978873153324402e-11 -1.5925082931847568e-10  1.9999999997481291e+02 -2.5657627741724789e-10 -4.2421687121875905e-10  1.9999999997402966e+02 -1.4252401114298550e-10 -1.8703265674284674e-10  1.9999999997411896e+02 -3.7453851739968657e-11 -1.3242282865207399e-11  1.9999999997437149e+02 1.2787699734601978e-10 6.5095607826824518e-10  1.9999999997422361e+02 4.5131082573231215e-11 -8.2231366777259898e-11  1.9999999997431615e+02 8.4765253090340274e-11 1.4751184365123508e-10  1.9999999997417169e+02 -8.2744970902240862e-12 1.2449001529072639e-11  1.9999999997491773e+02 -9.4555278049355252e-11 -1.7019068481221600e-10  1.9999999997492466e+02 -1.6454378090979049e-10 -1.8249926597141734e-10  1.9999999997498804e+02 -8.4500680007892942e-11 4.1027915148200720e-11  1.9999999997502400e+02 -5.4316886422259610e-11 1.3296557593126362e-11  1.9999999997338389e+02 -6.4953851841725006e-11 -1.6481866033194017e-10  1.9999999997325409e+02 -1.5841303839211004e-10 -4.1506326479743156e-10  1.9999999997254460e+02 -1.3123214958997395e-10 -1.7421865167374484e-10  1.9999999997258615e+02 -7.1358045679486689e-11 3.1499468902066887e-11  1.9999999997280210e+02 1.4035768244879099e-10 6.6836751037890819e-10  1.9999999997269850e+02 2.3315514840261889e-12 -1.1105894509788299e-10  1.9999999997278084e+02 1.0907935600741303e-10 1.7985407354009000e-10  1.9999999997270325e+02 -5.3656350861125370e-11 3.4025336132919892e-11  1.9999999997337036e+02 -9.6777937556831343e-11 -1.3742920169176575e-10  1.9999999997333197e+02 -1.5189705701195727e-10 -1.8430152665213972e-10  1.9999999997337267e+02 -4.1091700290173404e-11 -2.2777416740106814e-11  1.9999999997341681e+02 1.0485051136188412e-11 3.8950022341824076e-11  1.9999999997181743e+02 -6.9192003251610178e-11 -1.3059762669482937e-10  1.9999999997172361e+02 -1.6935364738292525e-10 -4.2681219228645649e-10  1.9999999997098288e+02 -1.1041439450847815e-10 -1.8375599139342172e-10  1.9999999997107528e+02 -3.1706824939374242e-11 3.0806846419899093e-11  1.9999999997125826e+02 1.3677665671064444e-10 6.3649180755437914e-10  1.9999999997113039e+02 3.2585473484912369e-12 -7.7741524355185186e-11  1.9999999997120193e+02 1.0628362703891597e-10 1.5967298496850553e-10  1.9999999997113017e+02 -2.2696694980990305e-11 3.3544049691157481e-11  1.9999999997179228e+02 -1.0929174581233906e-10 -1.6311792462481593e-10  1.9999999997177784e+02 -1.5364491872153402e-10 -1.7618978878304233e-10  1.9999999997187845e+02 -5.0234528541214071e-11 2.3650973743399395e-11  1.9999999997190395e+02 -2.2945715256534658e-11 2.8566400496170753e-11  1.9999999996972974e+02 1.1988700712886067e-10 6.7254900929915536e-10  1.9999999996944828e+02 -1.2525407652966069e-10 -2.2662675895904067e-10  1.9999999996953198e+02 -4.9981970828955062e-11 4.4028884465098666e-11  1.9999999997032464e+02 -8.4394078135068042e-11 -1.7236645625706728e-10  1.9999999997021956e+02 -1.9083508754641005e-10 -4.8259554721304457e-10  1.9999999996973924e+02 1.1702612699507941e-10 6.4475851143826477e-10  1.9999999996961105e+02 -1.2212392979153891e-12 -7.9257362322823773e-11  1.9999999996971346e+02 1.0698102564659015e-10 1.3563036049429486e-10  1.9999999996969356e+02 8.1519998234632798e-11 1.2462150170189776e-10  1.9999999996962265e+02 -2.7080396541212963e-11 4.1772590498301618e-11  1.9999999997024682e+02 -1.3809114500573499e-10 -1.4818863639752178e-10  1.9999999997037298e+02 1.2566260977447526e-11 1.1960379169971280e-11  1.9999999997027695e+02 -1.5381797420300685e-10 -2.0130226903207680e-10  1.9999999997032518e+02 -7.2563060872243075e-11 3.2867311947994171e-11  1.9999999997038864e+02 2.2911253722047951e-11 4.2922612169892656e-11  1.9999999996821558e+02 1.0204481021379972e-10 5.9317743669899058e-10  1.9999999996798812e+02 -9.6253459028729098e-11 -1.7859855311205037e-10  1.9999999996805582e+02 -4.4324038759262803e-11 4.9664379070755010e-13  1.9999999996877349e+02 -8.0152896082003307e-11 -1.6201124448966400e-10  1.9999999996868434e+02 -1.6225335496565178e-10 -4.5424931084440741e-10  1.9999999996819443e+02 1.1280168300622409e-10 5.7327170411313249e-10  1.9999999996811039e+02 -1.5169167225190110e-11 -9.0552704864443015e-11  1.9999999996817354e+02 9.3553951902861851e-11 1.3196838460396885e-10  1.9999999996819108e+02 4.6154123379208530e-11 1.5276153519513306e-10  1.9999999996813477e+02 -2.1128114015859895e-11 2.7328613989541434e-11  1.9999999996876653e+02 -9.1155014456570665e-11 -1.9313218164442746e-10  1.9999999996889150e+02 -4.1357823698259897e-11 2.4785310092914099e-11  1.9999999996873666e+02 -1.5145236107342729e-10 -1.7875453556250633e-10  1.9999999996881488e+02 -7.4646568257553558e-11 -7.4049841564662790e-12  1.9999999996881428e+02 3.3411573693416849e-11 1.8017574573023703e-11  1.9999999996663686e+02 3.9581739760841654e-11 2.9097923159364166e-10  1.9999999996632843e+02 6.5401823030390351e-12 -1.4543430387648583e-11  1.9999999996644274e+02 1.6914281476635027e-12 -1.0053823989898000e-10  1.9999999996735465e+02 -8.3597108485079519e-11 -1.4307847124441731e-10  1.9999999996725941e+02 -1.7523827352621297e-10 -3.7031622837872168e-10  1.9999999996661185e+02 3.1188391778362183e-11 2.9843241100046477e-10  1.9999999996644232e+02 -1.5288065936736575e-11 -3.6175625906282013e-11  1.9999999996659761e+02 2.4479665463726395e-11 5.7479097994955918e-11  1.9999999996648251e+02 3.3056135328486286e-12 -2.2269688782530672e-11  1.9999999996660785e+02 3.1364748932620604e-11 6.2728032246030450e-11  1.9999999996641384e+02 -1.0580247621808520e-11 6.9121993395194003e-12  1.9999999996733411e+02 -1.0720969009112480e-10 -1.5551943605182533e-10  1.9999999996738890e+02 -1.5977138167010381e-11 3.5128922258496110e-11  1.9999999996733851e+02 -2.0259696614689525e-10 -1.6756589815172950e-10  1.9999999996739177e+02 -1.0230166365319569e-10 3.6922241427947829e-12  1.9999999996738563e+02 -5.6908666420366301e-12 6.0249405718182848e-12  1.9999999998145893e+02 -4.9341930200419979e-11 -1.1767007880736690e-10  1.9999999998134601e+02 -2.2819330230212391e-10 -4.4308334886038920e-10  1.9999999998053187e+02 -1.2043465675753605e-10 -1.7761469972254133e-10  1.9999999998066360e+02 -6.5000231937643985e-11 -5.5883141932684014e-12  1.9999999998082598e+02 1.1717960987380610e-10 6.5234103547468483e-10  1.99999999980