<?xml version="1.0"?>
<VTKFile type="UnstructuredGrid"  version="0.1"  >
<UnstructuredGrid>
<Piece  NumberOfPoints="3917" NumberOfCells="19156">
<Points>
<DataArray  type="Float64"  NumberOfComponents="3"  format="ascii">25 27.5 35  26.25 28.75 35  25 28.75 35  26.25 28.75 33.75  25 30 35  26.25 30 35  27.5 30 35  25 28.75 36.25  23.75 28.75 36.25  25 30 36.25  25 30 37.5  25 27.5 36.25  25 27.5 37.5  25 28.75 37.5  26.25 28.75 36.25  26.25 30 36.25  27.5 30 36.25  27.5 30 37.5  26.25 28.75 37.5  26.25 30 37.5  26.25 31.25 36.25  27.5 31.25 36.25  27.5 31.25 37.5  27.5 32.5 37.5  26.25 31.25 37.5  25 32.5 37.5  26.25 32.5 37.5  25 32.5 35  26.25 32.5 36.25  25 32.5 36.25  26.25 33.75 36.25  26.25 33.75 37.5  26.25 28.75 38.75  26.25 30 38.75  27.5 30 38.75  27.5 30 40  25 27.5 40  26.25 28.75 40  25 28.75 40  25 30 40  26.25 30 40  25 30 38.75  26.25 31.25 38.75  27.5 31.25 38.75  27.5 32.5 38.75  27.5 32.5 40  27.5 31.25 40  26.25 31.25 40  26.25 32.5 38.75  26.25 33.75 38.75  27.5 33.75 38.75  27.5 33.75 40  27.5 35 40  26.25 33.75 40  26.25 28.75 41.25  26.25 30 41.25  27.5 30 41.25  27.5 30 42.5  25 27.5 42.5  26.25 28.75 42.5  25 28.75 42.5  25 30 42.5  26.25 30 42.5  25 30 41.25  26.25 31.25 41.25  27.5 31.25 41.25  27.5 32.5 41.25  27.5 32.5 42.5  27.5 31.25 42.5  26.25 31.25 42.5  26.25 32.5 41.25  27.5 33.75 41.25  26.25 33.75 41.25  27.5 35 41.25  27.5 35 42.5  27.5 33.75 42.5  26.25 33.75 42.5  26.25 35 41.25  27.5 36.25 41.25  27.5 36.25 40  26.25 36.25 41.25  27.5 37.5 40  27.5 37.5 41.25  27.5 37.5 42.5  27.5 36.25 42.5  26.25 36.25 42.5  26.25 37.5 41.25  26.25 38.75 41.25  27.5 38.75 41.25  25 28.75 43.75  23.75 28.75 43.75  25 30 43.75  25 30 45  25 27.5 43.75  25 27.5 45  25 28.75 45  26.25 28.75 43.75  26.25 30 43.75  27.5 30 43.75  27.5 30 45  26.25 28.75 45  26.25 30 45  26.25 31.25 43.75  27.5 31.25 43.75  27.5 32.5 43.75  27.5 32.5 45  27.5 31.25 45  26.25 31.25 45  26.25 32.5 43.75  25 31.25 45  25 32.5 45  26.25 32.5 45  27.5 33.75 43.75  26.25 33.75 43.75  27.5 35 43.75  27.5 35 45  27.5 33.75 45  26.25 33.75 45  26.25 35 43.75  26.25 35 45  27.5 36.25 43.75  26.25 36.25 43.75  27.5 37.5 43.75  27.5 37.5 45  27.5 36.25 45  26.25 36.25 45  26.25 28.75 46.25  26.25 30 46.25  27.5 30 46.25  27.5 30 47.5  25 28.75 46.25  25 27.5 46.25  25 27.5 47.5  26.25 28.75 47.5  25 28.75 47.5  25 30 47.5  26.25 30 47.5  25 30 46.25  26.25 31.25 46.25  27.5 31.25 46.25  27.5 32.5 46.25  27.5 32.5 47.5  27.5 31.25 47.5  26.25 31.25 47.5  26.25 32.5 46.25  26.25 33.75 46.25  27.5 33.75 46.25  27.5 35 46.25  27.5 35 47.5  27.5 33.75 47.5  26.25 33.75 47.5  26.25 35 46.25  25 35 47.5  26.25 35 47.5  27.5 36.25 46.25  26.25 36.25 46.25  27.5 37.5 46.25  27.5 37.5 47.5  27.5 36.25 47.5  26.25 36.25 47.5  26.25 37.5 46.25  27.5 38.75 46.25  27.5 38.75 45  26.25 38.75 46.25  27.5 40 45  27.5 40 46.25  27.5 40 47.5  27.5 38.75 47.5  26.25 38.75 47.5  25 28.75 48.75  23.75 28.75 48.75  25 30 48.75  25 30 50  26.25 28.75 48.75  26.25 30 48.75  27.5 30 48.75  27.5 30 50  26.25 30 50  26.25 31.25 48.75  27.5 31.25 48.75  27.5 32.5 48.75  27.5 32.5 50  27.5 31.25 50  26.25 31.25 50  26.25 32.5 48.75  26.25 32.5 50  27.5 33.75 48.75  26.25 33.75 48.75  27.5 35 48.75  27.5 35 50  27.5 33.75 50  26.25 33.75 50  26.25 35 48.75  26.25 35 50  26.25 36.25 48.75  27.5 36.25 48.75  27.5 37.5 48.75  27.5 37.5 50  27.5 36.25 50  26.25 36.25 50  26.25 37.5 48.75  27.5 38.75 48.75  26.25 38.75 48.75  27.5 40 48.75  27.5 40 50  27.5 38.75 50  25 22.5 37.5  26.25 22.5 38.75  26.25 22.5 37.5  26.25 21.25 38.75  27.5 22.5 37.5  27.5 22.5 38.75  27.5 22.5 40  25 22.5 38.75  25 22.5 40  26.25 22.5 40  25 23.75 38.75  25 23.75 37.5  23.75 23.75 38.75  23.75 23.75 37.5  25 25 37.5  25 25 38.75  25 25 40  25 23.75 40  26.25 23.75 38.75  26.25 23.75 37.5  27.5 23.75 38.75  27.5 23.75 37.5  27.5 25 37.5  27.5 25 38.75  27.5 25 40  27.5 23.75 40  26.25 23.75 40  26.25 25 38.75  26.25 25 37.5  26.25 25 40  26.25 26.25 38.75  26.25 26.25 37.5  27.5 26.25 38.75  27.5 26.25 37.5  27.5 27.5 37.5  27.5 27.5 38.75  27.5 27.5 40  27.5 26.25 40  26.25 26.25 40  25 26.25 37.5  26.25 27.5 38.75  26.25 27.5 37.5  25 26.25 38.75  25 26.25 40  26.25 27.5 40  25 27.5 38.75  27.5 28.75 38.75  27.5 28.75 40  27.5 22.5 41.25  27.5 21.25 41.25  26.25 21.25 41.25  27.5 22.5 42.5  27.5 20 42.5  27.5 21.25 42.5  25 20 42.5  26.25 21.25 42.5  26.25 20 42.5  26.25 22.5 41.25  25 22.5 42.5  26.25 22.5 42.5  25 22.5 41.25  26.25 23.75 41.25  27.5 23.75 41.25  27.5 25 41.25  27.5 25 42.5  27.5 23.75 42.5  26.25 23.75 42.5  26.25 25 41.25  25 23.75 41.25  25 23.75 42.5  25 25 42.5  26.25 25 42.5  25 25 41.25  26.25 26.25 41.25  27.5 26.25 41.25  27.5 27.5 41.25  27.5 27.5 42.5  27.5 26.25 42.5  26.25 26.25 42.5  26.25 27.5 41.25  25 26.25 42.5  26.25 27.5 42.5  25 27.5 41.25  27.5 28.75 41.25  27.5 28.75 42.5  26.25 21.25 43.75  27.5 21.25 43.75  27.5 22.5 43.75  27.5 22.5 45  26.25 20 43.75  27.5 20 43.75  27.5 20 45  27.5 21.25 45  25 20 45  26.25 21.25 45  26.25 20 45  26.25 22.5 43.75  25 22.5 45  26.25 22.5 45  26.25 23.75 43.75  27.5 23.75 43.75  27.5 25 43.75  27.5 25 45  27.5 23.75 45  26.25 23.75 45  26.25 25 43.75  25 25 45  26.25 25 45  25 25 43.75  25 26.25 43.75  23.75 26.25 43.75  25 26.25 45  26.25 26.25 43.75  27.5 26.25 43.75  27.5 27.5 43.75  27.5 27.5 45  27.5 26.25 45  26.25 26.25 45  26.25 27.5 43.75  26.25 27.5 45  27.5 28.75 43.75  27.5 28.75 45  27.5 20 46.25  27.5 18.75 46.25  26.25 18.75 46.25  27.5 20 47.5  27.5 17.5 47.5  27.5 18.75 47.5  26.25 18.75 47.5  26.25 20 46.25  25 20 47.5  26.25 20 47.5  26.25 21.25 46.25  27.5 21.25 46.25  27.5 22.5 46.25  27.5 22.5 47.5  27.5 21.25 47.5  26.25 21.25 47.5  26.25 22.5 46.25  25 21.25 47.5  25 22.5 47.5  26.25 22.5 47.5  25 22.5 46.25  26.25 23.75 46.25  27.5 23.75 46.25  27.5 25 46.25  27.5 25 47.5  27.5 23.75 47.5  26.25 23.75 47.5  26.25 25 46.25  25 23.75 47.5  25 25 47.5  26.25 25 47.5  25 25 46.25  26.25 26.25 46.25  27.5 26.25 46.25  27.5 27.5 46.25  27.5 27.5 47.5  27.5 26.25 47.5  26.25 26.25 47.5  26.25 27.5 46.25  25 26.25 46.25  25 26.25 47.5  26.25 27.5 47.5  27.5 28.75 46.25  27.5 28.75 47.5  27.5 18.75 48.75  26.25 18.75 48.75  27.5 20 48.75  27.5 20 50  27.5 17.5 50  27.5 18.75 50  26.25 18.75 50  26.25 20 48.75  25 20 50  26.25 20 50  26.25 21.25 48.75  27.5 21.25 48.75  27.5 22.5 48.75  27.5 22.5 50  27.5 21.25 50  26.25 21.25 50  26.25 22.5 48.75  25 22.5 50  26.25 22.5 50  25 22.5 48.75  26.25 23.75 48.75  27.5 23.75 48.75  27.5 25 48.75  27.5 25 50  27.5 23.75 50  26.25 23.75 50  26.25 25 48.75  25 25 50  26.25 25 50  25 25 48.75  25 26.25 48.75  23.75 26.25 48.75  25 27.5 48.75  25 27.5 50  25 26.25 50  26.25 26.25 48.75  27.5 26.25 48.75  27.5 27.5 48.75  27.5 27.5 50  27.5 26.25 50  26.25 26.25 50  26.25 27.5 48.75  26.25 27.5 50  25 28.75 50  27.5 28.75 48.75  27.5 28.75 50  26.25 28.75 50  25 22.5 35  25 23.75 35  25 23.75 33.75  23.75 23.75 33.75  25 25 35  23.75 23.75 35  27.5 22.5 35  27.5 23.75 35  26.25 23.75 35  26.25 23.75 33.75  27.5 25 35  26.25 25 35  25 25 32.5  26.25 25 33.75  25 25 33.75  25 26.25 33.75  25 26.25 32.5  23.75 26.25 33.75  25 27.5 32.5  25 27.5 33.75  25 26.25 35  26.25 26.25 33.75  26.25 26.25 35  27.5 26.25 35  27.5 27.5 35  26.25 27.5 35  26.25 27.5 33.75  27.5 28.75 35  25 23.75 36.25  23.75 23.75 36.25  25 25 36.25  23.75 25 36.25  27.5 23.75 36.25  26.25 23.75 36.25  27.5 25 36.25  26.25 25 36.25  25 26.25 36.25  23.75 26.25 36.25  26.25 26.25 36.25  27.5 26.25 36.25  27.5 27.5 36.25  26.25 27.5 36.25  27.5 28.75 36.25  27.5 28.75 37.5  27.5 22.5 32.5  27.5 23.75 32.5  27.5 23.75 31.25  26.25 23.75 31.25  27.5 25 32.5  26.25 23.75 32.5  26.25 25 32.5  26.25 25 31.25  30 22.5 32.5  30 23.75 32.5  30 23.75 31.25  28.75 23.75 31.25  30 25 32.5  28.75 23.75 32.5  28.75 25 32.5  31.25 23.75 32.5  31.25 22.5 32.5  31.25 23.75 31.25  32.5 22.5 32.5  32.5 23.75 32.5  32.5 25 32.5  31.25 25 32.5  32.5 22.5 30  33.75 23.75 31.25  33.75 22.5 31.25  33.75 22.5 30  35 22.5 30  35 23.75 31.25  35 22.5 31.25  35 22.5 32.5  35 23.75 32.5  35 25 32.5  32.5 22.5 31.25  33.75 23.75 32.5  33.75 22.5 32.5  33.75 25 32.5  36.25 23.75 31.25  36.25 22.5 31.25  36.25 22.5 30  37.5 22.5 30  37.5 23.75 31.25  37.5 22.5 31.25  37.5 22.5 32.5  37.5 23.75 32.5  37.5 25 32.5  36.25 23.75 32.5  36.25 22.5 32.5  36.25 25 32.5  38.75 23.75 31.25  38.75 22.5 31.25  38.75 22.5 30  40 22.5 30  40 23.75 31.25  40 22.5 31.25  40 22.5 32.5  40 23.75 32.5  40 25 32.5  38.75 23.75 32.5  38.75 22.5 32.5  38.75 25 32.5  41.25 23.75 31.25  41.25 23.75 32.5  41.25 25 32.5  42.5 25 32.5  26.25 26.25 32.5  26.25 26.25 31.25  32.5 22.5 33.75  32.5 21.25 33.75  31.25 21.25 33.75  32.5 22.5 35  32.5 20 35  32.5 21.25 35  31.25 21.25 35  31.25 22.5 33.75  30 22.5 35  31.25 22.5 35  30 22.5 33.75  33.75 22.5 33.75  33.75 21.25 33.75  33.75 21.25 32.5  35 22.5 33.75  35 22.5 35  33.75 21.25 35  33.75 22.5 35  27.5 23.75 33.75  27.5 25 33.75  30 23.75 33.75  28.75 23.75 33.75  30 25 33.75  30 25 35  30 23.75 35  28.75 23.75 35  28.75 25 33.75  28.75 25 35  31.25 23.75 33.75  32.5 23.75 33.75  32.5 25 33.75  32.5 25 35  32.5 23.75 35  31.25 23.75 35  31.25 25 33.75  31.25 25 35  33.75 23.75 33.75  35 23.75 33.75  35 25 33.75  35 25 35  35 23.75 35  33.75 23.75 35  33.75 25 33.75  33.75 25 35  36.25 23.75 33.75  37.5 23.75 33.75  37.5 25 33.75  37.5 25 35  36.25 22.5 33.75  37.5 22.5 33.75  37.5 22.5 35  37.5 23.75 35  36.25 23.75 35  36.25 22.5 35  36.25 25 33.75  36.25 25 35  38.75 23.75 33.75  40 23.75 33.75  40 25 33.75  40 25 35  38.75 22.5 33.75  40 22.5 33.75  40 22.5 35  40 23.75 35  38.75 23.75 35  38.75 22.5 35  38.75 25 33.75  38.75 25 35  41.25 23.75 33.75  41.25 22.5 32.5  42.5 22.5 32.5  42.5 23.75 33.75  42.5 23.75 32.5  42.5 25 33.75  42.5 25 35  41.25 22.5 33.75  42.5 22.5 33.75  42.5 22.5 35  42.5 23.75 35  41.25 23.75 35  41.25 22.5 35  41.25 25 33.75  41.25 25 35  43.75 23.75 33.75  43.75 22.5 33.75  43.75 23.75 35  43.75 22.5 35  45 22.5 35  45 23.75 35  45 25 35  43.75 2
[...]
<PointData  Vectors="u"> 
<DataArray  type="Float64"  Name="u"  NumberOfComponents="3" format="ascii">1.9999999998240921e+02 -6.9261162914520960e-11 5.4965638957896482e-11  1.9999999998140862e+02 2.1134581798142059e-11 -2.2762495064952544e-10  1.9999999998233324e+02 9.5261145809838733e-12 -3.0384698513163569e-11  1.9999999998144364e+02 3.6155777432247500e-11 -6.0335959521819285e-11  1.9999999998248106e+02 -1.4931892039938730e-11 8.1026212072788018e-11  1.9999999998147112e+02 3.0378212842580325e-13 -1.0043241201667648e-10  1.9999999998077254e+02 3.7468348556962469e-11 4.7391061709446758e-11  1.9999999998218863e+02 2.6474732844839195e-11 -1.8938706425319292e-10  1.9999999998308974e+02 -3.8760468728257472e-11 -1.2764151093302891e-10  1.9999999998229850e+02 -8.7272821626480100e-12 -1.2024894463977231e-10  1.9999999998248964e+02 -3.7785649100679036e-11 1.2289794546745210e-10  1.9999999998225417e+02 1.8134680259888154e-11 3.0295415289348073e-11  1.9999999998243493e+02 -9.8756063069474873e-11 2.7443064709722273e-11  1.9999999998237155e+02 -3.6545937283555929e-12 3.6220066735831818e-11  1.9999999998145057e+02 5.0516144012595992e-12 -1.0059990543333455e-10  1.9999999998133885e+02 -2.7310014200740235e-11 -2.5941522310542868e-10  1.9999999998058973e+02 3.6343624029670799e-11 -5.0065606651845146e-11  1.9999999998081847e+02 3.6830124206805155e-11 8.6622043415763068e-11  1.9999999998146674e+02 -1.7689411091389539e-11 -2.4866868841396440e-10  1.9999999998151665e+02 -2.2188692743469580e-11 -6.5865472671177384e-11  1.9999999998144941e+02 -8.1161172742822341e-11 -1.1299520406399967e-10  1.9999999998056091e+02 -8.0566799510556831e-11 -1.2051769137526900e-10  1.9999999998068333e+02 3.3640852149836169e-11 2.1093574860771186e-11  1.9999999998083757e+02 9.8109001310255217e-11 9.5697425999055803e-11  1.9999999998143429e+02 -2.5703010717746435e-11 -1.9669810648422712e-10  1.9999999998242907e+02 9.5781338642271884e-11 1.0157310033483034e-10  1.9999999998153501e+02 -4.3488073982009795e-12 -2.4526327342984981e-11  1.9999999998245252e+02 8.7354279393806300e-11 7.2977057588491253e-11  1.9999999998145111e+02 -2.1829760580936518e-10 -1.2857752255146939e-10  1.9999999998232221e+02 -1.9076816057953573e-11 -6.4349954545008719e-11  1.9999999998143716e+02 -1.0432016886266269e-10 -8.5991220552951407e-11  1.9999999998148093e+02 -1.1063598700832437e-10 -1.3768654606111066e-10  1.9999999998140919e+02 1.7266464932140006e-12 -8.8694887531520389e-11  1.9999999998132188e+02 -8.8296162414896249e-12 -1.7958192533939986e-10  1.9999999998065607e+02 1.0043486445944405e-10 -2.9869157110550596e-11  1.9999999998080804e+02 3.8220193263377732e-11 1.3024944035096167e-10  1.9999999998247856e+02 -8.3132484619205913e-11 5.0086162953592518e-11  1.9999999998143289e+02 6.7871742517309040e-11 -1.7302459061874678e-10  1.9999999998242453e+02 -1.3702276970401285e-11 -8.5292495202881360e-12  1.9999999998252895e+02 1.6361103755517402e-11 1.2864142244147719e-10  1.9999999998150321e+02 -1.1346008607539210e-11 -3.7308917233831933e-11  1.9999999998231877e+02 -4.1737707070831221e-11 -4.0737855318019418e-11  1.9999999998147666e+02 -6.2413295398065060e-11 -6.3169519353309558e-11  1.9999999998054722e+02 -7.2542508384000998e-11 -1.2390135474016636e-10  1.9999999998064277e+02 1.8042551511245400e-11 -1.4887795668170181e-11  1.9999999998081455e+02 8.3151789698210951e-11 7.7924598134809701e-11  1.9999999998063581e+02 2.0890986485324048e-11 1.3129671961033252e-11  1.9999999998143647e+02 -8.7868942331373994e-11 -1.6990438901350752e-10  1.9999999998145680e+02 -1.8231543720301834e-10 -8.1920497840984327e-11  1.9999999998147095e+02 -8.8582664439402082e-11 -9.1955192403504921e-11  1.9999999998058553e+02 -1.1230610967467928e-10 -1.1114545935653501e-10  1.9999999998064254e+02 -2.2055802239640126e-11 -3.3032996667701928e-11  1.9999999998081290e+02 7.6681824970546684e-11 6.9099061894367796e-11  1.9999999998144793e+02 -1.1586957671067429e-10 -1.8693117953076174e-10  1.9999999998146734e+02 9.2449821671810540e-12 -1.0605000814900436e-10  1.9999999998134379e+02 4.8230121578881935e-12 -2.4023066293526338e-10  1.9999999998063095e+02 4.3924821101581236e-11 -1.5372095809555748e-11  1.9999999998083948e+02 2.1986199650176223e-11 9.7269295255832854e-11  1.9999999998248239e+02 -7.4064356356242386e-11 8.2238763678952337e-11  1.9999999998148650e+02 2.0320778946145574e-11 -1.8878104107613318e-10  1.9999999998240747e+02 -2.2027618557535319e-11 -1.1714270363300853e-11  1.9999999998252486e+02 4.6043754625138634e-12 1.0289519832809945e-10  1.9999999998150568e+02 -8.5408981302278697e-12 -8.3483394477216083e-11  1.9999999998232533e+02 -4.2516081374981540e-11 -5.4621511960196135e-11  1.9999999998148425e+02 -9.0502805625513315e-11 -9.2904435730228148e-11  1.9999999998059243e+02 -9.2985267420882041e-11 -1.1975356126986039e-10  1.9999999998064948e+02 8.6974966096874099e-12 -1.6377576525071359e-11  1.9999999998082490e+02 8.6665503631125228e-11 6.6204708593167810e-11  1.9999999998066320e+02 2.8388680488060319e-12 -2.9453525010326211e-11  1.9999999998143156e+02 -5.8463574184817862e-11 -2.1723774597100152e-10  1.9999999998143659e+02 -1.8929910784773387e-10 -9.5139896099902453e-11  1.9999999998062924e+02 -1.3399278755173012e-10 -1.0701648761033620e-10  1.9999999998143639e+02 -1.0082284385356908e-10 -9.8095688507672893e-11  1.9999999998062140e+02 -9.7587056069266226e-12 -2.1729484974665654e-11  1.9999999998083604e+02 8.0727270616188942e-11 6.0675447272649748e-11  1.9999999998061494e+02 -3.7427858851030470e-11 -2.3944260857123294e-11  1.9999999998144818e+02 -1.4171848107216055e-10 -1.4408196950495359e-10  1.9999999998144591e+02 -1.4561475415793330e-10 -1.2923851756270673e-10  1.9999999998055611e+02 -1.3264499351997569e-10 -1.4810834882886863e-10  1.9999999998062285e+02 1.5931450466412448e-11 1.0224161057011795e-11  1.9999999998146077e+02 -9.9013263998949816e-11 -1.1323184505136967e-10  1.9999999998081108e+02 4.3412243609591345e-11 1.0233403272419628e-10  1.9999999998058848e+02 -6.5541876785693019e-12 -7.7378635307802064e-11  1.9999999998076845e+02 7.0334525920776563e-11 1.0682548076488147e-10  1.9999999998059829e+02 -5.8285529363075211e-11 -1.7660913907905622e-11  1.9999999998143983e+02 -8.3017826860840621e-11 -1.4083259845259330e-10  1.9999999998143900e+02 -2.2620770049985387e-10 -9.3127159718545432e-11  1.9999999998143048e+02 -7.4215478853426217e-11 -1.1279987802676302e-10  1.9999999998057677e+02 -1.1208532639978244e-10 -1.3970222402149761e-10  1.9999999998223655e+02 5.4463805501132076e-11 -1.0818440045832433e-10  1.9999999998311131e+02 -2.4500675123951504e-11 -5.7051168693395937e-11  1.9999999998231502e+02 -9.9430952157189067e-12 -7.4716542876729748e-11  1.9999999998250578e+02 4.8288119138968049e-12 1.5276134246577799e-10  1.9999999998227094e+02 1.0894784635241423e-10 -1.1424150133174850e-11  1.9999999998243453e+02 -8.4625644925569108e-11 7.7595309052904632e-11  1.9999999998237539e+02 1.7684870551953538e-11 -6.6017288780220783e-12  1.9999999998146961e+02 2.3097355314560138e-11 -1.0692195608566004e-10  1.9999999998136479e+02 -5.9887865888637846e-11 -2.0707005842810527e-10  1.9999999998065181e+02 2.7002621275179710e-11 -2.8429615197517450e-11  1.9999999998083959e+02 4.9103439836546751e-11 9.5165265264953000e-11  1.9999999998138929e+02 4.4903178683874079e-11 -1.9332206570433590e-10  1.9999999998145654e+02 1.8439932413664021e-12 -4.8329131935292639e-11  1.9999999998147283e+02 -7.9890148500636735e-11 -8.1508439398109991e-11  1.9999999998063117e+02 -1.2518097781635813e-10 -1.4010126068527441e-10  1.9999999998063026e+02 2.2099913891887712e-11 1.3886020017168335e-11  1.9999999998084388e+02 8.5480753784992644e-11 9.6938960981153599e-11  1.9999999998062296e+02 6.3326102340978479e-12 2.1003782432799438e-11  1.9999999998143502e+02 -6.9669020450129168e-11 -1.4744658167971127e-10  1.9999999998144017e+02 -1.2188787634922055e-10 -1.3160666028474965e-10  1.9999999998233679e+02 -1.1947291652637344e-11 2.7017438037696290e-11  1.9999999998247259e+02 6.0236118926650476e-11 7.8169493134351785e-11  1.9999999998149772e+02 -3.7994137455605646e-11 3.8069286192868261e-11  1.9999999998057956e+02 -1.6172283254615884e-10 -1.2207214685084334e-10  1.9999999998145663e+02 -1.2184154704084634e-10 -1.4484549143354732e-10  1.9999999998060383e+02 9.2148746669551679e-12 1.0946681515905926e-11  1.9999999998080492e+02 8.8607514057734251e-11 7.7701375529202626e-11  1.9999999998066244e+02 -4.7958038548558368e-11 -2.7701023326741833e-12  1.9999999998142329e+02 -1.3767823861355167e-10 -1.5487775065506947e-10  1.9999999998145174e+02 -1.3303710145104144e-10 -1.1281421350809641e-10  1.9999999998151088e+02 5.8631285171454618e-11 -4.1007673212303856e-11  1.9999999998053792e+02 -1.4410670074209339e-10 -1.1404751139812715e-10  1.9999999998145469e+02 -7.9148229665404685e-11 -1.0732850577020396e-10  1.9999999998058897e+02 1.3640628392041476e-11 -3.5947014842886741e-11  1.9999999998077689e+02 7.1327973705888302e-11 1.1055096752227928e-10  1.9999999998059809e+02 -2.1337938759695667e-11 -4.8142988637738900e-12  1.9999999998142937e+02 -1.2475249574694128e-10 -1.7499522314853287e-10  1.9999999998145034e+02 3.1840288476830644e-11 -1.0791996229418077e-10  1.9999999998132546e+02 2.7953835420804854e-11 -1.9627108261417889e-10  1.9999999998064226e+02 4.3988613720410448e-11 -4.9297701333435126e-11  1.9999999998082322e+02 4.5407688286122489e-11 5.8419883671116828e-11  1.9999999998221600e+02 1.2157944159814124e-10 -1.4613797721945067e-10  1.9999999998226636e+02 9.9012216957263839e-11 -5.0884122795392415e-11  1.9999999998241935e+02 -6.0104194123808422e-11 4.0781674192437919e-11  1.9999999998143039e+02 3.8695392287170279e-11 -1.6593627803095616e-10  1.9999999998239576e+02 4.8245729800226000e-11 -4.2699432320067478e-12  1.9999999998250431e+02 1.5119948845788330e-12 5.5974694682055713e-11  1.9999999998146666e+02 1.7296533634253035e-11 -7.5578028932134566e-11  1.9999999998231121e+02 -1.5498740456634722e-11 -3.6323072544597950e-11  1.9999999998144401e+02 -5.9754590701462847e-11 -8.1529481936455559e-11  1.9999999998058451e+02 -9.6242123598485917e-11 -1.3916373280853523e-10  1.9999999998062037e+02 2.9292158257740112e-12 -3.6595387681278672e-11  1.9999999998082143e+02 8.7640825132643373e-11 3.5348159144802758e-11  1.9999999998064263e+02 -1.4576951503743982e-11 7.8896426528062718e-12  1.9999999998142880e+02 -6.6969140383493466e-11 -2.4049389863360399e-10  1.9999999998143650e+02 -2.2878442340572644e-10 -1.0174034652620381e-10  1.9999999998144554e+02 -1.1983055829955176e-10 -9.1893937539387427e-11  1.9999999998062719e+02 -1.3477163490614843e-10 -1.2029653502691975e-10  1.9999999998062387e+02 -7.8206813985297811e-12 -2.6885482112989337e-11  1.9999999998081586e+02 9.5197030630741589e-11 4.2389937924118662e-11  1.9999999998066022e+02 -5.9141446689688031e-11 -4.8700726031532309e-11  1.9999999998146069e+02 -1.0882969054447163e-10 -1.9307124230066029e-10  1.9999999998139532e+02 -1.7876376563063770e-10 -8.3893636690018453e-11  1.9999999998245892e+02 1.3374274407762173e-10 1.9732977560817381e-11  1.9999999998151188e+02 -1.1551501081876404e-11 -5.3993619428942534e-11  1.9999999998058132e+02 -1.0754584233413680e-10 -8.7164399079608158e-11  1.9999999998146899e+02 -1.1340914011042810e-10 -1.2130499333785772e-10  1.9999999998062501e+02 -1.5862727729792666e-11 -8.3669329756364078e-11  1.9999999998082157e+02 6.0123938958525527e-11 2.2802078826084991e-11  1.9999999998065920e+02 -6.7989232721655642e-11 -7.1754442678179641e-11  1.9999999998143656e+02 -1.3037377648722150e-10 -1.9938111675212864e-10  1.9999999998146714e+02 -1.6466434772239015e-10 -1.4040947815510444e-10  1.9999999998058107e+02 -1.4476570439160636e-10 -1.1550142153236433e-10  1.9999999998060122e+02 -3.3789373054596383e-11 4.3236220059429603e-12  1.9999999998144548e+02 -9.8570716138502968e-11 -1.2152675743938855e-10  1.9999999998079966e+02 8.5056813938258151e-11 9.0140601294340217e-11  1.9999999998060207e+02 -8.7247838182722215e-12 -3.6299025523449287e-11  1.9999999998081512e+02 9.5584253324679222e-11 4.1725274801387738e-11  1.9999999998064561e+02 -2.6415859000398294e-12 -7.1909783614769405e-11  1.9999999998143039e+02 -1.2453962742212633e-10 -2.5056406544017669e-10  1.9999999998214849e+02 2.0674721996981382e-11 2.8101734617580565e-11  1.9999999998305429e+02 9.2018441236659373e-12 5.5823144548502501e-11  1.9999999998232559e+02 5.1158769672068549e-12 3.6738419642163424e-11  1.9999999998243294e+02 1.9246408509900470e-12 -5.0419536788703064e-10  1.9999999998143201e+02 5.8209379971218628e-11 -7.7866331300797199e-12  1.9999999998134010e+02 -1.1365135595845857e-11 -1.2473616018529831e-10  1.9999999998062049e+02 6.9404526900990924e-11 1.9657587872282024e-11  1.9999999998080600e+02 6.3053854860602981e-12 -4.9666037118835332e-10  1.9999999998149272e+02 2.0304041642072749e-11 2.0368823250439408e-11  1.9999999998144045e+02 -9.8112676689877644e-11 1.4348321787149487e-11  1.9999999998058061e+02 -9.1867011363723453e-11 -5.0926474814828569e-11  1.9999999998064158e+02 9.3899553723472030e-12 2.9638257711018750e-11  1.9999999998078309e+02 8.0414780061058146e-11 -4.3632773723523493e-10  1.9999999998059278e+02 2.1617332132027577e-11 2.2546701849628347e-11  1.9999999998154087e+02 3.9489199352616085e-12 1.6397003467650487e-10  1.9999999998145458e+02 -2.0774099105508065e-10 -4.2291581082644478e-13  1.9999999998151802e+02 7.5810751887431642e-11 -3.0295371218151495e-11  1.9999999998059161e+02 -1.1440935339472034e-10 2.6269937325175836e-11  1.9999999998145509e+02 -9.6564099836942334e-11 2.9383260133059072e-11  1.9999999998065519e+02 -1.8209808242786864e-11 1.1036946386435561e-11  1.9999999998079986e+02 3.8961840685094251e-11 -4.8041628041926069e-10  1.9999999998060645e+02 -3.2361565305356616e-11 -2.2014670117266828e-11  1.9999999998156301e+02 8.1342549735223954e-12 2.4233963889892196e-10  1.9999999998141826e+02 -2.1953094894150640e-10 1.0120456198434368e-11  1.9999999998147840e+02 2.1002565924069166e-11 1.3823906093359055e-11  1.9999999998142593e+02 -1.1893609309658659e-10 1.7719724806222677e-11  1.9999999998057643e+02 -1.3354172300486533e-10 -1.9852039256066902e-11  1.9999999998066647e+02 -2.6755983034548863e-11 5.3168368507899246e-11  1.9999999998079483e+02 6.7232915541059232e-11 -4.8444001428276503e-10  1.9999999998065354e+02 -4.9134808313836085e-11 2.4766282255156282e-11  1.9999999998153211e+02 -2.3779099183127827e-11 1.7189592664236405e-10  1.9999999998141402e+02 -2.0223252172411428e-10 1.3955875046814955e-11  1.9999999998054238e+02 -1.0691969155374275e-10 9.0717800778235455e-12  1.9999999998143116e+02 -1.0066890811324054e-10 4.3105413626852889e-11  1.9999999998063225e+02 9.8455808489538058e-12 1.8097972811038192e-11  1.9999999998078536e+02 5.5724989922880873e-11 -4.9449045346162529e-10  1.9999999998062205e+02 -1.3847991233436758e-11 3.2601470681984983e-13  1.9999999998247017e+02 1.2353725268497176e-10 -5.9912070592600743e-11  1.9999999998142408e+02 -1.4411599256525548e-10 -1.1399138789691875e-10  1.9999999998145134e+02 -4.6323223703127426e-11 3.3882921982836859e-11  1.9999999998145452e+02 -6.5856598078662556e-11 -1.3072975099137764e-10  1.9999999998077513e+02 7.5823696439876430e-11 2.2535511302658255e-11  1.9999999998063029e+02 -1.8861496520046281e-11 -3.9662277359442415e-11  1.9999999998080139e+02 9.1009610485495720e-11 8.3339794366985688e-11  1.9999999998234262e+02 3.0316102884204205e-11 -4.3310305761105230e-11  1.9999999998247276e+02 9.8471256503268289e-11 1.1128185236042407e-10  1.9999999998147752e+02 6.1619977838913196e-11 -3.2857629578719692e-11  1.9999999998216498e+02 -1.1207939245953903e-10 -1.3568840344794161e-10  1.9999999998230354e+02 -4.3206799391302079e-12 5.0184081286683777e-11  1.9999999998308215e+02 -6.2039365371020362e-11 -1.1305310839114707e-10  1.9999999998297852e+02 -2.2315893301142174e-10 -8.4268414301408097e-11  1.9999999998246926e+02 8.5523764950833432e-11 -3.5127399488893944e-11  1.9999999998231465e+02 -1.0863239605320042e-11 -2.0134675088542498e-11  1.9999999998244337e+02 1.3043491481944499e-10 9.3973494054789665e-11  1.9999999998233079e+02 1.9905287787313133e-12 -5.3761530376215173e-11  1.9999999998140473e+02 -9.7364284943032626e-11 -1.0883261465472559e-10  1.9999999998130093e+02 -1.7288773919668642e-10 -9.3653288057998097e-11  1.9999999998059204e+02 -1.5567297885620407e-10 -1.2382181131636919e-10  1.9999999998058806e+02 -9.5642619877490030e-12 8.4737994491339676e-11  1.9999999998076990e+02 8.2791910725291616e-11 -2.4968863407749048e-12  1.9999999998060014e+02 2.8823440093746510e-11 -5.5941085929903983e-12  1.9999999998078829e+02 1.0087262067464924e-10 1.1770298861888173e-10  1.9999999998060872e+02 -1.1339636552228580e-11 2.3010100291968722e-11  1.9999999998142454e+02 -1.3659677487330592e-10 -1.8720588911853143e-10  1.9999999998137963e+02 -1.4745802817637091e-10 -1.2455300697588614e-10  1.9999999998144179e+02 -8.6086501765813789e-11 7.9876693237965952e-11  1.9999999998149784e+02 6.1635714752151233e-12 -2.7469346295178308e-13  1.9999999998138370e+02 -4.4505465571121603e-11 -1.0262593355230941e-10  1.9999999998127814e+02 -1.7476687698347578e-10 -4.9485896121276457e-11  1.9999999998054744e+02 -8.1423034087055158e-11 -1.1563410544795588e-10  1.9999999998061529e+02 -1.8129052259489959e-11 1.2799429385721614e-10  1.9999999998076743e+02 5.3651855363457469e-11 5.9103831731453123e-11  1.9999999998060079e+02 -5.2104311868312188e-11 -1.4266087798219524e-11  1.9999999998079554e+02 5.7806839544649413e-11 9.1608551435796246e-11  1.9999999998059658e+02 -6.1175936167661208e-11 3.5523742073152228e-12  1.9999999998138307e+02 -8.8153555908521539e-11 -1.8050950175955221e-10  1.9999999998219954e+02 4.9892581943675456e-11 5.9481756051318935e-11  1.9999999998148309e+02 -3.6216087314377438e-11 -2.7602738052294185e-11  1.9999999998146197e+02 2.7548546235366775e-11 1.1829614668225896e-10  1.9999999998224587e+02 1.4788816697963604e-11 -7.9406837724118202e-11  1.9999999998225789e+02 4.3906798813166519e-11 -2.8527525316380622e-11  1.9999999998143863e+02 -7.2402112473562345e-12 5.8493991529418475e-11  1.9999999998229515e+02 1.6117567088534263e-10 -1.6075172857955369e-11  1.9999999998052752e+02 -9.6142465904810620e-11 -5.5584555588109792e-11  1.9999999998059178e+02 -1.0286322087342625e-11 5.0688310495061304e-11  1.9999999998060341e+02 1.4253914149886135e-11 -7.2244423333847163e-11  1.9999999998056882e+02 -1.0125532421302542e-10 -1.5872305899110130e-10  1.9999999998140805e+02 -8.1517252656718874e-11 -8.3263737875726393e-11  1.9999999998077399e+02 8.0253810941474455e-11 8.9478870260703203e-11  1.9999999998084596e+02 3.4698187314656843e-11 9.6788636971675298e-11  1.9999999998056677e+02 -3.4436999929007495e-11 1.7590362110692114e-11  1.9999999998246088e+02 1.0250117775127072e-10 8.2250278169088867e-11  1.9999999998137369e+02 -9.7663351488649506e-11 -1.2795116509540929e-10  1.9999999998141661e+02 2.9840063491086908e-11 3.6684982885019055e-11  1.9999999998139575e+02 -1.3575528682728694e-10 -1.2256495078669696e-10  1.9999999998244579e+02 1.0368707715307135e-10 8.3078716976804642e-11  1.9999999998144693e+02 -2.3929885872178394e-11 1.7071193822605867e-11  1.9999999998234796e+02 -1.8249559354990000e-11 -3.7354995650230375e-11  1.9999999998143321e+02 -8.0591087692667310e-11 -1.3253942468765568e-10  1.9999999998054443e+02 -1.0012155888790625e-10 -1.5974716394440261e-10  1.9999999998063907e+02 1.4443264337975799e-11 -5.0639026559733060e-11  1.9999999998080006e+02 1.1317459390043846e-10 1.0759387460527432e-10  1.9999999998063609e+02 -1.2810060799227375e-11 -1.1432916230719027e-11  1.9999999998133751e+02 -9.3951167509239260e-11 -1.4681661952210349e-10  1.9999999998139259e+02 -1.8600841493459192e-10 -1.3868436892106514e-10  1.9999999998221969e+02 -1.0820564642947804e-10 -9.2628906307503898e-11  1.9999999998236248e+02 -3.9638664672302700e-12 2.1565187889651412e-11  1.9999999998244760e+02 8.7496141536389983e-11 9.3535042213307212e-11  1.9999999998145830e+02 5.1331050706107612e-11 2.5232729450992785e-11  1.9999999998232457e+02 4.1576664478072247e-11 -6.2888930380053320e-11  1.9999999998138949e+02 -5.7124001