<?xml version="1.0"?>
<VTKFile type="UnstructuredGrid"  version="0.1"  >
<UnstructuredGrid>
<Piece  NumberOfPoints="3966" NumberOfCells="18901">
<Points>
<DataArray  type="Float64"  NumberOfComponents="3"  format="ascii">2.5 0 27.5  2.5 1.25 27.5  2.5 1.25 26.25  1.25 1.25 26.25  2.5 2.5 27.5  0 0 27.5  1.25 1.25 27.5  1.25 0 27.5  1.25 0 26.25  0 1.25 27.5  0 1.25 26.25  0 2.5 27.5  1.25 2.5 27.5  1.25 2.5 26.25  5 0 27.5  5 1.25 27.5  5 1.25 26.25  3.75 1.25 26.25  5 2.5 27.5  3.75 1.25 27.5  3.75 0 27.5  3.75 2.5 27.5  6.25 1.25 27.5  6.25 0 27.5  6.25 1.25 26.25  6.25 0 26.25  7.5 0 27.5  7.5 1.25 27.5  7.5 2.5 27.5  7.5 2.5 25  7.5 2.5 26.25  6.25 2.5 26.25  6.25 2.5 27.5  2.5 3.75 27.5  2.5 3.75 26.25  1.25 3.75 26.25  2.5 5 27.5  1.25 3.75 27.5  0 3.75 27.5  0 3.75 26.25  0 5 27.5  1.25 5 27.5  3.75 3.75 27.5  3.75 3.75 26.25  5 3.75 27.5  5 5 27.5  3.75 5 27.5  7.5 3.75 26.25  7.5 3.75 25  6.25 3.75 26.25  7.5 5 25  7.5 5 26.25  7.5 5 27.5  7.5 3.75 27.5  6.25 3.75 27.5  6.25 5 26.25  6.25 5 27.5  1.25 6.25 27.5  1.25 6.25 26.25  0 6.25 27.5  0 7.5 27.5  7.5 6.25 26.25  6.25 6.25 26.25  7.5 6.25 27.5  7.5 7.5 27.5  6.25 6.25 27.5  1.25 1.25 28.75  2.5 1.25 28.75  2.5 2.5 28.75  2.5 2.5 30  1.25 0 28.75  2.5 0 28.75  2.5 0 30  2.5 1.25 30  0 0 28.75  0 0 30  1.25 1.25 30  1.25 0 30  1.25 2.5 28.75  0 1.25 28.75  0 1.25 30  0 2.5 30  1.25 2.5 30  0 2.5 28.75  3.75 1.25 28.75  5 1.25 28.75  5 2.5 28.75  5 2.5 30  3.75 0 28.75  5 0 28.75  5 0 30  5 1.25 30  3.75 1.25 30  3.75 0 30  3.75 2.5 28.75  3.75 2.5 30  6.25 1.25 28.75  7.5 1.25 28.75  7.5 2.5 28.75  7.5 2.5 30  6.25 0 28.75  7.5 0 28.75  7.5 0 30  7.5 1.25 30  6.25 1.25 30  6.25 0 30  6.25 2.5 28.75  6.25 2.5 30  1.25 3.75 28.75  2.5 3.75 28.75  2.5 5 28.75  2.5 5 30  2.5 3.75 30  1.25 3.75 30  1.25 5 28.75  0 3.75 28.75  0 3.75 30  0 5 30  1.25 5 30  0 5 28.75  3.75 3.75 28.75  5 3.75 28.75  5 5 28.75  5 5 30  5 3.75 30  3.75 3.75 30  3.75 5 28.75  3.75 5 30  6.25 3.75 28.75  7.5 3.75 28.75  7.5 5 28.75  7.5 5 30  7.5 3.75 30  6.25 3.75 30  6.25 5 28.75  6.25 5 30  1.25 6.25 28.75  1.25 6.25 30  0 6.25 28.75  0 6.25 30  0 7.5 30  0 7.5 28.75  6.25 6.25 28.75  7.5 6.25 28.75  1.25 1.25 31.25  2.5 1.25 31.25  2.5 2.5 31.25  2.5 2.5 32.5  1.25 0 31.25  2.5 0 31.25  2.5 0 32.5  2.5 1.25 32.5  0 0 31.25  0 0 32.5  1.25 1.25 32.5  1.25 0 32.5  1.25 2.5 31.25  0 1.25 31.25  0 1.25 32.5  0 2.5 32.5  1.25 2.5 32.5  0 2.5 31.25  3.75 1.25 31.25  5 1.25 31.25  5 2.5 31.25  5 2.5 32.5  3.75 0 31.25  5 0 31.25  5 0 32.5  5 1.25 32.5  3.75 1.25 32.5  3.75 0 32.5  3.75 2.5 31.25  3.75 2.5 32.5  6.25 1.25 31.25  7.5 1.25 31.25  7.5 2.5 31.25  7.5 2.5 32.5  6.25 0 31.25  7.5 0 31.25  7.5 0 32.5  7.5 1.25 32.5  6.25 1.25 32.5  6.25 0 32.5  6.25 2.5 31.25  6.25 2.5 32.5  1.25 3.75 31.25  2.5 3.75 31.25  2.5 5 31.25  2.5 5 32.5  2.5 3.75 32.5  1.25 3.75 32.5  1.25 5 31.25  0 3.75 31.25  0 3.75 32.5  0 5 32.5  1.25 5 32.5  0 5 31.25  3.75 3.75 31.25  5 3.75 31.25  5 5 31.25  5 5 32.5  5 3.75 32.5  3.75 3.75 32.5  3.75 5 31.25  3.75 5 32.5  6.25 3.75 31.25  7.5 3.75 31.25  7.5 5 31.25  7.5 5 32.5  7.5 3.75 32.5  6.25 3.75 32.5  6.25 5 31.25  6.25 5 32.5  1.25 6.25 31.25  2.5 6.25 31.25  2.5 6.25 32.5  2.5 7.5 32.5  1.25 6.25 32.5  0 6.25 31.25  0 6.25 32.5  0 7.5 32.5  0 7.5 31.25  3.75 6.25 31.25  3.75 6.25 32.5  6.25 6.25 31.25  7.5 6.25 31.25  7.5 6.25 32.5  7.5 7.5 32.5  6.25 6.25 32.5  1.25 1.25 33.75  2.5 1.25 33.75  2.5 2.5 33.75  2.5 2.5 35  1.25 0 33.75  2.5 0 33.75  2.5 0 35  2.5 1.25 35  0 0 33.75  0 0 35  1.25 1.25 35  1.25 0 35  1.25 2.5 33.75  0 1.25 33.75  0 1.25 35  0 2.5 35  1.25 2.5 35  0 2.5 33.75  3.75 1.25 33.75  5 1.25 33.75  5 2.5 33.75  5 2.5 35  3.75 0 33.75  5 0 33.75  5 0 35  5 1.25 35  3.75 1.25 35  3.75 0 35  3.75 2.5 33.75  3.75 2.5 35  6.25 1.25 33.75  7.5 1.25 33.75  7.5 2.5 33.75  7.5 2.5 35  6.25 0 33.75  7.5 0 33.75  7.5 0 35  7.5 1.25 35  6.25 1.25 35  6.25 0 35  6.25 2.5 33.75  6.25 2.5 35  1.25 3.75 33.75  2.5 3.75 33.75  2.5 5 33.75  2.5 5 35  2.5 3.75 35  1.25 3.75 35  1.25 5 33.75  0 3.75 33.75  0 3.75 35  0 5 35  1.25 5 35  0 5 33.75  3.75 3.75 33.75  5 3.75 33.75  5 5 33.75  5 5 35  5 3.75 35  3.75 3.75 35  3.75 5 33.75  3.75 5 35  6.25 3.75 33.75  7.5 3.75 33.75  7.5 5 33.75  7.5 5 35  7.5 3.75 35  6.25 3.75 35  6.25 5 33.75  6.25 5 35  1.25 6.25 33.75  2.5 6.25 33.75  2.5 7.5 33.75  2.5 7.5 35  2.5 6.25 35  1.25 6.25 35  0 6.25 33.75  0 6.25 35  0 7.5 35  1.25 7.5 35  0 7.5 33.75  3.75 6.25 33.75  5 6.25 33.75  5 6.25 35  5 7.5 35  3.75 6.25 35  3.75 7.5 35  6.25 6.25 33.75  7.5 6.25 33.75  7.5 6.25 35  7.5 7.5 35  6.25 6.25 35  6.25 7.5 35  1.25 1.25 36.25  2.5 1.25 36.25  2.5 2.5 36.25  2.5 2.5 37.5  1.25 0 36.25  2.5 0 36.25  2.5 0 37.5  2.5 1.25 37.5  0 0 36.25  0 0 37.5  1.25 1.25 37.5  1.25 0 37.5  1.25 2.5 36.25  0 1.25 36.25  0 1.25 37.5  0 2.5 37.5  1.25 2.5 37.5  0 2.5 36.25  3.75 1.25 36.25  5 1.25 36.25  5 2.5 36.25  5 2.5 37.5  3.75 0 36.25  5 0 36.25  5 0 37.5  5 1.25 37.5  3.75 1.25 37.5  3.75 0 37.5  3.75 2.5 36.25  3.75 2.5 37.5  6.25 1.25 36.25  7.5 1.25 36.25  7.5 2.5 36.25  7.5 2.5 37.5  6.25 0 36.25  7.5 0 36.25  7.5 0 37.5  7.5 1.25 37.5  6.25 1.25 37.5  6.25 0 37.5  6.25 2.5 36.25  6.25 2.5 37.5  1.25 3.75 36.25  2.5 3.75 36.25  2.5 5 36.25  2.5 5 37.5  2.5 3.75 37.5  1.25 3.75 37.5  1.25 5 36.25  0 3.75 36.25  0 3.75 37.5  0 5 37.5  1.25 5 37.5  0 5 36.25  3.75 3.75 36.25  5 3.75 36.25  5 5 36.25  5 5 37.5  5 3.75 37.5  3.75 3.75 37.5  3.75 5 36.25  3.75 5 37.5  6.25 3.75 36.25  7.5 3.75 36.25  7.5 5 36.25  7.5 5 37.5  7.5 3.75 37.5  6.25 3.75 37.5  6.25 5 36.25  6.25 5 37.5  1.25 6.25 36.25  2.5 6.25 36.25  2.5 7.5 36.25  2.5 7.5 37.5  2.5 6.25 37.5  1.25 6.25 37.5  1.25 7.5 36.25  0 6.25 36.25  0 6.25 37.5  0 7.5 37.5  1.25 7.5 37.5  0 7.5 36.25  3.75 6.25 36.25  5 6.25 36.25  5 7.5 36.25  5 7.5 37.5  5 6.25 37.5  3.75 6.25 37.5  3.75 7.5 36.25  3.75 7.5 37.5  6.25 6.25 36.25  7.5 6.25 36.25  7.5 7.5 36.25  7.5 7.5 37.5  7.5 6.25 37.5  6.25 6.25 37.5  6.25 7.5 36.25  6.25 7.5 37.5  1.25 8.75 36.25  1.25 8.75 37.5  0 8.75 36.25  0 8.75 37.5  0 10 37.5  0 8.75 35  0 10 35  0 10 36.25  3.75 8.75 36.25  5 8.75 36.25  5 8.75 37.5  3.75 8.75 37.5  6.25 8.75 36.25  7.5 8.75 36.25  7.5 8.75 37.5  7.5 10 37.5  6.25 8.75 37.5  1.25 1.25 38.75  2.5 1.25 38.75  2.5 2.5 38.75  2.5 2.5 40  1.25 0 38.75  2.5 0 38.75  2.5 0 40  2.5 1.25 40  0 0 38.75  0 0 40  1.25 1.25 40  1.25 0 40  1.25 2.5 38.75  0 1.25 38.75  0 1.25 40  0 2.5 40  1.25 2.5 40  0 2.5 38.75  3.75 1.25 38.75  5 1.25 38.75  5 2.5 38.75  5 2.5 40  3.75 0 38.75  5 0 38.75  5 0 40  5 1.25 40  3.75 1.25 40  3.75 0 40  3.75 2.5 38.75  3.75 2.5 40  6.25 1.25 38.75  7.5 1.25 38.75  7.5 2.5 38.75  7.5 2.5 40  6.25 0 38.75  7.5 0 38.75  7.5 0 40  7.5 1.25 40  6.25 1.25 40  6.25 0 40  6.25 2.5 38.75  6.25 2.5 40  1.25 3.75 38.75  2.5 3.75 38.75  2.5 5 38.75  2.5 5 40  2.5 3.75 40  1.25 3.75 40  1.25 5 38.75  0 3.75 38.75  0 3.75 40  0 5 40  1.25 5 40  0 5 38.75  3.75 3.75 38.75  5 3.75 38.75  5 5 38.75  5 5 40  5 3.75 40  3.75 3.75 40  3.75 5 38.75  3.75 5 40  6.25 3.75 38.75  7.5 3.75 38.75  7.5 5 38.75  7.5 5 40  7.5 3.75 40  6.25 3.75 40  6.25 5 38.75  6.25 5 40  1.25 6.25 38.75  2.5 6.25 38.75  2.5 7.5 38.75  2.5 7.5 40  2.5 6.25 40  1.25 6.25 40  1.25 7.5 38.75  0 6.25 38.75  0 6.25 40  0 7.5 40  1.25 7.5 40  0 7.5 38.75  3.75 6.25 38.75  5 6.25 38.75  5 7.5 38.75  5 7.5 40  5 6.25 40  3.75 6.25 40  3.75 7.5 38.75  3.75 7.5 40  6.25 6.25 38.75  7.5 6.25 38.75  7.5 7.5 38.75  7.5 7.5 40  7.5 6.25 40  6.25 6.25 40  6.25 7.5 38.75  6.25 7.5 40  1.25 8.75 38.75  2.5 8.75 38.75  2.5 8.75 40  2.5 10 40  1.25 8.75 40  0 8.75 38.75  0 8.75 40  0 10 40  1.25 10 40  0 10 38.75  3.75 8.75 38.75  5 8.75 38.75  5 8.75 40  5 10 40  3.75 8.75 40  3.75 10 40  6.25 8.75 38.75  7.5 8.75 38.75  7.5 8.75 40  7.5 10 40  6.25 8.75 40  6.25 10 40  1.25 1.25 41.25  2.5 1.25 41.25  2.5 2.5 41.25  2.5 2.5 42.5  1.25 0 41.25  2.5 0 41.25  2.5 0 42.5  2.5 1.25 42.5  0 0 41.25  0 0 42.5  1.25 1.25 42.5  1.25 0 42.5  1.25 2.5 41.25  0 1.25 41.25  0 1.25 42.5  0 2.5 42.5  1.25 2.5 42.5  0 2.5 41.25  3.75 1.25 41.25  5 1.25 41.25  5 2.5 41.25  5 2.5 42.5  3.75 0 41.25  5 0 41.25  5 0 42.5  5 1.25 42.5  3.75 1.25 42.5  3.75 0 42.5  3.75 2.5 41.25  3.75 2.5 42.5  6.25 1.25 41.25  7.5 1.25 41.25  7.5 2.5 41.25  7.5 2.5 42.5  6.25 0 41.25  7.5 0 41.25  7.5 0 42.5  7.5 1.25 42.5  6.25 1.25 42.5  6.25 0 42.5  6.25 2.5 41.25  6.25 2.5 42.5  1.25 3.75 41.25  2.5 3.75 41.25  2.5 5 41.25  2.5 5 42.5  2.5 3.75 42.5  1.25 3.75 42.5  1.25 5 41.25  0 3.75 41.25  0 3.75 42.5  0 5 42.5  1.25 5 42.5  0 5 41.25  3.75 3.75 41.25  5 3.75 41.25  5 5 41.25  5 5 42.5  5 3.75 42.5  3.75 3.75 42.5  3.75 5 41.25  3.75 5 42.5  6.25 3.75 41.25  7.5 3.75 41.25  7.5 5 41.25  7.5 5 42.5  7.5 3.75 42.5  6.25 3.75 42.5  6.25 5 41.25  6.25 5 42.5  1.25 6.25 41.25  2.5 6.25 41.25  2.5 7.5 41.25  2.5 7.5 42.5  2.5 6.25 42.5  1.25 6.25 42.5  1.25 7.5 41.25  0 6.25 41.25  0 6.25 42.5  0 7.5 42.5  1.25 7.5 42.5  0 7.5 41.25  3.75 6.25 41.25  5 6.25 41.25  5 7.5 41.25  5 7.5 42.5  5 6.25 42.5  3.75 6.25 42.5  3.75 7.5 41.25  3.75 7.5 42.5  6.25 6.25 41.25  7.5 6.25 41.25  7.5 7.5 41.25  7.5 7.5 42.5  7.5 6.25 42.5  6.25 6.25 42.5  6.25 7.5 41.25  6.25 7.5 42.5  1.25 8.75 41.25  2.5 8.75 41.25  2.5 10 41.25  2.5 10 42.5  2.5 8.75 42.5  1.25 8.75 42.5  1.25 10 41.25  0 8.75 41.25  0 8.75 42.5  0 10 42.5  1.25 10 42.5  0 10 41.25  3.75 8.75 41.25  5 8.75 41.25  5 10 41.25  5 10 42.5  5 8.75 42.5  3.75 8.75 42.5  3.75 10 41.25  3.75 10 42.5  6.25 8.75 41.25  7.5 8.75 41.25  7.5 10 41.25  7.5 10 42.5  7.5 8.75 42.5  6.25 8.75 42.5  6.25 10 41.25  6.25 10 42.5  8.75 8.75 41.25  8.75 8.75 42.5  8.75 10 42.5  10 10 42.5  8.75 10 41.25  1.25 11.25 41.25  2.5 11.25 41.25  2.5 11.25 42.5  2.5 12.5 42.5  1.25 11.25 42.5  0 11.25 41.25  0 11.25 42.5  0 12.5 42.5  0 11.25 40  0 12.5 40  0 12.5 41.25  3.75 11.25 41.25  5 11.25 41.25  5 11.25 42.5  5 12.5 42.5  3.75 11.25 42.5  6.25 11.25 41.25  7.5 11.25 41.25  6.25 11.25 42.5  8.75 11.25
[...]
<PointData  Vectors="u"> 
<DataArray  type="Float64"  Name="u"  NumberOfComponents="3" format="ascii">1.9999999999825113e+02 5.2099887531223050e-10 1.3622730653641876e-10  1.9999999999827486e+02 1.1622031097994332e-11 -2.9232862876402651e-11  1.9999999999796634e+02 -7.3870721695050047e-11 -1.4848954385918304e-10  1.9999999999898566e+02 -5.2725278816727528e-11 -1.0860818008231980e-10  1.9999999999821509e+02 1.2188341376017963e-10 1.1059981260773078e-10  2.0000000000057415e+02 6.3546191848911777e-10 1.4543675240979758e-10  1.9999999999907232e+02 -8.6010911411391451e-11 -1.0833076437795450e-10  1.9999999999907959e+02 2.6621037862229856e-11 2.2105414786957143e-11  1.9999999999896687e+02 -3.3007389454760635e-10 2.0166246281880872e-11  1.9999999999997513e+02 -2.8446092558796724e-11 -1.4896339075358394e-11  1.9999999999971951e+02 -1.2028439256015746e-10 -1.6102594127856024e-11  2.0000000000058111e+02 1.9999523802705975e-10 1.4470525876028525e-10  1.9999999999903122e+02 3.7410535797121394e-11 -3.2887189931019291e-11  1.9999999999907863e+02 -7.8352608297489807e-11 -1.2676374918152719e-10  1.9999999999645772e+02 5.8257802502596247e-10 1.1394596596410701e-10  1.9999999999639621e+02 -1.1264400281326461e-11 3.2085961181629227e-11  1.9999999999609210e+02 -8.6896665857958102e-11 -1.1029779081821550e-10  1.9999999999716093e+02 -1.3712031427266760e-10 -1.1769272485983983e-10  1.9999999999647733e+02 1.3778443652119432e-10 1.2356470722027341e-10  1.9999999999712367e+02 2.3344675587826061e-11 -1.3652946346979573e-10  1.9999999999721996e+02 2.6617824533070712e-11 -8.0455110271969263e-11  1.9999999999727416e+02 6.7066406672833868e-11 -1.0565043889927694e-10  1.9999999999532045e+02 -5.6443399891958333e-11 -1.1209751851859791e-10  1.9999999999540117e+02 -3.7065607802827263e-11 -9.0073450231715837e-11  1.9999999999538667e+02 -1.5330960710429631e-10 -3.3836785975103223e-11  1.9999999999522447e+02 -5.1909696979993235e-10 -6.4218047793255886e-12  1.9999999999469225e+02 6.2764541989722308e-10 6.8572563067863515e-11  1.9999999999444478e+02 -2.8346546379912217e-11 9.8178001334246554e-11  1.9999999999470120e+02 1.3426493796874617e-10 9.2122668733791162e-11  1.9999999999469944e+02 1.2602915631966331e-10 -4.0796756008541175e-11  1.9999999999447604e+02 1.7757653471318160e-10 1.5915080173136393e-12  1.9999999999533165e+02 -1.9765216645968394e-10 3.5096743050738723e-11  1.9999999999539628e+02 1.0768834681053375e-10 -1.3559486145856621e-10  1.9999999999823197e+02 1.5392615694416672e-11 -9.1301533158185946e-11  1.9999999999809776e+02 -2.2804500850354976e-10 -2.4594165994453313e-10  1.9999999999901428e+02 -5.2105316203358068e-11 -2.7460310594732417e-11  1.9999999999817760e+02 1.9186825112134588e-10 1.2594443644386712e-10  1.9999999999904978e+02 -1.2988568433669655e-10 -9.9361768811284714e-11  2.0000000000005204e+02 -5.5035332075641756e-11 -1.1120970310607269e-10  1.9999999999964260e+02 -4.6923868768168470e-11 -3.1090131082990906e-11  2.0000000000058046e+02 1.6399331735459014e-10 1.1147879390703614e-10  1.9999999999905822e+02 -5.6066287883004850e-11 -1.1956139254640153e-11  1.9999999999722252e+02 -7.9680358065860576e-11 -1.9923941979892710e-10  1.9999999999720021e+02 -7.0217827781636213e-11 -8.2130366951411880e-11  1.9999999999634173e+02 5.6865248537668947e-12 -4.7543960409540013e-11  1.9999999999648364e+02 1.3614931199737485e-10 8.7319886010488237e-11  1.9999999999725571e+02 2.9170199850689189e-11 -3.6141826487417841e-11  1.9999999999445026e+02 -9.1160114145039658e-11 1.1857129930307347e-11  1.9999999999443111e+02 2.5045572885447441e-11 9.6267596069447140e-11  1.9999999999537766e+02 -2.3429048623920516e-11 -1.1190791444100841e-10  1.9999999999467468e+02 1.7917718556016983e-10 -3.2007298459692908e-12  1.9999999999443031e+02 9.8494381572298177e-12 2.7873733555676368e-12  1.9999999999465925e+02 1.4448344421800006e-10 8.5328041626830183e-11  1.9999999999448355e+02 7.4027855640253373e-12 3.6613138186137880e-11  1.9999999999533853e+02 -6.6647090048859398e-11 -2.1017134872793575e-10  1.9999999999535075e+02 -1.8146461577510979e-10 -8.1233639024172545e-11  1.9999999999542993e+02 4.5618468070995872e-11 -2.0723193751082729e-11  1.9999999999907234e+02 -1.1338176252378176e-10 -8.0550701553474115e-11  1.9999999999899299e+02 -5.9127590169803648e-11 -3.5117619971442662e-11  2.0000000000000060e+02 -4.7125747819238454e-11 -1.1685470677653974e-10  2.0000000000057625e+02 1.8875284597984000e-10 1.1829498671570930e-10  1.9999999999443278e+02 -1.2225175364326516e-10 -1.1783801785443765e-10  1.9999999999536496e+02 -1.1347099459821442e-10 -1.0376681600772189e-10  1.9999999999444398e+02 1.4327220246611327e-11 3.8953886054964516e-11  1.9999999999466840e+02 1.1717839395656226e-10 9.8971478905575462e-11  1.9999999999536834e+02 -1.1481128075151717e-10 -2.0972449129531497e-10  1.9999999999904682e+02 -8.3248129512041946e-11 -9.2486632174124171e-11  1.9999999999821085e+02 8.4682027644456220e-11 -2.3675792125653978e-10  1.9999999999819659e+02 8.4901555954993651e-11 -3.0461955895035907e-11  1.9999999999818644e+02 1.0198902831795950e-10 1.6514393294724017e-10  1.9999999999903818e+02 -4.0977238662660828e-10 -6.7426856960474036e-11  1.9999999999821807e+02 1.9646566768287411e-11 -4.4888792634615926e-11  1.9999999999823149e+02 5.6228730443103769e-10 1.5810498892672871e-10  1.9999999999820727e+02 -4.4607838960569206e-11 -2.2357806507337604e-11  2.0000000000003573e+02 6.5661171093229595e-11 -8.1071725205300598e-11  2.0000000000054629e+02 5.5122397743582223e-10 1.8644730056499295e-10  1.9999999999910079e+02 -5.7984470753864407e-11 -1.5454156505205159e-10  1.9999999999903193e+02 7.7351361696050255e-11 -4.1656893948358376e-11  1.9999999999899759e+02 -5.1377142323661840e-11 -1.4172094601242998e-10  1.9999999999957544e+02 -6.4713016654618237e-11 -6.2940547907736699e-11  1.9999999999990447e+02 -1.2739145703011208e-11 -1.3387910965619602e-11  2.0000000000059691e+02 1.7973614065200530e-10 1.1888541011831579e-10  1.9999999999901544e+02 3.2422352544291955e-11 -3.6744711326440993e-11  2.0000000000000966e+02 -4.9787703466522520e-11 -4.3593448175241885e-11  1.9999999999718483e+02 -4.3111830546249866e-11 -7.8381945591905834e-11  1.9999999999618208e+02 -1.8007008372332888e-12 -6.6695593411291618e-11  1.9999999999624882e+02 8.3988417366069629e-11 -6.1843864700588269e-11  1.9999999999650151e+02 8.4764643985654419e-11 1.2321205204380785e-10  1.9999999999720660e+02 -3.8319207222766772e-10 -6.8600827020581953e-11  1.9999999999625823e+02 7.3162036845769928e-11 -1.2237795788519354e-11  1.9999999999647579e+02 5.7462283543162464e-10 1.1197833020453014e-10  1.9999999999638004e+02 -1.0386749762150136e-10 1.9796035804935391e-11  1.9999999999719330e+02 6.6318961179705471e-12 -1.2588096150959572e-10  1.9999999999725242e+02 4.1082849144813184e-11 -7.4992192646619121e-11  1.9999999999712495e+02 -1.0205395510146335e-11 -2.1839976194265769e-10  1.9999999999724341e+02 3.8333259026414564e-11 -1.3098280408658463e-10  1.9999999999534660e+02 -2.9018141016986109e-11 -7.4533937462885907e-11  1.9999999999432717e+02 -1.0349592609154642e-10 -1.3017637099467225e-10  1.9999999999451254e+02 -1.4336765924118602e-11 -7.2531493557506042e-11  1.9999999999467300e+02 1.1049489144696748e-10 1.2802411761403468e-10  1.9999999999535859e+02 -4.4529365573946536e-10 3.6027897049300131e-11  1.9999999999451936e+02 9.9666360853565964e-11 3.6144371191983681e-12  1.9999999999465166e+02 5.6683564850006558e-10 1.2489133886143592e-10  1.9999999999445279e+02 -6.7646108149100219e-11 3.9106492527800670e-11  1.9999999999528643e+02 -2.7942201508695649e-11 -1.5272021156665516e-10  1.9999999999537275e+02 2.4506279200784864e-11 -5.2753076875932961e-11  1.9999999999522441e+02 1.0157667539637073e-12 -2.0880434435159565e-10  1.9999999999537684e+02 5.5209898442933868e-11 -4.2420437731942934e-11  1.9999999999893623e+02 -5.0931627276955955e-11 -9.1265611115054818e-11  1.9999999999811067e+02 -1.5524530338161966e-10 -2.0339067975577065e-10  1.9999999999818735e+02 -2.8777282166698728e-11 -6.0102838251792332e-11  1.9999999999818885e+02 1.9907485556047355e-10 1.2965792737527778e-10  1.9999999999815279e+02 -2.5759026616496680e-11 -1.0390086156549142e-10  1.9999999999899995e+02 -1.0896948349707227e-10 -1.8697824855836261e-10  1.9999999999901499e+02 -1.5720314090456376e-10 -1.0557304807487188e-10  1.9999999999964658e+02 -2.6275359435665199e-11 -1.2967788670239379e-11  2.0000000000009933e+02 -7.7182254706924521e-11 -9.4489646085717267e-11  2.0000000000054953e+02 1.8691144801213762e-10 1.0648590780513446e-10  1.9999999999897815e+02 5.6459527100638079e-11 1.6231982906022183e-12  2.0000000000001728e+02 -4.7537622028004473e-11 -2.7935297773836057e-11  1.9999999999719935e+02 -5.7062318167212333e-11 -7.5297928604890732e-11  1.9999999999624680e+02 -7.3210825838356601e-11 -1.2699979733639942e-10  1.9999999999638052e+02 2.9798378725220395e-11 -8.2614800399072593e-11  1.9999999999644785e+02 1.3842897954496168e-10 9.1115050017852939e-11  1.9999999999635722e+02 5.9871868193139530e-12 -4.3207905042025219e-11  1.9999999999719881e+02 -6.0322961882152582e-11 -2.1452803477136037e-10  1.9999999999717610e+02 -1.4461766238196434e-10 -9.2969184866677747e-11  1.9999999999724378e+02 6.4565480001122178e-11 -3.8269290178146093e-11  1.9999999999534336e+02 -4.0811357689755424e-11 -9.8692111618833056e-11  1.9999999999443932e+02 -4.7650244873092255e-11 -1.2508736182334063e-10  1.9999999999445271e+02 6.8456144602188829e-11 -4.9459542777653390e-11  1.9999999999468818e+02 1.3830915712081506e-10 9.5746895686470744e-11  1.9999999999449952e+02 2.7721115824359303e-11 -1.2713080045667698e-11  1.9999999999533179e+02 -7.4972306687283731e-11 -1.9290423832514950e-10  1.9999999999536536e+02 -1.5815561182927871e-10 -1.6778310070394595e-10  1.9999999999546444e+02 4.7513854853888285e-11 -3.5958048487711384e-12  1.9999999999896150e+02 -5.1565957173896527e-11 -7.2102887313095327e-11  1.9999999999901070e+02 -1.0074316315713882e-10 -1.6803993569991974e-10  1.9999999999957322e+02 -2.4723312334064657e-11 -2.0839562082610788e-11  2.0000000000000622e+02 -2.8741381710147149e-11 -8.1672728551164503e-11  2.0000000000057329e+02 1.2906192060237155e-10 1.2315997640794617e-10  2.0000000000003990e+02 -6.5199752171041671e-11 -4.0652369398784627e-11  1.9999999999538798e+02 -5.3666300967980515e-11 -9.6760953142952938e-11  1.9999999999444464e+02 -8.9883287160190164e-11 -1.5383112442945020e-10  1.9999999999905637e+02 -1.1090077846163169e-10 -1.2591979963214710e-10  1.9999999999818135e+02 6.3505798672296161e-11 -2.3978634278318492e-10  1.9999999999816205e+02 9.7919491898594650e-11 -8.1338191076845748e-11  1.9999999999822757e+02 9.8216516634752724e-11 1.5259079564737291e-10  1.9999999999897813e+02 -3.9960970188479688e-10 -5.6956837117691632e-11  1.9999999999826582e+02 1.8667200088427696e-11 -2.0469807339864974e-11  1.9999999999821901e+02 5.2634772513969524e-10 1.3332562061798516e-10  1.9999999999821705e+02 -4.9866664406623602e-11 -6.1019688833029917e-11  2.0000000000005937e+02 2.1279500911801214e-11 -6.4346364306820170e-11  2.0000000000051776e+02 4.9767365052779668e-10 1.3378058113731560e-10  1.9999999999909946e+02 -1.2199532629495495e-10 -1.8793139987971555e-10  1.9999999999905876e+02 6.1750595166720767e-11 -3.3076288458789516e-11  1.9999999999903687e+02 -5.5400495451704099e-11 -2.3315835423984269e-10  1.9999999999959894e+02 -1.2070007200281461e-10 -9.6737126981235365e-11  1.9999999999993236e+02 -2.8459951123565085e-11 -4.7908415560428502e-11  2.0000000000056534e+02 1.6517669060418539e-10 1.2189979854550353e-10  1.9999999999896934e+02 3.0732777916713609e-11 -4.2525832564185579e-11  2.0000000000001234e+02 -5.0828795611333612e-11 -7.8533764366912841e-11  1.9999999999718830e+02 -8.5083916916882628e-11 -8.2889824190936459e-11  1.9999999999616739e+02 1.4211927322368813e-11 -1.6317675247181848e-10  1.9999999999632107e+02 3.5683098390122189e-11 3.6019390896676286e-12  1.9999999999651544e+02 9.8315113184665738e-11 1.3151385746672895e-10  1.9999999999715283e+02 -4.2277969383091276e-10 -4.9550007079479006e-11  1.9999999999632769e+02 2.4101504981635543e-11 -4.5940303156281526e-11  1.9999999999647196e+02 5.0778987883125743e-10 1.1064824867582659e-10  1.9999999999636356e+02 -2.1921541294235238e-11 -1.5893926802133969e-11  1.9999999999713705e+02 -3.1229145532332208e-11 -1.9423087504907063e-10  1.9999999999720748e+02 7.7909704257119415e-11 -1.1527834137137965e-10  1.9999999999708828e+02 -2.4489293133303616e-11 -2.0613452386859235e-10  1.9999999999725199e+02 6.2428147672753574e-11 -9.6433782629074600e-11  1.9999999999535825e+02 -5.0067091564348964e-11 -9.4750660117812972e-11  1.9999999999436272e+02 -1.6920490494601897e-11 -1.3920174103673745e-10  1.9999999999446928e+02 6.1913722799673561e-11 -2.2419176967472633e-11  1.9999999999467175e+02 9.7719464888132373e-11 1.4182334026130038e-10  1.9999999999537249e+02 -4.2497813266562283e-10 -5.8300272386894613e-11  1.9999999999447604e+02 5.0571862851768332e-11 -4.0204420354689313e-12  1.9999999999467107e+02 5.5460681429799745e-10 1.1760930169526849e-10  1.9999999999442338e+02 -8.3112771623341261e-11 5.3727924190117539e-11  1.9999999999534916e+02 -1.1237050704415206e-11 -1.6107853852908969e-10  1.9999999999539892e+02 1.0728239741243374e-11 -3.0056277013554751e-11  1.9999999999519829e+02 -2.8051616622651238e-11 -2.2883817459687324e-10  1.9999999999537346e+02 3.7085176755199677e-11 -6.5417102836532471e-11  1.9999999999895317e+02 -6.7851838158477315e-11 -9.4250572363962279e-11  1.9999999999809211e+02 -1.8210430783727145e-10 -2.1399178705324635e-10  1.9999999999817294e+02 8.1295090124287550e-12 6.6171402694295371e-12  1.9999999999819707e+02 1.8201048754981964e-10 1.3653784335974026e-10  1.9999999999815816e+02 1.4214053768882214e-11 -8.7311476040126873e-11  1.9999999999902147e+02 -6.3325422419820511e-11 -1.8173344349735920e-10  1.9999999999902232e+02 -1.4235803181956041e-10 -1.2253833952001953e-10  1.9999999999960747e+02 -3.2798496330653724e-11 -7.5712599419535987e-11  2.0000000000005696e+02 -1.8276410751033838e-11 -8.1798983751810686e-11  2.0000000000057128e+02 1.6468862610744316e-10 1.1816676652448803e-10  1.9999999999897258e+02 6.8741193755684611e-11 8.6831423910503507e-12  2.0000000000003143e+02 -1.1588793938114436e-11 -6.1214526163098087e-11  1.9999999999717807e+02 -5.0077510556475909e-11 -4.8481843103595183e-11  1.9999999999621343e+02 -1.0156498468040363e-10 -1.3035122233465612e-10  1.9999999999637959e+02 1.0084054262773403e-10 -5.3109826618709013e-12  1.9999999999645266e+02 9.2011937658875027e-11 9.4433820040142092e-11  1.9999999999635190e+02 9.9978321800404615e-12 2.6969907088830670e-11  1.9999999999718500e+02 -4.5184173666346746e-11 -1.8075956583368536e-10  1.9999999999715186e+02 -1.2492206238163100e-10 -1.0818492643161516e-10  1.9999999999723934e+02 1.8534130583037831e-11 -5.1633180019271740e-12  1.9999999999536277e+02 -6.5763128471725294e-11 -9.1032764946563727e-11  1.9999999999448613e+02 -4.9673088253828255e-11 -1.1194294811400898e-10  1.9999999999450912e+02 5.8485306510908287e-11 1.1467459715945153e-11  1.9999999999468287e+02 1.1992605421538664e-10 5.9754522597289452e-11  1.9999999999451811e+02 7.1958033898317872e-11 4.2542988276726261e-12  1.9999999999531252e+02 -6.2705589025197604e-11 -1.3813884948444143e-10  1.9999999999536672e+02 -1.1204849708972600e-10 -8.9980268305645261e-11  1.9999999999544238e+02 3.4469930404312309e-11 -4.8005661449648350e-11  1.9999999999896664e+02 -4.3007650512079137e-11 -9.4992053421908941e-11  1.9999999999813775e+02 -1.7646756871104076e-10 -2.1046304789638743e-10  1.9999999999815228e+02 -2.5799526740689650e-11 -6.9673642567804237e-11  1.9999999999817331e+02 1.4778740521065807e-10 1.2153369122699176e-10  1.9999999999901706e+02 -1.0864964118247815e-10 -2.1698040844737455e-10  1.9999999999958592e+02 -6.0373175267212255e-11 -6.6391863955689543e-11  2.0000000000007412e+02 -6.2971525052121036e-11 -1.0541399503794005e-10  2.0000000000056303e+02 1.5272324142325893e-10 1.3805108188680302e-10  1.9999999999999062e+02 -7.1831020905959594e-11 -9.0276650850120608e-11  1.9999999999714947e+02 -3.6450847292016455e-11 -1.1196665592576568e-10  1.9999999999713941e+02 -9.6263654059760415e-11 -2.0355009907835801e-10  1.9999999999536203e+02 -5.4133705958635565e-11 -1.0845349547417577e-10  1.9999999999441832e+02 -7.9698422008986814e-11 -1.2742991760286879e-10  1.9999999999446862e+02 2.8155831567411482e-11 -3.2137152511823855e-11  1.9999999999465766e+02 7.9974104664383209e-11 7.7201514582789478e-11  1.9999999999538366e+02 -6.4080503063655399e-11 -2.2962308698039089e-10  1.9999999999907070e+02 -1.2043584686168254e-10 -1.6025876859806002e-10  1.9999999999815083e+02 6.8129617333443491e-11 -2.6444338965691622e-10  1.9999999999813068e+02 9.4568005687045239e-11 -6.8747759584190699e-11  1.9999999999824803e+02 9.1688855277051920e-11 1.5187446971058157e-10  1.9999999999899055e+02 -4.1808521689649119e-10 -1.2475535488871549e-10  1.9999999999821037e+02 2.9168901438116560e-11 -8.3145903333173641e-11  1.9999999999824502e+02 5.4401974433336506e-10 1.6243591821211454e-10  1.9999999999823061e+02 -1.9149085372129941e-12 -5.5555528313100292e-11  1.9999999999997948e+02 4.1966313520584531e-11 -1.3339557570838999e-10  2.0000000000056295e+02 5.8079053287420334e-10 1.1414724083880791e-10  1.9999999999910551e+02 -1.1773362421462715e-10 -1.8732910774300927e-10  1.9999999999904273e+02 8.5893917778742369e-11 -4.8165966438051327e-11  1.9999999999904193e+02 -6.9859214143213286e-11 -1.7054484700425225e-10  1.9999999999955574e+02 -1.4479492940876874e-10 -1.2619092948413896e-10  1.9999999999995040e+02 -7.7651291726882004e-11 -4.9257807098222102e-11  2.0000000000058489e+02 1.9265867915800391e-10 1.1175752346455617e-10  1.9999999999901058e+02 6.8842248646788467e-11 -1.1468000766968313e-10  2.0000000000002947e+02 -5.0858357302869352e-11 -1.3671974395365889e-10  1.9999999999718796e+02 -1.0074397595897629e-10 -1.0178552902070923e-10  1.9999999999621048e+02 -2.7413335447989295e-11 -1.2327046170320069e-10  1.9999999999634042e+02 9.3887020406358910e-11 -8.0434978297041416e-11  1.9999999999652880e+02 8.7900631411218092e-11 1.2727740701681884e-10  1.9999999999724312e+02 -3.7848874119031898e-10 -8.0961153567490023e-11  1.9999999999633897e+02 3.8167434266690107e-11 -1.2882614031131897e-11  1.9999999999647869e+02 5.3620782597536824e-10 8.9302548944268327e-11  1.9999999999639797e+02 -1.2272841958619144e-10 2.6354653443860557e-11  1.9999999999716232e+02 -1.7707218336580156e-11 -1.3141391395255332e-10  1.9999999999727834e+02 4.1734877730323810e-11 -4.4178042977437502e-11  1.9999999999709053e+02 2.8485654960894777e-11 -2.2018416993486064e-10  1.9999999999722661e+02 9.2300267022023192e-11 -6.8071428879509403e-11  1.9999999999540259e+02 -6.5265186257894543e-11 -6.2201148991579599e-11  1.9999999999434741e+02 -1.6652303222828499e-11 -1.2583430241913351e-10  1.9999999999445077e+02 4.7644864017678517e-11 1.1548203042687586e-11  1.9999999999467494e+02 7.1201967397973022e-11 9.4609613919776955e-11  1.9999999999539676e+02 -4.4814716524769152e-10 -4.2425923801839348e-11  1.9999999999441894e+02 1.0836788990906163e-10 -8.6690821469390013e-12  1.9999999999464876e+02 5.6432840564311740e-10 6.9138529326932232e-11  1.9999999999441440e+02 -4.7657507979067764e-11 1.6991700443148765e-11  1.9999999999535217e+02 -2.0878006269021885e-11 -2.0810698765290306e-10  1.9999999999537010e+02 8.3503064387629637e-11 -1.5006764719892308e-10  1.9999999999524789e+02 4.2936937232268996e-13 -1.7236978724015853e-10  1.9999999999539747e+02 4.3142027815294408e-11 -1.1364418224943093e-10  1.9999999999895394e+02 -3.8418281658184244e-11 -9.7602627867974823e-11  1.9999999999812508e+02 -1.3714457196408796e-10 -2.4538471881939625e-10  1.9999999999812994e+02 4.2553991435855699e-12 -4.2286105182446159e-11  1.9999999999816836e+02 1.6093081168494984e-10 1.0398662098089482e-10  1.9999999999818846e+02 4.5749672867411319e-11 -7.5467818736277566e-11  1.9999999999902300e+02 -6.8365719960634013e-11 -2.1903265841887632e-10  1.9999999999904651e+02 -1.2558074945436613e-10 -1.1805404756237108e-10  1.9999999999958277e+0