<?xml version="1.0"?>
<VTKFile type="UnstructuredGrid"  version="0.1"  >
<UnstructuredGrid>
<Piece  NumberOfPoints="3936" NumberOfCells="19236">
<Points>
<DataArray  type="Float64"  NumberOfComponents="3"  format="ascii">12.5 27.5 37.5  12.5 28.75 38.75  12.5 27.5 38.75  11.25 28.75 38.75  11.25 27.5 38.75  12.5 27.5 40  12.5 28.75 40  11.25 28.75 40  11.25 27.5 40  12.5 28.75 41.25  11.25 28.75 41.25  12.5 27.5 41.25  11.25 27.5 41.25  12.5 27.5 42.5  12.5 28.75 42.5  12.5 30 42.5  10 27.5 42.5  11.25 28.75 42.5  11.25 27.5 42.5  10 28.75 42.5  10 30 42.5  11.25 30 42.5  10 28.75 43.75  8.75 28.75 43.75  10 30 43.75  10 30 45  10 27.5 43.75  8.75 27.5 43.75  10 27.5 45  10 28.75 45  8.75 28.75 45  8.75 27.5 45  7.5 30 45  8.75 30 45  11.25 28.75 43.75  12.5 28.75 43.75  12.5 30 43.75  12.5 30 45  11.25 27.5 43.75  12.5 27.5 43.75  12.5 27.5 45  12.5 28.75 45  11.25 28.75 45  11.25 27.5 45  11.25 30 43.75  11.25 30 45  11.25 31.25 43.75  12.5 31.25 43.75  11.25 31.25 45  10 28.75 46.25  8.75 28.75 46.25  10 30 46.25  10 30 47.5  10 27.5 46.25  8.75 27.5 46.25  10 27.5 47.5  10 28.75 47.5  7.5 27.5 47.5  8.75 28.75 47.5  8.75 27.5 47.5  8.75 30 46.25  7.5 28.75 47.5  7.5 30 47.5  8.75 30 47.5  7.5 30 46.25  11.25 28.75 46.25  12.5 28.75 46.25  12.5 30 46.25  12.5 30 47.5  11.25 27.5 46.25  12.5 27.5 46.25  12.5 27.5 47.5  12.5 28.75 47.5  11.25 28.75 47.5  11.25 27.5 47.5  11.25 30 46.25  11.25 30 47.5  8.75 31.25 46.25  10 31.25 46.25  10 31.25 47.5  8.75 31.25 47.5  11.25 31.25 46.25  12.5 31.25 46.25  12.5 31.25 47.5  12.5 32.5 47.5  11.25 31.25 47.5  8.75 28.75 48.75  10 28.75 48.75  10 30 48.75  10 30 50  8.75 30 48.75  7.5 30 50  8.75 30 50  11.25 28.75 48.75  12.5 28.75 48.75  12.5 30 48.75  12.5 30 50  11.25 30 48.75  11.25 30 50  13.75 28.75 48.75  13.75 30 48.75  13.75 30 50  15 30 50  8.75 31.25 48.75  10 31.25 48.75  10 31.25 50  10 32.5 50  8.75 31.25 50  7.5 31.25 50  7.5 32.5 50  8.75 32.5 50  11.25 31.25 48.75  12.5 31.25 48.75  12.5 31.25 50  12.5 32.5 50  11.25 31.25 50  11.25 32.5 50  13.75 31.25 48.75  13.75 31.25 50  15 31.25 50  15 32.5 50  13.75 32.5 50  17.5 27.5 27.5  18.75 28.75 28.75  18.75 27.5 28.75  18.75 27.5 27.5  20 27.5 27.5  20 27.5 28.75  20 27.5 30  17.5 27.5 28.75  17.5 27.5 30  18.75 27.5 30  21.25 28.75 28.75  21.25 27.5 28.75  21.25 27.5 27.5  22.5 27.5 27.5  22.5 27.5 28.75  22.5 27.5 30  21.25 27.5 30  21.25 28.75 31.25  21.25 27.5 31.25  22.5 28.75 31.25  22.5 27.5 31.25  22.5 27.5 32.5  22.5 28.75 32.5  22.5 30 32.5  20 27.5 31.25  20 27.5 32.5  21.25 28.75 32.5  21.25 27.5 32.5  23.75 28.75 31.25  23.75 28.75 30  23.75 27.5 30  25 27.5 30  23.75 27.5 31.25  25 27.5 31.25  25 27.5 32.5  23.75 28.75 32.5  23.75 27.5 32.5  15 27.5 32.5  15 28.75 33.75  15 27.5 33.75  13.75 28.75 33.75  13.75 27.5 33.75  13.75 27.5 32.5  15 27.5 35  12.5 27.5 35  13.75 27.5 35  16.25 28.75 33.75  16.25 27.5 33.75  16.25 27.5 32.5  17.5 27.5 32.5  17.5 28.75 33.75  17.5 27.5 33.75  17.5 27.5 35  16.25 28.75 35  16.25 27.5 35  18.75 28.75 33.75  18.75 27.5 33.75  18.75 27.5 32.5  20 28.75 33.75  20 27.5 33.75  20 27.5 35  20 28.75 35  18.75 28.75 35  18.75 27.5 35  21.25 28.75 33.75  22.5 28.75 33.75  21.25 27.5 33.75  22.5 27.5 33.75  22.5 27.5 35  22.5 28.75 35  21.25 28.75 35  21.25 27.5 35  23.75 28.75 33.75  23.75 27.5 33.75  25 27.5 33.75  25 27.5 35  23.75 28.75 35  23.75 27.5 35  25 28.75 35  25 30 35  13.75 28.75 36.25  13.75 27.5 36.25  15 28.75 36.25  15 27.5 36.25  15 27.5 37.5  15 28.75 37.5  15 30 37.5  12.5 27.5 36.25  13.75 27.5 37.5  12.5 28.75 36.25  16.25 28.75 36.25  16.25 27.5 36.25  17.5 28.75 36.25  17.5 27.5 36.25  17.5 27.5 37.5  17.5 28.75 37.5  17.5 30 37.5  16.25 28.75 37.5  16.25 27.5 37.5  16.25 30 37.5  18.75 28.75 36.25  20 28.75 36.25  18.75 27.5 36.25  20 27.5 36.25  20 27.5 37.5  20 28.75 37.5  20 30 37.5  18.75 28.75 37.5  18.75 27.5 37.5  18.75 30 37.5  21.25 28.75 36.25  22.5 28.75 36.25  21.25 27.5 36.25  22.5 27.5 36.25  22.5 27.5 37.5  22.5 28.75 37.5  22.5 30 37.5  21.25 28.75 37.5  21.25 27.5 37.5  23.75 28.75 36.25  23.75 27.5 36.25  25 27.5 36.25  25 27.5 37.5  23.75 28.75 37.5  23.75 27.5 37.5  25 28.75 37.5  25 30 37.5  23.75 30 37.5  15 28.75 38.75  13.75 28.75 38.75  13.75 27.5 38.75  15 27.5 38.75  15 27.5 40  15 28.75 40  15 30 40  13.75 28.75 40  13.75 27.5 40  16.25 28.75 38.75  17.5 28.75 38.75  17.5 30 38.75  17.5 30 40  16.25 27.5 38.75  17.5 27.5 38.75  17.5 27.5 40  17.5 28.75 40  16.25 28.75 40  16.25 27.5 40  16.25 30 40  18.75 28.75 38.75  20 28.75 38.75  20 30 38.75  20 30 40  18.75 27.5 38.75  20 27.5 38.75  20 27.5 40  20 28.75 40  18.75 28.75 40  18.75 27.5 40  18.75 30 38.75  18.75 30 40  21.25 28.75 38.75  22.5 28.75 38.75  22.5 30 38.75  22.5 30 40  21.25 27.5 38.75  22.5 27.5 38.75  22.5 27.5 40  22.5 28.75 40  21.25 28.75 40  21.25 27.5 40  21.25 30 40  23.75 28.75 38.75  25 28.75 38.75  25 30 38.75  25 30 40  23.75 27.5 38.75  25 27.5 38.75  25 27.5 40  25 28.75 40  23.75 28.75 40  23.75 27.5 40  23.75 30 38.75  23.75 30 40  26.25 28.75 38.75  18.75 31.25 38.75  23.75 31.25 38.75  13.75 28.75 41.25  15 28.75 41.25  15 30 41.25  15 30 42.5  13.75 27.5 41.25  15 27.5 41.25  15 27.5 42.5  15 28.75 42.5  13.75 28.75 42.5  13.75 27.5 42.5  13.75 30 42.5  16.25 28.75 41.25  17.5 28.75 41.25  17.5 30 41.25  17.5 30 42.5  16.25 27.5 41.25  17.5 27.5 41.25  17.5 27.5 42.5  17.5 28.75 42.5  16.25 28.75 42.5  16.25 27.5 42.5  16.25 30 41.25  16.25 30 42.5  18.75 28.75 41.25  20 28.75 41.25  20 30 41.25  20 30 42.5  18.75 27.5 41.25  20 27.5 41.25  20 27.5 42.5  20 28.75 42.5  18.75 28.75 42.5  18.75 27.5 42.5  18.75 30 41.25  18.75 30 42.5  21.25 28.75 41.25  22.5 28.75 41.25  22.5 30 41.25  22.5 30 42.5  21.25 27.5 41.25  22.5 27.5 41.25  22.5 27.5 42.5  22.5 28.75 42.5  21.25 28.75 42.5  21.25 27.5 42.5  21.25 30 41.25  21.25 30 42.5  23.75 28.75 41.25  25 28.75 41.25  25 30 41.25  25 30 42.5  23.75 27.5 41.25  25 27.5 41.25  25 27.5 42.5  25 28.75 42.5  23.75 28.75 42.5  23.75 27.5 42.5  23.75 30 41.25  23.75 30 42.5  26.25 28.75 41.25  16.25 31.25 41.25  17.5 31.25 41.25  17.5 31.25 42.5  17.5 32.5 42.5  16.25 31.25 42.5  18.75 31.25 41.25  18.75 31.25 42.5  21.25 31.25 41.25  13.75 28.75 43.75  15 28.75 43.75  15 30 43.75  15 30 45  13.75 27.5 43.75  15 27.5 43.75  15 27.5 45  15 28.75 45  13.75 28.75 45  13.75 27.5 45  13.75 30 43.75  13.75 30 45  16.25 28.75 43.75  17.5 28.75 43.75  17.5 30 43.75  17.5 30 45  16.25 27.5 43.75  17.5 27.5 43.75  17.5 27.5 45  17.5 28.75 45  16.25 28.75 45  16.25 27.5 45  16.25 30 43.75  16.25 30 45  18.75 28.75 43.75  20 28.75 43.75  20 30 43.75  20 30 45  18.75 27.5 43.75  20 27.5 43.75  20 27.5 45  20 28.75 45  18.75 28.75 45  18.75 27.5 45  18.75 30 43.75  18.75 30 45  21.25 28.75 43.75  22.5 28.75 43.75  22.5 30 43.75  22.5 30 45  21.25 27.5 43.75  22.5 27.5 43.75  22.5 27.5 45  22.5 28.75 45  21.25 28.75 45  21.25 27.5 45  21.25 30 43.75  21.25 30 45  23.75 28.75 43.75  23.75 27.5 43.75  25 27.5 43.75  25 27.5 45  23.75 28.75 45  23.75 27.5 45  25 28.75 45  25 30 45  23.75 30 43.75  25 30 43.75  23.75 30 45  13.75 31.25 43.75  13.75 31.25 45  16.25 31.25 43.75  17.5 31.25 43.75  17.5 31.25 45  17.5 32.5 45  16.25 31.25 45  18.75 31.25 43.75  20 31.25 43.75  20 31.25 45  20 32.5 45  18.75 31.25 45  21.25 31.25 43.75  21.25 31.25 45  13.75 28.75 46.25  15 28.75 46.25  15 30 46.25  15 30 47.5  13.75 27.5 46.25  15 27.5 46.25  15 27.5 47.5  15 28.75 47.5  13.75 28.75 47.5  13.75 27.5 47.5  13.75 30 46.25  13.75 30 47.5  16.25 28.75 46.25  17.5 28.75 46.25  17.5 30 46.25  17.5 30 47.5  16.25 27.5 46.25  17.5 27.5 46.25  17.5 27.5 47.5  17.5 28.75 47.5  16.25 28.75 47.5  16.25 27.5 47.5  16.25 30 46.25  16.25 30 47.5  18.75 28.75 46.25  20 28.75 46.25  20 30 46.25  20 30 47.5  18.75 27.5 46.25  20 27.5 46.25  20 27.5 47.5  20 28.75 47.5  18.75 28.75 47.5  18.75 27.5 47.5  18.75 30 46.25  18.75 30 47.5  21.25 28.75 46.25  22.5 28.75 46.25  22.5 30 46.25  22.5 30 47.5  21.25 27.5 46.25  22.5 27.5 46.25  22.5 27.5 47.5  22.5 28.75 47.5  21.25 28.75 47.5  21.25 27.5 47.5  21.25 30 46.25  21.25 30 47.5  23.75 28.75 46.25  25 28.75 46.25  25 30 46.25  25 30 47.5  23.75 27.5 46.25  25 27.5 46.25  25 27.5 47.5  25 28.75 47.5  23.75 28.75 47.5  23.75 27.5 47.5  23.75 30 47.5  13.75 31.25 46.25  15 31.25 46.25  15 31.25 47.5  15 32.5 47.5  13.75 31.25 47.5  16.25 31.25 46.25  17.5 31.25 46.25  17.5 32.5 46.25  17.5 32.5 47.5  17.5 31.25 47.5  16.25 31.25 47.5  16.25 32.5 47.5  18.75 31.25 46.25  20 31.25 46.25  20 32.5 46.25  20 32.5 47.5  20 31.25 47.5  18.75 31.25 47.5  18.75 32.5 47.5  21.25 31.25 46.25  21.25 31.25 47.5  15 28.75 48.75  15 30 48.75  16.25 28.75 48.75  17.5 28.75 48.75  17.5 30 48.75  17.5 30 50  16.25 30 48.75  16.25 30 50  18.75 28.75 48.75  20 28.75 48.75  20 30 48.75  20 30 50  18.75 30 48.75  18.75 30 50  21.25 28.75 48.75  22.5 28.75 48.75  22.5 30 48.75  22.5 30 50  21.25 30 48.75  21.25 30 50  23.75 28.75 48.75  15 31.25 48.75  15 32.5 48.75  16.25 31.25 48.75  17.5 31.25 48.75  17.5 32.5 48.75  17.5 32.5 50  17.5 31.25 50  16.25 31.25 50  16.25 32.5 48.75  16.25 32.5 50  18.75 31.25 48.75  20 31.25 48.75  18.75 31.25 50  21.25 31.25 48.75  21.25 31.25 50  16.25 33.75 48.75  16.25 33.75 50  10 22.5 45  11.25 22.5 45  11.25 21.25 45  11.25 21.25 43.75  12.5 22.5 45  11.25 22.5 43.75  11.25 23.75 45  11.25 23.75 43.75  12.5 23.75 45  12.5 25 45  10 23.75 45  10 25 45  11.25 25 45  10 26.25 43.75  8.75 26.25 43.75  10 25 42.5  10 25 43.75  10 26.25 45  8.75 26.25 45  11.25 22.5 46.25  11.25 21.25 46.25  12.5 22.5 46.25  12.5 22.5 47.5  10 22.5 47.5  11.25 22.5 47.5  11.25 21.25 47.5  10 22.5 46.25  10 23.75 46.25  8.75 23.75 46.25  10 25 46.25  10 25 47.5  10 23.75 47.5  8.75 25 46.25  11.25 23.75 46.25  12.5 23.75 46.25  12.5 25 46.25  12.5 25 47.5  12.5 23.75 47.5  11.25 23.75 47.5  11.25 25 46.25  11.25 25 47.5  10 26.25 46.25  8.75 26.25 46.25  10 26.25 47.5  8.75 26.25 47.5  11.25 26.25 46.25  11.25 26.25 47.5  12.5 26.25 47.5  11.25 22.5 48.75  11.25 21.25 48.75  12.5 22
[...]
<PointData  Vectors="u"> 
<DataArray  type="Float64"  Name="u"  NumberOfComponents="3" format="ascii">1.9999999999105131e+02 -1.1701887458225689e-10 7.7089518951949106e-11  1.9999999999081243e+02 -8.5542098089427858e-11 -1.8243675699826791e-10  1.9999999999085651e+02 7.1003410927733157e-11 -7.3444119228984079e-11  1.9999999999169765e+02 -4.9710696458870118e-11 -1.4457784643772802e-10  1.9999999999169023e+02 -5.5680754528246248e-11 -1.3935605180239213e-10  1.9999999999104321e+02 -1.6616455983264109e-10 8.4702222916181659e-11  1.9999999999088416e+02 6.4386264910778550e-12 3.3958583995981746e-11  1.9999999999167440e+02 1.8702187074279200e-11 -1.8712957937855794e-10  1.9999999999178272e+02 -1.6502825635350957e-11 -1.5661459111835544e-10  1.9999999999091739e+02 5.5328290169898251e-11 -1.4010143589938223e-10  1.9999999999170993e+02 -2.4909511325525156e-11 -8.6072086764012534e-11  1.9999999999088135e+02 8.6755610336258204e-11 -4.9021031379265022e-11  1.9999999999165712e+02 -9.2872328372285493e-11 -1.2873821966593217e-10  1.9999999999104369e+02 -1.2573481315334540e-10 1.3054797369108714e-10  1.9999999999087871e+02 -1.6944047911369251e-11 6.7699998300277608e-11  1.9999999999111563e+02 4.3636457488209585e-12 1.3171731556072228e-10  1.9999999999285905e+02 -1.7258823413802700e-10 6.9130027742670071e-11  1.9999999999173238e+02 2.2042316565382361e-11 -2.0564960613474721e-10  1.9999999999182231e+02 6.0077136169936871e-12 -1.2723114819178733e-10  1.9999999999275218e+02 -2.5761494428395285e-11 -1.0449211598699119e-11  1.9999999999289562e+02 -2.5213510810484001e-11 1.3867835929594891e-10  1.9999999999179659e+02 -4.4842247604177316e-11 -7.0343425372456055e-11  1.9999999999254570e+02 4.2709274892275340e-11 -1.6043219394255163e-10  1.9999999999353054e+02 -3.2797923981614130e-11 -1.2717167262546256e-10  1.9999999999268428e+02 -1.9567154711096016e-11 -3.4594507247455757e-11  1.9999999999288966e+02 -1.3085127810857530e-12 1.1663946164042387e-10  1.9999999999265864e+02 5.4919929226319104e-11 -6.7335183700087066e-11  1.9999999999346801e+02 1.2856645127629663e-11 -1.8328675763434277e-10  1.9999999999286783e+02 -1.4129075146282599e-10 8.8989248017034466e-11  1.9999999999277321e+02 -6.8919425725407081e-12 -1.6862566804034485e-12  1.9999999999347045e+02 5.9776307420989973e-11 -1.8576558181486885e-10  1.9999999999361108e+02 8.3502136664399663e-11 -1.1197171618785741e-10  1.9999999999467258e+02 -3.0696594200188158e-11 1.2676392043745434e-10  1.9999999999360054e+02 -1.5156363983193991e-11 -7.2188632036606539e-11  1.9999999999178624e+02 -2.0238414342429789e-11 -1.0295275658409404e-10  1.9999999999080967e+02 5.0802723157724159e-11 -1.7941948613824521e-10  1.9999999999088880e+02 7.9705192086859298e-12 -2.7166792177098233e-11  1.9999999999111040e+02 2.1837701905921024e-11 1.0941792221736616e-10  1.9999999999170581e+02 -5.9656166445223529e-12 -1.9182228678277536e-10  1.9999999999087291e+02 1.0274237674454558e-10 -9.3966162425417885e-11  1.9999999999106586e+02 -1.2756686680237390e-10 1.1590230491306460e-10  1.9999999999086401e+02 1.1454417707202181e-11 9.2067109485211055e-12  1.9999999999171055e+02 6.7074665756887740e-11 -1.9083047444769093e-10  1.9999999999180693e+02 6.4623648548443330e-11 -7.3752616917228814e-11  1.9999999999164334e+02 -1.0846004700364206e-11 -2.1251299017787995e-10  1.9999999999181389e+02 6.0842111308322884e-12 -1.1494772252424162e-10  1.9999999999178840e+02 -9.0155673952711247e-11 -6.0303917625701834e-11  1.9999999999083451e+02 -1.0017176055040869e-10 -1.1511495770363756e-10  1.9999999999175000e+02 -1.1365419642907234e-10 -2.4462267066150661e-10  1.9999999999259515e+02 8.8657985433706086e-11 -1.4445232693302485e-10  1.9999999999351476e+02 -2.2353508372950979e-11 -8.6187937990037915e-11  1.9999999999265154e+02 -3.5715100998405399e-11 -8.4030858330733845e-11  1.9999999999287235e+02 -3.3196321779033180e-12 1.0855807954593679e-10  1.9999999999272922e+02 5.9385223419526752e-11 -7.2509088674148419e-11  1.9999999999345638e+02 5.3731071033992182e-11 -1.2701475002204674e-10  1.9999999999282676e+02 -7.3022423365858385e-11 7.3975000077060425e-11  1.9999999999273771e+02 -1.7247779682764651e-11 1.3473661215454450e-11  1.9999999999460525e+02 -1.0083098185494582e-10 6.1952772465999605e-11  1.9999999999350123e+02 6.1687146819259986e-11 -1.3202466508116805e-10  1.9999999999359815e+02 1.2167310564636568e-10 -9.0153168076332395e-11  1.9999999999344899e+02 -3.5997671035931981e-11 -2.2853854375819428e-10  1.9999999999453712e+02 -2.0090310323000642e-11 -9.7244837573630690e-12  1.9999999999468511e+02 -2.2685221860110584e-11 1.0681573807697600e-10  1.9999999999355788e+02 -3.1660324254281514e-11 -1.0960941615501315e-10  1.9999999999442329e+02 -4.5191891155543980e-11 -5.1213146089993118e-11  1.9999999999177027e+02 -6.0669471712431553e-11 -8.8001254696228028e-11  1.9999999999081496e+02 3.7815420951313065e-11 -1.4983769759866176e-10  1.9999999999094527e+02 -1.1600324275886412e-12 -1.3640084812573082e-10  1.9999999999109778e+02 -1.3233089490425855e-11 7.8210686055903905e-11  1.9999999999171618e+02 5.5174929561175397e-11 -1.7262576424280485e-10  1.9999999999088496e+02 4.7823862132394111e-11 -3.1773713454847001e-11  1.9999999999105805e+02 -7.4080889955078058e-11 1.2603421700740824e-11  1.9999999999088550e+02 -5.6374188046289029e-11 -3.6614522751021580e-11  1.9999999999173545e+02 2.2885402689353901e-11 -1.6579276772778378e-10  1.9999999999183160e+02 1.4462989626212810e-10 -1.1172340174466382e-10  1.9999999999162617e+02 1.4509448671218613e-11 -2.4780511961365084e-10  1.9999999999176029e+02 -1.2850102323350658e-11 -1.0112092768462854e-10  1.9999999999354600e+02 -1.1048635294609558e-10 -7.0317999828622464e-11  1.9999999999258458e+02 -1.0146758069868179e-10 -1.3826491244857561e-10  1.9999999999273228e+02 -7.2747669741938228e-11 -3.2803246030241800e-11  1.9999999999352235e+02 -1.0924345571980329e-10 -1.8243484705970005e-10  1.9999999999176913e+02 -9.6548965792691300e-11 -9.9388625802610317e-11  1.9999999999085881e+02 -9.4301983135415270e-11 -1.8070383479812016e-10  1.9999999999088138e+02 -3.2114692553727903e-12 -2.1749846301981732e-11  1.9999999999106439e+02 8.6791878844680087e-11 4.3999176515149325e-11  1.9999999999172763e+02 -7.1044686096467120e-11 -1.6674595537982129e-10  1.9999999999353562e+02 2.7831967301791312e-13 4.7979140054742821e-12  1.9999999999251779e+02 1.0438633963090885e-12 4.4169837387998652e-12  1.9999999999265941e+02 -2.6598353134144591e-11 1.6150218741703255e-11  1.9999999999286302e+02 3.5387935921311433e-12 -5.4931563986220509e-10  1.9999999999342376e+02 -1.7120780520496149e-11 -9.1299082268218235e-11  1.9999999999463472e+02 -6.9694159190148839e-12 -5.0606826189631093e-10  1.9999999999357092e+02 1.3611180575929742e-11 -1.2947046905922864e-11  1.9999999999173511e+02 5.6469093338602634e-12 7.4780827924037334e-12  1.9999999999074262e+02 -2.4980838057795856e-12 2.9150742062791280e-11  1.9999999999085597e+02 -1.0479843547942794e-11 2.2146053001842595e-11  1.9999999999106450e+02 -8.5927618807822091e-12 -5.3708069783197149e-10  1.9999999999164390e+02 -3.1136666349210590e-11 -3.5815812767832282e-11  1.9999999999179957e+02 2.3748631169125607e-11 -4.4038510889694060e-11  1.9999999998995247e+02 -6.4832723090695435e-13 5.0443045917363076e-11  1.9999999998985325e+02 4.8912920946175062e-11 1.0960748344478042e-10  1.9999999999003342e+02 3.3534180189185979e-11 -5.6644604133416613e-11  1.9999999998934783e+02 1.5916274513600423e-11 -5.5548844977018041e-10  1.9999999999353975e+02 -1.1784350351839721e-10 4.0967595317064859e-11  1.9999999999253990e+02 -9.8335223525105221e-11 2.6779512165150376e-11  1.9999999999276477e+02 -4.9032725241717433e-11 -3.2829104230711547e-11  1.9999999999280934e+02 4.0690962483953420e-11 -5.2394219296298276e-10  1.9999999999362504e+02 1.1763041059154207e-11 3.6292032449179427e-10  1.9999999999460979e+02 -5.6693806514315669e-11 2.0744357956614150e-11  1.9999999999461332e+02 8.2484539326424823e-12 -5.3369467264553087e-10  1.9999999999368509e+02 3.2499136546598613e-12 3.2240645157285199e-12  1.9999999999174554e+02 -1.1595719314015703e-10 3.4309773806713270e-11  1.9999999999085014e+02 -8.4062646401344447e-11 3.5178694932221536e-11  1.9999999999099961e+02 1.4092728486517426e-11 -5.6060128269059869e-11  1.9999999999101962e+02 1.2786314987680144e-11 -5.4272015913459832e-10  1.9999999999183262e+02 -2.0906527599155679e-11 2.7155345473224514e-10  1.9999999999185908e+02 5.2729852513811930e-11 -1.4248560975708630e-11  1.9999999999000948e+02 -9.4454882458534720e-11 6.1238703547372625e-11  1.9999999999006684e+02 -1.8387786548802935e-11 2.0351683532134199e-10  1.9999999998907469e+02 -1.0020436662352905e-11 3.8696515507219272e-11  1.9999999998928564e+02 4.2757611261796462e-12 -5.6876424300887007e-10  1.9999999999006960e+02 2.1312763625134698e-11 -5.4258109034696423e-11  1.9999999998754541e+02 -1.1058553248655258e-10 1.0267986879433674e-10  1.9999999998648860e+02 -9.9959191268723136e-12 -6.5576793222338379e-11  1.9999999998648443e+02 3.8938139208631716e-11 -9.6335791136667240e-11  1.9999999998655349e+02 -1.8766169911876077e-11 -9.3965967319181447e-11  1.9999999998589215e+02 -6.6204058567552559e-11 1.2250093021154270e-10  1.9999999998567060e+02 9.1907998697331858e-11 -2.8078966415693202e-11  1.9999999998586205e+02 -1.1410833006945267e-10 1.3642792556576773e-10  1.9999999998737093e+02 7.0076269663449183e-11 -2.5853279777579848e-11  1.9999999998755300e+02 -1.1166622919320684e-10 1.3334102741225917e-10  1.9999999998656898e+02 5.5675393536926921e-11 -2.1799604785762483e-11  1.9999999998483156e+02 -8.9239568555346228e-11 -8.4490892892575723e-11  1.9999999998477506e+02 6.8859787740681672e-11 -1.1683162843258305e-10  1.9999999998485094e+02 2.0833893287373013e-11 -2.6517903529697190e-11  1.9999999998417093e+02 -1.1301044367912419e-12 1.1014288735357069e-10  1.9999999998401421e+02 1.4751407718400026e-10 6.8635848439317328e-12  1.9999999998416800e+02 -6.7222154812887892e-11 9.9680298817738335e-11  1.9999999998484660e+02 4.8944775308886868e-11 -1.6784324020835814e-11  1.9999999998481240e+02 -6.7477658269079943e-12 -5.2066356991956100e-11  1.9999999998478353e+02 6.9176879534532541e-11 -1.2675287958079245e-10  1.9999999998387497e+02 7.6981149421870720e-11 -1.0608908947241294e-10  1.9999999998389544e+02 9.4232504600822837e-11 -3.8340155774561805e-11  1.9999999998411479e+02 -8.0320761648617541e-11 1.2493598450053799e-10  1.9999999998403453e+02 4.6236621891560784e-12 1.6764024016071827e-11  1.9999999998418670e+02 -2.8303369139048862e-11 1.3149086004777633e-10  1.9999999998568580e+02 1.0103825211265217e-10 -1.1907630293339254e-11  1.9999999998583144e+02 -9.3509949581376719e-11 1.2900747879145004e-10  1.9999999998476997e+02 6.0716397080803609e-11 -1.2216740354100743e-10  1.9999999998487590e+02 1.1406135862330965e-10 -5.1025734211038903e-11  1.9999999998312447e+02 5.4012992656868000e-11 -4.7034030983955881e-11  1.9999999998306936e+02 5.4229988248524472e-11 -3.1096721360369277e-10  1.9999999998317841e+02 1.9012682460152788e-10 -1.5246014607341352e-10  1.9999999998244925e+02 3.2828059755863939e-11 6.7372757821729768e-11  1.9999999998306788e+02 7.5118669432037619e-11 -1.0684183907130060e-10  1.9999999998236191e+02 1.9407263887475794e-10 3.2757502698162879e-12  1.9999999998246673e+02 -4.2092279791769189e-11 9.9944910358756604e-11  1.9999999998311515e+02 1.2013871581235490e-10 -1.7749735266660744e-10  1.9999999998317139e+02 7.9215778444421465e-11 1.1770266272125523e-11  1.9999999998935584e+02 -1.5452157782995653e-10 9.9386881575889561e-11  1.9999999998908615e+02 4.0134107048432362e-11 -1.1122616858918866e-10  1.9999999998919225e+02 3.6559293780049884e-11 -4.0941907034357256e-11  1.9999999998998172e+02 -2.6635207517133544e-11 -6.8133021130539460e-11  1.9999999998991026e+02 -5.1529435804637484e-11 -8.4461043719637762e-11  1.9999999999007255e+02 1.3953340245482604e-11 -9.8642444188854507e-11  1.9999999998931895e+02 -1.5140870819835331e-10 1.4777889387261889e-10  1.9999999999102772e+02 -1.3641674613353055e-10 9.2953603961053092e-11  1.9999999999006178e+02 4.0383943545176106e-11 -1.5420313451121896e-12  1.9999999998827613e+02 -5.4816445792416597e-11 -9.5088516023322320e-11  1.9999999998823051e+02 5.0232941882657970e-11 -1.1909577810386427e-10  1.9999999998828559e+02 3.2775528310240033e-11 -4.6629146150346457e-11  1.9999999998758889e+02 -1.4169405196432772e-10 1.2778167434168902e-10  1.9999999998732912e+02 6.1245097874926578e-11 -1.1558492463077988e-10  1.9999999998741083e+02 6.1628536665929849e-11 2.5222816921071869e-11  1.9999999998760291e+02 -1.2045461259403082e-10 9.4482729149670097e-11  1.9999999998820348e+02 1.9550149553053331e-12 -1.5322242432689960e-10  1.9999999998829588e+02 4.5167270320933494e-11 -6.8166103877871664e-11  1.9999999998649486e+02 -5.7051768442431844e-11 -8.6748310651294631e-11  1.9999999998649255e+02 4.9909760133002128e-11 -1.1864932204643591e-10  1.9999999998660545e+02 7.9034601242058933e-11 -3.3346864278619122e-11  1.9999999998562535e+02 2.4158327431157329e-11 -1.4330666857271919e-10  1.9999999998565153e+02 5.8537922900557325e-11 -5.7878850805138881e-12  1.9999999998584173e+02 -1.3183613448258243e-10 1.0166434965209576e-10  1.9999999998575328e+02 -5.6781886050738367e-11 3.8304696339522890e-11  1.9999999998648235e+02 1.5575083629487362e-11 -1.5753712558801346e-10  1.9999999998657074e+02 5.5551112685828604e-11 -7.4278480479589395e-11  1.9999999998483236e+02 -2.7171389799374670e-11 -8.7507872421024130e-11  1.9999999998381995e+02 9.2631936137439911e-11 -1.6286255985845575e-10  1.9999999998475997e+02 9.6658650979412776e-11 -1.1127860385504688e-10  1.9999999998396342e+02 7.3587682903567971e-11 -2.1335253270897444e-11  1.9999999998411886e+02 -1.2045354437947387e-10 1.0351608053508623e-10  1.9999999998401384e+02 -1.5315361715604823e-11 -4.0650935197713720e-12  1.9999999998476389e+02 4.2261448431761668e-11 -1.9124238698288870e-10  1.9999999998485353e+02 7.6176064212012445e-11 -7.0946210494241108e-11  1.9999999998312808e+02 4.4140622564933863e-12 -1.0748312021190849e-10  1.9999999998307078e+02 7.0738241317889612e-11 -1.2392268615849960e-10  1.9999999998222978e+02 1.4436296414146113e-10 -1.6245684587334190e-11  1.9999999998241358e+02 -6.3713001868227188e-11 5.3201271464344692e-11  1.9999999998305100e+02 5.3714405505721972e-11 -2.1353016489514656e-10  1.9999999998316773e+02 4.6277716025317220e-11 -6.6178629232631895e-11  1.9999999998235339e+02 -8.0001894666512501e-12 -4.6672146880609110e-11  1.9999999998247571e+02 -4.7026732746291606e-12 7.2641125921440807e-11  1.9999999998993147e+02 -7.4294317793859684e-11 -8.7508477937327126e-11  1.9999999998997947e+02 1.6422490965026936e-11 -1.8100096582242244e-10  1.9999999998907126e+02 -2.6702873094737318e-11 -1.4315253167135763e-10  1.9999999998911397e+02 -2.5326401472460295e-12 -2.6673180270744425e-11  1.9999999998935289e+02 -1.6292268962293823e-10 4.9172910905465971e-11  1.9999999998922814e+02 -4.4078979736848570e-11 -1.2113663980244954e-11  1.9999999998933345e+02 -2.9603072784255376e-11 1.2638371045420887e-10  1.9999999999091554e+02 7.2229830179822265e-11 -4.9522986347969292e-11  1.9999999999005698e+02 5.3640655940160280e-11 -1.3610917690086397e-10  1.9999999999094004e+02 3.1149168320290920e-11 -5.8988428499096798e-11  1.9999999998825788e+02 -6.2785824578557227e-11 -1.0576076512881607e-10  1.9999999998821335e+02 1.8859971820481321e-11 -1.0410775629410151e-10  1.9999999998732446e+02 2.2091507164122442e-11 -1.4498223173024125e-10  1.9999999998739483e+02 -4.4828691203994983e-12 -1.3518090303110852e-11  1.9999999998758202e+02 -1.6457433318675706e-10 6.5981766975929956e-11  1.9999999998748225e+02 -5.7741507454750332e-11 -2.7914089338097259e-11  1.9999999998762570e+02 -3.7384164456234353e-11 1.0349996603862113e-10  1.9999999998819271e+02 -1.3592528567161740e-11 -1.6110994888374922e-10  1.9999999998828551e+02 6.1152858491246124e-11 -1.1290038037144978e-10  1.9999999998826956e+02 -3.5124988078382427e-11 -1.1484409010650652e-10  1.9999999998651893e+02 -3.5793049574558900e-11 -1.2524943202574904e-10  1.9999999998558118e+02 4.2464394834842358e-11 -1.8246576656332720e-10  1.9999999998646558e+02 -2.5372813759752953e-11 -1.4887931126923044e-10  1.9999999998562183e+02 3.5370386564152373e-12 -7.6742804356441666e-11  1.9999999998585821e+02 -1.7153205124354446e-10 4.2954151408880000e-11  1.9999999998571391e+02 -8.0950020296840258e-12 -3.9262598531651355e-11  1.9999999998587919e+02 -6.2922365548956267e-12 8.1465005015633180e-11  1.9999999998646607e+02 6.7847321932842068e-11 -2.0406044665612264e-10  1.9999999998651037e+02 1.3967225754103038e-11 -1.4689042748721943e-10  1.9999999998654798e+02 -1.7293627808827064e-11 -1.0652030251668907e-10  1.9999999998479151e+02 -1.7875057033126306e-11 -1.4531461990077404e-10  1.9999999998387707e+02 5.0309915183548891e-11 -1.8504697284581976e-10  1.9999999998473879e+02 -4.5251585539211920e-12 -1.5745555328094898e-10  1.9999999998397439e+02 4.1698281927526461e-12 -5.0915460594964674e-11  1.9999999998414179e+02 -1.3917701776365439e-10 5.0498354979416626e-11  1.9999999998403200e+02 1.4701773609161314e-11 -3.1402095875440918e-11  1.9999999998416357e+02 9.2767977672808084e-12 1.0938749707321535e-10  1.9999999998476136e+02 4.8798640485956149e-11 -1.8702396613835546e-10  1.9999999998485660e+02 5.4807668501201813e-11 -1.2702029150011855e-10  1.9999999998306899e+02 -2.6998005536585083e-11 -1.1911117538282808e-10  1.9999999998302664e+02 -2.1211344931823575e-11 -1.1891161080760005e-10  1.9999999998226775e+02 1.7050075349479072e-11 3.1528785000791725e-11  1.9999999998243891e+02 -1.2592421043803187e-10 2.9765490681582819e-11  1.9999999998302891e+02 1.1755024669543816e-11 -2.1350566777485372e-10  1.9999999998318398e+02 5.9565153877463159e-11 -1.0388983358926545e-10  1.9999999998237004e+02 -1.6066273471040640e-13 4.7192938326205619e-11  1.9999999998250016e+02 -2.8147383840583988e-11 1.1948331752826719e-10  1.9999999998305844e+02 1.4710887051063977e-11 -1.2276982597129117e-10  1.9999999998903488e+02 2.9675531464157511e-11 -1.6639215233876531e-10  1.9999999998998544e+02 -1.7858467909186201e-11 -1.2285256824502504e-10  1.9999999998993377e+02 6.9338035825632621e-11 -1.6246689005888302e-10  1.9999999998915845e+02 6.1613037773193219e-11 -1.0287923296674963e-10  1.9999999998927356e+02 -1.2086548328544700e-10 1.0331509660447278e-10  1.9999999998925506e+02 -1.1360265589480919e-11 -9.8052894230307055e-11  1.9999999998927237e+02 -2.2943733358778172e-11 1.3899161135009937e-10  1.9999999999008136e+02 -6.2393477190455688e-11 -4.2083445792818376e-11  1.9999999999011007e+02 1.3224839832159867e-10 -4.5001625918734734e-11  1.9999999998826584e+02 -6.2132201813776248e-11 -1.2552056402890948e-10  1.9999999998727742e+02 3.9926684143143550e-11 -1.4958934090603481e-10  1.9999999998741265e+02 -2.9372958925553111e-11 -4.1120950992221997e-11  1.9999999998763204e+02 -2.9129125382811581e-11 1.0772457311042455e-10  1.9999999998824754e+02 3.2928352268556647e-11 -1.7625977041951285e-10  1.9999999998737331e+02 1.3054353805099025e-11 -8.4075760201880295e-11  1.9999999998757482e+02 -1.6192381461247755e-10 7.0952755291985559e-11  1.9999999998745679e+02 -1.3398438023314100e-12 -2.4414081654260935e-11  1.9999999998825459e+02 3.4553983023928259e-11 -2.2405600032959336e-10  1.9999999998831700e+02 5.3307523268629379e-11 -1.2106016889407899e-10  1.9999999998832075e+02 -6.5550261047609373e-11 -9.0494631123193011e-11  1.9999999998650526e+02 -2.8863918813471849e-11 -1.1698149140858897e-10  1.9999999998555157e+02 7.0739853443674366e-11 -1.8378130030455393e-10  1.9999999998567907e+02 -1.8030432591644728e-11 -9.4580720201545374e-11  1.9999999998588885e+02 1.6991128454392967e-12 1.2273488999332185e-10  1.9999999998644168e+02 2.5114519391286818e-11 -1.7993534293745016e-10  1.9999999998565033e+02 6.6079435874755450e-11 -9.6891227827099696e-11  1.9999999998583982e+02 -1.7789948543690463e-10 1.1258448694307772e-10  1.9999999998576641e+02 2.9530748085038360e-11 4.6532630028077059e-12  1.9999999998643156e+02 7.9054719855855544e-11 -1.8910619371906500e-10  1.9999999998655335e+02 3.0308487