<?xml version="1.0"?>
<VTKFile type="UnstructuredGrid"  version="0.1"  >
<UnstructuredGrid>
<Piece  NumberOfPoints="3936" NumberOfCells="19236">
<Points>
<DataArray  type="Float64"  NumberOfComponents="3"  format="ascii">12.5 27.5 37.5  12.5 28.75 38.75  12.5 27.5 38.75  11.25 28.75 38.75  11.25 27.5 38.75  12.5 27.5 40  12.5 28.75 40  11.25 28.75 40  11.25 27.5 40  12.5 28.75 41.25  11.25 28.75 41.25  12.5 27.5 41.25  11.25 27.5 41.25  12.5 27.5 42.5  12.5 28.75 42.5  12.5 30 42.5  10 27.5 42.5  11.25 28.75 42.5  11.25 27.5 42.5  10 28.75 42.5  10 30 42.5  11.25 30 42.5  10 28.75 43.75  8.75 28.75 43.75  10 30 43.75  10 30 45  10 27.5 43.75  8.75 27.5 43.75  10 27.5 45  10 28.75 45  8.75 28.75 45  8.75 27.5 45  7.5 30 45  8.75 30 45  11.25 28.75 43.75  12.5 28.75 43.75  12.5 30 43.75  12.5 30 45  11.25 27.5 43.75  12.5 27.5 43.75  12.5 27.5 45  12.5 28.75 45  11.25 28.75 45  11.25 27.5 45  11.25 30 43.75  11.25 30 45  11.25 31.25 43.75  12.5 31.25 43.75  11.25 31.25 45  10 28.75 46.25  8.75 28.75 46.25  10 30 46.25  10 30 47.5  10 27.5 46.25  8.75 27.5 46.25  10 27.5 47.5  10 28.75 47.5  7.5 27.5 47.5  8.75 28.75 47.5  8.75 27.5 47.5  8.75 30 46.25  7.5 28.75 47.5  7.5 30 47.5  8.75 30 47.5  7.5 30 46.25  11.25 28.75 46.25  12.5 28.75 46.25  12.5 30 46.25  12.5 30 47.5  11.25 27.5 46.25  12.5 27.5 46.25  12.5 27.5 47.5  12.5 28.75 47.5  11.25 28.75 47.5  11.25 27.5 47.5  11.25 30 46.25  11.25 30 47.5  8.75 31.25 46.25  10 31.25 46.25  10 31.25 47.5  8.75 31.25 47.5  11.25 31.25 46.25  12.5 31.25 46.25  12.5 31.25 47.5  12.5 32.5 47.5  11.25 31.25 47.5  8.75 28.75 48.75  10 28.75 48.75  10 30 48.75  10 30 50  8.75 30 48.75  7.5 30 50  8.75 30 50  11.25 28.75 48.75  12.5 28.75 48.75  12.5 30 48.75  12.5 30 50  11.25 30 48.75  11.25 30 50  13.75 28.75 48.75  13.75 30 48.75  13.75 30 50  15 30 50  8.75 31.25 48.75  10 31.25 48.75  10 31.25 50  10 32.5 50  8.75 31.25 50  7.5 31.25 50  7.5 32.5 50  8.75 32.5 50  11.25 31.25 48.75  12.5 31.25 48.75  12.5 31.25 50  12.5 32.5 50  11.25 31.25 50  11.25 32.5 50  13.75 31.25 48.75  13.75 31.25 50  15 31.25 50  15 32.5 50  13.75 32.5 50  17.5 27.5 27.5  18.75 28.75 28.75  18.75 27.5 28.75  18.75 27.5 27.5  20 27.5 27.5  20 27.5 28.75  20 27.5 30  17.5 27.5 28.75  17.5 27.5 30  18.75 27.5 30  21.25 28.75 28.75  21.25 27.5 28.75  21.25 27.5 27.5  22.5 27.5 27.5  22.5 27.5 28.75  22.5 27.5 30  21.25 27.5 30  21.25 28.75 31.25  21.25 27.5 31.25  22.5 28.75 31.25  22.5 27.5 31.25  22.5 27.5 32.5  22.5 28.75 32.5  22.5 30 32.5  20 27.5 31.25  20 27.5 32.5  21.25 28.75 32.5  21.25 27.5 32.5  23.75 28.75 31.25  23.75 28.75 30  23.75 27.5 30  25 27.5 30  23.75 27.5 31.25  25 27.5 31.25  25 27.5 32.5  23.75 28.75 32.5  23.75 27.5 32.5  15 27.5 32.5  15 28.75 33.75  15 27.5 33.75  13.75 28.75 33.75  13.75 27.5 33.75  13.75 27.5 32.5  15 27.5 35  12.5 27.5 35  13.75 27.5 35  16.25 28.75 33.75  16.25 27.5 33.75  16.25 27.5 32.5  17.5 27.5 32.5  17.5 28.75 33.75  17.5 27.5 33.75  17.5 27.5 35  16.25 28.75 35  16.25 27.5 35  18.75 28.75 33.75  18.75 27.5 33.75  18.75 27.5 32.5  20 28.75 33.75  20 27.5 33.75  20 27.5 35  20 28.75 35  18.75 28.75 35  18.75 27.5 35  21.25 28.75 33.75  22.5 28.75 33.75  21.25 27.5 33.75  22.5 27.5 33.75  22.5 27.5 35  22.5 28.75 35  21.25 28.75 35  21.25 27.5 35  23.75 28.75 33.75  23.75 27.5 33.75  25 27.5 33.75  25 27.5 35  23.75 28.75 35  23.75 27.5 35  25 28.75 35  25 30 35  13.75 28.75 36.25  13.75 27.5 36.25  15 28.75 36.25  15 27.5 36.25  15 27.5 37.5  15 28.75 37.5  15 30 37.5  12.5 27.5 36.25  13.75 27.5 37.5  12.5 28.75 36.25  16.25 28.75 36.25  16.25 27.5 36.25  17.5 28.75 36.25  17.5 27.5 36.25  17.5 27.5 37.5  17.5 28.75 37.5  17.5 30 37.5  16.25 28.75 37.5  16.25 27.5 37.5  16.25 30 37.5  18.75 28.75 36.25  20 28.75 36.25  18.75 27.5 36.25  20 27.5 36.25  20 27.5 37.5  20 28.75 37.5  20 30 37.5  18.75 28.75 37.5  18.75 27.5 37.5  18.75 30 37.5  21.25 28.75 36.25  22.5 28.75 36.25  21.25 27.5 36.25  22.5 27.5 36.25  22.5 27.5 37.5  22.5 28.75 37.5  22.5 30 37.5  21.25 28.75 37.5  21.25 27.5 37.5  23.75 28.75 36.25  23.75 27.5 36.25  25 27.5 36.25  25 27.5 37.5  23.75 28.75 37.5  23.75 27.5 37.5  25 28.75 37.5  25 30 37.5  23.75 30 37.5  15 28.75 38.75  13.75 28.75 38.75  13.75 27.5 38.75  15 27.5 38.75  15 27.5 40  15 28.75 40  15 30 40  13.75 28.75 40  13.75 27.5 40  16.25 28.75 38.75  17.5 28.75 38.75  17.5 30 38.75  17.5 30 40  16.25 27.5 38.75  17.5 27.5 38.75  17.5 27.5 40  17.5 28.75 40  16.25 28.75 40  16.25 27.5 40  16.25 30 40  18.75 28.75 38.75  20 28.75 38.75  20 30 38.75  20 30 40  18.75 27.5 38.75  20 27.5 38.75  20 27.5 40  20 28.75 40  18.75 28.75 40  18.75 27.5 40  18.75 30 38.75  18.75 30 40  21.25 28.75 38.75  22.5 28.75 38.75  22.5 30 38.75  22.5 30 40  21.25 27.5 38.75  22.5 27.5 38.75  22.5 27.5 40  22.5 28.75 40  21.25 28.75 40  21.25 27.5 40  21.25 30 40  23.75 28.75 38.75  25 28.75 38.75  25 30 38.75  25 30 40  23.75 27.5 38.75  25 27.5 38.75  25 27.5 40  25 28.75 40  23.75 28.75 40  23.75 27.5 40  23.75 30 38.75  23.75 30 40  26.25 28.75 38.75  18.75 31.25 38.75  23.75 31.25 38.75  13.75 28.75 41.25  15 28.75 41.25  15 30 41.25  15 30 42.5  13.75 27.5 41.25  15 27.5 41.25  15 27.5 42.5  15 28.75 42.5  13.75 28.75 42.5  13.75 27.5 42.5  13.75 30 42.5  16.25 28.75 41.25  17.5 28.75 41.25  17.5 30 41.25  17.5 30 42.5  16.25 27.5 41.25  17.5 27.5 41.25  17.5 27.5 42.5  17.5 28.75 42.5  16.25 28.75 42.5  16.25 27.5 42.5  16.25 30 41.25  16.25 30 42.5  18.75 28.75 41.25  20 28.75 41.25  20 30 41.25  20 30 42.5  18.75 27.5 41.25  20 27.5 41.25  20 27.5 42.5  20 28.75 42.5  18.75 28.75 42.5  18.75 27.5 42.5  18.75 30 41.25  18.75 30 42.5  21.25 28.75 41.25  22.5 28.75 41.25  22.5 30 41.25  22.5 30 42.5  21.25 27.5 41.25  22.5 27.5 41.25  22.5 27.5 42.5  22.5 28.75 42.5  21.25 28.75 42.5  21.25 27.5 42.5  21.25 30 41.25  21.25 30 42.5  23.75 28.75 41.25  25 28.75 41.25  25 30 41.25  25 30 42.5  23.75 27.5 41.25  25 27.5 41.25  25 27.5 42.5  25 28.75 42.5  23.75 28.75 42.5  23.75 27.5 42.5  23.75 30 41.25  23.75 30 42.5  26.25 28.75 41.25  16.25 31.25 41.25  17.5 31.25 41.25  17.5 31.25 42.5  17.5 32.5 42.5  16.25 31.25 42.5  18.75 31.25 41.25  18.75 31.25 42.5  21.25 31.25 41.25  13.75 28.75 43.75  15 28.75 43.75  15 30 43.75  15 30 45  13.75 27.5 43.75  15 27.5 43.75  15 27.5 45  15 28.75 45  13.75 28.75 45  13.75 27.5 45  13.75 30 43.75  13.75 30 45  16.25 28.75 43.75  17.5 28.75 43.75  17.5 30 43.75  17.5 30 45  16.25 27.5 43.75  17.5 27.5 43.75  17.5 27.5 45  17.5 28.75 45  16.25 28.75 45  16.25 27.5 45  16.25 30 43.75  16.25 30 45  18.75 28.75 43.75  20 28.75 43.75  20 30 43.75  20 30 45  18.75 27.5 43.75  20 27.5 43.75  20 27.5 45  20 28.75 45  18.75 28.75 45  18.75 27.5 45  18.75 30 43.75  18.75 30 45  21.25 28.75 43.75  22.5 28.75 43.75  22.5 30 43.75  22.5 30 45  21.25 27.5 43.75  22.5 27.5 43.75  22.5 27.5 45  22.5 28.75 45  21.25 28.75 45  21.25 27.5 45  21.25 30 43.75  21.25 30 45  23.75 28.75 43.75  23.75 27.5 43.75  25 27.5 43.75  25 27.5 45  23.75 28.75 45  23.75 27.5 45  25 28.75 45  25 30 45  23.75 30 43.75  25 30 43.75  23.75 30 45  13.75 31.25 43.75  13.75 31.25 45  16.25 31.25 43.75  17.5 31.25 43.75  17.5 31.25 45  17.5 32.5 45  16.25 31.25 45  18.75 31.25 43.75  20 31.25 43.75  20 31.25 45  20 32.5 45  18.75 31.25 45  21.25 31.25 43.75  21.25 31.25 45  13.75 28.75 46.25  15 28.75 46.25  15 30 46.25  15 30 47.5  13.75 27.5 46.25  15 27.5 46.25  15 27.5 47.5  15 28.75 47.5  13.75 28.75 47.5  13.75 27.5 47.5  13.75 30 46.25  13.75 30 47.5  16.25 28.75 46.25  17.5 28.75 46.25  17.5 30 46.25  17.5 30 47.5  16.25 27.5 46.25  17.5 27.5 46.25  17.5 27.5 47.5  17.5 28.75 47.5  16.25 28.75 47.5  16.25 27.5 47.5  16.25 30 46.25  16.25 30 47.5  18.75 28.75 46.25  20 28.75 46.25  20 30 46.25  20 30 47.5  18.75 27.5 46.25  20 27.5 46.25  20 27.5 47.5  20 28.75 47.5  18.75 28.75 47.5  18.75 27.5 47.5  18.75 30 46.25  18.75 30 47.5  21.25 28.75 46.25  22.5 28.75 46.25  22.5 30 46.25  22.5 30 47.5  21.25 27.5 46.25  22.5 27.5 46.25  22.5 27.5 47.5  22.5 28.75 47.5  21.25 28.75 47.5  21.25 27.5 47.5  21.25 30 46.25  21.25 30 47.5  23.75 28.75 46.25  25 28.75 46.25  25 30 46.25  25 30 47.5  23.75 27.5 46.25  25 27.5 46.25  25 27.5 47.5  25 28.75 47.5  23.75 28.75 47.5  23.75 27.5 47.5  23.75 30 47.5  13.75 31.25 46.25  15 31.25 46.25  15 31.25 47.5  15 32.5 47.5  13.75 31.25 47.5  16.25 31.25 46.25  17.5 31.25 46.25  17.5 32.5 46.25  17.5 32.5 47.5  17.5 31.25 47.5  16.25 31.25 47.5  16.25 32.5 47.5  18.75 31.25 46.25  20 31.25 46.25  20 32.5 46.25  20 32.5 47.5  20 31.25 47.5  18.75 31.25 47.5  18.75 32.5 47.5  21.25 31.25 46.25  21.25 31.25 47.5  15 28.75 48.75  15 30 48.75  16.25 28.75 48.75  17.5 28.75 48.75  17.5 30 48.75  17.5 30 50  16.25 30 48.75  16.25 30 50  18.75 28.75 48.75  20 28.75 48.75  20 30 48.75  20 30 50  18.75 30 48.75  18.75 30 50  21.25 28.75 48.75  22.5 28.75 48.75  22.5 30 48.75  22.5 30 50  21.25 30 48.75  21.25 30 50  23.75 28.75 48.75  15 31.25 48.75  15 32.5 48.75  16.25 31.25 48.75  17.5 31.25 48.75  17.5 32.5 48.75  17.5 32.5 50  17.5 31.25 50  16.25 31.25 50  16.25 32.5 48.75  16.25 32.5 50  18.75 31.25 48.75  20 31.25 48.75  18.75 31.25 50  21.25 31.25 48.75  21.25 31.25 50  16.25 33.75 48.75  16.25 33.75 50  10 22.5 45  11.25 22.5 45  11.25 21.25 45  11.25 21.25 43.75  12.5 22.5 45  11.25 22.5 43.75  11.25 23.75 45  11.25 23.75 43.75  12.5 23.75 45  12.5 25 45  10 23.75 45  10 25 45  11.25 25 45  10 26.25 43.75  8.75 26.25 43.75  10 25 42.5  10 25 43.75  10 26.25 45  8.75 26.25 45  11.25 22.5 46.25  11.25 21.25 46.25  12.5 22.5 46.25  12.5 22.5 47.5  10 22.5 47.5  11.25 22.5 47.5  11.25 21.25 47.5  10 22.5 46.25  10 23.75 46.25  8.75 23.75 46.25  10 25 46.25  10 25 47.5  10 23.75 47.5  8.75 25 46.25  11.25 23.75 46.25  12.5 23.75 46.25  12.5 25 46.25  12.5 25 47.5  12.5 23.75 47.5  11.25 23.75 47.5  11.25 25 46.25  11.25 25 47.5  10 26.25 46.25  8.75 26.25 46.25  10 26.25 47.5  8.75 26.25 47.5  11.25 26.25 46.25  11.25 26.25 47.5  12.5 26.25 47.5  11.25 22.5 48.75  11.25 21.25 48.75  12.5 22
[...]
<PointData  Vectors="u"> 
<DataArray  type="Float64"  Name="u"  NumberOfComponents="3" format="ascii">1.9999999999104600e+02 -1.1447530469316067e-10 6.5369045708295114e-11  1.9999999999079256e+02 -8.4800343138967252e-11 -1.8700970433573689e-10  1.9999999999087166e+02 7.0983469349114811e-11 -7.0968562745752861e-11  1.9999999999169955e+02 -5.1481166259506249e-11 -1.4020124023213155e-10  1.9999999999169088e+02 -3.4720142519312178e-11 -1.4790723799871361e-10  1.9999999999105322e+02 -1.5233390438711984e-10 8.6121968832301656e-11  1.9999999999086694e+02 -8.6133595531991829e-12 2.0570104866349342e-11  1.9999999999166590e+02 2.9485726961416388e-11 -1.9743222734239170e-10  1.9999999999177200e+02 -8.4458265117689014e-12 -1.5189850294499632e-10  1.9999999999091517e+02 5.0753188556527508e-11 -1.5429440223628082e-10  1.9999999999170188e+02 -2.2868250531449009e-11 -8.7751140965431412e-11  1.9999999999088004e+02 8.2909257787083348e-11 -4.0567687735450533e-11  1.9999999999166502e+02 -6.0607453513321063e-11 -1.4029251980090300e-10  1.9999999999105879e+02 -1.2970943097303164e-10 1.3220425877305240e-10  1.9999999999086771e+02 1.6480627950311194e-11 7.6249300144178955e-11  1.9999999999111074e+02 -1.7444628930557768e-12 1.3430309007734261e-10  1.9999999999286186e+02 -1.7474116036775665e-10 7.5845566695654786e-11  1.9999999999173926e+02 2.1155661595399132e-11 -2.1811312578547721e-10  1.9999999999180315e+02 8.4742886538274906e-12 -1.3105277449349646e-10  1.9999999999275551e+02 -2.5237573687037469e-11 -1.9406605477712270e-11  1.9999999999289102e+02 -2.6439511387326466e-11 1.3480504065951721e-10  1.9999999999182006e+02 -5.4577900970715018e-11 -7.7700785755416460e-11  1.9999999999255439e+02 5.8567070633685308e-11 -1.4863703453597429e-10  1.9999999999353275e+02 -3.4779076222616667e-11 -1.2603520694432184e-10  1.9999999999268582e+02 -3.1528049139956987e-11 -3.3100967678197122e-11  1.9999999999290168e+02 -9.7099204481596966e-12 1.1790302291151990e-10  1.9999999999265242e+02 5.6848470830791312e-11 -7.6618942749758613e-11  1.9999999999347270e+02 -9.5007642308587704e-12 -1.8385976868311102e-10  1.9999999999287203e+02 -1.3410102533773673e-10 9.7892055177817479e-11  1.9999999999276332e+02 -1.1474765144469825e-12 -1.0326988600587196e-11  1.9999999999348469e+02 7.0667519083089397e-11 -1.8965599686592775e-10  1.9999999999361154e+02 7.5910273840732657e-11 -1.1514804503369984e-10  1.9999999999466976e+02 -3.4894511195335950e-11 1.2624592678247439e-10  1.9999999999360040e+02 -2.6614264726655506e-11 -5.6898475947309737e-11  1.9999999999178510e+02 -1.8799610646409964e-11 -1.0247800799158320e-10  1.9999999999080393e+02 4.7485196175397143e-11 -1.8617448189195703e-10  1.9999999999088348e+02 2.2233252485641514e-12 -4.3334058098333606e-11  1.9999999999110935e+02 2.7154117529722687e-11 1.1191770191005011e-10  1.9999999999169779e+02 -1.1443943092893631e-11 -1.8943655305965093e-10  1.9999999999088632e+02 9.9931490489309545e-11 -9.7748725381930556e-11  1.9999999999106660e+02 -1.2972017811939207e-10 1.1266337747688800e-10  1.9999999999087549e+02 7.0890326005874013e-12 5.9816052406609775e-12  1.9999999999170586e+02 7.0388348173429212e-11 -2.0245763179563923e-10  1.9999999999180599e+02 6.1924314703595267e-11 -7.1097328976031584e-11  1.9999999999165126e+02 -1.1131442652850736e-11 -2.1097341278076671e-10  1.9999999999179136e+02 -1.1675139285008121e-11 -1.0988373961420317e-10  1.9999999999178672e+02 -8.9921888712311284e-11 -6.0285610312464005e-11  1.9999999999083141e+02 -9.7490982121694956e-11 -1.1028371366495101e-10  1.9999999999173781e+02 -1.1050071335553452e-10 -2.3319365207457148e-10  1.9999999999258705e+02 6.6673212957847859e-11 -1.4927488796326149e-10  1.9999999999350536e+02 -1.6890530767079125e-11 -8.0825957361521955e-11  1.9999999999265782e+02 -3.4472216585512434e-11 -9.5027458474980549e-11  1.9999999999287283e+02 -8.9474320555383372e-12 1.1344293889719763e-10  1.9999999999272615e+02 5.3594976830793611e-11 -8.7964230457394572e-11  1.9999999999346403e+02 5.9348849886776115e-11 -1.2286435721101657e-10  1.9999999999283582e+02 -6.8322914368915850e-11 6.2377444435302589e-11  1.9999999999273240e+02 -1.3984333026460350e-11 1.8411391899046196e-11  1.9999999999460854e+02 -1.1267839096653083e-10 6.6366331029274162e-11  1.9999999999351508e+02 6.0955397031437672e-11 -1.5192205852608916e-10  1.9999999999357820e+02 1.2340142420780626e-10 -8.1580205425273056e-11  1.9999999999344564e+02 -4.1743694814422834e-11 -2.3523642570401699e-10  1.9999999999453968e+02 1.4105146972758056e-11 -1.3145270728302753e-11  1.9999999999468290e+02 -3.0855005137957644e-11 1.0189206086074395e-10  1.9999999999356342e+02 -2.7142043697752130e-11 -1.0324642359522110e-10  1.9999999999442602e+02 -6.8214128557367009e-11 -3.3618832433756472e-11  1.9999999999177570e+02 -5.5504805388089042e-11 -9.0764384873712252e-11  1.9999999999080021e+02 4.2723503924870367e-11 -1.3340722758535195e-10  1.9999999999094078e+02 -1.9850304638606676e-12 -1.2326222948057227e-10  1.9999999999110159e+02 -1.1961833307528809e-11 7.4832251969555859e-11  1.9999999999171473e+02 4.1569901916058532e-11 -1.6506793283672320e-10  1.9999999999088493e+02 5.4231669168740389e-11 -3.3431092890649811e-11  1.9999999999105501e+02 -7.9321585118739833e-11 1.3861713324126881e-11  1.9999999999088450e+02 -5.2644107627889123e-11 -4.6110258605922953e-11  1.9999999999172564e+02 1.3026092284600492e-11 -1.6136127617399694e-10  1.9999999999182978e+02 1.4712081527245416e-10 -1.0471756644885678e-10  1.9999999999162151e+02 7.4554651870457203e-12 -2.6097359262162844e-10  1.9999999999176313e+02 -1.2495009629980725e-11 -1.0469163646305951e-10  1.9999999999354199e+02 -1.1068248971963693e-10 -7.4565834736093945e-11  1.9999999999258191e+02 -8.9985804338546903e-11 -1.4037890424326415e-10  1.9999999999273152e+02 -7.3613502662976741e-11 -2.7319546102848557e-11  1.9999999999352548e+02 -1.0467688254419242e-10 -1.7364176683717407e-10  1.9999999999177425e+02 -1.0167279998863952e-10 -9.6898253239101147e-11  1.9999999999085381e+02 -9.9337172896836909e-11 -1.8325935056939186e-10  1.9999999999087669e+02 -5.3414878981576261e-12 -1.5033721909112967e-11  1.9999999999107720e+02 8.7494960527200546e-11 4.2370015206987880e-11  1.9999999999172965e+02 -7.1499705612008229e-11 -1.7375506582416385e-10  1.9999999999352781e+02 4.5101333207174406e-12 6.5365241858104906e-12  1.9999999999250733e+02 -1.9645175809550247e-12 3.2298573579295955e-12  1.9999999999266402e+02 -2.1048055983490086e-11 1.1903058248955484e-11  1.9999999999286217e+02 1.4749770828131542e-12 -5.4947385761494030e-10  1.9999999999341438e+02 -2.7682211117982679e-11 -8.5465755653469274e-11  1.9999999999463984e+02 -3.3175143595201567e-12 -5.0905986209295771e-10  1.9999999999356999e+02 1.1038446993213263e-11 -3.0605105650932040e-11  1.9999999999173539e+02 -2.7809818237111350e-12 4.8995847411675939e-12  1.9999999999074140e+02 -4.8554211036726784e-12 3.1454976662980713e-11  1.9999999999085668e+02 -1.1079352671470482e-11 1.9536166583699147e-11  1.9999999999106774e+02 -5.0621862089155854e-12 -5.3301091201589956e-10  1.9999999999164211e+02 -2.7670527731172121e-11 -3.5598175783376512e-11  1.9999999999179869e+02 2.3712201325537569e-11 -4.1972274661805701e-11  1.9999999998994983e+02 9.7649747016325698e-12 5.1885822724085616e-11  1.9999999998986283e+02 5.3110089432439411e-11 1.1928902858128997e-10  1.9999999999003896e+02 4.0793193149924092e-11 -7.5612169325512828e-11  1.9999999998934177e+02 1.4890456173032757e-11 -5.7298139831206439e-10  1.9999999999353284e+02 -1.2189594032927865e-10 4.5794722397474582e-11  1.9999999999254106e+02 -9.7352001952132865e-11 2.4108898424802941e-11  1.9999999999276818e+02 -4.8862141612334357e-11 -3.3923012088768640e-11  1.9999999999281007e+02 4.3202756485211376e-11 -5.2525548275448262e-10  1.9999999999361381e+02 1.7261930943637565e-11 3.3266221715136981e-10  1.9999999999461807e+02 -6.5743705088837566e-11 1.6821805188568750e-11  1.9999999999462426e+02 1.1007350952158218e-11 -5.3407446221273896e-10  1.9999999999366341e+02 -6.6927579288548255e-12 -2.2797016322218838e-11  1.9999999999174543e+02 -1.1644652768734218e-10 3.7489486986718445e-11  1.9999999999084991e+02 -9.3561039679418467e-11 3.3301927848887614e-11  1.9999999999099666e+02 1.4105218596518382e-11 -5.5116967237171959e-11  1.9999999999101334e+02 1.4614879966459411e-11 -5.4426954441957849e-10  1.9999999999183325e+02 -2.1548941932395161e-11 2.6974080447713666e-10  1.9999999999185860e+02 5.3872743330086608e-11 -1.5430594043436862e-11  1.9999999999001096e+02 -9.8363483971062577e-11 6.3454720307954594e-11  1.9999999999007187e+02 -4.1855699486368019e-11 1.8971758024971863e-10  1.9999999998907205e+02 -3.5007836971962112e-12 3.4749964482359273e-11  1.9999999998928271e+02 9.6271210607707730e-13 -5.6949705537702299e-10  1.9999999999008247e+02 4.5174911542916055e-11 -5.7164175273356677e-11  1.9999999998755493e+02 -9.9963650660276383e-11 1.0190655336498088e-10  1.9999999998647758e+02 -5.1545069049102365e-12 -6.7621843709616772e-11  1.9999999998648212e+02 3.7327319359154744e-11 -9.8203490481469981e-11  1.9999999998654906e+02 -2.2040646834286282e-11 -9.9946670693595718e-11  1.9999999998588413e+02 -5.3371575202417917e-11 1.0889997619211938e-10  1.9999999998568344e+02 9.6838493227062423e-11 -1.7465702124526609e-11  1.9999999998586784e+02 -1.0655708842379737e-10 1.3198660716062629e-10  1.9999999998737778e+02 6.9591706128445554e-11 -3.0617736183594189e-11  1.9999999998755473e+02 -1.1750926719612870e-10 1.3479764907448288e-10  1.9999999998655647e+02 5.7565472422622839e-11 -3.5002261795173668e-11  1.9999999998483588e+02 -9.9780580193446334e-11 -7.9480371336831856e-11  1.9999999998476846e+02 6.9411031870388666e-11 -1.1284932149167098e-10  1.9999999998488235e+02 3.3911556940959198e-11 -2.6831092453474215e-11  1.9999999998416612e+02 -5.7124514566996544e-12 1.0527733741911801e-10  1.9999999998399844e+02 1.5458532014828659e-10 -2.2281604730084632e-11  1.9999999998414992e+02 -5.8468581136930827e-11 9.9407158499277813e-11  1.9999999998484247e+02 6.7058145950109559e-11 -2.3378710603778839e-11  1.9999999998482429e+02 -5.6156943278938097e-12 -7.6140088624179589e-11  1.9999999998477639e+02 7.9066269009739046e-11 -1.1845431687836006e-10  1.9999999998386119e+02 9.0732569552576860e-11 -1.0039617015035296e-10  1.9999999998389490e+02 9.4960235032340268e-11 -3.4837031332471209e-11  1.9999999998410775e+02 -9.8446856763080540e-11 1.2719716032154648e-10  1.9999999998403308e+02 2.0781669059713886e-11 2.2383449492848412e-11  1.9999999998418463e+02 -3.2175370756574209e-11 1.2612268163798995e-10  1.9999999998568995e+02 1.0059838513706805e-10 5.1563057199583138e-12  1.9999999998583854e+02 -1.0117139934588685e-10 1.3145057612689413e-10  1.9999999998477654e+02 6.7276116022193171e-11 -1.0720412898161059e-10  1.9999999998487516e+02 1.0173503856107730e-10 -4.1112230179896890e-11  1.9999999998312285e+02 5.0053267048178453e-11 -4.9234713521149856e-11  1.9999999998307098e+02 5.8529627739912633e-11 -3.0768275309810569e-10  1.9999999998317028e+02 1.8686661516826300e-10 -1.4371120827368862e-10  1.9999999998245718e+02 2.4065038041992088e-11 6.5938930251930622e-11  1.9999999998307544e+02 7.1527027533415257e-11 -1.0007258480711276e-10  1.9999999998236268e+02 1.9511948702369365e-10 2.1990987519925968e-11  1.9999999998245630e+02 -4.2363625187553460e-11 8.4567014334015383e-11  1.9999999998311921e+02 1.1733000236217693e-10 -1.4373636130083538e-10  1.9999999998316736e+02 7.8688373317739615e-11 1.4314142496429063e-11  1.9999999998934985e+02 -1.4533871720702200e-10 1.0536518442570495e-10  1.9999999998908365e+02 3.5575056697901819e-11 -1.1374813683418666e-10  1.9999999998920117e+02 4.9073271205666846e-11 -3.3529724585654247e-11  1.9999999998999868e+02 -1.1868682985843485e-11 -7.4657157676276112e-11  1.9999999998992462e+02 -5.8546181591327309e-11 -7.3132624873036610e-11  1.9999999999008216e+02 6.4775862221424948e-12 -1.0441947155590770e-10  1.9999999998931355e+02 -1.3533525600800723e-10 1.3731160198184180e-10  1.9999999999102201e+02 -1.3667248054060116e-10 9.2522690640389759e-11  1.9999999999004635e+02 2.2018453678142962e-11 5.8576385162777432e-12  1.9999999998827911e+02 -6.2179845110451223e-11 -8.7578837817957165e-11  1.9999999998821974e+02 4.0107331779865049e-11 -1.3178971633235971e-10  1.9999999998827971e+02 2.8357727095897057e-11 -3.6293846476196151e-11  1.9999999998759702e+02 -1.4532321750449519e-10 1.3214135071477497e-10  1.9999999998732258e+02 5.1443064260545618e-11 -1.1601311682486299e-10  1.9999999998740233e+02 6.0018403628319807e-11 2.3367037306690603e-11  1.9999999998761905e+02 -1.1488949288149988e-10 9.9524031921792319e-11  1.9999999998820178e+02 1.9264422441449866e-11 -1.7664312148287062e-10  1.9999999998830330e+02 2.6884860475933606e-11 -8.6777856562627392e-11  1.9999999998649741e+02 -5.7751610793346605e-11 -8.5961107791567119e-11  1.9999999998649935e+02 5.5593474972222495e-11 -8.9461683068224296e-11  1.9999999998658487e+02 7.1272610562921478e-11 -5.2928182700718374e-11  1.9999999998563376e+02 2.1324521155476308e-11 -1.4484757867668622e-10  1.9999999998566125e+02 5.5654516945863782e-11 -1.5399098104065670e-11  1.9999999998583516e+02 -1.2039691869777326e-10 9.7628564567355015e-11  1.9999999998576064e+02 -5.5645514994879693e-11 3.8392559620935696e-11  1.9999999998647442e+02 -6.2989724507045971e-12 -1.5336814596520140e-10  1.9999999998655622e+02 6.2236275111950183e-11 -7.1684518555148311e-11  1.9999999998482340e+02 -3.2035054174275679e-11 -8.8245146218088632e-11  1.9999999998385718e+02 7.8699802431293004e-11 -1.5649428429400476e-10  1.9999999998474655e+02 1.0088343573858825e-10 -1.3270165648490392e-10  1.9999999998395992e+02 7.9074238762047709e-11 -1.6889238442649280e-11  1.9999999998413352e+02 -1.1093032802423116e-10 1.0060392584722528e-10  1.9999999998402956e+02 -3.7783922197955248e-11 -1.8326176230916505e-11  1.9999999998477082e+02 4.6208744073706277e-11 -1.8286662153560171e-10  1.9999999998485072e+02 7.2012471413635675e-11 -7.2727116869844242e-11  1.9999999998313146e+02 8.8032071216903829e-12 -9.1451978141481550e-11  1.9999999998306944e+02 7.0566526572338951e-11 -1.1772522044633707e-10  1.9999999998224050e+02 1.3337636370459196e-10 3.3245457593121412e-12  1.9999999998240921e+02 -6.9261162914520960e-11 5.4965638957896482e-11  1.9999999998305631e+02 3.7632775527638579e-11 -2.0751136320384412e-10  1.9999999998316014e+02 5.6269351621676879e-11 -4.1561493562150379e-11  1.9999999998233324e+02 9.5261145809838733e-12 -3.0384698513163569e-11  1.9999999998248106e+02 -1.4931892039938730e-11 8.1026212072788018e-11  1.9999999998993155e+02 -6.7631575417325687e-11 -9.1947554836756973e-11  1.9999999998995725e+02 1.2921637300872356e-11 -1.8565740231846164e-10  1.9999999998908569e+02 -1.3030494371943717e-11 -1.6143719071139555e-10  1.9999999998911562e+02 2.4254700099747240e-12 -2.5977609439967852e-11  1.9999999998936292e+02 -1.5919138685128306e-10 5.3202865228320759e-11  1.9999999998923863e+02 -6.0868090898630472e-11 -1.7216398748784962e-11  1.9999999998933308e+02 -2.0098124867525264e-11 1.2590939978271397e-10  1.9999999999093475e+02 8.1800263285758908e-11 -5.1163266073626686e-11  1.9999999999005377e+02 5.9987839108507579e-11 -1.3696565299615848e-10  1.9999999999094371e+02 1.0356316627268088e-11 -5.3072971751265472e-11  1.9999999998825035e+02 -5.7508376924287167e-11 -9.2104323600834714e-11  1.9999999998820684e+02 1.7761153024991678e-11 -9.3714199453916142e-11  1.9999999998732034e+02 1.5641317751874223e-11 -1.7270215289985126e-10  1.9999999998741407e+02 1.0548426688392022e-11 -1.9514486928849444e-11  1.9999999998758466e+02 -1.7010209966279365e-10 6.3503880460274627e-11  1.9999999998748552e+02 -5.3252267193628099e-11 -2.5741703061377771e-11  1.9999999998763860e+02 -4.0883124141198767e-11 1.2432986198505327e-10  1.9999999998818035e+02 -2.2945214172654044e-11 -1.8737135258563488e-10  1.9999999998829108e+02 6.0054483763436819e-11 -1.2432481688637087e-10  1.9999999998825959e+02 -3.4252383116957688e-11 -9.5443573797441347e-11  1.9999999998652814e+02 -4.2269714292306096e-11 -1.2099749914691287e-10  1.9999999998557212e+02 3.0200711489969644e-11 -1.8471340762451119e-10  1.9999999998645436e+02 -1.8881610332787397e-11 -1.5085504477046678e-10  1.9999999998564104e+02 7.1336836476390141e-12 -5.9144096137335260e-11  1.9999999998586989e+02 -1.6949681783696694e-10 3.7077958206841120e-11  1.9999999998572480e+02 -1.0598533912938526e-11 -2.3626949026528897e-11  1.9999999998588299e+02 -1.7863914453589566e-11 8.5577937230998479e-11  1.9999999998647834e+02 6.1321243510837254e-11 -2.1748233267439426e-10  1.9999999998651307e+02 1.9264431312222145e-11 -1.5571612165464933e-10  1.9999999998653126e+02 -1.6002380992502895e-11 -1.0934164356318479e-10  1.9999999998477907e+02 -1.9752937995511042e-11 -1.4544634090090201e-10  1.9999999998389470e+02 3.3776263806857683e-11 -1.8983150826098910e-10  1.9999999998473859e+02 -2.2058892247068359e-12 -1.3822515354679292e-10  1.9999999998397368e+02 -5.4160415972392889e-12 -3.7922408971171416e-11  1.9999999998415390e+02 -1.4006912267845735e-10 5.5732721171249184e-11  1.9999999998402780e+02 1.3684812547312315e-11 -7.9817762415519775e-12  1.9999999998415490e+02 1.2837526995130753e-11 1.1175042835125111e-10  1.9999999998475900e+02 4.9118571296131037e-11 -1.6837005556240464e-10  1.9999999998485924e+02 4.9077221011863410e-11 -1.2452367855039943e-10  1.9999999998308974e+02 -3.8760468728257472e-11 -1.2764151093302891e-10  1.9999999998303883e+02 3.1503829801507622e-12 -1.3240826851006691e-10  1.9999999998225417e+02 1.8134680259888154e-11 3.0295415289348073e-11  1.9999999998243493e+02 -9.8756063069474873e-11 2.7443064709722273e-11  1.9999999998302843e+02 4.3029330659643005e-12 -2.3760521157803301e-10  1.9999999998318231e+02 7.9917090056990696e-11 -1.2406975195306143e-10  1.9999999998237155e+02 -3.6545937283555929e-12 3.6220066735831818e-11  1.9999999998248964e+02 -3.7785649100679036e-11 1.2289794546745210e-10  1.9999999998306461e+02 2.8029330464316501e-12 -1.3170479303279770e-10  1.9999999998904195e+02 3.7177592389883304e-11 -1.7804068137639464e-10  1.9999999998997885e+02 -1.2092031699386712e-11 -1.2467576420174218e-10  1.9999999998992823e+02 4.0065480542115380e-11 -1.4890978360667855e-10  1.9999999998916769e+02 5.6317341476582393e-11 -9.5599332650550875e-11  1.9999999998927956e+02 -1.2555193888799807e-10 1.0404050962569414e-10  1.9999999998925708e+02 -7.9822586899638980e-12 -8.3997401846493069e-11  1.9999999998926458e+02 -2.6653257505282036e-11 1.2193617236270418e-10  1.9999999999009520e+02 -5.5690662896699060e-11 -4.2261251242628749e-11  1.9999999999008250e+02 1.1830135405514096e-10 -5.5095958062299717e-11  1.9999999998826422e+02 -5.5436471657018035e-11 -1.2546931669925266e-10  1.9999999998727645e+02 4.9284497027705796e-11 -1.3986299155671390e-10  1.9999999998742163e+02 -2.9528000401672439e-11 -6.6756184907138713e-11  1.9999999998763786e+02 -3.7470316621809350e-11 1.0464024041667637e-10  1.9999999998823833e+02 3.6504762706188800e-11 -1.7046476803904588e-10  1.9999999998737539e+02 6.1787015809531963e-12 -8.5104384348698252e-11  1.9999999998757309e+02 -1.6189831595129746e-10 7.9323928232768711e-11  1.9999999998746816e+02 4.9823186027455967e-12 -2.8353282896760702e-11  1.9999999998824970e+02 3.7244826220008639e-11 -2.2009928796959734e-10  1.9999999998832917e+02 4.1732257071363384e-11 -1.1424403918811772e-10  1.9999999998832004e+02 -5.4411881563864864e-11 -8.8666387888693257e-11  1.9999999998649955e+02 -2.2934980131250565e-11 -1.1648079718773395e-10  1.9999999998558783e+02 5.7950903585660833e-11 -2.0209928986719990e-10  1.9999999998568714e+02 -6.2768786628512463e-12 -7.6878432337872284e-11  1.9999999998588331e+02 1.1480850457995244e-11 1.2453670350666380e-10  1.9999999998644310e+02 -1.6549103487518324e-12 -1.6487761049386620e-10  1.9999999998565198e+02 6.5714700584997003e-11 -8.6550075413984392e-11  1.9999999998584076e+02 -1.8439021446342386e-10 1.0874936980465320e-10  1.9999999998575106e+02 3.6988497942305114e-11 -1.7829144400313918e-12  1.9999999998643099e+02 8.3952041477369176e-11 -2.0376247037801564e-10  1.9999999998654036e+02 5.15428