<?xml version="1.0"?>
<VTKFile type="UnstructuredGrid"  version="0.1"  >
<UnstructuredGrid>
<Piece  NumberOfPoints="4029" NumberOfCells="19865">
<Points>
<DataArray  type="Float64"  NumberOfComponents="3"  format="ascii">0 37.5 30  1.25 38.75 30  1.25 37.5 30  1.25 38.75 28.75  2.5 37.5 30  2.5 38.75 30  2.5 40 30  0 37.5 27.5  0 38.75 28.75  0 37.5 28.75  0 38.75 30  0 40 30  1.25 40 30  7.5 37.5 30  7.5 38.75 30  7.5 38.75 28.75  6.25 38.75 28.75  7.5 40 30  5 37.5 30  6.25 38.75 30  6.25 37.5 30  5 38.75 30  5 40 30  6.25 40 30  10 37.5 30  10 38.75 30  10 38.75 28.75  8.75 38.75 28.75  10 40 30  8.75 38.75 30  8.75 37.5 30  8.75 40 30  11.25 38.75 30  11.25 38.75 28.75  11.25 40 30  12.5 40 30  7.5 30 32.5  7.5 28.75 32.5  7.5 28.75 31.25  6.25 28.75 31.25  7.5 27.5 32.5  6.25 28.75 32.5  5 30 32.5  6.25 30 32.5  10 27.5 32.5  10 28.75 32.5  8.75 28.75 32.5  8.75 28.75 31.25  10 30 32.5  8.75 30 32.5  0 30 32.5  1.25 31.25 32.5  1.25 30 32.5  1.25 31.25 31.25  2.5 30 32.5  2.5 31.25 32.5  2.5 32.5 32.5  0 31.25 32.5  0 31.25 31.25  0 32.5 32.5  1.25 32.5 32.5  0 32.5 30  1.25 32.5 31.25  0 32.5 31.25  0 31.25 30  2.5 35 32.5  2.5 35 31.25  2.5 33.75 31.25  1.25 33.75 31.25  2.5 33.75 32.5  1.25 33.75 32.5  1.25 35 31.25  0 33.75 31.25  0 33.75 32.5  0 35 32.5  1.25 35 32.5  0 33.75 30  0 35 30  0 35 31.25  5 35 32.5  5 35 31.25  5 33.75 31.25  3.75 33.75 31.25  5 32.5 32.5  5 33.75 32.5  3.75 33.75 32.5  3.75 32.5 32.5  3.75 35 31.25  3.75 35 32.5  7.5 35 30  7.5 35 31.25  7.5 33.75 31.25  6.25 33.75 31.25  7.5 35 32.5  7.5 32.5 32.5  7.5 33.75 32.5  6.25 33.75 32.5  6.25 32.5 32.5  6.25 35 31.25  6.25 35 32.5  10 35 30  10 35 31.25  10 33.75 31.25  8.75 33.75 31.25  10 35 32.5  10 32.5 32.5  10 33.75 32.5  8.75 33.75 32.5  8.75 32.5 32.5  8.75 35 31.25  8.75 35 32.5  2.5 37.5 31.25  2.5 36.25 31.25  1.25 36.25 31.25  2.5 37.5 32.5  2.5 36.25 32.5  1.25 36.25 32.5  1.25 37.5 31.25  0 36.25 31.25  0 36.25 32.5  0 37.5 32.5  1.25 37.5 32.5  0 36.25 30  0 37.5 31.25  5 37.5 31.25  5 36.25 31.25  3.75 36.25 31.25  5 37.5 32.5  5 36.25 32.5  3.75 36.25 32.5  3.75 37.5 31.25  3.75 37.5 30  3.75 37.5 32.5  7.5 37.5 31.25  7.5 36.25 31.25  6.25 36.25 31.25  7.5 37.5 32.5  7.5 36.25 32.5  6.25 36.25 32.5  6.25 37.5 31.25  6.25 37.5 32.5  10 36.25 31.25  10 36.25 30  8.75 36.25 31.25  10 37.5 31.25  10 37.5 32.5  10 36.25 32.5  8.75 36.25 32.5  8.75 37.5 31.25  8.75 37.5 32.5  1.25 38.75 31.25  2.5 38.75 31.25  2.5 40 31.25  2.5 40 32.5  2.5 38.75 32.5  1.25 38.75 32.5  1.25 40 31.25  0 38.75 31.25  0 38.75 32.5  0 40 32.5  1.25 40 32.5  0 40 31.25  3.75 38.75 31.25  3.75 38.75 30  5 38.75 31.25  5 40 31.25  5 40 32.5  5 38.75 32.5  3.75 38.75 32.5  3.75 40 31.25  3.75 40 30  3.75 40 32.5  6.25 38.75 31.25  7.5 38.75 31.25  7.5 40 31.25  7.5 40 32.5  7.5 38.75 32.5  6.25 38.75 32.5  6.25 40 31.25  6.25 40 32.5  8.75 38.75 31.25  10 38.75 31.25  10 40 31.25  10 40 32.5  10 38.75 32.5  8.75 38.75 32.5  8.75 40 31.25  8.75 40 32.5  11.25 38.75 31.25  11.25 40 31.25  12.5 40 31.25  12.5 40 32.5  11.25 38.75 32.5  11.25 40 32.5  1.25 41.25 31.25  1.25 41.25 30  2.5 41.25 31.25  2.5 41.25 30  2.5 42.5 30  2.5 42.5 31.25  2.5 42.5 32.5  2.5 41.25 32.5  1.25 41.25 32.5  0 41.25 30  0 42.5 30  1.25 42.5 31.25  1.25 42.5 30  0 41.25 31.25  0 41.25 32.5  0 42.5 32.5  1.25 42.5 32.5  0 42.5 31.25  3.75 41.25 31.25  3.75 41.25 30  5 41.25 31.25  5 41.25 30  5 42.5 30  5 42.5 31.25  5 42.5 32.5  5 41.25 32.5  3.75 41.25 32.5  3.75 42.5 31.25  3.75 42.5 30  3.75 42.5 32.5  6.25 41.25 31.25  6.25 41.25 30  7.5 41.25 31.25  7.5 41.25 30  7.5 42.5 30  7.5 42.5 31.25  7.5 42.5 32.5  7.5 41.25 32.5  6.25 41.25 32.5  6.25 42.5 31.25  6.25 42.5 30  6.25 42.5 32.5  8.75 41.25 31.25  8.75 41.25 30  10 41.25 31.25  10 41.25 30  10 42.5 30  10 42.5 31.25  10 42.5 32.5  10 41.25 32.5  8.75 41.25 32.5  8.75 42.5 31.25  8.75 42.5 30  8.75 42.5 32.5  11.25 41.25 31.25  11.25 41.25 30  12.5 41.25 31.25  12.5 41.25 30  12.5 42.5 30  12.5 42.5 31.25  12.5 42.5 32.5  12.5 41.25 32.5  11.25 41.25 32.5  11.25 42.5 31.25  11.25 42.5 30  11.25 42.5 32.5  13.75 41.25 31.25  13.75 41.25 30  13.75 41.25 32.5  13.75 42.5 32.5  13.75 42.5 31.25  1.25 43.75 31.25  1.25 43.75 30  2.5 43.75 31.25  2.5 43.75 30  2.5 45 30  2.5 45 31.25  2.5 45 32.5  2.5 43.75 32.5  1.25 43.75 32.5  0 43.75 30  0 45 30  1.25 45 31.25  1.25 45 30  0 43.75 31.25  0 43.75 32.5  0 45 32.5  1.25 45 32.5  0 45 31.25  3.75 43.75 31.25  3.75 43.75 30  5 43.75 31.25  5 43.75 30  5 45 30  5 45 31.25  5 45 32.5  5 43.75 32.5  3.75 43.75 32.5  3.75 45 31.25  3.75 45 30  3.75 45 32.5  6.25 43.75 31.25  6.25 43.75 30  7.5 43.75 31.25  7.5 43.75 30  7.5 45 30  7.5 45 31.25  7.5 45 32.5  7.5 43.75 32.5  6.25 43.75 32.5  6.25 45 31.25  6.25 45 30  6.25 45 32.5  8.75 43.75 31.25  8.75 43.75 30  10 43.75 31.25  10 43.75 30  10 45 30  10 45 31.25  10 45 32.5  10 43.75 32.5  8.75 43.75 32.5  8.75 45 31.25  8.75 45 30  8.75 45 32.5  11.25 43.75 31.25  11.25 43.75 30  12.5 43.75 31.25  12.5 43.75 30  12.5 45 30  12.5 45 31.25  12.5 45 32.5  12.5 43.75 32.5  11.25 43.75 32.5  11.25 45 31.25  11.25 45 30  11.25 45 32.5  13.75 43.75 31.25  13.75 43.75 32.5  13.75 43.75 30  13.75 45 31.25  13.75 45 30  13.75 45 32.5  1.25 46.25 31.25  1.25 46.25 30  2.5 46.25 31.25  2.5 46.25 30  2.5 47.5 30  2.5 47.5 31.25  2.5 47.5 32.5  2.5 46.25 32.5  1.25 46.25 32.5  0 46.25 30  0 47.5 30  1.25 47.5 31.25  1.25 47.5 30  0 46.25 31.25  0 46.25 32.5  0 47.5 32.5  1.25 47.5 32.5  0 47.5 31.25  3.75 46.25 31.25  3.75 46.25 30  5 46.25 31.25  5 46.25 30  5 47.5 30  5 47.5 31.25  5 47.5 32.5  5 46.25 32.5  3.75 46.25 32.5  3.75 47.5 31.25  3.75 47.5 30  3.75 47.5 32.5  6.25 46.25 31.25  6.25 46.25 30  7.5 46.25 31.25  7.5 46.25 30  7.5 47.5 30  7.5 47.5 31.25  7.5 47.5 32.5  7.5 46.25 32.5  6.25 46.25 32.5  6.25 47.5 31.25  6.25 47.5 30  6.25 47.5 32.5  8.75 46.25 31.25  8.75 46.25 30  10 46.25 31.25  10 46.25 30  10 47.5 30  10 47.5 31.25  10 47.5 32.5  10 46.25 32.5  8.75 46.25 32.5  8.75 47.5 31.25  8.75 47.5 30  8.75 47.5 32.5  11.25 46.25 31.25  11.25 46.25 30  12.5 46.25 31.25  12.5 46.25 30  12.5 47.5 30  12.5 47.5 31.25  12.5 47.5 32.5  12.5 46.25 32.5  11.25 46.25 32.5  11.25 47.5 31.25  11.25 47.5 30  11.25 47.5 32.5  13.75 46.25 31.25  13.75 46.25 30  13.75 46.25 32.5  13.75 47.5 31.25  13.75 47.5 30  13.75 47.5 32.5  1.25 48.75 31.25  1.25 48.75 30  2.5 48.75 31.25  2.5 48.75 30  2.5 50 30  2.5 50 31.25  2.5 50 32.5  2.5 48.75 32.5  1.25 48.75 32.5  0 48.75 30  0 50 30  1.25 50 31.25  1.25 50 30  0 48.75 31.25  0 48.75 32.5  0 50 32.5  1.25 50 32.5  0 50 31.25  3.75 48.75 31.25  3.75 48.75 30  5 48.75 31.25  5 48.75 30  5 50 30  5 50 31.25  5 50 32.5  5 48.75 32.5  3.75 48.75 32.5  3.75 50 31.25  3.75 50 30  3.75 50 32.5  6.25 48.75 31.25  6.25 48.75 30  7.5 48.75 31.25  7.5 48.75 30  7.5 50 30  7.5 50 31.25  7.5 50 32.5  7.5 48.75 32.5  6.25 48.75 32.5  6.25 50 31.25  6.25 50 30  6.25 50 32.5  8.75 48.75 31.25  8.75 48.75 30  10 48.75 31.25  10 48.75 30  10 50 30  10 50 31.25  10 50 32.5  10 48.75 32.5  8.75 48.75 32.5  8.75 50 31.25  8.75 50 30  8.75 50 32.5  11.25 48.75 31.25  12.5 48.75 31.25  12.5 48.75 32.5  12.5 50 32.5  11.25 48.75 32.5  11.25 50 32.5  11.25 50 31.25  13.75 48.75 31.25  13.75 48.75 32.5  7.5 28.75 33.75  6.25 28.75 33.75  7.5 30 33.75  7.5 30 35  7.5 27.5 35  7.5 28.75 35  6.25 28.75 35  6.25 30 33.75  5 30 35  6.25 30 35  5 30 33.75  10 28.75 33.75  8.75 28.75 33.75  10 30 33.75  10 30 35  10 27.5 33.75  10 27.5 35  10 28.75 35  8.75 28.75 35  8.75 27.5 35  8.75 30 33.75  8.75 30 35  1.25 31.25 33.75  2.5 31.25 33.75  2.5 32.5 33.75  2.5 32.5 35  2.5 30 33.75  2.5 30 35  2.5 31.25 35  0 30 35  1.25 31.25 35  1.25 30 35  1.25 32.5 33.75  0 31.25 35  0 31.25 33.75  0 32.5 35  1.25 32.5 35  0 32.5 33.75  3.75 31.25 33.75  3.75 31.25 32.5  3.75 30 32.5  5 31.25 33.75  5 31.25 32.5  5 32.5 33.75  5 32.5 35  3.75 30 33.75  5 31.25 35  3.75 31.25 35  3.75 30 35  3.75 32.5 33.75  3.75 32.5 35  6.25 31.25 33.75  6.25 31.25 32.5  7.5 31.25 33.75  7.5 31.25 32.5  7.5 32.5 33.75  7.5 32.5 35  7.5 31.25 35  6.25 31.25 35  6.25 32.5 33.75  6.25 32.5 35  8.75 31.25 33.75  8.75 31.25 32.5  10 31.25 33.75  10 31.25 32.5  10 32.5 33.75  10 32.5 35  10 31.25 35  8.75 31.25 35  8.75 32.5 33.75  8.75 32.5 35  1.25 33.75 33.75  2.5 33.75 33.75  2.5 35 33.75  2.5 35 35  2.5 33.75 35  1.25 33.75 35  1.25 35 33.75  0 33.75 33.75  0 33.75 35  0 35 35  1.25 35 35  0 35 33.75  3.75 33.75 33.75  5 33.75 33.75  5 35 33.75  5 35 35  5 33.75 35  3.75 33.75 35  3.75 35 33.75  3.75 35 35  6.25 33.75 33.75  7.5 33.75 33.75  7.5 35 33.75  7.5 35 35  7.5 33.75 35  6.25 33.75 35  6.25 35 33.75  6.25 35 35  8.75 33.75 33.75  10 33.75 33.75  10 35 33.75  10 35 35  10 33.75 35  8.75 33.75 35  8.75 35 33.75  8.75 35 35  1.25 36.25 33.75  2.5 36.25 33.75  2.5 37.5 33.75  2.5 37.5 35  2.5 36.25 35  1.25 36.25 35  1.25 37.5 33.75  0 36.25 33.75  0 36.25 35  0 37.5 35  1.25 37.5 35  0 37.5 33.75  3.75 36.25 33.75  5 36.25 33.75  5 37.5 33.75  5 37.5 35  5 36.25 35  3.75 36.25 35  3.75 37.5 33.75  3.75 37.5 35  6.25 36.25 33.75  7.5 36.25 33.75  7.5 37.5 33.75  7.5 37.5 35  7.5 36.25 35  6.25 36.25 35  6.25 37.5 33.75  6.25 37.5 35  8.75 36.25 33.75  10 36.25 33.75  10 37.5 33.75  10 37.5 35  10 36.25 35  8.75 36.25 35  8.75 37.5 33.75  8.75 37.5 35  1.25 38.75 33.75  2.5 38.75 33.75  2.5 40 33.75  2.5 40 35  2.5 38.75 35  1.25 38.75 35  1.25 40 33.75  0 38.75 33.75  0 38.75 35  0 40 35  1.25 40 35  0 40 33.75  3.75 38.75 33.75  5 38.75 33.75  5 40 33.75  5 40 35  5 38.75 35  3.75 38.75 35  3.75 40 33.75  3.75 40 35  6.25 38.75 33.75  7.5 38.75 33.75  7.5 40 33.75  7.5 40 35  7.5 38.75 35  6.25 38.75 35  6.25 40 33.75  6.25 40 35  8.75 38.75 33.75  10 38.75 33.75  10 40 33.75  10 40 35  10 38.75 35  8.75 38.75 35  8.75 40 33.75  8.75 40 35  11.25 38.75 33.75  11.25 40 33.75  12.5 40 33.75  12.5 40 35  11.25 38.75 35  11.25 40 35  1.25 41.25 33.75  2.5 41.25 33.75  2.5 42.5 33.75  2.5 42.5 35  2.5 41.25 35  1.25 41.25 35  1.25 42.5 
[...]
<PointData  Vectors="u"> 
<DataArray  type="Float64"  Name="u"  NumberOfComponents="3" format="ascii">2.0000000000053731e+02 1.1524925236426673e-10 6.4336286645031767e-11  1.9999999999902852e+02 -1.1496208680819875e-10 -2.6465264534770352e-10  1.9999999999900385e+02 -2.3250917052921733e-11 -4.2947196314503660e-11  1.9999999999899600e+02 -1.0402452014843878e-10 -3.9501943737717969e-11  1.9999999999820761e+02 1.3938791754618038e-10 1.2472064876731925e-10  1.9999999999816609e+02 -3.3329263549513637e-11 -1.1636289483518377e-10  1.9999999999820932e+02 1.4763436142592994e-10 4.7195802885509405e-11  2.0000000000055022e+02 1.2389873805817757e-10 5.2971842687137987e-11  1.9999999999971601e+02 -3.5316533887938156e-11 -3.5510442940791090e-11  1.9999999999998977e+02 -1.3717839438930599e-10 -6.5867191622180650e-11  2.0000000000000043e+02 -6.2951078682588771e-11 -1.5073272961049861e-10  2.0000000000059762e+02 1.0769155889517638e-10 -2.3124903854189074e-11  1.9999999999900996e+02 -1.2630732719254683e-10 2.1828224709206352e-11  1.9999999999463040e+02 8.8906003985710352e-11 8.9345591931676557e-11  1.9999999999454502e+02 -4.2325648285956873e-11 -9.4968211428114157e-12  1.9999999999423835e+02 -1.2583864982711934e-10 -3.7168085335468189e-11  1.9999999999531829e+02 -1.3011572647234506e-10 -5.0092513093035338e-11  1.9999999999464967e+02 1.6170506816880378e-10 3.5552992262793928e-11  1.9999999999642316e+02 7.2130199405099083e-11 6.6959805403875798e-11  1.9999999999532642e+02 -1.0721122136827894e-10 -2.1662968245226060e-10  1.9999999999543476e+02 -3.8739523058985832e-11 -7.7951971160353350e-11  1.9999999999633687e+02 -3.4712602637645234e-11 -5.3658325938265580e-11  1.9999999999647082e+02 1.5618275946146798e-10 2.7574614776175725e-11  1.9999999999538616e+02 -8.0211226586308898e-11 4.5970417669439718e-11  1.9999999999284231e+02 5.8845340188235967e-11 8.1487769796402365e-11  1.9999999999269994e+02 -9.5069315335792328e-11 -1.2668355020442002e-11  1.9999999999243818e+02 -1.0993261259573644e-10 -4.8327951888257182e-11  1.9999999999354449e+02 -9.8371797112962733e-11 -4.4733384418516159e-11  1.9999999999284927e+02 1.4635354609591662e-10 1.1337274419605733e-11  1.9999999999348123e+02 -1.3261201937222404e-10 -2.2961261177784181e-10  1.9999999999358874e+02 -1.7845880451809723e-11 9.8928061255997087e-12  1.9999999999354822e+02 -9.3300411711994564e-11 1.0997777858897063e-11  1.9999999999173556e+02 -4.4230014053763328e-11 -2.5030605204575597e-10  1.9999999999173878e+02 -3.6611532205735847e-11 -3.4353614384450965e-11  1.9999999999175634e+02 -1.4598364872972316e-10 7.1660329796405465e-11  1.9999999999108985e+02 8.8445433088151471e-11 3.4082092957971373e-11  1.9999999999466687e+02 -2.7901555816843435e-11 1.2749481019766736e-10  1.9999999999454437e+02 -6.7307644180051145e-11 4.9190243646420346e-12  1.9999999999435579e+02 6.2183109641658803e-11 -1.6209783782011776e-10  1.9999999999533631e+02 -6.8215257718386400e-11 -1.1192179307978805e-10  1.9999999999465140e+02 -1.3214815212893323e-10 1.1938610831216769e-10  1.9999999999527483e+02 2.6489711868574774e-11 -2.2921645502651935e-10  1.9999999999645993e+02 -6.1947271718716915e-11 1.2551672684122462e-10  1.9999999999539276e+02 -3.7068323971818657e-11 -1.1900599820423336e-10  1.9999999999285725e+02 -1.3582265184843263e-10 1.1797032150736995e-10  1.9999999999260345e+02 -1.4581140832850715e-11 8.7825099962415638e-11  1.9999999999349151e+02 3.3673137323497723e-11 -1.6605458663777702e-10  1.9999999999348029e+02 -2.8271833996834882e-11 -9.7928007592959108e-11  1.9999999999290770e+02 3.0436550332837761e-11 1.2993881065971295e-10  1.9999999999360864e+02 -3.7162279217769353e-11 -1.1548925334041522e-10  2.0000000000056997e+02 3.6458296513782585e-11 1.1357411836539093e-10  1.9999999999899535e+02 -1.5506010928530776e-10 -2.4359053039149162e-10  1.9999999999901831e+02 -1.9470958999296993e-11 -1.1787452617043089e-10  1.9999999999894757e+02 -1.4068100636476152e-10 -1.3227385707743475e-10  1.9999999999818269e+02 -2.9031934768769280e-11 1.4127491034540462e-10  1.9999999999813232e+02 -5.0984207990873620e-11 -9.8534544245246005e-11  1.9999999999820847e+02 1.5870304953595483e-10 9.1344088485412227e-11  2.0000000000006349e+02 -8.4773305248616329e-11 -1.1751103328321942e-10  1.9999999999957390e+02 -1.0641094418593879e-10 -1.2022602536461634e-10  2.0000000000059177e+02 1.0770882814183706e-10 6.6087018940650831e-11  1.9999999999897011e+02 -9.3495074236427254e-12 -5.0164686130320020e-11  2.0000000000055664e+02 7.6695240545100077e-11 6.5402637113048725e-11  1.9999999999903827e+02 -1.7369693935928476e-10 -1.8462793151061806e-10  2.0000000000008461e+02 -9.0324972116937042e-11 -8.7853218178841523e-11  2.0000000000002856e+02 -6.0937968541218564e-11 -9.0746117948880837e-11  1.9999999999821813e+02 8.4724038051979898e-11 1.0335195736851914e-10  1.9999999999815046e+02 -8.8583054403837910e-11 -2.3337753604333760e-11  1.9999999999812158e+02 -2.4673116949876115e-10 -2.4513659354110297e-10  1.9999999999898006e+02 -1.1948477380248231e-10 -1.2682327647274629e-10  1.9999999999816188e+02 -1.4103590877656600e-11 -1.0625384452411634e-10  1.9999999999905302e+02 -2.0390520148486798e-10 -2.5822338143834634e-10  1.9999999999903500e+02 -2.3508003569369024e-10 -2.0779041129227083e-10  1.9999999999951976e+02 -6.9584978517990592e-11 -9.9698661188300931e-11  2.0000000000002598e+02 -1.0203583649746763e-10 -1.0457157421760852e-10  2.0000000000056545e+02 5.9146297541098684e-11 5.3493671496027359e-11  1.9999999999902533e+02 -1.2172459358272019e-11 -1.7144320983695396e-11  2.0000000000002473e+02 -1.0653307212473423e-10 -6.2605659434349256e-11  2.0000000000061740e+02 8.3981601589130508e-11 1.1675890912658443e-10  2.0000000000002424e+02 -1.3167226329076824e-10 -8.5997035302890833e-11  1.9999999999644979e+02 8.2875949984792753e-11 4.9680454033526968e-11  1.9999999999635682e+02 -3.2358759515944291e-11 -4.8179473362841220e-11  1.9999999999615466e+02 -1.5632678055149105e-10 -1.6497741468806096e-10  1.9999999999716024e+02 -1.2760967355631737e-10 -1.3865952564280329e-10  1.9999999999643015e+02 1.1453080440315225e-10 2.7315365333827424e-11  1.9999999999633599e+02 -5.7726172235321844e-11 -5.3398408781226674e-11  1.9999999999711639e+02 -1.7992297823306593e-10 -2.1743685664823288e-10  1.9999999999716664e+02 2.6011916012221484e-11 -4.7626847926226932e-11  1.9999999999715311e+02 -2.2819555396081705e-10 -1.6327713568136926e-10  1.9999999999715206e+02 -2.8341455639838446e-11 -2.6209166004847930e-11  1.9999999999463509e+02 6.0541783728461641e-11 1.0465027395430798e-10  1.9999999999453686e+02 -5.3513542280283527e-11 -1.5667901561586996e-10  1.9999999999431586e+02 -6.9827586254468152e-11 -1.7596803193210617e-10  1.9999999999536197e+02 -9.6144109804060970e-11 -1.5340985213742195e-10  1.9999999999466317e+02 7.3025027810764099e-11 8.0596504674884948e-11  1.9999999999469102e+02 7.5894459686729045e-11 8.5715378192538382e-11  1.9999999999457299e+02 -5.1992322608785527e-12 -5.0763040747876240e-11  1.9999999999533759e+02 -1.0544734473123123e-10 -2.3600628949279297e-10  1.9999999999540100e+02 1.7429155739884034e-11 -1.8986845960879080e-11  1.9999999999534779e+02 -2.1211963570754751e-10 -1.7066375873010070e-10  1.9999999999543448e+02 -4.3305421289350373e-11 -6.8764696192762267e-11  1.9999999999284364e+02 9.7181837928133226e-11 7.1478335710869658e-11  1.9999999999273138e+02 -1.0560908461825401e-11 -4.6572257077988958e-11  1.9999999999263096e+02 -1.3898558083683095e-10 -1.1335730690591732e-10  1.9999999999353443e+02 -1.0858705675344592e-10 -1.0203780648926545e-10  1.9999999999289756e+02 8.5821741760413848e-11 7.3400450359949415e-11  1.9999999999287360e+02 8.3127899658516337e-11 8.4711905168769174e-11  1.9999999999267789e+02 -7.4045102154491911e-11 -5.7052653891560888e-12  1.9999999999351303e+02 -1.5154353677311397e-10 -2.1213762902747832e-10  1.9999999999362097e+02 1.1022120509447166e-11 9.7663344115794520e-12  1.9999999999347435e+02 -1.8269943478831359e-10 -1.7261395211536886e-10  1.9999999999358465e+02 -5.1651126348393295e-11 -3.8059230546050923e-11  1.9999999999819607e+02 -6.4637978539938738e-11 -3.8437698264253872e-11  1.9999999999817081e+02 -2.4032157709293279e-10 -2.7409686438672696e-10  1.9999999999897889e+02 -1.3197328422771938e-10 -1.4264419494151079e-10  1.9999999999820253e+02 1.3984508192314446e-10 8.3866076092699870e-11  1.9999999999817584e+02 -6.5598653437404270e-11 -6.6128842663904930e-11  1.9999999999905776e+02 -1.4842692046123090e-10 -2.0230707276731891e-10  1.9999999999907791e+02 -1.5231972118294000e-10 -1.6997327681261245e-10  1.9999999999957205e+02 -8.8617276826916591e-11 -8.6824154984678009e-11  2.0000000000001734e+02 -7.5313619457475196e-11 -1.5324060887297607e-10  2.0000000000053453e+02 1.2446272049114585e-10 8.5062078295900030e-11  1.9999999999901925e+02 1.1247236699989244e-11 -1.4849314120913785e-12  2.0000000000011190e+02 -5.9829297778062334e-11 -1.0682587042663549e-10  2.0000000000001128e+02 -9.3458360052805287e-11 -7.0996542991616423e-11  1.9999999999634952e+02 -1.8918973447746057e-11 -8.1845889104809734e-11  1.9999999999619055e+02 -1.0701625572337902e-10 -1.4127474983995850e-10  1.9999999999714689e+02 -8.0874084299524355e-11 -1.2723142879861913e-10  1.9999999999644334e+02 1.1486827263293410e-10 7.8008183649651060e-11  1.9999999999631305e+02 -1.8123181168546463e-11 -4.8473162663086240e-11  1.9999999999716624e+02 -1.3570978231578210e-10 -2.1029394894681668e-10  1.9999999999714186e+02 -1.6498293502594915e-10 -1.4923402794271602e-10  1.9999999999727459e+02 -2.8341018874582622e-12 -5.8242773820534257e-11  1.9999999999722411e+02 -8.7237677327321204e-12 -5.1905407041879291e-11  1.9999999999452524e+02 -2.4830939250380720e-11 -8.1352021236487737e-11  1.9999999999434220e+02 -1.3302045283650030e-10 -1.4061024995254808e-10  1.9999999999534214e+02 -1.1852242238536443e-10 -1.4505195849781687e-10  1.9999999999464774e+02 8.3890896518146046e-11 4.8069035785429938e-11  1.9999999999457398e+02 -8.6275682812243243e-11 -6.1931648169115223e-11  1.9999999999532102e+02 -1.2435935139776217e-10 -2.5241255432942744e-10  1.9999999999531329e+02 -1.9954415043444707e-10 -1.3795819442193042e-10  1.9999999999536809e+02 -1.7273810250883723e-11 -6.0693076738139690e-11  1.9999999999262022e+02 -1.4048893781061451e-10 -9.6674884886316158e-11  1.9999999999263727e+02 -5.4994256973069562e-11 -2.9841441444760639e-11  1.9999999999354023e+02 -1.2164639068094354e-10 -1.3064470752337634e-10  1.9999999999266191e+02 -4.6821000822372711e-11 -8.7121331866616375e-11  1.9999999999283662e+02 3.6277363356688861e-11 6.9909057259318368e-11  1.9999999999269474e+02 -4.8234375122069747e-11 -4.0758499199730536e-11  1.9999999999351760e+02 -1.2318457326575832e-10 -2.0826550692135011e-10  1.9999999999353273e+02 -1.7191996688457744e-10 -1.7964265431824622e-10  1.9999999999363547e+02 -2.5643277196020240e-11 -2.7027298289514724e-11  1.9999999999897784e+02 -1.5024826060692320e-10 -1.0730542134286899e-10  1.9999999999819738e+02 -2.9565836565225140e-10 -2.3489264936998044e-10  1.9999999999817967e+02 -7.2231991940872269e-11 -7.0300305504473242e-11  1.9999999999821102e+02 1.3419039749082558e-10 9.8035000956712922e-11  1.9999999999818533e+02 -8.3551235708329538e-11 -1.2759676852412712e-10  1.9999999999903665e+02 -1.7404328432807209e-10 -2.1456481009429702e-10  1.9999999999903739e+02 -1.7718446242024245e-10 -1.5382235328399473e-10  1.9999999999965476e+02 -7.9475246614216077e-11 -9.2491970573546857e-11  2.0000000000006091e+02 -9.7152614180269621e-11 -1.1495876737657336e-10  2.0000000000058591e+02 1.2481044256193586e-10 1.0131008206563857e-10  1.9999999999894533e+02 1.1857409579635169e-11 2.3718200411640475e-11  2.0000000000004377e+02 -1.2600532750571862e-10 -4.2157921291024863e-11  1.9999999999715021e+02 -1.3436062283455759e-10 -9.5817319722257090e-11  1.9999999999718227e+02 -1.6453557751228663e-10 -2.3022589095983043e-10  1.9999999999613442e+02 -1.1983022047991715e-10 -1.2378982043010349e-10  1.9999999999633096e+02 2.3951850777176975e-12 -6.5891192146435455e-11  1.9999999999645107e+02 1.3435557157796226e-10 5.5170527648672538e-11  1.9999999999634730e+02 -7.7982221524036581e-11 -4.8029577482268194e-11  1.9999999999716030e+02 -1.5959772753893501e-10 -2.4351025698806953e-10  1.9999999999720444e+02 -1.6184715163599361e-10 -1.2267842065085869e-10  1.9999999999723727e+02 -1.1270772306510761e-10 1.7290691778867821e-11  1.9999999999725532e+02 -5.6202222903220294e-12 -3.6709239826952390e-11  1.9999999999534276e+02 -1.1418567439441230e-10 -1.1375079932065661e-10  1.9999999999434863e+02 -1.2055214752827734e-10 -1.6537122694361483e-10  1.9999999999453794e+02 -1.2157678987233224e-11 -4.0959073150540333e-11  1.9999999999462784e+02 1.1400638984303356e-10 9.0255029621390807e-11  1.9999999999456335e+02 2.8959024318477139e-11 -3.3021531175923129e-11  1.9999999999528055e+02 -1.1848506346627499e-10 -2.7965286431672499e-10  1.9999999999530237e+02 -1.5146541378758270e-10 -1.3392033205546970e-10  1.9999999999541620e+02 2.3102750015561281e-11 -2.9330299040168293e-11  1.9999999999350766e+02 -1.0597610963155147e-10 -1.0950768403463306e-10  1.9999999999254692e+02 -1.5387430794533506e-10 -1.4133638042065898e-10  1.9999999999269809e+02 -4.2311056275316859e-11 -3.2719950753415135e-11  1.9999999999281707e+02 8.2103468538003781e-11 8.9884274189216896e-11  1.9999999999268240e+02 -1.7769601208981695e-11 2.7212582322813602e-12  1.9999999999350746e+02 -1.1075184009541602e-10 -2.4702030682162413e-10  1.9999999999347639e+02 -2.2032039103745357e-10 -1.0468061154618480e-10  1.9999999999359642e+02 -1.5328486934181971e-11 -4.5383191174905392e-11  1.9999999999176774e+02 -6.0710460826804940e-11 -1.1587226796490669e-10  1.9999999999175537e+02 -2.2054451919005263e-10 -1.4212195979727930e-10  1.9999999999086467e+02 3.7574286788768515e-11 3.7932104806897929e-11  1.9999999999106979e+02 3.9928276211374843e-11 5.7195137491480390e-11  1.9999999999176410e+02 -3.6955704563923968e-11 -2.8246198032028191e-10  1.9999999999184939e+02 -3.1846803402346054e-11 1.3594292212298849e-11  1.9999999999901129e+02 -1.1835303379645462e-10 -9.4777494958749268e-11  1.9999999999914507e+02 -2.7163508802572450e-10 -6.6366505770905956e-11  1.9999999999816191e+02 -2.5970099853480749e-10 -2.1844166849890277e-10  1.9999999999818837e+02 -1.1737126863018185e-11 3.8510056911442760e-12  1.9999999999823964e+02 1.7988661406591834e-10 -2.5505723296883278e-11  1.9999999999818294e+02 -6.5639311109163312e-11 -3.8416560356344121e-11  1.9999999999818380e+02 1.2986180917329471e-10 1.0597722233699614e-10  1.9999999999815165e+02 -3.3902614202214353e-11 -9.4748366170869338e-11  1.9999999999903133e+02 -1.2583252289034011e-10 -1.5198772616386151e-10  1.9999999999998221e+02 -8.8067161714762511e-11 9.7984359792430907e-11  2.0000000000054459e+02 1.3824444181578633e-10 -3.0671372994883591e-11  1.9999999999905808e+02 -1.4645852184866363e-10 -1.0064688289065493e-10  1.9999999999903602e+02 -3.3650303753013352e-11 4.8085800008526679e-11  1.9999999999967559e+02 -9.4154411782948227e-11 1.5938163882572079e-11  2.0000000000006474e+02 -6.9469773922353453e-11 -8.9942597644855590e-11  2.0000000000056986e+02 1.0474749498343740e-10 1.1011625585539439e-10  1.9999999999900177e+02 -9.8342576847277037e-11 2.7955297540889301e-11  1.9999999999998985e+02 -5.8685229170856739e-11 -2.7314329185816404e-11  1.9999999999718855e+02 -1.0445141899913570e-10 -1.1336259435697204e-10  1.9999999999708245e+02 -2.2213952024955768e-10 -4.3186896413688275e-11  1.9999999999620610e+02 -1.5615638661913869e-10 -8.7291476098733999e-11  1.9999999999626201e+02 -1.0910809171087906e-10 8.8475142518956535e-11  1.9999999999644751e+02 1.3917994944168014e-10 -2.6383742541929700e-11  1.9999999999633366e+02 -4.2472522301746038e-11 7.5037360962864791e-12  1.9999999999646693e+02 8.2615431054538797e-11 6.1102493118988689e-11  1.9999999999634403e+02 -8.4434942390402572e-12 -4.6087006094100128e-11  1.9999999999719842e+02 -1.6260513858427434e-10 -1.9520368468865742e-10  1.9999999999715837e+02 -1.8472357855811336e-10 -1.4935668460556433e-10  1.9999999999720106e+02 -8.2085068350968036e-11 4.2397574474570751e-11  1.9999999999723585e+02 -1.5545128810770056e-11 -1.7398300029670287e-11  1.9999999999533486e+02 -1.0889695547307083e-10 -1.3047760903777771e-10  1.9999999999527083e+02 -2.2141679490406756e-10 -3.5432047362768756e-11  1.9999999999431509e+02 -1.5254174274180067e-10 -1.3096852252940125e-10  1.9999999999444566e+02 -1.9757474746433274e-11 5.7065160274438553e-11  1.9999999999465885e+02 1.1601248533802698e-10 -2.8370631950851430e-11  1.9999999999450770e+02 -1.9420262310120923e-12 -8.9997119551711862e-11  1.9999999999463677e+02 8.9872008919739659e-11 7.1675586434121281e-11  1.9999999999451023e+02 -6.2519370619701555e-11 -2.8027399589794511e-11  1.9999999999530661e+02 -1.4521755726129534e-10 -1.8617094618430693e-10  1.9999999999531812e+02 -2.0473402171772287e-10 -1.1619016137200530e-10  1.9999999999544724e+02 -1.0624438544087210e-10 9.5389350231439170e-11  1.9999999999534478e+02 -1.7130720499830705e-11 -3.0826222436471042e-11  1.9999999999352727e+02 -9.5767763999975609e-11 -1.3548308483038703e-10  1.9999999999340031e+02 -2.0440604904176839e-10 -9.1565263257535781e-11  1.9999999999249803e+02 -1.1419065713380756e-10 -1.2903450642241766e-10  1.9999999999260757e+02 -2.7612702885698640e-11 3.2390374657428288e-11  1.9999999999282807e+02 1.1604621266328214e-10 -4.9734110588422283e-11  1.9999999999267700e+02 -1.6062992558042265e-12 -2.9920613536308306e-12  1.9999999999282781e+02 1.1592265591873733e-10 8.6650538075439860e-11  1.9999999999270136e+02 -1.9192146009966216e-11 -1.3454870906915947e-11  1.9999999999350135e+02 -1.3174517011216396e-10 -2.0003593067879344e-10  1.9999999999350914e+02 -1.4837198489685658e-10 -1.2702940737054703e-10  1.9999999999358283e+02 -8.9023859828046042e-11 6.9446167601668838e-11  1.9999999999357658e+02 2.7211653376647486e-12 -2.2885522885299177e-11  1.9999999999178164e+02 -1.0245345084505990e-10 -9.1809134331925293e-11  1.9999999999159999e+02 -2.2035939084361532e-10 -1.1407479045068419e-10  1.9999999999074862e+02 -1.5974203807972781e-10 -9.4766819718275763e-11  1.9999999999085574e+02 -1.8690751250143171e-11 4.6393231164072720e-11  1.9999999999107729e+02 1.3408655831165551e-10 -2.8697781972959631e-11  1.9999999999093168e+02 1.2118272549781538e-11 -2.8969403598059565e-12  1.9999999999103133e+02 8.2384627965260121e-11 5.5086666597040673e-11  1.9999999999088845e+02 -4.4119906996503963e-11 1.0480751490964111e-11  1.9999999999174443e+02 -1.2618608166007510e-10 -2.0794534581475805e-10  1.9999999999170365e+02 -1.6608582128302980e-10 -1.0155533493819248e-10  1.9999999999175975e+02 -6.5755547402335179e-11 2.8587077905791616e-11  1.9999999999179778e+02 -1.7658137768341915e-11 -8.9901035148706098e-12  1.9999999999002790e+02 -9.0655170146479796e-11 -9.6291256257962128e-11  1.9999999998988548e+02 -3.9698629360932376e-11 -9.4189838969443086e-11  1.9999999998998388e+02 -6.5081004051659647e-11 -2.7285637594104762e-10  1.9999999999005010e+02 -2.0937873794684962e-11 8.3419289342787571e-13  1.9999999998996469e+02 -1.8103687415325544e-10 -1.5108754967201354e-10  1.9999999999900865e+02 -6.6601923820504386e-11 -3.6241048520772260e-11  1.9999999999914806e+02 -2.2464177415429585e-10 -1.0424428221121061e-10  1.9999999999814105e+02 -2.5043959161466705e-10 -2.7255330815480988e-10  1.9999999999818309e+02 -8.2147525258661324e-11 -2.4839914728652313e-11  1.9999999999816978e+02 1.5753202441329090e-10 -3.9381074894451041e-11  1.9999999999811894e+02 -7.9791591843380038e-11 -3.5722858348207756e-11  1.9999999999814628e+02 1.5443268895320259e-10 1.0942167980026906e-10  1.9999999999823342e+02 -5.2705434920470203e-11 -7.7397124994241647e-11  1.9999999999904827e+02 -1.2918244086889140e-10 -1.4643948324237251e-10  2.0000000000003794e+02 -6.5918944874502273e-11 1.7559899408200702e-10  2.0000000000058861e+02 1.6573138997858835e-10 -9.2439708104544623e-11  1.9999999999908019e+02 -1.7907238632452291e-10 -1.0035937482607734e-10  1.9999999999900268e+02 -2.9348193809208348e-11 1.4317893186231633e-11  1.9999999999963106e+02 -9.46712