<?xml version="1.0"?>
<VTKFile type="UnstructuredGrid"  version="0.1"  >
<UnstructuredGrid>
<Piece  NumberOfPoints="3871" NumberOfCells="18975">
<Points>
<DataArray  type="Float64"  NumberOfComponents="3"  format="ascii">10 40 0  10 41.25 1.25  10 41.25 0  8.75 41.25 1.25  8.75 41.25 0  10 42.5 0  10 42.5 1.25  10 42.5 2.5  10 40 1.25  10 40 2.5  10 41.25 2.5  8.75 41.25 2.5  7.5 42.5 0  8.75 42.5 1.25  8.75 42.5 0  7.5 42.5 2.5  8.75 42.5 2.5  7.5 42.5 1.25  11.25 41.25 1.25  11.25 41.25 0  11.25 42.5 1.25  11.25 42.5 0  12.5 42.5 0  12.5 42.5 1.25  12.5 42.5 2.5  11.25 41.25 2.5  11.25 42.5 2.5  7.5 43.75 1.25  7.5 43.75 0  6.25 43.75 1.25  6.25 43.75 0  7.5 45 0  7.5 45 1.25  7.5 45 2.5  7.5 43.75 2.5  6.25 45 1.25  6.25 45 0  8.75 43.75 1.25  8.75 43.75 0  10 43.75 1.25  10 43.75 0  10 45 0  10 45 1.25  10 45 2.5  10 43.75 2.5  8.75 43.75 2.5  8.75 45 1.25  8.75 45 0  8.75 45 2.5  11.25 43.75 1.25  11.25 43.75 0  12.5 43.75 1.25  12.5 43.75 0  12.5 45 0  12.5 45 1.25  12.5 45 2.5  12.5 43.75 2.5  11.25 43.75 2.5  11.25 45 1.25  11.25 45 0  11.25 45 2.5  13.75 43.75 1.25  13.75 43.75 0  13.75 45 1.25  13.75 45 0  15 45 0  15 45 1.25  15 45 2.5  13.75 43.75 2.5  13.75 45 2.5  7.5 46.25 1.25  7.5 46.25 0  6.25 46.25 1.25  6.25 46.25 0  7.5 47.5 0  7.5 47.5 1.25  7.5 47.5 2.5  7.5 46.25 2.5  6.25 46.25 2.5  5 47.5 0  6.25 47.5 1.25  6.25 47.5 0  6.25 47.5 2.5  8.75 46.25 1.25  8.75 46.25 0  10 46.25 1.25  10 46.25 0  10 47.5 0  10 47.5 1.25  10 47.5 2.5  10 46.25 2.5  8.75 46.25 2.5  8.75 47.5 1.25  8.75 47.5 0  8.75 47.5 2.5  11.25 46.25 1.25  11.25 46.25 0  12.5 46.25 1.25  12.5 46.25 0  12.5 47.5 0  12.5 47.5 1.25  12.5 47.5 2.5  12.5 46.25 2.5  11.25 46.25 2.5  11.25 47.5 1.25  11.25 47.5 0  11.25 47.5 2.5  13.75 46.25 1.25  13.75 46.25 0  15 46.25 1.25  15 46.25 0  15 47.5 0  15 47.5 1.25  15 47.5 2.5  15 46.25 2.5  13.75 46.25 2.5  13.75 47.5 1.25  13.75 47.5 0  13.75 47.5 2.5  6.25 48.75 1.25  6.25 48.75 0  7.5 48.75 1.25  7.5 48.75 0  7.5 50 0  7.5 50 1.25  7.5 50 2.5  7.5 48.75 2.5  6.25 48.75 2.5  5 50 0  6.25 50 1.25  6.25 50 0  5 50 2.5  6.25 50 2.5  5 50 1.25  8.75 48.75 1.25  8.75 48.75 0  10 48.75 1.25  10 48.75 0  10 50 0  10 50 1.25  10 50 2.5  10 48.75 2.5  8.75 48.75 2.5  8.75 50 1.25  8.75 50 0  8.75 50 2.5  11.25 48.75 1.25  11.25 48.75 0  12.5 48.75 1.25  12.5 48.75 0  12.5 50 0  12.5 50 1.25  12.5 50 2.5  12.5 48.75 2.5  11.25 48.75 2.5  11.25 50 1.25  11.25 50 0  11.25 50 2.5  13.75 48.75 1.25  13.75 48.75 0  15 48.75 1.25  15 48.75 0  15 50 0  15 50 1.25  15 50 2.5  15 48.75 2.5  13.75 48.75 2.5  13.75 50 1.25  13.75 50 0  13.75 50 2.5  10 40 5  11.25 40 5  11.25 38.75 5  11.25 38.75 3.75  12.5 40 5  11.25 40 3.75  10 40 3.75  10 41.25 3.75  8.75 41.25 3.75  10 42.5 3.75  10 42.5 5  10 41.25 5  8.75 42.5 3.75  11.25 41.25 3.75  11.25 41.25 5  12.5 41.25 5  12.5 42.5 5  11.25 42.5 3.75  12.5 42.5 3.75  11.25 42.5 5  8.75 43.75 3.75  10 43.75 3.75  10 45 3.75  10 45 5  10 43.75 5  8.75 43.75 5  8.75 45 3.75  7.5 45 5  8.75 45 5  7.5 45 3.75  11.25 43.75 3.75  12.5 43.75 3.75  12.5 45 3.75  12.5 45 5  12.5 43.75 5  11.25 43.75 5  11.25 45 3.75  11.25 45 5  13.75 43.75 3.75  13.75 45 3.75  15 45 3.75  15 45 5  13.75 43.75 5  13.75 45 5  7.5 46.25 3.75  6.25 46.25 3.75  7.5 47.5 3.75  7.5 47.5 5  7.5 46.25 5  6.25 46.25 5  6.25 47.5 3.75  6.25 47.5 5  8.75 46.25 3.75  10 46.25 3.75  10 47.5 3.75  10 47.5 5  10 46.25 5  8.75 46.25 5  8.75 47.5 3.75  8.75 47.5 5  11.25 46.25 3.75  12.5 46.25 3.75  12.5 47.5 3.75  12.5 47.5 5  12.5 46.25 5  11.25 46.25 5  11.25 47.5 3.75  11.25 47.5 5  13.75 46.25 3.75  15 46.25 3.75  15 47.5 3.75  15 47.5 5  15 46.25 5  13.75 46.25 5  13.75 47.5 3.75  13.75 47.5 5  7.5 48.75 3.75  6.25 48.75 3.75  7.5 50 3.75  7.5 50 5  7.5 48.75 5  6.25 48.75 5  6.25 50 3.75  5 50 5  6.25 50 5  5 50 3.75  8.75 48.75 3.75  10 48.75 3.75  10 50 3.75  10 50 5  10 48.75 5  8.75 48.75 5  8.75 50 3.75  8.75 50 5  11.25 48.75 3.75  12.5 48.75 3.75  12.5 50 3.75  12.5 50 5  12.5 48.75 5  11.25 48.75 5  11.25 50 3.75  11.25 50 5  13.75 48.75 3.75  15 48.75 3.75  15 50 3.75  15 50 5  15 48.75 5  13.75 48.75 5  13.75 50 3.75  13.75 50 5  11.25 40 6.25  11.25 38.75 6.25  12.5 40 6.25  12.5 40 7.5  11.25 41.25 6.25  12.5 41.25 6.25  12.5 42.5 6.25  12.5 42.5 7.5  12.5 41.25 7.5  11.25 41.25 7.5  11.25 42.5 6.25  10 42.5 7.5  11.25 42.5 7.5  10 42.5 6.25  10 43.75 6.25  8.75 43.75 6.25  10 45 6.25  10 45 7.5  10 43.75 7.5  8.75 43.75 7.5  8.75 45 6.25  7.5 45 7.5  8.75 45 7.5  7.5 45 6.25  11.25 43.75 6.25  12.5 43.75 6.25  12.5 45 6.25  12.5 45 7.5  12.5 43.75 7.5  11.25 43.75 7.5  11.25 45 6.25  11.25 45 7.5  13.75 43.75 6.25  13.75 45 6.25  15 45 6.25  15 45 7.5  13.75 43.75 7.5  13.75 45 7.5  7.5 46.25 6.25  6.25 46.25 6.25  7.5 47.5 6.25  7.5 47.5 7.5  7.5 46.25 7.5  6.25 46.25 7.5  6.25 47.5 6.25  6.25 47.5 7.5  8.75 46.25 6.25  10 46.25 6.25  10 47.5 6.25  10 47.5 7.5  10 46.25 7.5  8.75 46.25 7.5  8.75 47.5 6.25  8.75 47.5 7.5  11.25 46.25 6.25  12.5 46.25 6.25  12.5 47.5 6.25  12.5 47.5 7.5  12.5 46.25 7.5  11.25 46.25 7.5  11.25 47.5 6.25  11.25 47.5 7.5  13.75 46.25 6.25  15 46.25 6.25  15 47.5 6.25  15 47.5 7.5  15 46.25 7.5  13.75 46.25 7.5  13.75 47.5 6.25  13.75 47.5 7.5  7.5 48.75 6.25  6.25 48.75 6.25  7.5 50 6.25  7.5 50 7.5  7.5 48.75 7.5  6.25 48.75 7.5  6.25 50 6.25  5 50 7.5  6.25 50 7.5  5 50 6.25  8.75 48.75 6.25  10 48.75 6.25  10 50 6.25  10 50 7.5  10 48.75 7.5  8.75 48.75 7.5  8.75 50 6.25  8.75 50 7.5  11.25 48.75 6.25  12.5 48.75 6.25  12.5 50 6.25  12.5 50 7.5  12.5 48.75 7.5  11.25 48.75 7.5  11.25 50 6.25  11.25 50 7.5  13.75 48.75 6.25  15 48.75 6.25  15 50 6.25  15 50 7.5  15 48.75 7.5  13.75 48.75 7.5  13.75 50 6.25  13.75 50 7.5  12.5 41.25 8.75  11.25 41.25 8.75  12.5 42.5 8.75  12.5 42.5 10  12.5 40 8.75  12.5 40 10  12.5 41.25 10  11.25 41.25 10  11.25 42.5 8.75  10 42.5 10  11.25 42.5 10  10 42.5 8.75  13.75 41.25 8.75  13.75 41.25 10  13.75 42.5 10  15 42.5 10  13.75 42.5 8.75  10 43.75 8.75  8.75 43.75 8.75  10 45 8.75  10 45 10  10 43.75 10  8.75 43.75 10  8.75 45 8.75  7.5 45 10  8.75 45 10  7.5 45 8.75  11.25 43.75 8.75  12.5 43.75 8.75  12.5 45 8.75  12.5 45 10  12.5 43.75 10  11.25 43.75 10  11.25 45 8.75  11.25 45 10  13.75 43.75 8.75  13.75 43.75 10  15 43.75 10  15 45 10  13.75 45 8.75  15 45 8.75  13.75 45 10  7.5 46.25 8.75  6.25 46.25 8.75  7.5 47.5 8.75  7.5 47.5 10  7.5 46.25 10  6.25 46.25 10  6.25 47.5 8.75  5 47.5 10  6.25 47.5 10  8.75 46.25 8.75  10 46.25 8.75  10 47.5 8.75  10 47.5 10  10 46.25 10  8.75 46.25 10  8.75 47.5 8.75  8.75 47.5 10  11.25 46.25 8.75  12.5 46.25 8.75  12.5 47.5 8.75  12.5 47.5 10  12.5 46.25 10  11.25 46.25 10  11.25 47.5 8.75  11.25 47.5 10  13.75 46.25 8.75  15 46.25 8.75  15 47.5 8.75  15 47.5 10  15 46.25 10  13.75 46.25 10  13.75 47.5 8.75  13.75 47.5 10  7.5 48.75 8.75  6.25 48.75 8.75  7.5 50 8.75  7.5 50 10  7.5 48.75 10  6.25 48.75 10  6.25 50 8.75  5 50 10  6.25 50 10  5 50 8.75  8.75 48.75 8.75  10 48.75 8.75  10 50 8.75  10 50 10  10 48.75 10  8.75 48.75 10  8.75 50 8.75  8.75 50 10  11.25 48.75 8.75  12.5 48.75 8.75  12.5 50 8.75  12.5 50 10  12.5 48.75 10  11.25 48.75 10  11.25 50 8.75  11.25 50 10  13.75 48.75 8.75  15 48.75 8.75  15 50 8.75  15 50 10  15 48.75 10  13.75 48.75 10  13.75 50 8.75  13.75 50 10  12.5 40 11.25  12.5 38.75 11.25  11.25 38.75 11.25  12.5 40 12.5  12.5 37.5 12.5  12.5 38.75 12.5  11.25 38.75 12.5  11.25 40 11.25  10 40 12.5  11.25 40 12.5  10 42.5 11.25  10 41.25 11.25  8.75 41.25 11.25  10 42.5 12.5  10 41.25 12.5  8.75 41.25 12.5  8.75 42.5 11.25  7.5 42.5 12.5  8.75 42.5 12.5  12.5 41.25 11.25  11.25 41.25 11.25  12.5 42.5 11.25  12.5 42.5 12.5  12.5 41.25 12.5  11.25 41.25 12.5  11.25 42.5 11.25  11.25 42.5 12.5  13.75 41.25 11.25  13.75 42.5 11.25  15 42.5 11.25  15 42.5 12.5  13.75 41.25 12.5  13.75 42.5 12.5  7.5 45 11.25  7.5 43.75 11.25  6.25 43.75 11.25  7.5 45 12.5  7.5 43.75 12.5  6.25 45 11.25  10 43.75 11.25  8.75 43.75 11.25  10 45 11.25  10 45 12.5  10 43.75 12.5  8.75 43.75 12.5  8.75 45 11.25  8.75 45 12.5  11.25 43.75 11.25  12.5 43.75 11.25  12.5 45 11.25  12.5 45 12.5  12.5 43.75 12.5  11.25 43.75 12.5  11.25 45 11.25  11.25 45 12.5  13.75 43.75 11.25  15 43.75 11.25  15 45 11.25  15 45 12.5  15 43.75 12.5  13.75 43.75 12.5  13.75 45 11.25  13.75 45 12.5  7.5 46.25 11.25  6.25 46.25 11.25  7.5 47.5 11.25  7.5 47.5 12.5  7.5 46.25 12.5  6.25 46.25 12.5  6.25 47.5 11.25  6.25 47.5 12.5  8.75 46.25 11.25  10 46.25 11.25  10 47.5 11.25  10 47.5 12.5  10 46.25 12.5  8.75 46.25 12.5  8.75 47.5 11.25  8.75 47.5 12.5  11.25 46.25 11.25  12.5 46.25 11.25  12.5 47.5 11.25  12.5 47.5 12.5  12.5 46.25 12.5  11.25 46.25 12.5  11.25 47.5 11.25  11.25 47.5 12.5  13.75 46.25 11.25  15 46.25 11.25  15 47.5 11.25  15 47.5 12.5  15 46.25 12.5  13.75 46.25 12.5  13.75 47.5 11.25  13.75 47.5 12.5  6.25 48.75 11.25  7.5 48.75 11.25  7.5 50 11.25  7.5 50 12.5  7.5 48.75 12.5  6.25 48.75 12.5  6.25 50 11.25  5 50 12.5  6.25 50 12.5  5 50 11.25  8.75 48.75 11.25  10 48.75 11.25  10 50 11.25  10 50 12.5  10 48.75 12.5  8.75 48.75 12.5  8.75 50 11.25  8.75 50 12.5  11.25 48.75 11.25  12.5 48.75 11.25  12.5 50 11.25  12.5 50 12.5  12.5 48.75 12.5  11.25 48.75 12.5  11.25 50 11.25  11.25 50 12.5  13.75 48.75 11.25  15 48.75 11.25  15 50 11.25  15 50 12.5  15 48.75 12.5  13.75 48.75 12.5  13.75 50 11.25  13.75 50 12.5  11.25 40 13.75  11.25 38.75 13.75  12.5 40 13.75  12.5 40 15  10 40 13.75  10 40 15  11.25 40 15  10 41.25 13.75  8.75 41.25 13.75  10 42.5 13.75  10 42.5 15  10 41.25 15  8.75 41.25 15  8.75 42.5 13.75  7.5 42.5 15  8.75 42.5 15  7.5 42.5 13.75  11.25 41.25 13.75  12.5 41.25 13.75  12.5 42.5 13.75  12.5 42.5 15  12.5 41.25 15  11.25 41.25 15  11.25 42.5 13.75  11.25 42.5 15  13.75 41.25 13.75  13.75 42.5 13.75  15 42.5 13.75  15 42.5 15  13.75 41.25 15  13.75 42.5 15  8.75 43.75 13.75  10 43.75 13.75  10 45 13.75  10 45 15  10 43.75 15  8.75 43.75 15  8.75 45 13.75  7.5 43.75 13.75  7.5 43.75 15  7.5 45 15  8.75 45 15  7.5 45 13.75  11.25 43.75 13.75  12
[...]
<PointData  Vectors="u"> 
<DataArray  type="Float64"  Name="u"  NumberOfComponents="3" format="ascii">1.9999999999286825e+02 6.4807820751871765e-11 6.7969262908527606e-10  1.9999999999263275e+02 -1.7872458840633657e-10 -8.7292179542424928e-11  1.9999999999260439e+02 -6.4019871787969795e-11 8.4969716228082479e-13  1.9999999999355848e+02 -1.1476924205247089e-10 -1.5489680234741982e-10  1.9999999999339647e+02 -2.9543416612936269e-10 -5.6270437577406567e-10  1.9999999999287436e+02 1.1707697718586196e-10 7.2314498342948152e-10  1.9999999999274419e+02 -3.3422811823277063e-11 -4.4878768316220827e-12  1.9999999999284415e+02 9.6488526706434018e-11 1.7261448721692540e-10  1.9999999999268343e+02 6.3618676209783454e-11 -1.9005758529570287e-11  1.9999999999288835e+02 7.9567524566465118e-11 1.0937024800603133e-10  1.9999999999258091e+02 -2.2842531417543340e-11 6.7604247792332172e-11  1.9999999999353227e+02 -1.1320168785251034e-10 -2.5145764285504326e-10  1.9999999999465609e+02 1.3746917506069542e-10 7.2517777670820943e-10  1.9999999999347841e+02 -1.9426670877531549e-10 -1.8730737438659686e-10  1.9999999999350356e+02 -5.1114334384617833e-11 -3.1118292189665129e-11  1.9999999999466189e+02 1.1845416033013110e-10 1.8760367315099109e-10  1.9999999999356194e+02 1.2950225710584686e-11 4.9571360201204362e-11  1.9999999999449361e+02 8.6926886775283905e-12 -9.6991177752625344e-11  1.9999999999179403e+02 -8.4814158198702055e-11 -7.2001805481834398e-11  1.9999999999165047e+02 -5.2539967329766719e-11 -5.0825904528115253e-10  1.9999999999175458e+02 -2.5837556326850913e-10 -1.9712365736926761e-10  1.9999999999181483e+02 -8.7789419799119553e-11 4.6646341226616796e-12  1.9999999999114462e+02 7.1445364893131576e-11 7.4689161809566859e-10  1.9999999999089209e+02 4.1491131607789906e-11 -8.9062710622288945e-11  1.9999999999112467e+02 6.0148609302293141e-11 1.4765772409702435e-10  1.9999999999167696e+02 -9.0995920671727571e-11 7.5177215307497679e-11  1.9999999999177155e+02 1.1335774842391011e-11 2.7713517687091280e-11  1.9999999999434334e+02 -1.2559912448529228e-10 -2.1262358057301583e-10  1.9999999999443222e+02 -6.5388966890056502e-11 5.0488690528591829e-11  1.9999999999533642e+02 -8.8363861725087892e-11 -1.8102541916254752e-10  1.9999999999522160e+02 -2.1144430130844879e-10 -4.4828492908358781e-10  1.9999999999467448e+02 1.0752705097077014e-10 7.4496040882185808e-10  1.9999999999454153e+02 -3.3066975358210856e-11 -7.7172598937454313e-11  1.9999999999466323e+02 1.0790589681893269e-10 1.5375724481939920e-10  1.9999999999452331e+02 -4.6792938311803370e-11 2.1429263416367328e-11  1.9999999999526295e+02 -2.3261862152109173e-10 -1.9821219607664160e-10  1.9999999999537195e+02 -1.1937523524653800e-10 -6.6750738563795484e-12  1.9999999999351360e+02 -6.9948026598831613e-11 -1.6697226238296249e-10  1.9999999999340318e+02 -2.1278641992818283e-10 -4.9268583853563581e-10  1.9999999999257267e+02 -8.9571464940206622e-11 -2.0584759037316952e-10  1.9999999999266086e+02 -3.1497349665750483e-11 4.5592505270489637e-11  1.9999999999286442e+02 1.4125490085508569e-10 7.5317590675006378e-10  1.9999999999272214e+02 6.8203529735292452e-12 -4.0758001754548151e-11  1.9999999999282218e+02 1.1076447678159916e-10 1.7209498582520148e-10  1.9999999999272950e+02 -3.3524398077281788e-11 6.0129441528599493e-11  1.9999999999351800e+02 -1.2836936812716965e-10 -1.7082406585386820e-10  1.9999999999352906e+02 -1.5966023521037269e-10 -1.8681273713226791e-10  1.9999999999360060e+02 -8.3781715478633840e-11 3.0482129152701334e-12  1.9999999999360955e+02 9.1530883494185126e-13 4.4797174259856302e-11  1.9999999999175947e+02 -6.0124555351107765e-11 -1.7513563800783493e-10  1.9999999999166437e+02 -1.8892034048329666e-10 -5.1316553424414155e-10  1.9999999999085068e+02 -1.3539622526784685e-10 -2.1088339910625862e-10  1.9999999999084937e+02 -4.2838550683740587e-11 3.0946216095626066e-11  1.9999999999109599e+02 1.1293732520018867e-10 7.1756282853460937e-10  1.9999999999097014e+02 -1.2202386752670278e-11 -8.2210268078415655e-11  1.9999999999105148e+02 9.0974953408855324e-11 1.7656958722777643e-10  1.9999999999090906e+02 -4.8359219585418161e-12 3.6538179570632949e-11  1.9999999999175813e+02 -8.7073480129137132e-11 -1.2517908562622916e-10  1.9999999999171939e+02 -1.7665259716839611e-10 -2.2033065987703381e-10  1.9999999999181327e+02 -7.3706302615394983e-11 5.9158779066107427e-11  1.9999999999182219e+02 -2.0315562020705912e-11 3.8765662798679144e-11  1.9999999999000900e+02 -5.3593961431558102e-11 -1.7520752831042010e-10  1.9999999998990643e+02 -3.5010454718413885e-11 -5.4075662969796077e-10  1.9999999998996685e+02 -2.0534225720963591e-10 -2.4334174279709796e-10  1.9999999999006999e+02 -1.1595211765467680e-10 2.0692788417031900e-11  1.9999999998935778e+02 1.2706196358338893e-10 7.3687205424574158e-10  1.9999999998912728e+02 1.1682524222886749e-10 -1.1650523550860977e-10  1.9999999998937867e+02 8.6399012637345226e-11 1.7008226739433674e-10  1.9999999998999235e+02 -6.8716258822548111e-11 -2.7805681071951202e-10  1.9999999999004214e+02 -3.7925270579604106e-11 2.2694138579844332e-11  1.9999999999436696e+02 -1.1625050081531401e-10 -1.8590102674189939e-10  1.9999999999445100e+02 -5.8090684809218299e-11 -4.6803997885629727e-12  1.9999999999532687e+02 -8.4231388135463817e-11 -1.8835029304296240e-10  1.9999999999517831e+02 -1.6625270759149430e-10 -4.7777072411228085e-10  1.9999999999468329e+02 9.0599284142541640e-11 7.1712759709464498e-10  1.9999999999452379e+02 -5.8126244239887645e-11 -7.2673750513794203e-11  1.9999999999465714e+02 2.8353519562037522e-11 1.7637955542637081e-10  1.9999999999456566e+02 -5.5582691120800571e-11 3.4535548582177922e-11  1.9999999999529555e+02 -1.2095028114015509e-10 -2.0576286372050588e-10  1.9999999999646982e+02 8.3125092581881958e-11 7.3647341147151030e-10  1.9999999999527506e+02 -1.5216874028883244e-10 -2.3921396107260888e-10  1.9999999999535527e+02 -1.5813093522504757e-10 1.2045792141390285e-11  1.9999999999539097e+02 -2.4302093995127851e-11 2.1803934302215598e-11  1.9999999999354409e+02 -9.1779790282909005e-11 -1.7231528241614829e-10  1.9999999999346434e+02 -1.9184188437643794e-10 -5.0585395547395713e-10  1.9999999999255024e+02 -1.5916360847931664e-10 -2.2225142004083217e-10  1.9999999999263636e+02 -4.7099797192710733e-11 -2.5083486677059543e-11  1.9999999999287266e+02 5.7232652721718954e-11 7.4685779706334697e-10  1.9999999999273834e+02 -1.8616999596088046e-11 -1.3789808478193744e-10  1.9999999999285467e+02 5.8986337821599476e-11 1.8741112553780088e-10  1.9999999999274840e+02 -8.6906131893028128e-11 3.1999494199427893e-11  1.9999999999350783e+02 -1.7120971765422481e-10 -1.9822552838482859e-10  1.9999999999352082e+02 -1.9495055277748414e-10 -2.5183967721939830e-10  1.9999999999359230e+02 -1.4393478653359738e-10 1.4511368413882320e-11  1.9999999999359673e+02 -8.1873003094881512e-12 7.8662928179122136e-11  1.9999999999178186e+02 -7.4695697896201909e-11 -1.7654265195642960e-10  1.9999999999164569e+02 -1.7154287213242196e-10 -4.9633130079702748e-10  1.9999999999077471e+02 -9.0324495646431304e-11 -2.1798100581500533e-10  1.9999999999085091e+02 -2.0019097420620050e-11 -1.9786700955463651e-11  1.9999999999112038e+02 9.2032239037885232e-11 7.1951074971454065e-10  1.9999999999096482e+02 -3.2635100018392327e-11 -1.4044235781753410e-10  1.9999999999108007e+02 7.0294795609977840e-11 1.9263222368161327e-10  1.9999999999095400e+02 -1.1796630149852882e-11 4.2516666832044842e-11  1.9999999999172570e+02 -1.1486475607204486e-10 -1.6694480596630050e-10  1.9999999999173096e+02 -1.6765899175401185e-10 -2.2259421867248930e-10  1.9999999999182504e+02 -1.3263579157095783e-10 -9.0736660791650121e-13  1.9999999999183891e+02 -3.4537942015366223e-11 4.2508878224045781e-11  1.9999999999001312e+02 -5.9978024916438124e-11 -1.8196302593100211e-10  1.9999999998991987e+02 -1.6354055419401002e-10 -5.4688695457525510e-10  1.9999999998911176e+02 -1.3107032921245999e-10 -2.4337656248819058e-10  1.9999999998915354e+02 -3.3255632476013144e-11 -1.3272786295764757e-11  1.9999999998938031e+02 9.4519996960562593e-11 7.3280239770342043e-10  1.9999999998918602e+02 3.3184032807103424e-11 -1.0417587102043584e-10  1.9999999998939879e+02 8.8217020910268416e-11 1.7345136590572259e-10  1.9999999998917738e+02 8.2700781030373902e-12 5.8844266059361965e-11  1.9999999998997296e+02 -7.4826173399076501e-11 -1.8110227298174228e-10  1.9999999998997922e+02 -1.4760921411866510e-10 -2.3032260911322646e-10  1.9999999999004481e+02 -1.2269484081927599e-10 -1.3834939803479326e-11  1.9999999999006235e+02 2.8830911490427441e-11 2.5438199551889744e-11  1.9999999999528040e+02 3.0242201527932627e-11 -2.0643191940059784e-10  1.9999999999521310e+02 -8.3919676136689877e-11 -5.2564574307146253e-10  1.9999999999438893e+02 2.9582662798932978e-11 -2.3666287000079099e-10  1.9999999999444796e+02 3.2213155496211694e-11 6.5111230619739594e-11  1.9999999999467536e+02 -5.3045390271803460e-10 7.3628645534078060e-10  1.9999999999462054e+02 -8.9091135802882523e-12 -8.2302552414550821e-11  1.9999999999459484e+02 -5.5825057640855085e-10 1.3412012577544456e-10  1.9999999999455480e+02 7.1584954575536480e-11 5.8468229534056107e-11  1.9999999999530070e+02 4.1056491816949392e-11 -1.9248094231470216e-10  1.9999999999644297e+02 -5.0812139985209869e-10 7.9227602879129905e-10  1.9999999999536638e+02 2.9349108399838707e-10 -1.1614181943242402e-10  1.9999999999538082e+02 -5.3327639018038359e-11 4.1160596130981386e-11  1.9999999999642708e+02 -5.4302577226067160e-10 1.6387194573752882e-10  1.9999999999539008e+02 -9.1099280662577683e-12 1.3383914386286984e-10  1.9999999999642245e+02 -3.4124247994946874e-11 -1.3351422204177935e-10  1.9999999999353233e+02 4.5127619593293264e-11 -2.1706547758968103e-10  1.9999999999342680e+02 -5.2265456423102229e-11 -5.2123845386734489e-10  1.9999999999255814e+02 -7.6578499487659117e-12 -2.2445486371944962e-10  1.9999999999264045e+02 2.8802372712135046e-11 6.9180132110973400e-11  1.9999999999280729e+02 -5.2638481954947149e-10 7.2591834776112618e-10  1.9999999999275542e+02 -1.7901348266583645e-11 -8.5307298121108798e-11  1.9999999999278927e+02 -5.2603074747001249e-10 1.6491721870464375e-10  1.9999999999273226e+02 4.7639107475614000e-11 9.1398672520240717e-11  1.9999999999352960e+02 1.5142830960375064e-11 -1.2673890177104645e-10  1.9999999999361313e+02 2.6399839428113983e-10 -1.5304521354356090e-10  1.9999999999358644e+02 3.1735658052255941e-12 1.1314845697759850e-10  1.9999999999367242e+02 -2.9238730799054027e-11 1.1721048117657679e-10  1.9999999999178348e+02 -1.6358571616706850e-11 -1.9413557262367391e-10  1.9999999999168253e+02 -8.6853007456136121e-11 -4.6896901593149340e-10  1.9999999999080691e+02 3.3404452209784532e-11 -1.9969805999554670e-10  1.9999999999092549e+02 -1.8285334456091224e-11 2.7594561115604066e-11  1.9999999999114743e+02 -5.1178867853318322e-10 7.6306716360408703e-10  1.9999999999110034e+02 -2.8324656291698550e-11 -8.8708226123750297e-11  1.9999999999106646e+02 -4.9887374007913303e-10 1.5095122663540399e-10  1.9999999999101993e+02 5.8968131838313305e-11 4.1477934221684409e-11  1.9999999999176924e+02 1.4125021776247317e-11 -1.4183616241266745e-10  1.9999999999185854e+02 3.4222406077258067e-10 -1.0472684024822631e-10  1.9999999999182987e+02 -1.3148234044705155e-11 1.8051058593550976e-11  1.9999999999188455e+02 1.1322694025146501e-11 1.3968506233611036e-10  1.9999999999002614e+02 5.0714065607862500e-11 -1.7087786709312226e-10  1.9999999998988969e+02 -4.4161699365095677e-11 -5.9151285942097314e-10  1.9999999998912051e+02 2.6328260882636063e-11 -2.2560120844057759e-10  1.9999999998922274e+02 7.9254525297656813e-11 2.7299851190137390e-11  1.9999999998937452e+02 -5.3155181485174650e-10 7.2234275082691887e-10  1.9999999998915754e+02 2.2474307023180372e-11 -7.1363251376875645e-11  1.9999999998936036e+02 -4.7996599890777988e-10 1.2996498725081853e-10  1.9999999998915089e+02 5.3610294448392694e-11 2.9553388766399564e-11  1.9999999999000553e+02 2.5627460171474574e-11 -1.7583997809299103e-10  1.9999999999011197e+02 2.5255988896592976e-10 -1.7588737054138464e-10  1.9999999999008972e+02 -2.3650099261234730e-12 1.1588751396506976e-10  1.9999999999010234e+02 -2.0488437756298819e-11 1.2109580074510197e-10  1.9999999999286092e+02 8.0266151939625715e-11 1.4566600934264115e-10  1.9999999999182211e+02 -2.8458690606659151e-11 -1.9410079723566879e-12  1.9999999999176592e+02 -3.4756823157877197e-11 -1.9413273864265546e-10  1.9999999999177123e+02 -7.1122745579444734e-11 -3.0866098987847233e-11  1.9999999999111793e+02 7.1619290588561338e-11 1.3545046226054078e-10  1.9999999999176265e+02 -2.3058074064856257e-10 -1.1441421549157235e-11  1.9999999999273314e+02 -8.4521974818468955e-12 -4.9867377011771952e-11  1.9999999999254058e+02 -1.1700377926055833e-10 -8.8503121783626222e-11  1.9999999999351562e+02 -9.7341419282727395e-11 -8.9698978617813964e-11  1.9999999999273942e+02 2.5472744545192853e-11 -2.1235228158623192e-11  1.9999999999286121e+02 1.2106822785835402e-10 1.1434595369514687e-10  1.9999999999272097e+02 -7.6122104366335162e-11 5.5258308447490899e-11  1.9999999999349384e+02 -1.9582083393709344e-10 -1.3114657645202796e-10  1.9999999999183598e+02 -1.2253876122721679e-10 -8.2821634630757779e-11  1.9999999999177564e+02 -1.1176091519103269e-10 -1.8321288245488531e-10  1.9999999999090079e+02 -2.2985647838364383e-11 1.2676354115992679e-10  1.9999999999113510e+02 4.7594965398939513e-11 1.0754975359228704e-10  1.9999999999171627e+02 -2.0295047741373702e-10 -6.5148287295714512e-11  1.9999999999090016e+02 1.5518400390319175e-11 5.1077461847207658e-11  1.9999999999179977e+02 -3.0665539715555865e-11 3.4359840686328307e-11  1.9999999999353494e+02 -8.7628247386664248e-11 -1.1951279035443842e-10  1.9999999999256903e+02 -1.0504960273012722e-10 -7.8847646324941363e-11  1.9999999999271785e+02 -2.2671555877518327e-11 -5.9376806021206440e-11  1.9999999999285404e+02 1.0431053304366985e-10 1.3920918603610497e-10  1.9999999999276366e+02 -2.8666425996484283e-11 8.6100293466987535e-12  1.9999999999351652e+02 -7.7899459822154406e-11 -1.6561000888467622e-10  1.9999999999353523e+02 -2.1960862834707634e-10 -1.1605993974416135e-10  1.9999999999466093e+02 1.1338469031372106e-10 1.3631017094801500e-10  1.9999999999356370e+02 -3.3169201967520189e-12 1.5262707554053300e-11  1.9999999999453490e+02 -1.9943094281542806e-11 4.2968664762571647e-12  1.9999999999174923e+02 -8.1678174975617968e-11 -1.1082497714712719e-10  1.9999999999074939e+02 -8.7854337134402660e-11 -9.4604765551200583e-11  1.9999999999095979e+02 1.6125630584712944e-11 9.2974875255303512e-12  1.9999999999110105e+02 1.2124577385308163e-10 1.3560206537156072e-10  1.9999999999099822e+02 -1.5960987721518057e-11 2.6020505282160240e-11  1.9999999999168128e+02 -1.2761913096135429e-10 -1.7704649695672567e-10  1.9999999999173789e+02 -1.8976617459262764e-10 -1.2051884681966395e-10  1.9999999999181259e+02 2.0523155166935852e-11 6.2304706978591652e-11  1.9999999999002364e+02 -7.4935055479904481e-11 -6.3810358060556675e-11  1.9999999998993758e+02 -1.4944094648035357e-10 -6.7092993184079313e-11  1.9999999998917588e+02 9.4155678372879424e-11 1.3447819560952195e-11  1.9999999998935536e+02 1.0818162632758998e-10 1.6366823046521645e-10  1.9999999998996319e+02 -4.8983353478568179e-11 -1.9326198261871329e-10  1.9999999999005061e+02 -8.2618091762338940e-12 7.7780929143095165e-11  1.9999999999434937e+02 -9.8933071103809315e-11 -9.2662851203906862e-11  1.9999999999534771e+02 -1.2045313358981431e-10 -6.9361462332240438e-11  1.9999999999457117e+02 -1.0370144197473249e-11 1.1142762606114822e-14  1.9999999999465777e+02 4.7771654217372847e-11 1.3977343733819368e-10  1.9999999999455966e+02 -5.0001916204996982e-11 2.1837320048771111e-11  1.9999999999532309e+02 -1.2794426785918368e-10 -1.6035537703670657e-10  1.9999999999532983e+02 -1.6377015314176705e-10 -8.6218455815138550e-11  1.9999999999545761e+02 -3.9618068547656687e-11 1.0337101184938302e-11  1.9999999999352147e+02 -8.9581841048149110e-11 -7.9800385664585501e-11  1.9999999999258148e+02 -1.2083072505112450e-10 -1.2567474298734103e-10  1.9999999999275227e+02 1.6614650718130049e-11 2.5855520181676231e-11  1.9999999999284501e+02 1.0649099991660892e-10 1.3283065411732262e-10  1.9999999999277227e+02 -7.5407370574883425e-11 5.6613688505843597e-11  1.9999999999349407e+02 -1.1133336162563322e-10 -2.0415732650230650e-10  1.9999999999351968e+02 -1.7828448610132517e-10 -7.5736850696820934e-11  1.9999999999364368e+02 -2.0436850701105508e-11 4.6062658542918745e-11  1.9999999999176364e+02 -6.9369199831603636e-11 -7.8247868756900528e-11  1.9999999999079830e+02 -1.2684634180426681e-10 -8.7097996598931944e-11  1.9999999999095328e+02 1.5903461316795834e-11 3.2917771383918233e-11  1.9999999999106177e+02 1.0012695784653110e-10 1.4165104101763768e-10  1.9999999999098688e+02 -1.7872841627196853e-11 6.1439343313254460e-11  1.9999999999173022e+02 -9.0771805609031735e-11 -1.5688923616576602e-10  1.9999999999176478e+02 -1.2988435232902228e-10 -4.4559829594281808e-11  1.9999999999185249e+02 -7.5317049520579841e-12 -9.8732191476961818e-13  1.9999999999000622e+02 -8.5464988659854956e-11 -5.4023107495107432e-11  1.9999999998910283e+02 -8.3026797889724323e-11 -5.5632464640458826e-11  1.9999999998919824e+02 -6.0459571387230162e-12 1.3585122813255814e-11  1.9999999998938026e+02 6.1859998777021394e-11 1.4695851746416446e-10  1.9999999998918270e+02 -4.2617842169101578e-11 4.1260567054889404e-11  1.9999999999000335e+02 -9.6560825458616259e-11 -1.4183339766792491e-10  1.9999999998996711e+02 -1.1338480222849896e-10 -9.5227095254748416e-11  1.9999999999003887e+02 -2.2232068255955481e-11 4.9017806566512849e-11  1.9999999999432731e+02 -7.7943094731084870e-12 -8.2646191872216033e-11  1.9999999999530598e+02 4.8207527831743013e-11 -8.1815832849318595e-11  1.9999999999458646e+02 -4.7100157794245828e-12 3.0814317998781517e-11  1.9999999999459953e+02 -5.0255117381760316e-10 1.1219298093639214e-10  1.9999999999457029e+02 3.6082426666658968e-11 9.3089649650539423e-12  1.9999999999534822e+02 3.4586632157683276e-11 -2.5407078409612952e-10  1.9999999999535893e+02 2.8278677476436857e-10 -1.0757986104936486e-11  1.9999999999641895e+02 -4.9327681609486996e-10 4.2869546184300383e-11  1.9999999999544403e+02 -3.5944036865121010e-12 5.6470537524350339e-11  1.9999999999644243e+02 -5.5536901982982629e-12 1.7782187208830778e-11  1.9999999999354864e+02 8.1933925917602439e-13 -1.1163059915063019e-10  1.9999999999254365e+02 -6.0450601251825712e-12 -8.7102914139641571e-11  1.9999999999281690e+02 -4.4849801243287528e-12 3.6445500107461639e-11  1.9999999999284975e+02 -4.8329493448166139e-10 1.1655350725938555e-10  1.9999999999277659e+02 -2.1967784567882403e-11 5.6103624712908968e-11  1.9999999999353415e+02 -2.5609258810724734e-11 -1.5444290513931110e-10  1.9999999999366480e+02 2.2563215575690181e-10 1.3660229423296567e-11  1.9999999999365650e+02 3.4939796539910605e-11 9.8202448177498159e-11  1.9999999999177308e+02 -1.9023736564931440e-11 -6.3904466094839036e-11  1.9999999999079387e+02 -2.2670334806533290e-12 -3.4423666806442554e-11  1.9999999999107499e+02 3.5235168085466390e-11 4.1864395740131022e-11  1.9999999999104668e+02 -5.0417845856186087e-10 1.5249075450189258e-10  1.9999999999094314e+02 2.3219444911660731e-11 3.1787010036401699e-11  1.9999999999180278e+02 3.0965950473118843e-11 -1.3270907894160288e-10  1.9999999999186130e+02 2.7799348201283993e-10 3.1815355258692956e-11  1.9999999999189527e+02 -3.1397443489737245e-11 1.4075994093396157e-10  1.9999999999001051e+02 3.0870374220962238e-11 -9.1928434434854096e-11  1.9999999998909001e+02 3.7749701403253658e-11 -7.0369372182391074e-11  1.9999999998913344e+02 3.3681487634634546e-12 8.2004233831007197e-12  1.9999999998932753e+02 -4.8406425360364273e-10 1.1137519970787756e-10  1.9999999998915126e+02 3.7346434958927939e-11 5.5270888526510136e-11  1.9999999998998925e+02 6.3815631251187491e-11 -1.5856857433937576e-10  1.9999999999010345e+02 2.1702651814510975e-10 1.5053386277978196e-11  1.9999999999007605e+02 1.539957189596085