<?xml version="1.0"?>
<VTKFile type="UnstructuredGrid"  version="0.1"  >
<UnstructuredGrid>
<Piece  NumberOfPoints="4058" NumberOfCells="19986">
<Points>
<DataArray  type="Float64"  NumberOfComponents="3"  format="ascii">17.5 22.5 5  17.5 21.25 5  17.5 21.25 3.75  16.25 21.25 3.75  16.25 21.25 5  20 22.5 2.5  20 22.5 3.75  20 21.25 3.75  18.75 21.25 3.75  20 22.5 5  20 20 5  20 21.25 5  18.75 21.25 5  18.75 22.5 5  22.5 22.5 2.5  22.5 22.5 3.75  22.5 21.25 3.75  21.25 21.25 3.75  22.5 22.5 5  21.25 22.5 3.75  21.25 22.5 2.5  21.25 21.25 5  21.25 22.5 5  17.5 22.5 6.25  17.5 21.25 6.25  16.25 21.25 6.25  17.5 22.5 7.5  20 21.25 6.25  18.75 21.25 6.25  20 22.5 6.25  20 22.5 7.5  18.75 22.5 6.25  18.75 22.5 7.5  22.5 22.5 6.25  22.5 21.25 6.25  21.25 21.25 6.25  22.5 22.5 7.5  22.5 20 7.5  22.5 21.25 7.5  21.25 21.25 7.5  21.25 22.5 6.25  21.25 22.5 7.5  22.5 21.25 8.75  21.25 21.25 8.75  22.5 22.5 8.75  22.5 22.5 10  21.25 22.5 8.75  20 22.5 8.75  20 22.5 10  21.25 22.5 10  0 30 0  1.25 31.25 1.25  1.25 31.25 0  0 31.25 0  0 32.5 0  1.25 32.5 1.25  1.25 32.5 0  2.5 32.5 0  2.5 32.5 1.25  2.5 32.5 2.5  0 31.25 1.25  0 32.5 1.25  0 32.5 2.5  1.25 32.5 2.5  1.25 33.75 1.25  1.25 33.75 0  2.5 33.75 1.25  2.5 33.75 0  2.5 35 0  2.5 35 1.25  2.5 35 2.5  2.5 33.75 2.5  1.25 33.75 2.5  0 33.75 0  0 35 0  1.25 35 1.25  1.25 35 0  0 33.75 1.25  0 33.75 2.5  0 35 2.5  1.25 35 2.5  0 35 1.25  3.75 33.75 1.25  3.75 33.75 0  3.75 35 1.25  3.75 35 0  5 35 0  5 35 1.25  5 35 2.5  3.75 33.75 2.5  3.75 35 2.5  1.25 36.25 1.25  1.25 36.25 0  2.5 36.25 1.25  2.5 36.25 0  2.5 37.5 0  2.5 37.5 1.25  2.5 37.5 2.5  2.5 36.25 2.5  1.25 36.25 2.5  0 36.25 0  0 37.5 0  1.25 37.5 1.25  1.25 37.5 0  0 36.25 1.25  0 36.25 2.5  0 37.5 2.5  1.25 37.5 2.5  0 37.5 1.25  3.75 36.25 1.25  3.75 36.25 0  5 36.25 1.25  5 36.25 0  5 37.5 0  5 37.5 1.25  5 37.5 2.5  5 36.25 2.5  3.75 36.25 2.5  3.75 37.5 1.25  3.75 37.5 0  3.75 37.5 2.5  6.25 36.25 1.25  6.25 35 1.25  6.25 36.25 2.5  6.25 35 2.5  7.5 35 2.5  7.5 36.25 2.5  7.5 37.5 2.5  6.25 36.25 0  6.25 37.5 1.25  6.25 37.5 0  7.5 37.5 0  7.5 37.5 1.25  6.25 37.5 2.5  1.25 38.75 1.25  1.25 38.75 0  2.5 38.75 1.25  2.5 38.75 0  2.5 40 0  2.5 40 1.25  2.5 40 2.5  2.5 38.75 2.5  1.25 38.75 2.5  0 38.75 0  0 40 0  1.25 40 1.25  1.25 40 0  0 38.75 1.25  0 38.75 2.5  0 40 2.5  1.25 40 2.5  0 40 1.25  3.75 38.75 1.25  3.75 38.75 0  5 38.75 1.25  5 38.75 0  5 40 0  5 40 1.25  5 40 2.5  5 38.75 2.5  3.75 38.75 2.5  3.75 40 1.25  3.75 40 0  3.75 40 2.5  6.25 38.75 1.25  6.25 38.75 0  7.5 38.75 1.25  7.5 38.75 0  7.5 40 0  7.5 40 1.25  7.5 40 2.5  7.5 38.75 2.5  6.25 38.75 2.5  6.25 40 1.25  6.25 40 0  6.25 40 2.5  8.75 38.75 1.25  8.75 37.5 1.25  8.75 38.75 2.5  8.75 37.5 2.5  10 37.5 2.5  10 38.75 2.5  10 40 2.5  8.75 38.75 0  8.75 40 1.25  8.75 40 0  10 40 0  10 40 1.25  8.75 40 2.5  1.25 41.25 1.25  1.25 41.25 0  2.5 41.25 1.25  2.5 41.25 0  2.5 42.5 0  2.5 42.5 1.25  2.5 42.5 2.5  2.5 41.25 2.5  1.25 41.25 2.5  0 41.25 0  0 42.5 0  1.25 42.5 1.25  1.25 42.5 0  0 41.25 1.25  0 41.25 2.5  0 42.5 2.5  1.25 42.5 2.5  0 42.5 1.25  3.75 41.25 1.25  3.75 41.25 0  5 41.25 1.25  5 41.25 0  5 42.5 0  5 42.5 1.25  5 42.5 2.5  5 41.25 2.5  3.75 41.25 2.5  3.75 42.5 1.25  3.75 42.5 0  3.75 42.5 2.5  6.25 41.25 1.25  6.25 41.25 0  7.5 41.25 1.25  7.5 41.25 0  7.5 42.5 0  7.5 42.5 1.25  7.5 42.5 2.5  7.5 41.25 2.5  6.25 41.25 2.5  6.25 42.5 1.25  6.25 42.5 0  6.25 42.5 2.5  8.75 41.25 1.25  8.75 41.25 0  8.75 41.25 2.5  1.25 43.75 1.25  1.25 43.75 0  2.5 43.75 1.25  2.5 43.75 0  2.5 45 0  2.5 45 1.25  2.5 45 2.5  2.5 43.75 2.5  1.25 43.75 2.5  0 43.75 0  0 45 0  1.25 45 1.25  1.25 45 0  0 43.75 1.25  0 43.75 2.5  0 45 2.5  1.25 45 2.5  0 45 1.25  3.75 43.75 1.25  3.75 43.75 0  5 43.75 1.25  5 43.75 0  5 45 0  5 45 1.25  5 45 2.5  5 43.75 2.5  3.75 43.75 2.5  3.75 45 1.25  3.75 45 0  3.75 45 2.5  6.25 43.75 1.25  6.25 43.75 0  6.25 43.75 2.5  7.5 43.75 2.5  7.5 45 2.5  6.25 45 1.25  6.25 45 0  6.25 45 2.5  1.25 46.25 1.25  1.25 46.25 0  2.5 46.25 1.25  2.5 46.25 0  2.5 47.5 0  2.5 47.5 1.25  2.5 47.5 2.5  2.5 46.25 2.5  1.25 46.25 2.5  0 46.25 0  0 47.5 0  1.25 47.5 1.25  1.25 47.5 0  0 46.25 1.25  0 46.25 2.5  0 47.5 2.5  1.25 47.5 2.5  0 47.5 1.25  3.75 46.25 1.25  3.75 46.25 0  5 46.25 1.25  5 46.25 0  5 47.5 0  5 47.5 1.25  5 47.5 2.5  5 46.25 2.5  3.75 46.25 2.5  3.75 47.5 1.25  3.75 47.5 0  3.75 47.5 2.5  6.25 46.25 1.25  6.25 46.25 0  6.25 46.25 2.5  6.25 47.5 2.5  6.25 47.5 1.25  1.25 48.75 1.25  1.25 48.75 0  2.5 48.75 1.25  2.5 48.75 0  2.5 50 0  2.5 50 1.25  2.5 50 2.5  2.5 48.75 2.5  1.25 48.75 2.5  0 48.75 0  0 50 0  1.25 50 1.25  1.25 50 0  0 48.75 1.25  0 48.75 2.5  0 50 2.5  1.25 50 2.5  0 50 1.25  3.75 48.75 1.25  3.75 48.75 0  5 48.75 1.25  5 48.75 0  5 50 0  5 50 1.25  5 50 2.5  5 48.75 2.5  3.75 48.75 2.5  3.75 50 1.25  3.75 50 0  3.75 50 2.5  6.25 48.75 1.25  6.25 48.75 2.5  6.25 48.75 0  1.25 33.75 3.75  2.5 33.75 3.75  2.5 35 3.75  2.5 35 5  1.25 35 3.75  0 33.75 3.75  0 32.5 3.75  0 32.5 5  1.25 33.75 5  0 33.75 5  0 35 5  1.25 35 5  0 35 3.75  3.75 33.75 3.75  3.75 35 3.75  5 35 3.75  5 35 5  3.75 35 5  1.25 36.25 3.75  2.5 36.25 3.75  2.5 37.5 3.75  2.5 37.5 5  2.5 36.25 5  1.25 36.25 5  1.25 37.5 3.75  0 36.25 3.75  0 36.25 5  0 37.5 5  1.25 37.5 5  0 37.5 3.75  3.75 36.25 3.75  5 36.25 3.75  5 37.5 3.75  5 37.5 5  5 36.25 5  3.75 36.25 5  3.75 37.5 3.75  3.75 37.5 5  6.25 36.25 3.75  7.5 36.25 3.75  7.5 37.5 3.75  7.5 37.5 5  6.25 35 3.75  7.5 35 3.75  7.5 35 5  7.5 36.25 5  6.25 36.25 5  6.25 35 5  6.25 37.5 3.75  6.25 37.5 5  8.75 36.25 3.75  8.75 35 3.75  8.75 36.25 5  8.75 35 5  10 35 5  10 36.25 5  10 37.5 5  8.75 36.25 2.5  8.75 37.5 3.75  10 37.5 3.75  8.75 37.5 5  1.25 38.75 3.75  2.5 38.75 3.75  2.5 40 3.75  2.5 40 5  2.5 38.75 5  1.25 38.75 5  1.25 40 3.75  0 38.75 3.75  0 38.75 5  0 40 5  1.25 40 5  0 40 3.75  3.75 38.75 3.75  5 38.75 3.75  5 40 3.75  5 40 5  5 38.75 5  3.75 38.75 5  3.75 40 3.75  3.75 40 5  6.25 38.75 3.75  7.5 38.75 3.75  7.5 40 3.75  7.5 40 5  7.5 38.75 5  6.25 38.75 5  6.25 40 3.75  6.25 40 5  8.75 38.75 3.75  10 38.75 3.75  10 40 3.75  10 40 5  10 38.75 5  8.75 38.75 5  8.75 40 3.75  8.75 40 5  11.25 38.75 3.75  11.25 38.75 5  1.25 41.25 3.75  2.5 41.25 3.75  2.5 42.5 3.75  2.5 42.5 5  2.5 41.25 5  1.25 41.25 5  1.25 42.5 3.75  0 41.25 3.75  0 41.25 5  0 42.5 5  1.25 42.5 5  0 42.5 3.75  3.75 41.25 3.75  5 41.25 3.75  5 42.5 3.75  5 42.5 5  5 41.25 5  3.75 41.25 5  3.75 42.5 3.75  3.75 42.5 5  6.25 41.25 3.75  7.5 41.25 3.75  7.5 42.5 3.75  7.5 42.5 5  7.5 41.25 5  6.25 41.25 5  6.25 42.5 3.75  6.25 42.5 5  8.75 41.25 3.75  8.75 41.25 5  10 41.25 5  10 42.5 5  8.75 42.5 5  8.75 42.5 3.75  1.25 43.75 3.75  2.5 43.75 3.75  2.5 45 3.75  2.5 45 5  2.5 43.75 5  1.25 43.75 5  1.25 45 3.75  0 43.75 3.75  0 43.75 5  0 45 5  1.25 45 5  0 45 3.75  3.75 43.75 3.75  5 43.75 3.75  5 45 3.75  5 45 5  5 43.75 5  3.75 43.75 5  3.75 45 3.75  3.75 45 5  6.25 43.75 3.75  7.5 43.75 3.75  7.5 45 3.75  7.5 45 5  7.5 43.75 5  6.25 43.75 5  6.25 45 3.75  6.25 45 5  8.75 43.75 3.75  8.75 43.75 5  1.25 46.25 3.75  2.5 46.25 3.75  2.5 47.5 3.75  2.5 47.5 5  2.5 46.25 5  1.25 46.25 5  1.25 47.5 3.75  0 46.25 3.75  0 46.25 5  0 47.5 5  1.25 47.5 5  0 47.5 3.75  3.75 46.25 3.75  5 46.25 3.75  5 47.5 3.75  5 47.5 5  5 46.25 5  3.75 46.25 5  3.75 47.5 3.75  3.75 47.5 5  6.25 46.25 3.75  6.25 46.25 5  6.25 47.5 3.75  6.25 47.5 5  1.25 48.75 3.75  2.5 48.75 3.75  2.5 50 3.75  2.5 50 5  2.5 48.75 5  1.25 48.75 5  1.25 50 3.75  0 48.75 3.75  0 48.75 5  0 50 5  1.25 50 5  0 50 3.75  3.75 48.75 3.75  5 48.75 3.75  5 50 3.75  5 50 5  5 48.75 5  3.75 48.75 5  3.75 50 3.75  3.75 50 5  6.25 48.75 3.75  6.25 48.75 5  1.25 33.75 6.25  1.25 32.5 6.25  0 32.5 6.25  0 32.5 7.5  1.25 33.75 7.5  1.25 32.5 7.5  2.5 32.5 7.5  2.5 33.75 7.5  2.5 35 7.5  1.25 35 6.25  2.5 35 6.25  0 33.75 6.25  0 33.75 7.5  0 35 7.5  1.25 35 7.5  0 35 6.25  1.25 36.25 6.25  2.5 36.25 6.25  2.5 37.5 6.25  2.5 37.5 7.5  2.5 36.25 7.5  1.25 36.25 7.5  1.25 37.5 6.25  0 36.25 6.25  0 36.25 7.5  0 37.5 7.5  1.25 37.5 7.5  0 37.5 6.25  3.75 36.25 6.25  5 36.25 6.25  5 37.5 6.25  5 37.5 7.5  3.75 35 6.25  5 35 6.25  5 35 7.5  5 36.25 7.5  3.75 36.25 7.5  3.75 35 7.5  3.75 37.5 6.25  3.75 37.5 7.5  6.25 36.25 6.25  7.5 36.25 6.25  7.5 37.5 6.25  7.5 37.5 7.5  6.25 35 6.25  7.5 35 6.25  7.5 35 7.5  7.5 36.25 7.5  6.25 36.25 7.5  6.25 35 7.5  6.25 37.5 6.25  6.25 37.5 7.5  8.75 36.25 6.25  10 36.25 6.25  10 37.5 6.25  10 37.5 7.5  8.75 35 6.25  10 35 6.25  10 35 7.5  10 36.25 7.5  8.75 36.25 7.5  8.75 35 7.5  8.75 37.5 6.25  8.75 37.5 7.5  11.25 36.25 6.25  11.25 36.25 7.5  11.25 37.5 7.5  12.5 37.5 7.5  11.25 37.5 6.25  1.25 38.75 6.25  2.5 38.75 6.25  2.5 40 6.25  2.5 40 7.5  2.5 38.75 7.5  1.25 38.75 7.5  1.25 40 6.25  0 38.75 6.25  0 38.75 7.5  0 40 7.5  1.25 40 7.5  0 40 6.25  3.75 38.75 6.25  5 38.75 6.25  5 40 6.25  5 40 7.5  5 38.75 7.5  3.75 38.75 7.5  3.75 40 6.25  3.75 40 7.5  6.25 38.75 6.25  7.5 38.75 6.25  7.5 40 6.25  7.5 40 7.5  7.5 38.75 7.5  6.25 38.75 7.5  6.25 40 6.25  6.25 40 7.5  8.75 38.75 6.25  10 38.75 6.25  10 40 6.25  10 40 7.5  10 38.75 7.5  8.75 38.75 7.5  8.75 40 6.25  8.75 40 7.5  11.25 38.75 6.25  11.25 38.75 7.5  12.5 38.75 7.5  12.5 40 7.5  11.25 40 7.5  11.25 40 6.25  1.25 41.25 6.25  2.5 41.25 6.25  2.5 42.5 6.25  2.5 42.5 7.5  2.5 41.25 7.5  1.25 41.25 7.5  1.25 42.5 6.25  0 41.25 6.25  0 41.25 7.5  0 42.5 7.5  1.25 42.5 7.5  0 42.5 6.25  3.75 41.25 6.25  5 41.25 6.25  5 42.5 6.25  5 42.5 7.5  5 41.25 7.5  3.75 41.25 7.5  3.75 42.5 6.25  3.75 42.5 7.5  6.25 41.25 6.25  7.5 41.25 6.25  7.5 42.5 6.25  7.5 42.5 7.5  7.5 41.25 7.5  6.25 41.25 7.5  6.25 42.5 6.25  6.25 42.5 7.5  8.75 41.25 6.25  10 41.25 6.25  10 42.5 6.25  10 42.5 7.5  10 41.25 7.5  8.75 41.25 7.5  8.75 42.5 6.25  8.75 42.5 7.5  11.25 41.25 6.25  11.25 41.25 7.5  1.25 43.75 6.25  2.5 43.75 6.25  2.5 45 6.25  2.5 45 7.5  2.5 43.75 7.5  1.25 43.75 7.5  1.25 45 6.25  0 43.75 6.25  0 43.75 7.5  0 45 7.5  1.25 45 7.5  0 45 6.25  3.75 43.75 6.25 
[...]
<PointData  Vectors="u"> 
<DataArray  type="Float64"  Name="u"  NumberOfComponents="3" format="ascii">1.9999999998760347e+02 1.1988636966914717e-10 1.4337278196772337e-10  1.9999999998753162e+02 -3.0991648006842163e-11 3.0937041624226321e-11  1.9999999998729723e+02 -1.1228101298999092e-10 -1.6819055386138583e-11  1.9999999998832627e+02 -1.0161723576372829e-10 -2.4065968220342510e-11  1.9999999998830666e+02 -1.0766944113152568e-10 -1.8185598205156621e-10  1.9999999998585054e+02 9.7418508736773445e-11 1.7703929594580362e-10  1.9999999998584437e+02 -1.0412679581459152e-10 2.6624086236113291e-11  1.9999999998558323e+02 -1.0274436504236378e-10 -1.1947426007764044e-10  1.9999999998658626e+02 -7.0948114276342788e-11 -6.3391455290951766e-11  1.9999999998585250e+02 1.4490414893072155e-10 9.1884711816570492e-11  1.9999999998586168e+02 1.3260290823351367e-10 1.2204287602471412e-10  1.9999999998573557e+02 -1.1559246272706850e-10 5.7691912233070576e-12  1.9999999998657213e+02 -1.1085804317561400e-10 -1.5765926396968948e-10  1.9999999998660761e+02 -1.0004895293530407e-10 8.5435132488391343e-11  1.9999999998420586e+02 1.0905564052535337e-10 1.5903219518493373e-10  1.9999999998404772e+02 -1.1776728378812118e-10 4.7203566968121267e-11  1.9999999998393781e+02 -3.0944234276272315e-11 -1.0612253508373239e-10  1.9999999998482596e+02 -6.4472059871194238e-11 -1.0604044920658832e-10  1.9999999998415336e+02 1.0013152711704243e-10 8.4113744327060336e-11  1.9999999998482528e+02 -1.7249169892243760e-10 -6.6180105970179616e-11  1.9999999998489747e+02 -1.0516838965927969e-10 9.5303769437166577e-11  1.9999999998481402e+02 -8.9302850970975889e-11 -1.3603898679109749e-10  1.9999999998493155e+02 -6.0463395422097102e-11 1.8715115551860294e-11  1.9999999998756385e+02 -5.7172907877678353e-11 5.6801363180365762e-11  1.9999999998731377e+02 -7.9432907374505371e-11 -3.9018853800048560e-11  1.9999999998824509e+02 -8.0079731714234311e-11 -2.7493283645617520e-11  1.9999999998758679e+02 1.2129427078492698e-10 1.1639704573074061e-10  1.9999999998556953e+02 -1.2184061160640036e-10 -6.2838959820896211e-11  1.9999999998655613e+02 -8.9522897403000407e-11 -3.8822810547633886e-11  1.9999999998580205e+02 -4.3577785560477958e-11 9.3204160942070037e-11  1.9999999998584275e+02 1.2197390141882278e-10 1.0907253871505621e-10  1.9999999998651410e+02 -1.1293881230396878e-10 -7.4038976766606823e-11  1.9999999998664538e+02 -7.6524990655330075e-11 3.9868614179942933e-11  1.9999999998394489e+02 -4.4957129599717824e-11 -6.7080670328531351e-11  1.9999999998388438e+02 -1.0689474603991823e-10 -1.1075943323510062e-10  1.9999999998482036e+02 -8.3323243169299865e-11 -5.6940712965135763e-11  1.9999999998412821e+02 1.1566052327035676e-10 1.2617315696323112e-10  1.9999999998414333e+02 1.0003533237632953e-10 1.1988284022951965e-10  1.9999999998394446e+02 -9.9584117996650751e-11 7.6214704822574760e-12  1.9999999998477148e+02 -1.1655213347273389e-10 -1.5253035334334634e-10  1.9999999998480178e+02 -1.6047106977756159e-10 -6.1015548801350892e-11  1.9999999998485404e+02 -7.8316277182907984e-11 3.1130449109431214e-11  1.9999999998386491e+02 -1.2159127247555573e-10 -5.8745886024324339e-11  1.9999999998479456e+02 -7.8030664856425773e-11 -8.0726508947941656e-11  1.9999999998391024e+02 -3.1225175996874232e-11 2.4519448357851957e-11  1.9999999998412002e+02 1.2622193644827827e-10 1.0926364430284294e-10  1.9999999998480396e+02 -1.3017443397830198e-10 -7.2503261909628467e-11  1.9999999998576970e+02 -3.9019934940709839e-11 2.0473613127947473e-11  1.9999999998585676e+02 1.7205726331177779e-10 1.2442871677941063e-10  1.9999999998485535e+02 -3.9908881740535952e-11 1.7396314812189984e-11  2.0000000000066134e+02 -6.1193704503104895e-13 7.6289227516429031e-10  1.9999999999897446e+02 -7.8813998568394694e-11 -1.2867471891809906e-10  1.9999999999879719e+02 -7.6519251199810800e-11 -5.9409297349745597e-10  1.9999999999987321e+02 -4.7338106350372925e-11 1.1312655673901872e-11  2.0000000000063935e+02 7.1675439851215368e-11 7.8179169816280319e-10  1.9999999999896730e+02 -3.3104103887497321e-10 -1.8811921671882919e-10  1.9999999999898117e+02 -1.8477272704441053e-10 -5.8339871293505245e-13  1.9999999999831655e+02 2.9901415527742831e-11 7.5227275570252098e-10  1.9999999999805340e+02 1.0821497444792785e-11 -7.8071199616748549e-11  1.9999999999825923e+02 -2.2058527886306318e-11 1.9288252898125357e-10  1.9999999999974884e+02 -5.9160281868734412e-11 -1.8190202478144448e-11  1.9999999999996268e+02 -1.1880862730558065e-10 -4.8292191659969212e-11  2.0000000000056727e+02 -9.3228287623739913e-12 1.7105799477849924e-10  1.9999999999896579e+02 -8.2077921887989746e-12 8.5493484195407857e-12  1.9999999999893919e+02 -9.5570868478859519e-11 -1.5886154470444006e-10  1.9999999999899171e+02 -2.5297045645941416e-10 -5.1926834814048516e-10  1.9999999999798555e+02 -1.4191669916595381e-10 -2.1192101229349898e-10  1.9999999999801139e+02 -5.7815723678255267e-11 -3.3415436860362825e-13  1.9999999999823450e+02 1.3379496038546162e-10 7.3839024043796567e-10  1.9999999999819696e+02 -1.2039599871511749e-10 -1.0095677042123580e-10  1.9999999999821114e+02 1.1131859854764978e-10 2.1323712433384053e-10  1.9999999999817490e+02 -4.2914673827447869e-11 -6.5170845844827887e-11  1.9999999999902761e+02 -1.0945916194596137e-10 -5.4130640843977522e-11  2.0000000000003089e+02 -1.7540831925088405e-10 4.4604549823774188e-11  2.0000000000059882e+02 1.8924569701768174e-10 7.7879551625844179e-10  1.9999999999910082e+02 -6.7204898552119544e-11 -2.0039818730083982e-10  1.9999999999905796e+02 1.5818007522237714e-11 6.0618882479855300e-11  1.9999999999964595e+02 -1.2033447057865843e-10 -6.0050576125350884e-11  1.9999999999999196e+02 -5.0640365003227410e-11 -1.0936206494700119e-11  2.0000000000056681e+02 9.1913226391250985e-11 2.0093704387683858e-10  1.9999999999895905e+02 -6.9312603742987444e-11 1.0179824430662061e-10  1.9999999999997877e+02 -4.6976073397202298e-11 -2.2470507495800336e-11  1.9999999999720472e+02 -7.4123172954273341e-11 -1.6968841172493598e-10  1.9999999999704934e+02 -4.1856644559483789e-11 -5.4758427671375197e-10  1.9999999999711173e+02 -2.3766106645222152e-10 -2.2938886133830292e-10  1.9999999999721908e+02 -1.8051007864475664e-10 6.1425933375978274e-11  1.9999999999651081e+02 5.1010107945746094e-11 7.5916523842346703e-10  1.9999999999625311e+02 1.7995728018658367e-12 -1.2387308776344734e-10  1.9999999999650342e+02 -6.4015098254894253e-12 2.1251918388875517e-10  1.9999999999719043e+02 -6.8157479106786134e-11 -2.5134522750613944e-10  1.9999999999722201e+02 -2.6158308446452294e-11 6.8779437450097973e-11  1.9999999999899751e+02 -1.0705470527509415e-10 -1.4342610540815008e-10  1.9999999999912865e+02 -2.3459882381256944e-10 -5.4502432141028045e-10  1.9999999999809367e+02 -2.3958207116139387e-10 -3.2965662262410933e-10  1.9999999999813579e+02 -1.0918724662795566e-10 1.2432017220913589e-11  1.9999999999822811e+02 1.8840661332210597e-10 7.6115863729832020e-10  1.9999999999817797e+02 -7.7327269493652562e-11 -1.3649826657150104e-10  1.9999999999818721e+02 1.6212662461313843e-10 2.3037033072402762e-10  1.9999999999827477e+02 -8.4034762744594928e-11 2.2765776168690045e-11  1.9999999999907084e+02 -1.8814893287641753e-10 -7.2040205709490931e-11  2.0000000000005363e+02 -8.3871971866358598e-11 1.0773817924851190e-10  2.0000000000057125e+02 1.5493566893429473e-10 7.8708952554752860e-10  1.9999999999905435e+02 -1.3696881001515828e-10 -2.1296862620039584e-10  1.9999999999904216e+02 -8.8396124162469463e-11 -2.7801563009675032e-11  1.9999999999966337e+02 -7.0218997998047525e-11 -1.3411751656502336e-10  2.0000000000006344e+02 -1.0947899891159749e-10 -6.1905257179145418e-11  2.0000000000053970e+02 1.5234633069920645e-10 1.5140339481951831e-10  1.9999999999903935e+02 -6.9318890417000480e-11 4.8811038874350098e-11  2.0000000000000546e+02 -9.2638794707959890e-11 -7.2693528610302416e-11  1.9999999999719662e+02 -7.1351710391265150e-11 -1.6112933734057604e-10  1.9999999999707791e+02 -1.9083127485615137e-10 -4.8249384041167145e-10  1.9999999999614306e+02 -9.5332811681258478e-11 -2.4381732919130572e-10  1.9999999999630825e+02 -7.5267126064666380e-11 -2.6337444278832737e-11  1.9999999999644859e+02 1.4795965449471537e-10 7.2476740199134599e-10  1.9999999999630526e+02 -1.4298914691530865e-12 -8.7770637693332214e-11  1.9999999999645837e+02 1.0261956576255210e-10 2.0108601202386462e-10  1.9999999999635526e+02 -1.9566747355369605e-11 9.2692392177688764e-11  1.9999999999713802e+02 -1.4447166632653876e-10 -1.2431691243332533e-10  1.9999999999713597e+02 -1.4697053123068257e-10 -2.5254297639502434e-10  1.9999999999719699e+02 -7.8326826958990763e-11 -5.8542565671398408e-12  1.9999999999726168e+02 -2.1798819969746075e-11 5.0982160471902760e-11  1.9999999999542780e+02 -1.2428908128252876e-10 -1.2672949930447486e-10  1.9999999999527540e+02 -1.9235002710903322e-12 -1.4049095564604459e-10  1.9999999999536195e+02 -9.0626673508721725e-11 -1.8350063993409808e-10  1.9999999999543220e+02 6.7051461237758204e-11 -1.1798032755239982e-11  1.9999999999462671e+02 -9.6989710651575613e-12 1.5786623569206614e-10  1.9999999999436534e+02 2.1204329105198145e-11 4.3260820519697833e-11  1.9999999999468150e+02 9.6161762314031484e-11 1.5613165067296053e-10  1.9999999999548641e+02 -1.5550355104323946e-11 -2.6107250820211138e-10  1.9999999999536240e+02 -2.4065243696069054e-10 -7.8472061484610259e-11  1.9999999999545591e+02 -1.2722089572098482e-10 3.5727719874045652e-11  1.9999999999468019e+02 4.6915819142332588e-11 6.3673198045531843e-10  1.9999999999449457e+02 6.8719336393549259e-11 -5.9472695050008872e-11  1.9999999999545892e+02 -2.9520993542831768e-11 5.2004884617680304e-11  1.9999999999896650e+02 -8.6313061872803501e-11 -9.6246971210443026e-11  1.9999999999909508e+02 -2.2597959838020707e-10 -5.5636034937107270e-10  1.9999999999817010e+02 -2.6800893242955041e-10 -3.2022500332301866e-10  1.9999999999817373e+02 -1.2848139867919774e-10 9.2191347450145498e-12  1.9999999999818459e+02 1.9836744825365880e-10 7.4851278728444748e-10  1.9999999999812783e+02 -5.7956300050808383e-11 -5.6627401804068108e-11  1.9999999999817410e+02 1.4149626648887068e-10 2.3384452927162224e-10  1.9999999999824550e+02 -2.9608764482529457e-11 1.8930535848846817e-11  1.9999999999906868e+02 -1.0399115466714849e-10 -1.2904689571820433e-10  2.0000000000005366e+02 -9.0208884710460730e-11 1.5809762190312781e-11  2.0000000000060788e+02 1.7895389893970241e-10 8.1624323731795271e-10  1.9999999999903233e+02 -1.0841900057766686e-10 -2.1626052034799977e-10  1.9999999999904148e+02 -7.5323892776399260e-11 2.9287850469459374e-11  1.9999999999959894e+02 -5.5223683469769859e-11 -9.6301379027806989e-11  2.0000000000003038e+02 -4.5591613277339599e-11 -8.6706854029549370e-11  2.0000000000053785e+02 1.4886691411880502e-10 1.5554323362167564e-10  1.9999999999900339e+02 -9.7789632686833796e-11 5.1309073155830135e-11  2.0000000000006264e+02 -5.3448845455809152e-11 -5.7516451377644894e-11  1.9999999999718472e+02 -9.9444539966012743e-11 -1.8448892805739176e-10  1.9999999999709499e+02 -2.5822806569064211e-10 -5.0170478828740813e-10  1.9999999999620644e+02 -1.1128033913512836e-10 -2.3132639596044591e-10  1.9999999999627198e+02 -6.2518983586586002e-11 1.6124408370730440e-12  1.9999999999650203e+02 1.4003431745955866e-10 7.3060550783579792e-10  1.9999999999636611e+02 -6.6382340831692260e-12 -9.5863854662822482e-11  1.9999999999645087e+02 1.0600908139878275e-10 1.8514820729574362e-10  1.9999999999634832e+02 -2.9843883488086298e-11 6.2412955061467068e-11  1.9999999999714041e+02 -1.2159276317501109e-10 -1.1218678475413238e-10  1.9999999999716965e+02 -1.6677653477151753e-10 -2.2860406664800168e-10  1.9999999999721959e+02 -9.1640818091843531e-11 3.5633811668069456e-12  1.9999999999722542e+02 -5.9535365441880963e-12 9.4309739993583638e-11  1.9999999999538630e+02 -5.9196545924875337e-11 -1.6598329964838682e-10  1.9999999999522811e+02 -2.1832890471069794e-10 -4.6325843555098058e-10  1.9999999999445561e+02 -1.4590652161520735e-10 -6.8422538150929468e-11  1.9999999999445427e+02 -8.3984830339360928e-11 -5.6255777167218063e-11  1.9999999999465061e+02 1.3216736920233677e-10 7.1259273169695625e-10  1.9999999999450432e+02 -1.2130641498966636e-11 -5.9697756476371009e-11  1.9999999999463185e+02 7.0269159639508601e-11 1.7432463352457967e-10  1.9999999999442633e+02 -3.6991222529624056e-11 1.2997996748633649e-10  1.9999999999538525e+02 -1.1995415732170359e-10 -1.8591195104266575e-10  1.9999999999532221e+02 -2.2269348768262102e-10 -2.3739981010188348e-10  1.9999999999536234e+02 -1.2066757636016895e-10 2.5594724496258222e-11  1.9999999999541291e+02 -2.4635938733458299e-11 1.5598761233733681e-11  1.9999999999354085e+02 -1.4486455118439410e-10 -5.0491730501040644e-11  1.9999999999347270e+02 3.5566482954072651e-12 1.1812882232398391e-10  1.9999999999339380e+02 -2.5022849606860526e-10 4.1585560423000931e-11  1.9999999999362919e+02 -1.1366330677971212e-10 1.7939994930071297e-10  1.9999999999285956e+02 4.9812966364489040e-11 1.0468852907777100e-10  1.9999999999268857e+02 -8.5160309575230869e-11 4.3803533796178740e-11  1.9999999999288835e+02 7.9567524566465118e-11 1.0937024800603133e-10  1.9999999999365366e+02 3.9721291483018352e-12 -2.5717858822715462e-10  1.9999999999350848e+02 -2.5614714600851229e-10 -1.0567377632922912e-10  1.9999999999361424e+02 -1.0730306947785954e-10 5.9355386658827659e-11  1.9999999999286825e+02 6.4807820751871765e-11 6.7969262908527606e-10  1.9999999999268343e+02 6.3618676209783454e-11 -1.9005758529570287e-11  1.9999999999360742e+02 3.8308770764518568e-11 1.2122353099053926e-11  1.9999999999896716e+02 -9.3491974850215881e-11 -9.1357603302402382e-11  1.9999999999909494e+02 -2.3093942533080380e-10 -5.6050108870527847e-10  1.9999999999808972e+02 -2.1934924620654334e-10 -3.1332193309260040e-10  1.9999999999814031e+02 -8.1039002325167327e-11 2.0292131856798268e-12  1.9999999999818056e+02 1.8562599778637943e-10 7.5032427171322924e-10  1.9999999999812738e+02 -5.7407882795645900e-11 -7.8393759254155643e-11  1.9999999999814949e+02 1.6603193701768933e-10 2.0702349172432293e-10  1.9999999999822464e+02 -3.6743074335790019e-11 -1.3712665501022432e-11  1.9999999999906976e+02 -1.0970914787650597e-10 -1.3608767986950610e-10  2.0000000000003382e+02 -7.1454523036108634e-11 6.4603287641479812e-11  2.0000000000058574e+02 1.2848824864174389e-10 7.8155298994015197e-10  1.9999999999905572e+02 -1.5894868940697019e-10 -1.8971149903126156e-10  1.9999999999903818e+02 -5.0552682810003011e-11 -5.1955838665959183e-12  1.9999999999963711e+02 -6.1291646523300857e-11 -8.0359704651051996e-11  1.9999999999993952e+02 -8.6507949150043214e-11 -1.3584657051804236e-10  2.0000000000052626e+02 1.1384135271662500e-10 1.7150196579342662e-10  1.9999999999905046e+02 -7.6470999735471845e-11 3.3871262124506909e-11  2.0000000000001370e+02 -1.1766396121602136e-10 -7.0139921763494119e-11  1.9999999999719972e+02 -6.6504037085076897e-11 -1.6415790836046692e-10  1.9999999999707262e+02 -2.2211012095089110e-10 -5.0414206333528296e-10  1.9999999999613780e+02 -1.2910083368423489e-10 -2.1074175500493416e-10  1.9999999999627960e+02 -5.2581875204135158e-11 1.7990020724665550e-11  1.9999999999648350e+02 1.4678785702435402e-10 7.2786637629692911e-10  1.9999999999632621e+02 1.8481258699494429e-12 -8.3819234105700019e-11  1.9999999999644538e+02 1.1020097804361835e-10 1.6135085428530639e-10  1.9999999999631603e+02 1.7608062646098359e-11 3.0791690352892598e-11  1.9999999999716420e+02 -1.3814046841308982e-10 -1.3343088090032790e-10  1.9999999999715973e+02 -1.9175575414315486e-10 -2.1979695756491346e-10  1.9999999999719785e+02 -8.5987861723723238e-11 9.2163096743488891e-12  1.9999999999723437e+02 7.4809856733772162e-12 4.9869280508130358e-11  1.9999999999536365e+02 -9.7106065086356814e-11 -2.0649336806703188e-10  1.9999999999523106e+02 -1.9572217527131231e-10 -4.8423408353378399e-10  1.9999999999432262e+02 -1.5017203127642985e-10 -2.3501008251292542e-10  1.9999999999445126e+02 -4.4028559993254372e-11 3.3286992970734141e-11  1.9999999999465609e+02 1.3746917506069542e-10 7.2517777670820943e-10  1.9999999999449361e+02 8.6926886775283905e-12 -9.6991177752625344e-11  1.9999999999466189e+02 1.1845416033013110e-10 1.8760367315099109e-10  1.9999999999454155e+02 -4.8271865815002649e-11 6.2264122266280646e-11  1.9999999999531403e+02 -1.3243768897618711e-10 -1.5641959177659484e-10  1.9999999999532747e+02 -1.5928401943297453e-10 -2.2856318713781040e-10  1.9999999999538215e+02 -9.7732724114613981e-11 5.4211975497974893e-11  1.9999999999538517e+02 5.2162584764773871e-11 3.9338244412068718e-11  1.9999999999355848e+02 -1.1476924205247089e-10 -1.5489680234741982e-10  1.9999999999339647e+02 -2.9543416612936269e-10 -5.6270437577406567e-10  1.9999999999353227e+02 -1.1320168785251034e-10 -2.5145764285504326e-10  1.9999999999900950e+02 -1.1836826268305369e-10 -8.0088818564917527e-11  1.9999999999914425e+02 -2.3421682284317408e-10 -5.3154475390054626e-10  1.9999999999808577e+02 -2.4383144448573421e-10 -3.0352941883296364e-10  1.9999999999814423e+02 -6.6549824341463188e-11 1.5886230257379737e-11  1.9999999999819931e+02 1.6217607164997471e-10 7.3764520599501822e-10  1.9999999999817547e+02 -8.5654779708464332e-11 -1.1481712498278585e-10  1.9999999999817837e+02 1.5371004508543651e-10 1.8527421227019387e-10  1.9999999999825542e+02 -1.1417730299788441e-10 -5.6689119290651604e-11  1.9999999999907448e+02 -1.8827457172700562e-10 -1.3833767439193459e-10  2.0000000000003507e+02 -8.3283736365612468e-11 5.6330219022453738e-11  2.0000000000060825e+02 1.1314468755719642e-10 7.5376938112822400e-10  1.9999999999908454e+02 -1.6928768357421858e-10 -2.4528957250509305e-10  1.9999999999905683e+02 -9.9421084835524651e-11 2.8537139754962451e-11  1.9999999999965101e+02 -9.2631565810736895e-11 -1.0168672320601074e-10  1.9999999999999127e+02 -4.3669370619011462e-11 -9.4268937433313357e-11  2.0000000000053623e+02 1.0618816611053106e-10 1.7920512977771968e-10  1.9999999999897730e+02 -8.4460685345103318e-11 6.8367505292575534e-11  1.9999999999997578e+02 -1.1265828413890759e-10 -2.2751180342236455e-11  1.9999999999719034e+02 -7.4226869382602822e-11 -1.4378068951252826e-10  1.9999999999709078e+02 -2.2784705757334654e-10 -5.3872466785198038e-10  1.9999999999617361e+02 -1.2960980076436022e-10 -2.0567050754621144e-10  1.9999999999627818e+02 -5.3277881097991538e-11 2.2339321326176857e-11  1.9999999999647420e+02 1.2523308586479268e-10 7.3310916286804296e-10  1.9999999999634863e+02 -3.4434041915426157e-11 -9.0324163724519547e-11  1.9999999999645422e+02 1.0270745861484934e-10 1.5018389378338425e-10  1.9999999999636123e+02 -4.3124508588123593e-11 1.5426276234063661e-11  1.9999999999711000e+02 -1.3678346099976339e-10 -1.8674564861670900e-10  1.9999999999714447e+02 -1.5861961336941400e-10 -2.2979130228296572e-10  1.9999999999718347e+02 -6.7842352492248858e-11 6.9360212472076213e-12  1.9999999999719896e+02 -3.4642572251659427e-11 -6.6155344618904979e-12  1.9999999999533642e+02 -8.8363861725087892e-11 -1.8102541916254752e-10  1.9999999999522160e+02 -2.1144430130844879e-10 -4.4828492908358781e-10  1.9999999999529976e+02 -1.2687817854622334e-10 -1.9950080411211478e-10  1.9999999999452331e+02 -4.6792938311803370e-11 2.1429263416367328e-11  1.9999999999466323e+02 1.0790589681893269e-10 1.5375724481939920e-10  1.9999999999526295e+02 -2.3261862152109173e-10 -1.9821219607664160e-10  1.9999999999537195e+02 -1.1937523524653800e-10 -6.6750738563795484e-12  1.9999999999541475e+02 -6.3056794900499211e-11 5.4628708350314537e-11  1.9999999999901470e+02 -7.9162335500072942e-11 -8.6496170960958876e-11  1.9999999999911233e+02 -2.1431163874120339e-10 -5.6314626301343319e-10  1.9999999999817277e+02 -2.2804559917595158e-10 -3.1598241036920505e-10  1.9999999999817740e+02 -5.3916140413322940e-11 1.5795391355431950e-11  1.9999999999821381e+02 1.1846886165275556e-10 7.8155429142214995e-10  1.9999999999815716e+02 -8.6009403695121286e-11 -1.3081324000940522e-10  1.9999999999818925e+02 6.6871641761762512e-11 1.9310341730829757e-10  1.99999999