<?xml version="1.0"?>
<VTKFile type="UnstructuredGrid"  version="0.1"  >
<UnstructuredGrid>
<Piece  NumberOfPoints="13492" NumberOfCells="62812">
<Points>
<DataArray  type="Float64"  NumberOfComponents="3"  format="ascii">1.181478977203369 27.94108963012695 19.31926918029785  0.9781282336627477 28.18320699590538 19.15064104035461  0.9158734977245331 27.94234466552734 19.40192985534668  0.9568699896335602 28.23805522918701 19.44964504241943  0.650268018245697 27.94359970092773 19.48459053039551  1.167546277962193 27.35910845772815 18.81423747955722  1.074553256950841 27.87943793313099 18.89231670319003  1.468541979789734 27.75960445404053 19.01062965393066  1.274471998214722 27.42076015472412 19.24118995666504  1.367465019226074 26.90043067932129 19.16311073303223  1.561535000801086 27.2392749786377 18.93255043029785  1.755604982376099 27.5781192779541 18.70199012756348  1.361616259537206 27.69795275704456 18.58367717682284  0.9676275366983125 27.81778623613502 18.46536422608221  0.4370842443024152 28.07319684881065 18.93729169800842  0.3748295083642006 27.83233451843262 19.18858051300049  0.09939099848270416 28.19662475585938 19.01329517364502  0.09939099848270416 27.7210693359375 18.89257049560547  0.841335462261568 28.54061697683154 17.87400469497376  0.8620173238669533 27.89031074734163 17.97372279579715  1.315445870723599 28.20288780780351 17.87808156424511  0.7564071110355941 27.96283525854824 17.48208136551209  0.8751537558655594 27.51741839425159 18.95304668365878  0.8089477774720047 27.88069296853138 18.97497737823886  0.9820794761180878 27.57907009124756 19.3799991607666  0.7164739966392517 27.58032512664795 19.46265983581543  0.7826799750328064 27.21705055236816 19.44072914123535  0.5068065785530007 27.23979784202434 18.75697964040527  0.5335092675905083 27.76942778603626 18.67896736084384  0.4410354867577553 27.46905994415283 19.16664981842041  0.8484510668280518 26.98778845023967 19.03105896322021  0.9409248476608049 27.2881562921231 18.54337650564364  0.9142221586232973 26.75852634811117 18.62138878520507  1.530627965927124 28.13124465942383 18.95664501190186  1.879776954650879 28.3213996887207 18.59402084350586  1.423702245674596 28.06959296242786 18.52969253479403  1.817690968513489 27.9497594833374 18.64800548553467  1.62240231605576 27.7045178510387 18.1316717904703  2.078477025032043 27.95632457733154 18.19600009918213  2.016391038894653 27.58468437194824 18.24998474121094  2.277177095413208 27.59124946594238 17.7979793548584  0.5335092675905083 27.86167765633655 18.22713745056552  0.5335092675905083 28.11647845284534 18.42798698364657  0.09939099848270416 27.81331920623779 18.44074058532715  0.09939099848270416 28.06812000274658 18.6415901184082  0.09939099848270416 28.41517066955566 18.39060974121094  0.09939099848270416 28.16036987304688 18.18976020812988  0.09939099848270416 27.90556907653809 17.98891067504883  1.516792103224401 27.77704236224531 17.64003036018524  1.762488828124323 27.29490274116544 17.74366076593527  1.107714048766875 27.40817112626176 18.07735320154717  1.247800560835437 26.9985560163885 17.68934217701213  1.002103835935516 27.48069563746837 17.58571177126211  0.4278990547591491 28.18900296405195 17.93634555336151  0.4278990547591491 27.93420216754316 17.73549602028046  0.4278990547591491 27.55405804828047 17.81109569069061  0.5335092675905083 27.48153353707386 18.30273712097567  0.09939099848270416 27.52542495727539 18.06451034545898  0.09939099848270416 27.1452808380127 18.14011001586914  0.6735957796590708 27.0719184272006 17.91472609644064  0.09939099848270416 28.39901065826416 17.89561462402344  0.09939099848270416 28.38285064697266 17.40061950683594  0.4278990547591491 28.17284295276045 17.44135043617401  1.334913570499698 27.16832281303264 18.66168945638427  1.501702771605768 27.2883376471713 18.19566615228781  1.081011359729367 26.87854118224984 18.1553654811086  0.09939099848270416 27.4331750869751 18.5163402557373  0.5068065785530007 26.95190359306194 18.38074940053711  1.07507249712944 27.05874061584473 19.30191993713379  1.140843588924686 26.82947851371623 18.89224975911865  0.09939099848270416 28.14420986175537 17.69476509094238  6.193438053131104 22.26058959960938 8.226066589355469  5.986680744953111 21.32932484456133 7.753163435397302  6.013256533696484 21.70287746948685 8.320296293177801  5.87468957901001 22.12802982330322 8.094801187515259  5.555941104888916 21.99547004699707 7.963535785675049  5.694508059575391 21.5703176931807 8.189030891337591  5.833075014261865 21.14516533936432 8.414525997000135  7.77174979742095 19.87771146066953 8.926403541802012  8.504746044446863 20.18740234232015 8.670637883951724  8.284014162160847 19.87759008643506 8.107693690169931  8.686297332571664 19.42875851539351 8.57576356508147  8.35094485518154 20.00318088649835 9.25065838562303  8.930139912942129 20.12865031232716 9.57491322944405  6.629654135003547 20.5358516711255 7.916129026906521  6.633786172347966 21.56600256497182 8.193565164816558  6.525366314022852 21.26348189663866 8.647513978329467  6.231364574632706 20.84050850524491 8.165327511953329  8.522395133972168 20.78861045837402 10.55469989776611  8.987721628834347 20.87176496024073 9.715410334814798  8.72626752345715 20.45863038535059 10.06480656360508  9.034676074981689 20.91741561889648 10.30901479721069  8.783849239349365 21.20174503326416 10.20530366897583  8.485595856235618 21.06056076085531 9.774172864918739  8.298127174377441 21.19907569885254 10.24218797683716  8.073859214782715 21.60954093933105 9.929676055908203  8.747049961612815 21.47369533574545 9.424776636128456  8.261327896640891 21.47102600133383 9.461660943989784  8.559581279754639 21.61221027374268 9.892791748046875  9.045303344726562 21.6148796081543 9.855907440185547  8.448796578499067 21.3325110633366 8.993645832071364  5.445780499532056 21.24785275024857 8.077055936732489  5.307213544845581 21.67300510406494 7.851560831069946  5.058485984802246 21.35054016113281 7.739585876464844  5.135047912597656 20.40653038024902 7.67583703994751  5.484061463429761 20.77584785980667 8.045181518473822  5.637667194121007 20.96000736500368 7.383818956870989  5.882351023800602 20.47119102568726 7.795983033427015  5.096766948699951 20.87853527069092 7.707711458206177  6.411546094067326 21.39822063536744 8.071097808130995  5.917837634794835 20.52181213642702 7.172359320182757  5.427980422973633 19.91637516021729 6.881816387176514  5.415218353271484 19.96833515167236 7.464377403259277  5.695388793945312 19.5301399230957 7.252917766571045  8.444140911102295 21.88162040710449 9.629923343658447  8.034434080123901 21.88736534118652 9.617069244384766  8.901200294494629 20.50547027587891 10.39393472671509  9.28000545501709 20.22233009338379 10.23316955566406  7.21765761378384 21.38179845391299 8.880501959658798  8.011665610986253 21.11983489951238 9.379781886617277  8.110273187960008 20.60511126200306 8.960024686936688  7.396096128628638 21.14447859480058 9.323209950410993  7.494703705602395 20.62975495729126 8.903452750730406  7.673142220447193 20.39243509817885 9.346160741482599  7.574534643473436 20.90715873568816 9.765917941163188  6.16252146447443 20.0329957971106 7.584523396738783  7.824196929128076 21.25834983750961 9.847796998535696  7.645758414283277 21.49566969662202 9.4050890077835  8.048464888722801 20.84788459703109 10.16030891946465  6.592243194580078 22.16220092773438 8.825539588928223  6.705547833457471 21.82119402676118 8.553284274507133  7.013370262507072 22.07452035915685 8.399071960780601  6.904950404181958 21.77199969082368 8.85302077429351  7.321505332007886 21.9067195394565 8.864579307008354  8.689468245720597 20.73058068783188 9.284279530757708  8.252337278207783 20.51790452400766 9.670415585303619  6.495824813842773 17.85296058654785 14.45977020263672  7.012566339295508 17.39897668657346 13.90512368870374  6.73794747523606 17.65267217454953 13.81942365360852  6.508850824158789 17.49452245531125 14.1276936311781  6.724921464920044 18.01111030578613 14.15150022506714  6.999540328979492 17.75741481781006 14.23720026016235  6.954018115997314 18.16926002502441 13.84323024749756  7.228636980056763 17.91556453704834 13.92893028259277  7.503255844116211 17.66186904907227 14.01463031768799  6.521876834474805 17.13608432407465 13.79561705971948  6.335039950184822 14.30044234384561 11.87778160875428  5.662718310829032 14.40063323872402 11.96488634405147  5.737793307791585 14.58801621538565 11.33886341757122  5.352906769908816 14.16007064330065 11.53039298796922  5.140546665398348 14.8755900869257 10.79994522638816  5.065471668435794 14.68820711026406 11.4259681528684  4.990396671473241 14.50082413360242 12.05199107934865  6.315930008713635 20.29872505255518 9.315721348030022  7.043794528888057 20.19161446233186 9.846446834196154  6.945232326093535 20.60294189412167 9.540819644596606  7.043839903067292 20.08821825661236 9.121062444916017  7.771704423241713 19.98110766638903 9.651787931082151  7.673096846267957 20.49583130389835 10.07154513076274  7.771659049062478 20.08450387210853 10.37717232036229  4.008194923400879 22.1711597442627 9.613157272338867  4.063125353633488 21.64302032213402 9.852279640678377  4.191701889038086 21.80502510070801 9.33763599395752  3.76130747795105 21.84632015228271 9.421889305114746  3.514420032501221 21.52148056030273 9.230621337890625  3.816237908183659 21.31818073015404 9.661011673454256  3.944814443588257 21.48018550872803 9.146368026733398  4.375208854675293 21.43889045715332 9.062114715576172  4.246632319270695 21.27688567857934 9.57675836229703  4.118055783866098 21.11488090000535 10.09140200901789  0.09939099848270416 12.42800998687744 12.13325977325439  0.5773304775357246 12.17478513717651 11.81746006011963  0.09939099848270416 12.26302003860474 11.88366985321045  0.3900440111756325 12.70092010498047 11.75732469558716  0.5773304775357246 12.33977508544922 12.06704998016357  0.6806970238685608 12.9738302230835 11.38138961791992  0.3900440111756325 12.53593015670776 11.50773477554321  0.867983490228653 12.612685203
[...]
<PointData  Vectors="u"> 
<DataArray  type="Float64"  Name="u"  NumberOfComponents="3" format="ascii">6.8640495646561135e+01 -3.6814714127680810e+02 -1.4480043915282437e+00  7.3186939224714209e+01 -3.2722656850254310e+02 6.5067110042464922e+00  9.6546283032155458e+01 -3.7164907507259932e+02 -1.0119093681434117e+01  7.7424415675925033e+01 -3.0375787344045654e+02 7.0221858493379719e+00  1.0060294410112044e+02 -3.5568876101734622e+02 1.4731673736265666e+01  1.1031572014160193e+02 -4.3296242768669430e+02 -1.5230090481572480e+01  8.8142739841583307e+01 -3.6247300674382069e+02 -5.9483461381483114e+00  8.8083431383802989e+01 -4.1271844481891236e+02 -1.9763312032261336e+01  1.0254263596752598e+02 -4.4592149830690568e+02 -1.2205906392184875e+01  1.5727596408695013e+02 -4.9528012749457042e+02 -2.2089138876539185e+01  1.3137269474950185e+02 -4.8597937995364379e+02 -2.3485363085827231e+01  1.1238171834234439e+02 -4.5926425024179639e+02 -6.0688389539500935e+00  9.5199390333642441e+01 -4.2672125073750146e+02 1.1327801823181021e+01  1.1340267536136336e+02 -3.8999670073168090e+02 2.7094152686499445e+01  1.2259954708804511e+02 -3.3504845728547781e+02 3.3035598442302621e+01  1.0975925475590681e+02 -3.7081887271238941e+02 1.2408561646458272e+01  1.2858655201713543e+02 -3.0445214556530749e+02 3.1537048142011791e+01  1.3299146357267702e+02 -3.8396088658370809e+02 2.4142214534556807e+01  1.2373878249313157e+02 -3.0587690271720680e+02 5.2769945564449038e+01  1.3122433806955351e+02 -3.7941787269283930e+02 4.8750199519258871e+01  7.5588979179506921e+01 -3.4326977725735406e+02 3.3836036689381480e+01  1.3210837734164301e+02 -3.7688762921905999e+02 7.1060639623954785e+01  1.0920794882484685e+02 -4.0014444563020106e+02 9.0836392376661284e+00  1.0363632259605632e+02 -3.7287509650992956e+02 1.0128449990633086e+01  8.7528193302197110e+01 -4.1203854715216215e+02 -1.3952641102040406e+01  1.0253346611462628e+02 -4.0780906261716871e+02 1.5012849697496858e+01  1.2411703936727888e+02 -4.2901324520845992e+02 -8.4693038678259072e+00  1.4109903256398172e+02 -4.1816569160902446e+02 2.1330461579077841e+01  1.3937514639689911e+02 -3.8994586545433759e+02 3.5895743155182750e+01  1.3723559576001901e+02 -4.1427957613726596e+02 8.3420637709517784e+00  1.3218229981028523e+02 -4.4048656428131784e+02 -7.4135985224405747e+00  1.3632411207088822e+02 -4.4674621241978639e+02 2.0672068244661460e+01  1.6563167813770869e+02 -4.7015419960061672e+02 1.2729092213770976e+01  6.5698833719230308e+01 -3.8327094047661700e+02 4.7155987840506999e+00  5.6079796633515507e+01 -3.2005617259108448e+02 1.2119370749509914e+01  6.7651145073831870e+01 -3.5818854092604153e+02 1.7319208278663741e+01  7.4538426572555721e+01 -4.1351243771788984e+02 1.8329626285369585e+01  9.0948819752675618e+01 -4.2423343092951046e+02 3.2575822353056964e+01  5.0407451110150589e+01 -3.5621159405123512e+02 3.8515257593742923e+01  1.1149779510800880e+02 -4.9986114942214448e+02 6.5484328681530535e+00  8.6138596998541502e+01 -4.4152730632294907e+02 5.1597616898470385e+01  1.6103415589399623e+02 -3.7807033163319915e+02 3.6935295872609942e+01  1.2784106961202720e+02 -3.3173353103922432e+02 3.6556164067069247e+01  1.5785699995309625e+02 -3.6704075139552276e+02 3.8170951015334865e+01  1.4228489195375562e+02 -3.3704773185220984e+02 4.2181832317627254e+01  1.4667248547524872e+02 -3.0033217524449663e+02 4.7560106683168833e+01  1.5661051412311565e+02 -3.3852633255400690e+02 4.4706357035643634e+01  1.5553523967300742e+02 -3.7448140257612516e+02 4.9267341409886050e+01  8.5204936601606192e+01 -4.1812102965422429e+02 8.5830360188639872e+01  1.3771214637199532e+02 -4.9742486041415464e+02 5.6297795186947504e+01  1.3591393114026434e+02 -4.2872217131434849e+02 4.1150817688843397e+01  1.4291817916382169e+02 -4.9254935309255961e+02 5.9310763123789997e+01  1.2580959276385668e+02 -4.4773972588629596e+02 6.9414899400528199e+01  1.3933974119475880e+02 -3.3600533849705323e+02 4.4401434676980273e+01  1.6746368517951529e+02 -3.6568737247770872e+02 6.0063359371870078e+01  1.5117081891442533e+02 -4.1433762678993048e+02 4.9332685192231899e+01  1.5475245587752275e+02 -4.1323950998615953e+02 2.9669870908331934e+01  1.6755507967502251e+02 -4.1592875011792052e+02 3.9927421257563324e+01  1.6492519848217168e+02 -4.3180885593742715e+02 3.4518129666492221e+01  1.4682961676009364e+02 -4.4401700527499446e+02 3.6017852240903267e+01  1.6578078375658956e+02 -2.9825588886945337e+02 4.9123704438785822e+01  1.5499588034664541e+02 -2.9954404041973174e+02 6.4891429521087034e+01  1.3210038947357279e+02 -3.1420112914587304e+02 7.4970402114890717e+01  1.3395413184940170e+02 -4.7745487903453028e+02 1.2690278154015522e+00  1.3797140198671497e+02 -4.9486312061343619e+02 1.7231723985866509e+01  1.6798393250881293e+02 -4.8829846439091102e+02 2.4318166700049108e+01  1.6160653775661265e+02 -4.0739240715489399e+02 3.4242157909038426e+01  1.6687556124074598e+02 -4.3905658909768431e+02 1.8343443862262401e+01  1.0674369233810334e+02 -4.4250515658563580e+02 -2.2073476310113001e+01  1.5324718146636434e+02 -4.8503460068705567e+02 -2.1273809137951478e+01  1.5558358380678538e+02 -3.5686321588142880e+02 5.9312670489969051e+01  1.2961078777499063e+02 4.7303154331998904e+01 -7.7834165822031309e+01  1.0831983389892247e+02 2.1029282360728029e+01 -8.6483380953332002e+01  1.2398218359599896e+02 3.6967638949342380e+01 -1.1214645742277098e+02  1.1698548431595339e+02 5.2280897080599559e+01 -8.2047780549586719e+01  9.5691789211512145e+01 3.9977201168911314e+01 -7.6445377206075250e+01  1.3389418285552162e+02 3.8405432123300614e+01 -1.5786050400944177e+02  1.2999066967814349e+02 5.1787348596238747e+00 -1.3708584048386658e+02  1.5542889892335873e+02 2.2082821594839297e+00 -7.0921398740324207e+01  1.7761303340504162e+02 2.7639144023524270e+01 -5.1267496319566980e+01  1.4444588224661419e+02 1.3189312622232196e+01 -3.3386686712349253e+01  1.5919165113714371e+02 1.9470206209686445e+01 -3.1746061368469956e+01  1.8300900860635542e+02 1.1262580559603224e+01 -7.6427188567023876e+01  1.9569057170699759e+02 2.2348314578119655e+01 -7.9474972141478986e+01  1.1889371361819533e+02 1.1241414636456759e+00 -7.4680125156641978e+01  1.4690588991845266e+02 3.1362332255212252e+01 -9.0999524874025980e+01  1.5693467182794456e+02 9.6776121778073101e+00 -1.2435649707725098e+02  1.1605945922331007e+02 9.5905218648429109e+00 -1.0084529855561495e+02  2.1311261868876772e+02 2.1362216892215283e+01 -1.2825030366608800e+02  2.2835471390411067e+02 5.5953217386971446e+01 -8.3826462597995999e+01  2.1867654749627710e+02 4.0301011988051812e+01 -1.0992976509146982e+02  2.2816713915212353e+02 5.4669569413990679e+01 -1.0659533106737912e+02  2.3392858297153637e+02 4.0709428954319158e+01 -9.2527663334646491e+01  2.2120531338133245e+02 4.1401312978137206e+01 -1.0298196181466352e+02  2.2461660707706417e+02 3.0944714702413620e+01 -1.3437321907051083e+02  2.2235565421597616e+02 4.3365159506127782e+01 -1.1475029957060480e+02  2.2397334603353170e+02 5.6900633363250030e+01 -8.0283988039460368e+01  2.1763248308096905e+02 5.2649039971769376e+01 -9.5591437298902235e+01  2.3058154495764700e+02 5.8152618197186221e+01 -9.7927262754229702e+01  2.3669028845753667e+02 6.0705111417529913e+01 -7.6148489581257152e+01  1.9594608201918464e+02 4.3584599630593466e+01 -6.6595499972844820e+01  1.0961647066615987e+02 7.8670532100879464e+00 -1.4192339736606516e+02  8.2881647839885261e+01 3.9175719186410937e+01 -1.1140728391059281e+02  7.4393157362164388e+01 6.8214766497983348e+00 -8.2147740220083662e+01  8.9317656275256141e+01 -1.3095485986731106e+01 -8.3159300028496631e+01  9.8294953384818101e+01 9.8810215017027869e-01 -1.3425176171627879e+02  8.5317150213125117e+01 1.7433631678986367e-01 -6.9548746651056717e+01  9.4778113548010808e+01 -6.5514582896989406e+00 -9.5684146208206158e+01  6.4805185996241789e+01 -1.2240347065174308e+01 -8.9250225996013299e+01  1.1686634312410325e+02 3.1137806002740845e+01 -6.9577154526291409e+01  7.6358085206574074e+01 -1.6698150551296376e+01 -4.8185295648558508e+01  6.3962631367754561e+01 -2.5124978286555340e+01 -4.0514386068862137e+01  7.8655279428168868e+01 -3.2573499391663304e+01 -8.3207095609684501e+01  7.3736997546888048e+01 -2.3243069430724479e+01 -5.7229095832145369e+01  2.1569074373671211e+02 5.4549599870736806e+01 -7.1144451177597801e+01  2.1041898327152836e+02 5.7879033066084048e+01 -9.7189021464004028e+01  2.2091435706511388e+02 2.2907662584801191e+01 -1.2582540553991960e+02  2.2904825698405639e+02 4.3340944827136276e+01 -1.0970618818650699e+02  1.7255934560563151e+02 3.3815530602700711e+01 -9.1717686703844748e+01  2.0167710929231626e+02 3.3090312659128593e+01 -1.0361269962563773e+02  1.7476259594117440e+02 2.6326430702500403e+01 -7.7678863750222916e+01  1.8621092492206833e+02 1.9890681332859657e+01 -1.0210799473062210e+02  1.6962122028764821e+02 8.7507679979700370e+00 -9.5194170019458184e+01  1.7921828197011899e+02 4.3702355886716084e+00 -1.0094683835735016e+02  1.9180985900274382e+02 6.7834757431872070e+00 -1.2364147647181285e+02  8.7868800144036342e+01 -1.5833708664262227e+01 -6.5805474062773499e+01  2.1743584620171879e+02 3.5543682679709214e+01 -1.2746542849588867e+02  2.0847040999060778e+02 4.6730092381157867e+01 -1.0632464231136183e+02  2.1922195213159583e+02 1.7678167326366420e+01 -1.3215910045629136e+02  1.6912420280073238e+02 4.5789453063431921e+01 -1.4118385129040624e+02  1.5378395409244791e+02 5.0317889280279132e+01 -1.1178127868676110e+02  1.5856212976413661e+02 5.7782489199452023e+01 -9.3372092665253476e+01  1.8112813796136695e+02 5.0781048500565035e+01 -1.2220301661100532e+02  1.8046922112574632e+02 6.3636705309260265e+01 -1.0771226446719413e+02  2.0506554635448481e+02 3.7534041162853583e+01 -6.2216848063771131e+01  1.9556610744846418e+02 2.0906957261685996e+01 -1.0365547632465551e+02  2.2193188094168246e+02 -8.7748440381400584e+01 -7.7079374863801945e+01  2.3017719065929231e+02 -7.0562621411364816e+01 -5.4579134203426321e+01  2.1959787629871261e+02 -7.2302618235002328e+01 -6.3813281102116498e+01  2.1895106331251827e+02 -8.4611020913072338e+01 -6.9673196584408615e+01  2.2409193141209315e+02 -8.8166160654390367e+01 -6.8085704242867152e+01  2.3521143236335226e+02 -7.0517965526036789e+01 -5.1843378903270725e+01  2.2673749263591080e+02 -7.8842723738242341e+01 -6.8382342164104486e+01  2.3134510375776060e+02 -6.2347039555943795e+01 -5.6024049150259529e+01  2.2635616707128287e+02 -5.1153251804868759e+01 -4.0196731911884051e+01  2.0656743694068899e+02 -6.2872916640131194e+01 -6.1344704948624468e+01  1.5087935007260248e+02 -1.5666475990892554e+00 -3.0984553752177874e+01  1.5662954129513176e+02 -1.9389320144887655e+01 -3.7315936425202949e+01  1.5610175389879012e+02 -1.1249551641037636e+01 -5.2044984381829977e+01  1.4595753776087335e+02 -1.0874833080297654e+01 -4.3931727034154065e+01  1.5950651547369975e+02 -1.4513104708051205e+01 -5.8303256666409268e+01  1.5848351520368146e+02 -2.2849542554707416e+01 -5.2133760522582769e+01  1.5913979928449206e+02 -2.9634660565820813e+01 -4.7134681460177198e+01  1.5961562464175830e+02 -2.3294259758383568e+01 -1.2479047994277916e+02  1.8163208045907930e+02 -2.3801553182846622e+01 -1.2625583733572843e+02  1.7828019098331623e+02 -9.2721428696959709e+00 -1.2988428045129288e+02  1.6245973513049617e+02 -8.8109309429180627e+00 -1.0455200470451292e+02  1.7574443793471895e+02 -3.6746166132377289e+00 -1.0599040544393822e+02  1.9328002169472563e+02 -5.3119903364366594e-01 -1.2659478218873390e+02  1.8456162880359679e+02 -1.9688249583868899e+01 -1.2197325675607604e+02  2.1375443861506204e+02 -6.3126016522530954e+01 -8.4193659783562950e+01  2.4875920393527170e+02 -5.9932529786863199e+01 -9.2568959980414064e+01  2.5515341956746713e+02 -7.1348746582868202e+01 -1.0347524159220445e+02  2.3637215681493217e+02 -6.3834356473504684e+01 -6.9236103767781415e+01  2.5352389759108451e+02 -4.8449959842478520e+01 -5.4561946098996032e+01  2.5731505530442803e+02 -4.7525751267125919e+01 -7.5655425500348969e+01  2.5918283161584520e+02 -4.8778854608912184e+01 -1.0454655740693543e+02  2.5187214187668786e+02 -7.0701629679459941e+01 -1.5568411883879367e+02  2.7343106668719457e+02 -7.4673239722973491e+01 -1.3015881325102666e+02  2.3231566927215925e+02 -5.6832299520138754e+01 -1.0345312236841814e+02  1.2004330557879977e+02 -3.5457192262141803e+01 -1.0528008852938262e+01  1.0601681881983036e+02 1.3733365999032436e+01 -7.0082084707975922e-01  1.1259326438267239e+02 3.0951856059959074e+01 8.2564567351832885e+00  1.1951118421447325e+02 -2.5221102292545838e+00 6.2443490381308409e-01  1.2115129036449892e+02 -1.4410582485095714e+01 7.6899252475374524e+00  1.4419616930812182e+02 -2.4814209352688835e+01 -1.3976795493542278e+01  1.0756212269161682e+02 -1.7389869826425404e+00 -6.0797012358771529e-01  1.3690029694967276e+02 -1.8810796038999584e+01 -4.6527116194614626e+00  1.3897139948764925e+02 -8.1109509457014202e+00 -5.3178992122614170e+00  1.2021807020550867e+02 3.1221756608493703e+01 1.1647142655520803e+01  1.3544726703677540e+02 -6.4208931956778969e+01 -1.1839155236865302e+02  1.4997405430409569e+02 -4.6465483654371234e+01 -1.1123568203354885e+02  1.5571774997871918e+02 -6.7203263605976645e+01 -1.1674371213482586e+02  1.4329425391864515e+02 -4.4315972136719743e+01 -1.2960936517589494e+02  1.2584135621063383e+02 -3.6093340140202095e+01 -1.0989581805916163e+02  1.5343997960169975e+02 -2.9513639406031537e+01 -1.1348403076832459e+02  1.3294701045835251e+02 -2.0201816332694143e+01 -1.0291524257974361e+02  1.6477634884868024e+02 -4.1374445140552481e+01 -1.1057413419464959e+02  1.4716908044214517e+02 -3.5338495593447178e+01 -8.8083982972475610e+01  1.6341417664879910e+02 -5.8246116565905872e+01 -1.0433727597998795e+02  1.7789916154750159e+02 -3.8765559669999924e+01 -9.8093067379344348e+01  1.6889366641443189e+02 -2.4141392216652552e+01 -9.9441510835895770e+01  1.6939627419329412e+02 -2.5905658786932811e+01 -1.0163558374260649e+02  1.6717799863143534e+02 -3.2956115500073338e+01 -9.9239880790949798e+01  1.6711700105246575e+02 -2.2621969548539955e+01 -1.0127129320383918e+02  1.6727243785665402e+02 -9.6577134794668229e+00 -9.0350235643299186e+01  1.6413241045846306e+02 -1.1532686625108541e+01 -1.0114205974894872e+02  1.6323052313338397e+02 -5.1199386544370169e+00 -1.0356147738162484e+02  1.5468221575516029e+02 -5.0590438553934400e-02 -9.2434818141281340e+01  1.7066970817621805e+02 -1.4617183872823677e+01 -7.9370881633166491e+01  1.7261992265871271e+02 -5.3069351400371474e+01 -8.1876355243023184e+01  1.6687050217390814e+02 -4.5832514751511823e+01 -8.0441332023597965e+01  1.7019482282618114e+02 -4.2554974232353622e+01 -7.8810411848290528e+01  1.7236571283844515e+02 -5.4888486700406517e+01 -8.6636727317886937e+01  1.7907387550594726e+02 -5.9900833670098898e+01 -9.9706872637857757e+01  1.7262639155572796e+02 -4.8351783963698296e+01 -8.7639359161485473e+01  1.7952786523665887e+02 -4.6606722211379626e+01 -9.6132740102626244e+01  1.7681892360840348e+02 -3.6557665640491784e+01 -8.4914765176490334e+01  1.7455901787358926e+02 -4.0158315205777839e+01 -8.1078611284843632e+01  1.6588943014006580e+02 -3.9101151864337858e+01 -7.7740995960707536e+01  1.5748503350173280e+02 1.1189107869279985e+01 -3.5722472312646353e+01  1.4467037334501433e+02 3.6397866681511228e+00 -3.6837193348884227e+01  1.5386934595705364e+02 -2.7503981633803121e-01 -2.5035755512095527e+01  1.4129406900690779e+02 1.5581699907023632e+01 -3.7069189276885034e+01  1.4347329139884161e+02 -3.3331045554616798e+00 -4.0358115311951664e+01  1.4207053606334657e+02 -4.6360233223080982e+00 -3.0285526159114660e+01  1.4341438932608347e+02 -3.8287744231386500e+00 -2.0954285991924884e+01  1.5883749676260058e+02 -1.4676213942889738e-01 -1.7564689842714962e+01  1.5413873770498324e+02 1.0468278297742326e+00 -2.0954750539975489e+01  1.6803781434981724e+02 -1.2056268380967959e+01 -4.4582162482245977e+01  1.1082777786618102e+02 -7.7356435042535674e+00 -2.9723178867174926e+01  1.2938830478521101e+02 -1.4700874589199515e+00 -1.9419896934161123e+01  1.2246651375550950e+02 -8.4626571169703411e+00 -2.1563550118766234e+01  1.2164089502993515e+02 -3.3505005787225168e+00 -2.3650878694801037e+01  1.1170555932011804e+02 -6.8017262482134777e+00 -2.6679145600078737e+01  1.2534847087594235e+02 -4.1659549425901545e+00 -2.7750834082256443e+01  1.2559340991643619e+02 -9.8576333669596106e-01 -1.9935866594116348e+01  1.2591050126407704e+02 -1.8541388447172555e+00 -1.2365622215427296e+01  1.3059833700196063e+02 1.7960481754868580e+00 -1.1742707963348726e+01  1.4710221589190195e+02 -5.1847444509424632e+00 -2.1769825495622328e+01  1.6688655541093860e+02 -2.8939339721840533e+01 -7.6278337868207899e+01  1.5488658520788869e+02 -3.3394921717384285e+01 -9.9585919380711417e+01  1.4532886206258746e+02 -2.6426881939126730e+01 -9.1971440766026475e+01  1.6442432646753139e+02 -3.1447421686234044e+01 -7.9083877046588611e+01  1.4972360943134416e+02 -2.7684435259135711e+01 -8.7796770577278906e+01  1.6641383786610061e+02 -4.5097395678142746e+01 -9.7895338577674480e+01  1.3439877690568031e+02 -2.6432373203293341e+01 -1.0172473603071869e+02  1.4902773904774608e+02 -3.2946790649732286e+01 -1.0919600011196155e+02  1.5995689741902046e+02 -2.2125874018430856e+01 -8.6418095843545359e+01  1.6616767732139394e+02 -4.7464339557592730e+01 -1.1303352415808079e+02  1.7075408882338908e+02 -6.0732086214245406e+01 -7.2506244449986355e+01  1.6479294364485477e+02 -6.2927261726998410e+01 -6.9265907974234821e+01  1.5729623547360393e+02 -5.6093869867016743e+01 -6.7489090932550994e+01  1.7420545384760266e+02 -6.7023467832793003e+01 -7.6032546233658707e+01  1.6466084981188541e+02 -6.7361795938073215e+01 -7.9603641978553767e+01  1.6941510302897814e+02 -6.5289179004325931e+01 -7.8475529988121650e+01  1.6139349146297420e+02 -6.5202760047241313e+01 -7.0647477018663295e+01  1.6240418772844939e+02 -6.6838299347129890e+01 -6.5623700049266944e+01  1.6826262341031961e+02 -5.9486399681968557e+01 -6.4275426193170063e+01  1.7369792846431858e+02 -6.2866575293850275e+01 -6.9541014375456285e+01  2.2651475637524564e+02 -3.0802735339019936e+01 -2.3161937120406652e+01  2.1821648866088907e+02 -1.8441186645859336e+01 -1.9761146159262918e+01  2.2197827119288806e+02 -1.8331916615165841e+01 -1.8279703354988513e+01  2.1859898073902073e+02 -3.2599708612330431e+01 -1.8784644951820024e+01  2.1325644481700203e+02 -3.5774700731652871e+01 -2.0865246548149656e+01  2.0718180443224483e+02 -2.7140360646332997e+01 -2.4386267861319219e+01  2.0687682834630934e+02 -1.6657926592753025e+01 -2.4746417076072987e+01  2.1457940804653336e+02 -6.0096549938904440e+00 -2.4516616567771532e+01  2.1014840651518364e+02 -5.7071639297574448e+00 -2.3099054749989428e+01  1.9836254072102210e+02 -1.8111626182185365e+01 -2.2707673223727902e+01  1.5403403201314885e+02 -5.9031518257707589e+01 -1.3597918646348640e+02  1.4296555379614085e+02 -5.9731593620336191e+01 -1.4693293949346656e+02  1.5391184997210377e+02 -6.3345446993828034e+01 -1.2935451151681460e+02  1.5125799690772152e+02 -5.9300258614749588e+01 -1.3185649204062182e+02  1.5813994450193746e+02 -5.2770743409163245e+01 -1.0718273266032591e+02  1.4846682566983105e+02 -6.7919302963183952e+01 -1.2453862015477118e+02  1.4514339509981372e+02 -5.2822270781075886e+01 -1.2214055059483950e+02  1.5586147835520987e+02 -6.2360683150129475e+01 -1.0918165037175997e+02  1.5074734120931009e+02 -7.2336040467116646e+01 -1.0660777113792616e+02  1.3372454736255045e+02 -6.2971951957411903e+01 -1.2921904316279401e+02  1.6913540132098765e+02 -4.6731216899820964e+01 -2.3264247415585807e+01  1.8523790050333517e+02 -4.2566767230903643e+01 -1.9584540816756729e+01  1.8605538907209478e+02 -3.2923097962765794e+01 -2.1616874787373927e+01  1.8079190334771789e+02 -4.5370218074546244e+01 -1.7159482362929872e+01  1.7605409379826759e+02 -3.7368233494052660e+01 -3.4281147639458261e+01  1.7474074071283977e+02 -4.9490273790384904e+01 -2.8468562324710561e+01  1.8115952707584245e+02 -2.9565313661862138e+01 -3.9152886085351021e+01  1.7528990110684256e+02 -3.4643652483857700e+01 -3.0876406139772868e+01  1.899182