<?xml version="1.0"?>
<VTKFile type="UnstructuredGrid"  version="0.1"  >
<UnstructuredGrid>
<Piece  NumberOfPoints="13838" NumberOfCells="63194">
<Points>
<DataArray  type="Float64"  NumberOfComponents="3"  format="ascii">2.037676572799683 37.81325531005859 39.83066558837891  2.38433552457581 37.68613263902574 39.52926760174471  2.091723091142277 37.31940099534898 39.48491793133456  2.004579669969181 37.75911351976304 39.49897509075839  2.504575848579407 37.30056190490723 39.84690093994141  2.417432427406311 37.74027442932129 39.86095809936523  2.124819993972778 37.37354278564453 39.81660842895508  2.211963415145874 36.93383026123047 39.80255126953125  2.797188282012939 37.66729354858398 39.89125061035156  1.971482767138679 37.70497172946749 39.16728459313786  1.584525942802429 39.89572906494141 22.92720031738281  1.637764230028432 39.10953072689628 22.66532355649022  1.878676190630239 39.45565537594413 22.92558890683202  1.440513968467712 39.42940521240234 22.98755550384521  1.343613982200623 39.54960441589355 22.66693496704102  1.296501994132996 38.96308135986328 23.04791069030762  1.734664216295522 38.98933152340507 22.98594409329442  1.199602007865906 39.08328056335449 22.72729015350342  1.102702021598816 39.2034797668457 22.40666961669922  2.172826438458049 39.01558168694685 22.92397749628122  4.71952486038208 39.89572906494141 34.21279144287109  5.380269987925047 39.43472596711023 33.96443200701269  4.852320893152708 39.43472596711023 33.8502676545957  5.046212434768677 39.89572906494141 33.82480621337891  5.372900009155273 39.89572906494141 33.43682098388672  5.179008467539305 39.43472596711023 33.46228242510351  4.985116925923335 38.97372286927905 33.4877438663203  6.292283058166504 37.33126068115234 24.80221939086914  6.0255089363538 36.94713858105618 24.96511340634913  5.638845671071831 37.26888463302808 24.6144361202144  5.551780237788789 37.33003371735101 25.18231372055678  4.811277417411075 37.32880675354969 25.56240805024443  5.285006115976087 36.94591161725486 25.34520773603678  4.898342850694117 37.26765766922676 24.99453044990205  4.985408283977159 37.20650858490382 24.42665284955967  5.372071549259128 36.88476253293192 24.77733013569439  5.758734814541097 36.56301648096002 25.12800742182912  2.222645044326782 34.57247924804688 23.95841979980469  2.861305697921232 34.88395114538562 24.12635918579877  2.445624693397001 34.9737700998534 24.044934472664  2.622103571891785 34.76341438293457 23.7229700088501  2.638326048851013 34.4826602935791 24.03984451293945  3.054007053375244 34.39284133911133 24.12126922607422  3.037784576416016 34.6735954284668 23.80439472198486  3.021562099456787 34.95434951782227 23.48752021789551  2.845083220962003 35.16470523474109 23.80948468170941  2.668604342467219 35.37506095165993 24.13144914552331  4.229440212249756 37.02359008789062 28.92095947265625  4.275096647765917 36.73833760504307 28.6079746608585  3.822469592094421 36.87006568908691 28.70020484924316  3.939128637313843 36.55135536193848 28.93803977966309  3.415498971939087 36.7165412902832 28.47945022583008  3.868126027610582 36.58481320623936 28.38722003744541  4.320753083282077 36.45308512219552 28.29498984906074  5.436648845672607 39.89572906494141 25.86569976806641  5.351036568731949 39.24187270795841 26.06437625731104  5.08851101026027 39.53052703535099 26.18841113890284  5.649101449883386 39.50180275571419 26.32812363545359  5.699174404144287 39.60707473754883 25.74166488647461  5.961699962615967 39.31842041015625 25.61763000488281  5.911627008355065 39.21314842832161 26.20408875386179  5.861554054094163 39.10787644648697 26.79054750284077  5.300963614471047 39.13660072612377 26.65083500629002  4.740373174847931 39.16532500576056 26.51112250973927  7.076057910919189 35.86083984375 25.2210807800293  6.566873481349567 35.55842045199763 25.35644400338613  6.335256507472614 35.77396610629451 25.19241392831289  6.720909049586872 35.89345577609431 25.46480906228506  6.690405368804932 35.7413501739502 24.94868564605713  6.922022342681885 35.52580451965332 25.11271572113037  6.304752826690674 35.62186050415039 24.67629051208496  6.536369800567627 35.40631484985352 24.8403205871582  6.76798677444458 35.19076919555664 25.00435066223145  6.365760188254554 35.92607170843863 25.70853734454082  4.406690120697021 39.30796813964844 23.11808013916016  4.092623994897579 38.70856684275647 23.21510248451402  4.470286866051564 38.97774039838804 23.37583204295412  3.969851539682125 39.00652140208264 23.2261221912401  4.529462575912476 39.01001358032227 23.10706043243408  4.65223503112793 38.71205902099609 23.09604072570801  4.593059321267019 38.67978583906186 23.36481233622804  3.533012958667228 38.70507466451684 23.33416424332004  4.033448285036667 38.67629366082223 23.48387409503406  4.533883611406107 38.64751265712763 23.63358394674808  1.536321401596069 38.0853385925293 39.52589416503906  1.830623286771989 38.04552283750942 38.98292562761804  1.613042604000684 38.23570626904032 39.16223041356864  1.953449886742063 38.31353001903081 39.37816693504597  1.753902084367374 37.89515516099839 39.34658937908846  2.370578371888056 38.54172144553233 39.23043970505287  2.030171089146677 38.46389769554184 39.01450318357554  2.171030569513368 38.12334658749991 39.19886214909536  1.689763806405298 38.38607394555135 38.79856666209822  4.026299953460693 38.05427169799805 28.7901496887207  4.440273167801358 38.497636004048 28.12091913496285  4.446359612966368 38.11557291339763 27.93522831380972  4.011620238654729 38.26643833969938 28.21673458139583  4.461039327772332 37.90340627169629 28.50864342113459  4.454952882607323 38.28546936234667 28.69433424228773  4.895778702083971 37.75254084539453 28.22713715354848  4.889692256918962 38.13460393604491 28.41282797470161  3.996940523848763 38.47860498140071 27.64331947407096  4.883605811753952 38.51666702669529 28.59851879585475  5.036033153533936 38.98976135253906 23.72125053405762  4.304555819612892 39.26241980738751 23.74872469890932  4.619227336031349 39.10331641383282 24.05030989635805  4.865812063217163 39.44274520874023 23.71927070617676  4.721361637115479 39.14886474609375 23.41966533660889  4.695590972900391 39.89572906494141 23.7172908782959  4.449006245714576 39.55630027003399 24.04833006847719  4.551140546798706 39.60184860229492 23.41768550872803  4.202421518528762 39.21687147512658 24.37936925865848  6.310124868350386 35.68814991641644 26.83472898731639  6.269629991954305 35.89722741500272 27.56574188626078  5.758668999137429 35.53135276622073 27.37750233038776  5.958703265169539 36.19054083931756 27.21747282118761  5.607281661988691 36.69293176221869 27.60021665505883  5.918208388773458 36.39961833790385 27.948485720132  5.407247395956581 36.03374368912186 27.76024616425898  6.229135115558224 36.106304913589 28.29675478520517  4.464789867401123 37.81488037109375 37.369140625  4.967504829672783 37.6794023259822 38.04914924356294  5.076886653900146 37.48550987243652 37.54191017150879  4.92024302482605 37.84033012390137 37.40281105041504  4.62143349647522 37.46006011962891 37.50823974609375  4.512051672247856 37.65395257317458 38.0154788181479  4.778077125549316 37.10523986816406 37.6473388671875  4.668695301321953 37.29913232170973 38.15457793924165  5.375696182250977 37.86577987670898 37.43648147583008  4.559313477094589 37.49302477525541 38.6618170112958  4.307643890380859 37.09751892089844 22.78998947143555  4.100230610411086 36.64515413777217 23.29158616155234  3.726618690551966 37.05883052788411 22.87481848944794  4.023436985530283 37.14350219948945 23.43555093646236  3.739230080679707 37.18948547808045 24.08111240148918  3.519205410582193 36.60646574475784 23.37641517956473  3.81602370556051 36.69113741636318 23.93714762657915  3.44241178570139 37.10481380647511 23.52037995447476  3.145593490723073 37.02014213486978 22.95964750746034  3.892817330441312 36.1927893546459 23.79318285166913  2.652084112167358 37.8369140625 34.30967330932617  2.421989995198355 38.44689314211986 34.44894467198709  2.256561496650558 37.9779369177879 34.31069865279029  2.408334870191037 38.41431359741321 34.04965685589385  2.817512610715155 38.30587028683197 34.44791932852297  2.982941109262952 38.77482651116394 34.58616534771976  2.573763368738834 38.88326982174517 34.18790287509064  2.164585628214716 38.99171313232641 33.78964040246153  2.012812254674237 38.5553364527011 34.05068219935798  1.861038881133758 38.11895977307579 34.31172399625442  3.455794095993042 38.17527008056641 35.83465957641602  3.714304258769576 38.76182747664452 35.38768981791648  4.088717460632324 38.67128562927246 35.65011405944824  3.783275485038757 38.29986572265625 35.52162933349609  3.761236071586609 38.54668998718262 35.96314430236816  3.38682286972386 38.63723183455468 35.7007200608364  4.066678047180176 38.91810989379883 36.09162902832031  3.692264845317427 39.00865174117089 35.82920478678855  4.110756874084473 38.42446136474609 35.20859909057617  3.317851643454679 39.09919358854295 35.56678054525679  3.838785886764526 39.38066864013672 36.50728988647461  3.973039984703064 39.40691947937012 35.97884368896484  3.578318765109603 39.23993111433983 36.0370352158657  3.952731966972351 39.14938926696777 36.29945945739746  3.859093904495239 39.63819885253906 36.18667411804199  3.879401922225952 39.89572906494141 35.86605834960938  3.598626782840316 39.49746132674218 35.71641944743308  3.51898926993534 38.92476787858942 36.26422607553594  3.405043189727516 39.15604725175837 36.47205650461309  3.144576068072592 39.01530972596147 36.00180183400418  2.971300492690504 38.93142586338001 36.43682312275156  1.978116035461426 36.0938606262207 24.59464073181152  2.397973933994408 35.8622345551552 25.0416392355  2.414306451408165 36.3988254166116 24.82762405447671  2.669918575553448 35.96086287921274 24.47980175363282  3.36172111564547 35.82786513220477 24.36496277545412  3.089776474086431 35.72923680814723 24.92680025732129  3.106108991500188 36.26582766960364 24.71278507629801  2.850496867354904 36.7037902070025 25.0606073771419  2.
[...]
<PointData  Vectors="u"> 
<DataArray  type="Float64"  Name="u"  NumberOfComponents="3" format="ascii">2.3559226324065392e+00 -9.2349705718467967e-01 6.2549073463172167e-01  3.8725612660955973e+00 -6.1791962681684587e-01 1.0830468075575024e+00  2.6462111652905027e+00 -5.7535067458042077e-01 1.4593765094123501e+00  2.5350938954781279e+00 -8.5695421962844187e-01 1.4880872858304834e+00  2.9351802166013354e+00 7.6211256688184603e-01 -5.5305246346540982e-01  3.8546182794012216e+00 -5.4298061223293226e-01 4.3758285642533423e-01  2.1812376268146187e+00 -5.7051299196804972e-01 8.2567032786320627e-01  1.3162025283010184e+00 9.3848327481223084e-02 5.2098099408556434e-02  5.5730574457701314e+00 -9.3730313534501869e-02 -1.1855233235616276e-01  2.6057737105075507e+00 -9.6748339983957532e-01 2.2779843441647296e+00  8.9195363963169299e+01 -1.3469209634126600e+00 3.4532567804773771e+02  1.3537013572442771e+02 4.1323702366354190e+01 3.5416756447407096e+02  1.1069696253818563e+02 1.2479717015598943e+01 3.5821869284378420e+02  8.9901586888645070e+01 3.6831172278694766e+01 4.1912502025288126e+02  1.3957571667151458e+02 4.5091444062931103e+01 3.1525793341194037e+02  1.3216167382586110e+02 8.2429387173936476e+01 4.0582819394502638e+02  1.2940726434391158e+02 3.9553343625439837e+01 3.7560770543984427e+02  1.4152829378502847e+02 3.4957268942861830e+01 3.3371919731152946e+02  1.0582981798595108e+02 6.5417969237035706e+01 3.1377128246592002e+02  1.3088602954319231e+02 2.0425639840114435e+01 3.6982609003669393e+02  2.2013491874980446e+01 -9.8244740442933765e-01 2.4848389241879573e+01  2.4298927633629894e+01 -4.7544593800881185e-01 4.6183648334420766e+01  1.2439603636403902e+01 -1.0341757855060656e+00 3.3710159763241805e+01  1.3614444124727330e+01 -1.9049590846029512e-02 3.9929769335943305e+01  7.0787855016955072e+00 -8.1102110441485964e-02 5.9983280242726138e+01  3.7830625630057813e+00 -8.9499957835844712e-01 5.2370699697099262e+01  2.8761251249624800e+00 -3.1541933987471404e+00 4.3246882467873363e+01  1.7178072154844369e+02 -7.7272719702433463e+01 1.7227890260941393e+02  1.7172505294686940e+02 -7.5855948521960840e+01 1.7600662328262140e+02  1.8837635774917868e+02 -7.8154435168029707e+01 2.0561947056147247e+02  1.6304005094823250e+02 -6.3729345650994851e+01 2.0267109123008390e+02  1.5006815602270487e+02 -5.5462826129685482e+01 2.2098332943629936e+02  1.5851428674598051e+02 -6.5905553655804695e+01 2.0112284801634550e+02  1.7114639516430594e+02 -6.7636648890042849e+01 2.3106882836026253e+02  1.9886969559712287e+02 -8.1627789451968411e+01 2.4278050718665969e+02  1.8164979729371282e+02 -8.0595226136971647e+01 2.0573635896337109e+02  1.6576768431234470e+02 -7.5096017070615417e+01 1.7697460640808103e+02  -1.3385282558659509e+02 -3.1982751646774813e+02 2.2508043838556043e+02  8.2914091077559661e+01 -2.0931489777682890e+02 2.9257272997271684e+02  4.7963893742348255e+01 -2.6139679709619492e+02 3.5940634997473512e+02  4.3689646050767699e+01 -3.1036745680950827e+02 3.4805861102202414e+02  1.5405436201753009e+01 -2.2881204487379668e+02 2.6051239102083014e+02  7.5401515274378525e+01 -1.8226198607998222e+02 2.1150691163143725e+02  1.0851156895804644e+02 -2.4286209348181774e+02 2.8069982972477084e+02  1.7837597788763497e+02 -3.1693840718918989e+02 4.3106112904971047e+02  1.2481902261505317e+02 -2.5025182171010502e+02 3.9760097673825419e+02  9.7857094795698288e+01 -2.0006729876505034e+02 3.7277793894532084e+02  1.5646683927262185e+02 -1.0306340547655036e+01 1.2380187310156178e+02  1.4095690148205139e+02 -2.0487878122460170e+01 1.3284142113336796e+02  1.3877533958390822e+02 -2.5927656545575733e+01 1.0947644976997971e+02  1.4609696705697399e+02 -3.0604498113838126e+01 1.0415819052734057e+02  1.0228478988233283e+02 -1.9241436961524130e+01 9.5505708598351674e+01  1.2243344701804426e+02 -2.3246725725146526e+01 1.2589999773806204e+02  1.2747298707696423e+02 -2.4473887095328923e+01 1.4465139432416552e+02  1.7814412632520788e+02 6.7690745683403000e+00 2.3626123316575959e+02  1.4420449014053190e+02 -7.9234131630104594e+00 2.1969932170426222e+02  1.4165017368968284e+02 -5.2835728078554478e+00 2.2832613382572018e+02  1.4091575138224962e+02 3.6488161023015095e+00 1.9783798469004239e+02  1.8998277083366165e+02 2.1095468731693582e+01 2.4363488288416397e+02  1.5675479153293642e+02 1.0607324698656186e+01 2.2191484099922195e+02  1.3514105245127962e+02 8.4116501597550158e-02 1.9854427112072395e+02  1.1683077560836138e+02 -1.1235348655366073e+01 2.0095914289538644e+02  1.2744374228169474e+02 -8.8692966242244164e+00 2.1422513865114291e+02  1.3056472276215206e+02 -9.2119990066591164e+00 2.3082327562863816e+02  1.3675479459435437e+02 -6.6571916251438509e+01 1.0538327017334538e+02  1.5014561266362867e+02 -6.1692549404769004e+01 1.3027586734049768e+02  1.6202227871925069e+02 -6.7420732049349297e+01 1.3596380965633574e+02  1.4233348541960848e+02 -6.3818516819534764e+01 1.2841131487221452e+02  1.7146587120923510e+02 -6.0492852186111570e+01 1.1206928259865997e+02  1.5900632394545767e+02 -6.2214415842870331e+01 1.0319762293902737e+02  1.8101297683453160e+02 -6.9183797828108482e+01 1.3736173253220005e+02  1.7637962682323447e+02 -6.9719138408745124e+01 1.1377863681684752e+02  1.5402440478486187e+02 -5.3694728846261171e+01 1.0702869458165971e+02  1.4184321900178782e+02 -6.2174326470753940e+01 1.4788014135523332e+02  2.6244972017475169e+02 4.3192601754276154e+01 3.8208615234768689e+02  2.1675731922348581e+02 -9.7397205686018484e+00 3.7933349888606080e+02  2.2961465737880658e+02 7.5647828231463023e+00 3.2824382764715483e+02  2.0753667701887815e+02 7.5044200967802654e-01 3.7327919465133385e+02  2.5142717398266259e+02 1.3720813033992943e+01 3.8327856132723855e+02  2.6750036375126803e+02 -2.1935363904480567e+01 3.7711173462677186e+02  2.4465348807273199e+02 -2.2847403507661134e+01 3.3220724143274151e+02  1.8038230034568141e+02 -8.5671972557264517e+00 3.7588799874896301e+02  2.0872853514817174e+02 -1.4024676965338902e+01 3.5219102083405494e+02  2.1649497411136423e+02 -2.9176106231769751e+01 3.1602321730584396e+02  1.2873237064828011e+00 -8.1061294989833121e-01 1.4383396586829036e+00  2.2219098107577642e+00 -1.1547388338893925e+00 3.0031508923801629e+00  1.5526356786719355e+00 -1.0178601566470293e+00 2.5851659936072791e+00  2.4210910381355091e+00 -1.0672407323054975e+00 1.9281148183434862e+00  2.0055387707598675e+00 -9.5049442240256510e-01 1.9090941457634272e+00  3.6819462239720737e+00 -1.3343054569263968e+00 2.3165127012415212e+00  2.6879009124974300e+00 -1.2173733316700059e+00 3.0112438351328263e+00  3.2152434524573801e+00 -1.1243357002919716e+00 2.3241127208038050e+00  1.7458680636597663e+00 -1.1515230608527651e+00 3.7405901196286884e+00  1.5155274035862050e+02 1.1147256849812310e+01 1.2396817003553447e+02  1.2096999920556017e+02 7.3128084464078071e+00 1.7639522577351988e+02  1.2005335181755032e+02 -2.5257208262098674e+00 1.7751493974814628e+02  1.1847384926637591e+02 8.8701411967036456e+00 1.5286976331614235e+02  1.4003443319838797e+02 3.8884304043883477e+00 1.5486088359503168e+02  1.4859442725595585e+02 1.7701282976952292e+01 1.5586147102485822e+02  1.3117563300793159e+02 -4.9087634601066608e+00 1.7357252954003008e+02  1.3719165995757413e+02 4.1268505291823336e+00 1.7741428942779498e+02  1.0380537110114109e+02 2.0854626579994928e+00 1.9109214621690714e+02  1.4027423750309512e+02 1.1435782910368635e+01 1.8219580624686986e+02  1.9039356825954906e+02 -5.7544899527575460e+01 2.7229898445390211e+02  1.9918406362094561e+02 1.8852076489632019e+01 2.8701930202757046e+02  1.7346523266711498e+02 -3.6201741154585953e+01 2.9281929043608415e+02  1.0466919075299724e+02 -3.8008736998849038e+01 1.9028267176295645e+02  2.2521475512949559e+02 2.8262302418068725e+01 2.7208637130253919e+02  3.9653343902025306e+01 2.7919746416307881e+01 1.2197261980904467e+02  1.3882504465202206e+02 -1.0764389963035114e+01 2.6788943324843581e+02  1.8470887004860862e+02 1.8263850527191369e+02 1.8009484222573516e+02  1.7123151977872598e+02 -1.7381163428727056e+01 2.8486906039994102e+02  1.2316253454719202e+02 -5.1081533720676866e+01 1.5478345218346172e+02  1.1704897101679411e+02 -4.0001073299459293e+01 1.5720351632232735e+02  1.2384070616485496e+02 -4.5604808888160917e+01 1.5642813840639076e+02  1.2189960629774247e+02 -4.0163135395700671e+01 1.6358186344769106e+02  1.2228620343437160e+02 -2.8489200636228070e+01 1.7043000536668373e+02  1.1899543977442629e+02 -2.7247802176719201e+01 1.6478550001278501e+02  1.2393871618586866e+02 -3.4012091110241187e+01 1.6064327190292562e+02  1.1413089856039664e+02 -2.6498910664418212e+01 1.5954154326022646e+02  1.9151493784764646e+01 -6.6927621830623085e+00 8.6233730912357380e+00  2.4173028257874098e+01 -1.2039648522298529e+00 3.2363181130862455e+00  2.8810065356009364e+01 3.7568678714172155e+00 -4.3688202852722853e+00  2.7668598460531566e+01 -1.0528466639954956e+01 3.6527209375109599e+00  1.7470534922199043e+01 -5.2189138335171910e+00 1.2187069122259993e+00  1.7400247075672734e+01 -2.0902859733093964e+00 2.6455369821185366e+00  9.5951586058220801e+00 1.1753647527072772e+01 -3.0512006620692955e+00  1.5730346166394762e+01 5.4453167689379471e+00 1.9230081407301054e+00  3.8091356258252922e+01 -4.7139730352268705e+00 -1.2440887366623635e+01  1.5917773923342066e+01 2.0401519660998249e+00 2.4899775850179942e+00  3.2465588351729536e+02 -6.1164341073599950e+01 5.2570713023564861e+02  2.9742773092092074e+02 -1.1606288734141546e+02 4.1554943275938729e+02  2.1988083838453775e+02 -3.9460661415863044e+01 4.9659058785128292e+02  2.4417232889237118e+02 -7.4956204773987594e+01 3.9339168112028801e+02  1.8928194482496215e+02 -7.4006739590677824e+01 3.3938054832420539e+02  2.2497445182916422e+02 -8.7464277658722139e+01 4.3818105738988277e+02  2.0828290144418949e+02 -9.8993616176837733e+01 3.4673347466552411e+02  2.0145905514024869e+02 -6.0063499325569992e+01 4.0827739601481073e+02  1.9322881097180047e+02 -2.5954561034034295e+01 4.6513488300800827e+02  2.3137868629618615e+02 -1.3635865758986918e+02 3.5179220585282542e+02  2.4497233873605836e+01 7.7905578272929299e+00 8.5569800572317636e+00  1.5238712547525582e+01 8.5620550089150029e+00 1.1131357236654933e+01  2.5409121353268816e+01 1.4936755992708434e+01 1.5095208957131758e+01  1.8905252541776537e+01 1.0425718250738122e+01 7.5658149065729141e+00  1.5588833164719803e+01 4.9025577408331174e+00 8.7413515357274179e+00  1.1872557558234883e+01 3.3876078318629732e+00 8.5079991462653979e+00  1.2668170310692712e+01 5.8087229336949662e+00 7.5802708320981065e+00  1.2370808295998494e+01 9.3031746808730738e+00 4.9709444545891248e+00  1.7836929846200061e+01 1.6036057919341165e+01 9.7604836318870127e+00  2.3471746222571163e+01 2.1986863172328331e+01 1.9579879449486061e+01  4.4947903595570677e+00 -1.2658048308055528e-01 1.3242472358841038e+01  8.8700560568676767e+00 2.7096752277395546e+00 3.7380683947077058e+00  -2.3245666495109414e+00 6.6730155798234447e+00 -4.1353080839531033e+00  4.3044498391567778e+00 3.7049980040958044e+00 3.7394576056534681e+00  2.6003313704915643e+00 4.5796980528019138e-01 1.1867528329180546e+01  5.5907270296016884e+00 1.3297966056709059e+00 9.0597320602451532e+00  7.0999633877889601e-01 -2.2994265588809801e+00 1.0494737228752726e+01  4.3856147626247415e+00 1.2412013689642827e-01 6.5930531382011495e+00  2.1805565428587286e+01 3.5813554454837151e+00 -1.6565803890906825e+00  7.1740636293367110e+00 3.1575373717275795e-01 8.0437095464515806e+00  2.5220037624235370e+00 -2.8693736254225413e+00 1.2518604138155258e+01  -2.0847937288802800e+00 -3.4014184654347512e+00 3.2650985582875096e+00  3.1342661964800360e+00 -2.2302079363056162e+00 8.3073853441247039e+00  2.2771963633521652e+00 -4.0057782015895329e+00 1.2143631577327557e+01  -1.3566882083254410e+00 -6.2788889364870544e+00 5.9079438845872616e+00  1.1772201861849603e+00 -1.8646469110906592e+00 2.8263195908065271e+00  4.9133338035846785e+00 -1.1286865708682294e+00 6.0257824826142272e+00  4.1469784854817560e+00 -1.7808552842777705e+00 1.0433032186543592e+01  3.8853210728616134e+00 -1.6359408791503425e+00 1.0832524987409117e+01  5.0508994578907043e+00 -1.5818486365622961e-01 1.0348493417688317e+01  4.8104065331034240e+00 -9.5847810362264485e-01 1.1040859286630576e+01  1.1372560089558734e+01 -1.7056910745732506e+02 3.6080927444158277e+02  3.7429277552770934e+01 -1.2764973668468093e+02 2.7753484253622156e+02  7.2294479397592312e+01 -1.1940310190748693e+02 3.1761350118404681e+02  9.1654732625138834e+01 -1.4195896546527331e+02 3.4612697665899128e+02  1.5237344809423342e+02 -1.3572167206848937e+02 3.1049496539407522e+02  1.0027638829610545e+02 -1.1600520243227456e+02 2.6586967132673976e+02  1.2192032211902813e+02 -1.0975175274106236e+02 3.0629262900312756e+02  1.0669273672913283e+02 -9.5093896288864428e+01 2.8610740762463087e+02  8.5569861495092610e+01 -1.0441287423947340e+02 2.6049912802254352e+02  6.7686650387416037e+01 -9.2053977554643865e+01 2.2459989800226720e+02  1.6004305563336681e+02 -5.5083832935979316e-01 2.6157381246866549e+02  1.6040181136037577e+02 -2.0197259416520204e+01 2.7100780449769053e+02  1.5849129997170263e+02 -1.1333364552046417e+01 2.6033003454256050e+02  1.6243466209910412e+02 -1.2297790608897587e+01 2.5411612249434884e+02  1.6060871384350642e+02 8.8665903621255177e-02 2.7122936696902110e+02  1.6252198074401232e+02 -9.8635567103426318e+00 2.7201878204758265e+02  1.5963917144657668e+02 8.1634924972914635e-02 2.8362321133127870e+02  1.6430781337755906e+02 -7.4906418576798544e+00 2.8456150376093274e+02  1.6247179148539996e+02 -3.0038548106442658e+01 2.5468897819458567e+02  7.7003752187327601e-01 -1.1211979613736598e+00 2.7088354921983955e+00  1.0120286519813662e+00 -1.6637808364863083e+00 3.7038423239660241e+00  1.6072986210237585e+00 -1.4195545727641452e+00 3.6330333422337056e+00  6.0760675646020279e-01 -1.8240778737375287e+00 4.2293938849001229e+00  5.2769195696596927e-01 -2.5083479404188860e+00 5.5566619896313370e+00  8.2041227920120807e-01 -2.4409895313846626e+00 5.0092942433605758e+00  1.4715782888568536e+00 -1.9734273500240564e+00 5.0493061469308778e+00  2.5459874878634090e+00 -1.6179527057176040e+00 4.4361229974399405e+00  1.9885672525545735e+00 -1.8295561340394386e+00 4.6172497116113576e+00  1.2964115267199818e+00 -2.1934258518913472e+00 4.6602967661937953e+00  1.5175690379234854e+02 -6.3856281589649136e+01 1.4908332683035363e+02  1.6242252833471869e+02 -7.4725362927383060e+01 1.6066610173897109e+02  1.6277683320321310e+02 -6.6447493504588607e+01 1.4633482201676628e+02  1.7121121393628326e+02 -7.8863411230304109e+01 1.5544490555131813e+02  1.5254773091165930e+02 -6.4975103016207370e+01 1.4651903718364630e+02  1.5434213977730326e+02 -6.7734473632613401e+01 1.5961793207346048e+02  1.0646358393939103e+02 -3.3534339593580192e+01 1.6408652337209756e+02  1.1473300122960961e+02 -4.2257219149128893e+01 1.6806581042638948e+02  1.1057208691789765e+02 -4.1712613167963170e+01 1.6090780086361747e+02  1.1756749426012203e+02 -4.2254078570982180e+01 1.6707886577701706e+02  1.1030392382741918e+02 -3.3369035596085034e+01 1.7161132668616560e+02  1.3100636968594708e+02 -5.1143208122451284e+01 1.7215276887932308e+02  1.2326708239818717e+02 -5.0963597331440020e+01 1.6316001893486410e+02  1.2149555237099838e+02 -4.2726038015158714e+01 1.7514897771730634e+02  1.1434229062299103e+02 -3.3197001864730304e+01 1.7948543580931820e+02  1.1555714303767741e+02 -4.9726838495964628e+01 1.5604062826252414e+02  1.3767288074995597e+02 -6.0237210620083118e+01 1.6629922596291715e+02  1.4309598353800155e+02 -8.2250153454824186e+01 2.1364907208117907e+02  1.2913388612881931e+02 -6.5004135458713691e+01 1.8692720411020912e+02  1.4095108643163695e+02 -8.2576025761514373e+01 1.7654243253544286e+02  1.5344335340972279e+02 -8.0046138311295891e+01 1.8029459001153083e+02  1.4707790543544689e+02 -1.1936237542184938e+02 2.0336102415567305e+02  1.2537674226040390e+02 -8.7632962787739459e+01 2.1152820301649041e+02  1.6794938987729097e+02 -1.1288316854947671e+02 2.0782831348017675e+02  1.7970456274415321e+02 -1.0124399140050238e+02 2.0903097389537788e+02  1.1134808297504719e+02 -6.6467434817648027e+01 2.0887486852741171e+02  1.1694139588295569e+01 4.2950723497031449e+00 2.1280334035435571e+00  1.3115907077232658e+01 1.1318389627558869e+01 3.7074720424246159e+00  1.9947858801944992e+01 6.9981915486534261e+00 1.8559072485910826e+00  6.8614943685479588e+00 2.0535402878821092e+01 6.7581952636110012e+00  6.5656476471812075e+00 1.1456398644487022e+01 3.6844000177556531e+00  1.3930179238373769e+01 8.8841278558977805e+00 1.1625359632933119e+00  6.6687781250049039e+00 4.6325623375018319e+00 2.0006234349494538e+00  8.1371450563149832e+00 1.1283535418028120e+02 4.9205794882934249e+01  1.9482684715941897e+01 7.9203384879219655e+01 3.9551080395603599e+01  2.4980002196847348e+01 9.3389681875660287e+01 2.0374778665777640e+01  9.1473778126593324e+00 8.1004941788373756e+01 2.3191355241181085e+01  8.1243304173186708e+00 6.2758201984936967e+01 5.7390263282313612e+00  2.8798498383868868e+01 6.7242377842938112e+01 1.1933400461875175e+01  1.6614749983324341e+01 6.1589502582618550e+01 1.9161000322594610e+01  1.9656693107621287e+01 7.6079472409544650e+01 -1.5297777885876247e+00  3.2614447870506545e+01 7.6604918873542232e+01 -1.0800745648938697e+01  2.5054775204679753e+01 5.6800349985874156e+01 2.8439597676544526e+01  2.7993677240669871e+02 -2.2958928851553262e+02 2.6422915096629794e+02  2.1955276046520865e+02 -1.5136095056451700e+02 2.1353424485139809e+02  1.9723579874835215e+02 -1.4878860792471832e+02 1.5610231755772304e+02  2.4717081843263028e+02 -1.7672333511337354e+02 1.1599803670966904e+02  1.9222386944313871e+02 -1.4347736401579132e+02 1.0461969445909732e+02  1.9349033816563838e+02 -1.2388854684375070e+02 1.6785455788214415e+02  1.6911423186768948e+02 -1.1943576961253260e+02 1.1703144544211696e+02  1.5176568467680238e+02 -9.5168724242265981e+01 1.3633474592009091e+02  1.7039862559941912e+02 -1.0559908812247681e+02 1.7259007594050854e+02  5.6004301766116784e+00 -2.3708107607882880e+00 8.8511920617136148e+00  3.8715440294935641e+00 -1.5568191199157877e+00 9.5406227063527620e+00  4.0826331555259303e+00 -1.7578567392118647e+00 7.4080924016711149e+00  5.8194343558584798e+00 -2.3764300274478085e+00 7.9081888127289588e+00  5.2872972040770261e+00 -2.1241259701074617e+00 9.9459675917770998e+00  4.2829350130145531e+00 -1.5001197800179586e+00 8.1633271769813263e+00  2.8653267698770408e+00 -1.0617295154006174e+00 7.7951899178931683e+00  5.4645568421237574e+00 -2.2336220816707630e+00 6.8178406577287500e+00  5.0817395507918741e+00 -2.4253942505671922e+00 9.0288681323375357e+00  5.0073195658763447e+00 -2.1494736975963740e+00 1.1405709348061455e+01  7.9026034189464145e+00 -6.3666270454772622e+00 2.3740039107169899e+00  1.0574286555174975e+01 -5.7528245593985403e+00 2.2045803234431771e+00  1.2880967581432902e+01 -7.4345128919008854e+00 7.4213653404240010e-01  1.0448316782966536e+01 -9.5163047142576094e+00 2.8978076343485144e+00  1.1970237198429203e+01 -9.5109870701655428e+00 3.3396545390276224e+00  1.4854666708970637e+01 -7.3717467995871839e+00 1.4195125380577613e+00  1.2398905449397024e+01 -6.9069917516072872e+00 3.0482112644638635e+00  1.2929922868153318e+01 -9.8623736788045218e+00 2.8589534119106870e+00  1.7517642693227977e+01 -1.1781352189502176e+01 5.4482784925511119e-01  1.2137538532757375e+01 -4.7507502909505748e+00 2.4834646509030569e+00  1.4087708360279825e+01 1.6248794165698762e+01 5.2566400664845744e+01  9.4348506859213828e+00 1.4027706599612838e+01 3.4331742558129847e+01  1.4074379978046533e+01 2.3789073991902971e+01 4.6735309642842253e+01  1.1568426951212587e+01 1.2000664416548787e+01 3.4609772117135670e+01  4.6019987425995792e+00 1.2904367898452172e+01 5.1042364573256599e+01  7.0452955137219000e+00 1.2166940908123147e+01 4.7489129722527721e+01  9.7415405766348098e+00 2.3575060389062706e+01 4.4906846417643386e+01  9.5669539002728303e+00 1.1108088588309576e+01 2.6014668876530088e+01  1.1165742829902261e+01 1.7629462820794284e+01 3.0699294848988938e+01  1.38344717267068