<?xml version="1.0"?>
<VTKFile type="UnstructuredGrid"  version="0.1"  >
<UnstructuredGrid>
<Piece  NumberOfPoints="13342" NumberOfCells="62815">
<Points>
<DataArray  type="Float64"  NumberOfComponents="3"  format="ascii">29.0378303527832 27.74593925476074 2.801778078079224  29.45164628960913 27.42759468424258 2.924836083600996  29.51816020406599 27.46305545425999 2.390226368073827  29.48019643761938 27.74207928049502 3.029431148717879  29.00928020477295 27.4314546585083 2.697183012962341  29.54671035207624 27.77754005051244 2.494821433190709  28.9807300567627 27.11697006225586 2.592587947845459  30.05559035136928 27.80914084626412 2.187864788302195  29.98907643691242 27.77368007624671 2.722474503829365  29.92256252245557 27.7382193062293 3.257084219356534  33.69029998779297 25.74118995666504 4.583877086639404  32.71411922185365 25.52297739569246 4.844695040916996  33.32474864713281 25.45492369083518 4.986993489763691  33.26756442777246 25.7657738342678 5.161792455217793  32.95919730647265 25.16865742500532 5.390109892887978  31.16705785117664 27.58111774845829 2.119045687222297  30.79342905970161 27.96795834160899 2.828122207054861  30.5448101868161 27.6596685273438 2.688064953289415  31.34916280960529 27.85394679270608 2.793712656514912  30.61132410127296 27.69512929736121 2.153455237762246  31.53126776803394 28.12677583695386 3.468379625807526  30.72691514524475 27.93249757159158 3.36273192258203  29.90645127332321 28.38936440528412 2.98334607776721  30.37139245637279 28.38186528861583 2.778184894372673  29.97296518778007 28.42482517530153 2.44873636224004  30.43790637082964 28.41732605863324 2.243575178845505  30.82022239029 29.02551127100236 2.299285569388813  30.35528120724043 29.03301038767065 2.504446752783349  29.89034002419086 29.04050950433894 2.709607936177886  32.51303100585938 24.66959953308105 6.335665225982666  33.28389556008024 25.08287227219571 6.534351265017205  32.93262481689453 24.47796440124512 6.495654582977295  32.69440078735352 24.82086944580078 6.819355010986328  33.35221862792969 24.28632926940918 6.655643939971924  33.0714111328125 28.74765014648438 1.172067999839783  32.26262902142298 28.3884094133233 1.737695401195216  32.72058039323171 28.27945987698558 1.173031061787743  32.27595444762968 28.53740836250248 1.126280580130109  31.48049776244686 28.32716657852058 1.080493160420436  31.92512370804889 28.06921809300368 1.127243642078069  31.81800307582095 28.64635789884021 1.690944919537582  32.15550838919503 28.96554921915983 2.301396678654728  32.36974965365093 27.81126960748678 1.173994123735703  28.98838043212891 27.3751392364502 3.573666095733643  29.38378976880393 26.96417180190612 3.021294796819812  28.9845552444458 27.24605464935303 3.083127021789551  28.91131496429443 26.85367488861084 3.222286581993103  28.83424949645996 26.33221054077148 2.870907068252563  29.30672430096946 26.44270745406677 2.669915283079273  28.90748977661133 26.72459030151367 2.731747508049011  29.37996458112082 26.83508721480895 2.53075572287572  29.77919910547895 26.55320436736205 2.468923497905982  34.52486038208008 21.0965404510498 9.504610061645508  35.05989939291054 21.11628127066164 10.0810051771532  35.05259424764687 21.57797121969729 10.23077448333606  34.63873392660194 21.23904585806399 10.34733494247302  35.59493840374099 21.13602209027348 10.65740029266089  35.10683059692383 17.81678009033203 13.37055015563965  35.10973228723817 17.38399121242487 12.7718658460583  35.27931571614283 17.82117520233452 12.80672165322051  34.82852806360536 17.64725586849177 13.00458574428217  35.38803482055664 17.55351543426514 13.13783025741577  35.66923904418945 17.29025077819824 12.90511035919189  34.55022553028689 17.4777316466515 12.6386213329247  33.98273849487305 25.87826919555664 5.397865772247314  33.55241359464257 25.096404136697 5.164978442690327  33.47096790067285 25.52346331028098 5.393987832567646  33.83651924133301 25.80972957611084 4.990871429443359  34.06418418884277 25.45121002197266 5.168856382369995  33.91796493530273 25.38267040252686 4.76186203956604  34.1456298828125 25.02415084838867 4.939846992492676  29.22579002380371 28.51852035522461 2.334213018417358  29.82498034534738 28.89206471158109 2.1338309532574  29.55806502399729 28.77951492978177 2.521910477297622  29.43865966796875 28.91102504730225 2.111740529537201  29.49270534515381 28.63107013702393 1.946133494377136  29.65152931213379 29.30352973937988 1.889268040657043  29.77093466816233 29.17201962185941 2.299437988417464  29.70557498931885 29.02357482910156 1.723661005496979  29.75962066650391 28.74361991882324 1.558053970336914  29.39249992370605 28.09894943237305 1.417353987693787  29.91775118653825 28.39905175004905 1.450842538069443  29.87891795903298 27.98219358450158 1.15778731270475  29.65949535369873 28.31826496124268 1.187707483768463  29.92649078369141 28.5375804901123 0.9580609798431396  30.40416922186517 28.28229590217759 1.191275863080406  30.18474661653093 28.61836727891868 1.221196034144119  30.14591338902565 28.20150911337121 0.9281408087794268  30.3653359943599 27.86543773663012 0.898220637715714  30.44300244937045 28.69915406772505 1.484331088445098  29.23908996582031 29.04458045959473 2.417665958404541  30.7108038961124 28.5836426706464 3.088993780992706  31.17574507916197 28.57614355397811 2.88383259759817  32.96828842163086 27.84708976745605 2.886791944503784  32.69565479770607 28.03066354549432 2.21948360930047  32.56189840541295 28.40631949330794 2.594094311579256  32.6584195376963 27.6703634814074 2.57316910753808  33.00552368164062 28.20738983154297 2.533106446266174  33.04275894165039 28.56768989562988 2.179420948028564  32.25202952147839 28.22959320725929 2.280471474613552  32.34855065376176 27.49363719535875 2.259546270572376  30.16667123678066 28.86983178603199 2.096969512311492  30.24929640036986 28.25414745699459 1.836097938373647  30.10131155793718 28.72138699327415 1.521192529391006  29.90760550893659 28.27638038254369 1.872959379319555  29.72404513753767 27.95404513931859 1.802609387997991  29.57606029510498 28.42128467559814 1.48770397901535  29.64069018758649 28.16383060074437 2.261038903359777  29.49817500509138 27.66486533737767 2.057418409947759  29.08327484130859 28.01955509185791 2.130592525005341  29.13181018829346 28.13222980499268 2.567995548248291  28.98929500579834 27.63326454162598 2.364375054836273  28.94075965881348 27.52058982849121 1.926972031593323  32.70625429765066 28.18947975155833 1.676707535882134  33.05708503723145 28.65767002105713 1.675744473934174  32.66243212529546 27.20631396104077 4.036023843103844  32.30318002162024 26.29188016139182 3.767230438805482  32.39987551565065 26.9563884587224 3.635602265884397  31.84002625280208 26.87769011836007 3.999260416121421  32.56573663126505 26.54180566371019 4.167652016024929  32.46904113723465 25.8772973663796 4.299280188946014  32.13731890600584 26.70646295640404 3.23518068866495  29.89499805270263 27.19720390052325 3.811509676861124  29.53643079736059 27.05026008951602 3.584847136686323  29.45547147729224 27.55667927133975 3.415375157545088  30.73566815156903 26.61982288788991 3.285330900191917  31.43649352878744 26.66314292214697 3.260255794428433  31.13346795980149 27.37329936242188 3.376855262999721  31.13920087558368 26.83437008410301 4.024335521884905  31.49625680580694 26.37779687186521 3.867346996007854  30.95136300137284 27.1004703181741 2.702188293707107  30.3291153370123 27.17902109705961 3.271207559774226  32.73611415616601 24.91912847904319 5.862887559435322  32.27718890897363 25.12611872104758 5.663168845674946  32.50363315335839 25.26973349002952 6.04780596306081  34.98446359739565 20.60771435130248 10.68146034336396  34.44942458656519 20.58797353169064 10.10506522785627  34.37398879105031 20.07940661233148 10.70552039406703  29.45164152123755 27.99420502054629 3.274650140951155  29.26573755170426 27.77730259950542 3.980743282650451  30.99364012073332 28.30331450973033 2.209165628305555  29.30914497375488 28.30873489379883 1.875783503055573  29.16662979125977 27.80976963043213 1.672163009643555  33.15570796720117 24.72749334720725 6.022876916429951  32.86430174904508 25.27450740403165 6.374361908022576  29.61173626995853 27.35530010947463 3.918811598832508  31.91452420810431 27.91040188693967 1.670019715496406  32.35915015370634 27.65245340142276 1.71677019715404  31.93990921089785 27.81020651615631 2.863962948189951  31.65218837859124 27.14379035243117 2.677113187943624  31.7578042524692 27.53737747190852 2.189295978897337  32.2429347798838 27.10005007588139 2.747363479618663  31.83429333701989 27.41661939667895 3.351780157236238  32.99074935913086 27.22901916503906 3.392071008682251  32.2610085635824 27.67789750099646 3.430225317244889  32.97951889038086 27.53805446624756 3.139431476593018  33.03925514221191 27.66566467285156 3.481701016426086  30.80503015027355 28.14013590809167 1.801688387833698  30.76619692276827 27.72327774254421 1.508633162469005  31.32377780681175 27.95414216348944 1.599769423821366  30.96175010590866 28.51316032312282 1.282412124432767  30.92291687840338 28.09630215757535 0.9893568990680749  32.55280366381835 27.27677636193005 3.060986316584367  32.56403413256835 26.96774106072155 3.3136258486736  32.6696500064463 27.36132818019891 2.825808639627313  30.63161241983023 28.86233266936371 1.891808328916956  30.28992152839695 28.8845655949128 1.928669769862864  30.04726588075212 29.00134190355247 1.686799564551071  30.23587585121189 29.16452050519112 2.094276805022928  36.50228881835938 18.58263969421387 12.24872970581055  35.82481294726794 18.93320841944816 11.62974953613744  36.08292771931779 18.38991559786164 11.89504584283572  35.81515761618255 18.8244476765697 12.26233423946146  35.66356662027621 18.19719150150942 11.5413619798609  30.39562925146915 27.21448186707702 2.736597844247056  30.52878952026367 28.90155029296875 0.6347759962081909  31.4684488400247 28.68244792091312 0.592666581687221  31.00464364135527 28.61435843574467 0.8576345783143133  31.15003686640301 29.17640750021091 0.84
[...]
<PointData  Vectors="u"> 
<DataArray  type="Float64"  Name="u"  NumberOfComponents="3" format="ascii">5.6602553710383987e+01 1.5015677092559372e+02 1.3408788001143469e+02  8.4235687501610911e+01 1.3612005208195896e+02 1.4477286261685543e+02  1.1866267724114621e+02 1.5884146203464900e+02 1.4667264622676103e+02  6.3463916893141011e+01 1.3034974390721882e+02 1.1804295201251819e+02  9.0946815470458901e+01 1.3265931778984557e+02 1.7998904593365444e+02  8.0458844650968231e+01 1.4882621741162123e+02 1.2260287555675755e+02  1.5478311205634117e+02 1.5725588069233956e+02 1.7681292911213797e+02  1.0056082723000306e+02 1.1647792115620700e+02 8.2978652367711888e+01  7.5736429904672775e+01 1.0899745633533421e+02 9.1824323038204696e+01  6.4140464908448962e+01 8.7657679839187963e+01 8.9458851093184194e+01  9.4915557465180754e+01 -4.1110043450395573e+01 9.7657523626666006e+01  1.0054696880040223e+02 -2.2650970904986714e+01 9.2932109888764074e+01  9.9607881858843967e+01 -3.9066910255583430e+01 9.4360061407617408e+01  9.4768069978143401e+01 -2.8832351178002899e+01 9.6510330437881251e+01  1.1212762301613546e+02 -3.2240260066217438e+01 8.5231820077221755e+01  8.1165191218882399e+01 7.3542583079901263e+01 5.9429850001917856e+01  6.7786681721169586e+01 8.2859497709220875e+01 6.3216436420007113e+01  8.1695633397693456e+01 8.0779262914109367e+01 7.5406227180114030e+01  6.4550742282180849e+01 6.6538431880417463e+01 6.5291189934179840e+01  1.0356290971411144e+02 9.6641865922219480e+01 7.3179046162911987e+01  6.0313775283180370e+01 5.5388483999657041e+01 6.0274575737439392e+01  6.1532909277018554e+01 6.7286806395940729e+01 6.5166424323894987e+01  4.4195727664086228e+01 1.0004239942365039e+02 6.6777412679433027e+01  5.7096733459114887e+01 8.5215827319239281e+01 5.9912520133357376e+01  5.7690744532339302e+01 1.2651188792994476e+02 7.0820667462235022e+01  5.9182507699247232e+01 9.7847636523301915e+01 5.4327146823517012e+01  4.7433271909109621e+01 7.9296627347012532e+01 3.8302465505325529e+01  4.8538178567485261e+01 8.5212822378344583e+01 3.9894806735895351e+01  3.7440779197580937e+01 8.8020671033053816e+01 4.4530984352671830e+01  1.1749214061305121e+02 -3.2365202721554660e+01 7.8332852647585156e+01  1.1920246698786633e+02 -4.0222617860040259e+01 6.8781727706524720e+01  1.2388264229567005e+02 -3.8393656756468147e+01 7.3346434454771114e+01  1.1671329600870109e+02 -3.5012367513282889e+01 7.0542478220975354e+01  1.2766500894098847e+02 -4.6205376210509606e+01 7.1642020783210540e+01  1.1083998070474014e+01 6.9373278806974184e+01 2.9958670645392292e+01  2.7170243134953427e+01 6.8528690435634758e+01 3.7405970635253944e+01  1.3859033873444101e+01 5.5194702760309532e+01 2.7799511500411693e+01  2.5897528798944041e+01 7.7384495834803559e+01 2.6898072675217673e+01  6.0565604787802656e+01 8.4866211482235684e+01 3.1815875437035523e+01  4.5603181667785179e+01 6.9240553359376577e+01 3.2453378099740426e+01  4.2369718810066445e+01 8.0170854349026769e+01 3.3324767262672822e+01  3.7771316720994399e+01 7.1336573529660541e+01 4.2292471887261335e+01  4.1815457671803649e+01 4.9984158902916000e+01 3.0893709957975418e+01  4.8155405023581530e+01 1.1025007187297594e+02 1.2657603418610667e+02  1.0420388011425182e+02 1.3907693638783491e+02 1.6604633395321665e+02  7.4050842785504088e+01 1.5858897502356612e+02 1.5008498878095119e+02  1.0493315529511653e+02 1.3641182960900684e+02 1.6865575847334759e+02  2.1265347490880430e+02 1.3765893757043216e+02 1.8618087881084023e+02  1.8176280246111361e+02 1.4995350068516041e+02 1.8889886450190528e+02  1.8082654434746428e+02 1.3480797034363127e+02 2.1277339783424381e+02  1.6216364431655680e+02 1.4078823885813227e+02 1.7003206457903531e+02  1.6961606357261283e+02 1.0918965786554251e+02 1.2389570215021990e+02  5.5993002303026941e+01 -1.4634796594598807e+01 -3.8760829558571125e+01  5.9197802684261241e+01 -1.1469434879024654e+01 -4.0151402657215328e+01  6.4506715537400197e+01 -2.2640371618938499e+01 -4.2066121330672921e+01  5.5387368656364025e+01 -2.2199404598714647e+01 -3.8648026086887427e+01  5.7796184293916220e+01 -1.3357647936596241e+01 -4.6848693324424325e+01  4.0586551690782912e+01 3.7744533090327629e+01 -3.3005180506997888e+01  4.7654264885187615e+01 3.8272928261606125e+01 -4.5577530478155495e+01  4.4067476903716276e+01 2.4839612841451405e+01 -4.1521593967603856e+01  4.1380567836947471e+01 3.4204468318111111e+01 -3.7349171113958882e+01  4.6747521572841364e+01 3.4789581900963228e+01 -4.1385951342850511e+01  5.4795854810728443e+01 3.2728601720719404e+01 -5.4864179147921085e+01  4.4741264337465950e+01 3.8146438143052357e+01 -4.7011129973914805e+01  1.1803900187841602e+02 -3.7007012586606535e+01 9.0282367850521325e+01  1.1572435443094660e+02 -4.7947849629489447e+01 9.8045967901296819e+01  1.0513297802169232e+02 -3.9515068658374865e+01 9.4293285617974462e+01  9.5202066769235032e+01 -3.3982214748946099e+01 9.1947753452214684e+01  1.1912239747204133e+02 -5.4070384194910496e+01 9.4231556217541453e+01  9.9497681094538905e+01 -5.5718559834225140e+01 9.8947862777187453e+01  1.2245465375366810e+02 -5.5828636313921486e+01 9.0677772728190405e+01  5.7139022445052959e+01 1.3590983828738061e+02 8.3677608494499154e+01  3.6032420723669780e+01 1.2398470962879993e+02 5.8208411700178793e+01  3.2570196230988117e+01 1.0936569614682833e+02 5.6598830742340333e+01  4.0334595577913888e+01 1.0936804995319045e+02 5.2270135372600777e+01  5.0105693054095120e+01 1.4691597896888132e+02 6.9481028763432832e+01  3.5007826618852491e+01 9.9294728687849471e+01 3.1673021437999594e+01  2.6717607442746221e+01 9.4799173869766094e+01 3.1785367679148493e+01  3.8859400284929450e+01 1.2706728114561602e+02 4.0088632081265359e+01  6.5964985621218219e+01 1.3971738419486735e+02 6.2727115997317334e+01  1.4969748773679950e+02 1.7373727890182718e+02 8.9749790254906046e+01  1.1381198896068065e+02 1.4701820858284069e+02 6.8003105110028045e+01  1.6394952215318631e+02 1.6981644626938217e+02 6.5019761631615324e+01  1.3390278582755744e+02 1.7523013740598023e+02 7.4444537707879121e+01  1.2568748948338687e+02 1.5266069253038376e+02 4.3419375854665184e+01  1.0464905891465612e+02 1.2938838506536371e+02 4.8596804102354973e+01  8.8488081958868733e+01 1.4538978126528218e+02 4.8240088018439721e+01  1.3269316780678000e+02 1.4833184962336293e+02 4.2428796924427935e+01  1.4240203906213293e+02 1.2747598210923219e+02 4.1335444460299051e+01  6.8567217243470665e+01 1.1155571534361162e+02 4.0740172342755024e+01  2.1942620799249205e+01 1.0030080495836567e+02 4.3823018497437538e+01  4.1064247640840307e+01 7.1197918731535793e+01 5.1809901420368895e+01  5.5300888128733320e+01 7.1268928223919971e+01 4.9255573002234101e+01  3.0598489514205294e+01 4.8891214055309824e+01 6.7373156597335381e+01  1.8015594899323872e+01 5.5196215349078592e+01 5.1331103725314819e+01  3.0569124028784326e+01 5.4826867098713038e+01 6.2688681171497088e+01  2.2487126403321835e+01 4.4458569820125959e+01 6.1483903981227563e+01  2.0216301051941485e+01 5.8199009538169399e+01 5.7251745093254463e+01  1.5761520129187362e+01 6.3571973861118678e+01 4.4589950718307271e+01  3.4559268552007630e+01 6.5391276090913138e+01 4.9157990068035538e+01  4.4738968207134100e+01 4.7218900660119964e+01 5.0651751751009584e+01  6.4515431202920766e+01 1.1776279005504398e+02 5.9674213927804800e+01  8.1062474467854557e+01 1.1926331876226587e+02 6.0537010319476238e+01  6.7060301156571924e+01 1.3232362419172813e+02 4.6974700530265558e+01  7.8344736676108155e+01 1.5117024518687509e+02 8.0873631257099390e+01  1.1927552785256950e+02 1.5470075965676261e+02 8.9687200297344972e+01  1.0481422092019254e+02 1.6572914617835281e+02 8.5634947431342610e+01  8.0885199877593422e+01 1.4458469133611183e+02 9.3039076121578375e+01  1.2494300435078262e+02 1.6915794056208435e+02 1.2790703057877776e+02  1.1106874027979593e+02 1.4744570240436909e+02 1.3291415176592949e+02  5.9956088930989182e+01 1.5977736804071819e+02 1.1676715946183219e+02  1.2278642376410204e+02 1.8197624425110698e+02 1.0756774943423810e+02  2.1849070896999774e+02 1.7410746522072461e+02 1.4504516048198909e+02  1.3918398221832927e+01 5.1939800189730619e+01 3.7826908999378425e+01  5.7215150338097631e+00 6.2822123893918985e+01 3.7189610262013105e+01  6.4291057824787643e+01 2.1635794704385450e+01 8.0825456078136966e+01  7.2006775608065198e+01 6.3074764317752718e+00 8.6450668347178933e+01  6.3139525950617447e+01 2.6974842490518117e+01 8.0932510945778134e+01  7.1138190567892352e+01 2.1508966213736404e+01 8.1119181097082205e+01  7.6382095240586153e+01 7.4230905571349250e+00 8.8362985408526214e+01  9.1353252034690570e+01 -7.4872043569611630e+00 8.9466890679309770e+01  7.4606864386190495e+01 3.2425183335994575e+01 7.7983963506668047e+01  7.1815230777766189e+01 7.8784391000814310e+01 1.1365649621624752e+02  9.2528966465189967e+01 1.0078560515732225e+02 1.3288520590322869e+02  4.8538132588512838e+01 1.0284596667784942e+02 1.0971202920113160e+02  1.0680325492409804e+02 6.4344927391003424e+01 9.5902549169525727e+01  9.2604274807445435e+01 4.0894264645381078e+01 8.0579266121402426e+01  7.4492467775464277e+01 5.8840737336838323e+01 7.5731676755163022e+01  7.5634174538012729e+01 4.1013001800324012e+01 7.5907290582444716e+01  9.3832426569339660e+01 2.5578267575503265e+01 8.6426917309460876e+01  9.7955981355236432e+01 6.5475507789878222e+01 8.3015689981026966e+01  7.7149850740846730e+01 7.3545666056559540e+01 9.2745478227010253e+01  1.1935623026932963e+02 -3.0644159013396198e+01 7.8113773345934376e+01  1.0977160091196154e+02 -1.8470396221964226e+01 8.2782360962536870e+01  1.0379385508803007e+02 -2.4033849038497472e+01 7.4883491082440258e+01  5.3680091122372986e+01 -1.3475782870955422e+01 -4.0233454386272349e+01  5.2500252018924229e+01 -1.2871628054972250e+01 -3.9350908126813842e+01  4.8259159385061388e+01 -9.9673212700614950e+00 -3.6959239583438432e+01  3.4278979565938627e+01 1.0244457040073262e+02 9.4883087377124454e+01  2.8499259949793665e+01 7.9997280629133201e+01 9.1441140698756271e+01  6.7738162597447982e+01 8.8723256682543919e+01 5.4465774093038483e+01  9.0472754743805524e+01 1.6646583885851376e+02 1.0005423944987251e+02  2.1300219801746610e+02 1.9418917149467674e+02 1.1256319547501552e+02  1.2417640019149671e+02 -4.0831434506855366e+01 7.9036828696961450e+01  1.1154813544713075e+02 -3.3417179616011524e+01 6.9469408258391212e+01  3.7399504993043507e+01 7.4882004330324278e+01 8.6918069304953065e+01  4.4806745888033717e+01 6.8102151912706660e+01 4.4576839509451858e+01  4.4292392643507618e+01 4.9618461215809852e+01 4.2405658464522219e+01  4.7968531856576554e+01 5.3493630414804123e+01 5.9009738795636807e+01  7.9115541630980971e+01 5.2251847510718356e+01 6.9494354539019795e+01  6.0996009077403833e+01 5.7440603883475376e+01 5.5332226076403167e+01  4.8295726319011635e+01 3.0377302397943069e+01 6.1284779342508799e+01  6.4323617825593558e+01 4.6186549745550735e+01 7.3397936731931111e+01  4.2465262382605950e+01 2.9635427303007301e+01 8.3363668154228066e+01  5.0443686270659661e+01 3.6027312471927665e+01 8.0728175229967775e+01  3.1106011198826895e+01 3.7399631460323228e+01 8.1725314189718574e+01  4.4414440150870377e+01 3.5234115976936742e+01 8.0973493359000955e+01  7.7610421460478676e+01 9.7579725619870686e+01 5.1815142935888595e+01  9.8503186904347629e+01 1.0799684844926013e+02 4.3942081156825843e+01  6.9451368848281192e+01 7.9563131337896493e+01 4.2426803230306106e+01  7.0038191694926397e+01 1.0147962406072753e+02 3.7503876478936682e+01  8.7306302278857842e+01 1.0827965679985243e+02 3.2986088194930389e+01  4.7533808001515148e+01 4.8410651744830076e+01 7.0954773902568036e+01  4.0183126440446799e+01 2.3101938645130073e+01 8.2936891816105415e+01  2.8026379554223453e+01 2.3324123216557723e+01 7.0566296528651080e+01  5.3602010891033899e+01 9.7788675156112006e+01 3.7730292808937747e+01  3.7054276179315394e+01 1.0799935541446996e+02 3.7891978131944647e+01  4.3125429387457331e+01 1.1011929063119926e+02 3.1889355527286423e+01  4.3147123667428424e+01 9.8940674564569974e+01 3.0281138285701068e+01  3.9248315048224754e+01 -1.5446978784669447e+00 -4.7995537572049024e+01  4.4058027211496430e+01 -9.7772848670870793e-01 -4.7209649660336652e+01  4.4215621383759739e+01 -1.3940263167971461e+00 -5.3547469428660690e+01  4.0185848073240422e+01 8.7627717670814798e-01 -4.2012172007072174e+01  5.2128504638847012e+01 6.2489764242871173e+00 -5.0781841894197285e+01  1.0389336807950289e+02 8.5582510539410379e+01 8.9746079937086080e+01  6.6356643071978198e+01 1.1325700200296222e+02 2.2315729225241657e+01  5.6366989826331270e+01 9.8115557508343073e+01 1.5103471081997426e+01  6.8710287918922504e+01 1.0978593913613219e+02 2.3246988180312883e+01  4.7672779002550911e+01 1.0090193583649378e+02 1.8065791010416977e+01  5.5463713339393621e+01 1.0373810752253897e+02 1.4472521862156626e+01  3.5880764567311282e+01 9.6644545501201151e+01 1.2542841542076923e+01  3.7314468327381512e+01 9.3962251571403016e+01 1.1743890105420144e+01  3.3307107366583260e+01 8.9966486535380355e+01 1.8263788445962373e+01  4.4225907489320427e+01 8.9019576858445831e+01 2.1913109060032518e+01  1.3402183129437375e+02 -4.4065491034359901e+01 8.1704420234178841e+01  1.3003467704778225e+02 -5.4055648732679309e+01 8.3825325979882308e+01  1.3042072902184100e+02 -4.6101757465869134e+01 8.0102496340406702e+01  1.2510594587002065e+02 -4.2184956743311993e+01 8.4971557488919387e+01  1.3192399503780152e+02 -4.6564945757245383e+01 9.2824421701833217e+01  1.2877586871313559e+02 -4.8801180614230965e+01 7.3896368886078463e+01  3.9824279945616397e+01 8.1365604091880655e+01 1.8602445007268908e+01  2.9027260057555729e+01 8.6934469401115123e+01 2.8452080318185420e+01  4.7562931175147739e+01 4.8399607339339880e+01 6.5955601081754352e+01  5.3977524423658828e+01 7.0198657557318384e+01 4.7566017948424076e+01  5.7538244203075788e+00 4.9601655145648678e+01 4.1587239688627839e+01  5.6169965796580623e+00 3.9895836348818321e+01 3.0396493293518006e+01  1.2641496212687979e+01 3.9719474587052837e+01 2.5303460428212805e+01  9.0396888101305493e+00 5.0388920934839504e+01 2.5685325261487272e+01  7.1266990413362933e+01 1.2432225948933949e+02 2.8980604535288755e+01  9.0080625512866064e+01 1.2860117662178288e+02 3.7368664757580902e+01  1.2162719380283217e+02 -4.3407543887946787e+01 8.6345927297438067e+01  1.0422077854624625e+02 1.1627892149664274e+02 1.2278576004055753e+02  1.3931424904120021e+02 1.1583480478003145e+02 1.1476613040568289e+02  1.2183438126031221e+02 8.7776659401520718e+01 1.1155133697601799e+02  1.5415490036925631e+01 1.0393310499191080e+02 -4.3397546688390207e+01  1.1444053331429764e+01 7.7104525525678383e+01 -2.8222966756083785e+01  1.8839580646126446e+01 9.5100802259217318e+01 -4.4509301682527301e+01  1.9099382084400613e+01 8.2642618811761224e+01 -3.0604146628734732e+01  3.2920174240495385e+01 6.9602319541535479e+01 -5.2556107841596223e+01  1.2702543309571166e+02 -4.7621260592075259e+01 7.3180389054972096e+01  8.3740508307406962e+00 5.1600486008618539e+01 4.3442605993358598e+01  1.1124946920388817e+01 4.0875234577422361e+01 4.5792139221567652e+01  1.5970931587462077e+01 3.8532879761781395e+01 3.4993594503606879e+01  1.5920455082337307e+01 4.0256341354166061e+01 4.5758752196492004e+01  1.0782708511287813e+01 4.1296955643101974e+01 5.8951935131584563e+01  5.7842197682905294e+01 8.8240934307404430e+01 4.0946234264178749e+01  2.0179071798935258e+01 3.8333394004757203e+01 6.9318346037970301e+01  2.9940236160047913e+01 1.8210226897074921e+01 7.3749513513918401e+01  2.4179783046228913e+01 1.7926450849390577e+01 6.0635052501641198e+01  2.2316203084895932e+01 2.8063267776188251e+01 5.7758537662848390e+01  7.0238713614274904e+00 2.3420191570667356e+01 5.0379522927099138e+01  3.6930566209896121e+01 9.9622199601591660e+01 1.0630204481088144e+01  3.6354166182025693e+01 9.9683855455046128e+01 1.1169857794780231e+01  3.5466126152501211e+01 9.9349091124283447e+01 1.3216761840438428e+01  4.6330470056963939e+01 1.0643851902517245e+02 1.5014148218300948e+01  9.4094940786333240e+01 1.3418572708929733e+02 4.0047593303240902e+01  9.8002811737172877e+00 8.1730987572549040e+01 -3.3747659239502973e+01  4.8884713142988367e+01 7.8557863719397560e+01 3.8998157833041276e+01  2.1918990854118722e+01 6.0490328227105216e+01 1.8789850753189629e+01  1.5825091838017192e+01 7.4930080443742270e+01 2.4704982836731372e+01  2.2042287005387873e+01 7.8208760829112791e+01 1.7117374560284158e+01  1.1807007390540474e+02 1.3546894714969275e+02 7.0133867902199114e+01  6.8367472344606696e+01 -1.6163183479200967e+01 -4.0908435914780377e+01  5.6070670338069256e+01 -1.3952280194202958e+01 -4.0862639580527848e+01  5.8869780720658447e+01 -1.6228203901044044e+01 -4.1107021586625315e+01  6.2384458863617994e+01 -1.3759363493927426e+01 -3.0870419205579370e+01  5.6665878462341887e+01 1.2048778071355733e+02 1.4402205743745031e+02  1.1199364345402873e+02 1.1160390948002211e+02 1.5370972016611603e+02  1.2380287645122169e+02 1.2315787368883467e+02 1.5281832722760126e+02  1.5062554340952431e+02 1.3495458099009468e+02 1.8163608213925798e+02  3.0304480800550181e+01 1.1214505643975575e+02 -5.6950103866334743e+01  2.9930160109028183e+01 7.9651220376952793e+01 -4.3882761881129717e+01  2.7853908998106725e+01 1.0825991422377531e+02 -5.2900627832829521e+01  5.5691135443355186e+01 1.3283598713451312e+02 1.0235276686733776e+02  5.0394853139026054e+01 2.2068227528190960e+01 -4.9196994999996797e+01  5.2206176106435876e+01 1.5939022769569478e+01 -5.0198693975977854e+01  2.4317374898482893e+01 1.1026356411358563e+02 -3.7568962177920476e+01  1.8352771027029138e+02 1.6056752613150249e+02 1.6727135913076415e+02  4.1229916394587434e+01 2.1458042829408054e+01 -3.7186710371647102e+01  3.7076610588374187e+01 7.9921272450252957e+01 -4.3433880954135951e+01  3.7464771570313133e+01 6.5161660769403966e+01 -4.2965654172069719e+01  4.0535660362397728e+01 7.1870785974184983e+01 -4.7691075738576153e+01  4.3767046920532060e+01 5.5319529733654228e+01 -3.4203428049507743e+01  4.7291012729861784e+01 5.5299036973661295e+01 -4.6216916882207400e+01  4.7046249626582174e+01 4.8069476226991661e+01 -3.9035358582770073e+01  3.6715122425792181e+01 4.4201909510386564e+01 -3.2289491851199585e+01  4.4410604024820877e+01 5.7335471248464840e+00 -4.6331586071942660e+01  4.1903253906787754e+01 4.6627417727689199e+01 -3.7709280753367253e+01  4.1967837818769674e+01 8.4860851624412803e+01 2.8496657097783565e+01  5.0436779132768748e+01 4.6992143992704847e+01 -5.1383285654920556e+01  4.0867538594706048e+00 4.4469728148080911e+01 2.9066654600488086e+01  1.3424137461303209e+02 -5.0644938259591036e+01 8.0687622762506422e+01  1.3571136119116065e+02 -5.0748852904370594e+01 8.6560496439608642e+01  1.3323828609484133e+02 -6.1396088696361275e+01 9.0211924735077162e+01  1.3389833227418387e+02 -6.0499377241483025e+01 7.6140032778363377e+01  1.3186103557737357e+02 -4.5001858861410717e+01 7.4048938214514507e+01  1.2837376059513261e+02 -4.9011401540343321e+01 7.7533257106373270e+01  1.3340106637288986e+02 -4.5060482969701816e+01 7.4356266030458457e+01  1.3839305450544640e+02 -4.3557337127065885e+01 7.1538360408746456e+01  3.7079143703760323e+01 1.0073087963717414e+02 2.5234747664178144e+01  3.6489516650723530e+01 1.0119423113175786e+02 2.2771322196227199e+01  4.2474040998693496e+01 9.7604620197497880e+01 2.1282409950141446e+01  5.0133541793217439e+01 1.1358085705610057e+02 2.6082820048969065e+01  5.1094340561333972e+01 1.0524608243938874e+02 2.4211792612637851e+01  4.2970002401509113e+01 9.3672781624613165e+01 2.2220149344466773e+01  4.9848216078231836e+01 1.1309867902688022e+02 2.2152599724021062e+01  3.7886862422629584e+01 9.7879654891425432e+01 1.2844486406430788e+01  9.2421536530755404e+01 1.5294178552959175e+02 4.8690737807901129e+01  6.5153227621527293e+01 1.3093038224573735e+02 3.3133121598290685e+01  5.1234256994269373e+01 1.2955553233247713e+02 3.7001671072925078e+01  5.3465907886154206e+01 1.2663074526649756e+02 2.9633099386687469e+01  1.1045850487860939e+02 9.3545107635103051e+01 1.2108019419987623e+02  3.2255337624298384e+01 1.1761243502596955e+02 7.573479062