<?xml version="1.0"?>
<VTKFile type="UnstructuredGrid"  version="0.1"  >
<UnstructuredGrid>
<Piece  NumberOfPoints="4565" NumberOfCells="19650">
<Points>
<DataArray  type="Float64"  NumberOfComponents="3"  format="ascii">-0.6561989643999999 27.0653681157 17.0784563405  0.02286686800000004 26.22418760465 16.39111992495  0.7656197313000001 26.16746538345 16.67835127205  0.02286686800000004 26.88964717155 16.5648139822  -0.6561989643999999 26.3999085488 16.90476228325  0.7656197313000001 26.83292495035 16.8520453293  2.187438427 26.600481785 16.6256343181  1.4446855637 26.6572040062 16.338402971  -0.6561989643999999 25.7344489819 16.731068226  0.7019327004 26.7139262274 16.0511716239  2.2315025383 27.337479815 17.7662573786  0.82789204555 27.38348904505 16.862067013  2.20947048265 26.9689808 17.19594584835  2.2717427969 27.5195448947 17.20596753205  0.78765178695 27.20142396535 17.42235685955  2.3119830555 27.7016099744 16.6456776855  2.24971074125 27.1510458797 16.6356560018  0.02286686800000004 27.4000713612 15.9834456745  0.4427117540000001 26.9869427542 16.45011405095  1.92680276395 27.30506368355 16.23372472345  1.8645304497 26.75449958885 16.22370303975  1.5416224724 26.9085173927 15.8217717614  1.1217775864 26.81122181005 15.93647169265  1.74732417565 26.17917795735 16.36257494875  0.32550547995 25.7461615558 16.4152919027  1.00457131235 26.23590017855 16.07534360165  1.3072099243 25.7578741297 16.0995155794  1.42441619835 26.3331957612 15.9606436704  1.3463794267 8.6503485853 32.7000417599  1.88022348045 8.12846607655 32.81878442715  1.41243290975 8.26730629255 32.32005646775  1.73507582175 8.426916569899999 32.38999165925  1.1688841734 8.1922878146 33.0588993363  1.4915270854 8.35189809195 33.1288345278  1.0237365147 8.49073830795 32.6301065684  0.7010936027 8.3311280306 32.5601713769  1.6366747441 8.0534475986 33.5576272957  2.1237722168 8.203484554499999 32.0799415586  3.5728186477 1.6636787244 16.7900077727  2.8706408524 2.55419617405 17.886216244  2.7162059207 2.12017420805 16.8611398722  3.00593425275 1.96868558875 17.9390185966  3.7272535794 2.0977006904 17.8150841445  2.4390498578 2.2736924531 19.0880294205  2.14932152575 2.4251810724 18.0101506961  3.16036918445 2.40270755475 18.9640949684  3.8816885111 2.5317226564 18.8401605163  1.8595931937 2.5766696917 16.9322719717  3.8847300897 -0.6702492376 23.2839386719  4.52093510535 0.5601586477 23.03629533125  4.46759510275 -0.6702492376 23.3333826531  4.23020320995 0.9094681488999999 23.7222811658  -0.6561989643999999 2.5341526534 23.6934393702  0.004997821250000034 1.97948737965 22.7124575825  0.5384988102 2.4414644188 23.2727054069  0.004997821250000034 1.985503288 23.41310167545  -0.6561989643999999 2.52813674505 22.99279527725  -0.6561989643999999 2.5221208367 22.2921511843  0.5384988102 2.43544851045 22.57206131395  0.6661946069 1.4368539226 23.1327639807  1.19969559585 1.8928150534 22.99236771215  1.7331965848 2.3487761842 22.8519714436  3.8070115696 6.4089822503 30.3684022993  3.03093550325 5.8292815352 29.57574268925  2.85067515285 5.86349777055 30.14111211365  3.01433483575 6.331110300800001 29.91959808395  3.8236122371 5.9071534847 30.0245469046  3.6433518867 5.94136972005 30.589916329  3.4796922038 5.4737571898 30.8114303587  3.6599525542 5.43954095445 30.2460609343  3.8402129046 5.4053247191 29.6806915099  2.2216581019 6.2532383513 29.4707938686  2.9497806844 3.9222106591 25.6698718943  2.433730041 2.94983397655 25.9373439124  3.05442087865 3.3771834024 25.64383032015  1.14679086 3.2916986834 25.37260201165  -0.6561989643999999 2.6611867077 25.075332129  0.6307402166 2.31932200085 25.64007402975  1.25143105425 2.7466714267 25.3465604375  3.1590610729 2.8321561457 25.617788746  2.53837023525 2.40480671985 25.91130233825  1.9176793976 1.977457294 26.2048159305  2.0949093476 4.0683814074 18.2945267618  1.97725127065 3.32252554955 17.61339936675  1.99261949635 4.03057914875 17.56763593095  1.5514429446 4.003825545750001 17.90802156855  1.0079765416 3.9392696841 17.5215163753  1.43378486765 3.2579696879 17.2268941735  1.44915309335 3.9660232871 17.1811307377  1.8903296451 3.9927768901 16.8407451001  1.8749614194 3.2847232909 16.8865085359  -0.6561989643999999 3.3316325321 27.1579266457  0.6305831838 2.5884681094 27.4043058155  0.5570469367000001 3.6228292196 27.2317075637  0.6307402166 2.65454491305 26.6813712881  1.9175223648 1.91138049035 26.9277504579  1.8439861177 2.94574160055 26.7551522061  1.7702928378 3.9140259071 27.3054884817  1.8438290849 2.8796647969 27.4780867335  1.917365332 1.8453036867 27.6506849853  -0.6561989643999999 1.4897588827 25.5502519704  0.6307402166 1.73360808835 25.87753395045  0.6389907743000001 0.40975482255 25.49026931195  0.2029735673 1.06780718405 25.84485177965  1.062146099 0.6458554854 26.1394515889  1.9259299553 0.6536040282 25.817551292  1.4899127483 1.3116563897 26.1721337597  1.498163306 -0.01219687609999998 25.7848691212  1.934180513 -0.6702492376 25.4302866535  2.8844555987 4.0761486168 33.1174017971  2.27591786525 3.39078424065 32.30256576  2.9270891745 3.3928820621 31.9740667965  2.8289958476 3.3774131584 32.77781938015  2.9825489256 4.0916175205 32.31364921345  2.33137761635 4.08951969905 32.64214817695  3.0806422525 4.1070864242 31.5098966298  2.42947094325 4.10498860275 31.8383955933  2.7735360965 2.6786777 32.4382369632  1.778299634 4.1028907813 32.1668945568  0.8492623043 9.288878197800001 28.3887726687  0.7263644427000001 7.9259488581 28.6369326969  0.8107978080500001 8.208523768300001 27.80865312  1.47909507705 8.67497855875 28.72329981155  0.09653166995000007 8.53984849715 28.30240555405  1.5635284424 8.95755346895 27.89502023465  -0.6561989643999999 7.7908187965 28.2160384394  2.2777945805 8.6262287401 27.4012678006  2.19336121515 8.343653829899999 28.2295473775  2.1089278498 8.0610789197 29.0578269544  3.1286254924 -0.6702492376 23.8130165447  3.1065440753 0.5938313733 22.760568125  3.54193175725 0.5938313733 23.2051636329  3.1638794586 0.5938313733 23.4697025693  3.50667779105 -0.6702492376 23.5484776083  3.0712901091 -0.6702492376 23.1038821004  3.44934240775 -0.6702492376 22.839343164  3.0139547258 -0.6702492376 22.3947476561  3.1991334248 1.8579119842 23.1263885939  3.8156374746 3.8044059238 18.0752164497  4.11438747725 2.45918826105 17.96322188695  4.2916140916 2.90308512635 18.0140178284  3.84866299285 3.1680642901 18.457688483  4.081361959000001 3.09552989475 17.58074985365  4.25858857335 3.53942676005 17.6315457951  4.7015396721 3.2744475963 17.1878751405  4.52431305775 2.830550731 17.13707919905  4.3470864434 2.3866538657 17.0862832576  2.7213231079 3.4926855864 22.5316922758  2.49958898695 2.66336833935 23.4335792101  2.22725984635 2.9207308853 22.6918318597  2.2606838285 3.48075514045 23.13623105105  2.96022826635 2.6752987853 22.82904043485  2.4661650048 2.1033440842 22.98918001875  1.8000445491 3.4688246945 23.7407698263  1.76662056695 2.90880043935 23.29637063495  3.6694112273 3.6977260032 21.851587327  3.48112947365 2.71348947865 22.099909107  3.95517353335 2.81600968705 21.7598566326  3.43427232605 2.7778189937 22.48898796045  3.1953671676 3.5952057948 22.1916398014  3.7200346321 1.89610267755 22.39725726605  4.2409358394 1.9342933709 21.6681259382  2.2534351298 2.58802025 21.65135444725  2.6598880784 2.588502561 22.22848304545  2.7851855998 3.45210787285 21.8847539893  2.3148701593 3.4922032754 21.9545636776  2.8490480917 3.4115301593 21.2378157028  2.7237505703 2.54792484745 21.58154475895  2.3787326512 3.45162556185 21.3076253911  1.9084172107 3.4917209644 21.3774350794  2.5984530489 1.6843195356 21.9252738151  2.6412145863 12.2883846414 25.9273780244  2.10537428335 11.18226576595 25.1868160683  2.41890520905 11.5395831531 26.29719722945  2.8746541466 11.8161165127 26.1610467084  2.5611232209 11.45879912555 25.05066554725  2.18546564875 12.0118512818 26.06352854545  1.7297167112 11.7353179222 26.1996790665  3.1080937069 11.343848384 26.3947153924  2.7945627812 10.98653099685 25.28433423125  2.4810318555 10.6292136097 24.1739530701  2.6294519017 0.9035404793 16.6780513243  1.6470420625 0.9532102270499999 16.84533514205  1.55812457175 0.54823800125 17.42132259845  2.15560505695 1.3351328597 17.3811491044  1.6817582122 1.7667252401 18.0842468845  1.77067570295 2.1716974659 17.5082594281  3.2296559487 -0.6702492376 20.0895364158  3.3956189617 0.89708882605 20.1898015591  2.69731907775 0.6764777041 20.3887598465  2.83435290325 0.8017216077499999 19.58878291815  3.00031591625 2.3690596714 19.68904806145  2.3020160323 2.14844854945 19.88800634885  2.1649822068 2.0232046458 20.6879832772  2.86328209075 2.24381576775 20.4890249898  3.5615819747 2.4644268897 20.2900667024  1.1044577269 0.6811322825 21.3662413315  1.60953137915 0.438176373 20.2323447488  1.1685062371 0.438176373 20.1073222125  1.2594710107 1.11386713305 20.61292337335  1.0134929533 0.005441522450000014 20.86064017065  1.45451809535 0.005441522450000014 20.98566270695  0.9225281797 -0.6702492376 20.3550390098  1.36355332175 -0.6702492376 20.4800615461  1.8045784638 -0.6702492376 20.6050840824  1.4144842945 1.5466019836 19.8596054152  3.9944960515 2.170505667 24.9646868578  3.56156077195 0.7501282147 24.38885170125  4.12770904545 0.7501282147 24.7669509038  3.66375309855 0.7501282147 25.22369528045  3.3330101456 -0.6702492376 25.4827037031  3.230817819 -0.6702492376 24.6478601239  3.7969660925 -0.6702492376 25.02595932645  4.2609220394 -0.6702492376 24.5692149498  3.6947737659 -0.6702492376 24.19111574725  2.48505076 8.676835887399999 30.7731509577  1.94072693955 7.81650630215 31.2254582752  2.12136621115 8.053181968600001 30.57206297475  2.7857134293 7.8172187006 31.0807870502  2.3044114884 8.440160220949998 31.42654625815  2.6050741577 7.58054303415 31.73418235065  3.0863760986 6.9576015138 31.3884231427  2.42202888045 7.1935647818 30.87969906725  1.7576816623 7.4295280498 30.3709749918  1.9793724186 10.62594777735 26.0185396453  1.20949620515 11.34914085225 25.9038798986  1.49833117855 11.25483460965 26.446670415  1
[...]
<PointData  Scalars="p_O2"> 
<DataArray  type="Float64"  Name="p_O2"  format="ascii">4.0000000000000000e+01  8.8594113928507383e+01  9.1417077100795126e+01  7.9120084505284282e+01  4.0000000000000000e+01  8.5124309199845854e+01  9.7048343183265871e+01  9.3763081697740859e+01  3.9999999999999993e+01  9.6136884684847118e+01  9.5913619440090244e+01  8.1968089122749646e+01  9.5919975927662406e+01  9.5874566731890638e+01  8.1213815015806617e+01  9.6264941565100912e+01  9.6892562626320810e+01  8.2962064675004783e+01  8.7782679379191435e+01  9.5248836370942271e+01  9.6758599917217651e+01  9.7142269747998171e+01  9.5965592494475743e+01  9.6604087409115948e+01  9.0247342484019597e+01  9.6890892073514351e+01  9.7905147962632441e+01  9.7248933479451338e+01  9.7665162697545711e+01  9.5796688143398427e+01  9.3736284420305950e+01  9.6519021346378537e+01  9.4203238267695141e+01  9.6554015106179492e+01  9.5999001787089028e+01  9.4234335718099558e+01  9.6727436594440150e+01  9.7385899415408062e+01  9.8617559819235183e+01  9.5618570674276626e+01  9.5388991718128153e+01  9.6094920268578448e+01  9.7876812883899561e+01  9.3359131781317203e+01  9.1448555673339555e+01  9.5893253684599927e+01  9.7745524428725062e+01  9.1031198546793689e+01  9.9460034212784109e+01  9.8667933328213792e+01  9.9605343531527410e+01  9.8102547079541736e+01  4.0000000000000000e+01  8.8217694962026385e+01  7.9078345964242615e+01  8.5073245538011079e+01  3.9999999999999993e+01  4.0000000000000000e+01  7.8428971537629735e+01  9.3012725685580662e+01  8.8817040335941257e+01  8.8749997595612797e+01  9.7124608362321709e+01  8.9664567556538415e+01  8.8723882078315569e+01  9.0121560885871673e+01  9.6591824897146680e+01  9.6374385346485781e+01  9.5613154721289618e+01  9.6111340341555376e+01  9.6835200967983369e+01  8.1661914348397474e+01  9.2986879884858368e+01  8.7273796824683231e+01  9.4189234531850232e+01  7.1770814729531267e+01  4.0000000000000007e+01  6.8561765524556122e+01  7.5759220737689319e+01  9.4934177005758102e+01  8.9940955507704700e+01  8.5334252436047862e+01  9.8920245896201692e+01  9.4433190076970419e+01  9.7967824169589178e+01  9.6873231229269237e+01  9.6328006083712182e+01  9.2408507705457041e+01  9.7213495323677890e+01  9.8148955686805166e+01  9.4472278882751809e+01  4.0000000000000007e+01  6.6561094834375893e+01  6.0028273273093674e+01  6.5846050370889131e+01  8.6438682811213923e+01  8.0359993470916493e+01  7.6279955919460647e+01  8.0874714762020517e+01  8.7237523932586683e+01  3.9999999999999993e+01  7.5828330079952082e+01  9.7008964274537689e+01  8.3922529730453306e+01  9.5928574632353417e+01  9.4382416385205957e+01  8.9592521745484902e+01  9.8105834474036229e+01  9.9173396474952995e+01  9.3832694614793795e+01  8.6364740967428418e+01  9.3895247797344624e+01  9.4156002180851843e+01  9.3966832447290400e+01  8.5946385007177412e+01  9.3975040007241063e+01  8.6189689702661710e+01  9.4682203897494389e+01  7.7924392870701325e+01  9.4005378263770595e+01  7.3215542761974390e+01  7.6588415883943227e+01  8.7875645003239825e+01  8.1000885814563958e+01  8.9154477477203756e+01  4.0000000000000007e+01  8.9147999456116992e+01  8.8574213887611663e+01  8.7619971263377934e+01  9.9313075722864070e+01  9.7371722347236371e+01  9.7598170206307771e+01  9.7245148062883928e+01  9.9366158557676457e+01  9.9316956965907409e+01  9.9366622313167170e+01  9.9429532227885943e+01  9.5324287087093126e+01  9.9289376412632052e+01  9.8436121730503189e+01  9.8796751361138419e+01  9.8350271614231275e+01  9.8833105072158304e+01  9.9445834457546553e+01  9.9767112617867312e+01  9.9455325562523171e+01  9.9506426953923068e+01  9.6263883178721329e+01  9.1191656811910860e+01  9.1984176753335674e+01  8.9778293426962122e+01  9.5101212424996532e+01  9.2574758857075722e+01  8.2675361131483172e+01  8.5596370119026460e+01  9.9053375249988449e+01  9.6948261107331433e+01  9.8020964187554597e+01  9.6745668359359357e+01  9.7907004125378563e+01  9.6787630009070696e+01  9.7852767150806301e+01  9.3939055672101162e+01  9.4658846545214814e+01  9.7360252290999171e+01  9.6308381858500340e+01  9.7813739308642837e+01  9.5416116801821119e+01  9.6990635584871441e+01  9.6114232592857775e+01  9.4931541937281608e+01  9.9093474434653174e+01  9.4997180786878587e+01  9.8367802310741652e+01  9.8900162714139626e+01  9.6147875533059249e+01  9.8703943394787956e+01  9.8850368517001300e+01  9.8753876395636482e+01  9.6094614265044029e+01  9.4280335279781369e+01  9.7829250425956488e+01  9.6295345856300884e+01  9.7425063919814832e+01  9.4324883027665436e+01  8.7466865493891362e+01  8.9247665131279987e+01  9.9431057862336459e+01  9.7430213568366085e+01  9.6796195102643480e+01  9.6374917305972374e+01  9.5616027848953550e+01  9.3180417563531265e+01  9.2996240124071548e+01  9.5202306009825151e+01  9.6996944679818370e+01  9.6744596880930970e+01  9.5942793607365417e+01  9.5969461579974279e+01  9.1924984897538636e+01  9.8528990410375059e+01  9.8278018570209625e+01  9.9744415977692114e+01  9.9457000351982472e+01  9.9238501503245971e+01  8.9137656534241415e+01  9.7735649858913035e+01  9.7699907676212533e+01  9.8745576185016816e+01  9.7892668016266470e+01  9.9428761872559349e+01  9.9234115487211525e+01  9.9592241355687634e+01  9.9774406204795227e+01  9.9448091946041018e+01  9.6633549104392827e+01  8.9713102802098021e+01  9.0118139869666734e+01  9.5507887925974160e+01  9.6681443133415968e+01  9.5794555150406481e+01  9.5512503424667571e+01  8.9144177973514189e+01  8.2324244128715719e+01  9.4560772654796594e+01  9.7408760843266137e+01  9.8234694321449908e+01  9.7457588860509858e+01  9.0748229245139996e+01  9.2872101592217291e+01  9.6732883519966421e+01  9.5649680412725075e+01  9.1043043176166506e+01  9.7876119397227598e+01  9.8685676575296085e+01  9.6280398822083342e+01  9.8444475624502530e+01  9.8943007887161329e+01  9.6870039659897742e+01  4.0000000000000000e+01  7.1935437040218943e+01  8.3896977619737484e+01  3.9999999999999993e+01  3.9999999999999993e+01  7.3662405978968224e+01  8.2196685938573367e+01  9.1085756932506811e+01  9.7493103186479260e+01  9.6843245935801477e+01  9.7244162969666291e+01  9.0652982273550222e+01  9.4756670586780004e+01  8.5084370179828767e+01  8.6288173590930697e+01  8.6343559145719581e+01  9.4188646938497911e+01  9.3351685438051504e+01  8.4955245466493338e+01  7.7268925703760559e+01  7.6922955319963151e+01  7.6682647210365090e+01  4.0000000000000000e+01  6.5211754765116638e+01  7.0725851519414690e+01  4.0000000000000000e+01  4.0000000000000000e+01  4.0000000000000007e+01  6.4738975069053510e+01  4.0000000000000000e+01  3.9999999999999993e+01  9.9581028033914663e+01  9.7368843120712484e+01  9.7668221353839655e+01  9.8808127773271039e+01  9.9367890213235199e+01  9.9222692851989947e+01  9.8592433835911280e+01  9.8102344794654343e+01  9.6301352134377723e+01  9.5401488577503244e+01  4.0000000000000000e+01  8.8261512925074669e+01  8.8974598789099161e+01  8.3658855331000211e+01  9.5290259755993588e+01  9.3634295408278390e+01  9.2272966755781894e+01  9.4666452372526635e+01  9.4859327568009334e+01  3.9999999999999993e+01  7.0057173617914884e+01  6.5607107482352816e+01  7.5169975125997553e+01  3.9999999999999993e+01  4.0000000000000007e+01  8.0938754583936642e+01  9.5111655663202114e+01  8.9001869718723924e+01  9.4143174558373531e+01  8.2817965132973470e+01  8.6523312775509524e+01  8.6249838730029637e+01  9.0223608720642005e+01  8.3515684119736875e+01  7.8054290757154519e+01  7.7901838853434924e+01  7.7919732228740344e+01  4.0000000000000000e+01  6.9764239169977827e+01  7.5522973716925009e+01  7.0027280341914889e+01  4.0000000000000000e+01  9.9486337621442274e+01  9.7863711453395524e+01  9.7249562583774548e+01  9.9442200857853393e+01  9.4515726397920687e+01  8.5484316256717932e+01  8.5627610850220691e+01  8.6480079028147642e+01  9.4151607254568702e+01  9.3670687928588578e+01  8.4916257291588792e+01  7.7695230875556902e+01  7.6557183280436377e+01  7.5779119235114607e+01  8.7765704386979294e+01  8.6671374985674660e+01  7.5126596979050291e+01  6.1112082123589616e+01  6.1296453532209348e+01  7.7930726755708349e+01  7.7859093629677972e+01  9.8294161644508932e+01  9.3348837450144813e+01  9.6760335852700578e+01  9.7656895364912586e+01  9.6864550397415456e+01  9.1299547759620339e+01  9.5827718093443039e+01  9.9181243495401446e+01  9.8827974804395126e+01  9.8366292131006020e+01  9.8004561593854660e+01  9.7357437942978180e+01  9.9509115304919831e+01  9.8914023044019700e+01  9.8440334064817449e+01  9.9145414914457987e+01  9.9133113744843641e+01  9.9016408929327440e+01  9.8301109630767471e+01  9.8867480516041169e+01  9.8205385657359997e+01  9.7375002312088000e+01  9.9107416188130074e+01  9.6822467723820708e+01  9.7288325095970535e+01  9.8810731145991227e+01  9.8998555525261679e+01  9.8594261882679731e+01  9.8791828491823821e+01  9.7188565762822662e+01  4.0000000000000000e+01  6.0134714525824293e+01  6.0003707069967412e+01  6.0962535168848838e+01  3.9999999999999993e+01  4.0000000000000000e+01  4.0000000000000000e+01  4.0000000000000000e+01  4.0000000000000000e+01  9.8265535758293538e+01  9.7151216175129065e+01  9.6120672679704541e+01  9.5972621838815002e+01  9.8759134410783403e+01  9.4558491825301473e+01  9.8978952201516975e+01  8.6122630901307176e+01  9.4865563933849856e+01  8.8341585374968133e+01  8.7303849706235411e+01  9.5135413353754302e+01  9.5932738542528512e+01  7.9397760283279382e+01  9.2700571654431457e+01  8.4923054821970766e+01  8.4724381616995856e+01  8.6755015281918787e+01  8.3040824411069622e+01  8.0554962486222877e+01  7.9438232930874136e+01  7.7388105250879889e+01  7.8166727737064647e+01  3.9999999999999993e+01  7.2927763655458307e+01  6.2764055427455631e+01  7.0541862262327655e+01  4.0000000000000000e+01  9.4510087794094005e+01  8.8360279661723737e+01  9.9640116313603670e+01  9.9150144551542539e+01  9.9418312261920747e+01  9.9539117651863862e+01  9.4642400760449050e+01  9.7119464226127320e+01  9.8403795985178405e+01  9.7047789120524584e+01  9.8413769008036326e+01  9.1536850469492535e+01  8.4716887854914901e+01  8.5394175919397981e+01  9.3651484603271797e+01  7.8179066371243280e+01  9.7304480493018005e+01  9.7881406475920272e+01  9.6535113088265234e+01  9.9134048397689540e+01  9.9476997957748765e+01  9.8396480119004039e+01  9.3465480194006773e+01  9.5762101045845441e+01  9.7574806681132841e+01  9.3493571795209903e+01  9.0067552363149815e+01  9.2736235586337187e+01  9.0224156359745180e+01  9.3256904606066911e+01  9.6656289526059879e+01  9.3553003917395728e+01  9.9493022097072270e+01  9.9075443194623361e+01  9.9232061404382051e+01  9.9024302540207671e+01  9.8486277402921701e+01  9.9774211331101725e+01  9.9775064278207367e+01  9.8353272224669837e+01  9.7573198023977554e+01  9.1561034086345416e+01  9.2118559567206404e+01  9.7567886948870495e+01  9.7728649708611115e+01  9.1465153711346261e+01  9.2454164448521809e+01  8.4825953062246825e+01  9.9732785692233506e+01  9.7336750217490689e+01  9.7027330250446582e+01  9.9594457298880542e+01  9.7537803904017522e+01  9.5091035831276599e+01  9.8716311992778316e+01  9.4559002118316144e+01  9.8485883886703604e+01  9.8572944511443040e+01  9.8601400614379159e+01  9.4412475652167402e+01  9.9012712743694379e+01  9.5942072512755232e+01  4.0000000000000000e+01  5.9056528211183306e+01  5.9302154572241193e+01  5.9575021478275886e+01  4.0000000000000000e+01  6.0347766505685165e+01  4.0000000000000007e+01  7.7189408366122578e+01  7.7069396715699384e+01  9.4703266519477609e+01  9.1045930534942229e+01  9.6437970502670538e+01  9.7119868632175198e+01  9.5441217827324479e+01  9.3462133940152810e+01  9.5867546678057536e+01  9.7554826457514324e+01  9.8330885034277543e+01  9.9300023852667394e+01  9.9002026994445146e+01  9.5446516849195774e+01  9.3894415155098415e+01  9.0070926298393644e+01  9.9035936774449596e+01  9.7849104465552628e+01  9.7520531769225116e+01  9.6640849247224978e+01  9.6048814806975528e+01  9.5045395836270501e+01  9.6132627296651620e+01  9.6416852449888438e+01  4.0000000000000000e+01  7.0126205452234004e+01  4.0000000000000000e+01  4.0000000000000000e+01  4.0000000000000000e+01  6.5632547600656267e+01  6.6798243539352981e+01  4.0000000000000000e+01  4.0000000000000000e+01  8.2297574619753036e+01  9.8765647442087925e+01  9.9463199891687253e+01  9.9186864616066018e+01  9.9168072286843881e+01  9.8284802761851068e+01  3.9999999999999993e+01  6.2197017855437849e+01  6.0549190562752329e+01  6.2627964581095377e+01  4.0000000000000000e+01  4.0000000000000000e+01  6.0198518389581743e+01  7.9867232514369420e+01  9.7421370241887928e+01  9.7708797570477685e+01  5.9075333381402970e+01  5.9574922566941353e+01  7.7650239462209129e+01  7.7807707900314526e+01  7.6879119283590953e+01  8.0535554617600496e+01  9.5651183895952599e+01  8.9029050731501457e+01  9.6566987291246747e+01  9.5489029339829429e+01  8.2087624432205118e+01  8.5483623487914883e+01  9.7467583753373546e+01  9.5248587725197680e+01  8.4507798588483809e+01  4.0000000000000000e+01  4.0000000000000000e+01  7.5105429046190423e+01  8.2725774633245166e+01  9.1083488385102868e+01  9.8851641141247043e+01  9.7677712644775283e+01  9.8566588782137316e+01  9.9233412621959701e+01  9.9478192916073169e+01  9.7592705405397510e+01  9.8442006912934588e+01  9.9140145636025295e+01  9.8442772994874019e+01  9.5771250328416357e+01  9.2984218939893267e+01  9.9186520676003894e+01  9.6308569072818528e+01  9.6204200012917752e+01  9.7561241827596291e+01  9.8643675740184264e+01  9.8376905812398704e+01  9.6033288125238244e+01  3.9999999999999993e+01  8.2611156843474319e+01  8.5229327153652576e+01  8.9776496752281119e+01  3.9999999999999993e+01  3.9999999999999993e+01  4.0000000000000000e+01  9.6401440598511243e+01  9.3542764222151391e+01  9.2848980226567974e+01  9.7227158599383060e+01  9.7603985800079371e+01  9.8036796516637963e+01  9.7817962621504250e+01  9.4648105824795948e+01  9.7417057215647773e+01  9.0064856629196683e+01  9.1295225204761849e+01  9.0468636373267941e+01  9.6975127205823782e+01  8.1587876119062159e+01  9.9865674388733154e+01  9.5739616718103022e+01  9.8702849932364074e+01  9.9852030960332470e+01  9.9979048523324636e+01  8.6766540579368893e+01  8.8446354570891756e+01  8.7917103412305437e+01  9.5268638864146070e+01  8.9235997825088134e+01  9.4741613643301079e+01  8.0144132030376184e+01  9.3794540395797966e+01  9.9014812578201855e+01  9.4978405312656591e+01  9.4862895423059612e+01  8.8770655117882015e+01  9.0736035287662290e+01  9.2911774695199256e+01  9.2767430409757750e+01  9.2986882306321149e+01  9.4901701766167577e+01  9.7986932852465870e+01  9.5494464135397436e+01  8.9899477622979688e+01  8.8551746496959254e+01  8.6907991425395068e+01  8.8794024798068790e+01  9.5977665445502979e+01  9.9372787373234658e+01  9.5885674418745310e+01  9.2523358529005293e+01  9.0212848723187022e+01  9.0928132510099232e+01  9.6441784082254472e+01  9.7308889228762510e+01  9.2468768419236682e+01  8.6046524262067052e+01  8.3022862121870958e+01  4.0000000000000007e+01  8.5525315680005917e+01  9.1297600143410079e+01  8.6247473481630450e+01  9.2096586323049621e+01  9.4154214019074772e+01  9.2368685552682635e+01  9.9218117885886457e+01  9.7599771247573813e+01  9.9199678793504361e+01  9.9121796572610464e+01  9.9282754010285515e+01  9.7989387060499169e+01  9.7849586807210756e+01  9.9301159973174123e+01  9.9343263900663715e+01  8.9990570395625127e+01  8.7911099262398082e+01  9.5647803976825202e+01  9.1553070753128125e+01  9.3864377673712980e+01  9.3707855650359505e+01  8.8027718229917767e+01  8.9200973099447623e+01  9.5198958890487660e+01  9.3380294995339668e+01  9.2951352816848726e+01  9.4552839736289741e+01  9.5308075171947351e+01  9.1006247284173398e+01  4.0000000000000000e+01  6.1046690046874154e+01  5.9460941005447083e+01  4.0000000000000000e+01  9.7674467185970698e+01  9.7820037072527711e+01  9.8943198980924564e+01  9.9354666185165271e+01  9.9757717019197059e+01  9.8889195706729069e+01  9.8288146179975172e+01  9.3286528299616748e+01  7.9080359791254565e+01  8.8712054075836008e+01  8.7953343378668720e+01  8.4324583396351827e+01  8.2998697639765808e+01  9.3319443744820973e+01  9.3331483753025779e+01  4.0000000000000000e+01  5.9860736083140729e+01  5.9911660045323337e+01  5.8586674564723474e+01  4.0000000000000000e+01  3.9999999999999993e+01  4.0000000000000000e+01  4.0000000000000000e+01  4.0000000000000000e+01  9.2494080675287705e+01  9.5502136636170249e+01  9.3716465084738260e+01  8.8650544661250123e+01  9.7720444248049390e+01  9.6126878478840510e+01  9.7849139626286401e+01  9.5763296030639793e+01  6.2633014987810917e+01  3.9999999999999993e+01  4.0000000000000000e+01  3.9999999999999993e+01  4.0000000000000000e+01  4.0000000000000007e+01  6.5079015035314413e+01  9.8617976880458855e+01  9.4276901802636061e+01  9.7811421593823511e+01  9.8531249544359724e+01  3.9999999999999993e+01  3.9999999999999993e+01  7.5911408463770925e+01  8.4224061394794077e+01  8.8045096590044778e+01  9.8813607795379809e+01  9.5902753892149249e+01  9.5514383791281304e+01  9.5599514558044774e+01  9.7904199894863055e+01  9.9178939807825472e+01  9.5319277628059524e+01  9.9415106908318435e+01  4.0000000000000007e+01  5.9639663010690484e+01  6.0628191239131368e+01  5.9429815962772082e+01  4.0000000000000000e+01  4.0000000000000000e+01  4.0000000000000000e+01  4.0000000000000000e+01  9.6522485993831950e+01  9.7880930429775162e+01  9.9065911717382065e+01  8.4772219572507225e+01  6.9728202458967999e+01  8.7999494061082700e+01  5.9791324213816516e+01  6.4853344618064327e+01  9.9248463630359169e+01  9.9614724594021610e+01  9.9633779786503581e+01  9.9781851859451564e+01  9.9738580098401613e+01  4.0000000000000000e+01  4.0000000000000000e+01  8.2942485567920102e+01  4.0000000000000000e+01  7.6396516941791319e+01  8.5306011563833934e+01  8.4896975689044226e+01  7.6352189249627813e+01  7.6879821641253827e+01  9.5161094912158788e+01  8.8671759945781517e+01  9.0442443930859199e+01  8.7009788637408946e+01  9.5923372131626991e+01  8.8953635047235750e+01  9.6674135053676565e+01  6.2985676016819809e+01  6.4561416349939336e+01  4.0000000000000000e+01  4.0000000000000000e+01  6.3505419312475667e+01  8.8288278965986933e+01  8.7015972424190949e+01  6.5942507362808399e+01  9.5261141245235834e+01  9.1032004579417219e+01  9.6252365843752571e+01  9.5627152178938019e+01  9.6287115332567595e+01  9.6631776647012643e+01  9.7302886078309456e+01  9.2478945524162782e+01  8.5292567847244797e+01  9.3187454158430427e+01  9.3516711078158409e+01  8.7515090929550439e+01  9.4966854756348624e+01  9.5726811823562045e+01  8.9751437006605798e+01  9.6916237609454143e+01  9.6597261145518431e+01  4.0000000000000000e+01  7.1792240646568587e+01  7.5956115910724762e+01  8.0974491731775345e+01  8.5251941945444486e+01  8.6641714944910902e+01  8.9481776221590039e+01  8.8548303350737626e+01  9.5166656305069935e+01  8.9133814056172469e+01  8.9134656110687814e+01  8.9128289326920424e+01  9.5118785288650756e+01  9.5094055504050985e+01  9.5280173155393740e+01  9.5749881475933677e+01  9.5797454228398990e+01  8.2172846694270561e+01  9.9480952574604188e+01  9.9374030415043904e+01  9.8212649619948891e+01  9.8264779336649056e+01  9.9066902375098110e+01  9.7602958768470955e+01  9.5432140794027987e+01  9.5505409007130410e+01  9.1506795699653708e+01  9.6593669461000559e+01  9.8081479789546236e+01  9.9936333439185120e+01  9.8390838464487160e+01  9.7597629238330811e+01  9.2873216923543680e+01  9.8943145582040984e+01  9.1641912965577902e+01  8.3107429069480247e+01  9.8137067420542735e+01  9.7957648077012024e+01  9.7900861053782990e+01  8.1888828396159155e+01  9.7374711985469517e+01  9.4624648423279353e+01  8.6326103375846046e+01  8.6936049322764177e+01  7.0145924512097480e+01  5.9864782914335677e+01  7.7673338218957440e+01  9.9126444252009918e+01  9.9825347653002083e+01  9.6298574090526984e+01  8.5347220730738570e+01  9.5131757323891904e+01  9.6022381329800169e+01  9.5036229165555895e+01  8.6334715009018822e+01  9.6333560645613900e+01  7.5261897108350013e+01  4.0000000000000000e+01  9.8920113041815640e+01  9.9416292507563398e+01  8.4052849986697169e+01  8.6814447818383485e