<?xml version="1.0"?>
<VTKFile type="UnstructuredGrid"  version="0.1"  >
<UnstructuredGrid>
<Piece  NumberOfPoints="17682" NumberOfCells="83930">
<Points>
<DataArray  type="Float64"  NumberOfComponents="3"  format="ascii">18.18413937052957 1.500863480860389 2.923404691430454  18.78912468828723 1.82753671352534 3.087296299843149  18.33687502126332 2.26687523141225 3.233792303906145  18.43116956929799 1.912541711476642 3.64713692556447  19.88937950134277 1.552579045295715 2.416471004486084  19.47913517084533 1.664677646442595 2.298889457975083  19.75497436523438 1.60300999879837 1.898122489452362  19.60699524012023 2.101872172638121 2.088792979512863  19.88283443450928 2.040204524993896 1.688026010990143  19.62056922912598 1.653440952301025 1.37977397441864  19.34473003473693 1.71510859994525 1.780540942941361  19.06889084034789 1.776776247589474 2.181307911464082  18.99025523670714 2.884090295581587 1.606994576452914  18.98893367321929 2.356984380198732 2.432052491514388  18.61486402886903 2.206271965187643 2.206048198868714  19.02957303852752 2.33043327158553 1.894151243958498  18.57554622704865 2.7599289891837 1.91889153136313  18.16083721739016 2.635767682785813 2.230788486273345  18.8583006582272 1.872933257014726 1.585938288111162  19.30541223291656 2.268765623941306 1.493384275435777  19.13413985261624 1.811265609370502 1.185171319588441  18.81898285640683 2.426590281010783 1.298781620605578  18.64771047610651 1.969090266439979 0.9905686647582427  17.7039909362793 2.721751928329468 3.685894966125488  18.03256511688232 3.080412030220032 3.139673948287964  17.93241407683473 2.67875980555764 2.958341726199417  18.09680080413818 2.87731945514679 3.615037441253662  17.63975524902344 2.92484450340271 3.21053147315979  17.57551956176758 3.127937078475952 2.735167980194092  18.32522394469362 2.834327332374962 2.887484201327591  17.86817838957887 2.881852380630883 2.482978233233719  18.48961067199707 3.032886981964111 3.544179916381836  18.4407901763916 3.757492065429688 1.037351012229919  18.47708170677712 3.188018421286495 0.9425256016003669  18.36186307672759 3.036812122239951 1.360105786322923  18.08713054656982 3.473513007164001 1.075284004211426  17.73347091674805 3.189533948898315 1.113216996192932  18.26956939697266 2.860912084579468 0.1048400029540062  18.93420148645635 2.577796580057326 0.8812014358830221  18.74513094688943 3.023707489127071 0.4383371049809039  18.66076469421387 2.783257007598877 0.1048400029540062  18.45863993653958 2.415001175509723 0.5477043338561245  19.05195999145508 2.705601930618286 0.1048400029540062  18.84983523378079 2.337346098529133 0.5477043338561245  19.10234404547565 1.155082979758103 1.117062984010641  19.28539324744098 1.308107474406083 1.50523295809931  19.5782995223999 1.274957984685898 1.198845982551575  19.43752002716064 1.500416457653046 0.9916040003299713  19.53602981567383 0.8964750170707703 1.017917990684509  19.2431235407149 0.9296245067909549 1.324304966232245  19.39525032043457 1.121933490037918 0.8106760084629059  19.25447082519531 1.347391963005066 0.6034340262413025  18.95021726575598 0.9627739965111395 1.63069194177998  19.23984988221829 2.183316133128437 1.050909830673952  19.52161502838135 1.884264469146729 1.015424489974976  19.72627925872803 2.02549147605896 1.24551248550415  19.83198928833008 2.397541999816895 1.111250996589661  19.6273250579834 2.256314992904663 0.8811630010604858  19.42266082763672 2.115087985992432 0.651075005531311  19.03518565187161 2.042089126216205 0.8208218351447769  18.49333000183105 0.09558500349521637 3.145654916763306  18.26111122177884 0.5430371684064375 3.749811521004717  18.81629926646943 0.5843651102164126 3.337528425997025  18.33873468618031 0.7982242421778025 3.03452980409688  18.1065159061281 1.245676407089024 3.638686408338291  18.66170395081868 1.287004348898999 3.226403313330599  19.1392685311078 1.073145216937609 3.529401935230745  18.58408048641721 1.031817275127634 3.941685030238436  18.02889244172662 0.9904893333176586 4.353968125246128  18.80117988586426 2.011250972747803 0.1048400029540062  18.95109065065091 1.658241114722522 0.7970013454997726  18.72444518098538 1.990170619593891 0.5477043338561245  19.11192035675049 2.063169479370117 0.3779575042426586  19.02782535552979 1.679321467876434 0.3541370145976543  19.33856582641602 1.731239974498749 0.6272545158863068  18.23563003540039 0.4575099945068359 1.116541028022766  18.08187429823144 0.8752274798759818 1.433443485710241  18.44167025575345 1.213300130473407 1.053554846390504  18.59292365057819 0.7101419955089877 1.373616484901373  18.2879145185845 1.631017615842553 1.370457304077979  18.43916791340923 1.127859480878134 1.690518942588848  18.79896387093125 1.465932131475559 1.310630303269111  17.92811856106248 1.292944965245128 1.750345943397716  19.13001901592011 0.5843651102164126 3.021015483682877  18.652454435631 0.7982242421778025 2.718016861782732  18.80704975128174 0.09558500349521637 2.829141974449158  19.12076950073242 0.09558500349521637 2.51262903213501  17.47178077697754 3.165196895599365 1.776800990104675  17.92893062638234 2.502594255980625 1.756728859974583  17.9471540670691 2.912650815842064 1.672002741233139  17.58440240617603 2.767308862387402 1.529735111890248  17.81630899718385 2.900482289192589 2.00379473818901  17.60262584686279 3.17736542224884 1.445008993148804  17.71524747606128 2.779477389036877 1.197943114934376  17.69702403537451 2.369420829175438 1.28266923367582  18.40427384674834 2.302428974612896 1.610678575515794  18.34363963604083 2.626755562378513 1.444831905064367  18.17236725574051 2.169255547807709 1.136618949217031  18.20400047302246 0.09558500349521637 5.193009853363037  18.11644645737454 0.5430371684064375 4.773488989304583  18.6755871520922 0.5179413751811071 4.918342501292607  18.40587520599365 0.09558500349521637 4.71410346031189  18.60774993896484 0.09558500349521637 4.235197067260742  18.31832119034573 0.5430371684064375 4.294582596253435  18.87350923503632 0.5843651102164126 3.882299501245743  18.55053997039795 0.09558500349521637 3.690425992012024  18.53537464141846 2.436081528663635 0.1048400029540062  18.92656993865967 2.358426451683044 0.1048400029540062  18.19074058532715 3.605962038040161 1.984985947608948  18.17578890135865 3.120864860412987 2.107887216941147  17.9621057510376 3.397747993469238 1.54910147190094  18.98439502716064 0.09558500349521637 3.284990906715393  19.47546005249023 0.09558500349521637 3.42432689666748  19.29811477661133 0.09558500349521637 2.968477964401245  17.98329671617358 2.615166456877453 0.6937546183149131  18.19059069642728 2.579312107669147 1.051892830475587  18.00152015686035 3.025223016738892 0.6090284995734692  18.49850470070519 1.534860606417301 1.965826927430899  18.04447788922632 1.96435632401547 1.990567214835531  19.58156967163086 0.4184334948658943 2.931753396987915  19.68767929077148 0.7412819862365723 2.43917989730835  19.40422439575195 0.4184334948658943 2.47590446472168  18.61508464813232 0.5702759921550751 0.8964420258998871  18.99453926086426 0.6830419898033142 0.6763430237770081  18.82112486848538 1.326066128121647 0.8334558442676254  18.97237826331012 0.8229079931572268 1.153517482778494  18.54655793831013 2.219027996834189 2.803100881497573  18.17248829395987 2.068315581823101 2.5770965888519  19.20645803217193 2.499589140787009 1.129034790992113  19.12450504302979 1.01521697640419 0.6398885250091553  19.41347391093964 0.9072136015870905 2.984290916269547  18.93590933065053 1.12107273354848 2.681292294369402  17.83126068115234 3.385579466819763 1.880893468856812  17.94406515340443 2.111307704594928 3.304649828777971  19.00955405305194 1.369775122050306 1.905999926622031  19.2373104095459 2.410344958305359 0.3779575042426586  19.10407968572785 1.424960732263541 2.855354923347413  19.37828506555969 1.259029116913023 2.310243904386216  18.62651510543873 1.638819864224931 2.552356301447268  18.44336986541748 0.6902830079197884 5.140913963317871  18.35581584976956 1.137735172831009 4.721393099259417  19.31894827826373 0.8520279913738559 2.034935919544165  19.68457984924316 0.8567209839820862 2.080286920070648  19.68148040771484 0.9721599817276001 1.721393942832947  19.37518562403137 1.374468114658537 1.951350927148514  19.31584883673541 0.9674669891193698 1.676042942306463  19.78542995452881 1.262369513511658 2.068932473659515  19.65102481842041 1.312800467014313 1.550583958625793  18.33020973205566 0.09558500349521637 2.126312971115112  18.73143482208252 0.2765474990010262 1.33024650812149  18.64021349890582 0.5291795000031779 1.878502456447546  18.28291988372803 0.2765474990010262 1.621426999568939  18.77872467041016 0.09558500349521637 1.835132479667664  19.22723960876465 0.09558500349521637 1.543951988220215  19.08872843726031 0.5291795000031779 1.587321965000097  18.12916414655907 0.694264984370172 1.938329457256414  18.25717455129262 0.7982242421778025 2.524858831272783  18.05612896579603 1.396904223052758 2.336875317414085  18.56717831814278 1.231818738685764 2.277048316605217  19.78852939605713 1.146930515766144 2.427825450897217  18.68823432922363 3.243066549301147 0.1048400029540062  19.04160499572754 0.09558500349521637 3.829761981964111  18.6299123168399 2.872501190080528 0.8559172897034603  19.0354933832442 0.5291795000031779 2.071660486957495  18.72548961639404 0.09558500349521637 2.319471001625061  19.17400455474854 0.09558500349521637 2.028290510177612  18.35517978668213 3.309202075004578 0.5710955075919628  19.38163471221924 0.4960300102829933 1.280934989452362  19.60875511169434 0.9343174993991852 1.369655966758728  19.45436000823975 0.5338724926114082 1.632672965526581  19.11088943481445 0.3893134966492653 1.110147505998611  19.45745944976807 0.4184334948658943 1.991565942764282  19.26528453826904 0.7897585034370422 0.8471305072307587  18.24224803392913 3.032564795641971 2.708982525879392  18.07602500915527 3.338025569915771 2.836127996444702  18.36868383696656 3.091940872070702 2.583938249484329  17.88313007354736 3.366949558258057 2.360076
[...]
<PointData  Scalars="p"> 
<DataArray  type="Float64"  Name="p"  format="ascii">9.0611273092188522e+00  9.0108045290703540e+00  9.0310309634309647e+00  9.0271978917583588e+00  8.9821586535208571e+00  8.9945842642841640e+00  8.9988705610201514e+00  8.9720863282460748e+00  8.9719637341699343e+00  9.0107627492889826e+00  9.0080955781991321e+00  9.0109966893506019e+00  8.9754680296603606e+00  8.9904295067500914e+00  9.0222746915125498e+00  8.9952249641063133e+00  9.0071061601803386e+00  9.0405885275050277e+00  9.0257622351326106e+00  8.9868608518593973e+00  9.0204532753175286e+00  9.0082479584506761e+00  9.0377565776811792e+00  9.0776386258164230e+00  9.0333164388432738e+00  9.0560037465694965e+00  9.0345534135986849e+00  9.0797490034479740e+00  9.0771105631847497e+00  9.0176103869066360e+00  9.0562097807888655e+00  8.9904909793897705e+00  8.9697854221858968e+00  8.9960295886443902e+00  9.0119279438086082e+00  9.0084814260356332e+00  9.0548768917563027e+00  9.0260876191965096e+00  8.9965413695088827e+00  8.9861685853624103e+00  9.0039858548834317e+00  9.0331355616670432e+00  8.9838614924964233e+00  9.0147507788033110e+00  9.0439525905633360e+00  9.0303067603594585e+00  9.0325394080109866e+00  9.0293327778416561e+00  9.0428408474795159e+00  9.0430168563126951e+00  9.0431548112314708e+00  9.0422144627106693e+00  9.0463195435776136e+00  8.9992500087522629e+00  9.0060416795371321e+00  8.9858969238361137e+00  8.9536993485352294e+00  8.9778601838365528e+00  8.9993629185190063e+00  9.0180993543860506e+00  9.0518920716986866e+00  9.0559261242257296e+00  9.0276909488628583e+00  9.0590807322274447e+00  9.0632186865791162e+00  9.0290158404457976e+00  8.9967679819855952e+00  9.0249297325550266e+00  9.0654176910218300e+00  9.0356844126691787e+00  9.0375167437379336e+00  9.0362831956036818e+00  9.0196583136950963e+00  9.0398159159813467e+00  9.0263138016276407e+00  9.0801709939322013e+00  9.0857630338041577e+00  9.0660023963352128e+00  9.0639064468246122e+00  9.0640187777489860e+00  9.0636598430486170e+00  9.0440057751778440e+00  9.0887913566683505e+00  9.0204420014305153e+00  9.0461149533849792e+00  9.0419353797629647e+00  9.0387520688650298e+00  9.0837177693329938e+00  9.0641148175634800e+00  9.0491075471071820e+00  9.0855735523382588e+00  9.0603543873954369e+00  9.0696884008865410e+00  9.0735491261712404e+00  9.0863720120493294e+00  9.0369613977556984e+00  9.0301617048668117e+00  9.0580798726521170e+00  9.0484303780436459e+00  9.0569922260473898e+00  8.9975735441080769e+00  9.0301887862622827e+00  9.0223388392775732e+00  9.0435130160896833e+00  9.0103822956378288e+00  9.0381739131422965e+00  9.0283367599284201e+00  9.0130265694311831e+00  8.9998824061508724e+00  9.0222019309941661e+00  9.0251763501654452e+00  9.0231543059388226e+00  9.0009129294511112e+00  9.0212816618805416e+00  9.0574842250670144e+00  9.0433687208341631e+00  9.0383363746084644e+00  9.0504088012998505e+00  9.0684707457087779e+00  9.0114740156447581e+00  9.0172946798640226e+00  9.0292788875180658e+00  9.0655800248018288e+00  9.0565519143206732e+00  9.0509780117780032e+00  9.0522824578676619e+00  9.0205656441557114e+00  9.0536089327283857e+00  8.9835039851254415e+00  9.0508985275567611e+00  9.0036257175497845e+00  9.0271391770457345e+00  9.0379875697498449e+00  9.0662485834675834e+00  9.0310890484630022e+00  8.9895473029722144e+00  9.0074641580868828e+00  9.0134312623110464e+00  9.0339979347278323e+00  9.0165590197676426e+00  9.0321817842374603e+00  9.0322256917503410e+00  9.0244472601481984e+00  9.0294175401463583e+00  9.0175136379176148e+00  9.0359626820102878e+00  9.0106327882373680e+00  9.0234978869497429e+00  9.0730902381984890e+00  9.0595729593735186e+00  9.0600522211520040e+00  9.0778727354403053e+00  9.0560661293849041e+00  9.0496971959470169e+00  9.0489958203185967e+00  9.0827187352071270e+00  9.0700501716366677e+00  9.0761846887844602e+00  9.0497708202044507e+00  9.0033095965214756e+00  8.9777670436045796e+00  9.0040345753797482e+00  9.0012833568868942e+00  9.0446983903850313e+00  9.0539636804733234e+00  9.0465705262919798e+00  8.9964382128403511e+00  9.0474809578823869e+00  9.0375162996203073e+00  9.0427397917744710e+00  9.0524133497679227e+00  9.0391903561595068e+00  9.0491369159925963e+00  9.0182330516649234e+00  9.0195900670718565e+00  9.0065422934808677e+00  9.0350941060690264e+00  9.0798958299676311e+00  9.0639980051377798e+00  9.0337477258265242e+00  9.4332622300737299e+00  9.4441763606295677e+00  9.4352766306206632e+00  9.4408733099295308e+00  9.4361692264422672e+00  9.4449743593716722e+00  9.4550294855910586e+00  9.4671084504579532e+00  9.4506696149512237e+00  9.4420314304017037e+00  9.6418645946472257e+00  9.6446789589201867e+00  9.6570176599262680e+00  9.6491991240052499e+00  9.6365886903867430e+00  9.6305815404432362e+00  9.6520942452465022e+00  9.6581194659123657e+00  9.6669458105396249e+00  9.6746744265608164e+00  9.3616096443355481e+00  9.3660129951575328e+00  9.3578224481764600e+00  9.3602423788424680e+00  9.3628288287384169e+00  9.3666399176767090e+00  9.3589360332209104e+00  9.3569189674097828e+00  9.3733244816224488e+00  9.3585487325890391e+00  9.4388835368590041e+00  9.4568019653751740e+00  9.4701675120651441e+00  9.4604020357715193e+00  9.4515210486697043e+00  9.4370326708791925e+00  9.4647628841659905e+00  9.4512945164777662e+00  9.4363485153627060e+00  9.4791704508836272e+00  9.4544152815653835e+00  9.4670691448071480e+00  9.4672189214166611e+00  9.4452767516417815e+00  9.4802892320967924e+00  9.4771449196062516e+00  9.4603260534686644e+00  9.2794581803588674e+00  9.2819159473550599e+00  9.2953492235809136e+00  9.2625616784371694e+00  9.2456702021345762e+00  9.2664643323851550e+00  9.2781606697102532e+00  9.3088870155489580e+00  9.2931416762947858e+00  9.2816590674847195e+00  9.6736765421473567e+00  9.6687903678579570e+00  9.6708240018718303e+00  9.6709304615064138e+00  9.6746787545320228e+00  9.6650780926420161e+00  9.6642186368399869e+00  9.6707166903528901e+00  9.6746495011035272e+00  9.6658528341549186e+00  9.5918211560998969e+00  9.5961431339704824e+00  9.5927334408613945e+00  9.5887691390424479e+00  9.5996085122493167e+00  9.5958426771827554e+00  9.6015210594615361e+00  9.6049123471995408e+00  9.6110990101478926e+00  9.5846581974039644e+00  9.5818735909049231e+00  9.5814549101332229e+00  9.5806000306697250e+00  9.5846435630498341e+00  9.5850701728207692e+00  9.5790341840353381e+00  9.5759959581085461e+00  9.5867971585954024e+00  9.5873565870684345e+00  9.5877756982988842e+00  9.5936062145826462e+00  9.5996562131367096e+00  9.5938042560421781e+00  9.6082849933874073e+00  9.5983229409533042e+00  9.6264246255586290e+00  9.6091040676131545e+00  9.6126334419348574e+00  9.6012382189416066e+00  9.5926682564250747e+00  9.3490992046404777e+00  9.3440270271755494e+00  9.3398756816975439e+00  9.3673365524545442e+00  9.3858849944339351e+00  9.3658362780364826e+00  9.3584054338724645e+00  9.3315368373745571e+00  9.3362317765360974e+00  9.3429534161921097e+00  9.5198879884677243e+00  9.5169422512817352e+00  9.5205917300178200e+00  9.5273668236104658e+00  9.5382380044707311e+00  9.5203359087794919e+00  9.5268784552493546e+00  9.5319573263803594e+00  9.5258214664080736e+00  9.5149649125610836e+00  9.4788547758413326e+00  9.4853394563922642e+00  9.4836816365362502e+00  9.4788572320262237e+00  9.4835153321847887e+00  9.4858605855996245e+00  9.4877848175480946e+00  9.4894140835623837e+00  9.4793773323552681e+00  9.4921147706605975e+00  9.4290575543632063e+00  9.4460616840146372e+00  9.4323998534804474e+00  9.4339022634279512e+00  9.4465526361927150e+00  9.4377647950974080e+00  9.4366468348069930e+00  9.4489749840161217e+00  9.4618736394117651e+00  9.4352366864586852e+00  9.6438225728772995e+00  9.6423714360965533e+00  9.6441912162481724e+00  9.6465277748080887e+00  9.6412001394751172e+00  9.6380888559349582e+00  9.6440087654136271e+00  9.6483930500353523e+00  9.6468205451936520e+00  9.6444819028223385e+00  9.6025396665929996e+00  9.6155835326912751e+00  9.6050104450417102e+00  9.6107891902649367e+00  9.6071782168143187e+00  9.6002649738716297e+00  9.6126665072383926e+00  9.5981761568435271e+00  9.6080041203049067e+00  9.6180046059223745e+00  9.5064766924968573e+00  9.5168881464913593e+00  9.5137729400788249e+00  9.5058589877226378e+00  9.5107633990792930e+00  9.5057233320142931e+00  9.5126897940222417e+00  9.5107411255289644e+00  9.5144508654745241e+00  9.5218875290231413e+00  9.4591191091102278e+00  9.4929931974051929e+00  9.4860482829956378e+00  9.4848608396038649e+00  9.4682380065446328e+00  9.4770561038143075e+00  9.4928691025987817e+00  9.5054750357376605e+00  9.5042580282746787e+00  9.5053619397735272e+00  9.3242858750340680e+00  9.3357411478230343e+00  9.3214062432670026e+00  9.3196962450762406e+00  9.3184749809700520e+00  9.3322880815586871e+00  9.3187002317719241e+00  9.3213064524906564e+00  9.3325428885377715e+00  9.3448031857551896e+00  9.6353776338096129e+00  9.6409646988963509e+00  9.6327812874526408e+00  9.6235092458850549e+00  9.6474784590141116e+00  9.6090236177102568e+00  9.6188449147938382e+00  9.6292475987749473e+00  9.6531250548295944e+00  9.6290295021076062e+00  9.6978303582679146e+00  9.7079685350960663e+00  9.7094723665993303e+00  9.6947144361600408e+00  9.7141545736695285e+00  9.7119952145442809e+00  9.7325858789388100e+00  9.7275770035618159e+00  9.6901453597481790e+00  9.7233974312714349e+00  9.5649023136446178e+00  9.5665108312932929e+00  9.5680448968427871e+00  9.5650355741993618e+00  9.5652298369168491e+00  9.5670324041097814e+00  9.5678802990337708e+00  9.5706901636575594e+00  9.5694899400011852e+00  9.5689195191483130e+00  9.5594577665237850e+00  9.5559647324043677e+00  9.5485166524423573e+00  9.5450607836999843e+00  9.5497389054378772e+00  9.5516474508753664e+00  9.5563393605979012e+00  9.5581164376198799e+00  9.5613612157879970e+00  9.5041180756605836e+00  9.4929266003514599e+00  9.5054390561739996e+00  9.5064516535990649e+00  9.5964839608713568e+00  9.6015474443950186e+00  9.5998731338142207e+00  9.6033302098751250e+00  9.5989493579778848e+00  9.5999403592123045e+00  9.6031289390588999e+00  9.6088585105613156e+00  9.6057258533760095e+00  9.6184244297018342e+00  9.6173496427081488e+00  9.6039847701968579e+00  9.6050262318065336e+00  9.6142408550399203e+00  9.6031734608969277e+00  9.6052330390955447e+00  9.6072045160501958e+00  9.4148969313519455e+00  9.4013388061078693e+00  9.4023703032727965e+00  9.4150791531533180e+00  9.4195277739740515e+00  9.4058511806011911e+00  9.5074068815864976e+00  9.5061737421702848e+00  9.5103484888070575e+00  9.5045867138221087e+00  9.5026137086768561e+00  9.5089798935606691e+00  9.5038686471470228e+00  9.5076484214862838e+00  9.5125957940819656e+00  9.5752104692873736e+00  9.5741978217664396e+00  9.5771530108926264e+00  9.5762952387044766e+00  9.5775130199938854e+00  9.5757759607968804e+00  9.5785047238453771e+00  9.5801366974473385e+00  9.5767695937717754e+00  9.5735289370677119e+00  9.5535202371831147e+00  9.5536518315438368e+00  9.5419815991061618e+00  9.5528192152950968e+00  9.5545245851493430e+00  9.5401571643567742e+00  9.5404746308523602e+00  9.5519763952980394e+00  9.4121479239959545e+00  9.4182919028798899e+00  9.4103352091488031e+00  9.4169967024573165e+00  9.4059909425162331e+00  9.4232292983872732e+00  9.4006453001779775e+00  9.4807261610684801e+00  9.4763282340846846e+00  9.4930839467350090e+00  9.4980833262179942e+00  9.4325957581748021e+00  9.4450338884541338e+00  9.4606907406673191e+00  9.4443143653293351e+00  9.4524801058602907e+00  9.4330178029247929e+00  9.4696371898447094e+00  9.4516965628722200e+00  9.4330518450328622e+00  9.3436514259466481e+00  9.3454397068842852e+00  9.3450687976253128e+00  9.3451089186877798e+00  9.3440031894695785e+00  9.3466457778715366e+00  9.3471658409822957e+00  9.3452275924947035e+00  9.3441203420126584e+00  9.3476296966288182e+00  9.3645010337477075e+00  9.3464910614723067e+00  9.3457669954743388e+00  9.3553837349080506e+00  9.3607528583028756e+00  9.3371713073695037e+00  9.3755327234225732e+00  9.5358944873373801e+00  9.5410684076225927e+00  9.5416563376621859e+00  9.5489742565613582e+00  9.5591241778003138e+00  9.5545502932533228e+00  9.5492985279196034e+00  9.5298795315071434e+00  9.5420661953894506e+00  9.5383303937266728e+00  9.5369382440254018e+00  9.5428829492416689e+00  9.5440917728439452e+00  9.5451050016317733e+00  9.6423767143507852e+00  9.6448873445045553e+00  9.6433512534817130e+00  9.6487903881048389e+00  9.6358153840662748e+00  9.6376785263296263e+00  9.6296937921890144e+00  9.6321555321021357e+00  9.6332906998111945e+00  9.6551698353048998e+00  9.6826968127472028e+00  9.6814229335492197e+00  9.6929860219152157e+00  9.6918261103581091e+00  9.6920341134502408e+00  9.6936907755089070e+00  9.6925101208390529e+00  9.6825067009213264e+00  9.6388712945106789e+00  9.6422685873373606e+00  9.6359599536138916e+00  9.6352577337674337e+00  9.6414685750932883e+00  9.6374584691837075e+00  9.6323525848558678e+00  9.6389347406749994e+00  9.6440621532381421e+00  9.3448881830639117e+00  9.3272417840644817e+00  9.3283645847825127e+00  9.3237286368761190e+00  9.3419684730248669e+00  9.3581080946126978e+00  9.4991481384919858e+00  9.4884829615843262e+00  9.4982554878039913e+00  9.4928141266449444e+00  9.4873407014343485e+00  9.4747229025802397e+00  9.4829116185661650e+00  9.4897949277201654e+00  9.4948938416185449e+00  9.4998169803114809e+00  9.4416763812128544e+00  9.4672539143460472e+00  9.4617187204821924e+00  9.4532553523540876e+00  9.4486613124541137e+00  9.4702625504296858e+00  9.4614272786783591e+00  9.4570508362760783e+00  9.4765843003327017e+00  9.5778961199372503e+00  9.5669065367585606e+00  9.5717888056504279e+00  9.5764496412406910e+00  9.5702223936052420e+00  9.5657986875622942e+00  9.5706796898638444e+00  9.5773406422521568e+00  9.5724758708653752e+00  9.5622991880280868e+00  9.6038122518787237e+00  9.6076813014319722e+00  9.6118302226055761e+00  9.6129773317096436e+00  9.5994510406007798e+00  9.5959087506695493e+00  9.6091088983526287e+00  9.6221101160627551e+00  9.6204797632219776e+00  9.6190251710299037e+00  9.4977967491835056e+00  9.5051830483893962e+00  9.5131919705439092e+00  9.4944672196364124e+00  9.4885632826737734e+00  9.5230175431369233e+00  9.5028906121418544e+00  9.5105347903118531e+00  9.5309453158314348e+00  9.5166773302591476e+00  9.4465950443104703e+00  9.4621618568833679e+00  9.4706662358135230e+00  9.4553706317597932e+00  9.4622481545913679e+00  9.4545054057521405e+00  9.4775629993752428e+00  9.4699492563939582e+00  9.4618580877512688e+00  9.4660977175341046e+00  9.5365203839186439e+00  9.5282288007515490e+00  9.5288289332739797e+00  9.5363988263170665e+00  9.5289082191140526e+00  9.5292759651656542e+00  9.5200591201090603e+00  9.5182113702688156e+00  9.5158611222779559e+00  9.5389758732867360e+00  9.5601152587409697e+00  9.5577610320710900e+00  9.5592027091087957e+00  9.5576692265487555e+00  9.5586106586545174e+00  9.5579847255546415e+00  9.5567301531117561e+00  9.5528572469759592e+00  9.5545088010568051e+00  9.5571642394346412e+00  9.4854260792860465e+00  9.4989476117293883e+00  9.4894795284607483e+00  9.4962161235914326e+00  9.4957373363262221e+00  9.5042020918288994e+00  9.5002407385617627e+00  9.5044179676800429e+00  9.4934248285675924e+00  9.6213649944122164e+00  9.6364108917480422e+00  9.6233395339180898e+00  9.6362531681364256e+00  9.6346642250570280e+00  9.6475523656324498e+00  9.6484115392157346e+00  9.6509829962048350e+00  9.6396489497346565e+00  9.6271387394529313e+00  9.4226140014110644e+00  9.4382081791461534e+00  9.4320801625389574e+00  9.4093286267808036e+00  9.4138033646823089e+00  9.4270506398308562e+00  9.4191027126580256e+00  9.6345621383001738e+00  9.6563473967162849e+00  9.6439712981526906e+00  9.6552286909186016e+00  9.6487492565724082e+00  9.6745272452733655e+00  9.6617894102291402e+00  9.6695709946905435e+00  9.6641989068503804e+00  9.6500830350372357e+00  9.5271292962453060e+00  9.5272460063490243e+00  9.5298368958261435e+00  9.5223754903361861e+00  9.5181613251516914e+00  9.5233642791717621e+00  9.5257210154583749e+00  9.5321724812273114e+00  9.5295933048807271e+00  9.5284869776590622e+00  9.5057578930621425e+00  9.5078184819524072e+00  9.5057971922658258e+00  9.5020943774126572e+00  9.5086753469886443e+00  9.5106573396950438e+00  9.5115278144664099e+00  9.5128731568636891e+00  9.4986272037191704e+00  9.5147645009950192e+00  9.5538704093902940e+00  9.5550388693194925e+00  9.5567554159738926e+00  9.5604350820002715e+00  9.5581477584870100e+00  9.5582924737947383e+00  9.5571598031219462e+00  9.5566673262063038e+00  9.5562211426504611e+00  9.5689403029582500e+00  9.5657392922930331e+00  9.5661229449443503e+00  9.5679375526086705e+00  9.4322099654395171e+00  9.4299947041392418e+00  9.4371607012795860e+00  9.4257286540134171e+00  9.4271172826634917e+00  9.4189680340256441e+00  9.4174359403280121e+00  9.4175443683400282e+00  9.4290307897157142e+00  9.4420060669858756e+00  9.5631943336775596e+00  9.5827090134591160e+00  9.5698430526529936e+00  9.5772787651350662e+00  9.5764917415634390e+00  9.5906059606255063e+00  9.5823720784253332e+00  9.5890664508589989e+00  9.5896408095854433e+00  9.5750861687735824e+00  9.5722954664232383e+00  9.5785011793509511e+00  9.5770172171631902e+00  9.5739062751968547e+00  9.5751735277600023e+00  9.5797787788055047e+00  9.5783138638628991e+00  9.5809395994231430e+00  9.5829009684926376e+00  9.6696291850440996e+00  9.6519251548639300e+00  9.6617047533227822e+00  9.6575747357368353e+00  9.6579599628851405e+00  9.6499794103805847e+00  9.6503971315539339e+00  9.6508968814186780e+00  9.6525605777869785e+00  9.5562136597595018e+00  9.5595720430282203e+00  9.5552520780998726e+00  9.5542889738623771e+00  9.5556464757590582e+00  9.6722207636254893e+00  9.6709701018503154e+00  9.6729187784711606e+00  9.6645445381580402e+00  9.6515084163112359e+00  9.6596970711990497e+00  9.6625001094071461e+00  9.5579578985848439e+00  9.5695188065380208e+00  9.5723887965964582e+00  9.5687018543150835e+00  9.5577124434383371e+00  9.5725715291338300e+00  9.5872487646312248e+00  9.5820065573005415e+00  9.5771620300519871e+00  9.4308368704769698e+00  9.4277590901841073e+00  9.4311271730640804e+00  9.4180641162242136e+00  9.4326201573580661e+00  9.4189589872712478e+00  9.4270620267098320e+00  9.4189870967625353e+00  9.4235122411051666e+00  9.4239990610939728e+00  9.4302678797055766e+00  9.4311408718967922e+00  9.4284033218358392e+00  9.4224245827324964e+00  9.4321948746684345e+00  9.4334146996947492e+00  9.4193626736182079e+00  9.5192839119706658e+00  9.5216208478115778e+00  9.5199776542472758e+00  9.5184291195282977e+00  9.5233162688624944e+00  9.5165897333713847e+00  9.5290054428474988e+00  9.5137275112893551e+00  9.5164448578256327e+00  9.5178714415150623e+00  9.5834939764690379e+00  9.5855978926351284e+00  9.5856117785988637e+00  9.5841673521022557e+00  9.5914403110368305e+00  9.5942648699181348e+00  9.5841966406309762e+00  9.5613763547471589e+00  9.5704537692868605e+00  9.5681343787973905e+00  9.5733093602834174e+00  9.5566391724291204e+00  9.5615641383197385e+00  9.6205084315493945e+00  9.6407037193189371e+00  9.6262787518253319e+00  9.6304078096132066e+00  9.6386511557176409e+00  9.6587701302065341e+00  9.6481586193578295e+00  9.6386256870456712e+00  9.6331072939438620e+00  9.3965876755013742e+00  9.3920640028920452e+00  9.3829540819708974e+00  9.3835975659542843e+00  9.4079193210793584e+00  9.3715248113840506e+00  9.3961570990081746e+00  9.4189379208535176e+00  9.5263857733692738e+00  9.5433741064226858e+00  9.5337793918166760e+00  9.5288454536499589e+00  9.5284991915992965e+00  9.5398705482842097e+00  9.5315355719406281e+00  9.5425172759848245e+00  9.5539745302699508e+00  9.5339295365125807e+00  9.5192030532518395e+00  9.5100496614418208e+00  9.5219350548681163e+00  9.5222091096525112e+00  9.5120569368146946e+00  9.5058292806903211e+00  9.4436844469067349e+00  9.4443018787141035e+00  9.4327546648804113e+00  9.3434111439644880e+00  9.3492007933244548e+00  9.3452448141301758e+00  9