<?xml version="1.0"?>
<VTKFile type="UnstructuredGrid"  version="0.1"  >
<UnstructuredGrid>
<Piece  NumberOfPoints="5286" NumberOfCells="23831">
<Points>
<DataArray  type="Float64"  NumberOfComponents="3"  format="ascii">14.7354884868 32.2986576899 13.8566384091  14.9816713437 31.45044862375 13.8201940053  15.06913352405 31.77720204985 13.21499983095  15.6496546468 31.5123107915 13.995261998  15.4027785613 31.2557464098 12.5733612528  15.31531638095 30.9289929837 13.17855542715  15.98329968405 30.99085515145 13.35362341985  15.2278542006 30.6022395576 13.7837496015  14.0579473837 31.0013634601 14.412023302  14.64290079215 30.80180150885 14.09788645175  14.97084764975 31.0998259283 14.49004089465  14.39671793525 31.650010575 14.13433085555  14.72466479285 31.94803499445 14.52648529845  16.407608962 33.2030228343 12.8538966652  16.43340796615 32.0012668494 12.64683832315  15.90519376165 32.22938462205 12.713628959  16.4857148844 31.9644933637 13.49389112605  16.9358231665 32.97490506165 12.78710602935  17.464037371 32.746787289 12.7203153935  17.0139290889 31.73637559105 13.4271004902  15.4368813199 32.5343372185 14.8778746559  15.33236776025 31.56828838805 14.3308121287  15.08618490335 32.4164974542 14.3672565325  16.7358174487 29.1192971906 12.2579984645  16.9215206427 29.0834619793 13.1146293568  17.47183669005 28.53272940695 12.69215661035  17.68896188055 29.2653928169 12.7114266082  14.8666832083 29.3046955212 13.4541366766  15.3505450999 29.4031289664 13.99476721725  15.0937842792 29.02876934095 14.56924228765  14.72954811245 29.4748448562 14.5415909714  15.8344069915 29.5015624116 14.5353977579  15.8998146961 33.0688951528 13.9709025749  15.6512966287 32.1623207813 13.27213191385  16.23181775145 31.89742952295 14.0523940809  16.15371182905 33.13595899355001 13.41239962005  14.6691594582 30.53842571825 14.6682957588  16.5558924954 28.07055244215 12.9426346953  16.091500241 28.42668389235 12.4935326393  16.277203435 28.39084868105 13.3501635316  15.4471830333 27.7340705941 12.7290668141  15.9869535225 29.1761611446 13.71269846285  15.16626500305 28.64648458705 13.86255528505  16.2851122201 29.3104298011 13.3966981112  15.98183582465 29.8607683741 13.020874033  15.8012503285 29.2119963559 12.85606757055  15.04726870445 29.9534675394 13.61894313905  15.53113059605 30.0519009846 14.1595736797  14.426271717 30.0251834292 14.1657668932  15.63210799055 29.879320017 12.7261821725  16.56667511075 29.7866208517 12.12811306645  15.8126934867 30.5280920352 12.89098863495  16.3975327728 30.4539445128 11.9982276684  15.31765159145 32.68377642135 13.913770492  15.668348008 32.80161618565 14.4243886154  15.90015566705 30.8548454613 12.2857944606  15.1347308848 30.2802209655 13.0137489647  15.1569331208 28.51938305765 13.09160174535  16.64981912775 29.92263054185 13.1959420257  16.19911389915 30.11376315235 14.3346416724  18.1843792475 30.1054693994 12.1715207982  17.29095601015 30.2797069561 12.0848742333  17.4600983481 29.612383295 12.21475963135  17.37410002715 30.41571664625 13.15270319255  16.4806767898 30.58995420295 13.06605662765  15.2741240452 30.5494873553 14.86586497285  17.6458015421 29.5765480837 13.07139052365  16.84417808435 33.0337387915 13.4532714775  16.5902809514 32.96667495075 14.01177443235  17.2807472067 32.8644547487 14.0526462898  16.13209705455 32.92794939955 14.5012996089  17.37239228885 32.80562101885 13.38648084165  17.60584358875 32.1797512419 12.41337257655  17.7476498065 31.6127151948 12.1064297596  16.5752141839 31.4342308023 12.3398955062  17.15573530665 31.16933954395 13.12015767325  14.97243585365 29.98808714525 15.044119837  17.07259128965 31.0333298538 12.052328714  17.966014527 30.8590922971 12.1389752789  16.5394955584 35.1418264865 4.1179790523  17.5587952012 35.15789681845 3.9551957059  17.09830786215 34.6585538763 3.9792226858  17.0914806441 35.22381158825 4.382738874799999  16.99998289745 35.64116942865 4.0939520724  17.6434657298 35.30579669 4.6474986973  17.65029294785 34.74053897805 4.2439825083  17.55196798315 35.7231545304 4.3587118949  17.4604702365 36.1405123708 4.0699250925  17.6571201659 34.1752812661 3.8404663193  19.2691862896 31.5216880885 2.2483112603  19.93484217695 30.72152946975 3.1608311264  19.855927566 30.60804121595 2.7948948825  19.467563389 31.16574255395 3.33347085075  19.73646507755 31.0774750043 2.07567153595  20.2037438655 30.6332619201 1.9030318116  20.32320635395 30.16382813175 2.62225515815  19.6659404884 30.8097970194 4.4186304412  20.0543046654 30.2520956814 3.88005447295  20.4426688424 29.6943943434 3.3414785047  22.4652994496 29.3914099923 5.8539817566  23.19359083235 30.32954101705 5.62174455035  23.36467123255 29.66359563075 5.72443254805  23.1328646634 29.72591319365 5.066346547649999  23.8004298772 30.060416395 4.2787113387  23.86115604615 30.6640442184 4.8341093414  24.03223644635 29.9980988321 4.9367973391  24.2640430155 29.9357812692 5.5948833395  24.0929626153 30.6017266555 5.4921953418  23.9218822151 31.2676720418 5.3895073441  16.0536295173 35.1837784693 -0.6591004764  16.49953755805 35.3536939607 0.7277923226  17.1117852793 34.9833827286 0.15689059605  16.57734736215 35.43611992185 -0.6591004764  16.58806743445 34.73104127605 0.15689059605  15.9758197132 35.10135250815 0.7277923226  17.1225053516 34.2783040828 0.9728816685  16.51025763035 34.6486153149 1.54378339505  17.101065207 35.6884613744 -0.6591004764  15.8980099091 35.018926547 2.1146851216  26.2933296474 30.3323127828 6.1031969841  25.93317708455 30.38308349825 6.7250625472  26.0964664286 29.9591226406 7.012087205  26.3340858929 30.4116478412 7.24765734  25.5730245217 30.4338542137 7.3469281103  21.3420415534 38.2958338497 4.3120531276  20.8456354146 37.64480675835 4.1312474242  20.4199624359 37.9168510517 3.907632578999999  21.21858460775 38.23610476175 3.73167191945  21.0951276621 38.1763756738 3.1512907113  20.72217846895 37.5850776704 3.55086621605  20.29650549025 37.85712196375 3.32725137085  19.4978833184 37.5378682537 3.5032120304  19.9235562971 37.26582396035 3.7268268756  20.3492292758 36.993779667 3.9504417208  17.9792266128 35.0099073308 -0.6591004764  18.89258686595 35.0526288569 0.6156651904499999  18.32496750645 35.32386385105 0.6156651904499999  18.22007959715 34.80202373285 0.6156651904499999  18.6517338816 35.26051245485 -0.6591004764  18.0841145221 35.53174744899999 -0.6591004764  18.1890024314 36.0535875672 -0.6591004764  18.7566217909 35.78235257305 -0.6591004764  19.3242411504 35.5111175789 -0.6591004764  18.4609325815 34.5941401349 1.8904308573  20.0797135534 39.1958643923 9.052366102100001  20.66408803275 39.4375595408 7.67411344425  20.12838275415 39.4869170814 8.16973168925  20.467602975 38.70749986200001 8.313942817499999  20.27619861115 39.9259240711 8.41253672885  19.9318976964 38.75685740260001 8.8095610625  19.7840818394 38.3178504129 8.5667560229  20.319787118 38.2684928723 8.071137777899999  20.4726836689 40.6559837499 7.7727073556  20.8554923966 38.2191353317 7.5755195329  24.0040318089 26.0980398944 3.932886651  23.29370660035 26.58535559585 3.22208213645  23.84321409385 26.4946559417 3.0500780108  23.04363220345 26.0594820277 3.24835223855  22.083232598 26.020924161 2.5638178261  22.3333069949 26.54679772915 2.537547724  22.8828144884 26.456098075 2.36554359835  23.6823963788 26.891271989 2.1672693706  23.1328888853 26.98197164315 2.33927349625  22.5833813918 27.0726712973 2.5112776219  15.3814582796 37.8458138747 2.6021688954  15.5391191165 38.5454298346 1.864969717  15.2477822616 38.34729688435 2.30513477775  15.7735776688 38.49250919455 2.4290946575  16.165697058 39.1392045144 2.2560204196  15.9312385057 39.19212515445 1.6918954791  15.6399016508 38.9939922042 2.13206053985  15.1141062436 38.848779894 2.0081006601  15.4054430985 39.04691284425 1.56793559935  15.6967799534 39.2450457945 1.1277705386  23.7138462014 33.2986822067 10.368867735  24.12832368975 32.9193655625 9.449977530249999  24.5097356666 33.21596318765 10.3092723866  24.33808390325 33.57774497680001 9.613942470850001  24.9623216051 33.8568077469 8.859017206700001  24.92421315495 32.83664654345 9.390382181850001  24.7525613916 33.1984283326 8.695052266099999  25.13397336845 33.49502595775 9.55434712245  25.3056251318 33.1332441686 10.2496770382  24.5428011781 32.5400489183 8.5310873255  15.9565191227 31.4200525718 2.4753603466  15.3992285759 32.6768383439 2.5259287826  15.04913928715 32.2985428618 2.46101788295  15.41342830085 31.988165457 2.8872858185  15.592230109 31.7304299766 2.04909241105  15.94231939775 32.1087254587 2.1140033107  15.2279410953 32.0408073814 1.6228244755  15.57803038405 32.4191028635 1.68773537515  15.9281196728 32.7973983456 1.7526462748  14.870337479 32.5562783422 3.2992112904  22.2057491803 25.6242367656 -0.6591004764  23.33609128965 25.005542188 -0.6591004764  22.81578479285 25.4598957092 0.67452832735  22.5831577992 24.98308630425 -0.6591004764  22.95868267075 25.64669264935 -0.6591004764  23.7116161612 25.6691485331 -0.6591004764  23.19319341175 24.81874524785 0.67452832735  23.5687182833 25.48235159295 0.67452832735  22.9605664181 24.3419358429 -0.6591004764  23.4258204054 25.2955546528 2.0081571311  20.4198737784 29.6733509919 6.9693172074  20.6735921307 29.22751778625 5.7277428088  21.0529717372 29.5516356308 6.30812236785  20.6134093647 29.8408648137 6.18162071545  20.4800565444 29.06000396445 6.51543930075  20.8594361509 29.384121809 7.0958188598  21.2989985234 29.0948926261 7.2223205122  20.9196189169 28.77077478155 6.64194095315  20.5402393104 28.446656937 6.0615613941  20.806944951 30.0083786355 5.3939242235  16.9105141719 29.078731954 3.4455781416  17.32529567985 29.60852596725 3.8706570747  17.80278171465 29.05746676725 3.495901172  17.7811686845 29.0537830155 4.213960958  18.6518231971 29.028834077 4.9823437744  18.2175632226 29.5872607805 3.9209801051  18.19595019245 29.58357702875 4.6390398911  18.67343622725 29.03251782875 4.2642839884  18.6950492574 29.0362015805 3.5462242024  17.7400771878 30.1383199805 4.2957360078  25.2752672007 30.
[...]
<PointData  Vectors="u"> 
<DataArray  type="Float64"  Name="u"  NumberOfComponents="3" format="ascii">1.4110809022047141e+01 5.1626263326691308e+00 1.4816845694737390e+01  1.6182836365624336e+01 2.5593082958337297e+00 8.8712810979597272e+00  1.9122640705633067e+01 -1.2559209439923805e-01 1.0639100536640671e+01  1.6802023828117761e+01 2.7351236459000887e+00 6.2439647294554854e+00  2.1428953807539568e+01 -3.9170545428342285e+00 5.5601701057282478e+00  1.9542966064240407e+01 -9.2768198248208944e-01 4.9463181139856003e+00  1.9838386740291760e+01 3.7180092985483731e-01 3.3423404658702642e+00  1.7052220761173860e+01 3.5935029166961505e+00 3.0470173906793976e+00  9.2981474478125374e+00 5.6284292981153961e+00 1.0451492931195959e+01  1.3637080955412211e+01 4.6663512551202473e+00 6.1133784515467866e+00  1.2880542518223891e+01 6.5514958365505525e+00 4.9672400788268503e+00  1.2064666343597391e+01 6.3208576914885155e+00 1.3647743902920299e+01  8.6475431211620606e+00 7.2096387157048643e+00 8.9601234526253819e+00  1.2420805225205269e+01 -9.6332764745715871e-01 7.0387532542578359e+00  1.8245853017699289e+01 -3.3005588853745875e+00 6.8400929369585901e+00  1.9200163159906300e+01 -1.2500969765314867e+00 8.5038706136145041e+00  1.8292529798901711e+01 -2.0775836789894107e+00 7.7584374951995256e+00  1.3143922642443965e+01 -4.0923078151871639e+00 7.1264611103362352e+00  1.1130843413935835e+01 -6.8472356110342689e+00 8.4250821519843466e+00  1.9740022369315653e+01 -3.7728710777025656e+00 8.0456317630782053e+00  9.8639372516401860e+00 4.0232818939080808e+00 6.0007168408457119e+00  1.4675462991135038e+01 4.8468706583506096e+00 6.4053481621816264e+00  1.0693091645524873e+01 5.4232124544195779e+00 8.8773388957270249e+00  2.6454811200021030e+01 -2.4249309763974316e+00 -1.3832345484296372e+01  2.5088234707436865e+01 5.9230986643015582e+00 -1.0747985724262703e+01  2.9096968292386222e+01 4.7325478453288312e+00 -2.2304425762929995e+01  2.1266060936337652e+01 -4.5110193616655634e+00 -1.0699867444544982e+01  1.4143810300609895e+01 6.9085013406384288e+00 -4.6422082681334080e+00  1.6322692147050716e+01 1.0275028430548584e+01 -4.7722925485291094e+00  1.3086895613265009e+01 1.5944630201599738e+01 -6.4676702250820588e+00  1.0975759267171311e+01 1.2566322272161708e+01 -3.3986699804578770e+00  1.8689255900229316e+01 1.3163730426480079e+01 -4.7463367864236936e+00  1.0281086457581992e+01 1.9349039807222990e-01 8.3965692748358798e+00  1.7905861339420639e+01 8.5147546477842140e-01 9.5260996333955017e+00  1.7737890409729076e+01 6.1087368984203894e-01 6.3155412393289652e+00  1.2178900457730057e+01 -6.9830327447147111e-01 7.7516322607780124e+00  1.0854930775613266e+01 8.5657422962458050e+00 2.4861996430580269e+00  2.6751053354114205e+01 1.5154954660184391e+01 -1.9765673495044155e+01  2.4104399172391688e+01 8.9813213046926688e+00 -1.5957525482017511e+01  2.1942191114005329e+01 1.5202993592838734e+01 -1.4006447098495627e+01  1.7930082091081800e+01 1.8106896046599079e+01 -1.6904656005281993e+01  2.0039704292826883e+01 1.1049282626486397e+01 -6.9994977023220004e+00  1.4260950136167335e+01 1.5007665363720147e+01 -8.8202481435030666e+00  2.1554277706940258e+01 7.8977961709219606e+00 -6.7615635508061489e+00  2.0783716966642515e+01 2.0625262367630928e+00 -3.3724404952251050e+00  2.0340520024221775e+01 4.5074354505008909e+00 -8.5643889955414778e+00  1.5977117783324278e+01 4.6802974380839411e+00 -7.3773425305382512e-01  1.7354904413917527e+01 7.9301559884783979e+00 -1.1135234600465107e+00  1.0716901350494528e+01 7.0109879411614564e+00 2.1768364678741867e+00  2.0393827160606516e+01 -4.2365018618371481e-01 -3.6571214032668107e+00  2.1951357923065398e+01 -6.2037548607662130e+00 -8.0808957325099886e+00  2.0523304566322054e+01 -2.0545736040659404e+00 6.0013694543620877e-01  1.9719893182191360e+01 -8.2000386940573886e+00 -3.0518243504454285e+00  1.2221093601145045e+01 4.6538649801937764e+00 1.0835169735215164e+01  9.5596738982221670e+00 2.3760146043463330e+00 6.5732850334226667e+00  2.0708395938628087e+01 -6.2530872211066431e+00 9.3741707100818772e-01  1.8928386481675151e+01 -1.0273102242954311e+00 1.2397123650174671e+00  1.5750391615984602e+01 1.1521226198245227e+01 -1.0951736082734277e+01  2.2134415007633102e+01 1.8921291782816485e+00 -2.4919384884881466e+00  2.1024044959247870e+01 8.6324229330077813e+00 -1.3885954510287917e+00  8.3683639375794225e+00 -1.6055027499073145e+01 1.9352487884671499e+00  1.6723883709697656e+01 -1.2118513322194547e+01 -1.6893203382343172e+00  2.1974566105775065e+01 -1.1506164180080857e+01 -9.2878722946708496e+00  2.2297113637225589e+01 -2.0970590231512372e+00 4.4567135897598575e+00  2.0909071808518625e+01 -1.0711425799188186e+00 1.0636925593330098e+00  1.4561238225033154e+01 9.2743691026674107e+00 1.3504925821946476e-01  2.3569819801942220e+01 5.6606731812738287e-01 -2.6118256420687596e+00  1.3703212832323416e+01 -4.6562862354086985e+00 8.0585177974153570e+00  1.4748879880429843e+01 -3.3816324931411543e+00 7.5921598350541952e+00  1.7055350485611044e+01 -8.4018507419919057e+00 9.9572683018541728e+00  1.1718626222399008e+01 -1.0084195642928546e+00 6.8314666614233301e+00  1.2473466887675569e+01 -7.4370505670336140e+00 9.8991698291859080e+00  1.2288939359419897e+01 -7.3621680805502052e+00 9.2694058806852677e+00  1.0362296338150887e+01 -8.6292632664991071e+00 9.5659007896083175e+00  1.8488450909067474e+01 -5.8064041759443175e+00 4.2137837830799141e+00  1.9613914230358560e+01 -3.4601910845278856e+00 6.6521805751082947e+00  1.2007116148840479e+01 1.2590788029645022e+01 -2.3690398645615556e+00  1.5152482061250343e+01 -8.7774471207008435e+00 3.0930305507734546e+00  1.0055511385033325e+01 -9.8927783075253224e+00 9.9756434698259433e+00  6.0767848689138745e+01 2.2118624897482370e+01 1.8613464685021803e+01  6.0769469690211707e+01 2.4035474817785374e+01 2.4960336833943327e+01  6.0600289200438183e+01 2.0437334997479191e+01 1.6058008758271676e+01  6.5667314153324980e+01 2.6272549607748836e+01 1.8384825026865993e+01  6.5924200543326620e+01 2.2977626449415375e+01 2.2078995881584916e+01  6.9284438484833842e+01 3.7044596655798777e+01 3.7422650314988175e+01  6.0371828078743171e+01 2.4855487775217313e+01 2.2890398337157876e+01  7.0009910017302957e+01 3.5944376150613493e+01 4.2881661778238509e+01  6.2278625021086562e+01 2.8566612579916821e+01 3.9026981455346743e+01  5.6406457864267935e+01 1.8633258214408560e+01 1.5721045265693576e+01  3.5756906219527480e+01 -5.4841147318181411e+00 -1.0025187970974587e+01  2.9422695911778931e+01 -3.9892701080253299e+00 -2.4381565390327697e+00  2.8787716415685910e+01 -5.3242296153397151e+00 -5.0705775149512364e+00  3.5376356187130312e+01 -2.1219937493483210e+00 -1.9216346061570102e+00  2.8037775373708776e+01 -4.5849217279112944e+00 -1.1580557709752656e+01  2.1540456772808067e+01 -6.1357781144386072e+00 -1.1149938640717421e+01  2.3238335664139882e+01 -6.0853341217810151e+00 -5.2897056228842620e+00  3.7265099963895857e+01 3.6394982957310185e-01 7.3268328769469082e-01  3.0471473200482265e+01 -3.6103427785645557e+00 -9.5576194625753075e-01  2.3796741842098900e+01 -6.5561370804255219e+00 -2.6980255582655222e+00  2.1842158087314818e+01 4.0283913804043632e+00 2.5020727200420424e+01  1.3695808250377977e+01 1.6279014556332119e+00 2.1011811544721319e+01  1.2616800838318436e+01 3.3774502592353248e+00 2.4594242400397079e+01  1.3405936121805858e+01 3.2722176622047754e+00 1.6661169397126233e+01  8.5844405180382530e+00 2.2257831741898468e+00 1.3736615938402984e+01  9.8771055073683858e+00 2.6284313051951838e+00 1.6971949650146367e+01  9.1046199565788015e+00 3.1198431188290656e+00 1.7942082062834032e+01  9.1758654216784183e+00 2.8455871520079570e+00 2.2109009386651167e+01  9.5910747842981952e+00 1.9228837898809805e+00 1.9820394450792858e+01  1.0559689146120427e+01 2.5495621208233246e+00 1.8832792582834273e+01  5.9341194266001459e+01 2.2284870919814544e+01 6.5281907184376067e+00  6.3072715740988073e+01 9.8985797583024748e+00 8.3003005934386920e+00  8.6969308377440484e+01 -4.0904413243497711e-01 3.0229487569641003e+00  6.3340528104161763e+01 2.2229193809873546e+01 7.4767429585654934e+00  6.8785349088017924e+01 1.2826629724884187e+01 1.5291181151767484e+01  6.5161577739787248e+01 1.2189055280891528e+01 8.3282371801059600e+00  7.4114990892002055e+01 -7.1915412952230859e+00 -5.3109225455513300e+00  6.6206660244883750e+01 8.8420818483017314e+00 9.9879819598027062e+00  6.4765714750855281e+01 1.9014178063077238e+00 -5.1907229913303343e-01  6.7941614974907253e+01 1.0180347586577081e+01 1.2325575694389132e+01  1.1016616757741319e+01 -2.2527554505678951e+00 1.4571204944212905e+01  7.8010317965729392e+00 -1.7206419186178337e+00 1.3420669360982016e+01  7.6152805788883908e+00 -2.2948968462994230e+00 1.1929000758553000e+01  7.3961399229317806e+00 -2.1592693767418862e+00 1.0294312381863918e+01  4.0491536582153840e+00 -2.0135064603149107e+00 1.2190553070322096e+01  1.0873632100881931e+01 3.8852271442874354e+01 5.7314834827396865e+01  1.1433029000886817e+01 3.3291759245924830e+01 4.9381700692003960e+01  1.3147658135158773e+01 3.2499056783605049e+01 5.4840815300084415e+01  7.1917066212888479e+00 2.9136607085952352e+01 5.8805696894288751e+01  3.7282058124962543e+00 1.9961826524569933e+01 5.7188045630793070e+01  1.2509061191819962e+01 2.6831418487818627e+01 4.8527674851126037e+01  1.5304369927864496e+01 2.4640349137576866e+01 4.9964496083075183e+01  2.6917544186557365e+01 2.5142786000958711e+01 4.5901401055031123e+01  2.2229552276792674e+01 2.6643646304050748e+01 4.6784257077116187e+01  1.5261906177863173e+01 2.5696858154074210e+01 4.5258778158719288e+01  3.2403467636383894e+01 -2.0387594977844227e+01 -8.3131586145521617e+00  3.1936858014393469e+01 -2.4046459888036424e+00 4.8917124930450093e+00  3.9123710954614403e+01 -1.9052095556536466e+00 4.1598012435717964e+00  3.8078998508412944e+01 -8.3476507162675109e+00 -2.3628035067085857e+00  2.9195086544454643e+01 -6.0618563330155979e+00 -3.5143232773745292e-01  3.9286116327905027e+01 -9.0592833052075807e+00 -2.3850325303116242e+00  3.8825048506287779e+01 -1.7810786663731781e+00 -7.7112055194216145e-01  3.0673606580354846e+01 -3.0559294049337651e+00 -2.1762558242719828e-02  2.3311706552608452e+01 -4.0621124280952081e+00 1.4798667196114135e-01  4.1236249763177810e+01 2.8913483870342680e+00 8.1049665604793599e+00  -3.5623374397581678e+01 1.9202774531605149e+00 -4.4207337146214002e+01  -6.1615402728923577e+01 1.6036373487571495e+01 -1.6203628813228114e+01  -7.7837359220220179e+01 -1.5969869278658930e+01 -5.4642713382288029e+01  -5.4904915176130586e+01 4.6906543235600919e+00 -7.1751452987810156e+00  -3.3481269232037597e+01 -1.3670982140635665e+01 -3.8592006059624993e+01  -4.3671235596965730e+01 1.1748646517184280e+01 -5.4183000513910685e+01  -9.6741844138728425e+01 5.4329874126787871e+01 -1.0767956449852647e+02  -9.0690392127600376e+01 3.8898066574694688e+01 -1.5840061836573012e+01  -4.7924020323734112e+01 -9.2445255758002602e+00 -3.9338531435838085e+01  -4.6518885541927503e+01 3.6375471064141600e+01 8.4508026765241748e+00  5.7703994767379516e+00 5.4567807928813892e+00 -2.2207710269013541e+00  2.4684652526293713e+00 2.6745214553099546e+00 -2.5700533172498736e+00  4.0895458077404649e+00 2.7456911331456557e+00 -2.1467395924773047e+00  3.6074736386094947e-01 4.1100174309795374e+00 -4.2195516816932823e+00  -9.7914997969835955e+00 -1.5238612165184331e+00 -2.5737398304631220e+00  -3.4459958186366122e+00 -2.1889365984947671e+00 -2.4448622664727861e+00  -1.5292494450652772e-01 5.5736098694191738e-01 -2.0660163261085929e+00  3.7836763469767538e+00 1.2292320735498172e-02 -1.1781988595931139e+00  2.0332828486683781e+00 -9.4637961684782690e-01 -1.1126122591706631e+00  7.8477128512399519e-01 -2.6505538190967450e+00 -1.4741267147810768e+00  8.6735385061084330e+01 1.6172362881405803e+01 1.6550388336332251e+01  8.3879363072358345e+01 1.5606784372682526e+01 1.7131437628947818e+01  9.4808409016559040e+01 1.6360579703514759e+01 1.3250763663667442e+01  8.0412820021686102e+01 2.0239645137726281e+01 2.6425452447410088e+01  6.8052542904936757e+01 3.0039721409419808e+01 1.8634494558416979e+01  8.1909893656316882e+01 4.0364525208762061e+01 1.6761500973453149e+01  8.9513477560757011e+01 2.2886857164050607e+01 2.0945762920776190e+01  9.2485252992700225e+01 5.5670494809475510e+00 1.4166596736635956e+01  9.9978307475414738e+01 3.8928352987137180e+00 1.5373963379272951e+01  9.5724205579065398e+01 2.4923098450882264e+01 1.7782942741425444e+01  -3.8512162170819306e+00 1.0804455702212680e+01 -1.9198872421375599e+00  5.3737209367744643e-01 5.0196495473945157e+00 2.1551994293430385e+00  5.5828459433775623e-01 9.0994446295217060e+00 -3.4561405151787072e+00  2.6064370442046192e-01 8.0320021246302673e+00 2.6881999100509621e+00  2.5046135079421812e+00 6.9480880833801724e+00 6.4161450212143327e+00  2.6357420364710489e+00 4.7505043210564359e+00 1.8409228550227239e+00  2.7401161108417318e+00 4.8381875140214339e+00 6.7471455418140955e+00  2.9607243902178757e+00 6.8932265251269795e+00 2.1515485245345576e+00  4.2791301657901251e+00 7.4951241107786926e+00 -2.7847561009397075e+00  2.4634152074527944e+00 1.1292651802489870e+00 7.1488762762177771e+00  7.6537691211557771e+01 2.9626737255854336e+00 2.5533074007708034e+01  6.1491352720997270e+01 1.0398922368653578e+01 1.6070305832272574e+01  5.6053415895878544e+01 9.5225929023220370e+00 1.6725204743770991e+01  6.1342286478768301e+01 7.1675122591873519e+00 1.6358235548366650e+01  5.9572673978688037e+01 1.2950310318815088e+01 3.3979689134210801e+01  7.3642192530679509e+01 1.3170486067833131e+01 3.0743919588197592e+01  4.3794550018149067e+01 1.7166386918342670e+01 3.2045977421746230e+01  5.6599475730213264e+01 1.9501588261581507e+01 3.2596288855527767e+01  6.6637352340435285e+01 1.7160964966609612e+01 2.8467964310375439e+01  6.3017349366995923e+01 6.1914949993354496e+00 9.0029852377500923e+00  -4.7720067959245116e-01 9.2981786656145904e-01 3.4378004938779444e-01  2.4921309145804962e+00 3.9486175981254004e+00 -1.8251824002269482e-01  -4.4031706744218097e-03 3.1249749302042256e+00 -7.0116120193767884e-01  -6.3929860057346244e-01 2.7538288779019275e+00 -2.2439248088585623e-01  1.4748839389159940e+00 1.6447078382905582e+00 7.3799300479164734e-02  4.3493945079760117e+00 1.9091143148070167e+00 2.8640952677396025e-02  1.3528512690890699e+00 5.3967197746062086e+00 -1.8215262195652839e+00  3.2901115170735578e+00 3.2062966085655016e+00 -1.1029024807943582e+00  8.2093114392113430e-03 5.8323479618931797e+00 -4.7351653143869343e-01  1.8076922432425784e+00 5.7848429414847562e+00 -3.3370473530592712e+00  4.5297168402572709e+01 3.5657624962374093e+00 6.9917257371090678e+00  3.3064766284305207e+01 9.8358246998430343e-01 6.8979197879482914e+00  3.8643872691528451e+01 4.3420267388774816e+00 1.3914088922076703e+01  3.9168605198086624e+01 2.8316474502800468e+00 9.9691830333658675e+00  3.5865980977305611e+01 1.0247778985749050e+00 6.5446829733095893e+00  4.7730130319187012e+01 7.7662140219749629e+00 1.9787020850089685e+00  6.0364013964698941e+01 1.2358550088234386e+01 2.0548427627807961e+01  3.6796530409101642e+01 6.7527345667808216e+00 7.5358954857718246e+00  3.0551337825988433e+01 2.1612181712050669e+00 4.8894801402943857e+00  3.2475797592423042e+01 1.5340886681321493e+00 8.0466712707391981e+00  4.6843929848858068e+01 -3.4673663985592590e+01 -2.9007708094557824e+01  5.0747291223482456e+01 -2.0415209057841967e+01 -1.5641644199263222e+01  3.6663826435859875e+01 -2.0051262678181590e+01 -1.8934737298767363e+01  4.2607577117082975e+01 -1.6694130998869110e+01 -1.5380515662240292e+01  4.2869796062911490e+01 -1.0670329112009096e+01 -9.9892967155336319e+00  4.2115927353006036e+01 -1.3704618546886163e+01 -1.1762593913889821e+01  4.5500760316192221e+01 -1.0788481095701902e+01 -1.1099097964133772e+01  3.8521555872500720e+01 -1.2852313343798359e+01 -1.0559615432463147e+01  3.4324749468799375e+01 -1.4673447014288682e+01 -1.0688603008233155e+01  5.0531279472433212e+01 -1.0894544858996891e+01 -9.9817048285553405e+00  -4.1198717652043032e-01 1.7067004906107208e-01 1.2000241387569899e+01  1.6293667093287187e+00 -1.9972104537389235e+00 5.6223891633232395e+00  3.5267568943905703e+00 -1.8191519081801562e+00 7.1620887703296239e+00  3.4635326661431702e-02 -2.6825123025148132e+00 7.7053999504160533e+00  1.3138877701723572e+00 -3.1588650489481367e+00 5.3834694593700609e+00  2.4375909128859186e+00 -3.0285226629604436e+00 4.3627734385310664e+00  3.8284685182149412e+00 -2.8026405704188444e+00 5.2529352480503482e+00  5.9153434176436548e+00 -3.0848287711137341e+00 3.9039478765231448e+00  4.4542549890928189e+00 -3.0011841163498651e+00 3.7040965314408707e+00  3.4979143690777810e+00 -3.0487738033179137e+00 3.2426749626463387e+00  2.3305587199982195e+01 3.7580849604878122e+00 1.6824529554740362e+01  2.3817177863788004e+01 9.8526229088702610e+00 1.6073444508524837e+01  2.0467058502806609e+01 6.0368901972043592e+00 1.4127477991136654e+01  1.9685608387313508e+01 5.6898692156615036e+00 1.6954502618938690e+01  2.8805975510221906e+01 7.2762044851589645e+00 1.4078444540759529e+01  2.9177943278774194e+01 6.2904927025906270e+00 1.0160356903045313e+01  2.3552106178068851e+01 4.0812711556561592e+00 1.2029331373729679e+01  2.4055832708205092e+01 2.2651897277135751e+00 7.8602552621150776e+00  3.4645135365295232e+01 1.1869491615253223e+01 1.2107027507191715e+01  1.5573648989423610e+01 7.6698107211561295e+00 1.7663488763539110e+01  7.2029033346471554e+00 -8.7416064109966332e+00 -6.3632346361781345e+00  7.2453206423019436e+00 -5.8151523514430083e+00 1.3369431318819569e-01  8.4232173269013533e+00 -7.2005869748757387e+00 -5.2770719661190590e-01  1.1383454676120001e+01 -5.1729084476522331e+00 -3.8986540127922076e-01  4.6057786493137298e+00 -9.6527696507157721e+00 -1.9677728587781125e+00  3.4677921195471129e+00 -6.4255111419847974e+00 -1.3640083076284961e+00  1.7895050244210515e+00 -5.4478564475095030e+00 -3.0614253176961332e+00  5.4438119601267889e+00 -7.1409855205417401e+00 -5.9216666648947291e-01  3.7588878264116685e+00 -7.6850143509020459e+00 -9.2155478661528811e-01  1.1846417121424123e+01 -2.5767218171510025e+00 5.1896914302937294e+00  4.1364767691110863e+01 -1.7890883708647770e+01 -3.0041239398825986e+01  3.7761517116526086e+01 -9.4047199493396842e+00 -2.1820763323549958e+01  4.5110053514059395e+01 -3.6322704563710442e+00 -2.2311379064683631e+01  4.6747625424113671e+01 -8.2480882512526357e+00 -2.2757407211737050e+01  4.1812748382318212e+01 -1.0829281887781693e+01 -1.8467885396563130e+01  4.2886974682199607e+01 -1.6013122225218694e+01 -3.4085910328613828e+01  3.8328416014353778e+01 -1.9388177783710734e+01 -4.5126483195035725e+01  6.4706772465199080e+01 3.8787088222744739e+00 1.7493164126675329e+00  4.9491064533402145e+01 -2.1055776479947017e+00 -2.6409019846255153e+00  4.0629612343692393e+01 -6.1254393623066621e+00 -6.4648220528112477e+00  3.3197508356119849e+00 2.2162726684683808e+01 6.7384792359694980e+00  1.7059384684839372e+01 2.3504985705146204e+01 -1.2022080371442496e+00  -1.9747265861984369e+00 1.9603575172289704e+00 2.4013506350788313e-01  -1.1518831417377314e+01 2.6638428965315132e+01 -1.3921316987583937e+01  -6.2361533319879241e+00 3.8571175516431971e+01 -8.5970694727651829e+00  1.3234618913816540e+01 2.6065845876721117e+01 -5.0746756029069715e+00  -2.2941930223891789e+00 1.3436834017490131e+01 -1.3487401798995510e+01  -8.1787048511096261e-01 1.0026530403348005e+01 -5.6025509458813616e+00  1.3651553215620556e+01 1.7796931414412807e+01 -2.9658826988885965e+00  2.3491633357988210e+01 1.8195622571822764e+01 -6.2256970116142041e+00  6.2514635883611183e+00 -1.5317404829289780e+00 6.2801818796579728e-02  8.1398700228433931e+00 -2.7349267605746901e+00 -6.4099401145484913e-01  5.5506351534951737e+00 -2.4673406571880760e+00 -3.7036183001620249e-01  7.5597706745448532e+00 -4.9491946717828567e-01 -6.6222551719298051e-01  6.2836200387813035e+00 -3.1247686392108545e+00 2.1206764917775187e-01  4.9194564116503505e+00 -1.0142943175216348e+00 -5.3700831232090140e-01  5.5836176909217894e+00 -5.7213056876607569e+00 7.