<?xml version="1.0"?>
<VTKFile type="UnstructuredGrid"  version="0.1"  >
<UnstructuredGrid>
<Piece  NumberOfPoints="824" NumberOfCells="2957">
<Points>
<DataArray  type="Float64"  NumberOfComponents="3"  format="ascii">21.875109 29.693321 27.174175  23.248989 30.274828 26.663322  22.69297733705231 30.52345182579761 28.57738909344157  23.98835938662714 29.4754134603602 27.76430797303302  20.34217540441008 30.94176115095182 28.07369951504002  21.860861 30.978186 27.049639  20.548445 30.556133 27.165522  21.401131 20.9091 30.133209  21.824112 22.1346 30.577898  21.801973 20.832096 31.250626  23.52343056057761 20.84486543641665 30.10634614645468  12.865725 30.549925 31.58032  14.461902 30.250158 30.963356  14.478126 31.437176 31.173027  14.24962610243645 30.4537177766633 32.45074226159696  27.617762 21.916403 28.782112  27.282631 23.306063 28.261587  27.671703 22.244009 27.64992  26.48124165100097 22.24405384901802 29.04610192786879  16.277306 32.788628 34.270859  16.746464 31.885647 34.939095  16.67862486818228 31.28967246771138 33.33260411050047  17.69310615378565 32.34942627569119 34.08534203347786  21.426325 26.159191 28.186615  20.921843 27.15448 27.858118  20.629951 26.226082 28.911295  21.43650944182444 27.43567116581838 28.67323650471103  22.4640234392994 33.58014088754311 29.98313970488231  23.37087909792902 32.4823262364006 31.95363559435039  21.94083982636654 32.00002900060284 31.59040340472844  23.40427245760558 31.83577251959085 30.19039021136287  26.390989 28.178122 30.783493  26.639238 27.888723 29.536324  25.18293509859707 26.83799338363055 30.36774849311921  24.81014412577453 28.79609696063112 29.53874018650403  27.434017 31.666138 38.20916  28.88177741882668 30.90345436053992 36.86611627766306  28.59928463990128 30.36780908794309 38.11223092231792  27.40078342409683 29.8390277361579 37.1575307999409  16.339495 24.369007 37.184399  17.665119 23.152575 36.295567  16.959396 24.760969 35.786816  17.1538573182322 24.85139712126142 38.1247994343777  24.943087 16.428158 30.589571  23.33969254484892 17.59702249175462 29.94758088808981  24.07158336695067 17.33347211327211 31.49664030682112  24.43701060713767 18.0499959830163 29.63914912875719  20.083529 22.908091 23.372805  18.972717 22.242779 24.239134  20.605116 21.950623 24.719082  20.82372474614904 23.8997977273566 24.93837487058486  20.332865 25.906664 28.139894  21.292984 25.548697 27.792768  20.60103 24.676243 28.38765  20.32172089522129 24.77003999890606 27.12356244178297  21.43457 33.210121 26.641903  19.988356 32.844509 26.662355  20.97982 31.969378 27.009714  20.22946160894747 32.7034461898218 28.55547352925732  15.45027667643325 30.87226922128711 32.20934785004458  17.16636996688465 29.5387277954515 32.16741343098334  15.39793273015579 29.63402492507673 32.95770050242487  15.51664503768801 29.51240243249222 31.49252117657681  22.546513 28.543169 34.771179  23.455486 29.575907 35.144863  23.761312 28.266302 34.580429  22.90002603146367 29.90683221075128 34.13910914470747  22.54971845711432 25.25507065180886 27.63640434993533  21.67307997421269 25.0510584077233 26.60038945383993  22.42389871597792 25.86312947872469 26.92658931090241  23.27122093873649 24.94715475014414 26.45138435098715  21.18500028034713 23.18946487572833 26.51684424055109  20.01669115159952 23.70718108317766 27.84087994857252  20.55580445703207 22.05979806055716 28.01778208019283  21.34649040569433 23.5948805277475 28.4790753969981  23.388052 27.134073 34.710255  22.186497 27.19418 35.331532  21.24869549961091 27.41366631279011 34.37559927597795  23.75907725046784 24.09865467486338 28.34594192220942  25.65965244042168 23.00971202754564 27.65928639498247  25.54514359346204 23.56221287154397 29.95247579525726  24.65728848274576 21.89686420239166 29.09203810893623  21.373665 24.103277 32.36105  20.561634 24.380653 33.437489  21.162098 22.935331 33.293385  21.9287195752318 25.26733986823478 33.0354826143522  24.10898231793425 17.77653340008226 28.3291491051867  22.57332361094477 18.21810705336301 27.99533187569411  23.52124170795921 16.51857156678843 28.05408350928805  24.50757450064855 23.5233288849203 26.15173235454347  22.52561549823621 24.29916070631518 25.70058041126106  24.221521 24.656765 24.644863  22.77243409378585 22.99814612960967 24.63702781551172  20.35062682392347 34.08700172483024 27.78408483459883  22.37746799826448 34.60714495523698 27.33512217409289  22.30808498951459 32.12709633886734 28.11058583195292  27.081345 19.63493 27.814854  26.070816 18.519278 27.674543  25.1010362656241 19.722394717352 28.70872025854101  25.38361834744678 19.72109649987036 27.26344184730714  21.39200042067501 31.52696783169198 29.72767186399146  30.933367 28.905102 36.4692  30.74471003465774 31.17944344946643 37.87617394519285  31.878494 29.898037 36.960106  30.350819 30.027447 35.69685  27.09228711377352 27.19353457830614 34.50864685335147  27.22287503250133 28.93002809561713 34.20056208291102  25.9102252338236 28.4283230655492 34.79564945915479  26.95306131349064 27.97511258897926 35.85421416790797  31.624813 29.587404 39.990357  32.218891 28.723669 38.3512  32.313927 28.780687 39.990357  31.22742657267186 29.12824155450804 38.96479645777702  20.26271672251224 27.58096208097416 31.08849551774397  19.61559785969608 29.34163555917321 32.11787319269523  20.02494203475958 28.74611805686664 30.08844976752169  18.73056826337223 27.9746050996372 31.72258954979809  19.960484 19.001759 26.569563  21.033482 19.55559 26.23876  19.28295716406049 20.90219614773253 27.11605472381053  20.4170856484917 20.16711147367576 28.28780097987457  18.013052 21.292828 24.680773  17.87421 20.112299 25.265928  19.513592 20.579889 25.644588  17.38809404101743 20.68354780662237 26.09850085983121  14.812612045999 28.58212495821817 32.06605385530897  15.008504 28.511055 33.701683  16.22138329873959 27.70317828862451 32.73757911886337  22.72516223868609 22.53300545465709 27.11714410509956  21.46307067556443 20.96392815392478 26.96033044357883  21.79731428300554 21.0833722848286 28.8490581778784  20.353516 31.718361 35.469593  19.460121 32.555599 35.670551  19.07028491248961 32.12013601976455 34.35544065227887  19.3764321387504 30.96326595309137 35.66992884128575  23.68058876624728 21.22582453791609 32.46563084631103  21.392658 21.163748 32.71328  22.17009456140849 18.80845296123536 33.58611903216813  22.26635617477755 21.77380036401679 34.28595789092062  31.633657 27.799097 39.208897  30.37844786143867 27.96248732349785 38.74798472581774  31.562561 27.921495 38.625484  30.786503 27.514391 39.31176  23.55271336589006 22.62840061274047 30.89799669320838  18.60648536484311 31.44730964924047 30.96095201832724  17.813765 33.947807 30.492601  17.090532 32.119652 30.352371  17.88729429251845 33.10744385340945 32.48161297113071  20.467054 29.577154 36.370132  21.350832 28.440006 35.420532  19.78650624770456 27.519915442015 35.73332793233313  20.02156547520892 29.43722484500124 34.41249907380013  16.40106 36.124668 30.440819  16.08048013819194 37.77917544073343 32.31463994598835  16.78158550567839 35.09826590474599 32.46731937122073  18.044837160901 36.18282624157424 31.56961816882308  25.50474926658383 22.40531879374142 36.20192395830863  24.407585248771 22.4242121468199 34.35180073505563  23.16735758180104 23.35139009831832 36.26015119449998  25.00207989915916 24.22898439546671 35.32613601046921  22.79070172742587 23.72294892938057 29.76407983406021  21.335867 23.123896 29.959166  22.15225627223826 24.70444956370955 28.87343352976796  19.32403 25.899517 29.587393  19.38468125759868 25.46480735005838 27.76927694769388  18.488432 24.374235 28.976135  18.22794106827428 25.9635999260361 27.90002291284189  19.98092530555079 27.80180019601704 32.76897433607329  21.24431196027064 28.70615350532883 33.62486553442875  19.48592078119348 27.31801282337899 33.92954087351126  18.517498 26.697197 33.029488  17.766361 26.499708 32.147873  17.42531 26.126902 33.53878  17.86607405329318 27.59432116172689 32.69742544713813  20.141602 28.815201 38.100899  18.28613983456257 29.32103661127046 36.29329258015253  17.88398573801694 27.95158761985275 38.28765566739571  17.92793731970583 29.62563254115797 38.43521527661189  18.13765815756401 28.65078851265313 33.87879735080596  21.342699 24.607199 23.284008  22.868334 24.601282 23.771254  21.377769 22.56448 23.650848  18.835264 34.373158 29.432938  20.73104729416183 35.46467092235409 29.14497053243675  20.13802096934168 33.20293634983304 31.166004530784  27.474955 20.025904 29.008331  27.751125 20.835646 27.995598  26.25072717746327 21.06246881225636 28.06204369772088  26.60858444362128 20.66826679446244 29.46848809562379  27.141539 31.655117 33.119953  28.489817 31.517935 33.899002  28.016012 33.031471 33.25618  26.27745951014302 32.66471701097587 34.56681153895481  22.974773 25.341503 37.309647  20.83409410215008 26.0035701139239 36.52116756397727  21.12179897929041 24.1911145952646 37.90463663500257  21.909458 26.590141 37.988522  17.764559 25.33983 34.484207  16.640757 26.277685 35.063747  17.9047908230012 27.22047936636124 34.44103565418928  19.525869 24.413391 39.990357  18.19589 25.392372 39.990357  18.62762213696692 23.05633592696339 38.40983844849432  26.896973 28.130154 28.436594  24.99154851074274 27.59430086718082 28.06741722168752  26.254023 29.142382 29.531792  25.55980339550751 29.18624496194009 27.80596119869998  19.82615690917441 25.90307427251718 28.86693009089885  19.43204712908028 26.91955652444512 27.98807181920105  25.54022173450762 23.25763013396132 32.10824519032528  25.87476432621525 25.39784859224756 32.00221005671959  23.68841850520951 24.00263501913809 32.95210542343688  25.42382169675031 25.16153628450859 33.74810966967107  22.91731406386364 24.58589754287297 34.63614041607973  14.585887 29.775423 33.679451  15.94451 29.840433 34.566231  19.245615 28.711708 39.321007  18.372662 21.760374 28.260271  19.382612 21.824833 28.781565  19.33007 20.699919 28.913082  18.17154129245429 30.64076155160121 34.61300225756287  18.14426874715664 31.45611773892064 35.68386545439131  28
[...]
<PointData  Scalars="p"> 
<DataArray  type="Float64"  Name="p"  format="ascii">8.5484596731266418e+00  8.5336555135343382e+00  8.5406841004810001e+00  8.5345956906412095e+00  8.5607868218537888e+00  8.5445569207541539e+00  8.5601178107503930e+00  8.5594745478184375e+00  8.5428891424379572e+00  8.5312396744664589e+00  8.5348140713602714e+00  8.6777345432138251e+00  8.6326719736114033e+00  8.6500497016551918e+00  8.6485070343690538e+00  8.5278545196226379e+00  8.5351495583076797e+00  8.5371875078903940e+00  8.5270741450694079e+00  8.6352109160074928e+00  8.6051578654164267e+00  8.6126702145472898e+00  8.6044948870147255e+00  8.5623801622351916e+00  8.5695634068717901e+00  8.5682926952976857e+00  8.5585976916261792e+00  8.5389956722505644e+00  8.5231018370894116e+00  8.5409865431838146e+00  8.5328918454743761e+00  8.5106687299784820e+00  8.5240431255101523e+00  8.5197556444864180e+00  8.5284114407025484e+00  8.3945725483170719e+00  8.3841244720576995e+00  8.3766465494257147e+00  8.4026474619480300e+00  8.5426419331664878e+00  8.5328034414030807e+00  8.5454810210202456e+00  8.5433070250941494e+00  8.5236155223108572e+00  8.5417615203439059e+00  8.5123075890519040e+00  8.5329726246360185e+00  8.6446290856988970e+00  8.6561987179360145e+00  8.6194881208234211e+00  8.6182614495198617e+00  8.5937275092852516e+00  8.5783031575948421e+00  8.5889967380189240e+00  8.6031511200593691e+00  8.5423237046434064e+00  8.5564855886181999e+00  8.5502124425871742e+00  8.5575910929720784e+00  8.6298397834459077e+00  8.5935194481996859e+00  8.6159131281770360e+00  8.6128183686299078e+00  8.5240073653026176e+00  8.4986297185099957e+00  8.4998549920715334e+00  8.5158281764907642e+00  8.5649188542575967e+00  8.5871894784401679e+00  8.5691922222929211e+00  8.5694453576669041e+00  8.5996721934547011e+00  8.6051472389297246e+00  8.5997511525587207e+00  8.5771933625824417e+00  8.5091305133335151e+00  8.5276043868867557e+00  8.5369502063537368e+00  8.5507253956163272e+00  8.5444765598693380e+00  8.5222613854627163e+00  8.5365964696578960e+00  8.5231908776523255e+00  8.5252109214151375e+00  8.5133050809539537e+00  8.5234717731673779e+00  8.5466721950458506e+00  8.5671873813053701e+00  8.5510271541649381e+00  8.5643674420996216e+00  8.5870801127266976e+00  8.5774722710418612e+00  8.5954196383645698e+00  8.5536973742710192e+00  8.5339654362401678e+00  8.5401748916010440e+00  8.5357099222984836e+00  8.5405016928576227e+00  8.5357455171075145e+00  8.5451660444269670e+00  8.5502494628042118e+00  8.3590322714875747e+00  8.3374468937589779e+00  8.3117980607287620e+00  8.3746273659049582e+00  8.4385965354503547e+00  8.4391753089717856e+00  8.4537139622238744e+00  8.4222868645683118e+00  8.3082281038693697e+00  8.2961577473456867e+00  8.2951033068251459e+00  8.3240670494694982e+00  8.5582918192427204e+00  8.5652714379995203e+00  8.5658715550903128e+00  8.5727661522079561e+00  8.6338676887396595e+00  8.6016179254870533e+00  8.6379155850497860e+00  8.6071161443444151e+00  8.6827394158391478e+00  8.6951306780833786e+00  8.6418651338517822e+00  8.6930058148467264e+00  8.6139946878459419e+00  8.6055626535147169e+00  8.5920758039067042e+00  8.5743728243225288e+00  8.5937405085821883e+00  8.5720492974531091e+00  8.5667479379411162e+00  8.5831023641448283e+00  8.5825624430867489e+00  8.5763781942323796e+00  8.5047128769654901e+00  8.5110502231515159e+00  8.5035492274098701e+00  8.5027025670313154e+00  8.3283230092651461e+00  8.3501303261434892e+00  8.3336361392599336e+00  8.3470062993579575e+00  8.5247741249962754e+00  8.5828544884004678e+00  8.6032139478819829e+00  8.6031278291424425e+00  8.6094220889926181e+00  8.5626528702275095e+00  8.5440553496249247e+00  8.5513482437166335e+00  8.5587621860634080e+00  8.6548431266608503e+00  8.6858676128249535e+00  8.6546714706438692e+00  8.6249666272855912e+00  8.4551566069249748e+00  8.4832858396059656e+00  8.4965615793044620e+00  8.4703236431376627e+00  8.5445114820274011e+00  8.5575644287801484e+00  8.5583440885829027e+00  8.5867629172721447e+00  8.6058004609626906e+00  8.6121380895512001e+00  8.6095580993117675e+00  8.5546713417520994e+00  8.5417058040635041e+00  8.5540954579593027e+00  8.5650413690659803e+00  8.5799399153520763e+00  8.5713787869246207e+00  8.5767505816366665e+00  8.5628776746165673e+00  8.5753249999422518e+00  8.5659310915498406e+00  8.5844733694248472e+00  8.5747211046778649e+00  8.6290735202827928e+00  8.6022147850217596e+00  8.6196294181903728e+00  8.5742589842965575e+00  8.5557161527744050e+00  8.5665336495574120e+00  8.5200363251659823e+00  8.5324121252727778e+00  8.5361444413494496e+00  8.5167324794165324e+00  8.4447392474198359e+00  8.4231601482547074e+00  8.4368950912918201e+00  8.4490937351189856e+00  8.5147728414679218e+00  8.5337735332528801e+00  8.5227828960590006e+00  8.5330425794800888e+00  8.5511957047757026e+00  8.5625687412347116e+00  8.5658863875622657e+00  8.5335500558848043e+00  8.5437278496738056e+00  8.5302528350827078e+00  8.5296347418231449e+00  8.5356705713634344e+00  8.5260127576545894e+00  8.5295105668718154e+00  8.5897515612374651e+00  8.5927714149240124e+00  8.4942209707438252e+00  8.4937987193798659e+00  8.5047320835923248e+00  8.4772962537522520e+00  8.5058180470071445e+00  8.6286375418297112e+00  8.6001562983865245e+00  8.5685350874313446e+00  8.6393755251510314e+00  8.6156564833009170e+00  8.6236332577954364e+00  8.5851229673900313e+00  8.5905565611863164e+00  8.4199292584485104e+00  8.4113091815452972e+00  8.4057584346348726e+00  8.4019052743274436e+00  8.5500120854927104e+00  8.5590398409826385e+00  8.3688958507425131e+00  8.3797678814660834e+00  8.3990820313044683e+00  8.3702893470437605e+00  8.5264465112450800e+00  8.5090351615392237e+00  8.5226231887216120e+00  8.4978971361821589e+00  8.6339065585530399e+00  8.5199534550137184e+00  8.6172378576730146e+00  8.6351862271818014e+00  8.5947139367677554e+00  8.5506797159337999e+00  8.5494819947935277e+00  8.5544965624502947e+00  8.5576393747830082e+00  8.5453113830844014e+00  8.5613336728764082e+00  8.5623190113491212e+00  8.4523303462523938e+00  8.4790074285542723e+00  8.4366903888716962e+00  8.4607729018438782e+00  8.5144848888414657e+00  8.5225440595084745e+00  8.5346676744458225e+00  8.5156601625760082e+00  8.3426169478506882e+00  8.5579155175855668e+00  8.5659380529879225e+00  8.5793959379285170e+00  8.5773762274320049e+00  8.5435990300892843e+00  8.5573272446231847e+00  8.5552521234782066e+00  8.3248967356963863e+00  8.3002304555381272e+00  8.3321313684154461e+00  8.6250032297069925e+00  8.6020045722980640e+00  8.3519631487430477e+00  8.3903797072833459e+00  8.5820103117719118e+00  8.5831654960733523e+00  8.5932030676494033e+00  8.3648306685686649e+00  8.5290689830307684e+00  8.5300446621743049e+00  8.5439580302810310e+00  8.5240117639275628e+00  8.5287288075018246e+00  8.5571533941526798e+00  8.5804041864704814e+00  8.5758074455296391e+00  8.6564619951362936e+00  8.3876138442118595e+00  8.3799695785077102e+00  8.3707942807728379e+00  8.3905493972566756e+00  8.4665972216090566e+00  8.4608358970634310e+00  8.4382373563498909e+00  8.5782821939026093e+00  8.6098829066272877e+00  8.6010373048238424e+00  8.5659784409991904e+00  8.5881242199244987e+00  8.5752213853686605e+00  8.5728056746936883e+00  8.6063596841397025e+00  8.5422417508037558e+00  8.5129222943620508e+00  8.5052738937034302e+00  8.5180050920200543e+00  8.5199570341383399e+00  8.5134193435952294e+00  8.5274774302559564e+00  8.5494269921052943e+00  8.5556862491430934e+00  8.5103158238872858e+00  8.5281184307564999e+00  8.5297345912722129e+00  8.5583007366609625e+00  8.6461658569540596e+00  8.6306721109524958e+00  8.6319257610532905e+00  8.6598390453990799e+00  8.5672086878784910e+00  8.5424286254441899e+00  8.5068294349753497e+00  8.5281646544378304e+00  8.5245514736593844e+00  8.3869364492093776e+00  8.3793084239859699e+00  8.5352433752979113e+00  8.5456417781741081e+00  8.5352587663725750e+00  8.6121132636977276e+00  8.5620712548933611e+00  8.5866105971888409e+00  8.5655021291844822e+00  8.5685246753525171e+00  8.5769085143074282e+00  8.5836601560748669e+00  8.5509331936728117e+00  8.5378835855807136e+00  8.5430161190071274e+00  8.6017319260040903e+00  8.5835039695622264e+00  8.5951969861076964e+00  8.5598932075975238e+00  8.5372136960552432e+00  8.5526986736519905e+00  8.5669221961670861e+00  8.5848219781280122e+00  8.5751016299150571e+00  8.6144333196150189e+00  8.5924148987595288e+00  8.5094997003416868e+00  8.5195830937572126e+00  8.5084088976270724e+00  8.4878336461724313e+00  8.5739358793364033e+00  8.6845327125900393e+00  8.6827649357342409e+00  8.6410515177801237e+00  8.6356705242875993e+00  8.5852256195948158e+00  8.5955822093948875e+00  8.6059767008510928e+00  8.5917185436509413e+00  8.5392876338201571e+00  8.5373424622802325e+00  8.5426558238676584e+00  8.5250516342165898e+00  8.5950258664444750e+00  8.6078169894529548e+00  8.5967854976241309e+00  8.6129631804859059e+00  8.5269643567264772e+00  8.6058577122686444e+00  8.6200369948728319e+00  8.5900653330595382e+00  8.5987216864269964e+00  8.5804175424302489e+00  8.5712326257184124e+00  8.5657035103794890e+00  8.5658752133625278e+00  8.5156521087228363e+00  8.5020444469297765e+00  8.4994788189256152e+00  8.5155059987796982e+00  8.5107725948123818e+00  8.4776743608556959e+00  8.5686558408742535e+00  8.5573506886306738e+00  8.4984103699320581e+00  8.4924004577317245e+00  8.4882572070405917e+00  8.4313460015399286e+00  8.4653098013227641e+00  8.4202576104072229e+00  8.3666773116654269e+00  8.3695884398108920e+00  8.3549764659242367e+00  8.5137528634960784e+00  8.5190272651956764e+00  8.5632826789763108e+00  8.3572261734641433e+00  8.6193543700522284e+00  8.5950491939236269e+00  8.4826653544572856e+00  8.4553304547512944e+00  8.4631571840196838e+00  8.4936853692525141e+00  8.5664194831823703e+00  8.5630354940735991e+00  8.4338736366687179e+00  8.5551113031764636e+00  8.5502475490687857e+00  8.4584445202201088e+00  8.4693228415965418e+00  8.6456083358936908e+00  8.6688473979547336e+00  8.6148426471806747e+00  8.5831097124592119e+00  8.5200188808482906e+00  8.5253276047933806e+00  8.5323210751491043e+00  8.5354106655126785e+00  8.5292627596848192e+00  8.3954457737240737e+00  8.5825789866738447e+00  8.5752866229297382e+00  8.4985678716267170e+00  8.5175323675950132e+00  8.5173228124111926e+00  8.4241535270664922e+00  8.5303509096867920e+00  8.6880409364045992e+00  8.7479564459286490e+00  8.7158859172882668e+00  8.5699937460855420e+00  8.5829448815962177e+00  8.5692649264032070e+00  8.4659140411863572e+00  8.4773174504108315e+00  8.5396026260895219e+00  8.5654069410404023e+00  8.5267535623994863e+00  8.5226936023485393e+00  8.5140236154686715e+00  8.5331612255135774e+00  8.5493815036381218e+00  8.5413704034318787e+00  8.5513299104717255e+00  8.6525900092178709e+00  8.6358877699498393e+00  8.6228637378189337e+00  8.5777672146172375e+00  8.5631092509003324e+00  8.4922288668106685e+00  8.4775951669587961e+00  8.5225311329966029e+00  8.5237273592314935e+00  8.5590113606325904e+00  8.5580156781930086e+00  8.5367611137278185e+00  8.4450834198386353e+00  8.4226405498839938e+00  8.4318175507033839e+00  8.5550843554713119e+00  8.5481830748629388e+00  8.5371569580852462e+00  8.5638206513092321e+00  8.5808821975090979e+00  8.5896357087792499e+00  8.5891800199273565e+00  8.5194843190143583e+00  8.5080981881030677e+00  8.6389345986149433e+00  8.5950726262200927e+00  8.5851463869896047e+00  8.5813781107878100e+00  8.5716336280927745e+00  8.6352650216422582e+00  8.5290398762264950e+00  8.5285140231405769e+00  8.5276899989341519e+00  8.5640322655278514e+00  8.5535185919557097e+00  8.5624519013708174e+00  8.4239078106432590e+00  8.3945652404457327e+00  8.4061896459369638e+00  8.5793010290042382e+00  8.6688076852836478e+00  8.3660869387716623e+00  8.3608653184516601e+00  8.6038141194944142e+00  8.5755803610462991e+00  8.4801333727756596e+00  8.5701909467454289e+00  8.5389693938179807e+00  8.5335121704767456e+00  8.5343751101193757e+00  8.6067911523605609e+00  8.6127988649115164e+00  8.5974000273029301e+00  8.5938666806402217e+00  8.5488828333423417e+00  8.5940232195873776e+00  8.6006469548376909e+00  8.6172180867654014e+00  8.6168721055756308e+00  8.5674109452507139e+00  8.5941699121799680e+00  8.5802376706395034e+00  8.4100587693386739e+00  8.4100926099458970e+00  8.5991630589231622e+00  8.6297200420793487e+00  8.5923375466402074e+00  8.4653472175192537e+00  8.7003083666515177e+00  8.5291576089181795e+00  8.5259547938234732e+00  8.4540186653773688e+00  8.4907573865337937e+00  8.5399417874974493e+00  8.5128502731135818e+00  8.5526068262944754e+00  8.5614845340484642e+00  8.5668413837726671e+00  8.5546939126916257e+00  8.5467367916577999e+00  8.4240266990628889e+00  8.5196346599498902e+00  8.5311137938459627e+00  8.5180946302695162e+00  8.6684919959913724e+00  8.6123538024296806e+00  8.6023594271552515e+00  8.6473193710707150e+00  8.6286344912593584e+00  8.3104730655053380e+00  8.5816229770284309e+00  8.6158444734527571e+00  8.6322434125167486e+00  8.5792769839316172e+00  8.5935027094877157e+00  8.4771989673690982e+00  8.5151697548449441e+00  8.5247199186174480e+00  8.5234584012335901e+00  8.5251659803327353e+00  8.5681253349137734e+00  8.5592818379685038e+00  8.5879410831008229e+00  8.3763112106545599e+00  8.5441532431770266e+00  8.4703573590133274e+00  8.4735076370690408e+00  8.6838069994402503e+00  8.6477745435789615e+00  8.3615483944337967e+00  8.3716549435973207e+00  8.4946686886224612e+00  8.6049858549672997e+00  8.5201725326464768e+00  8.6705843376398555e+00  8.5941839300793426e+00  8.6031502015400552e+00  8.4796030573014978e+00  8.5372370919891249e+00  8.3621729354391974e+00  8.4633091232103794e+00  8.5405421967486763e+00  8.4838332184676286e+00  8.4914793244610163e+00  8.4763474835696222e+00  8.4020456436101636e+00  8.5859338584549345e+00  8.5992700150759127e+00  8.6421394448083326e+00  8.6426818149336953e+00  8.6173116660038200e+00  8.5829320515125413e+00  8.5074227506704201e+00  8.6843509992041792e+00  8.4872969319520539e+00  8.6049166979810359e+00  8.5998057474319012e+00  8.3142766360164106e+00  8.3069854775548606e+00  8.2712581661673532e+00  8.5469375121395839e+00  8.5512478053782868e+00  8.5314267389760161e+00  8.5433841879011787e+00  8.5061317963081855e+00  8.4933023917525254e+00  8.6020234996010192e+00  8.4612910652507978e+00  8.5973247130742898e+00  8.5353290678172780e+00  8.5514672716036433e+00  8.6310493064455365e+00  8.6267307433283769e+00  8.6103403991403979e+00  8.5527906540479020e+00  8.5407799837176679e+00  8.4910467685486459e+00  8.5796641682112149e+00  8.4592508725121469e+00  8.5872778961746636e+00  8.3774689126036890e+00  8.6507861792231573e+00  8.6853017037500173e+00  8.6756554221422242e+00  8.5701863963734848e+00  8.5496795154869041e+00  8.4982896958505840e+00  8.4028894537787835e+00  8.4246312262072909e+00  8.4024666721338495e+00  8.4016395047858889e+00  8.5273623114229640e+00  8.5261351471239699e+00  8.5676382852265558e+00  8.5610716209621227e+00  8.4806961158234593e+00  8.6164480963555832e+00  8.6180416414552514e+00  8.6095398353966566e+00  8.6029298957830136e+00  8.5949209423380282e+00  8.5961813236508231e+00  8.7334484019113958e+00  8.6747944344566434e+00  8.5467903427101888e+00  8.5437302334347844e+00  8.7527937853765732e+00  8.7212084698510317e+00  8.6162733450734095e+00  8.4730473175822549e+00  8.3191797408076624e+00  8.3854501329775530e+00  8.4740111017959574e+00  8.5357722439437875e+00  8.3514710092141513e+00  8.5042515444957765e+00  8.4457066869000208e+00  8.6489415744107045e+00  8.6232418616544262e+00  8.6058052917419054e+00  8.4584935217015058e+00  8.6011377802957281e+00  8.6572854855586598e+00  8.6868654029196577e+00  8.5819609336560472e+00  8.5628602602441592e+00  8.5377781250917391e+00  8.5518739930551284e+00  8.5591928317902894e+00  8.5211832118544439e+00  8.5542880357852518e+00  8.5224350276991299e+00  8.5138438197524078e+00  8.3373593409507425e+00  8.5202207762352362e+00  8.6104272918622566e+00  8.6257750571617287e+00  8.4895264047277443e+00  8.5392254466698336e+00  8.4700159223393570e+00  8.4364412971314628e+00  8.5965426122519411e+00  8.6414925702025993e+00  8.6670970152559281e+00  8.6932492351022255e+00  8.6674396184959246e+00  8.5891965382256483e+00  8.6113979182881604e+00  8.4710782956584545e+00  8.6117795638492449e+00  8.6369232521393897e+00  8.5355623670931902e+00  8.5312103382182247e+00  8.5347929271363512e+00  8.5331842498506134e+00  8.5356775548187152e+00  8.5493137791642546e+00  8.5418272809329121e+00  8.6044189849750161e+00  8.6445675557251178e+00  8.6613476590707457e+00  8.5584837370785145e+00  8.5523298835361228e+00  8.3462832230432884e+00  8.5194051872410057e+00  8.5872476873682242e+00  8.5935822003510918e+00  8.6221425436486410e+00  8.4762262075457180e+00  8.6341740198083947e+00  8.5012858731832317e+00  8.5344219833516863e+00  8.5556197516141967e+00  8.5695569523284636e+00  8.5555476731581486e+00  8.5408880940519918e+00  8.5383618217199935e+00  8.5778566173087718e+00  8.5217692692584031e+00  8.5376026636567719e+00  8.3961502240631010e+00  8.5417879895549174e+00  8.5379811128535650e+00  8.6726731065389178e+00  8.5230075400062031e+00  8.5705702206554832e+00  8.5506688142819964e+00  8.5343482368298123e+00  8.6173839703283903e+00  8.6244812156974735e+00  8.6455807797784541e+00  8.4769433138673165e+00  8.5416125559390466e+00  8.6197743763832335e+00  8.4865002449487577e+00  8.4789118939844350e+00  8.5453293551160048e+00  8.5370380777362218e+00  8.5371043793719021e+00  8.5455214994905777e+00  8.3958005266009597e+00  8.5260140751629052e+00  8.5260070152262823e+00  8.5260176239067178e+00  8.5265036521150179e+00  8.5316819659802654e+00  8.6107067587966348e+00  8.5859025010447514e+00  8.5454424517172196e+00  8.6765167290022500e+00  8.6557454428860030e+00  8.5408818469753722e+00  8.6484922530000432e+00  8.5347193268263251e+00  8.5974673205095975e+00  8.5741744893725542e+00  8.6190765598654444e+00  8.6185912118319354e+00  8.4253727359331378e+00  8.5364954124011962e+00  8.5595753742365641e+00  8.3403787570222434e+00  8.5639932841746980e+00  8.5651615034792599e+00  8.6318294178845836e+00  8.7011911842746699e+00  8.7203294933552389e+00  8.5082764073994390e+00  8.6541437481950787e+00  8.5004415695588964e+00  8.6074350584390462e+00  8.6816464770245627e+00  8.4939153671348162e+00  8.5081305804487126e+00  8.5226846642157454e+00  8.3360505538449399e+00  8.4055174868245217e+00  8.4541302707694701e+00  8.4814005546788227e+00  8.5197124023526314e+00  8.5133674597950844e+00  8.5431375268776613e+00  8.6545888456002071e+00  8.6373645005287845e+00  8.5196927585427584e+00  8.5606666240113700e+00  8.5278454215526125e+00  8.5427676233006764e+00  8.7005617541547711e+00  8.3834795418896775e+00  8.3598123440079402e+00  8.5512789314041822e+00  8.6476853390944850e+00  8.6228338044202442e+00  8.5079183389373281e+00  8.6237421379729877e+00  8.6244321487675890e+00  8.4986351225287251e+00  8.6167539633952721e+00  8.5618713466921896e+00  8.5699006968076912e+00  8.3452036512007748e+00  8.3431076449930632e+00  8.5448701808875658e+00  8.6817907273071420e+00  8.6588462716954808e+00  8.6721105376186038e+00  8.5023863110849440e+00  8.7325655672554134e+00  8.4990275460167730e+00  8.5289683009424717e+00  8.5269554639513725e+00  8.4958394480617052e+00  8.6454070371518217e+00  8.5029637670039033e+00  8.5128298332913008e+00  8.5265315890532616e+00  8.5063227173842346e+00  8.5227999645588621e+00  8.5373155861519834e+00  8.3784344785323857e+00  8.5028321763523138e+00  8.6416787272090740e+00  8.5191847555737930e+00  8.7280025879345402e+00  8.5054801805042928e+00  8.5843626196080329e+00  8.2619550029567836e+00  8.6999597317607531e+00  8.7208033535633902e+00  8.2509662049078436e+00  8.6044090715006565e+00  8.5311031661505918e+00  8.4427579047836456e+00  8.5798649918989955e+00  8.4841132436725992e+00  8.5188011307442402e+00  8.5086597192511739e+00  8.6162103978402573e+00  </DataArray> 
</PointData> 
</Piece>
</UnstructuredGrid>
</VTKFile>