<?xml version="1.0"?>
<VTKFile type="UnstructuredGrid"  version="0.1"  >
<UnstructuredGrid>
<Piece  NumberOfPoints="861" NumberOfCells="2880">
<Points>
<DataArray  type="Float64"  NumberOfComponents="3"  format="ascii">7.134238 38.033134 5.162254  5.471139 38.293011 6.257996  6.278216 36.958721 5.996462  6.55705123914489 37.43763158013925 7.155721224225892  10.527554 37.101593 5.012418  10.175575 36.475452 6.27863  8.553705225564389 37.51780019517781 5.746146460656225  9.1101152320465 35.60056369797466 4.686654333314665  8.156034 20.740074 1.55544  8.058113000000001 19.195162 1.844997  8.51022 20.331377 2.851391  6.689901012542164 19.71441067171363 2.573325181111242  10.327099 25.832195 7.801149  9.417182 24.226482 7.871381  9.199097 25.166599 6.939151  11.20273316973343 24.12296063450912 6.287174060556432  12.174349 36.687149 3.402411  13.054819 37.439819 2.723185  13.227704 35.750675 3.101428  11.9426724004209 36.27947408687604 1.744086016475644  9.418782 36.62027 2.76151  10.139003 36.660351 1.696656  10.716097 37.658413 2.579189  10.49146381434701 35.37273828322018 2.82856372696966  10.02991256033086 25.51280967127501 5.08797282303941  9.067150471649626 24.04363307613733 5.998936215734492  4.692637 30.583151 4.861573  3.597645 30.498425 3.925093  3.271394 31.200409 5.96299  3.7392 31.924501 4.6527  5.309221 28.433802 3.143211  3.788788 28.576895 3.646074  5.393256 28.362551 4.979815  4.583125 29.63793 3.774679  0.723676 22.247635 6.237782  1.035433 21.995855 4.719245  1.617396863766204 23.90825399866383 5.662740939954083  2.33580866482328 22.46104352038669 5.176941472232487  2.916744 34.092014 6.696283  3.064003 34.401306 5.170222  1.772542356220217 33.47702460672362 5.233058680193142  1.348408170655507 35.24965815797942 5.69069693769211  3.400465 32.449215 16.763197  4.800648 33.216667 16.499775  4.198258552881716 33.39421215672068 15.14291225398239  3.24898509940653 34.33486442475765 16.42106082231366  4.516026 35.888237 18.611467  3.509808 34.625431 19.140245  2.948680626065284 36.46734769150365 19.40666729323499  3.254995841415359 36.4830360273038 17.63665009741101  9.998944733981187 23.52680276241333 4.976270394940078  8.391193197789486 24.84237436628321 4.885845351147332  16.467451 36.838165 0.03180900000000003  15.058802 38.076004 0.03180900000000003  14.75228358371658 37.52210097763763 1.220625024170582  15.99179873801506 38.23747978778511 1.35526893362849  1.318116 28.796633 7.423093  2.304214 29.663908 6.663404  1.987873 28.078243 6.79968  1.443989443449543 29.67489401138662 5.519959937240876  2.058006 40.003617 18.939367  1.658614 40.003617 20.244114  0.8298 39.370419 19.70191  2.094449807866842 38.88109055929553 19.69564574016417  6.210875 22.979139 6.899174  7.187508 22.832134 7.868849  6.150725758812889 21.2106697593875 6.514745827047267  7.730035494617918 22.77925327767917 6.132855836571848  2.371933 40.003617 5.941247  3.420663 39.324146 5.545565  3.518383 40.003617 6.822994  2.868937018588673 38.40777353041463 7.086118923181436  4.301918388490042 38.76732505619694 8.142775428778121  5.60376 40.003617 9.540986999999999  4.827529 40.003617 7.914876  4.149047 40.003617 9.753643  1.198119920785469 33.69055522522897 3.730652810167439  1.62176526984662 31.76625787935345 4.654284379555587  2.840045 32.38364 3.48362  4.623353 37.956009 19.887455  3.820722 39.003403 19.38345  4.453475 37.855915 18.371744  3.386178217167082 37.84337071504968 20.00798768298544  1.55471591745691 37.60998374455253 20.10910395074165  0.65379 38.70351 18.381653  6.400694 39.279545 6.490054  5.443164956425464 38.02534619565261 7.538158496659907  5.660607195491386 38.93789623218091 7.889121603402454  9.815061999999999 38.669121 11.854831  8.745260217386583 37.18636942460312 10.91343837701522  9.359136085805602 38.51774938447072 10.21770314327276  10.269741 37.14492 11.633819  2.524228974944827 37.86811110861701 13.48982177907233  4.398735 37.943054 12.925835  3.232654277322181 37.60379873106396 11.66564182543271  3.433657 38.769642 12.510438  3.613894 39.147453 11.217586  4.33093764338707 37.43307901413506 10.37495012246891  2.811140826295371 38.39480187433625 9.454320485460709  10.764468 36.229954 9.460483  10.628813 35.333916 8.609537  11.479316 34.903507 10.013671  9.591999096146756 34.5502019965144 10.41159897394621  8.080991503902705 35.60890325527839 6.985471778119003  6.928006 28.616531 4.927098  6.38896 27.392107 4.863238  2.90877360633878 36.45961293831254 8.072398739649996  4.283804697233704 37.05254321136133 8.227361909889151  1.578519 26.796082 6.927712  0.02680700000000003 27.143703 5.938089  0.9284750000000001 27.481106 7.289287  1.10996529912293 27.76167133512863 5.925374901202198  13.19814404375542 33.02711569682192 1.810683667281568  14.740217 31.589647 1.212294  13.43524818148703 31.29104172414542 3.606030812482603  12.50340314408974 30.65607948441384 1.431192467216043  13.92093 38.12841 2.360177  14.022358 39.234661 0.878526  14.538574 39.131676 1.817542  4.225823 35.728775 7.436896  6.126804736996271 36.43724937713166 8.647707751480747  4.938836 35.103443 8.793277  9.984585115667512 33.04290307242977 5.137501854508343  11.34651025707172 31.04077451114279 5.38288769640782  10.66151962569877 32.64217152292181 6.576126582869676  10.44273598646105 31.36554558504761 6.803852099577376  2.542523 32.638454 7.035655  1.555327 32.322655 7.920712  2.020437 33.460739 8.317389  1.164582996718431 33.82683509192301 7.247827324432883  5.896748 35.755142 13.252295  6.086187 35.758133 14.73333  5.045902 37.145004 14.118255  4.821356119810141 35.50527216667835 15.17457355748417  2.832286 33.945087 11.258298  0.674466 33.19537 11.151496  2.19204 32.747021 12.263416  2.181517898003563 34.80176028044504 11.89307923269051  6.383238359021103 21.21022698577726 1.587732073852016  7.502049009252489 22.03923979647144 3.251350264234924  7.086077446803089 22.56190737530971 1.08809762202933  5.643719542999929 22.96341868804653 1.968314985165686  1.10698246789844 34.95990315436637 4.374347645364345  2.720999 34.158966 3.827008  5.452117 21.948353 0.03180900000000003  4.729296 23.380493 0.6177859999999999  4.001830980130862 22.1190256994023 2.351002585284326  3.729842 35.635014 20.622282  4.660664 36.82283 19.832218  3.965856445130194 37.13967431679739 20.13008836599521  3.47193 33.331932 4.42608  0.915312 30.211807 7.211191  0.611649 28.848803 7.186514  0.02680700000000003 30.000034 6.23957  7.069053270435346 38.83505048751886 8.633525061463988  6.449147 40.003617 8.213327  6.863288 40.003617 9.460395  3.031114 28.553274 5.949648  10.847799 25.409426 3.089368  11.069634 26.5986 3.046634  8.479767240999761 26.20405535168277 3.570546548263013  9.911683615842529 27.57739044977552 3.659979827992712  9.276771999999999 29.633856 6.452973  9.447265198675776 30.72019129133222 4.861583322947994  0.02680700000000003 34.163284 10.720107  0.715006 33.622974 9.317588000000001  0.02680700000000003 35.1875 9.859639  1.382802928583611 35.03903680886425 10.38870812650458  7.102233 21.593306 0.03180900000000003  6.34171 20.252893 0.03180900000000003  7.65037 20.240274 0.765467  10.05724484605858 22.83718180919691 6.768003955467544  9.272906311271747 22.41421037781668 5.396619120948992  12.295793 28.249306 1.240746  12.709311 28.714832 2.25056  12.981755 29.106102 0.907049  11.6402326289041 29.08522107047603 1.580661025386233  1.839134 31.26232 7.305225  0.02680700000000003 36.617828 4.388162  1.456166 36.597904 3.845937  1.371705106356638 37.10610418879917 6.129147011301793  5.805654 34.347828 15.781338  5.289114795471023 34.36018232845525 14.03206523408756  6.715104 39.334038 10.748785  8.384216 40.003617 10.190149  8.119088 38.862228 11.697617  7.117256435828892 37.46447633799789 10.40324398324236  6.513864 35.130177 13.829014  2.259838 33.728085 19.586102  1.6622 32.122162 18.904894  1.101594 33.057995 19.858515  1.260919906209859 33.30773815981784 18.38619064067759  4.465017 25.157251 5.156314  4.793251006797784 24.24592553600475 3.212454832762286  5.309578278597732 23.18174507700778 4.391025376185047  3.540473540943482 24.1259769904346 4.203984551205363  1.296752637030619 28.83213515915555 15.02304755513987  0.02680700000000003 29.338303 16.419537  1.465854670522593 28.10945790028404 16.61812587033208  1.235259782833672 29.80025376146078 16.36291976633194  13.9426 33.318897 4.480103  13.16398 34.238014 3.621917  1.522348 35.275826 3.172387  9.616786921401209 27.1172945860356 2.234381030044336  11.36724714926538 29.62053780723381 3.210965659978407  10.98104816025683 32.48957268993669 2.557131031018841  5.796734 24.785202 5.266568  5.811387901795912 25.85687376178508 3.555086220635032  6.975634008408499 24.13473452989113 4.021330427670075  7.506260917864576 20.77216038486835 7.179727785499439  5.589833 19.307783 6.116637  5.185543 20.32268 7.624914  3.300162 38.679321 17.240685  2.510439245385137 38.17603914202802 18.31143808008192  9.086622 32.832382 10.962858  8.472572302442066 33.4262614441977 10.5485138619584  10.68917046202244 33.33347849128401 9.896496263566513  0.02680700000000003 37.473919 21.217199  0.818134 36.748341 22.221983  2.462447826113686 38.14520302808795 21.69123070199086  15.367296 37.899124 2.674972  17.064995 37.417847 3.587028  15.797313 36.237038 3.203189  16.01147968028602 37.07794902644973 1.934461950905439  2.772461 34.255028 9.086269  3.763729 34.939243 9.168168  3.354006 34.797855 7.938902  2.008837749071533 35.6146526243058 9.302219864773726  9.643461 19.844364 5.051848  10.749404 20.288372 6.346437  10.472423 21.52408 5.462248  9.260546419363715 21.64375467353383 6.917721299800756  8.501679460816474 35.61694749344851 9.302524923529381  9.334579688154248 34.40087855923689 8.615662548607892  9.949278 31.568977 10.315589  10.338649 30.206455 9.375044000000001  12.12701514166898 32.33622631149052 8.488472885004738  12.60416630243161 31.63410638846124 10.67101810988541  7.186680863038651 19.58752019595937 4.676330926467408  8.040686882011357 21.40634885357933 5.094176384273847  9.968432441688313 30.32276291574801 1.4264654
[...]
<PointData  Vectors="u"> 
<DataArray  type="Float64"  Name="u"  NumberOfComponents="3" format="ascii">1.5309816454205938e+02 -8.2685024913093955e+01 -1.7581280011325586e+02  4.6626334813227589e+02 -1.2937786156643088e+02 -1.1444063619023595e+02  2.1792450227071944e+02 -1.6137956242450716e+02 -2.3340826872823186e+02  2.5146593399409014e+02 -9.4724618902440426e+01 -1.3002476375115202e+02  1.1251941456386149e+02 -1.1446225800710991e+02 -1.6272308202468682e+02  5.0315593377999228e+01 -1.5190543089258571e+02 -1.4619523017576566e+02  1.0963522604073913e+02 -9.7930044692387170e+01 -1.3087406450767173e+02  9.8305088449379610e+01 -9.9290020087091037e+01 -1.1404873847793834e+02  1.2432692555741918e+01 1.5548840595241206e+01 1.6944689740085334e+01  8.0619353455016576e+00 4.5927574463449634e+00 1.5973244058383822e+01  1.7129775352198092e+01 1.6240213596284075e+01 3.0018809911210941e+01  2.2027540685642908e+01 6.1892062166332429e-01 1.1582224575009851e+01  7.9957047354136904e+01 5.1100704445409676e+01 7.0247485239273317e+01  1.1073976372374460e+02 5.7274109470589181e+01 3.4912535302924148e+01  9.7958836782441082e+01 5.0120092921192189e+01 5.9516976938550648e+01  1.0067192699283797e+02 2.8663210815486710e+01 5.6437632961676059e+01  1.8592816884145066e+02 -2.3823242592471772e+01 -1.2988941007990601e+02  1.8715892474882921e+02 3.7126927739518607e+01 -6.1135920808703752e+01  1.9284667065421303e+02 4.7750982976109002e+00 -5.9230068805670953e+01  1.2083642707767439e+02 1.9064207155480478e+01 -5.9726671390189416e+01  1.2340496934515954e+02 -6.5760314065384861e+01 -1.4403821628680910e+02  8.0737966799342999e+01 2.4480807991648803e+01 -1.3894652774619689e+02  1.5274619257117456e+02 -3.1927046556693629e+01 -2.1416661661221880e+02  1.0937505898379392e+02 -3.0645007361181605e+01 -9.5319411927770361e+01  8.7721104011746959e+01 2.7640407117669518e+01 6.0842305490355507e+01  9.2379179632559683e+01 3.2929196046480477e+01 4.4971466803266786e+01  7.1343597043032287e+02 -2.4290337452857543e+02 -2.0660923169654470e+02  3.0964409283314103e+02 -3.2068096548191704e+02 2.9760289721747849e+01  1.2908297664340100e+02 -2.8194028304492616e+02 -1.2252704844871818e+02  9.5650254016388644e+01 -3.5477752233259520e+02 2.0288055665265677e+01  2.3514155629253634e+02 -2.2206854656962747e+01 -1.2294946353532374e+02  3.2361870830833823e+02 -1.7685537198612732e+02 -5.5707230458095836e+01  2.9074818570793389e+02 -6.2893728115688361e+01 -6.6302782304313553e+01  4.9080187162559071e+02 -8.2818568527402007e+01 -1.2663232984383735e+02  4.7893397232469596e+01 -6.4426179939886126e+01 -3.4734094869139774e+01  4.3945584529307176e+01 -5.1637280938910507e+01 -3.8014405912488328e+01  7.3346016183686473e+01 -9.1299703057707063e+01 -3.2273694573667797e+01  6.7953940312043912e+01 -5.4318012789577949e+01 -3.3798262068605524e+01  1.6872908675033674e+01 -2.2441415483469584e+01 -3.1842222832661271e+01  1.8237003405652779e+01 -8.6694512219113321e+01 -1.8015750753445428e+01  9.2861575209470558e+01 -1.1470395185714241e+02 -3.3711197507195877e+01  1.1509003154962710e+02 -1.3119161769765684e+01 -1.6650460534778695e+01  6.3982124592264881e+01 6.0142458199290310e+01 1.6696897607962013e+00  2.5223534537783692e+01 3.0747683072000317e+01 -3.0214604724225680e+00  4.9675790188638835e+01 3.5762742874849870e+01 -1.0750905520379492e+01  5.1722885674288598e+01 5.9486983468191951e+01 2.7119966152239769e+01  -1.0093474467647120e+01 7.7821827801520584e+01 1.2802644843684507e+02  1.8040168025453145e+01 1.0693083305319392e+02 1.2386902963030664e+02  3.7034330432436676e+01 7.0816526190664774e+01 1.6295812058480453e+02  2.5443795412868329e+01 6.2127145330431759e+01 8.9110900726163052e+01  8.5126015314367308e+01 3.0074045253881501e+01 5.4100319797098770e+01  9.3133430669234244e+01 1.8195021409551266e+01 4.1190184669965596e+01  1.2097545977897667e+02 1.7355730899619218e+01 -1.0455027050035795e-01  1.3605460026936009e+02 1.0278332887877784e+01 5.0563906746017704e+00  1.3848195741589055e+02 2.2181232314540498e+01 6.1831010225989589e+00  1.2863307480547266e+02 2.1887307289031597e+01 1.9159026481117987e+01  1.7858665763744071e+01 -1.6356931060341796e+02 1.8282452820384531e+01  7.8442427409478569e+01 -2.3569160619820539e+02 -6.8269281859572615e+01  5.4830089959926418e+01 -1.9933843827553565e+02 -7.1780557322260051e+01  1.2230328292022008e+02 -2.2673507563099130e+02 -2.1647965756658810e+01  1.6699552485894387e+01 4.0122455173741869e+01 1.1693983510196387e+02  4.4168173952157929e+01 1.2891267517089586e+01 1.2807916104201428e+02  3.2839495398318263e+01 5.0131727913857233e+01 1.0792613578116513e+02  4.3751806912391309e+01 4.5761692989691213e+01 1.5023882943464969e+02  8.0684634032532571e+01 1.8113164160498709e+01 2.3900722780477981e+01  8.5875427855063492e+01 3.9810171138218983e+01 -9.2839786672711497e+00  5.7728249277358486e+01 -3.3161360732125660e+00 1.5460539666800968e+00  8.1342792146699011e+01 2.3585806930299775e+01 2.4175040374259780e+01  7.7442060392215566e+01 -4.5133831825448150e+00 6.5620622528666942e+01  1.4006527401317157e+02 -1.0437428970363207e+01 1.1697451401942907e+02  1.7791753876771918e+02 -2.4863502791645605e+01 7.1272023468698322e+01  1.8209894436733259e+02 3.7709529963495633e+01 3.1244832351176004e+01  2.5955393977650959e+02 -2.0865050393446944e+00 -2.4504513760169903e+01  2.7069670934257135e+02 9.9495346117745367e+00 -2.3922097136041739e+01  2.8132440907982772e+02 -2.3119337245854641e+01 5.2125423919016418e+00  2.3618499449190628e+02 4.6745764849465834e+00 -7.3613383459474107e+01  7.9619584716584384e+01 -9.2153009742555497e+01 -2.7298715825750858e+01  1.1213395875800332e+02 -1.8891544553114940e+02 -1.9012693058379259e+01  4.8747658074985630e+01 -1.8555516351674717e+02 3.5970415229502123e+01  -2.1049974926563433e+01 1.4749594403400929e+01 1.3129293918788892e+02  -9.9065985716633698e+00 2.7833552629510535e+01 1.4314778517790774e+02  -9.9252143642725221e-01 4.7894916405275637e+01 1.2941151058630328e+02  1.3715852571145913e+01 4.3960536629599069e+01 1.8800855531186926e+02  7.3490133438513084e+01 6.0303122598318090e+01 1.7216392038803511e+02  1.6321721471574492e+01 8.5394221780753298e+01 1.0497010987409223e+02  3.2179423781796407e+02 -1.2198863575945502e+01 -1.4406100122091260e+02  3.2349355907410683e+02 -4.5553631222541895e+01 -6.1963987835935335e+01  2.9724873255282199e+02 -3.2559835875241426e+01 -4.4353020075713317e+01  3.6363066023904040e+01 -2.5875606588686786e+01 -7.5905060140649194e-01  1.3316814888817382e+02 -9.5686975796173968e+01 -1.9055740726655859e+01  7.3162709544138011e+01 -4.7652907507789145e+01 -1.4686082761638291e+01  2.3825144953905909e+01 -1.1304441750744239e+02 -3.0346315979675815e+01  7.5323028843463518e+01 3.6727064664549054e+01 -8.6335814831822503e+01  1.7638689436785384e+01 1.4900817156734893e+01 -2.0334224903982073e+02  1.6790912172874073e+02 4.7447715689758326e+01 -1.5767031887142326e+02  7.5893483379114954e+01 -3.5529554195641777e-01 -1.7581584522881997e+02  1.9421807270913047e+02 3.6201007849288182e+01 -1.7315224648022107e+02  2.9616639700091855e+02 4.0990141934716839e+01 -1.5772516217549540e+02  1.8886302072832149e+02 5.1108392682896749e+01 -6.8796638595559443e+01  4.7695039565432651e+01 -2.3956015532516022e+02 -1.5561737700233685e+01  1.3452370380803907e+02 -2.4322020739492461e+02 -4.8776288118107942e+01  2.2544521454147480e+02 -2.4654324038234847e+02 -3.2464344637317367e+01  1.4481385591503363e+02 -1.9492239698183022e+02 -1.1852808506856485e+01  1.4362659541353406e+02 -1.3872110344809093e+02 -1.1248065921595642e+02  2.0596188902632909e+02 9.4327845764918425e+00 2.1849008732051811e+01  1.9710475540745912e+02 -3.0602604232112633e+01 1.5082635789794860e+00  2.2488115375720946e+02 5.9961443106717127e+01 -9.8665875394086271e+00  3.2225157987759752e+02 8.1582686547254877e+00 -3.4072687822384523e+01  2.8845275675492271e+01 -2.2005459081729609e+02 -5.0046503485097510e+01  9.3573897500037049e+01 -3.1827540821373378e+02 -1.2636857744840347e+01  5.1272478227028252e+01 -2.1957788224468339e+02 -3.2192179779876021e+01  1.0490828212192837e+02 -2.2472471642484876e+02 -2.2396430997344407e+01  1.1694101339221987e+02 2.0746460703444065e+01 4.3759913037822242e+00  1.1021228719021512e+02 5.2025587384614312e+01 6.6302692953446808e+01  1.3212890949607151e+02 1.2163115732649350e+01 1.9456219072340755e+01  8.1694633308534705e+01 3.5079048200091222e+01 1.5328594882173261e+01  1.6079026831951458e+02 3.3950756380905325e+01 -9.0910909015140540e+00  1.1490040378495850e+02 1.1272231875971528e+01 1.3652008751398350e+01  1.4226083660627165e+02 1.1432442502375741e+01 1.8070123109227769e+01  5.1436381634391387e+02 6.9084528934116932e+01 4.3750216493324110e+01  3.1846748608793894e+02 -1.0481881648366561e+02 -9.8716805214001170e+01  5.5052240275725978e+02 -6.9433880482653663e+01 -1.2034704926072396e+02  1.0375127272941941e+02 -7.0986478507069208e+01 -3.8667761906928526e+01  1.0977585557040238e+02 -3.0701888456081239e+01 1.0475103090581591e+01  1.2101997073581127e+02 -8.8088549361984434e+01 -1.5708311401527617e+01  9.5935615121478165e+01 -7.6598322904864688e+01 1.5866411414781313e+01  3.4015472860754308e+01 -1.4144159552544258e+02 -9.8615900887059155e+01  3.2858678497126455e+01 -1.3788391488868774e+02 -9.2132766989294439e+01  3.0852037554165715e+01 -2.4371435787467878e+01 -9.2121490334814951e+01  1.2034709507710762e+02 -6.5632980926162489e+01 -3.0167335587749083e+01  -5.9255409563485593e+01 4.4508347013747674e+01 -3.6506694003807951e+01  -4.7832752236072480e+00 2.2016765546646337e+01 -1.7686029492430709e+01  -3.1427136892866873e+01 1.6817853043147036e+01 -6.1383762428306021e+01  1.4964972850001285e+01 3.6238621981112644e+01 -1.5477308831994993e+01  6.8521705344345236e+01 1.1146606587335937e+02 -1.0668849231803928e+02  3.5340777869151218e+01 3.7585284277906503e+01 -1.4044781809189874e+02  5.6923274761156833e+01 9.2580604868051722e+01 -6.4540855201832869e+01  1.0544613942264372e+02 8.0919097535209076e+01 -1.0100528109492640e+02  3.0178245437040999e+01 -8.4936906724871322e-02 3.8684878163309344e+00  4.7394825720505629e+01 9.6905371224890580e+00 1.8722352306109514e+01  3.5969679704201681e+01 1.0995584627816973e+01 3.7331463668292675e+00  5.4276295673035797e+01 -7.7015936880347011e+00 -8.4981779963665609e+00  7.9639604421879639e+01 -3.0665920086823924e+01 -4.0195283530185655e+01  4.4264813413178999e+01 -9.3742929288360401e+01 5.4487657804482286e+00  2.9618556215857261e+01 -1.1264787935582803e+00 -5.0311387879786613e+00  5.1421571150642379e+01 -7.7066846213166080e+00 -1.7108790937278116e+01  5.0203045124791856e+01 -2.6393802434763700e+01 -1.6127985480183018e+01  -1.2085221717635562e+01 1.0865862105756601e+02 2.3627873938414177e+02  2.0965357631266759e+00 6.3093970425072541e+01 1.5546357917306810e+02  -4.8994746559003834e+00 5.0310766831891726e+01 1.8767691906185294e+02  2.7902564780381013e+01 -1.3129110376393038e+02 -1.1040631252249760e+01  -1.6410546169410498e+01 -2.9292284769250779e+02 8.0504458419635050e+00  -8.8073047994734122e+00 -1.8895057331296897e+02 4.2598970727778870e+01  1.2201924885576646e+02 -2.4473355749450431e+02 1.3379498496164939e+02  2.1666648630631968e+02 -2.6741805672107201e+01 -5.7475147432138819e+01  2.6550936503407371e+02 -1.1336193085041382e+01 -5.2168078769445074e+01  2.2734244654395604e+02 4.4608554716873625e+00 -9.5156322511945852e+00  1.4826088756921249e+02 -2.0252967290742023e+02 -1.1975516381823292e+02  4.6772476988877408e+01 3.7030226230527326e+01 6.6008439312058869e+01  4.6671814722061896e+01 4.5915337550632934e+01 5.4935455561502657e+01  9.1671963019227690e+01 1.9310515200737481e+01 2.2172403207321455e+01  8.1106729793039108e+01 2.7624788471449648e+01 3.5253256464114408e+01  7.5802915763406318e+01 -4.0172928502635230e+01 7.2764704245771497e+01  9.4852153107047684e+01 -2.2961943948456735e+01 1.2418038270910975e+01  1.0362871541422345e+02 -6.3250182612480572e+01 -1.4104128278233193e+02  1.9951155276967953e+01 -3.8083791709497163e+01 -1.0992403752872382e+02  1.5721031485785616e+02 -4.8461414116017494e+01 -1.1878694806421113e+02  1.3524573186739073e+02 3.4225622008363970e+01 -1.0402921368901332e+02  2.1531585359731572e+01 1.1525816299328067e+01 3.5285058351732870e+00  1.4337296616832282e+01 2.3727562809074655e-02 3.6642655296385698e+00  1.0314455880404665e+01 7.6566620270330352e+00 9.5075324601409612e+00  1.0352083101959275e+02 3.5547995928408071e+01 4.0471884862096005e+01  8.0685966538665141e+01 2.8315431642628582e+01 4.1261314745970409e+01  5.3718850924626508e+01 3.4716099452515024e+01 -9.1311067200901963e+00  6.8544141709944498e+01 6.1417596329194133e+01 2.9032557582574256e+01  4.8200213237421991e+01 4.9334359871341633e+01 1.5767603636985676e+01  7.2435563121193482e+01 3.8815446966942304e+01 6.2849223162021648e+00  4.3784492641805173e+01 -2.2856133289667022e+02 -9.1783482747324456e+01  1.1078578176519660e+02 4.9406807278474446e+01 -8.6946516317302539e+01  1.9212574236971438e+01 1.3886462355064788e+01 1.2997359098552714e+01  1.2876141596865011e+02 5.9611937116516309e+01 -1.2639353217340249e-01  6.6461470194714138e+00 2.7995216680241903e+01 -7.8371853525536013e+00  1.2009653938957531e+01 3.6923167970839593e+01 -2.5492572552391380e+01  2.3768625613340816e+02 2.3397309159133329e+01 2.5878861733608467e+01  1.1020423079663065e+02 1.8170284609680845e+01 1.2808883348715931e+01  1.3594612565568070e+02 6.0093894749653902e+00 1.6892238738582151e+01  2.3551147490601207e+02 -5.4230314000959098e+01 -1.4361774730806573e+01  -1.1665458860272942e+01 2.1098937803361071e+01 -1.2915680083984221e+01  4.5765687165188034e+01 1.4503159453601305e+02 1.1910958967335964e+02  2.8745419628284012e+01 9.8144082013390161e+01 2.5040638463195133e+01  4.0730043813260266e+01 1.5566984854978844e+02 1.2776501683422622e+02  8.4310371737063249e+01 9.5186149040683816e+01 9.2159222035010828e+01  1.4720077043272377e+02 -7.9485225142769494e+01 -9.7342276863631216e-01  8.7823821504852845e+01 -3.6279011364468111e+01 -2.5772446370414823e+01  8.3391796939729971e+01 -2.3483166799398866e+01 -4.5426571224341544e-01  9.3228680047289657e+01 -7.0451762697850526e+01 -2.8310505307260378e+01  7.2229538971765493e+01 -1.2145793452235489e+02 6.4203324914535699e+01  2.0225769659048328e+02 -1.7954200090613102e+02 8.3100195956827562e+01  3.4856136830815444e+01 -2.7192716624408990e+02 1.7429226936437297e+02  9.5053925482569596e+01 -1.2945818362468452e+02 6.0584167643446115e+01  1.8163897762240256e+02 9.6115183456160214e+00 -4.4351822108588213e+00  1.7652680196689045e+02 -1.6947404896219052e+01 -3.7645521004030030e+01  2.4927419843789213e+01 -4.7762101213927323e+01 -6.1116412252960348e+00  6.2897308052177479e+01 4.1603336547649803e+01 1.5622692555238125e+01  8.9593744176701748e+01 2.3134176654157461e+01 2.0034378234699759e+01  9.5440657032756548e+01 -2.8239080564608479e+00 -2.3570522487887878e+01  1.2440591461607184e+02 -3.5459257480348299e+01 2.3115046222452353e+01  1.2792853225041912e+02 -2.7154041686349629e+01 -2.6738856394457169e+01  8.7213943584547906e+01 -1.1819631403343718e+00 1.5274737650438821e+01  7.6944895688720223e+01 1.2061332676019109e+01 -6.9268525948215620e+00  1.4276654646126994e+01 -2.0234912245345452e+01 5.7075597176080439e+00  1.6939398457524518e+01 -1.3375403792377019e+01 -6.4861928974882986e+01  8.1978837437955576e+00 4.5031737204421134e+01 1.0403242031127355e+02  2.7902606165729438e+01 5.4555964128210512e+01 1.1875537838734840e+02  1.7282982157600358e+02 -1.8610269827549055e+02 -1.5149264700530662e+01  1.5487568924769772e+02 -1.6633176267493559e+02 8.2644045318155754e+00  1.6065126115962372e+02 -1.6028230914792380e+02 -1.9147744261757522e+00  1.9125120544987396e+02 8.1611767778844595e+01 1.8419472691727327e+02  1.8994699970022381e+02 5.5317615700929039e+01 2.4805346648755727e+02  8.3910583712846361e+01 2.1673056266765123e+01 2.6949269292951840e+02  1.5496644688510614e+02 2.6516673519221492e+01 4.0288932860493318e+01  1.1504173264816058e+02 1.5690911222543907e+01 6.9807156880945456e+01  1.5189781889919846e+02 2.4919490559423021e+01 5.4489372380294235e+01  1.3277051876486229e+02 2.1382408802606722e+01 2.7628857047461523e+01  1.2527903075774773e+02 9.2037354841218516e+01 -8.0422061169064975e+01  3.2649460124794911e+02 1.4344566460668364e+02 -9.7735153215166321e+01  1.9158416113471395e+02 1.5214965075919110e+02 3.8987595861346158e+01  1.6324238182790447e+02 5.1794353130727323e+01 -7.7060683669500378e+01  4.6618284905782545e+01 2.4085159062567364e+01 5.4841883693447343e+01  9.1410107637208768e+01 3.1585648255987227e+01 7.3898005228369371e+01  8.3164596142602093e+01 4.8923978665847635e+01 6.0268827809636193e+01  9.4447171526259297e+01 3.0390917541858144e+01 2.4681185228764321e+01  1.6668718433919935e+02 -1.5100458825451116e+02 -4.4814338219972292e+01  1.5576570845906457e+02 -1.7092727703971369e+02 -4.1069704056029543e+01  1.1438263848332934e+02 -1.6938680336126410e+02 1.4106572324567042e+01  5.5870044557297426e+01 -9.7523097341724082e+01 3.6045583779560822e+01  1.3360095416357771e+02 -9.1253126207240328e+01 9.3475005546748395e+00  1.3888957215205403e+02 -8.9534364836267656e+01 6.0518753500206223e+01  3.5189337947725470e+01 3.0086891426060842e+00 1.7158413925227901e+01  6.0257050784687479e+01 1.5679236812905764e+01 2.6112443565888547e+01  7.0345400420476039e+01 2.4998145412216154e+01 -8.9439792523303545e+00  1.4784420205127958e+02 -9.9469328766048875e+01 -1.6614071833107921e+01  1.3294597884368119e+02 -4.1812335131160921e+01 -1.2334002190953379e+01  2.0789275023180895e+02 7.8626527512578491e+01 -1.8735788086681342e+01  1.5475286041651214e+02 1.4249645544142993e+02 1.8440873419473508e+01  1.1408263907422669e+02 1.4279101180014496e+02 6.4107218722455642e+01  1.2038427370898935e+02 8.0515686486458236e+01 -1.2104114754359403e+01  2.0514295362480456e+02 2.2029220526164597e+01 -2.6842270695577280e+01  1.3286465995740457e+02 1.3051631003694857e+02 -6.5131344452374478e+01  2.0910127407976898e+02 6.2378992597881009e+01 -2.6480977781961293e+01  9.8975510140380560e+00 -8.4388289461598180e+00 -1.5710192683612636e+00  4.8774883824986208e+00 -1.9999860687029745e+00 -1.2099088921926595e+00  1.4276235221515932e+01 -4.2150851738073918e+00 3.5341408557838325e+00  2.0444540847101763e+01 2.9620446972113108e+01 2.2761770900895122e+01  2.5865513525280374e+01 2.8686495195606184e+01 1.4916661157802404e+01  3.8308730988439812e+01 2.5480489127046582e+01 1.1945861619044875e+01  2.0714088023191451e+01 2.6665073364518392e+01 2.0201810275931404e+01  6.8357747664256038e+01 3.5929757019127550e+01 -1.1782043305418947e+01  6.9512186296141778e+01 3.9384642205449758e+01 6.8574453285033989e+00  1.8209830405678960e+02 2.5556612338133295e+01 1.7858921293943506e+00  4.2166174414597805e+01 2.0478426957029978e+01 1.4631041135695073e+01  1.6455564930280303e+02 2.1021525143980381e+02 -3.2129016162606626e+02  1.8110694926428843e+02 8.5261937903888239e+01 -1.3294291438983663e+02  5.3592964641283658e+01 -2.6664410196443693e+01 -1.5066769587289381e+01  1.9632217512616513e+01 -1.4197190251125429e+01 -5.3123390779981312e+00  3.1508290532860581e+01 -2.9063086493699142e+01 -1.9466966052660574e+01  3.9367080525755767e+01 -1.5885812972672750e+02 -5.8297258727368309e+01  9.3714801489011037e+01 -1.6985008817376234e+02 -5.6551501557697598e+01  5.2355785497773547e+02 -1.2991637713242585e+02 -1.5838167832165533e+02  3.8019182805963936e+02 -2.1963308070508270e+02 -2.4597006480355645e+02  1.2374565589039408e+02 -2.0853931930041588e+02 -2.5763683273805020e+02  -1.4482779390762588e+00 -1.2505532334243736e+00 -6.9934156940515706e+01  -1.3033919925243507e+00 -3.5194808949698313e+01 -2.3994314870930452e+01  5.9100899007078262e+01 -4.2341088401623885e+00 -4.4420980436828771e+01  -3.8672152314547694e+00 -6.9213066266541887e+01 -1.0003253000019056e+02  1.9967725286084338e+01 -2.6103979141722984e+01 -1.7574821789163082e+01  2.4819712580230604e+01 -2.3845311937240716e+01 -3.6210456155217770e+01  8.6347232522247339e+01 -6.7666970249290927e+01 5.2327536045809744e+01  1.5394463593333152e+01 -2.3466202238709450e+00 -2.0535513874195864e+01  3.1251324181273567e+01 5.9649837118633336e+01 -8.2719304929594017