<?xml version="1.0"?>
<VTKFile type="UnstructuredGrid"  version="0.1"  >
<UnstructuredGrid>
<Piece  NumberOfPoints="765" NumberOfCells="2734">
<Points>
<DataArray  type="Float64"  NumberOfComponents="3"  format="ascii">31.31392399354751 5.370051060948815 13.92144484527223  30.14500777071176 5.385095346664645 16.52108386735743  31.30551338810937 3.497919517932927 16.17317850628635  32.32424647429752 5.891158506403991 15.71173902672302  26.526857 6.359998 10.705928  27.92044328216533 4.953104858799419 8.517145593644903  27.06835159020299 7.082596566346115 8.945796850512522  29.65465881192182 5.923425944602356 9.405615933301883  21.81671 11.211244 14.824056  22.936161 12.164712 14.380956  23.181126 10.926866 15.076006  23.17435826175766 11.06619040507711 13.39639557629791  23.08029919302011 8.851834776029254 14.48241704233135  21.62580670348767 10.11792219249332 13.54447171308322  30.52501634551106 9.300981218256927 18.19156910364351  28.886112 10.600979 19.106813  30.27834014244917 10.923794256542 17.5321441608837  28.75354646183022 9.593903365274535 17.02333060000726  36.57758226395166 9.372131664999268 11.11998831463894  38.59035122513054 7.85110429963694 11.12933208986667  37.27836385543984 8.427196610590263 9.960908367004926  38.62084255912791 9.600852303774248 10.67132321659795  27.69529947446319 2.076366729193048 10.39017764971929  26.58378 4.652401 10.922153  28.81973986294469 4.01638785700794 10.60973648107751  26.78140717381392 3.723401753730434 9.041732706833097  27.823887 7.225966 16.799591  26.509388 6.733491 16.880165  27.688261 6.047368 17.039831  27.69665119613392 7.006973644800686 18.23865862353044  20.449337 11.165722 14.040042  20.684761 11.143955 12.476002  21.442913 12.527428 14.07056  24.91920416848686 10.81313430405584 11.59479699534994  26.063704 10.322753 9.501659  25.28210283526597 8.871352822646489 10.62860355186257  24.20034123096929 11.08050780969391 10.25791138268063  33.32228150208384 8.857902833208124 16.94437947391137  33.12809158699898 10.61267319290463 19.2508073444275  33.93600494179065 7.980855802996144 19.82655945431772  35.14350187958795 10.1237867007591 19.0859482054303  29.000549 3.320605 8.554463999999999  29.4396 9.550471 13.215157  28.907068 10.505606 13.179383  28.0062724750763 9.436803802493726 13.05054022112304  28.68831230475 9.607189079791368 14.38665337715866  35.769733 13.097977 9.571764999999999  35.166054 12.684088 10.900583  37.03686873491507 12.71380608465289 10.98878443763218  36.45228671655607 14.73809763534039 9.802910155854615  36.327717 10.102358 20.19528  37.253044 9.052194999999999 19.219507  35.89476415285398 8.232259854650176 19.09614560694681  35.648342 12.122204 18.201172  36.14079256621203 9.900268293919675 17.79703404302705  35.773781 11.441383 19.265192  27.31666724112722 9.103187521217436 18.3611459043992  29.151602591431 7.841878047286384 17.29569422957857  32.902386 0.679219 9.962210000000001  32.814579 1.754832 8.940807  31.388966 1.480419 9.714605000000001  32.42768770104702 2.821881151409138 10.03330892264288  35.458485 4.456131 6.89063  34.44368983656084 5.858017559869846 5.900184801609003  35.391319 5.247688 5.876731  33.77193908855467 4.73803032053403 6.74477653826616  33.832432 9.360626 7.638446  36.10772391971128 9.965968214394035 7.274309337755584  34.651909 10.449728 7.813923  35.60785962167256 8.422232895374291 7.73911509217359  35.387215 1.690005 20.197649  34.721458 2.78978 20.607763  34.16024323081374 3.142668806262301 19.03803930494172  33.69816411114873 1.887611425642358 19.76799761039265  30.861441 8.207053999999999 11.160952  30.719357 7.467805 10.10896  32.006432 6.991808 11.046397  31.06615568585304 6.962969925151841 12.02556469889314  33.285652 -0.01335700000000001 15.307424  33.13671711827426 1.757974100449609 15.981062958538  33.924545 1.289379 13.892946  32.18005861029752 1.225585561533016 14.98153278120363  25.312609 3.999865 17.068291  26.733423 4.885454 16.968513  26.34337086016807 5.359257242343681 18.45848687468995  26.65094556251888 3.038867329475486 18.15236328428396  20.118837 7.086507 12.401903  21.3338646021924 6.425149307700539 13.73688047451719  21.94308910419287 7.208987701849465 12.17960903327517  20.85632101822024 8.265486571858334 13.64869845461472  36.734386 0.664435 17.000975  36.166256 0.763164 16.1175  35.542912 -0.01335700000000001 16.647608  36.21412762465548 1.336119059012096 17.22281733842196  38.815998 9.566703 8.252136  38.61697446485172 8.515737283415563 9.819575183881602  37.55922298128556 10.23343087778711 9.79328483576861  37.69494326502508 9.573856933320572 8.598216312654996  35.46017315323839 10.89391330802153 4.813987667860482  35.280407 11.515438 7.799182  37.32120878729651 11.86917646561535 6.412381995762441  38.091434 8.661052 8.395061  37.246807 8.615817 7.524701  37.273808 7.56474 8.630637  36.30198031438687 9.156034352919852 9.016178784469194  23.178837 9.108328 16.970816  24.302628 9.261188000000001 17.410379  24.23863799354614 7.357542248176745 16.89889007848264  24.34786202410493 8.592690553801589 15.8420870975027  32.87566194398603 6.440241916117235 17.98843294743188  35.43615977314406 7.297413907556042 17.12256579439988  34.90697329047502 6.297776570868377 18.76139701071323  29.028032 11.390832 14.201345  28.003204 12.146575 13.367476  26.87303710820998 10.88413753811409 14.4536299895986  30.812319 12.39261 16.682713  30.433645 11.486131 14.885845  29.53088046176575 10.45430075352786 15.46981302964418  36.28981119225745 7.7961968066774 12.57633063315916  38.35755820632652 9.082597788818591 12.53144431618168  25.58108265156245 5.533481436582005 8.019850914400662  25.61437613994522 6.855351154894088 7.442355451602913  27.56815944471097 6.087876050150091 6.762448504869062  33.6064482280206 4.27623586195804 12.76248642573921  34.060978 3.824092 13.477976  33.70607091859011 4.68261673299255 13.58706836419869  33.18121523522437 3.757482323504535 13.62422828497213  32.08315406674546 6.969014000329196 13.14554317945436  31.19956085438279 5.534925601087664 11.54795183392781  32.99451035645485 6.092050435675348 12.12074732456102  38.95195 10.662038 13.966292  38.292603 9.278586000000001 14.684197  38.149288 11.028185 15.490355  37.46537310487492 10.07142073773421 13.6306757274376  37.846889 10.109624 17.835796  36.85915 12.090572 17.264286  38.49184 10.98822 16.923073  36.59047758572004 11.21305507350777 16.24869916200015  24.757528 9.430399 18.524368  25.537321 10.554787 17.282837  25.86011719439936 8.41186644043953 17.33966662222625  38.01102029335819 12.33102253179327 9.87080429137152  38.00117039930827 13.78629504605068 8.30915984597881  38.66144780338503 12.12626056565089 7.651200753023522  36.97583538284601 12.24395756588019 8.271429691787787  31.82784935179606 8.694924865075818 19.01804632389348  34.839714 8.406475 10.499876  34.109169 7.667312 11.359759  34.504967 7.251663 10.371414  34.49087699294196 6.693951138761522 11.45275685942146  35.951279 6.609458 19.783981  27.875607 2.527586 8.581853000000001  24.066252 13.173302 9.107924000000001  23.10207675311761 13.97065235471449 10.95289502630386  22.3105529992216 11.83880805892438 10.13531144505095  24.6808045589112 12.60641599301379 10.86781945620977  32.851059 10.530567 5.323294  32.99832320252995 8.048484200204888 4.347679573855421  32.957447 9.775411999999999 6.501378  31.715595 9.331649000000001 5.74605  22.591206 6.882457 10.306619  22.725136 6.441765 11.431832  24.037994 7.116853 10.615119  22.86664854984575 8.066102927321321 10.88176070743918  28.20553468038491 2.645943561042436 17.21885597521874  28.02117 3.344675 18.942553  27.86416101807226 4.320903665811782 17.63201349659855  24.073502 5.829741 15.851364  24.03363 6.85431 14.737873  24.977922 6.9707 15.989449  39.381535 4.844565 13.992858  39.95923699999999 5.595038 13.244763  39.288441 4.153998 12.738214  38.40718729247392 5.983692608383204 12.75159210068179  37.766106 7.529643 15.054073  38.534317 8.085724000000001 14.267514  38.89246 6.565812 14.188453  34.388672 3.544829 12.461405  34.000252 2.735934 13.306849  30.274652 6.187439 18.422001  30.833214 4.847325 18.318628  31.12238218620339 7.42424074748144 16.99757493554089  31.20594 7.204595 19.750298  34.16263242666541 7.03650493785439 15.14752698127628  34.74351256851129 5.331617453797089 16.19506350074932  34.529346 9.690910000000001 11.59514  30.443815 3.840267 18.212605  31.661118 3.670487 19.373205  30.429928 2.669286 18.590878  32.03129527583151 3.604944231357318 17.5602872904941  28.563173 5.807103 18.582928  28.93315261939825 5.933509159559444 17.39665835042514  39.95923699999999 14.403647 12.07276  39.95923699999999 13.12464 11.762743  39.330593 13.065804 12.885565  38.6349960342968 13.93834042885001 11.72155048755563  24.924725 8.068334999999999 14.612294  25.879112 8.877039999999999 14.979661  24.7961987104767 9.976463972612002 14.27281144495721  34.24205 -0.01335700000000001 16.310421  34.848 1.034203 15.399918  32.30631409234718 1.929925830261122 12.89196016983688  32.31241766483846 3.070610958217187 14.22647262924007  32.45758177012177 3.89059775367728 12.73022567443408  25.673498 10.163596 19.171387  36.27438 5.856181 17.44977  36.603264 6.88014 18.492367  35.396206 5.705095 20.065811  33.8009093861905 4.992861092399875 19.46394889471827  33.71407342800229 6.255736374091215 20.30968474184848  34.551323 12.153619 19.022036  33.6446 12.397755 20.146729  33.298996 12.653248 18.742809  24.135799 10.140332 16.002005  25.62928660658151 9.646256044955061 15.9826482960773  33.25805932682426 4.808533205125584 17.80031607833712  34.90712002283411 5.043478987895973 17.97267700361439  30.308556 0.63522 18.327953  31.375715 1.542598 19.11385  30.13450109959582 1.781195734761269 16.72805544910381  29.185642 4.323772 18.12468  27.697443 4.553406 19.109724  26.635754 10.800408 19.825016  27.5994556503979 10.77932190871546 17.9738994334235  26.409721 11.041096 18.457232  27.566368 11.348647 18.793251  27.938736 1.325439 15.404446  27.237934 0.740746 16.637749  28.08431381409496 1.380234698502957 17.97192680739122
[...]
<PointData  Vectors="u"> 
<DataArray  type="Float64"  Name="u"  NumberOfComponents="3" format="ascii">8.4724954595964789e+01 1.2001900256657347e+01 -1.7676047870109311e+01  9.7398375735771296e+01 5.5669903722861420e+00 -2.9961203570108754e+01  7.1162513740628114e+01 1.3334158800032291e+01 -2.0378863366191272e+01  8.9128871243810650e+01 2.0744679572965321e+01 -2.8911531202331691e+01  6.4148187825623893e+01 -7.9900782787936876e+01 1.3834588629451076e+01  8.7135870713231014e+01 4.0898160241753851e+00 9.5174667762689964e+00  8.0914603744270750e+01 -3.6068696578689604e+01 -2.0334386960294051e+01  9.8005494828347551e+01 -1.6624046843526717e+01 -1.5000798584545226e+01  1.0644953846847108e+02 4.7738757377685019e+01 -2.7985241491056723e+01  1.0503635109375864e+02 -2.3898292247496705e+01 1.6552186014884544e+01  1.2426350339159372e+02 1.4129163158054197e+01 2.8303304332903751e+00  9.3404153378203844e+01 -1.2185764131192292e+01 -3.8079859131785319e+00  1.0527504942534462e+02 1.9089147451316840e+01 -2.2501070275466386e+01  9.0104965509466908e+01 1.1529269818299676e+01 -4.8106480504917073e+01  1.1469003865574102e+02 9.0843023457840211e+00 -4.2070322643458429e+00  1.6983658386925586e+02 2.7209827147583717e+01 -2.4849259524398882e+01  1.2707041308402441e+02 1.9869296858411612e+01 -1.8065462924760588e+01  1.2519143063995419e+02 6.3942221265961434e+00 -1.4289231420345128e+01  1.5124588493803415e+02 7.7973988724751507e+01 -4.4509979955883182e+01  2.7273360233077699e+02 7.8188713443340347e+01 -1.0838738774673439e+01  1.7738317747944274e+02 9.1955876109943091e+01 1.5617660342512705e+01  2.6068275507001420e+02 6.2167868163369903e+01 4.1303701138676310e+00  6.8420556976621953e+01 5.2502628169957601e+00 3.2188535315885623e+01  4.8620351994845493e+01 -7.5382437260949207e+00 4.8319586464823750e+01  7.0506288569702093e+01 -3.9695144016751658e+00 1.2876677651758285e+01  7.0548221617233750e+01 4.9558889172768623e+00 3.1348368669052569e+01  1.7507645115838488e+02 -1.6858675645360017e+00 -5.0622006085328799e+01  1.5157118689411871e+02 2.0511488088246786e+01 1.8920389818452531e+01  1.8467266561526063e+02 -1.6019341298424091e+01 -6.6233219702269253e+01  1.3785866390021297e+02 1.5743726366884580e+01 -5.3386679953890862e+01  1.2974889501462201e+02 6.5962364645483959e+01 -1.0797055678665697e+02  1.7184839708422075e+01 -1.3274036297367363e+01 -4.2463813198932890e+01  6.8137182622692606e+01 -6.3622734388143549e+01 2.1464666688958939e+01  8.7116835464317333e+01 -4.3599255773351764e+01 5.0001866643118760e+00  9.7454387430366097e+01 -8.3942755098984719e+01 -2.8705845278775395e+00  1.1372349942330167e+02 -4.5174867865886441e+01 -1.5888607400651827e+01  6.9843075052725979e+01 -5.4278395450122744e+01 7.5436846916488349e+00  9.0917410772138908e+01 2.6692641414701399e+01 -5.4418016948365548e+01  7.1224030112628398e+01 -2.1631784211992482e+00 -4.9813770193997811e+01  4.6414780439320857e+01 8.0089909383887115e+00 -3.1062885667808860e+01  5.4973425544818070e+01 1.1648436367152389e+01 -6.8939027696824738e+01  1.0428741334740474e+02 1.7093548603627610e+01 2.2242171952238479e+01  1.3598755550808019e+02 -6.6706563373732862e+01 4.3603091338085108e+01  9.2063747624291850e+01 -8.1036953526224309e+01 5.8894417996597120e+01  1.0861671262516937e+02 -6.3003916253274305e+01 1.9049863706671569e+01  1.3088973884525879e+02 -3.6554395470189128e+01 1.8270208736415558e+01  2.1415117903840592e+01 3.2696926253237727e+01 -3.4613537335026024e+01  6.6570613957700346e+01 5.1758674789395606e+01 -9.4997757547438113e+01  1.2298547299905476e+02 4.1823112693779542e+01 -5.9515576559327897e+01  7.8021983518204507e+01 1.6215622913189950e+01 -2.1287695323660532e+01  3.3194138059818428e+01 5.3662142708273430e+00 -6.7554681860232961e+01  1.7571317375683012e+01 3.9158843550170673e+01 -7.2813249236280441e+01  3.5152823650630495e+01 2.0261358049177048e+01 -5.3638564740038120e+01  7.3155093046664689e+01 2.1066856548822496e+01 -9.7238795115955085e+01  5.5492637975731576e+01 3.4875339752075966e+01 -8.7489364386660952e+01  5.6998598365658061e+01 9.9845231031610950e+00 -8.8405219781819369e+01  1.1311367643762830e+02 2.7775250837225645e+01 -3.4474431100328410e+01  1.3102178833994495e+02 -1.1660825438557714e+00 -3.7709649938214888e+01  4.6068713800646229e+01 1.2848253647527224e+01 -2.4678876968622760e+01  4.6010808369740836e+01 1.8268375596924624e+01 -3.5825767009106059e+01  7.4769849254731838e+01 8.1139887158196053e+00 -2.3687244430821622e+01  6.7074969553296626e+01 2.3819281125991729e+01 -2.2036162613384757e+01  2.7883265966808722e+01 5.6275190981156740e+01 9.9213889125416426e+00  5.4454303157107276e+01 5.7222513093133934e+01 1.3687708516896560e+01  2.9676399440177718e+01 5.9415941737520690e+01 2.0516850731097986e+01  5.7849128646346600e+01 3.4204496647393910e+01 -6.5594662337963054e+00  1.3024230952477572e+02 1.1059108541305575e+02 3.9058582966160095e+01  1.0128854663735774e+02 1.0108111044013349e+02 5.4387278856170312e+01  1.0839166087164759e+02 1.1325165370599125e+02 5.7134475999928661e+01  1.0538431668709283e+02 1.1367862960743238e+02 4.4041842664006332e+01  8.5275694468603689e+00 4.6422847125630469e+00 -5.6203093143577068e+00  1.0020932012443442e+01 7.7479728424969618e+00 -6.0819119662736352e+00  2.5281591065102422e+01 1.3894927525658108e+01 -8.2609176854336361e+00  1.9845629441017152e+01 6.3634660539759489e+00 3.1766830832637520e+00  8.9374170386409006e+01 -6.3381753648121247e+01 3.0463235522297911e+01  8.3262330132445129e+01 -7.7197787975513279e+01 -1.1167901260371382e+01  1.4709891864306132e+02 -5.4235910334075932e+01 1.7384720526634585e+01  1.1184310309330894e+02 -2.7505823542164595e+01 1.5082326804250803e+01  2.6684992816157660e+01 8.3768432630780332e+00 2.8675029284346487e+00  4.4918359588976607e+01 1.8478662213109100e+01 -1.0199041456123737e+01  1.1403319636184017e+01 2.5187689484328057e+01 -1.3610540937190533e+01  4.5888459212517951e+01 1.0952975535583333e+01 -1.5015948401008542e+01  1.6137220138082782e+02 -2.5237206759468592e+01 3.3686056980239956e+00  1.8728391142349568e+02 -3.8487686632819916e+01 -4.9273437432501083e+01  1.1707596665682691e+02 3.0006533321302604e+00 -3.9902881312697005e+01  1.2191839163425433e+02 -1.1622639805001638e+01 -6.5892294913286833e+01  7.6448787675585521e+01 1.3375047960112608e+01 -7.1840345237677795e+01  6.9416232510435336e+01 1.4818939290704472e+01 -3.6815299699185637e+01  6.4436862146384954e+01 2.8189610103773163e+01 -6.2000559545919863e+01  9.7133058069424180e+01 1.8295566766456259e+00 -6.1122528816653755e+01  -6.9870613002440640e+00 5.5845627886384515e+00 7.7341413276416224e+00  2.7658872144228370e+00 1.8429975645328540e+01 -2.9380355453868851e-01  2.3257872241788061e+01 7.7104657562147070e+00 -7.8529470541784905e+00  -7.2589767587812382e-01 1.4657124746502078e+01 -1.3707702469965772e+01  1.5912630569423106e+02 1.1421230638784293e+02 1.0636624792136645e+02  2.0885099831628878e+02 6.6854521393010359e+01 7.8980219187908460e+01  1.7365063780497366e+02 7.5384411698986810e+01 8.6882057500561576e+00  1.6652231689441894e+02 9.0645877001997121e+01 5.3608817502286946e+01  7.8629602951873736e+01 8.6345452916414530e+01 3.1474017207390720e+01  8.0851038516035260e+01 1.0433288752570438e+02 6.0244864290082383e+01  8.8075257220774006e+01 6.4023137429137549e+01 7.5812955640518297e+01  1.8685117177834599e+02 8.5708122204530525e+01 6.7897371620217768e+01  1.3278208498890905e+02 1.2899416250886722e+02 7.9685896109027979e+01  1.6765981068167906e+02 1.2959790909751464e+02 8.9145524377334354e+01  1.1747498247952082e+02 1.0346290076105048e+02 3.6294799535859134e+01  1.4845300794325200e+02 1.5998545574993008e+01 -7.6835611343240311e+00  1.3408250537305133e+02 6.5200815610027959e+01 8.4528438363810476e+00  1.0885393780484058e+02 2.9590496995890302e+01 1.2177207639759340e+01  1.1124320546208165e+02 4.4437075248501202e+01 8.4569707653852895e+00  6.4823582987430285e+01 1.3137312896812585e+01 -1.8351433388184880e+01  6.0324685478797520e+01 3.2230562838317468e+01 -7.5871733280854144e+01  3.9096638760146185e+01 2.4000139061987305e+01 -3.7080916438146758e+01  1.4696380360205262e+02 -5.8203733008069037e+01 8.0417330485834484e+01  6.8883500861078886e+01 -5.7392627127377914e+01 5.5590521539316363e+01  1.0445767617254035e+02 -2.3633725158365209e+01 2.9311102692263699e+01  1.6249056529858754e+02 6.4648098631689976e+01 -8.2156139635766479e+01  2.5557250009919585e+02 8.0288922377802479e+01 -3.6920565394431691e+01  1.6586205334902257e+02 -1.0063866618053924e+01 1.4266420002737201e+01  1.5467037489384393e+02 6.3658509549182192e+01 -6.8445211806968189e+01  2.1192874364633883e+02 4.1858639752969175e+01 -1.4640277082517613e+02  8.0010807331014277e+01 -6.3442746132406569e+00 1.2485992155299574e+01  9.1739074015780730e+01 -3.1197768604182072e+00 -6.6555711279538636e+00  9.8273701188686218e+01 1.1715604882681045e+01 -5.7543075711001999e+00  9.4343102270875747e+01 6.5545983746771043e+01 -2.6194081677551981e+01  8.1033045721388859e+01 1.0999257974458449e+02 -1.5141063495282761e+01  1.1289092785521248e+02 5.4828494438476042e+01 -2.9131897989780978e+01  7.0601318667966396e+01 5.1215469962043819e+01 -2.1607578012927405e+01  1.3013776167441333e+02 1.0270459935976168e+01 -6.1634129737386703e+00  9.9139365561248056e+01 -5.4236176334727801e+00 -7.1609063619843303e+00  1.3575040906755987e+02 3.3499963680395794e+01 -1.4345200095661710e+01  1.1646592673086690e+02 2.5585019836171888e+01 -2.2378524190080029e+02  1.2064420374709935e+02 2.4193486709157312e+01 -1.7562750045655849e+02  4.5578199272472169e+01 2.1791536707155210e+01 -2.1336462438519794e+02  1.4329411262559182e+02 4.6564330881109093e+01 -1.3633206413766339e+02  5.2261318476062385e+01 6.0394421340457434e+01 -6.7942238769353310e+01  5.3625572214350655e+01 2.0832662875399411e+01 -8.2262052490249218e+01  -2.8701819727172971e+01 3.3289179947271577e+00 -6.5893656113462114e+01  5.3499519536613064e+01 3.5055136251232263e+01 -1.2499542274504321e+02  1.1012672434944693e+02 6.8952583770530154e+01 -9.8008669203047187e+00  7.4291915270711371e+01 6.6832820606586466e+01 2.3500094937619252e+01  1.2367258952687408e+02 3.9676652639550191e+01 3.1497230303258378e-02  1.7577783922989008e+02 3.9253363417436951e+01 -5.9344307044598983e+00  1.4021788468108639e+02 2.5427020563576534e+01 5.0388689345216157e+01  1.8933821283265112e+02 4.8307470443007126e+01 1.1199991012970233e+02  9.6950416051091267e+01 6.2242667260007828e+01 4.7966307592577770e+01  7.4487751189384653e+01 -2.5155066482367405e+00 -1.0935393305960885e+01  7.1458129010720370e+01 1.3142621835968794e+02 -3.4448557963425380e+01  1.5392331742758628e+02 1.3350053963114357e+02 -7.3632235135709195e+01  1.2368964662185036e+02 1.5030917125326712e+02 -1.3086883471217631e+01  1.4944689846204082e+02 8.9689914642822941e+01 -3.1256539405974099e+01  3.6128757755645012e+01 2.3063991865729172e+01 -3.3439970035672921e+01  7.9878689343246705e+01 2.2882269224422348e+01 5.3482291120070428e+01  5.5169185735608146e+01 -6.4375470609857572e+01 3.7251541446036285e+01  5.9674023038750597e+01 -4.5302918531735848e+01 1.9729098936167855e+01  5.1857528742727659e+01 -5.4621304670680388e+01 4.5862444971103589e+00  7.0406224980640786e+01 -5.5931260845917947e+01 2.3172297245822371e+01  1.2190030441627414e+02 1.1062718039392399e+02 1.6912995201272153e+01  9.3996566580936857e+01 6.7207620303946939e+01 1.1978810945914265e+01  1.2861435030924949e+02 9.8763670149419454e+01 1.6534712431877683e+01  1.3766880001157770e+02 8.3850610487583324e+01 2.3033632217967401e+00  1.8928569558216168e+01 -1.1741639468279027e+01 -1.4677810078023364e+02  5.5082248252421429e+01 5.5480081016296168e+01 -7.7525126704356921e+01  1.0580880671265206e+02 3.5962261555470683e+01 -4.1318751742008985e+01  6.3809791310928368e+01 -5.4663203993500620e+00 -5.5562585782566472e+01  1.1771513470284224e+02 -1.0795808433973435e+00 -7.7397587530444753e+01  1.2739088558461764e+02 -5.6681249591655591e+00 -1.0424109592672235e+02  1.3681619721777517e+02 -2.6579063020481946e+00 -8.0332801894117395e+01  7.1796094556637456e+01 3.7913367410570672e+01 5.1502641698434076e+01  5.7537848400516680e+01 6.4339914030965090e+01 6.5183533679944139e+00  9.6490784154411514e+01 4.9906379183317455e+01 5.7612764411294620e+01  1.2675304494846550e+02 1.8995029335374139e+02 -1.5827271677038576e+02  9.7891149928578102e+02 4.0635332859653818e+02 -3.0577104293452879e+02  1.7339789442914473e+01 2.7179307441319202e+02 -9.7223041996231416e+01  2.6535917747176620e+02 7.3926142237773263e+01 -7.5323221040038305e+01  1.4186178759865808e+02 1.7826369139526140e+01 -1.6134997186365339e+02  1.6283166327843145e+02 -9.1240614811930365e-01 -1.6717921211288277e+02  1.7614759083034181e+02 1.6633845502452388e+01 -1.9976032196645301e+02  1.0058306474559237e+02 1.1597009857413661e+02 -2.9038917314388488e+01  1.7796787224452334e+01 5.6941386017935884e+01 -3.4439299597815399e+01  1.3770958931807124e+02 -4.3214646183335974e+00 2.6518734148450331e+01  8.9401649636271344e+01 2.5321227853583492e+00 3.1268526130948676e+01  1.0352354044694194e+02 6.3461073051990784e+00 -2.0455776399091338e+01  4.1541126266530149e+01 -1.9925555048665103e+01 2.8843284659317504e+01  1.0812524649481352e+02 3.7747384769670482e+01 -5.8694391168825902e+01  7.6466201621285066e+01 4.4240058586964658e+01 -6.4063026165065310e+01  8.2351330660800230e+01 9.2945269040087908e+01 -1.1011915107769487e+02  1.1695012400999474e+02 1.1706923327944054e+01 2.8291912130309949e+01  3.2306765969229801e+01 1.6290140814048392e+01 3.3827259567755881e+01  1.0939390260026479e+02 3.2478481712892233e+01 2.9621306785027151e+01  6.3602964689392380e+01 1.5272360794955379e+01 -1.1886288740263482e+00  1.6086426517888137e+02 1.1118774576775269e+01 -9.7062639533414028e+01  1.3942653439119601e+02 -4.7454503756037925e-01 -5.6563793639692321e+01  3.8015702234610126e+02 -1.4192468589113329e+01 -1.2422948367819635e+02  3.9200372891127472e+02 1.1267740569219731e+01 -1.2941016457108717e+02  1.1500913512470368e+02 3.7339677367585587e+01 -2.2050576920496357e+02  1.8493716193314680e+02 1.4255520175580877e+01 -9.0346784148132969e+01  9.3800206639650554e+01 7.6307960355126170e+01 -2.6481410141031667e+01  1.4448070684347238e+02 4.8108634082993731e+01 -5.4783746152279456e+00  1.1305625100680186e+02 8.4614310036712617e+00 2.1994860743193017e+00  2.9297827721022095e+01 4.3613198808566551e+00 4.1849947722558545e+00  3.0132061388177554e+01 1.9965911053301198e+01 9.7481270370295281e+00  4.8574711715037253e+01 1.9950097791123131e+01 -1.9305447259165931e+01  6.3641207215553720e+01 2.5895729207390101e+01 -1.9543192242016424e+01  7.9824599776438575e+01 3.2728512014599069e+01 -1.9286237075293474e+01  7.7902052542267683e+01 6.3718199342435973e+01 -2.7779332373712524e+01  3.2346208397201359e+01 5.0835156255255228e+01 -7.9444577240699346e+01  1.8158490787236040e+01 3.1464475159482220e+01 -5.3300237452169995e+01  2.2315040094777572e+01 1.9967101275337821e+01 -2.7078643283871475e+01  2.9103190051198357e+01 1.1564968566684854e+01 -1.3425238606480914e+01  2.7730418894959939e+01 2.2022987941886023e+00 -2.1455322788456943e+01  7.8578131724726319e+01 1.9481314588482228e+00 -9.6237835138527217e+01  6.3506223437516908e+01 -4.9401920033391313e+01 -5.6716989867162425e+01  9.8146487795417343e+01 -2.5975020076037325e+01 -1.1015793220041662e+02  1.3761300524093565e+02 4.7361764117043350e+01 2.8039756974120277e+01  1.1532398570990237e+02 3.8406835947270878e+01 1.6106569725086008e+01  5.1784661060962264e+01 1.8862754581953240e+01 -1.9454980556657141e+01  3.4112894719681385e+01 3.2879503135539579e+01 -3.8050091657431246e+01  1.3964230671480686e+02 3.0871294154317375e+00 -1.2443782261292782e+01  8.2654227410792899e+01 1.0056368027122948e+01 4.0390226735794499e+01  9.0661132519110467e+01 6.2558217304549935e+00 -3.0396743764690822e+01  1.7636941626260216e+02 7.2983060619905658e+00 -5.0626131875270353e+01  1.0825894189938342e+02 1.7022814839213205e+00 -1.0985924166095171e+02  4.7353062204052371e+01 2.7567126385108349e+01 -5.0475591918343149e+01  9.8333361937376964e+01 1.9889570839230259e+01 -1.8357058416190885e+01  6.2702567231223860e+01 5.4243010223463934e+01 -1.7314999416614047e+01  9.4132238052242855e+01 3.0026265006488497e+01 -4.9485455257895573e+01  6.3232762142349969e+01 -6.1689432506370929e+00 -9.6590741621128004e+01  1.1776824618819539e+02 -1.2497318620776140e+01 -9.6537904299747240e+01  1.1726525187389211e+02 -4.2402297174501928e+00 -8.1961249194881674e+01  1.3185481569233164e+02 2.2543212472218705e+01 -6.2694456133287868e-01  1.1187036018457056e+02 1.2448976331599744e+00 -2.1657596971237197e+01  1.1638170877241593e+02 9.7321168189223464e+00 -1.2142774115691960e+01  2.3436531452650552e+01 8.2088531398530847e+01 3.9091041501023867e+01  9.6671455216410145e+00 4.3255035748216962e+01 2.9768648642527104e+01  5.1872455703445489e+01 2.2092071191396247e+01 2.7455646294132630e-01  1.4292521678448676e+02 9.2188458996021055e+01 -2.5508960192050472e+02  6.1460024714104225e+02 3.9770946275434187e+00 -2.5435915386899597e+02  4.9409468723419644e+02 5.4002848819583114e+01 -2.1468268429622526e+02  2.3528080796889267e+02 3.0849325345054826e+01 -1.5881980359708683e+02  1.0305030913446573e+02 -2.3294229937755195e-01 -6.3723622113242136e+01  1.6176165431924321e+02 -2.8937677359396217e+00 -3.2573300860807045e+01  1.0654286920122331e+02 3.2117762340254536e+01 -6.1889865763844554e+01  8.7271361015128349e+01 3.3517510424300738e+00 -3.8722605790330100e+01  1.7632045450616491e+02 -4.4182437836851228e+01 -4.7827625748284689e+01  1.0718917716271081e+02 -4.6774717389708108e+01 -6.4995657033984977e-01  1.6878748919869588e+02 -4.4931560629750340e+00 -5.3872201013653559e+01  1.4624320210565680e+01 4.5413229352513788e+01 -9.5348746931237798e+01  5.1432564476124448e+01 9.6917223352128854e+00 -4.3823122090318670e+01  7.0802943464024779e+01 2.5863648641010045e+01 -2.1867205012852072e+01  6.1814368547999074e+01 5.1702737300171705e+01 -1.2276448897124666e+01  3.8207584129579431e+01 -5.9936423888649175e+00 1.6303239474021638e+01  5.2395094543638855e+01 -5.4909557702224081e+00 -1.5920859176143654e+01  8.1950845028613443e+01 4.2910554821043412e-01 9.2837381218694954e+00  5.8275208830943271e+01 3.6165421609879682e+00 1.7017450437058972e+01  2.0686225098858503e+02 8.5749768230630565e+01 -8.4511215259678050e+00  1.4301979606951329e+02 -7.0857564585011863e+00 1.0135226813030968e+01  1.9190617934723841e+02 -4.4968251367215466e+01 7.4309854600183399e+01  -1.3318108418545759e+01 8.8883997876826498e+01 -2.1074516775840578e+01  -2.0114301365518433e+01 1.2355161505872891e+02 -7.9133053886495588e+01  -3.1316972841084262e-01 6.4394863839922877e+01 -3.8612814094926449e+01  4.1252653671452663e+01 1.0119729610641149e+02 -8.6657048761933595e+01  1.1336265466510726e+02 1.3538342606697000e+02 5.5068265089504550e+01  9.4717261042700201e+01 1.2385244091911200e+02 6.6687667689906178e+01  4.3232642447143846e+01 1.1415352629199923e+02 -3.4074295108560166e+00  4.0185595772556482e+01 8.9027771884706624e+01 3.5591295341334522e+01  1.4426738854961803e+01 4.7366702425636149e+01 2.5293978776974640e+01  1.1202245505327414e+02 2.9447729287187054e+00 4.2834563607416314e+01  1.0591382489194574e+02 -3.1218921809478150e+01 3.7040514098870702e+01  8.8590542243146146e+01 -3.6983577467779710e+01 3.0610747865115830e+01  -6.9406663711551309e+00 2.0043116089260479e+01 -1.8741015574424345e+01  3.3542977620057762e+01 3.2314772200186091e+01 -2.4118916310614598e+01  1.1587207559890467e+02 4.1621390369990905e+01 -6.3669055527424320e+01  1.0481487763687147e+02 1.5230336931583472e+00 -3.4572817179440015e+01  7.2952988384340543e+01 8.4194172866910866e-01 -4.9680063536463663e+01  3.9606791444104850e+01 -5.1844568013444544e+01 -2.4435876370155558e+01  1.2829491447578630e+02 -5.9545073709025971e+01 -5.6817786057596471e+01  9.9355449105101258e+01 -9.1767961460384466e+00 -4.3132086122452833e+01  1.2044555390598161e+02 -2.3414799885467040e+01 -1.3370547684549859e+01  1.5151114274469799e+02 -6.9497057929591307e+01 5.1326252716681907e+01  1.7798944325394450e+02 -1.7916380492271305e+01 2.1403507519561682e+01  1.0496368013179837e+02 -4.56745029841