<?xml version="1.0"?>
<VTKFile type="UnstructuredGrid"  version="0.1"  >
<UnstructuredGrid>
<Piece  NumberOfPoints="836" NumberOfCells="2914">
<Points>
<DataArray  type="Float64"  NumberOfComponents="3"  format="ascii">16.149122 3.672678 37.782757  14.72326842306295 3.265603426180418 36.19030602550105  16.79023719230689 2.891759356658738 35.84726357452131  15.85018309259081 1.942365477292305 37.13623389180099  10.51291 7.247276 30.933645  11.21781 6.193903 32.045361  12.76567790433611 6.726706881266663 30.02045828118836  12.91539635621644 7.346261245557345 31.58454144398693  20.226061 16.045265 30.431065  18.601713 15.650207 30.505194  19.187529 17.158514 30.720884  18.56398782553488 16.35153669187024 29.43790809359852  9.84933 7.007512 27.981148  9.935086999999999 6.214814 29.478909  11.77346650996178 5.355761817708007 28.29224902408543  11.77663590449198 7.248714128864039 27.75349338451578  12.96057079973496 1.812941479876453 26.39009565268178  12.888739 -0.01335700000000001 27.144411  14.117166 0.7788 27.406471  11.98849440014846 1.215305510712507 27.66121167879347  14.355167 8.837975999999999 23.110584  13.515924 7.84622 23.319687  15.10908208559399 6.812652370939583 23.67344976001854  14.18582487643871 8.297034211828585 24.98487920945236  15.879499 9.88095 27.863424  14.30091457628605 10.78207968885675 27.88434519251815  14.40276155437471 9.185214808890127 28.14947118965172  15.219549 9.679304999999999 28.893991  15.74387577604608 3.962798641585733 30.13640682786296  13.81305534626726 3.927629864853467 31.53438666031925  13.66667036831898 3.896177550827705 28.99211531395149  13.83501033384415 2.212341582116292 30.16309813245089  13.13854127723309 11.1159699495441 25.00718419066072  11.884646 12.087271 23.012318  11.16199419227807 11.26452199530272 24.07112222411918  12.5947391777735 12.92134602632377 23.84462202154605  14.986993 8.247176 29.331005  15.890044 8.648165000000001 27.648249  19.363241 15.492702 28.212431  20.403065 16.309216 27.926426  18.88758713550765 17.5443077596264 28.55238054639297  15.68235515128978 5.107038462132977 31.92789327171167  15.53623219459277 2.323914371400798 31.74583243969741  16.827629 2.832532 38.375504  15.498169 2.828165 38.679195  12.819673 -0.01335700000000001 20.98237  13.868286 0.614493 20.405975  12.11834098176225 1.438854593917127 20.67862708788055  13.43139265238851 0.8278001050486369 21.50060384405296  13.425848 18.029024 23.109835  14.720148 17.577374 23.091503  13.08130061751723 18.00038007476514 24.92425460592401  13.85383485821176 16.30846832115598 23.8568315871984  16.036409 -0.01335700000000001 29.22187  16.162457 1.275841 27.867918  16.07652774258646 1.626292970632541 29.81485955006918  17.7947458093677 1.154972348732736 29.01566754297441  7.549423 12.012113 23.769033  6.99869 10.725326 24.075588  6.102786728417343 10.66711370769493 22.86139516827776  7.900880238691684 10.42923520661422 22.99384366107185  13.67393 6.052035 36.305897  14.30375 4.77475 37.149136  13.171934 5.289092 37.735195  12.81573730019057 4.424112893797746 36.3439561539121  12.606518 13.174052 22.527735  13.021832 11.549407 22.873644  14.25640540768064 12.56220990984307 23.23308371632143  18.01968 8.454967 32.949856  19.295193 8.086316999999999 33.929974  18.281731 8.968794000000001 34.292519  18.03215578408331 6.909264043749206 34.71681820235321  2.734245 3.858826 20.164335  3.279563 3.859145 19.106361  3.759705679514101 3.986724431482681 19.5737817055754  3.397803775553687 2.784263217453935 19.34558403347455  12.39782822373499 1.286820726895444 23.28261087964833  12.0387833448112 3.275848134547832 25.1656971007822  10.92555269273064 1.289807004565857 25.03475506615327  13.886288 1.028137 24.632292  17.931437 2.979185 26.335863  19.211294 1.868142 26.910799  19.763979 3.399659 26.33279  18.94539176783437 4.365936833900068 27.60170749214504  0.02680700000000003 1.870593 17.696362  1.105964 3.702955 17.237652  1.272646054608914 2.784040486114587 18.88978752074323  2.631242803230095 2.478889134565614 17.74103271252647  20.181494 2.044398 28.686712  19.990976 0.812921 27.105764  20.698074 2.091919 26.45159  20.824957 0.833987 27.673388  16.147785 8.475883 34.962025  16.943253 9.100009 33.855984  17.651175 8.677269000000001 35.397923  16.43240023892961 7.608514800303325 34.06879317411522  17.37359876980976 1.131456670282053 34.71896542162882  15.390971 0.982905 34.259563  16.15041859854896 1.488589590849748 35.55512169058549  16.36272048477175 1.809719798246245 33.55709065953827  14.39545470615699 13.48350767970017 21.86701846073533  15.548775 11.302593 22.038599  15.515731 13.387015 22.341211  16.9421598273907 3.904853614691131 32.29691975608508  16.62880751980563 4.921119360212113 34.7961549877984  15.2856214380263 3.496738783935652 33.55679431253883  16.200176 1.339491 38.725456  14.57580151043068 1.750044186216355 37.58902189782517  12.27898 3.756383 35.02018  14.2052555186122 4.565702780299599 34.85205620009433  13.03377710244934 5.663912849961119 34.51516455983888  14.74296701129281 13.96162180148304 19.95911381953646  13.73129 15.325843 20.655113  15.657637 13.950867 21.110855  10.03411894937148 9.998101402052269 25.00752535957305  10.153097 8.139186 24.969978  10.206678 8.770273 25.887905  8.971809 9.453787 24.876842  5.320633 4.819111 21.66165  4.96155 3.922868 22.54925  4.640513588864506 2.970885365371612 20.56208987222173  6.140153261453117 3.626024844112363 21.94455348563365  17.97505 17.98634 29.914734  17.79617006738408 16.04764562000086 28.63449410218604  16.629875 17.949091 29.219761  8.624292000000001 13.314419 29.9781  10.325294 13.896349 29.070602  9.658740999999999 13.814843 30.080687  9.317577999999999 12.377598 30.018343  12.89296476801291 9.423032441863963 26.75379499850295  10.75585804298391 9.273256976964714 27.68066330726107  12.85795082406823 10.7762854853457 28.59532663392059  11.84010943649126 11.66813327771063 27.685324453214  18.92009405781241 2.153359891910384 28.26191437282439  18.04733101439524 3.164118337908448 30.57379386139092  19.200922 1.32166 29.607376  19.661255 2.835945 30.168159  15.923925 4.568693 36.992428  17.626429 4.419434 37.510601  1.555053587185205 2.611930564471255 20.71090485837778  0.02680700000000003 2.664776 22.096937  0.637288 3.927063 21.346769  0.02680700000000003 2.274973 20.831421  14.85603217062856 17.28927352472288 25.314337496026  2.707785 3.529755 22.66572  1.479361730011364 2.897906920457269 22.96303270774423  2.814598869867977 1.650720911898391 22.28122893937234  2.784528579889439 1.700884328798009 24.04278141705315  9.685537 -0.01335700000000001 26.475393  9.757187999999999 -0.01335700000000001 25.651455  9.75328 1.502666 26.534555  10.869781 0.663247 27.020765  18.088448 0.7307900000000001 30.397224  19.106169 1.576915 31.415083  16.56499474164073 4.640513459505786 24.1349814399051  15.800555 2.937303 24.084852  14.38467493079553 3.406962300058315 24.47471038712979  14.60249628043873 4.552617141786505 23.11385209629463  10.368152 3.74903 24.848026  9.841035 3.658317 23.751951  10.794852 4.705935 24.41218  11.01500094640665 2.852050800887847 24.13076473785863  6.073363896330308 3.207151848793825 20.40096815887856  5.838818 0.850534 19.913553  4.951802232987822 1.842619381698154 21.51949065549542  12.925718 5.548075 21.928167  13.965431 6.569064 22.505558  13.03269640084955 5.285314324679685 24.32491085712836  13.482901 0.72478 19.173338  13.67239 1.733849 19.913219  12.791915 2.504715 19.221054  4.644227 3.130739 17.144991  3.843421 2.525573 16.10137  4.469658 1.809535 17.599207  3.474804 1.534418 16.758986  16.186552 6.123091 27.362888  17.80835750985737 5.713439298594804 25.70451587447736  16.97957939232564 4.358768274543224 26.5795476278003  15.60390334386168 5.219055710317488 25.29074162760794  10.204329 13.339395 20.082172  10.834328 11.797055 21.071053  10.32076 13.491693 21.75946  8.720427169185418 12.97838465655973 21.53892351900302  3.037839048403492 1.152717765311809 20.68936001343406  3.473571850343899 3.001306832433909 21.24379129428972  17.63428761866232 1.669839688404889 32.06672820657916  9.285644 2.676646 24.475405  11.132257 1.428137 30.443535  10.209116 2.321326 29.476372  11.079111 3.205237 30.618856  12.31184739060024 1.633356203910927 29.35395223524664  7.957528 1.815943 24.506544  8.609724999999999 0.64855 24.887966  7.73708169417117 0.294812099765785 24.40073580761038  7.696330321075723 1.264970565931965 23.61180822640547  14.3067929634029 5.265181031193097 30.10500487257019  9.014847027078877 14.29092886259292 29.07837239370453  15.050775 6.658691 29.645935  14.25114021378756 6.061493880329958 31.50826448772765  7.467476335346676 4.666684533839442 21.44108678891366  6.917232500000001 3.996554 22.998538  7.592638822398778 3.307426998665778 22.09468184443084  13.47041 -0.01335700000000001 28.63258  12.068295 -0.01335700000000001 28.414043  12.264795 -0.01335700000000001 29.743803  13.018875 1.380193 18.114077  14.319892 1.42086 21.061855  13.793472 3.173186 21.102999  13.61293435841783 1.810896091455919 22.02825089273092  11.963151 9.190581 23.875185  13.046397 9.006778000000001 23.832451  11.79912698994896 9.167236244075131 25.19947991231822  5.540937 3.186525 23.345285  7.409754 3.321508 23.290775  6.56496883476179 1.889881524437657 22.21575658168782  12.530186 -0.01335700000000001 25.566505  11.01094003830912 2.187962443710445 26.26601734315939  8.475446 13.57164 24.106218  8.822027 13.581199 25.635904  8.613507999999999 12.056052 24.878761  10.24561202944104 13.19731493603151 24.39829763452994  17.03801 -0.01335700000000001 33.074894  16.496307 -0.01335700000000001 31.873352  15.496925 0.698445 32.311268  11.597413 6.386635 21.89875  11.445709 7.820155 22.540047  9.790951606762693 6.087281449064607 21.93882812026424  11.36555083962657 6.072561013051988 23.48567844636484  11.990206 3.907558 19.498903  12.980768 3.18072 20.21422  19.47455760429176 6.14339236967905 24.5934036703683  17.75542517730079 7.151517260505958 24.07819132944936  18.0230201471423 7.550046548548571 25.74028623014584  19.573078
[...]
<PointData  Vectors="u"> 
<DataArray  type="Float64"  Name="u"  NumberOfComponents="3" format="ascii">2.4373221537322502e+02 2.7467996178067033e+01 -4.1088103547015372e+01  1.7842559348058745e+02 -2.2635762265938414e-01 -8.8132074570526356e+01  1.3752998831502069e+02 2.1105752367705691e+01 -1.1256648234648559e+01  1.8230817019185901e+02 1.3839306900874768e-02 -4.4064255788439013e+01  2.3043126631595331e-01 -5.6960248731920267e+00 -3.8105331547686396e+00  -3.8241378223564650e+00 -5.4990894647036406e+00 -5.2498832676742715e+01  3.0622349406172564e+01 -6.0846633628790956e+00 -6.3084967531553175e+00  3.2167048594885074e+01 9.3678370807389100e-01 -2.3303242573038634e+01  2.2758483150873110e+02 2.4350732233384303e+01 2.2343673110605991e+01  1.4229062950000088e+02 6.4259160858205291e+01 1.0710526196600272e+01  1.9664060066072238e+02 7.0133397146705818e+01 2.4835212340052440e+01  1.5449850450677667e+02 6.5895698044426055e+01 4.7442954291672393e+01  3.4255256353072111e-01 -1.6676851876837080e+01 3.5844795818212969e+00  2.8067368969238831e+00 -5.5352832355795725e+00 7.7572053746560243e+00  2.7114776078105482e+01 5.8155045285406244e+00 1.9426982726634833e+01  2.5691862123781494e+01 -5.2992968790076436e+00 1.7177221900279196e+01  6.4332522899032540e+01 2.8656682887187905e+01 7.2603483901781800e+01  3.5108067853418646e+01 -7.6428079514013199e+00 8.0447651642775938e+01  7.1340449711051022e+01 2.5899804963559678e+01 6.1690230923911535e+01  4.1869572645453978e+01 1.4165099225526721e+00 6.8663421618799674e+01  9.7934990340794570e+01 -1.0724267916984163e+01 -7.2451233780076450e+01  1.7041689596650701e+02 3.9354617229948893e+01 -3.0786235343390633e+01  1.2908698910784770e+02 1.9963793356543160e+01 -3.0857428106574666e+01  9.9970207732050511e+01 2.7245695810049058e+00 -6.0359795139859669e+00  5.2115627546916841e+01 9.5508485138400250e+00 -4.0849922638966206e+01  5.1864696975178894e+01 1.7101695282773147e+01 -1.0467965861789947e+01  3.9618149544778063e+01 5.4510060259385087e+00 -1.9029410744015912e+01  1.5499324228532620e+01 1.7519427218130573e+01 -4.0755452929031996e+01  7.3608739764540786e+01 -8.6782797442558941e+00 -1.5524465869337742e+01  4.5014279951276286e+01 -1.8077197240618794e+01 -1.9511255198074441e+01  5.5424315494820412e+01 -2.2948443161073837e-02 1.1056070696825358e+01  4.9694959899376229e+01 -3.7937506602054811e+00 9.2673225117944842e+00  9.1305539668218188e+01 1.0839187514041388e+01 1.3323632636172640e+01  2.2793192345326386e+02 4.9268012733115199e+01 4.6685052579230621e+01  1.3150084635129303e+02 2.4293833616739406e+01 8.2253528573043965e+01  1.1755410685104096e+02 2.9539629947744533e+01 3.1743720097161354e+00  7.0853545478892794e+00 -3.1518645521090516e+00 -1.8379996643343404e+01  6.7555391389456616e+01 -3.7122002403307257e+00 -6.4364791800406906e+01  2.8379741917532294e+02 1.0844010844572057e+02 1.0852370475416618e+02  2.4214050698748906e+02 -5.3225142689258229e+00 1.6873943048426558e+01  1.6428097998112534e+02 5.8625079825999734e+01 5.1387684156312950e+01  6.8286351099413764e+01 -9.1847242413994454e+00 -1.2818634518515253e+01  5.2043300754537654e+01 -1.1143027433801430e+01 -1.2362781765854388e+01  2.5649352975859858e+02 2.4783571349902488e+01 1.5070814427418052e+01  2.4886293399890283e+02 -1.0085482790272045e+00 -1.0639249892061422e+02  5.6092969067730721e+01 1.7109493681934254e+00 6.5177112597515119e+01  4.5417043965777509e+01 7.4995588406099607e+00 8.0062365277112505e+01  6.3581242122823831e+01 1.2105920550702880e+01 5.8717872054718420e+01  4.6601296503094645e+01 2.1427051605156802e+01 6.4394572270519959e+01  5.5542550511780583e+01 4.7785886433636421e+01 2.8536128472971418e+00  1.4797920285898011e+01 4.4585037785181612e+01 4.2162824105601771e+01  1.0473025701185489e+02 2.8788827909576341e+01 -3.1978314129409595e+00  5.6642837900135540e+01 3.8255020315690849e+01 6.8940009411837879e+00  6.7368032839073990e+01 -1.6059682179433221e+00 -1.2857081405726777e+01  1.1192464749895554e+02 -3.7624587432297578e+00 9.5703564452798429e-01  6.9363647624338853e+01 -4.7915594979531395e-01 -1.1889499990551037e+01  8.5223985236166214e+01 8.5552971226352632e+00 -4.5978515931369749e+01  2.9513263123922115e+02 5.4253499478534948e+01 1.1528630857499283e+02  4.5166505987349791e+02 3.6098584561365357e+01 -3.6361547138553063e+00  3.4472293042907194e+02 2.2301933881382705e+01 -1.0908773922495483e+02  2.2434334749889197e+02 -2.8696403022698744e+00 2.9794905997340074e+01  2.4149109257484434e+02 4.6766493204001073e+01 -1.6885150350656116e+02  2.5540016147701999e+02 -1.7453941200679077e+00 -1.3680103594613746e+02  2.1171351910159109e+02 -1.0538938682390962e+02 -2.2001782720523258e+02  1.9989653439250154e+02 -1.4025236936548438e+01 -1.5137519670141171e+02  9.8486687047658350e+01 2.3706302331292971e+01 -9.2389893298973931e+01  1.2135850438854359e+02 1.2763101960493353e+01 -6.1166067500650264e+01  5.4329057743858677e+01 9.4057513278700302e+00 -1.2238092069492177e+01  8.0114867755516741e+01 -8.8742231265646208e+00 5.5762517389945977e+01  1.1766701201500398e+02 -1.2502172915858580e+01 1.2294250048838271e+02  1.1174009917427466e+02 -1.7690728752976856e+01 8.8258544993176088e+01  1.3322087310212660e+02 1.9851480192553357e+01 6.2478360788388486e+01  2.1050838473003873e+02 2.8021163535441939e+01 -9.5775738733875926e+01  1.9695933641858997e+02 3.2286109445346458e+00 -3.8894787648566158e+01  2.3199872557344747e+02 4.5000872389043089e+01 -3.2672914304974661e+01  1.7204937368149422e+02 2.4921092841267765e+01 -6.2196752739395087e+01  7.6600483518943946e+01 3.0403955936121797e+01 7.5518320918403859e+01  8.1679012959553958e+01 3.9264088587039780e+01 8.2336727967911173e+01  9.9936696984730432e+01 2.8681862764908711e+01 9.4348369182908471e+01  5.9672591791703127e+01 5.9406874461054983e+01 8.3141478627962215e+01  1.4072152942119507e+02 1.7491632945981724e+01 1.3901795652874974e+01  1.7254042781951449e+02 1.5922317590741192e+01 -2.4807037794817123e+01  1.9183005322234857e+02 7.7705756378807473e+00 -4.2334569391635938e+01  1.5118032379331007e+02 3.6739064663695586e+01 -3.3840172208779677e+01  5.0709898170455297e+01 -2.5733786395181909e+01 -1.3956447565401604e+02  3.1161639907013889e+01 6.9708615334276658e+00 -1.0950714064344453e+02  1.1351472703758270e+02 -1.3501568281021418e+01 -1.0838610576870003e+02  8.1537218807181517e+01 8.5808720745926141e+00 -4.4686797338532379e+01  1.7606173608669479e+02 3.2730712916282286e+01 -1.1415178181890052e+02  2.0129891148606546e+02 5.4800058295107839e+01 -6.7147309276639604e+01  1.7655039263818799e+02 -8.4083239487408985e+00 -9.1585954337138332e+01  2.5234460629125627e+02 -3.5074682768954242e+00 -7.3688671597698843e+01  1.1322168761825058e+02 1.0834262273576625e+01 3.5695403680939656e+01  1.0012892987631741e+02 -2.5015857133160950e+00 4.4163196311860794e+01  1.4653490994739533e+02 -3.4761465240922956e-01 7.1700908524787067e+01  1.0632212754511926e+02 9.9949437991717947e+00 2.9643024511994778e+01  6.0490867203895952e+01 1.3600010426359917e+01 -6.8131219550241431e+00  3.8132008739688594e+01 -3.3599076559189093e+01 -6.0099752472927520e+01  1.0861010815409172e+02 -7.8610042477237361e+00 -4.1483738006619518e+01  5.4135940146004096e+01 -5.9142654953340879e+00 -2.3685270558275725e+01  2.1451570517346038e+01 1.1236447001032669e+01 -1.4530074346968350e+01  1.1653856464776300e+01 -1.2875493079115712e+00 -9.3222940276393871e+00  1.1047302611595420e+00 3.0062242435013262e+00 -6.7166651717347126e+00  6.6886008876290404e+01 2.9168800502021619e+00 -7.8660871992897032e+00  1.2617906029124123e+02 2.3668763237075694e+01 3.7469312037830491e+00  8.0842371191142462e+01 -1.2726298548626884e+01 -4.3878651389781467e+01  2.7400342750297989e+02 -1.6542285898536392e+01 -2.6985526050928051e+01  1.9645856240233564e+02 -8.3295448187340000e+00 -7.8975017640206119e+01  1.5020585827237275e+02 -3.6411802973037912e+00 -1.8833053338255249e+02  1.3882853912396254e+02 4.1312178697894053e+00 -9.0888339131789735e+01  1.2813881062888959e+02 2.0733968300842804e+01 -1.2929016639658815e+02  3.2344432314512048e+01 2.0132502801531707e+01 6.0663415559454084e+00  2.0357640584449843e+01 3.5643455788541502e+01 -7.7033973366454047e+00  9.1208857808755379e+00 1.5944893290694184e+01 -2.3138628624063578e+01  8.6975654597155454e+01 1.1960283324323974e+01 1.2003219152237105e+02  1.2730991361153363e+02 2.4314169448265734e+01 1.2000568217066395e+02  3.8512939474231878e+01 -1.9323891709834609e+01 1.2650997218724359e+02  1.5605613287220135e+02 4.0916974331223969e+01 1.6764621651710013e+02  2.1342590041950658e+02 1.8011983298132114e+02 -1.4760309499759417e+01  2.8063198324259656e+02 1.7355933911711267e+02 -7.1877193203571025e+01  2.1957530473604800e+02 6.1185472288387359e+01 -7.1531792146507740e+01  2.2033836531311917e+02 1.1348829972956077e+02 -3.3039665208927119e+01  1.4380500575543513e+02 4.1542756876283548e+01 2.8739507046067587e+01  1.3689333135579884e+02 8.5335660841111135e+01 7.2637066924702978e+01  1.3723170965381536e+02 4.9955500150829472e+01 4.5006442370124297e+01  6.4829277976722528e+00 -2.4690453817600968e+01 -5.1538730234974901e+00  1.9394194365346220e+01 -1.9891522916508567e+01 -1.3151185148006066e+01  9.7092281497186956e+00 -2.7039777890893529e+01 -1.3219077085725397e+01  1.2540280740586043e+01 -2.0834768882454675e+01 2.3918065471421454e-01  6.3770894458891831e+01 2.2532719761521163e+00 1.5515908416243580e+01  2.7529176554166828e+01 -1.0761139918888032e+01 2.8592564225009379e+01  4.4156470649656576e+01 7.6349087854903761e+00 -1.0714317000457123e+00  5.3980821641826800e+01 6.3421080012589846e+00 1.4546630888806330e+01  1.2359034726610264e+02 2.0496693179071201e+01 -6.7791590752469318e+01  5.7948160777608024e+01 6.1613416557503538e+00 -4.4912341942124996e+01  5.6631285758898883e+01 2.6107555201033918e+01 -9.5455503148827987e+01  4.4658639835085062e+01 2.3536440729849279e+01 -1.3031142612710741e+02  2.1949612626730735e+02 5.0432527843607389e+01 -3.2436137834451905e+01  1.9271317475012719e+02 6.1964064827669766e+01 4.7816834585070303e+01  1.2485896299780504e+02 -3.7282138590510733e+01 -1.8445165369534908e+02  5.2797010021897556e+01 -1.4148571020917296e+02 -3.5041809761056817e+02  1.8676399791873749e+01 -2.2892618034041359e+02 -4.1470449241113516e+02  2.6554641529814578e+01 -3.5957441050472944e+01 -1.2801840693668805e+02  8.9457131790111134e+01 5.4481275404022533e+01 4.1304939597957528e+01  3.9077290515084781e+02 -2.0817205793487636e+02 -3.5916360969921953e+02  1.7630812360790026e+02 -1.6493488100066108e+02 -2.6820698584660431e+02  2.0259527624060311e+02 -4.4720581081785426e+01 -2.0026499872291177e+02  2.5253353915223704e+02 -8.0275169584239976e+01 -2.7626902560083522e+02  7.0150170980178331e+01 1.7946415583962207e+01 1.5917096184886343e+00  5.4173555484730564e+01 8.7336172018727520e-01 8.3042412109527675e+01  9.6252705770207129e+01 7.8342976366081601e+01 1.2190257836003529e+02  9.3678038723347626e+01 2.1566897496949000e+01 1.1918337774189322e+02  4.5570719236811954e+01 1.5025941193966831e+01 -5.3365829202850819e+01  1.0840837935236060e+01 2.3538071246763348e+01 -3.2432577026519901e+01  1.5030763111007118e+02 2.8996868868658119e+01 -2.2386994687650724e+01  1.9027842826508061e+02 9.2256392127712900e+01 1.8928547093696992e+01  1.1910881672250704e+02 6.5890633803401172e+01 5.1300880076754893e+01  1.7705747291282793e+02 7.9754412783462598e+01 2.5168635844599581e+01  7.1879178499674254e+01 6.5135812457233214e+01 1.3939012994625190e+02  1.4489111263510554e+02 3.4572301955578851e+01 1.0827362287410341e+02  1.0453590826496806e+02 2.2696646222672918e+01 1.2491341477479219e+02  1.0435308261274281e+02 3.8546241595765629e+01 9.3935437185636076e+01  1.9221542707018546e+02 7.5267121164508865e+01 -3.7933528167816121e+01  2.1957308525257650e+02 6.1244225319915529e+01 -4.5648854096297832e+01  2.3376839595710032e+02 4.3900344021827124e+01 -7.9441004041929475e+01  1.8802918469460039e+02 5.6105806922897251e+01 8.8094339071905907e+01  2.1201450896834496e+02 9.1179363503348497e+01 -3.0526653517198081e+01  1.1584456623742857e+02 3.3954584038763279e+01 5.0455679551769400e+01  2.1339823664888588e+01 1.0481540653107809e+01 6.1683204942113129e+01  3.2968757005433901e+01 1.4120803275140386e+01 7.9214551464873907e+01  3.7725791629686718e+01 7.3363894662494167e-01 7.0409139116312858e+01  2.4852791077764491e+02 5.6216761906541535e+01 7.5896248168490857e+01  6.7434628777686099e+00 1.1002345547742609e+01 -3.2209550853614758e+01  1.7390654539211971e+02 7.1205773800611809e+01 2.8833371532970055e+01  2.7827661328355532e+01 3.6925687681024385e+01 -9.6647899897363860e+00  1.3601137935524301e+02 -1.1275106161883658e+01 -2.2531697192748776e+01  1.5293825455317022e+02 1.1130868332260839e+01 -4.1631964324197961e+00  1.3295770965860328e+02 2.3357048540442708e+01 -2.5902033650492720e+00  1.2440375927070762e+02 2.0070282499251384e+01 -1.1404960929344463e+00  4.0822277286017169e+01 -4.6316350476531113e+01 -2.1692217789293366e+01  6.1155377224489689e+00 -1.2744675250738789e+01 6.6609444129955293e+01  9.1595845534914488e+01 -1.5562271410986451e+01 1.5244387822364553e+02  1.2340399763030837e+02 -2.2553588425288186e+01 4.0325038206100260e+01  1.5193771686989152e+02 -6.7413351697918307e+00 -1.0637473725973524e+02  2.5755149784039304e+02 6.8384869447356067e+01 -1.4137927396370742e+02  3.9787603659011289e+01 1.1353493594846874e+01 -1.9530137218379341e+01  1.7022218533374880e+02 7.1828307690451695e+01 1.5493616647645439e+02  1.8924122183661130e+01 -8.0287363107997245e-01 1.7578376707571511e+01  9.8114638298188233e+00 1.5549154353157765e-01 2.9449537185141622e+01  1.6573695091390718e+01 -3.1601403044560095e+00 1.4656995631945861e+01  3.6336657595468857e+01 1.6964806747635155e+00 2.9760458464151430e+01  3.3226148237831080e+02 2.1414696834149215e+01 7.9647109800057990e+01  3.0409923116049703e+02 5.3953750143379997e+00 1.7765973331917655e+02  2.8308710786337400e+02 4.5668413886441726e+01 2.0383740594155714e+01  2.6210364389683372e+02 1.5549122966400407e+01 1.3719473733896873e+01  4.8498802910534039e+01 -1.5156327195180957e+01 -6.9189033389085388e+00  1.2317658962579207e+01 -1.8733794948476501e+01 -9.4640949701957595e+00  1.6224537019490185e+01 -3.0750996369408519e+01 8.3743394017371795e+00  5.0803258922468302e+01 -8.7987539195285382e+00 -1.4924218304708203e+01  1.3748595786441118e+02 8.4553784286967812e+01 8.9555413904135577e+00  2.0059731843975086e+02 1.3947431286682621e+02 -1.0337134829458607e+01  1.8441365935329756e+02 6.9825065331395166e+01 -7.1750276899220422e+00  4.7265230412707993e+01 9.9547737400464413e+00 4.3235848862893903e+01  2.0666509285518735e+01 -1.7109858988227135e+01 4.4903696512525130e+01  2.7765320757364073e+01 2.4249975141031627e-01 1.9675086073723996e+01  1.2721300523263018e+01 -4.1062010681971026e+00 4.8197562875491606e+01  2.3976032627106434e+01 2.5437240702935998e+01 7.5071498601002361e+01  7.5220007105273183e+01 7.4326636733419463e+01 1.1897933980739195e+02  6.0447905643723111e+01 5.4643654655373211e+01 8.5368438972900094e+01  1.6315258056444884e+02 1.1195612262514937e+01 7.2856088349785111e+01  1.4592700181427014e+02 9.7758249399226518e+00 -1.8688021160159700e+01  9.5633073418365427e+01 6.0245720496200530e+00 5.7457266304902589e+01  3.0753888470811813e+02 1.4256691020526128e+02 -9.6008076665260887e+01  2.2206830444845346e+02 6.5210473118645979e+01 -3.9213141659673546e+01  2.3961274597090070e+02 4.2274003678139636e+01 -3.8233554634299132e+01  5.4332445460377123e+01 1.0712875394532830e+01 9.7011941653139985e+01  6.5726268579617681e+01 3.7566916281885376e+01 1.0088988021493709e+02  1.5875212446481993e+02 2.8044567440994268e+01 2.0660349035797566e+02  -3.2347901939151096e+00 3.5257800540629674e+01 1.0299887566645516e+02  9.1403767418216887e+01 4.2510851761750189e+01 2.0982501811775177e+02  1.0361321213631838e+02 3.2189164800811568e+01 9.7041197836872669e+01  1.7531700043064554e+01 -3.3922770345078002e+00 -1.2323908704739534e+01  2.4166330098139248e+01 -8.7404526552531880e+00 -9.0339957095248895e+00  2.9465098780939950e+01 -2.1543195398895190e+01 -7.7528662290950088e+00  1.3164218903222363e+02 -8.5648443237874936e+00 1.1410564533345668e+02  1.1065619883271766e+02 -1.6146163897376734e+01 1.1406912360363160e+02  9.2257896747189974e+01 2.0629809463980592e+01 6.1665548020001623e+01  1.2893176815795340e+02 1.5640971999972960e+01 8.6755026764938250e+01  3.8777907491806424e+01 -4.5359033156984490e+00 7.2135518206776737e+01  6.8739738830113708e+01 2.2517386345276627e+01 1.0485464803968088e+02  1.7316380080970234e+02 4.9144915058244862e+00 -4.7632643771989294e+00  1.3455602941708926e+02 -3.3233556452543745e+01 -1.7282729323026434e+01  1.6198847763936681e+02 -6.3213223497812294e+01 4.1154712462569405e+00  8.0043077464353729e+01 9.1916997684364130e+00 1.0053546333081208e+02  4.9367918508894299e+01 -4.4729912368472995e+00 3.5231988239688775e+01  1.1350603940651186e+02 4.0095859938705907e+01 7.4630397693530938e+01  8.2234532702229075e+01 -1.8172099506147432e-01 2.3827348140670328e+01  1.4317499497590720e+02 2.1498903920127919e+01 7.5084736324983140e+01  1.1175864365085168e+02 2.1536779499301193e+01 -4.3417035270500826e+01  7.5170781397023362e+01 -3.6646688623296953e+01 -1.1411668245968484e+02  1.9926591582156047e+02 3.2053307651799114e+00 -1.2280784319207480e+02  4.5757204233793139e+01 1.1860598866998997e+01 7.2871296069564195e+01  1.9242822080710684e+02 1.3638038618598225e+00 -6.4064375314842579e+01  2.2728997684132460e+02 3.6261574028470257e+01 -5.7516208564664318e+01  1.6301699905169755e+02 2.9383768215904055e+01 -2.4279080422038721e+01  -3.5886425848618759e+00 7.2891877220088999e+00 1.0270018501740632e+01  -7.3693937745234166e+00 1.2940697704712138e+01 1.2877924822350741e+01  -7.0765807066819608e+00 4.1527483282202446e+01 4.7874427671945384e+01  3.2051504654473241e+01 1.8284538841379106e+01 5.0981725276332774e+01  4.9380105983667193e+01 2.2866154291291824e+01 5.1744853116138074e+01  1.9292536177843250e+01 1.9116176665335619e+01 -3.0297875788827149e+01  9.0229676509509833e+00 2.8615832256580454e+01 -1.4797930901181514e+01  4.3141283420857249e+01 2.6570156338403400e+01 6.0943056357736429e+00  6.8489855562880535e+01 7.3081789808997693e+00 1.2121626255280765e+01  3.8526751483125778e+01 -1.1155664072521914e+01 -3.4895300977227905e+00  3.1609768283763191e+01 -4.1838730777872781e+00 7.5081980103638401e+01  9.8926246915780780e+00 1.7616826665851370e+01 3.0702159604933261e+01  7.0333993967793074e+00 2.0452233505846923e+01 -1.7557896041230364e+01  6.0026249478659366e+01 2.9480259494620491e+01 1.9608504367710598e+01  1.2354958573779907e+01 -6.2605179140408289e+00 -3.1325574773104666e+01  3.0690145548160412e+01 -8.6420286878108132e-01 -2.8463761982497143e+01  4.2312227806427060e+01 -1.2602573071723391e+01 8.9379552469414975e+01  1.5961716203725763e+02 9.5591858989272627e+00 8.1049326282712272e+01  9.1478290770684197e+01 9.6574074953635911e+00 3.9598132912300287e+01  1.0561704705784801e+02 3.8787541769098199e-01 6.2872679318461145e+01  1.2965332332136563e+02 1.2048220386477201e+01 9.7178267662958433e+01  1.4596596014214907e+02 -2.9923308368381996e+01 -1.2710595063310056e+02  1.7111413753805104e+02 -2.7377835232096235e+01 -1.0929326274170297e+02  2.4057327909739240e+02 8.2833979134186194e+01 -2.8013980270784000e+01  2.0781747378088372e+02 6.0764164791440429e+01 -3.5727621312696023e+01  2.2094233372916756e+02 6.3003510420572454e+01 -5.6355007127751435e+01  1.4896962846523709e+02 5.1289353318665661e+01 5.1875997502106394e+01  1.2982223363995519e+02 9.3427396440775127e+01 7.9436770313312309e+01  1.2257715721694333e+02 5.5204166413139632e+01 2.8265486974932891e+01  1.4370258751133596e+02 5.4576906313436211e+01 6.2574334065319661e+01  1.7883542474858530e+01 2.6019828662226985e+00 -1.3058182718023922e+01  4.1575702515049016e+01 -2.0027981479186362e+01 9.7052145200549322e+00  5.1246577211027578e+01 -1.1878177961116205e+00 -1.0882057604167970e+01  2.7882692116123781e+01 -8.9296728959202287e-01 -9.4537921364191586e+00  2.2309199994351229e+02 5.7840061873338932e+01 9.7869918602009122e+01  1.4725131868528337e+02 6.4996594349794236e+01 -3.8793436851647