<?xml version="1.0"?>
<VTKFile type="UnstructuredGrid"  version="0.1"  >
<UnstructuredGrid>
<Piece  NumberOfPoints="9261" NumberOfCells="48000">
<Points>
<DataArray  type="Float64"  NumberOfComponents="3"  format="ascii">0 0 0  5 0 0  10 0 0  15 0 0  20 0 0  25 0 0  30 0 0  35 0 0  40 0 0  45 0 0  50 0 0  0 5 0  5 5 0  10 5 0  15 5 0  20 5 0  25 5 0  30 5 0  35 5 0  40 5 0  45 5 0  50 5 0  0 10 0  5 10 0  10 10 0  15 10 0  20 10 0  25 10 0  30 10 0  35 10 0  40 10 0  45 10 0  50 10 0  0 15 0  5 15 0  10 15 0  15 15 0  20 15 0  25 15 0  30 15 0  35 15 0  40 15 0  45 15 0  50 15 0  0 20 0  5 20 0  10 20 0  15 20 0  20 20 0  25 20 0  30 20 0  35 20 0  40 20 0  45 20 0  50 20 0  0 25 0  5 25 0  10 25 0  15 25 0  20 25 0  25 25 0  30 25 0  35 25 0  40 25 0  45 25 0  50 25 0  0 30 0  5 30 0  10 30 0  15 30 0  20 30 0  25 30 0  30 30 0  35 30 0  40 30 0  45 30 0  50 30 0  0 35 0  5 35 0  10 35 0  15 35 0  20 35 0  25 35 0  30 35 0  35 35 0  40 35 0  45 35 0  50 35 0  0 40 0  5 40 0  10 40 0  15 40 0  20 40 0  25 40 0  30 40 0  35 40 0  40 40 0  45 40 0  50 40 0  0 45 0  5 45 0  10 45 0  15 45 0  20 45 0  25 45 0  30 45 0  35 45 0  40 45 0  45 45 0  50 45 0  0 50 0  5 50 0  10 50 0  15 50 0  20 50 0  25 50 0  30 50 0  35 50 0  40 50 0  45 50 0  50 50 0  0 0 5  5 0 5  10 0 5  15 0 5  20 0 5  25 0 5  30 0 5  35 0 5  40 0 5  45 0 5  50 0 5  0 5 5  5 5 5  10 5 5  15 5 5  20 5 5  25 5 5  30 5 5  35 5 5  40 5 5  45 5 5  50 5 5  0 10 5  5 10 5  10 10 5  15 10 5  20 10 5  25 10 5  30 10 5  35 10 5  40 10 5  45 10 5  50 10 5  0 15 5  5 15 5  10 15 5  15 15 5  20 15 5  25 15 5  30 15 5  35 15 5  40 15 5  45 15 5  50 15 5  0 20 5  5 20 5  10 20 5  15 20 5  20 20 5  25 20 5  30 20 5  35 20 5  40 20 5  45 20 5  50 20 5  0 25 5  5 25 5  10 25 5  15 25 5  20 25 5  25 25 5  30 25 5  35 25 5  40 25 5  45 25 5  50 25 5  0 30 5  5 30 5  10 30 5  15 30 5  20 30 5  25 30 5  30 30 5  35 30 5  40 30 5  45 30 5  50 30 5  0 35 5  5 35 5  10 35 5  15 35 5  20 35 5  25 35 5  30 35 5  35 35 5  40 35 5  45 35 5  50 35 5  0 40 5  5 40 5  10 40 5  15 40 5  20 40 5  25 40 5  30 40 5  35 40 5  40 40 5  45 40 5  50 40 5  0 45 5  5 45 5  10 45 5  15 45 5  20 45 5  25 45 5  30 45 5  35 45 5  40 45 5  45 45 5  50 45 5  0 50 5  5 50 5  10 50 5  15 50 5  20 50 5  25 50 5  30 50 5  35 50 5  40 50 5  45 50 5  50 50 5  0 0 10  5 0 10  10 0 10  15 0 10  20 0 10  25 0 10  30 0 10  35 0 10  40 0 10  45 0 10  50 0 10  0 5 10  5 5 10  10 5 10  15 5 10  20 5 10  25 5 10  30 5 10  35 5 10  40 5 10  45 5 10  50 5 10  0 10 10  5 10 10  10 10 10  15 10 10  20 10 10  25 10 10  30 10 10  35 10 10  40 10 10  45 10 10  50 10 10  0 15 10  5 15 10  10 15 10  15 15 10  20 15 10  25 15 10  30 15 10  35 15 10  40 15 10  45 15 10  50 15 10  0 20 10  5 20 10  10 20 10  15 20 10  20 20 10  25 20 10  30 20 10  35 20 10  40 20 10  45 20 10  50 20 10  0 25 10  5 25 10  10 25 10  15 25 10  20 25 10  25 25 10  30 25 10  35 25 10  40 25 10  45 25 10  50 25 10  0 30 10  5 30 10  10 30 10  15 30 10  20 30 10  25 30 10  30 30 10  35 30 10  40 30 10  45 30 10  50 30 10  0 35 10  5 35 10  10 35 10  15 35 10  20 35 10  25 35 10  30 35 10  35 35 10  40 35 10  45 35 10  50 35 10  0 40 10  5 40 10  10 40 10  15 40 10  20 40 10  25 40 10  30 40 10  35 40 10  40 40 10  45 40 10  50 40 10  0 45 10  5 45 10  10 45 10  15 45 10  20 45 10  25 45 10  30 45 10  35 45 10  40 45 10  45 45 10  50 45 10  0 50 10  5 50 10  10 50 10  15 50 10  20 50 10  25 50 10  30 50 10  35 50 10  40 50 10  45 50 10  50 50 10  0 0 15  5 0 15  10 0 15  15 0 15  20 0 15  25 0 15  30 0 15  35 0 15  40 0 15  45 0 15  50 0 15  0 5 15  5 5 15  10 5 15  15 5 15  20 5 15  25 5 15  30 5 15  35 5 15  40 5 15  45 5 15  50 5 15  0 10 15  5 10 15  10 10 15  15 10 15  20 10 15  25 10 15  30 10 15  35 10 15  40 10 15  45 10 15  50 10 15  0 15 15  5 15 15  10 15 15  15 15 15  20 15 15  25 15 15  30 15 15  35 15 15  40 15 15  45 15 15  50 15 15  0 20 15  5 20 15  10 20 15  15 20 15  20 20 15  25 20 15  30 20 15  35 20 15  40 20 15  45 20 15  50 20 15  0 25 15  5 25 15  10 25 15  15 25 15  20 25 15  25 25 15  30 25 15  35 25 15  40 25 15  45 25 15  50 25 15  0 30 15  5 30 15  10 30 15  15 30 15  20 30 15  25 30 15  30 30 15  35 30 15  40 30 15  45 30 15  50 30 15  0 35 15  5 35 15  10 35 15  15 35 15  20 35 15  25 35 15  30 35 15  35 35 15  40 35 15  45 35 15  50 35 15  0 40 15  5 40 15  10 40 15  15 40 15  20 40 15  25 40 15  30 40 15  35 40 15  40 40 15  45 40 15  50 40 15  0 45 15  5 45 15  10 45 15  15 45 15  20 45 15  25 45 15  30 45 15  35 45 15  40 45 15  45 45 15  50 45 15  0 50 15  5 50 15  10 50 15  15 50 15  20 50 15  25 50 15  30 50 15  35 50 15  40 50 15  45 50 15  50 50 15  0 0 20  5 0 20  10 0 20  15 0 20  20 0 20  25 0 20  30 0 20  35 0 20  40 0 20  45 0 20  50 0 20  0 5 20  5 5 20  10 5 20  15 5 20  20 5 20  25 5 20  30 5 20  35 5 20  40 5 20  45 5 20  50 5 20  0 10 20  5 10 20  10 10 20  15 10 20  20 10 20  25 10 20  30 10 20  35 10 20  40 10 20  45 10 20  50 10 20  0 15 20  5 15 20  10 15 20  15 15 20  20 15 20  25 15 20  30 15 20  35 15 20  40 15 20  45 15 20  50 15 20  0 20 20  5 20 20  10 20 20  15 20 20  20 20 20  25 20 20  30 20 20  35 20 20  40 20 20  45 20 20  50 20 20  0 25 20  5 25 20  10 25 20  15 25 20  20 25 20  25 25 20  30 25 20  35 25 20  40 25 20  45 25 20  50 25 20  0 30 20  5 30 20  10 30 20  15 30 20  20 30 20  25 30 20  30 30 20  35 30 20  40 30 20  45 30 20  50 30 20  0 35 20  5 35 20  10 35 20  15 35 20  20 35 20  25 35 20  30 35 20  35 35 20  40 35 20  45 35 20  50 35 20  0 40 20  5 40 20  10 40 20  15 40 20  20 40 20  25 40 20  30 40 20  35 40 20  40 40 20  45 40 20  50 40 20  0 45 20  5 45 20  10 45 20  15 45 20  20 45 20  25 45 20  30 45 20  35 45 20  40 45 20  45 45 20  50 45 20  0 50 20  5 50 20  10 50 20  15 50 20  20 50 20  25 50 20  30 50 20  35 50 20  40 50 20  45 50 20  50 50 20  0 0 25  5 0 25  10 0 25  15 0 25  20 0 25  25 0 25  30 0 25  35 0 25  40 0 25  45 0 25  50 0 25  0 5 25  5 5 25  10 5 25  15 5 25  20 5 25  25 5 25  30 5 25  35 5 25  40 5 25  45 5 25  50 5 25  0 10 25  5 10 25  10 10 25  15 10 25  20 10 25  25 10 25  30 10 25  35 10 25  40 10 25  45 10 25  50 10 25  0 15 25  5 15 25  10 15 25  15 15 25  20 15 25  25 15 25  30 15 25  35 15 25  40 15 25  45 15 25  50 15 25  0 20 25  5 20 25  10 20 25  15 20 25  20 20 25  25 20 25  30 20 25  35 20 25  40 20 25  45 20 25  50 20 25  0 25 25  5 25 25  10 25 25  15 25 25  20 25 25  25 25 25  30 25 25  35 25 25  40 25 25  45 25 25  50 25 25  0 30 25  5 30 25  10 30 25  15 30 25  20 30 25  25 30 25  30 30 25  35 30 25  40 30 25  45 30 25  50 30 25  0 35 25  5 35 25  10 35 25  15 35 25  20 35 25  25 35 25  30 35 25  35 35 25  40 35 25  45 35 25  50 35 25  0 40 25  5 40 25  10 40 25  15 40 25  20 40 25  25 40 25  30 40 25  35 40 25  40 40 25  45 40 25  50 40 25  0 45 25  5 45 25  10 45 25  15 45 25  20 45 25  25 45 25  30 45 25  35 45 25  40 45 25  45 45 25  50 45 25  0 50 25  5 50 25  10 50 25  15 50 25  20 50 25  25 50 25  30 50 25  35 50 25  40 50 25  45 50 25  50 50 25  0 0 30  5 0 30  10 0 30  15 0 30  20 0 30  25 0 30  30 0 30  35 0 30  40 0 30  45 0 30  50 0 30  0 5 30  5 5 30  10 5 30  15 5 30  20 5 30  25 5 30  30 5 30  35 5 30  40 5 30  45 5 30  50 5 30  0 10 30  5 10 30  10 10 30  15 10 30  20 10 30  25 10 30  30 10 30  35 10 30  40 10 30  45 10 30  50 10 30  0 15 30  5 15 30  10 15 30  15 15 30  20 15 30  25 15 30  30 15 30  35 15 30  40 15 30  45 15 30  50 15 30  0 20 30  5 20 30  10 20 30  15 20 30  20 20 30  25 20 30  30 20 30  35 20 30  40 20 30  45 20 30  50 20 30  0 25 30  5 25 30  10 25 30  15 25 30  20 25 30  25 25 30  30 25 30  35 25 30  40 25 30  45 25 30  50 25 30  0 30 30  5 30 30  10 30 30  15 30 30  20 30 30  25 30 30  30 30 30  35 30 30  40 30 30  45 30 30  50 30 30  0 35 30  5 35 30  10 35 30  15 35 30  20 35 30  25 35 30  30 35 30  35 35 30  40 35 30  45 35 30  50 35 30  0 40 30  5 40 30  10 40 30  15 40 30  20 40 30  25 40 30  30 40 30  35 40 30  40 40 30  45 40 30  50 40 30  0 45 30  5 45 30  10 45 30  15 45 30  20 45 30  25 45 30  30 45 30  35 45 30  40 45 30  45 45 30  50 45 30  0 50 30  5 50 30  10 50 30  15 50 30  20 50 30  25 50 30  30 50 30  35 50 30  40 50 30  45 50 30  50 50 30  0 0 35  5 0 35  10 0 35  15 0 35  20 0 35  25 0 35  30 0 35  35 0 35  40 0 35  45 0 35  50 0 35  0 5 35  5 5 35  10 5 35  15 5 35  20 5 35  25 5 35  30 5 35  35 5 35  40 5 35  45 5 35  50 5 35  0 10 35  5 10 35  10 10 35  15 10 35  20 10 35  25 10 35  30 10 35  35 10 35  40 10 35  45 10 35  50 10 35  0 15 35  5 15 35  10 15 35  15 15 35  20 15 35  25 15 35  30 15 35  35 15 35  40 15 35  45 15 35  50 15 35  0 20 35  5 20 35  10 20 35  15 20 35  20 20 35  25 20 35  30 20 35  35 20 35  40 20 35  45 20 35  50 20 35  0 25 35  5 25 35  10 25 35  15 25 35  20 25 35  25 25 35  30 25 35  35 25 35  40 25 35  45 25 35  50 25 35  0 30 35  5 30 35  10 30 35  15 30 35  20 30 35  25 30 35  30 30 35  35 30 35  40 30 35  45 30 35  50 30 35  0 35 35  5 35 35  10 35 35  15 35 35  20 35 35  25 35 35  30 35 35  35 35 35  40 35 35  45 35 35  50 35 35  0 40 35  5 40 35  10 40 35  15 40 35  20 40 35  25 40 35  30 40 35  35 40 35  40 40 35  45 40 35  50 40 35  0 45 35  5 45 35  10 45 35  15 45 35  20 45 35  25 45 35  30 45 35  35 45 35  40 45 35  45 45 35  50 45 35  0 50 35  5 50 35  10 50 35  15 50 35  20 50 35  25 50 35  30 50 35  35 50 35  40 50 35  45 50 35  50 50 35  0 0 40  5 0 40  10 0 40  15 0 40  20 0 40  25 0 40  30 0 40  35 0 40  40 0 40  45 0 40  50 0 40  0 5 40  5 5 40  10 5 40  15 5 40  20 5 40  25 5 40  30 5 40  35 5 40  40 5 40  45 5 40  50 5 40  0 10 40  5 10 40  10 10 40  15 10 40  20 10 40  25 10 40  30 10 40  35 10 40  40 10 40  45 10 40  50 10 40  0 15 40  5 15 40  10 15 40  15 15 40  20 15 40  25 15 40  30 15 40  35 15 40  40 15 40  45 15 40  50 15 40  0 20 40  5 20 40  10 20 40  15 20 40  20 20 40  25 20 40  30 20 40  35 20 40  40 20 40  45 20 40  50 20 40  0 25 40  5 25 40  10 25 40  15 25 40  20 25 40  25 25 40  30 25 40  35 25 40  40 25 40  45 25 40  50 25 40  0 30 40  5 30 40  10 30 40  15 30 40  20 30 40  25 30 40  30 30 40 
[...]
<PointData  Vectors="u"> 
<DataArray  type="Float64"  Name="u"  NumberOfComponents="3" format="ascii">2.0000000000041135e+02 4.1081842438852338e-10 3.9384244845203422e-10  1.9999999999918242e+02 4.0072685798435538e-10 3.7885067235055916e-10  1.9999999999822251e+02 4.3991342272235414e-10 4.6585162004849933e-10  1.9999999999734254e+02 3.4663401685600472e-10 3.8870425682208584e-10  1.9999999999644808e+02 3.8974880747750471e-10 3.8883476678217880e-10  1.9999999999558716e+02 3.6356590292009460e-10 3.5834125307906078e-10  1.9999999999475847e+02 3.7174040784143406e-10 3.3202719627188703e-10  1.9999999999392912e+02 3.3572072133270823e-10 3.3299749778044288e-10  1.9999999999313971e+02 3.2248140163535028e-10 3.2337796077138530e-10  1.9999999999235013e+02 3.1086615456497901e-10 3.0017055392831111e-10  1.9999999999158956e+02 1.5100041564053763e-10 1.5587074355144750e-10  2.0000000000042567e+02 8.4942376791985623e-11 4.0497716962409856e-10  1.9999999999917506e+02 8.8053134235511241e-11 3.4212145148711265e-10  1.9999999999826679e+02 1.0545017306684254e-10 3.9367835302859445e-10  1.9999999999732879e+02 9.0001266729448726e-11 3.3657074032866212e-10  1.9999999999643478e+02 5.8529551384805025e-11 3.0062326188072187e-10  1.9999999999561086e+02 7.4486695699775183e-11 3.3406144451345733e-10  1.9999999999470703e+02 1.0119786248495423e-10 3.1216384759574777e-10  1.9999999999395058e+02 9.5097911603499255e-11 3.3752787835996801e-10  1.9999999999313522e+02 4.2612685579924418e-11 3.1486003817387551e-10  1.9999999999232074e+02 7.3384846741506662e-11 2.7789770960024183e-10  1.9999999999153397e+02 3.4536770165839839e-11 1.5104373123215063e-10  2.0000000000040055e+02 9.2385836617253357e-11 4.0806966678568439e-10  1.9999999999916884e+02 1.1609481957624600e-10 3.3766775100895587e-10  1.9999999999824610e+02 5.3477517463084271e-11 3.5301075545052419e-10  1.9999999999732583e+02 5.8332786933811677e-11 3.6395415938134929e-10  1.9999999999643754e+02 4.6902024437728412e-11 3.5010212011382780e-10  1.9999999999558068e+02 5.4104102872464675e-11 3.3792440861817313e-10  1.9999999999474795e+02 5.1552444360907685e-11 3.1437535262313300e-10  1.9999999999392807e+02 3.0955034577178919e-11 3.2747719604439070e-10  1.9999999999311089e+02 5.5360250880609241e-11 3.2700850927624599e-10  1.9999999999224482e+02 9.9983555898463048e-12 2.8473809050923427e-10  1.9999999999159209e+02 3.7347418875364111e-11 1.6377414415997873e-10  2.0000000000037628e+02 6.2070722839080822e-11 3.7342254422758919e-10  1.9999999999918236e+02 2.8938280969709982e-11 3.5837342682299454e-10  1.9999999999819622e+02 6.0400799272432977e-11 3.4567698427649929e-10  1.9999999999733913e+02 6.7225233567522122e-11 3.5480519112505840e-10  1.9999999999641503e+02 4.9422799043099350e-11 3.0634896047302659e-10  1.9999999999559239e+02 3.9766640283902663e-11 3.4474517766396286e-10  1.9999999999476839e+02 5.1657142466931511e-11 3.1677129588416675e-10  1.9999999999394302e+02 3.9922287736423472e-11 3.2874151693519031e-10  1.9999999999306831e+02 5.5407338705561254e-12 3.5918785008151086e-10  1.9999999999233194e+02 5.1298271818617164e-11 3.4318950553878807e-10  1.9999999999154119e+02 1.4766371459857649e-11 1.4759282351347274e-10  2.0000000000033720e+02 7.7083560186449037e-11 4.0665331611276727e-10  1.9999999999917810e+02 6.1557679057621973e-11 3.8691952414343266e-10  1.9999999999822870e+02 2.0149038399402912e-11 3.5825151680223698e-10  1.9999999999731943e+02 -1.7941091320529316e-11 3.8779173086558404e-10  1.9999999999643919e+02 2.4774477277246114e-12 3.0141630638549150e-10  1.9999999999562019e+02 4.2220425447064028e-11 3.5940675810367060e-10  1.9999999999475142e+02 3.9571747123933336e-11 3.4116016147743952e-10  1.9999999999392929e+02 2.8881073903472466e-11 3.8485887528976231e-10  1.9999999999312487e+02 4.7174458080145638e-11 3.8440865200607207e-10  1.9999999999233478e+02 3.7225369240256579e-11 2.8377903781664027e-10  1.9999999999153223e+02 1.6307030755502673e-11 1.4650811532069273e-10  2.0000000000037514e+02 5.9363931815610621e-11 3.8792481905772828e-10  1.9999999999918003e+02 1.4841130130212675e-11 3.6988018014878750e-10  1.9999999999822012e+02 3.2283785636240500e-11 3.4631429314354503e-10  1.9999999999730701e+02 4.0328195693708846e-11 3.8037224440396495e-10  1.9999999999638135e+02 -1.2122518287565246e-11 2.9462043701310582e-10  1.9999999999563946e+02 7.2517253998770369e-12 3.2652926168105426e-10  1.9999999999470336e+02 7.4603685593171444e-11 3.7302719756751715e-10  1.9999999999390957e+02 4.0888619326620166e-11 3.1713732383700022e-10  1.9999999999309824e+02 6.8697969021169403e-11 2.8563808417447769e-10  1.9999999999235393e+02 1.2657315151486406e-11 2.8629075688367513e-10  1.9999999999155997e+02 1.6743957602001808e-11 1.6667024395373617e-10  2.0000000000039225e+02 7.2178694308381332e-11 3.5892753630970882e-10  1.9999999999916744e+02 1.5296050207958336e-11 3.5075178399269548e-10  1.9999999999823393e+02 3.3759689977582013e-11 3.7983931500641241e-10  1.9999999999735732e+02 5.5873990769027346e-11 3.8758424583470827e-10  1.9999999999637799e+02 7.4524056118282608e-11 3.8735903326145938e-10  1.9999999999561459e+02 6.8252220825900847e-11 3.4289563793743325e-10  1.9999999999470691e+02 7.7411346297046266e-11 3.8397610069825009e-10  1.9999999999390806e+02 3.5462900556625111e-11 3.5237504599677407e-10  1.9999999999309372e+02 4.5070702946172939e-11 3.7387353813081115e-10  1.9999999999234905e+02 4.9324044634230465e-11 3.2179199957888168e-10  1.9999999999152072e+02 1.5724655684226478e-11 1.6889151111922712e-10  2.0000000000038833e+02 4.3188168077605139e-11 3.7193705077789419e-10  1.9999999999915178e+02 3.8973270594605771e-11 3.7811480137830105e-10  1.9999999999825076e+02 5.4611425116363194e-11 3.2176647970714270e-10  1.9999999999733143e+02 3.5699295135233455e-11 3.9253811924232367e-10  1.9999999999641267e+02 1.7092160329732880e-11 3.9088185174561922e-10  1.9999999999560021e+02 3.7233778407376442e-11 3.4562137439536873e-10  1.9999999999472817e+02 9.2326195452564071e-11 3.4931976761435554e-10  1.9999999999391255e+02 7.8102748038350759e-11 3.2779277404856721e-10  1.9999999999307786e+02 7.0739410341753730e-11 3.2392529257031708e-10  1.9999999999240725e+02 6.8298357334641398e-11 2.7521062919960354e-10  1.9999999999152502e+02 1.5324556727703434e-11 1.5655341122275261e-10  2.0000000000038489e+02 3.7853957833834247e-11 3.8392559120411331e-10  1.9999999999916088e+02 5.4891851700485668e-11 3.6655282754422461e-10  1.9999999999824584e+02 5.0688136632138079e-11 3.7440311168828842e-10  1.9999999999732245e+02 5.2605244522402240e-11 3.8018165609690560e-10  1.9999999999647559e+02 9.0194852074585089e-11 3.4780174659993439e-10  1.9999999999558099e+02 7.9708872920659967e-11 3.2112722463233926e-10  1.9999999999477896e+02 6.3144772340080397e-11 3.1244883082142768e-10  1.9999999999395416e+02 4.3372206073620853e-11 3.1653284198661716e-10  1.9999999999314599e+02 3.2322567764858337e-11 3.3510592829541579e-10  1.9999999999229249e+02 2.1547001502421025e-11 3.2117090317365747e-10  1.9999999999154934e+02 2.1870682148454932e-11 1.4627679087408613e-10  2.0000000000038963e+02 4.8944745314702370e-11 3.7810501368345155e-10  1.9999999999917404e+02 2.1992224054619877e-11 3.8074770179960033e-10  1.9999999999825647e+02 1.3312116679773388e-11 3.7514081081782375e-10  1.9999999999731972e+02 3.8303862054053861e-11 3.7854609067330486e-10  1.9999999999645510e+02 6.8223929401468670e-11 3.6458784082730027e-10  1.9999999999558435e+02 4.0724127390650908e-11 3.4815733275483597e-10  1.9999999999475116e+02 4.8779846711156227e-11 3.2644427904362536e-10  1.9999999999388780e+02 1.6551278125715761e-11 2.8328441113236267e-10  1.9999999999314772e+02 3.0789718525466028e-11 2.7922209023539089e-10  1.9999999999231881e+02 2.5512699810258761e-11 2.6287841318082123e-10  1.9999999999154056e+02 1.3383670191551165e-11 1.5660107776658594e-10  2.0000000000039824e+02 -2.7589818452240223e-10 3.8944811184227416e-10  1.9999999999915494e+02 -2.7179236664835914e-10 3.5805327216993893e-10  1.9999999999822452e+02 -2.6074994992021237e-10 3.6727922814873342e-10  1.9999999999732540e+02 -2.5152410519419219e-10 3.5751531013814487e-10  1.9999999999643643e+02 -2.6618504905821839e-10 3.4327985159688332e-10  1.9999999999557832e+02 -2.6481410098575683e-10 3.6569492587230127e-10  1.9999999999474994e+02 -2.5166043311706650e-10 3.4451869936821513e-10  1.9999999999391463e+02 -2.3727386053643136e-10 3.5836291053051578e-10  1.9999999999312706e+02 -2.1990802816081530e-10 3.1697955440037415e-10  1.9999999999231827e+02 -2.1925954433026923e-10 3.0473118255675435e-10  1.9999999999151717e+02 -6.4816400123082839e-11 1.4097105885265246e-10  2.0000000000036917e+02 3.7750086022103889e-10 8.9517991236101259e-11  1.9999999999919228e+02 3.5146252445379074e-10 1.3766662314241093e-10  1.9999999999823206e+02 4.2306990419480808e-10 8.7648763990904154e-11  1.9999999999732745e+02 3.3896010304871163e-10 6.8144655180518277e-11  1.9999999999644555e+02 3.4090125401634638e-10 5.2214334355820517e-11  1.9999999999560015e+02 3.2030797384707543e-10 6.3424587346797505e-11  1.9999999999472882e+02 3.1233896832609238e-10 7.6696312147550740e-11  1.9999999999393580e+02 2.8723787895872100e-10 7.4265739121221155e-11  1.9999999999312197e+02 3.4065475013432304e-10 6.6896360947112084e-11  1.9999999999232017e+02 2.8810831959643974e-10 7.5583215354258347e-11  1.9999999999156040e+02 1.4335189766861286e-10 3.8557927900767834e-11  2.0000000000038037e+02 7.4416255955559732e-11 7.9182624627210663e-11  1.9999999999917716e+02 8.6709706616752911e-11 8.5528839053917063e-11  1.9999999999823083e+02 9.1021773258385059e-11 8.5030119131086181e-11  1.9999999999730341e+02 8.1505342707683527e-11 6.0984786324631868e-11  1.9999999999644393e+02 4.6492167799781298e-11 4.9731799010602423e-11  1.9999999999559876e+02 4.9683192735364790e-11 2.4469489522145396e-11  1.9999999999472840e+02 8.0863659580862232e-11 5.3905370855678943e-11  1.9999999999389291e+02 3.2007985740909476e-11 9.5870368216726697e-12  1.9999999999311086e+02 7.6566251208838109e-11 4.2075698760660780e-11  1.9999999999230357e+02 5.0901577518778786e-11 3.9003838733340087e-11  1.9999999999153783e+02 3.0286261317365484e-11 2.6901719843855594e-11  2.0000000000037508e+02 5.9781992043350389e-11 8.3954990377188844e-11  1.9999999999918069e+02 5.7397381114829643e-11 4.8450013311168582e-11  1.9999999999817922e+02 4.8223545808438678e-11 3.3744979358233993e-11  1.9999999999735570e+02 6.5529632216592319e-11 8.4077808777392763e-11  1.9999999999643455e+02 4.2373352133684337e-11 4.8464797810444070e-11  1.9999999999554529e+02 3.1704002149526687e-11 4.8162589973484636e-11  1.9999999999475421e+02 1.1822380157521768e-11 3.8578610367600999e-11  1.9999999999389598e+02 3.0851382118310608e-11 5.3967087019071522e-11  1.9999999999308298e+02 2.7000487719075361e-11 5.3316419127766825e-11  1.9999999999231662e+02 2.0396813658720306e-11 4.7594356339465483e-11  1.9999999999154929e+02 3.3107235706030188e-12 3.7609495623801443e-11  2.0000000000039324e+02 4.9071465133426660e-11 1.3648207063127268e-10  1.9999999999917003e+02 2.2200311928446164e-11 2.3488083555096255e-11  1.9999999999820201e+02 3.8677005501560181e-11 6.7220959800078640e-11  1.9999999999730107e+02 5.3382655067657870e-11 6.9475736814938698e-11  1.9999999999641301e+02 4.7103092201751961e-11 4.5150916298380913e-11  1.9999999999557434e+02 3.8958679816413222e-11 6.1272981624350104e-11  1.9999999999473263e+02 2.7001394626804524e-11 6.5408842470278519e-11  1.9999999999390533e+02 1.6727462510408535e-11 8.2706656869414761e-11  1.9999999999306891e+02 -1.7426127942117115e-11 5.6827988703581716e-11  1.9999999999232963e+02 1.0743605836765859e-10 2.5433746661041710e-11  1.9999999999150378e+02 1.0073825558168068e-11 3.9390992679811501e-11  2.0000000000033913e+02 1.3358446290567774e-11 6.6094240388353420e-11  1.9999999999917091e+02 2.1119071413933306e-11 6.2036607139456485e-11  1.9999999999821938e+02 7.2300971421499421e-12 5.7056778991691659e-11  1.9999999999728109e+02 -4.6411111882615218e-13 7.1266720781183874e-11  1.9999999999644214e+02 1.0370342802242081e-11 4.6491146988997117e-11  1.9999999999558131e+02 5.0098215286868334e-11 4.4311786527508525e-11  1.9999999999467289e+02 1.2134562934499146e-11 5.4007794586450797e-11  1.9999999999397042e+02 4.6552786445583774e-11 8.1832309528915890e-11  1.9999999999310279e+02 2.6698462512623451e-11 5.6845231177695640e-11  1.9999999999234527e+02 4.3489715912627905e-11 5.0223927562480271e-11  1.9999999999150410e+02 1.7647537927500717e-11 3.5571725888824471e-11  2.0000000000040919e+02 4.8990207814448862e-11 5.8305462509126275e-11  1.9999999999917173e+02 1.0735864954314197e-11 5.5360010987417074e-11  1.9999999999818567e+02 3.3824571772983986e-11 5.8038352018282203e-11  1.9999999999727120e+02 2.0263496567502157e-11 7.3094674687675504e-11  1.9999999999644112e+02 -4.9574233997309204e-12 8.9125626390274633e-11  1.9999999999555769e+02 4.6964697499646102e-11 7.2840871098639100e-11  1.9999999999471012e+02 4.1830115801383093e-11 4.3173405849409914e-11  1.9999999999391730e+02 8.5097743680419092e-11 4.8852705539627424e-11  1.9999999999312095e+02 5.3644975581506799e-11 7.7262074737574717e-11  1.9999999999234169e+02 1.9942041137456580e-11 7.3200309107860546e-11  1.9999999999153582e+02 5.5481241962685947e-12 2.5742085697826649e-11  2.0000000000037224e+02 5.0010548246779710e-11 6.9295689051685006e-11  1.9999999999913794e+02 2.9012507503341488e-11 6.7133971846076148e-11  1.9999999999817933e+02 1.7311779650474974e-11 4.8139074618803854e-11  1.9999999999734820e+02 7.3841183430930279e-11 8.9236709028046503e-11  1.9999999999641926e+02 4.9832172363620511e-11 9.5901984792121914e-11  1.9999999999558074e+02 2.8352817789892017e-11 8.4824293261688333e-11  1.9999999999469762e+02 5.1165899026379049e-11 7.6438130833279560e-11  1.9999999999390565e+02 2.8752007038669701e-11 9.6862154222298565e-11  1.9999999999312769e+02 4.1847441445579700e-11 7.0560419111994235e-11  1.9999999999232111e+02 1.5311515664647781e-12 7.7999421464583416e-11  1.9999999999153303e+02 2.2111551638930314e-11 7.8177259794826357e-12  2.0000000000039600e+02 4.4251718373361830e-11 5.4704361795768965e-11  1.9999999999912524e+02 5.5851863981338059e-11 7.2249843364414253e-11  1.9999999999821881e+02 5.5516342877572560e-11 5.3529642459444522e-11  1.9999999999734513e+02 2.9513192712469258e-11 4.6263142002545747e-11  1.9999999999641193e+02 -4.3638039845625216e-12 9.5740186316030959e-11  1.9999999999556684e+02 4.1261960015181739e-11 8.7650070507576575e-11  1.9999999999471177e+02 4.6457349481454913e-11 1.0622320787272306e-10  1.9999999999390374e+02 2.5347432134773583e-11 7.8174709625244549e-11  1.9999999999310515e+02 4.3152913942480190e-11 7.5356444644296176e-11  1.9999999999231531e+02 9.5098033871759000e-11 4.7589475023272644e-11  1.9999999999154340e+02 2.3390573162812558e-11 2.4154713233093492e-11  2.0000000000038557e+02 6.1960693761563739e-11 8.4301374923803387e-11  1.9999999999915809e+02 3.3450996712895922e-11 8.3177820099656367e-11  1.9999999999819963e+02 3.8701749811578701e-11 6.8920034328119892e-11  1.9999999999733456e+02 2.2067157094258505e-11 5.0056402041031626e-11  1.9999999999644584e+02 6.2437569893494847e-11 5.5620008301201389e-11  1.9999999999559012e+02 4.4173717109958522e-11 6.9727916625949309e-11  1.9999999999471237e+02 1.2204429742729293e-11 8.7782438922956086e-11  1.9999999999391403e+02 2.1666667709807305e-11 1.1341245138605846e-10  1.9999999999310069e+02 4.4376244356257852e-11 8.9416347697009336e-11  1.9999999999230880e+02 2.8065984779248593e-11 5.2349546306389297e-11  1.9999999999156643e+02 1.8425558620095076e-12 4.4062588249454048e-11  2.0000000000034581e+02 5.4810786590027127e-11 9.7620987100017086e-11  1.9999999999914951e+02 2.5778902852962303e-12 6.1915748172059492e-11  1.9999999999825559e+02 3.0296433300166768e-11 5.8815527132070558e-11  1.9999999999731489e+02 5.9407437709561506e-11 5.9594561096862760e-11  1.9999999999643637e+02 4.7676163011074008e-11 6.3018869662989377e-11  1.9999999999558577e+02 2.0960549640096067e-11 9.0933640302235767e-11  1.9999999999473454e+02 3.1103646119391048e-11 7.3090561351845032e-11  1.9999999999389945e+02 2.5175033850430827e-11 8.2937410869515927e-11  1.9999999999311751e+02 2.1860435177912560e-11 5.3053601829345943e-11  1.9999999999227819e+02 4.6099777294180040e-11 4.7790053610383769e-11  1.9999999999158709e+02 1.2823625764242985e-11 2.8453651925652397e-11  2.0000000000038486e+02 -2.8182359797100767e-10 1.0130649425335196e-10  1.9999999999911938e+02 -2.5401413569377334e-10 7.0231790704592432e-11  1.9999999999822086e+02 -2.1515990732621448e-10 5.7742240598495830e-11  1.9999999999732339e+02 -2.4898207225904894e-10 7.1231078600491117e-11  1.9999999999639056e+02 -2.1797639937100183e-10 6.4589018901853860e-11  1.9999999999557593e+02 -2.3180141659003360e-10 5.4707034044012437e-11  1.9999999999473533e+02 -2.6745282253259345e-10 2.4876076963191380e-11  1.9999999999389081e+02 -2.6340219391129936e-10 9.4747450336147667e-12  1.9999999999311012e+02 -2.0624446870457045e-10 6.7069165009139554e-11  1.9999999999229786e+02 -1.9842997954597444e-10 6.6702389953732812e-11  1.9999999999150759e+02 -7.3740213216292216e-11 2.0657811945327727e-11  2.0000000000034956e+02 4.3690475429733695e-10 6.2539908511030615e-11  1.9999999999926183e+02 4.4097522061701136e-10 -9.4845508399129421e-12  1.9999999999824118e+02 4.0672137825016023e-10 5.4265801490245507e-12  1.9999999999733413e+02 3.3360928589864981e-10 2.9114500232690957e-11  1.9999999999647352e+02 3.6168397882253914e-10 8.7343512771598603e-11  1.9999999999558995e+02 3.3460878585479383e-10 4.7812781084943827e-11  1.9999999999476560e+02 2.9302098692021850e-10 2.4453762927744227e-11  1.9999999999395575e+02 3.2499722890559671e-10 6.4469320156101434e-11  1.9999999999315224e+02 3.3968381063221603e-10 4.0249964139336023e-11  1.9999999999231650e+02 3.0822751897288605e-10 6.3898528043581417e-11  1.9999999999153314e+02 1.3636089007596193e-10 2.7453930408945603e-11  2.0000000000039427e+02 8.7324995130324732e-11 3.0735534640226662e-11  1.9999999999916631e+02 4.9928060675881272e-11 9.2943132945110602e-12  1.9999999999822475e+02 1.0334700308001407e-10 2.4743866880597828e-12  1.9999999999732208e+02 6.8307472986830215e-11 -8.8746475980230741e-12  1.9999999999644453e+02 6.0804560697856089e-11 1.7592441478443213e-11  1.9999999999555334e+02 3.4091155661976782e-11 2.1339093559165274e-11  1.9999999999473872e+02 4.2738039803657707e-11 2.6632984389568067e-11  1.9999999999389919e+02 6.1449882539729561e-11 4.5543476880144414e-11  1.9999999999312601e+02 7.0778598029858757e-11 2.4583504803281168e-11  1.9999999999231778e+02 5.1998707111699747e-11 4.0793251732908950e-11  1.9999999999152692e+02 3.5212303211551621e-11 1.8081271593872321e-11  2.0000000000036829e+02 4.6993049691375405e-11 1.8553843232468208e-12  1.9999999999917577e+02 4.2262349005524103e-11 9.1967988898020520e-12  1.9999999999820352e+02 4.7319176944271971e-11 4.8614370892422349e-12  1.9999999999734061e+02 5.0765042278246339e-11 7.3758916271284477e-12  1.9999999999646596e+02 6.7417859869612713e-11 3.3352344289315776e-13  1.9999999999557318e+02 3.4759390376568314e-11 1.2582428758285261e-11  1.9999999999472919e+02 3.0382535426163767e-11 1.8833547126676833e-11  1.9999999999391466e+02 2.2892224834715716e-11 1.1596217865445690e-11  1.9999999999313513e+02 4.8794887460524092e-11 3.9609039341439794e-11  1.9999999999231207e+02 -1.1767822571462828e-12 1.7725696394117819e-11  1.9999999999147576e+02 1.5787111346737567e-11 2.3529011899736236e-11  2.0000000000031886e+02 7.9038620656291299e-11 2.5188857501583814e-11  1.9999999999917762e+02 6.8935173354863464e-11 2.0722823208628652e-11  1.9999999999823854e+02 1.0123754808790403e-10 -6.8039120577467643e-12  1.9999999999733686e+02 3.3872101676621482e-11 -2.9845386949362806e-11  1.9999999999641435e+02 2.8046761592070114e-11 7.1117857993144623e-12  1.9999999999558702e+02 4.9874049550193584e-11 -1.5872937826006541e-11  1.9999999999472485e+02 3.1092681355026910e-11 2.5238985668641829e-11  1.9999999999392142e+02 3.9718816334393192e-11 3.7176071556455663e-11  1.9999999999312851e+02 6.3190706769451119e-11 3.347469