<?xml version="1.0"?>
<VTKFile type="UnstructuredGrid"  version="0.1"  >
<UnstructuredGrid>
<Piece  NumberOfPoints="584" NumberOfCells="2390">
<Points>
<DataArray  type="Float64"  NumberOfComponents="3"  format="ascii">30 25 20  32.5 27.5 22.5  32.5 25 22.5  32.5 25 20  35 25 20  35 27.5 22.5  35 25 22.5  35 25 25  35 27.5 25  35 30 25  30 25 22.5  30 25 25  32.5 27.5 25  32.5 25 25  30 27.5 25  30 30 25  32.5 30 25  37.5 27.5 22.5  37.5 27.5 25  32.5 27.5 27.5  35 27.5 27.5  37.5 27.5 27.5  30 25 10  30 22.5 10  30 22.5 7.5  27.5 22.5 7.5  27.5 22.5 10  35 25 10  35 22.5 10  35 22.5 7.5  32.5 22.5 7.5  32.5 22.5 10  32.5 25 10  37.5 25 10  37.5 22.5 10  37.5 22.5 7.5  40 25 10  30 25 12.5  30 22.5 12.5  27.5 22.5 12.5  30 25 15  30 22.5 15  27.5 22.5 15  27.5 25 15  35 25 12.5  35 22.5 12.5  32.5 22.5 12.5  35 25 15  35 22.5 15  32.5 22.5 15  32.5 25 12.5  32.5 25 15  37.5 25 12.5  37.5 22.5 12.5  40 25 12.5  40 25 15  37.5 25 15  37.5 22.5 15  30 25 17.5  30 22.5 17.5  27.5 22.5 17.5  27.5 25 17.5  35 25 17.5  35 22.5 17.5  32.5 22.5 17.5  32.5 25 17.5  37.5 25 17.5  37.5 22.5 17.5  40 25 17.5  40 25 20  37.5 25 20  40 25 0  40 25 2.5  40 22.5 2.5  37.5 22.5 2.5  40 25 5  40 22.5 5  37.5 22.5 5  45 25 0  45 25 2.5  45 22.5 2.5  42.5 22.5 2.5  45 22.5 0  42.5 22.5 0  45 25 5  45 22.5 5  42.5 22.5 5  42.5 25 2.5  42.5 25 0  42.5 25 5  50 20 0  50 22.5 2.5  50 22.5 0  47.5 22.5 2.5  47.5 22.5 0  50 25 0  50 25 2.5  50 25 5  50 22.5 5  47.5 22.5 5  47.5 25 2.5  47.5 25 0  47.5 25 5  40 25 7.5  40 22.5 7.5  40 22.5 10  45 25 7.5  45 22.5 7.5  42.5 22.5 7.5  45 25 10  45 22.5 10  42.5 22.5 10  42.5 25 7.5  42.5 25 10  50 25 7.5  50 22.5 7.5  47.5 22.5 7.5  50 25 10  50 22.5 10  47.5 22.5 10  47.5 25 7.5  47.5 25 10  40 22.5 12.5  45 25 12.5  45 22.5 12.5  42.5 22.5 12.5  45 25 15  42.5 25 12.5  42.5 25 15  50 25 12.5  50 22.5 12.5  47.5 22.5 12.5  50 25 15  47.5 25 12.5  47.5 25 15  30 20 0  30 22.5 2.5  30 22.5 0  27.5 22.5 2.5  27.5 22.5 0  30 25 0  30 25 2.5  30 25 5  30 22.5 5  27.5 22.5 5  27.5 25 2.5  27.5 25 0  25 25 5  27.5 25 5  35 25 0  35 25 2.5  35 22.5 2.5  32.5 22.5 2.5  35 22.5 0  32.5 22.5 0  35 25 5  35 22.5 5  32.5 22.5 5  32.5 25 2.5  32.5 25 0  32.5 25 5  37.5 25 2.5  37.5 25 0  37.5 22.5 0  37.5 25 5  30 27.5 2.5  30 27.5 0  27.5 27.5 2.5  27.5 27.5 0  30 30 0  30 30 2.5  30 30 5  30 27.5 5  27.5 27.5 5  32.5 27.5 2.5  32.5 27.5 0  35 27.5 2.5  35 27.5 0  35 30 0  35 30 2.5  35 30 5  35 27.5 5  32.5 27.5 5  32.5 30 2.5  32.5 30 0  32.5 30 5  37.5 27.5 2.5  37.5 27.5 0  40 27.5 2.5  40 27.5 0  40 30 0  40 30 2.5  40 30 5  40 27.5 5  37.5 27.5 5  37.5 30 2.5  37.5 30 0  37.5 30 5  42.5 27.5 2.5  42.5 27.5 0  45 27.5 2.5  45 27.5 0  45 30 0  45 30 2.5  45 30 5  45 27.5 5  42.5 27.5 5  42.5 30 2.5  42.5 30 0  42.5 30 5  47.5 27.5 2.5  47.5 27.5 0  50 27.5 2.5  50 27.5 0  50 30 0  50 30 2.5  50 30 5  50 27.5 5  47.5 27.5 5  47.5 30 2.5  47.5 30 0  47.5 30 5  30 32.5 2.5  30 32.5 0  27.5 32.5 2.5  30 35 0  30 35 2.5  30 35 5  30 32.5 5  27.5 35 2.5  32.5 32.5 2.5  32.5 32.5 0  35 32.5 2.5  35 32.5 0  35 35 0  35 35 2.5  35 35 5  35 32.5 5  32.5 32.5 5  32.5 35 2.5  32.5 35 0  32.5 35 5  37.5 32.5 2.5  37.5 32.5 0  40 32.5 2.5  40 32.5 0  40 35 0  40 35 2.5  40 35 5  40 32.5 5  37.5 32.5 5  37.5 35 2.5  37.5 35 0  37.5 35 5  42.5 32.5 2.5  42.5 32.5 0  45 32.5 2.5  45 32.5 5  45 35 5  42.5 32.5 5  42.5 35 5  47.5 32.5 2.5  47.5 32.5 0  50 32.5 2.5  50 32.5 0  50 32.5 5  47.5 32.5 5  27.5 37.5 2.5  30 25 7.5  27.5 25 7.5  35 25 7.5  32.5 25 7.5  37.5 25 7.5  27.5 27.5 7.5  30 27.5 7.5  30 30 7.5  30 30 10  30 27.5 10  32.5 27.5 7.5  35 27.5 7.5  35 30 7.5  35 30 10  35 27.5 10  32.5 27.5 10  32.5 30 7.5  32.5 30 10  37.5 27.5 7.5  40 27.5 7.5  40 30 7.5  40 30 10  40 27.5 10  37.5 27.5 10  37.5 30 7.5  37.5 30 10  42.5 27.5 7.5  45 27.5 7.5  45 30 7.5  45 30 10  45 27.5 10  42.5 27.5 10  42.5 30 7.5  42.5 30 10  47.5 27.5 7.5  50 27.5 7.5  50 30 7.5  50 30 10  50 27.5 10  47.5 27.5 10  47.5 30 7.5  47.5 30 10  30 32.5 7.5  27.5 32.5 7.5  30 35 7.5  30 35 10  30 32.5 10  27.5 35 7.5  32.5 32.5 7.5  35 32.5 7.5  35 35 7.5  35 35 10  35 32.5 10  32.5 32.5 10  32.5 35 7.5  32.5 35 10  37.5 32.5 7.5  40 32.5 7.5  40 35 7.5  40 35 10  40 32.5 10  37.5 32.5 10  37.5 35 7.5  37.5 35 10  42.5 32.5 7.5  45 32.5 7.5  45 35 7.5  45 35 10  45 32.5 10  42.5 32.5 10  42.5 35 7.5  42.5 35 10  47.5 32.5 7.5  50 32.5 7.5  50 32.5 10  47.5 32.5 10  30 37.5 7.5  27.5 37.5 7.5  30 37.5 10  30 40 10  32.5 37.5 7.5  35 37.5 7.5  35 37.5 10  35 40 10  32.5 37.5 10  32.5 40 10  37.5 37.5 7.5  37.5 37.5 10  27.5 25 10  27.5 27.5 10  27.5 32.5 10  27.5 35 10  27.5 37.5 10  27.5 25 12.5  30 27.5 12.5  27.5 27.5 12.5  30 30 12.5  30 30 15  30 27.5 15  27.5 27.5 15  27.5 30 12.5  27.5 30 15  32.5 27.5 12.5  32.5 30 12.5  35 30 12.5  35 30 15  32.5 27.5 15  32.5 30 15  30 32.5 12.5  27.5 32.5 12.5  30 35 12.5  30 35 15  30 32.5 15  27.5 32.5 15  27.5 35 12.5  32.5 32.5 12.5  35 32.5 12.5  35 35 12.5  35 35 15  35 32.5 15  32.5 32.5 15  32.5 35 12.5  32.5 35 15  30 37.5 12.5  27.5 37.5 12.5  30 40 12.5  30 40 15  30 37.5 15  32.5 37.5 12.5  35 37.5 12.5  35 37.5 15  32.5 37.5 15  30 27.5 17.5  27.5 27.5 17.5  30 30 17.5  30 30 20  30 27.5 20  27.5 30 17.5  32.5 27.5 17.5  32.5 30 17.5  35 30 17.5  35 30 20  32.5 27.5 20  32.5 30 20  30 32.5 17.5  27.5 32.5 17.5  30 35 17.5  30 35 20  30 32.5 20  32.5 32.5 17.5  35 32.5 17.5  35 35 17.5  35 35 20  35 32.5 20  32.5 32.5 20  32.5 35 17.5  32.5 35 20  32.5 37.5 17.5  35 37.5 17.5  35 37.5 20  32.5 37.5 20  30 37.5 20  37.5 37.5 17.5  37.5 37.5 20  32.5 30 22.5  35 30 22.5  30 30 22.5  30 32.5 22.5  27.5 32.5 22.5  30 35 22.5  32.5 32.5 22.5  35 32.5 22.5  35 35 22.5  32.5 35 22.5  32.5 37.5 22.5  35 37.5 22.5  37.5 37.5 22.5  35 27.5 12.5  35 27.5 15  37.5 27.5 12.5  40 27.5 12.5  40 30 12.5  40 30 15  40 27.5 15  37.5 27.5 15  37.5 30 12.5  37.5 30 15  42.5 27.5 12.5  45 27.5 12.5  45 30 12.5  45 30 15  45 27.5 15  42.5 27.5 15  42.5 30 12.5  42.5 30 15  47.5 27.5 12.5  50 27.5 12.5  50 30 12.5  50 30 15  50 27.5 15  47.5 27.5 15  47.5 30 12.5  47.5 30 15  37.5 32.5 12.5  40 32.5 12.5  40 35 12.5  40 35 15  40 32.5 15  37.5 32.5 15  37.5 35 12.5  37.5 35 15  42.5 32.5 12.5  45 32.5 12.5  45 32.5 15  45 35 15  42.5 32.5 15  42.5 35 15  47.5 32.5 12.5  50 32.5 12.5  50 32.5 15  50 35 15  47.5 32.5 15  47.5 35 15  37.5 37.5 12.5  37.5 37.5 15  35 27.5 17.5  35 27.5 20  37.5 27.5 17.5  40 27.5 17.5  40 30 17.5  40 30 20  40 27.5 20  37.5 27.5 20  37.5 30 17.5  37.5 30 20  42.5 27.5 17.5  45 27.5 17.5  45 30 17.5  45 30 20  42.5 25 17.5  45 25 17.5  45 25 20  45 27.5 20  42.5 27.5 20  42.5 25 20  42.5 30 17.5  42.5 30 20  47.5 27.5 17.5  50 27.5 17.5  50 30 17.5  50 30 20  47.5 25 17.5  50 25 17.5  50 25 20  50 27.5 20  47.5 27.5 20  47.5 25 20  47.5 30 17.5  47.5 30 20  37.5 32.5 17.5  40 32.5 17.5  40 35 17.5  40 35 20  40 32.5 20  37.5 32.5 20  37.5 35 17.5  37.5 35 20  42.5 32.5 17.5  45 32.5 17.5  45 35 17.5  45 35 20  45 32.5 20  42.5 32.5 20  42.5 35 17.5  42.5 35 20  47.5 32.5 17.5  50 32.5 17.5  50 35 17.5  50 35 20  50 32.5 20  47.5 32.5 20  47.5 35 17.5  47.5 35 20  42.5 37.5 17.5  42.5 37.5 20  47.5 37.5 17.5  50 37.5 17.5  50 37.5 20  47.5 37.5 20  40 27.5 22.5  40 30 22.5  37.5 30 22.5  42.5 27.5 22.5  45 27.5 22.5  45 30 22.5  42.5 30 22.5  47.5 27.5 22.5  50 27.5 22.5  50 30 22.5  47.5 30 22.5  37.5 32.5 22.5  40 32.5 22.5  40 35 22.5  37.5 35 22.5  42.5 32.5 22.5  45 32.5 22.5  45 35 22.5  42.5 35 22.5  47.5 32.5 22.5  50 32.5 22.5  50 35 22.5  47.5 35 22.5  42.5 37.5 22.5  45 37.5 22.5  47.5 37.5 22.5  50 37.5 22.5  </DataArray>
</Points>
<Cells>
[...]
<PointData  Vectors="u"> 
<DataArray  type="Float64"  Name="u"  NumberOfComponents="3" format="ascii">1.9999999999476344e+02 5.4083882980700546e-11 7.3409501335141206e-12  1.9999999999426851e+02 -2.9485629828627923e-11 -2.6886840601962963e-11  1.9999999999427646e+02 -5.9784007385241165e-11 -4.6442165954942612e-11  1.9999999999434357e+02 -1.0681736502252175e-11 3.3636845770241998e-11  1.9999999999397349e+02 5.6110704799270104e-11 -1.8812385564373950e-11  1.9999999999382112e+02 -5.2630914077007744e-11 -1.2945753611765592e-11  1.9999999999392563e+02 -1.5903289121466397e-11 9.5758437141163031e-12  1.9999999999398833e+02 2.0836849129068202e-11 5.8330165246658194e-11  1.9999999999392563e+02 -1.0542451486646154e-11 -2.1829612502632337e-11  1.9999999999398315e+02 6.4680213075292193e-11 4.0953821002532944e-11  1.9999999999475131e+02 -5.8313415332324054e-11 5.5167096997471897e-11  1.9999999999472718e+02 5.6652637563886577e-11 5.3454951162135467e-11  1.9999999999428127e+02 -5.4818332334726879e-11 -7.0973087482729261e-11  1.9999999999430563e+02 -2.0267148676406758e-12 1.5705811819067330e-11  1.9999999999477163e+02 -5.7314396155252636e-11 -4.4265462117537153e-11  1.9999999999472547e+02 5.1457189967083293e-11 3.3528604538021174e-11  1.9999999999433669e+02 -5.8715405361695213e-11 3.3620000004806723e-11  1.9999999999347227e+02 -3.3615544861990340e-11 -1.8543456897623727e-11  1.9999999999346051e+02 -3.2498167416798448e-11 -7.5707358900915275e-11  1.9999999999426819e+02 -5.3658017820118213e-11 -4.1275821195185612e-11  1.9999999999385761e+02 -4.2184409190982499e-11 -5.1792040697098530e-11  1.9999999999350254e+02 -5.7402080143298639e-11 -2.8979320548642099e-11  1.9999999999475611e+02 7.5686265305562051e-11 7.1492834402389115e-11  1.9999999999475881e+02 -2.4112108387284825e-11 -3.5842043410750291e-11  1.9999999999475267e+02 -1.1016338734896997e-10 -1.7998694244766442e-12  1.9999999999513375e+02 -1.2610435582830567e-11 8.1143586880148014e-12  1.9999999999511093e+02 -3.3019284193953193e-11 -3.6263537770142075e-11  1.9999999999396093e+02 6.1386933988466991e-11 5.3133626223111944e-11  1.9999999999391676e+02 -1.0277660290414068e-11 3.0431064918272054e-11  1.9999999999383178e+02 -5.2980888278917583e-11 -1.2875838607797688e-11  1.9999999999430389e+02 -2.5103499576215158e-11 -3.2986459628321732e-12  1.9999999999431085e+02 -4.6716559477723692e-11 -7.6002376591236284e-11  1.9999999999433976e+02 -4.0576576914667517e-11 5.8092229481129691e-11  1.9999999999354125e+02 -2.7218539643223254e-11 5.6931714119802673e-11  1.9999999999349316e+02 -1.2697980676302532e-11 -1.0099698555638616e-10  1.9999999999349492e+02 -1.2784091153785278e-11 -2.0031125127088730e-12  1.9999999999319002e+02 5.2809249830047991e-11 6.5804471086407129e-11  1.9999999999475051e+02 -2.2398106643469983e-11 -1.0705538073366056e-11  1.9999999999472726e+02 -8.8482532188885015e-11 -7.9751371945434229e-11  1.9999999999517129e+02 -3.1246646725851690e-11 -2.4376172043826250e-11  1.9999999999475423e+02 7.2629088476703647e-11 4.8869624962401570e-11  1.9999999999474645e+02 -4.2598404075605784e-11 -3.1947700038607912e-11  1.9999999999515524e+02 -7.4011516833535189e-11 -3.8897047210171702e-11  1.9999999999516848e+02 -5.6078366720030578e-11 5.6227108305377190e-12  1.9999999999392276e+02 -3.0565246958380246e-11 -8.1907602963228646e-12  1.9999999999386313e+02 -5.0452155616867442e-11 -5.6677864554432113e-11  1.9999999999430545e+02 -2.3488915244492635e-11 -3.9300796221081264e-11  1.9999999999398241e+02 6.9223098768802870e-11 5.6850504897214269e-11  1.9999999999392926e+02 -3.9625516346887534e-11 1.9193016486899020e-11  1.9999999999429483e+02 -6.7847387968750507e-11 -3.7778698986524849e-11  1.9999999999429207e+02 -5.0384394378794975e-11 -6.1514392833072741e-11  1.9999999999432913e+02 -2.6945479842414351e-11 1.1500758872298627e-11  1.9999999999349248e+02 -4.7329742708826511e-11 -4.0096577643709520e-11  1.9999999999350243e+02 -5.0849866812010893e-11 -2.1130368694761199e-11  1.9999999999310725e+02 7.5675049025154775e-12 -9.8228195509217560e-12  1.9999999999317970e+02 4.8214110881610275e-11 3.6387231572671873e-11  1.9999999999353588e+02 -2.6921968190198428e-11 2.3731610922661383e-11  1.9999999999350177e+02 -5.4429296467211792e-11 -8.0887564543275224e-11  1.9999999999478098e+02 -5.8601929021415789e-11 -7.6901845734820029e-12  1.9999999999475401e+02 -1.1757195501986044e-10 1.2143474117257770e-11  1.9999999999517240e+02 -3.5202582129437438e-11 6.3411104716811588e-13  1.9999999999512869e+02 3.4618795033648248e-11 3.5059745799080952e-11  1.9999999999393827e+02 -5.9540972028324759e-11 1.6736790068043852e-11  1.9999999999388393e+02 -4.1729087820381722e-11 -2.8772401776754798e-12  1.9999999999430344e+02 -3.1707341171662307e-11 4.7800140551461138e-12  1.9999999999428996e+02 -2.3833008422692506e-11 1.0001745290383006e-11  1.9999999999347176e+02 -7.0479011019656478e-12 -1.1555548414997449e-11  1.9999999999351058e+02 -3.6144433715600899e-11 -7.5339736649102780e-12  1.9999999999311873e+02 -6.2184029845762997e-11 -3.5098982975223901e-12  1.9999999999316731e+02 2.4305309282902052e-11 -7.4897809483762971e-12  1.9999999999353986e+02 -3.6252417711360131e-11 2.8943035234698139e-11  1.9999999999319095e+02 6.4461357168532781e-11 3.2615210613954601e-10  1.9999999999318629e+02 -3.9609207579226956e-11 -6.4830635353999719e-11  1.9999999999308125e+02 -5.6120230464647073e-11 -1.0389726478728677e-10  1.9999999999352303e+02 -3.0033609211145911e-11 -7.8023728964969890e-11  1.9999999999318615e+02 5.3877161027037944e-11 6.8406735072806649e-11  1.9999999999314940e+02 -1.6501732075984654e-12 6.3944745659542425e-12  1.9999999999353508e+02 -6.4651763693868255e-12 3.3753276700193187e-11  1.9999999999243977e+02 5.6404135058240452e-11 3.1495038954438981e-10  1.9999999999238810e+02 -2.9765896576410031e-11 -6.3155352156375144e-11  1.9999999999231315e+02 -5.9443890012872753e-11 -9.9444289575593961e-11  1.9999999999273891e+02 -3.8296132303506502e-11 -8.7672875762119670e-11  1.9999999999233708e+02 -2.7792276970555732e-11 1.0273344806103894e-11  1.9999999999268152e+02 -1.1609843673310935e-10 -2.4603306693368743e-10  1.9999999999241777e+02 5.4720886960854745e-11 5.5496121911322218e-11  1.9999999999238045e+02 -8.9569515694147354e-12 -7.3264692891945554e-13  1.9999999999272765e+02 -3.9142803245126776e-11 -7.6625821885938259e-11  1.9999999999271890e+02 -7.6794089588229126e-11 -1.1257490419867119e-10  1.9999999999275806e+02 -3.9833160045610708e-11 3.6439148093777891e-11  1.9999999999276906e+02 -3.5860954191269911e-11 1.2346423982597711e-11  1.9999999999161247e+02 1.3631226046535298e-11 1.4584621211248398e-10  1.9999999999151103e+02 9.2164423453522381e-12 -1.4802441827159872e-11  1.9999999999153391e+02 -9.5021967313460749e-12 -4.5737462340186774e-11  1.9999999999198405e+02 -4.9227568406362479e-11 -7.3625195300384365e-11  1.9999999999196081e+02 -9.8527914393472904e-11 -2.2003256629701813e-10  1.9999999999160940e+02 2.7510125231388255e-11 1.5828508510339042e-10  1.9999999999154664e+02 -6.6144718146011014e-11 -1.7699832940006408e-11  1.9999999999162009e+02 1.7811123967106601e-11 1.8668638341053278e-11  1.9999999999154787e+02 -7.5182146436849999e-12 7.8695109965397579e-12  1.9999999999198312e+02 -4.3177228443108326e-11 -9.1353394293319894e-11  1.9999999999198127e+02 -5.5433475265827426e-11 -8.6615139337482154e-11  1.9999999999200855e+02 -2.2305921009452354e-11 -1.1400308955226581e-11  1.9999999999201123e+02 -3.5169435281078412e-11 2.1437995782971714e-12  1.9999999999317851e+02 -3.9178578800313244e-11 -1.6120376327931930e-11  1.9999999999310037e+02 -5.7061651327996834e-11 -5.3415634363724855e-11  1.9999999999316202e+02 -1.6510613046107462e-11 3.2125346936226778e-11  1.9999999999238125e+02 -5.1815915930886659e-11 -1.4872338714178379e-11  1.9999999999232119e+02 -3.8142813439306155e-11 -6.3013578458357432e-11  1.9999999999272160e+02 -4.7341994796232014e-11 -3.7048433830948793e-11  1.9999999999241030e+02 4.0621740097819543e-11 4.5825906452391126e-11  1.9999999999238625e+02 -1.8151671762753264e-11 8.1624896673715200e-12  1.9999999999270239e+02 -5.5096534110987371e-11 -7.2699814631934013e-11  1.9999999999272612e+02 -6.6703888088848615e-11 -6.0219950451394422e-11  1.9999999999274371e+02 -5.5906356651869492e-11 1.5062202210426701e-11  1.9999999999156165e+02 -7.2351943966052493e-11 1.6165569282910814e-12  1.9999999999151373e+02 9.0044886537925966e-12 -4.9789394561915045e-12  1.9999999999196550e+02 -5.1647749899109832e-11 -4.5325814409909961e-11  1.9999999999159672e+02 2.0019813858525715e-11 2.0401615639370034e-11  1.9999999999148613e+02 1.5320411461062818e-12 1.5586824929330397e-11  1.9999999999199161e+02 -4.3914188568447229e-11 -6.8706481932700843e-11  1.9999999999197334e+02 -7.2260064675277271e-11 -5.4558079369323735e-11  1.9999999999202350e+02 -6.4615176976535607e-11 1.3607749747921848e-11  1.9999999999317143e+02 -2.1618556843115348e-11 1.6011425912912771e-11  1.9999999999237482e+02 -5.7777855804944863e-11 -4.1618818021465610e-12  1.9999999999231386e+02 -5.1767543499553303e-11 -4.1403025731461995e-11  1.9999999999270025e+02 -4.0137537536587407e-11 -2.0969377892651685e-11  1.9999999999239247e+02 3.7346172463579047e-11 3.4355754315148216e-11  1.9999999999270460e+02 -5.8956031631042479e-11 -4.1453797809071752e-11  1.9999999999273825e+02 -4.7471381344927835e-11 2.4749870288680419e-11  1.9999999999151200e+02 -5.4361553241277565e-11 -9.7340562788612093e-12  1.9999999999146422e+02 7.2610755164042338e-12 -1.3883696366427603e-11  1.9999999999195310e+02 -5.9185998597158171e-11 -5.2606466526487666e-11  1.9999999999158933e+02 1.5890477608760257e-11 1.2010751258212730e-11  1.9999999999197902e+02 -6.6128789168204503e-11 -5.2306589339223002e-11  1.9999999999199534e+02 -5.4310616961454132e-11 -1.0445558951346292e-11  1.9999999999478342e+02 5.3083784446641987e-11 3.2572115664653084e-10  1.9999999999467201e+02 -5.1115653898012300e-11 -7.7063967273487416e-11  1.9999999999470961e+02 -3.5100340813176719e-11 1.3020853369619116e-11  1.9999999999513295e+02 -1.9211493336719830e-11 -5.2945339613438060e-11  1.9999999999506420e+02 -7.5650375476188487e-11 -2.5431814157451089e-10  1.9999999999477075e+02 8.1077190443194622e-11 3.4776784646595440e-10  1.9999999999476947e+02 -3.0250615235665913e-11 -4.7940639226203581e-11  1.9999999999475682e+02 6.8225161909481760e-11 6.3473536684930118e-11  1.9999999999476233e+02 -6.4856569414483834e-12 1.2387807410767847e-11  1.9999999999514674e+02 1.0855970141203507e-12 2.6001060058814621e-11  1.9999999999513170e+02 9.4795027973221027e-12 -9.0550280475975693e-11  1.9999999999514071e+02 -2.1297665062166093e-11 8.1611645858448295e-13  1.9999999999564562e+02 6.0647701521398800e-11 8.7665821979530729e-11  1.9999999999511786e+02 -4.5209194491362847e-11 7.4298170732424794e-12  1.9999999999398489e+02 6.9704570928870427e-11 2.9848191730336448e-10  1.9999999999391829e+02 -1.0866836683798934e-11 -6.0928146345341876e-11  1.9999999999392909e+02 -1.5422552233447219e-12 -4.4352306295256408e-11  1.9999999999432299e+02 -2.4051415554202509e-11 -7.3998390268840993e-11  1.9999999999394936e+02 -1.5386050817971901e-11 1.3211364810877183e-11  1.9999999999427300e+02 -1.2084825880944970e-10 -2.4471557630434838e-10  1.9999999999397230e+02 4.1172548162131500e-11 5.3740558014176162e-11  1.9999999999395729e+02 -3.4366000723654768e-12 2.6949753576793892e-11  1.9999999999435028e+02 -3.0316848074956104e-12 -5.2060047600793821e-12  1.9999999999430000e+02 -8.6765808880620601e-11 -7.8751928071185536e-11  1.9999999999435758e+02 -4.0326626404628013e-11 1.3675392083636339e-11  1.9999999999435099e+02 -1.4871673138744661e-11 -2.5202622475462149e-11  1.9999999999353182e+02 -2.6189675947264954e-11 -9.7715052019977109e-11  1.9999999999352528e+02 -9.7339621890293260e-12 2.7443996289373948e-11  1.9999999999353426e+02 -8.1140306145230038e-11 -2.2328343419149346e-10  1.9999999999352320e+02 -6.9554690387438404e-12 8.2737819259894589e-12  1.9999999999472013e+02 -1.1263016572688176e-10 -1.4257321112280882e-10  1.9999999999474750e+02 -1.1609797041986203e-11 -1.3400552356682208e-12  1.9999999999513869e+02 -7.9184554980458492e-12 -3.7910974730435993e-11  1.9999999999513068e+02 -6.5965543575383899e-11 -2.5285052512616337e-10  1.9999999999473121e+02 7.6083060044059562e-11 3.4205803929818276e-10  1.9999999999471939e+02 -3.0239248728603143e-11 -6.1106922216559791e-11  1.9999999999472507e+02 5.9234764537466712e-11 8.5894106277983705e-11  1.9999999999478914e+02 -1.1693832198798660e-11 -2.9244243528592892e-11  1.9999999999513631e+02 -2.6835421199161893e-11 -1.4661547471206023e-11  1.9999999999431344e+02 -5.3164298391878256e-11 -6.9903293061247949e-11  1.9999999999426788e+02 -1.0725258103912504e-10 -2.3746250962404413e-10  1.9999999999384585e+02 -6.6950822455671564e-11 -9.7718675707323942e-11  1.9999999999389064e+02 -5.1478554508699680e-11 4.7413769999560791e-12  1.9999999999399029e+02 6.3195900089601985e-11 3.1897770063943342e-10  1.9999999999394493e+02 2.8736048768186145e-12 -4.1581038150334246e-11  1.9999999999396900e+02 5.3408862815326871e-11 7.1938099241945153e-11  1.9999999999393165e+02 -1.9167065152281481e-11 -9.6170938478554785e-12  1.9999999999429102e+02 -4.2872461910348061e-11 -8.3571772344567167e-11  1.9999999999429127e+02 -8.6165873557735446e-11 -1.0127467620183221e-10  1.9999999999434982e+02 -3.4977433430463501e-11 6.9445804707887792e-12  1.9999999999433402e+02 -1.9211114802747782e-11 2.2405710592545974e-11  1.9999999999351780e+02 -5.3948629670938605e-11 -8.1213873378338198e-11  1.9999999999344027e+02 -1.1773526018250133e-10 -2.4517035696302405e-10  1.9999999999308747e+02 -5.4020132234423745e-11 -1.0240070212593181e-10  1.9999999999309520e+02 -3.9495024254113460e-11 -1.3042959791612669e-12  1.9999999999320315e+02 6.4096441412066663e-11 3.1425448418676793e-10  1.9999999999313664e+02 2.9467604282516911e-13 -4.9550341679057622e-11  1.9999999999319294e+02 4.2639912463378581e-11 5.6967470659345096e-11  1.9999999999313295e+02 -3.4626606116879250e-11 -1.1370301443344361e-11  1.9999999999348748e+02 -6.0510077438489521e-11 -8.3408428346741637e-11  1.9999999999348825e+02 -5.4571337831234503e-11 -1.0339276762244829e-10  1.9999999999351829e+02 -3.0845621066709190e-11 3.5564383024721199e-11  1.9999999999352707e+02 -1.5261025367310173e-11 -1.4446650846272249e-13  1.9999999999274942e+02 -4.9555980842208889e-11 -5.5094838513102721e-11  1.9999999999267027e+02 -1.0309203870580117e-10 -2.8779831488644094e-10  1.9999999999233685e+02 -6.7988816767087225e-11 -8.8144057673935079e-11  1.9999999999235305e+02 -3.9079818782078493e-11 2.4890197591278287e-11  1.9999999999243477e+02 5.4972946190980855e-11 3.0869299547898054e-10  1.9999999999237417e+02 -2.1396367768925250e-11 -5.0441796916050525e-11  1.9999999999240879e+02 1.7957112404636556e-11 5.1316455411216459e-11  1.9999999999237767e+02 -3.1292824735011965e-11 -6.8869001753766876e-12  1.9999999999273180e+02 -5.9520704149884892e-11 -6.0676254568664583e-11  1.9999999999270941e+02 -3.7089191850981994e-11 -9.5520483113845214e-11  1.9999999999273589e+02 -1.4676130656687353e-11 1.5131777212646514e-11  1.9999999999276028e+02 -1.7175793104082134e-11 4.8353065562994767e-12  1.9999999999197900e+02 -4.9261307851427077e-11 -5.5888918341478519e-11  1.9999999999196035e+02 -1.0073617842851795e-10 -2.0785215090137522e-10  1.9999999999151720e+02 -2.2358409672885421e-11 -1.1653934479579321e-11  1.9999999999149952e+02 -1.2859105097961951e-11 -5.5504288503057117e-11  1.9999999999161207e+02 2.3217210373844456e-11 1.5046507370474678e-10  1.9999999999150742e+02 1.2217073532610242e-11 -1.4140926522652608e-11  1.9999999999162083e+02 7.9040313515411657e-12 2.6507696514247006e-11  1.9999999999147360e+02 -4.1964787814983337e-12 7.8444927413994273e-13  1.9999999999197374e+02 -2.9533658342726149e-11 -5.5889378456805327e-11  1.9999999999198320e+02 -1.0214935571882978e-10 -9.1089497198812543e-11  1.9999999999198468e+02 -6.1662197081867931e-11 9.6290474058689993e-12  1.9999999999199611e+02 1.2500056171060620e-11 -4.9512586942313205e-11  1.9999999999470197e+02 -1.1213350183957797e-10 -1.6905430907095444e-10  1.9999999999473411e+02 -2.2444881458510901e-11 1.6853090039692341e-11  1.9999999999513531e+02 -3.1980752158869811e-11 -4.3416219619366275e-11  1.9999999999472371e+02 6.2930606331011376e-11 3.5240079441730613e-10  1.9999999999472493e+02 -2.8793475307593871e-11 -5.6647638758960849e-11  1.9999999999471970e+02 7.1452807535851796e-11 9.4156056303007877e-11  1.9999999999475557e+02 -3.7780359515737959e-11 -2.6244880019625408e-12  1.9999999999512050e+02 -4.6955351653266254e-11 -1.1112799535488648e-10  1.9999999999430361e+02 -4.1910026991623158e-11 -8.4847368258755759e-11  1.9999999999425179e+02 -1.0015487135941592e-10 -2.6556422263350163e-10  1.9999999999387370e+02 -7.0770307174908537e-11 -9.8153314353490483e-11  1.9999999999389968e+02 -3.4632136712385146e-11 1.8701506892417049e-11  1.9999999999399950e+02 5.7339718040022621e-11 3.4302618315626742e-10  1.9999999999393964e+02 -8.2693487930940983e-12 -6.9887079762551651e-11  1.9999999999397491e+02 5.2869393707511630e-11 7.8899868304811088e-11  1.9999999999392833e+02 -4.3920607888913208e-11 9.2027991569531379e-12  1.9999999999429804e+02 -6.2006425447778184e-11 -4.6253184090084355e-11  1.9999999999428678e+02 -5.3904418070079453e-11 -9.7353306438622808e-11  1.9999999999432535e+02 -5.6636255986489059e-11 2.5847826154888525e-12  1.9999999999430756e+02 -3.2859777235154813e-13 2.1117423739541000e-11  1.9999999999349703e+02 -4.7541305883858487e-11 -9.8043339482796256e-11  1.9999999999345971e+02 -9.3080533944850758e-11 -2.1165876972899911e-10  1.9999999999308301e+02 -5.8397784841373029e-11 -1.1208034254428528e-10  1.9999999999311089e+02 -2.5966520921721382e-11 1.8265660169108214e-11  1.9999999999319706e+02 4.6937690929423063e-11 3.2036454579021272e-10  1.9999999999314758e+02 -1.3473762111939625e-11 -4.0030579887496530e-11  1.9999999999318942e+02 4.4018119271643011e-11 6.2376405007914872e-11  1.9999999999315804e+02 -1.2924053302571681e-11 2.4176885704614671e-12  1.9999999999348239e+02 -4.9031419319059495e-11 -9.6665393125731476e-11  1.9999999999349092e+02 -9.1283927978474653e-11 -1.1227271044335364e-10  1.9999999999352792e+02 -4.6300267171846194e-11 2.7205831868798502e-11  1.9999999999354961e+02 -2.1045772879660908e-12 1.6507629997243154e-11  1.9999999999272282e+02 -5.0372882103110434e-11 -8.4396885798516289e-11  1.9999999999266637e+02 -9.8109698496141992e-11 -2.2841991782350338e-10  1.9999999999229115e+02 -6.3021162906490384e-11 -1.0131920130489689e-10  1.9999999999235226e+02 -1.5349104142902511e-11 -8.0429750283927327e-12  1.9999999999240123e+02 3.0904358967561040e-11 4.7133464523503351e-11  1.9999999999272069e+02 -4.3201405851159874e-11 -9.7027633965996974e-11  1.9999999999273712e+02 -1.6444290496816297e-11 -1.7080527992703002e-11  1.9999999999198627e+02 -4.6820909816121428e-11 -7.9614741764235929e-11  1.9999999999194984e+02 -7.9584927662685258e-11 -1.7144790270709162e-10  1.9999999999146959e+02 -7.7941544708888869e-14 -1.0109654185212492e-11  1.9999999999152789e+02 -1.1785555896774333e-12 -3.1396522164042263e-11  1.9999999999153854e+02 3.4067619782358739e-12 6.2789448944343612e-12  1.9999999999197857e+02 -6.0820463522272861e-11 -1.0604828791721953e-10  1.9999999999514696e+02 -2.8781236809256487e-11 -4.5165602172403664e-11  1.9999999999476623e+02 -2.0844911369922605e-12 2.6053523028664645e-12  1.9999999999511166e+02 -1.2362689054456871e-12 -2.5379940567176066e-11  1.9999999999392375e+02 1.5412118501878566e-11 8.3807000890030163e-12  1.9999999999430869e+02 -2.0566011195576255e-11 1.1502080758075850e-11  1.9999999999353048e+02 -3.6618615638208208e-12 -2.3029870230303257e-11  1.9999999999513130e+02 -2.7477450918561484e-11 -2.7314540447988758e-11  1.9999999999473718e+02 -8.3531332276455304e-11 -8.3663408413375254e-11  1.9999999999473610e+02 -4.4421582042546451e-11 -3.2939409363790808e-11  1.9999999999476248e+02 6.0100574274338159e-11 7.5134472148735449e-11  1.9999999999476859e+02 -2.4985065461002202e-11 -2.4437388673414027e-11  1.9999999999429483e+02 -4.5303032202248587e-11 -1.4953159