<?xml version="1.0"?>
<VTKFile type="UnstructuredGrid"  version="0.1"  >
<UnstructuredGrid>
<Piece  NumberOfPoints="573" NumberOfCells="2288">
<Points>
<DataArray  type="Float64"  NumberOfComponents="3"  format="ascii">10 0 0  12.5 2.5 2.5  12.5 2.5 0  12.5 0 0  15 0 0  15 2.5 2.5  15 2.5 0  15 5 0  15 5 2.5  15 5 5  12.5 0 2.5  15 0 2.5  15 0 5  15 2.5 5  12.5 2.5 5  12.5 0 5  10 2.5 0  10 5 0  12.5 5 2.5  12.5 5 0  12.5 5 5  17.5 2.5 2.5  17.5 2.5 0  17.5 0 0  20 0 0  20 2.5 2.5  20 2.5 0  20 5 0  20 5 2.5  20 5 5  17.5 0 2.5  20 0 2.5  20 0 5  20 2.5 5  17.5 2.5 5  17.5 0 5  17.5 5 2.5  17.5 5 0  17.5 5 5  22.5 2.5 2.5  22.5 2.5 5  22.5 5 2.5  12.5 7.5 2.5  12.5 7.5 0  15 7.5 2.5  15 7.5 0  15 10 0  15 10 2.5  15 10 5  15 7.5 5  12.5 7.5 5  17.5 7.5 2.5  17.5 7.5 0  20 7.5 2.5  20 7.5 0  20 10 0  20 10 2.5  20 10 5  20 7.5 5  17.5 7.5 5  17.5 10 2.5  17.5 10 0  17.5 10 5  22.5 7.5 2.5  22.5 7.5 5  22.5 10 5  22.5 10 2.5  17.5 12.5 2.5  17.5 12.5 0  20 12.5 2.5  20 12.5 0  20 15 0  20 15 2.5  20 15 5  20 12.5 5  17.5 12.5 5  15 12.5 0  15 15 0  17.5 15 2.5  17.5 15 0  15 12.5 2.5  15 12.5 5  15 15 5  17.5 15 5  15 15 2.5  22.5 12.5 2.5  22.5 12.5 5  22.5 12.5 0  22.5 15 2.5  22.5 15 0  25 15 0  22.5 15 5  17.5 17.5 2.5  17.5 17.5 0  20 17.5 2.5  20 17.5 0  20 20 0  20 20 2.5  20 20 5  20 17.5 5  17.5 17.5 5  15 17.5 0  15 20 0  17.5 20 2.5  17.5 20 0  15 17.5 2.5  15 17.5 5  15 20 5  17.5 20 5  15 20 2.5  22.5 17.5 2.5  22.5 17.5 0  22.5 17.5 5  22.5 20 2.5  22.5 20 0  25 20 0  22.5 20 5  15 2.5 7.5  12.5 2.5 7.5  15 5 7.5  15 5 10  15 0 7.5  12.5 0 7.5  15 0 10  15 2.5 10  12.5 2.5 10  12.5 0 10  12.5 5 7.5  17.5 2.5 7.5  20 2.5 7.5  20 5 7.5  20 5 10  17.5 0 7.5  20 0 7.5  20 0 10  20 2.5 10  17.5 2.5 10  17.5 0 10  17.5 5 7.5  17.5 5 10  22.5 2.5 7.5  22.5 2.5 10  22.5 5 10  25 5 10  22.5 5 7.5  15 7.5 7.5  12.5 7.5 7.5  15 10 7.5  15 10 10  15 7.5 10  17.5 7.5 7.5  20 7.5 7.5  20 10 7.5  20 10 10  20 7.5 10  17.5 7.5 10  17.5 10 7.5  17.5 10 10  22.5 7.5 7.5  22.5 7.5 10  25 7.5 10  25 10 10  22.5 10 7.5  22.5 10 10  17.5 12.5 7.5  20 12.5 7.5  20 15 7.5  20 15 10  20 12.5 10  17.5 12.5 10  17.5 15 7.5  15 12.5 7.5  15 12.5 10  15 15 10  17.5 15 10  15 15 7.5  22.5 12.5 7.5  22.5 12.5 10  25 12.5 10  25 15 10  22.5 15 7.5  22.5 15 10  17.5 17.5 7.5  20 17.5 7.5  20 20 7.5  20 20 10  20 17.5 10  17.5 17.5 10  17.5 20 7.5  15 17.5 7.5  15 17.5 10  15 20 10  17.5 20 10  15 20 7.5  22.5 17.5 7.5  22.5 17.5 10  25 17.5 10  25 20 10  22.5 20 7.5  22.5 20 10  15 2.5 12.5  12.5 2.5 12.5  15 5 12.5  15 5 15  15 0 12.5  12.5 0 12.5  15 0 15  15 2.5 15  12.5 2.5 15  12.5 0 15  17.5 2.5 12.5  20 2.5 12.5  20 5 12.5  20 5 15  17.5 0 12.5  20 0 12.5  20 0 15  20 2.5 15  17.5 2.5 15  17.5 0 15  17.5 5 12.5  17.5 5 15  22.5 2.5 12.5  22.5 5 12.5  25 5 12.5  25 5 15  22.5 2.5 15  22.5 5 15  17.5 7.5 12.5  20 7.5 12.5  20 10 12.5  20 10 15  20 7.5 15  17.5 7.5 15  17.5 10 12.5  15 7.5 12.5  15 7.5 15  15 10 15  17.5 10 15  15 10 12.5  22.5 7.5 12.5  25 7.5 12.5  25 10 12.5  25 10 15  25 7.5 15  22.5 7.5 15  22.5 10 12.5  22.5 10 15  17.5 12.5 12.5  20 12.5 12.5  20 15 12.5  20 15 15  20 12.5 15  17.5 12.5 15  17.5 15 12.5  15 12.5 12.5  15 12.5 15  15 15 15  17.5 15 15  15 15 12.5  22.5 12.5 12.5  25 12.5 12.5  25 15 12.5  25 15 15  25 12.5 15  22.5 12.5 15  22.5 15 12.5  22.5 15 15  17.5 17.5 12.5  20 17.5 12.5  20 20 12.5  20 20 15  20 17.5 15  17.5 17.5 15  17.5 20 12.5  15 17.5 12.5  15 17.5 15  15 20 15  17.5 20 15  15 20 12.5  22.5 17.5 12.5  25 17.5 12.5  25 20 12.5  25 20 15  25 17.5 15  22.5 17.5 15  22.5 20 12.5  22.5 20 15  17.5 22.5 12.5  20 22.5 12.5  20 22.5 15  20 25 15  17.5 22.5 15  22.5 22.5 12.5  25 22.5 12.5  25 22.5 15  22.5 22.5 15  15 2.5 17.5  12.5 2.5 17.5  15 5 17.5  15 5 20  15 0 17.5  12.5 0 17.5  15 0 20  15 2.5 20  17.5 2.5 17.5  20 2.5 17.5  20 5 17.5  20 5 20  17.5 0 17.5  20 0 17.5  20 0 20  20 2.5 20  17.5 2.5 20  17.5 0 20  17.5 5 17.5  17.5 5 20  22.5 2.5 17.5  22.5 5 17.5  25 5 17.5  25 5 20  22.5 2.5 20  22.5 5 20  17.5 7.5 17.5  20 7.5 17.5  20 10 17.5  20 10 20  20 7.5 20  17.5 7.5 20  17.5 10 17.5  15 7.5 17.5  15 7.5 20  15 10 20  17.5 10 20  15 10 17.5  22.5 7.5 17.5  22.5 7.5 20  25 7.5 20  25 10 20  22.5 10 17.5  25 10 17.5  22.5 10 20  17.5 12.5 17.5  20 12.5 17.5  20 15 17.5  20 15 20  20 12.5 20  17.5 12.5 20  17.5 15 17.5  15 12.5 17.5  15 12.5 20  15 15 20  17.5 15 20  15 15 17.5  22.5 12.5 17.5  25 12.5 17.5  25 15 17.5  25 15 20  25 12.5 20  22.5 12.5 20  22.5 15 17.5  22.5 15 20  17.5 17.5 17.5  20 17.5 17.5  20 20 17.5  20 20 20  20 17.5 20  17.5 17.5 20  17.5 20 17.5  15 17.5 17.5  15 17.5 20  15 20 20  17.5 20 20  15 20 17.5  22.5 17.5 17.5  25 17.5 17.5  25 20 17.5  25 20 20  25 17.5 20  22.5 17.5 20  22.5 20 17.5  22.5 20 20  17.5 22.5 17.5  20 22.5 17.5  20 22.5 20  20 25 20  17.5 22.5 20  15 22.5 17.5  15 22.5 20  15 25 20  22.5 22.5 17.5  25 22.5 17.5  25 22.5 20  25 25 20  22.5 22.5 20  17.5 2.5 22.5  20 2.5 22.5  20 5 22.5  17.5 0 22.5  20 0 22.5  20 0 25  17.5 5 22.5  22.5 2.5 22.5  22.5 5 22.5  25 5 22.5  17.5 7.5 22.5  20 7.5 22.5  20 10 22.5  17.5 10 22.5  15 7.5 22.5  15 10 22.5  22.5 7.5 22.5  25 7.5 22.5  25 10 22.5  22.5 10 22.5  17.5 12.5 22.5  20 12.5 22.5  20 15 22.5  17.5 15 22.5  15 12.5 22.5  15 15 22.5  22.5 12.5 22.5  25 12.5 22.5  25 15 22.5  22.5 15 22.5  17.5 17.5 22.5  20 17.5 22.5  20 20 22.5  17.5 20 22.5  15 17.5 22.5  15 20 22.5  15 20 25  22.5 17.5 22.5  25 17.5 22.5  25 20 22.5  25 20 25  22.5 20 22.5  17.5 22.5 22.5  20 22.5 22.5  20 25 22.5  15 22.5 22.5  15 22.5 25  15 25 25  15 25 22.5  22.5 22.5 22.5  25 22.5 22.5  25 25 22.5  25 25 25  10 7.5 0  10 10 0  12.5 10 2.5  12.5 10 0  12.5 10 5  12.5 12.5 2.5  12.5 12.5 0  12.5 12.5 5  10 12.5 0  10 15 0  12.5 15 2.5  12.5 15 0  12.5 15 5  12.5 17.5 2.5  12.5 17.5 0  12.5 17.5 5  10 17.5 0  10 20 0  12.5 20 2.5  12.5 20 0  12.5 5 10  12.5 7.5 10  12.5 10 7.5  12.5 10 10  12.5 12.5 7.5  12.5 12.5 10  12.5 15 7.5  12.5 17.5 7.5  12.5 17.5 10  12.5 5 12.5  12.5 7.5 12.5  12.5 10 12.5  12.5 12.5 12.5  12.5 12.5 15  12.5 15 12.5  12.5 17.5 12.5  12.5 17.5 15  12.5 20 12.5  12.5 20 15  12.5 7.5 17.5  12.5 10 17.5  12.5 12.5 17.5  12.5 12.5 20  12.5 15 17.5  12.5 17.5 17.5  12.5 17.5 20  12.5 20 17.5  10 20 20  12.5 20 20  12.5 22.5 17.5  12.5 22.5 20  10 22.5 20  10 25 20  12.5 25 20  12.5 7.5 22.5  12.5 10 22.5  12.5 12.5 22.5  12.5 15 22.5  12.5 17.5 22.5  12.5 20 22.5  10 20 22.5  10 20 25  12.5 20 25  10 22.5 22.5  7.5 22.5 22.5  10 25 22.5  10 25 25  10 22.5 25  12.5 22.5 22.5  12.5 22.5 25  12.5 25 22.5  12.5 25 25  12.5 22.5 2.5  12.5 22.5 0  15 22.5 2.5  15 22.5 5  17.5 22.5 2.5  17.5 22.5 0  20 22.5 2.5  20 22.5 0  20 22.5 5  17.5 22.5 5  22.5 22.5 2.5  22.5 22.5 0  22.5 22.5 5  17.5 22.5 7.5  20 22.5 7.5  20 22.5 10  17.5 22.5 10  15 22.5 7.5  15 22.5 10  22.5 22.5 7.5  22.5 22.5 10  25 22.5 10  15 22.5 12.5  12.5 22.5 12.5  12.5 22.5 15  27.5 17.5 22.5  27.5 17.5 20  27.5 20 22.5  27.5 20 20  27.5 20 25  27.5 22.5 22.5  27.5 22.5 20  27.5 12.5 22.5  27.5 12.5 20  27.5 15 22.5  27.5 15 20  22.5 0 22.5  22.5 2.5 0  27.5 12.5 12.5  27.5 12.5 15  27.5 15 15  27.5 15 12.5  27.5 17.5 12.5  27.5 17.5 15  27.5 20 15  27.5 20 12.5  27.5 22.5 12.5  27.5 22.5 15  27.5 12.5 17.5  27.5 15 17.5  27.5 17.5 17.5  27.5 20 17.5  27.5 22.5 17.5  </DataArray>
</Points>
<Cells>
[...]
<PointData  Vectors="u"> 
<DataArray  type="Float64"  Name="u"  NumberOfComponents="3" format="ascii">1.9999999999813141e+02 3.8248265134622825e-10 3.9605966847937920e-10  1.9999999999773445e+02 -4.7335431378258612e-11 -6.8412961384187793e-11  1.9999999999773172e+02 -1.1891860149720085e-10 -2.9768759334642891e-10  1.9999999999772703e+02 -8.3900235372740136e-11 5.1947117817496165e-11  1.9999999999738455e+02 3.3913338262927243e-10 3.7367672427686789e-10  1.9999999999720129e+02 -6.0064774391469700e-11 -1.0443074561923303e-10  1.9999999999728971e+02 -5.5087049338961881e-11 6.9034728898716838e-12  1.9999999999733097e+02 1.0074435922748780e-10 3.6403396093652551e-10  1.9999999999732185e+02 -1.8671235109272841e-11 -3.8281448352177146e-11  1.9999999999731469e+02 7.1603338962636587e-11 1.0184987160619348e-10  1.9999999999774300e+02 -1.1644438326217406e-10 -3.5383571259890725e-11  1.9999999999729482e+02 3.2312302847289845e-11 -4.8718124375682949e-11  1.9999999999731315e+02 2.7840456022651766e-10 1.0025144048192447e-10  1.9999999999732654e+02 -3.9747778764432851e-11 -3.5271122044732239e-12  1.9999999999780761e+02 -6.3210061934346679e-11 -4.0951545522775315e-11  1.9999999999777930e+02 2.7508030715911596e-11 2.0266423305731568e-11  1.9999999999822330e+02 -5.2719539258909411e-11 1.6505058219620760e-11  1.9999999999814369e+02 1.0484287869662087e-10 3.5518434449433506e-10  1.9999999999778510e+02 4.5818800704052378e-12 -1.0962165904234526e-10  1.9999999999772817e+02 3.5036244020112786e-11 1.2361401985916342e-11  1.9999999999775625e+02 -6.5655596916387093e-12 -1.4574285198238393e-11  1.9999999999685704e+02 -6.6020485838826021e-11 -8.6544540181270908e-11  1.9999999999679278e+02 -1.3476488598090877e-10 -2.4696510174996099e-10  1.9999999999682771e+02 -5.4919389280841950e-11 1.3756887042552178e-11  1.9999999999650998e+02 3.1327015626544113e-10 3.3851087383816318e-10  1.9999999999632780e+02 -4.5120704707827117e-11 -8.5039232519529855e-11  1.9999999999641753e+02 -2.0450005253450328e-11 -3.7748551933162291e-11  1.9999999999650680e+02 5.2415482015060511e-11 3.3783729816504024e-10  1.9999999999643043e+02 1.2736860875215393e-11 -5.5827787343289672e-11  1.9999999999650839e+02 5.0357434861774339e-11 9.5410773524052119e-11  1.9999999999685062e+02 -1.7980423094107226e-10 -4.6016002601320729e-11  1.9999999999643524e+02 1.8669081516187988e-11 -1.1698328632405455e-11  1.9999999999653511e+02 2.5152109459584213e-10 7.2764253016661959e-11  1.9999999999647585e+02 -3.0855386211655514e-11 3.1578685310744536e-11  1.9999999999683320e+02 7.0412512340367115e-12 -6.4784348385426096e-11  1.9999999999687194e+02 1.3283409022014120e-11 -3.9777314566804374e-11  1.9999999999683772e+02 -1.2007249309986398e-10 -1.1170678630847117e-10  1.9999999999686148e+02 -4.2806119016966697e-11 1.6277530004502916e-11  1.9999999999687165e+02 5.1969216546896610e-11 -3.0510184737088691e-11  1.9999999999599638e+02 -7.4458672733676920e-11 -3.6520849838677098e-11  1.9999999999596122e+02 -3.6327777518262809e-11 -6.5246149575409221e-11  1.9999999999598495e+02 -1.3801912128494946e-10 -6.7494242069609004e-11  1.9999999999775065e+02 -3.2700496577996277e-12 -5.6950165768557941e-11  1.9999999999780994e+02 -5.4592140417106570e-11 -3.0914706829442517e-10  1.9999999999728470e+02 -9.3907415293319799e-11 -1.4700198768297780e-10  1.9999999999730025e+02 1.2342609760251544e-11 -1.0836395487172356e-11  1.9999999999726825e+02 1.1739894918520022e-10 3.4548781504825704e-10  1.9999999999726575e+02 1.7415541605827372e-11 -6.5458109593770600e-11  1.9999999999727703e+02 1.0280131144685610e-10 1.1291798341425982e-10  1.9999999999733581e+02 2.0669738931946025e-11 -9.1913050535346897e-12  1.9999999999777975e+02 -5.7559852596034648e-12 -6.7620358806996845e-11  1.9999999999684604e+02 -1.4236638780835662e-11 -7.2190571607268428e-11  1.9999999999678440e+02 -7.9323545661074152e-11 -2.8159057189477611e-10  1.9999999999637654e+02 -5.4822954750120057e-11 -8.9392012447778339e-11  1.9999999999642480e+02 1.0737449465329676e-11 -1.9569963890855284e-11  1.9999999999648128e+02 6.7804183318882526e-11 3.2138952270804632e-10  1.9999999999641111e+02 1.6536601878266697e-11 -4.9804162619591299e-11  1.9999999999648708e+02 5.9438484497161689e-11 1.0392163914533256e-10  1.9999999999644439e+02 1.0583275161327978e-11 3.4192674743913096e-11  1.9999999999684559e+02 -4.0537874950620327e-11 -6.6881156749412169e-11  1.9999999999683936e+02 -5.1779533690591738e-11 -1.1068201677001693e-10  1.9999999999684229e+02 -5.4503597622942605e-11 5.1112763052479146e-11  1.9999999999685099e+02 2.1920728569037441e-11 2.8051463833893798e-11  1.9999999999600266e+02 -3.7362238116072381e-11 -5.5968787311342258e-11  1.9999999999596537e+02 -2.5519567149122142e-11 -7.7539287569368093e-11  1.9999999999601070e+02 1.2738157306185439e-11 1.3573601316943164e-11  1.9999999999598421e+02 -9.5687290681222752e-11 -4.5203259094895055e-11  1.9999999999684405e+02 -1.8000187693605678e-11 -6.9783609214720215e-11  1.9999999999686963e+02 -8.5109986165091882e-11 -2.2514763836978694e-10  1.9999999999633417e+02 -4.2111144113634995e-11 -8.3013579669296970e-11  1.9999999999638135e+02 -1.6948247177080263e-11 -1.1118175470972368e-11  1.9999999999645294e+02 8.8596270419786033e-11 3.2210356460134776e-10  1.9999999999642776e+02 -3.3313168479092295e-11 -3.8095084319160765e-11  1.9999999999643705e+02 7.3696133220298384e-11 1.0130931054248037e-10  1.9999999999642253e+02 1.4922061404306580e-11 3.1405713657171491e-11  1.9999999999687273e+02 -3.7678960440644289e-11 -8.1750879167447114e-11  1.9999999999732321e+02 3.0331538187169364e-12 1.2590284187907346e-11  1.9999999999723164e+02 1.0776901742634056e-10 3.5296865151663126e-10  1.9999999999690337e+02 -1.7675070749627572e-11 -1.0307686628616186e-10  1.9999999999687176e+02 1.1312551840130283e-11 2.6948007488240337e-11  1.9999999999733438e+02 -2.8399201197242578e-11 -9.5333941083454409e-11  1.9999999999733578e+02 2.5680201551680056e-11 -2.0393281856425238e-11  1.9999999999725668e+02 8.5174000341040450e-11 9.5680898893394224e-11  1.9999999999686659e+02 7.3472480945818962e-12 4.7997747708144909e-11  1.9999999999733052e+02 -9.3821038757499051e-12 -3.7953997991472268e-11  1.9999999999599814e+02 -5.1883921163466684e-11 -5.3138364543695105e-11  1.9999999999597708e+02 -4.5960524297401268e-11 -8.5661836839660394e-11  1.9999999999604518e+02 -3.4721069724728927e-12 -1.1608257777252866e-10  1.9999999999599336e+02 -9.8101549950913970e-11 -5.7658171160993570e-11  1.9999999999600408e+02 3.9266273878584082e-12 3.3616858632312181e-11  1.9999999999565904e+02 6.9428285483631151e-11 3.0810524767544672e-10  1.9999999999601559e+02 1.8924632566348178e-12 3.4208961508453491e-11  1.9999999999685593e+02 -1.5947970039135616e-11 -3.2881919085180762e-11  1.9999999999692375e+02 -8.3375942457968686e-11 -2.5909099379457282e-10  1.9999999999645399e+02 -6.6283117767841970e-11 -1.4244359194307083e-10  1.9999999999646681e+02 1.5664976786163336e-12 1.1608242899532812e-11  1.9999999999646428e+02 1.0097520698163034e-10 3.3256563919908365e-10  1.9999999999644334e+02 -7.3613826706051201e-12 -3.2122943023217526e-11  1.9999999999644530e+02 7.6013079865659818e-11 8.7846711391941433e-11  1.9999999999648006e+02 2.1497977234871853e-11 -6.7588716494577783e-13  1.9999999999690027e+02 -5.3959074112055736e-11 -5.4086565027202188e-11  1.9999999999733629e+02 -3.2668732018606336e-11 -3.9915616414222135e-12  1.9999999999726995e+02 9.9770929438083197e-11 3.4384980405598640e-10  1.9999999999691281e+02 -5.3562060002644826e-11 -1.0443145384391656e-10  1.9999999999687549e+02 1.1900436185820070e-11 -1.0762714096050787e-12  1.9999999999732486e+02 -5.2473351071915383e-11 -1.0452091853322225e-10  1.9999999999734206e+02 -8.3007463098086811e-12 -2.4445314109351535e-11  1.9999999999726953e+02 6.1526473731703581e-11 8.7926580654976386e-11  1.9999999999688725e+02 -1.1252508524716215e-11 1.7565724966876575e-11  1.9999999999736033e+02 -3.3158420733466482e-11 -4.0703635280626177e-11  1.9999999999598288e+02 -1.9378214016354563e-12 -9.2939383632286175e-11  1.9999999999594297e+02 -1.1595784132892729e-10 -2.0779666046994597e-10  1.9999999999595673e+02 -2.5172899302573500e-11 -8.6092543003584288e-11  1.9999999999596270e+02 -4.9378925578193156e-11 -9.8395600523587088e-11  1.9999999999597483e+02 -3.4150601881040479e-11 1.4882365144004961e-11  1.9999999999564849e+02 7.4617650975632931e-11 3.5792860675135690e-10  1.9999999999599481e+02 -2.3399690446363706e-11 2.2657778692409512e-11  1.9999999999733404e+02 4.4122315402393231e-11 -1.0636323190676709e-10  1.9999999999777455e+02 -4.0443654018795800e-11 -4.8120349210731937e-11  1.9999999999731023e+02 5.6895011715499508e-11 -2.2464848540470725e-13  1.9999999999731293e+02 7.4162411540818240e-11 8.5946773956149550e-11  1.9999999999732711e+02 -2.0610998129989082e-11 -1.1204624610387246e-11  1.9999999999776421e+02 -1.9147548027697912e-10 -2.6204972262884450e-11  1.9999999999731236e+02 2.4621815891489861e-10 6.7405278213370855e-11  1.9999999999732336e+02 -1.8959648194539308e-11 -7.1687221850716019e-12  1.9999999999779237e+02 -4.4040890936218721e-11 -8.3178326729524219e-11  1.9999999999777481e+02 5.4192207817401758e-11 -2.2353719855116425e-11  1.9999999999776057e+02 -4.1871061718545514e-11 -3.8965490634160365e-11  1.9999999999685042e+02 -3.7846508056727353e-11 -2.2371905093515186e-11  1.9999999999638567e+02 -1.6924783951182408e-11 -4.6311168891092156e-11  1.9999999999641761e+02 3.8466752658048799e-11 -7.0485565424555413e-12  1.9999999999649964e+02 4.8922717254625368e-11 9.1421433304659731e-11  1.9999999999685795e+02 -1.8965208774127298e-10 -4.4603556610854336e-12  1.9999999999645411e+02 2.5019730559476658e-11 2.6136243400347719e-11  1.9999999999649950e+02 2.4500775114739031e-10 3.9410799757578610e-11  1.9999999999645138e+02 -2.0912284212689573e-11 -3.9039092488074588e-12  1.9999999999685014e+02 1.4757833442663622e-13 -5.5063164894639653e-11  1.9999999999689570e+02 4.7615724064310494e-11 -4.0542403800115503e-11  1.9999999999679176e+02 4.1047325574545104e-11 -8.6149108060518210e-11  1.9999999999689769e+02 4.4182711435923107e-11 -2.6612793515829328e-11  1.9999999999598140e+02 -4.3209563516188612e-11 -4.1272063831914792e-11  1.9999999999597824e+02 -1.7859556809542850e-11 -7.9995720109974741e-11  1.9999999999600507e+02 2.9232391908650694e-11 -2.4041934504131858e-11  1.9999999999567154e+02 3.5862202814896248e-11 8.0145836712956925e-11  1.9999999999590824e+02 2.2377002635537537e-11 -7.0527585260773247e-11  1.9999999999728720e+02 -4.7922746655832633e-11 -8.8669989073635349e-11  1.9999999999777944e+02 -1.0347850883463430e-12 -2.8339573298924977e-11  1.9999999999728229e+02 1.3951337839635641e-11 -1.0417874282636983e-11  1.9999999999727632e+02 9.5637771796853578e-11 9.2342404855051784e-11  1.9999999999727393e+02 2.6886883700914850e-11 -3.4075163923219350e-12  1.9999999999684718e+02 -2.4035143403299962e-11 -3.1121518419287780e-11  1.9999999999637495e+02 -2.3378717896056705e-11 -6.7520694373964170e-11  1.9999999999644950e+02 1.4297247574285505e-11 5.6231347186616890e-12  1.9999999999648495e+02 6.9795052428871907e-11 6.6738625870194852e-11  1.9999999999644643e+02 1.7957489337579235e-11 1.7056543097220462e-11  1.9999999999683186e+02 -2.6646381582541986e-11 -5.6770199362090403e-11  1.9999999999682097e+02 -3.8003225033405713e-11 -4.2329893571441067e-11  1.9999999999685014e+02 2.0935996585500558e-11 5.0227633475569275e-12  1.9999999999598168e+02 -1.9788852654394489e-11 -3.1852472081489385e-11  1.9999999999597156e+02 -1.8755667825596133e-11 -7.8534700281824310e-11  1.9999999999556491e+02 3.2617198120450917e-11 9.1640275644670035e-12  1.9999999999565878e+02 6.5218834830912743e-11 8.1252543895247720e-11  1.9999999999596420e+02 -7.5404192520799915e-11 -3.6565035527215790e-11  1.9999999999600522e+02 1.6896826395713037e-11 1.8699716867225035e-11  1.9999999999682925e+02 -2.2519638019311292e-11 -4.0192227082980412e-11  1.9999999999635048e+02 -4.8179495634836668e-11 -5.4983459471472444e-11  1.9999999999644567e+02 -3.2233979709535216e-11 -1.7107940909635730e-12  1.9999999999643819e+02 7.2760117545183626e-11 7.6578388510677421e-11  1.9999999999641940e+02 -2.5814562696612677e-12 3.5358858424241311e-11  1.9999999999689061e+02 -4.3335587070142817e-11 -8.2100259885483889e-11  1.9999999999691462e+02 -3.3595745733601933e-11 -5.5493478315167715e-11  1.9999999999735002e+02 -3.9435042107917404e-11 -5.4618415060115969e-11  1.9999999999733637e+02 2.2830757646759434e-12 -6.6731972813956364e-12  1.9999999999724619e+02 8.3544723517959066e-11 7.1943749958526268e-11  1.9999999999687543e+02 3.6583830494955409e-11 2.9127350097280985e-11  1.9999999999734996e+02 6.8143837204363064e-12 -4.4108385156833704e-12  1.9999999999598396e+02 -4.5457620718526219e-11 -3.0610672457298632e-11  1.9999999999598052e+02 -5.2253837957337119e-11 -5.8280361509302056e-11  1.9999999999555135e+02 -2.7394628051651453e-11 2.9137196189094424e-11  1.9999999999564184e+02 4.6421173085154882e-11 6.2341017859242237e-11  1.9999999999597509e+02 -7.7675931911991086e-11 -3.4202379416425803e-11  1.9999999999601758e+02 -9.0901442618212029e-12 1.4650520464048096e-11  1.9999999999685173e+02 -2.6058192564699549e-11 -4.1082169074459742e-11  1.9999999999645186e+02 -8.9500527861608673e-11 -9.3540631684769027e-11  1.9999999999645590e+02 9.0401113080729628e-12 -7.9554051009105945e-12  1.9999999999643825e+02 7.5203689321444389e-11 4.4653391804819893e-11  1.9999999999644200e+02 -5.8005831852240834e-12 -1.0923612649278110e-11  1.9999999999690965e+02 -4.9281655644167286e-11 -7.4793184748008827e-11  1.9999999999689337e+02 -2.7718450334285130e-11 -4.2915703217752873e-11  1.9999999999733549e+02 -6.4115160145718067e-11 -6.2966446762213311e-11  1.9999999999732972e+02 4.1451198737166644e-12 -8.4944939269449213e-12  1.9999999999726242e+02 6.4409883306095734e-11 4.6570152240732387e-11  1.9999999999685028e+02 -2.0438947056959979e-11 -1.6884027585828136e-12  1.9999999999737395e+02 -6.7594253127706546e-12 1.6549893950317520e-11  1.9999999999596719e+02 -2.1705100134235536e-11 -3.2075797979810180e-11  1.9999999999597125e+02 -4.1733131199007886e-11 -6.3087806300405747e-11  1.9999999999555666e+02 -2.3951871876288914e-13 2.7632010457863856e-11  1.9999999999564193e+02 6.8015684154385679e-11 3.9306553483841197e-11  1.9999999999597608e+02 -4.8083149549064151e-12 -5.3482698740487192e-11  1.9999999999601127e+02 -1.6634595745236364e-11 8.2827742977060677e-13  1.9999999999731085e+02 4.7536975027054444e-11 -9.5808190560213697e-11  1.9999999999778268e+02 -4.4461453089845320e-11 -4.5066452978726698e-11  1.9999999999730193e+02 8.5140465893917202e-11 -1.6834755631367956e-11  1.9999999999730127e+02 9.3214765542281720e-11 9.7647134695347404e-11  1.9999999999732267e+02 2.4793238711979441e-11 -2.9296478718273167e-11  1.9999999999776307e+02 -1.4827423203876927e-10 -1.4940997003847132e-11  1.9999999999730454e+02 2.6712563330824295e-10 9.2302358214724233e-11  1.9999999999733163e+02 -1.1191690584982244e-11 -1.3534210234164181e-11  1.9999999999778066e+02 -4.4121312410266766e-11 -9.0054470413470711e-11  1.9999999999780042e+02 4.4059205080727820e-11 -1.8867580400877494e-11  1.9999999999685301e+02 -2.5260666240799167e-11 -4.1201554803538287e-11  1.9999999999638311e+02 -4.2594778349446962e-13 -3.1482253998670229e-11  1.9999999999640769e+02 4.1621495844060304e-11 -2.3530638320960571e-11  1.9999999999651178e+02 5.4580943274307627e-11 7.5378387983255502e-11  1.9999999999688464e+02 -1.8336497406911868e-10 -2.1040107211485073e-11  1.9999999999642466e+02 4.6277033639294461e-12 1.3979752078989401e-11  1.9999999999651783e+02 2.3882243330033363e-10 4.6368499920597935e-11  1.9999999999646494e+02 -3.6015135331073145e-11 4.9077161494963599e-12  1.9999999999683644e+02 -3.5096904988044131e-12 -5.2285426875930894e-11  1.9999999999689996e+02 1.5745748766275978e-11 -9.2509377559345965e-12  1.9999999999681361e+02 2.7045498873222024e-11 -1.0617611279516179e-10  1.9999999999686406e+02 3.9739324509763908e-11 -1.8659987598616556e-11  1.9999999999598884e+02 -2.1291551561081277e-11 -2.6273774572202645e-11  1.9999999999591759e+02 1.2519950294300084e-11 -8.8052405719024933e-11  1.9999999999556300e+02 2.5771887618185791e-11 -1.9009870035180447e-11  1.9999999999565821e+02 5.3231323017330424e-11 6.6915768776251529e-11  1.9999999999595809e+02 -2.6363111655470819e-11 -9.4755978480997961e-11  1.9999999999599729e+02 1.4725767669683039e-11 -1.7341640824720162e-11  1.9999999999685096e+02 -2.4492174902244308e-11 -1.7831990905466404e-11  1.9999999999636910e+02 -3.3313551126948624e-11 -4.4852143380277037e-11  1.9999999999644305e+02 3.1846663736093937e-11 -6.0749603644056260e-13  1.9999999999644962e+02 8.2419692440731241e-11 6.6018460557824857e-11  1.9999999999642193e+02 1.0445837918506840e-11 -7.2515435726409454e-13  1.9999999999686943e+02 -1.4325240773884562e-11 -1.1442207518867678e-10  1.9999999999687276e+02 -5.6942132180109947e-11 -4.3752503686407095e-11  1.9999999999731656e+02 -2.2099771501625933e-12 -2.8952485081728550e-11  1.9999999999735238e+02 3.3416030030131716e-11 -3.4996078026569584e-11  1.9999999999725861e+02 8.9814948653375721e-11 6.2622856123142371e-11  1.9999999999686617e+02 4.6640910688758963e-11 4.5562280994368284e-11  1.9999999999733166e+02 2.4452209062419068e-11 9.0800575028269384e-12  1.9999999999598123e+02 -2.4960292705457464e-11 -3.7905637391891107e-11  1.9999999999553924e+02 -5.1162497880976021e-12 -5.1562353427123371e-11  1.9999999999554075e+02 2.8667361961016876e-11 4.5613204605896297e-12  1.9999999999567342e+02 6.9468429139074559e-11 4.4649190429495529e-11  1.9999999999558929e+02 2.9401552366505603e-11 2.7778153153487282e-11  1.9999999999597068e+02 -3.1793238070033230e-11 -8.5810776623664346e-11  1.9999999999599808e+02 -4.9170435357440035e-11 -3.7949551979102350e-11  1.9999999999601610e+02 4.2706307946206353e-11 -2.5090329942564001e-11  1.9999999999682532e+02 -1.6858219585892079e-11 -3.0026758328397451e-11  1.9999999999635077e+02 -4.6248871606953232e-11 -4.4510730736416473e-11  1.9999999999644695e+02 -3.5645107892390731e-11 4.4527663784987774e-12  1.9999999999642765e+02 7.2286162814699489e-11 7.4977940080233711e-11  1.9999999999646423e+02 3.3570415593287908e-12 -3.0251867683910640e-11  1.9999999999691829e+02 -3.5088677936232696e-11 -4.1777728993727545e-11  1.9999999999691460e+02 -4.2976801873947819e-11 -2.1904950173299073e-11  1.9999999999732245e+02 -7.0669794279821486e-11 -2.3596539779784191e-11  1.9999999999734160e+02 -1.6615688491265091e-11 -4.8275671322831289e-11  1.9999999999725557e+02 7.8366587099112804e-11 4.8680138459183741e-11  1.9999999999690081e+02 1.6020515657910915e-11 -8.6289453946972590e-12  1.9999999999734641e+02 -6.6469126353553577e-12 2.1244720294409746e-11  1.9999999999598745e+02 -5.2195444183193265e-11 -3.7800633843973844e-11  1.9999999999554007e+02 -6.1232296249439802e-11 -3.4110209583343333e-11  1.9999999999553404e+02 -5.5797453153207502e-12 2.6631004203597238e-11  1.9999999999563767e+02 4.2031261233765235e-11 7.1245415174448303e-11  1.9999999999556027e+02 7.6328782268757373e-12 1.2553718854037943e-11  1.9999999999598640e+02 -3.9950951618273630e-11 -5.7655622972042786e-11  1.9999999999597560e+02 -7.9919588392338229e-11 -3.0577413294934891e-11  1.9999999999600914e+02 -7.8316412511494784e-12 1.2031618015178071e-11  1.9999999999685772e+02 -4.0219799622980349e-11 -2.1358910329368491e-11  1.9999999999643398e+02 -8.9790297501005672e-11 -8.6620811049026882e-11  1.9999999999645112e+02 -6.8996365796694919e-11 7.4043975891530906e-12  1.9999999999641696e+02 6.0057306626908806e-11 6.8332782015428691e-11  1.9999999999643811e+02 -3.4673882704478101e-11 -7.8733334110213006e-12  1.9999999999689669e+02 -4.9767675006768103e-11 -7.0644151575646491e-11  1.9999999999687472e+02 -8.9444306363957887e-11 -3.2618377230895041e-11  1.9999999999732751e+02 -4.9649342059125790e-11 -4.3964567921345524e-11  1.9999999999734882e+02 6.4441112775716567e-13 -2.9310378894115692e-11  1.9999999999727066e+02 4.5998527960649790e-11 5.0711269107746654e-11  1.9999999999686941e+02 1.2183741435786544e-12 1.0005989222143208e-11  1.9999999999735476e+02 -4.546059326