<?xml version="1.0"?>
<VTKFile type="UnstructuredGrid"  version="0.1"  >
<UnstructuredGrid>
<Piece  NumberOfPoints="587" NumberOfCells="2406">
<Points>
<DataArray  type="Float64"  NumberOfComponents="3"  format="ascii">45 30 0  45 32.5 2.5  45 32.5 0  42.5 32.5 2.5  42.5 32.5 0  45 35 0  45 35 2.5  45 35 5  40 35 0  42.5 35 2.5  42.5 35 0  40 35 2.5  40 35 5  42.5 35 5  50 35 0  50 35 2.5  50 32.5 2.5  47.5 32.5 2.5  50 32.5 0  47.5 32.5 0  50 35 5  50 32.5 5  47.5 32.5 5  47.5 35 2.5  47.5 35 0  47.5 35 5  30 35 0  30 37.5 2.5  30 37.5 0  27.5 37.5 2.5  30 40 0  30 40 2.5  30 40 5  30 35 2.5  30 35 5  30 37.5 5  27.5 37.5 5  27.5 40 2.5  27.5 40 5  32.5 37.5 2.5  32.5 37.5 0  32.5 35 0  35 35 0  35 37.5 2.5  35 37.5 0  35 40 0  35 40 2.5  35 40 5  32.5 35 2.5  35 35 2.5  35 35 5  35 37.5 5  32.5 37.5 5  32.5 35 5  32.5 40 2.5  32.5 40 0  32.5 40 5  37.5 37.5 2.5  37.5 37.5 0  37.5 35 0  40 37.5 2.5  40 37.5 0  40 40 0  40 40 2.5  40 40 5  37.5 35 2.5  40 37.5 5  37.5 37.5 5  37.5 35 5  37.5 40 2.5  37.5 40 0  37.5 40 5  42.5 37.5 2.5  42.5 37.5 0  45 37.5 2.5  45 37.5 0  45 40 0  45 40 2.5  45 40 5  45 37.5 5  42.5 37.5 5  42.5 40 2.5  42.5 40 0  42.5 40 5  47.5 37.5 2.5  47.5 37.5 0  50 37.5 2.5  50 37.5 0  50 40 0  50 40 2.5  50 40 5  50 37.5 5  47.5 37.5 5  47.5 40 2.5  47.5 40 0  47.5 40 5  30 42.5 2.5  30 42.5 0  27.5 42.5 2.5  30 45 0  30 45 2.5  30 45 5  30 42.5 5  27.5 42.5 5  32.5 42.5 2.5  32.5 42.5 0  35 42.5 2.5  35 42.5 0  35 45 0  35 45 2.5  35 45 5  35 42.5 5  32.5 42.5 5  32.5 45 2.5  32.5 45 0  32.5 45 5  37.5 42.5 2.5  37.5 42.5 0  40 42.5 2.5  40 42.5 0  40 45 0  40 45 2.5  40 45 5  40 42.5 5  37.5 42.5 5  37.5 45 2.5  37.5 45 0  37.5 45 5  42.5 42.5 2.5  42.5 42.5 0  45 42.5 2.5  45 42.5 0  45 45 0  45 45 2.5  45 45 5  45 42.5 5  42.5 42.5 5  42.5 45 2.5  42.5 45 0  42.5 45 5  47.5 42.5 2.5  47.5 42.5 0  50 42.5 2.5  50 42.5 0  50 45 0  50 45 2.5  50 45 5  50 42.5 5  47.5 42.5 5  47.5 45 2.5  47.5 45 0  47.5 45 5  32.5 47.5 2.5  32.5 47.5 0  35 47.5 2.5  35 47.5 0  35 50 0  35 50 2.5  35 50 5  35 47.5 5  32.5 47.5 5  32.5 50 2.5  32.5 50 0  32.5 50 5  37.5 47.5 2.5  37.5 47.5 0  40 47.5 2.5  40 47.5 0  40 50 0  40 50 2.5  40 50 5  40 47.5 5  37.5 47.5 5  37.5 50 2.5  37.5 50 0  37.5 50 5  42.5 47.5 2.5  42.5 47.5 0  45 47.5 2.5  45 47.5 0  45 50 0  45 50 2.5  45 50 5  45 47.5 5  42.5 47.5 5  42.5 50 2.5  42.5 50 0  42.5 50 5  47.5 47.5 2.5  47.5 47.5 0  50 47.5 2.5  50 47.5 0  50 50 0  50 50 2.5  50 50 5  50 47.5 5  47.5 47.5 5  47.5 50 2.5  47.5 50 0  47.5 50 5  50 35 7.5  50 32.5 7.5  47.5 32.5 7.5  50 35 10  50 32.5 10  47.5 32.5 10  47.5 35 7.5  45 35 10  47.5 35 10  45 35 7.5  30 37.5 7.5  27.5 37.5 7.5  30 40 7.5  30 40 10  27.5 40 7.5  32.5 37.5 7.5  35 37.5 7.5  35 40 7.5  35 40 10  32.5 40 7.5  32.5 40 10  37.5 37.5 7.5  40 37.5 7.5  40 40 7.5  40 40 10  40 35 7.5  40 35 10  40 37.5 10  37.5 37.5 10  37.5 40 7.5  37.5 40 10  42.5 37.5 7.5  45 37.5 7.5  45 40 7.5  45 40 10  42.5 35 7.5  45 37.5 10  42.5 37.5 10  42.5 35 10  42.5 40 7.5  42.5 40 10  47.5 37.5 7.5  50 37.5 7.5  50 40 7.5  50 40 10  50 37.5 10  47.5 37.5 10  47.5 40 7.5  47.5 40 10  30 42.5 7.5  27.5 42.5 7.5  30 45 7.5  30 45 10  30 42.5 10  32.5 42.5 7.5  35 42.5 7.5  35 45 7.5  35 45 10  35 42.5 10  32.5 42.5 10  32.5 45 7.5  32.5 45 10  37.5 42.5 7.5  40 42.5 7.5  40 45 7.5  40 45 10  40 42.5 10  37.5 42.5 10  37.5 45 7.5  37.5 45 10  42.5 42.5 7.5  45 42.5 7.5  45 45 7.5  45 45 10  45 42.5 10  42.5 42.5 10  42.5 45 7.5  42.5 45 10  47.5 42.5 7.5  50 42.5 7.5  50 45 7.5  50 45 10  50 42.5 10  47.5 42.5 10  47.5 45 7.5  47.5 45 10  32.5 47.5 7.5  35 47.5 7.5  35 50 7.5  35 50 10  35 47.5 10  32.5 47.5 10  32.5 50 7.5  32.5 50 10  37.5 47.5 7.5  40 47.5 7.5  40 50 7.5  40 50 10  40 47.5 10  37.5 47.5 10  37.5 50 7.5  37.5 50 10  42.5 47.5 7.5  45 47.5 7.5  45 50 7.5  45 50 10  45 47.5 10  42.5 47.5 10  42.5 50 7.5  42.5 50 10  47.5 47.5 7.5  50 47.5 7.5  50 50 7.5  50 50 10  50 47.5 10  47.5 47.5 10  47.5 50 7.5  47.5 50 10  32.5 47.5 12.5  35 47.5 12.5  35 50 12.5  35 50 15  32.5 50 12.5  32.5 50 15  37.5 47.5 12.5  37.5 50 12.5  40 50 12.5  40 50 15  37.5 50 15  35 40 12.5  35 37.5 12.5  32.5 37.5 12.5  35 40 15  35 37.5 15  32.5 37.5 15  32.5 40 12.5  30 40 15  32.5 40 15  30 40 12.5  32.5 42.5 12.5  35 42.5 12.5  35 45 12.5  35 45 15  35 42.5 15  32.5 42.5 15  32.5 45 12.5  32.5 45 15  37.5 42.5 12.5  37.5 42.5 15  37.5 45 15  40 45 15  37.5 45 12.5  35 47.5 15  32.5 47.5 15  37.5 47.5 15  40 47.5 15  35 40 17.5  35 37.5 17.5  32.5 37.5 17.5  35 40 20  35 37.5 20  32.5 37.5 20  32.5 40 17.5  30 40 20  32.5 40 20  30 37.5 20  37.5 40 20  37.5 37.5 20  37.5 37.5 17.5  40 40 20  37.5 40 17.5  32.5 42.5 17.5  35 42.5 17.5  35 45 17.5  35 45 20  35 42.5 20  32.5 42.5 20  32.5 45 17.5  32.5 45 20  37.5 42.5 17.5  37.5 42.5 20  40 42.5 20  40 45 20  37.5 45 17.5  40 45 17.5  37.5 45 20  35 47.5 17.5  32.5 47.5 17.5  35 50 17.5  35 50 20  35 47.5 20  32.5 47.5 20  32.5 50 17.5  32.5 50 20  37.5 47.5 17.5  40 47.5 17.5  40 50 17.5  40 50 20  40 47.5 20  37.5 47.5 20  37.5 50 17.5  37.5 50 20  35 40 22.5  35 37.5 22.5  32.5 37.5 22.5  32.5 40 22.5  30 40 22.5  37.5 40 22.5  37.5 37.5 22.5  40 40 22.5  32.5 42.5 22.5  35 42.5 22.5  35 45 22.5  32.5 45 22.5  37.5 42.5 22.5  40 42.5 22.5  40 45 22.5  37.5 45 22.5  35 47.5 22.5  32.5 47.5 22.5  35 50 22.5  32.5 50 22.5  37.5 47.5 22.5  40 47.5 22.5  40 50 22.5  37.5 50 22.5  45 35 12.5  45 32.5 12.5  42.5 32.5 12.5  45 35 15  42.5 35 12.5  40 35 12.5  40 35 15  42.5 35 15  50 35 12.5  50 32.5 12.5  47.5 32.5 12.5  50 35 15  47.5 35 12.5  47.5 35 15  40 37.5 12.5  37.5 37.5 12.5  40 40 12.5  40 40 15  40 37.5 15  37.5 37.5 15  37.5 40 12.5  37.5 40 15  42.5 37.5 12.5  45 37.5 12.5  45 40 12.5  45 40 15  45 37.5 15  42.5 37.5 15  42.5 40 12.5  42.5 40 15  47.5 37.5 12.5  50 37.5 12.5  50 40 12.5  50 40 15  50 37.5 15  47.5 37.5 15  47.5 40 12.5  47.5 40 15  40 42.5 12.5  40 45 12.5  40 42.5 15  42.5 42.5 12.5  45 42.5 12.5  45 45 12.5  45 45 15  45 42.5 15  42.5 42.5 15  42.5 45 12.5  42.5 45 15  47.5 42.5 12.5  50 42.5 12.5  50 45 12.5  50 45 15  50 42.5 15  47.5 42.5 15  47.5 45 12.5  47.5 45 15  40 47.5 12.5  42.5 47.5 12.5  45 47.5 12.5  45 50 12.5  45 50 15  45 47.5 15  42.5 47.5 15  42.5 50 12.5  42.5 50 15  47.5 47.5 12.5  50 47.5 12.5  50 50 12.5  50 50 15  50 47.5 15  47.5 47.5 15  47.5 50 12.5  47.5 50 15  40 37.5 17.5  40 40 17.5  40 35 17.5  40 35 20  40 37.5 20  42.5 37.5 17.5  45 37.5 17.5  45 40 17.5  45 40 20  45 35 17.5  45 35 20  45 37.5 20  42.5 37.5 20  42.5 40 17.5  42.5 40 20  47.5 37.5 17.5  50 37.5 17.5  50 40 17.5  50 40 20  50 37.5 20  47.5 37.5 20  47.5 40 17.5  47.5 40 20  40 42.5 17.5  42.5 42.5 17.5  45 42.5 17.5  45 45 17.5  45 45 20  45 42.5 20  42.5 42.5 20  42.5 45 17.5  42.5 45 20  47.5 42.5 17.5  50 42.5 17.5  50 45 17.5  50 45 20  50 42.5 20  47.5 42.5 20  47.5 45 17.5  47.5 45 20  42.5 47.5 17.5  45 47.5 17.5  45 50 17.5  45 50 20  45 47.5 20  42.5 47.5 20  42.5 50 17.5  42.5 50 20  47.5 47.5 17.5  50 47.5 17.5  50 50 17.5  50 50 20  50 47.5 20  47.5 47.5 20  47.5 50 17.5  47.5 50 20  40 37.5 22.5  40 35 22.5  45 37.5 22.5  42.5 37.5 22.5  45 40 22.5  42.5 40 22.5  50 40 22.5  50 37.5 22.5  47.5 37.5 22.5  50 40 25  47.5 40 22.5  42.5 42.5 22.5  45 42.5 22.5  45 45 22.5  45 45 25  42.5 45 22.5  47.5 42.5 22.5  50 42.5 22.5  50 45 22.5  50 45 25  50 42.5 25  47.5 45 22.5  47.5 45 25  42.5 47.5 22.5  45 47.5 22.5  45 50 22.5  42.5 50 22.5  47.5 47.5 22.5  50 47.5 22.5  50 50 22.5  47.5 50 22.5  </DataArray>
</Points>
<Cells>
[...]
<PointData  Vectors="u"> 
<DataArray  type="Float64"  Name="u"  NumberOfComponents="3" format="ascii">1.9999999999243477e+02 5.4972946190980855e-11 3.0869299547898054e-10  1.9999999999229115e+02 -6.3021162906490384e-11 -1.0131920130489689e-10  1.9999999999232259e+02 -4.1395436946015237e-11 1.9905203310646660e-11  1.9999999999272282e+02 -5.0372882103110434e-11 -8.4396885798516289e-11  1.9999999999266637e+02 -9.8109698496141992e-11 -2.2841991782350338e-10  1.9999999999243397e+02 5.3083498437607407e-11 2.9148250450052958e-10  1.9999999999236664e+02 -4.7057837308843778e-12 -4.4171338087842747e-11  1.9999999999240123e+02 3.0904358967561040e-11 4.7133464523503351e-11  1.9999999999319706e+02 4.6937690929423063e-11 3.2036454579021272e-10  1.9999999999269082e+02 -8.7334072537303667e-11 -8.7393044946509618e-11  1.9999999999274453e+02 -5.3363733908295430e-11 1.6082969604881118e-11  1.9999999999314758e+02 -1.3473762111939625e-11 -4.0030579887496530e-11  1.9999999999318942e+02 4.4018119271643011e-11 6.2376405007914872e-11  1.9999999999273712e+02 -1.6444290496816297e-11 -1.7080527992703002e-11  1.9999999999158581e+02 2.3023725276191267e-11 1.3882079073662346e-10  1.9999999999151197e+02 2.7814296332964848e-13 -7.5910392693372503e-12  1.9999999999146959e+02 -7.7941544708888869e-14 -1.0109654185212492e-11  1.9999999999198627e+02 -4.6820909816121428e-11 -7.9614741764235929e-11  1.9999999999152789e+02 -1.1785555896774333e-12 -3.1396522164042263e-11  1.9999999999194984e+02 -7.9584927662685258e-11 -1.7144790270709162e-10  1.9999999999161514e+02 1.4886108732176685e-11 2.2591413708160006e-11  1.9999999999153854e+02 3.4067619782358739e-12 6.2789448944343612e-12  1.9999999999197857e+02 -6.0820463522272861e-11 -1.0604828791721953e-10  1.9999999999198687e+02 -9.0215251494225583e-11 -9.5701441961160725e-11  1.9999999999199377e+02 -3.2020769404096193e-11 -1.4432291893840166e-11  1.9999999999201461e+02 8.9353308604290751e-12 -1.0941459245462477e-11  1.9999999999472371e+02 6.2930606331011376e-11 3.5240079441730613e-10  1.9999999999472271e+02 -1.2546770325480891e-10 -1.3180571617662701e-10  1.9999999999472547e+02 -3.6850774322559611e-11 8.3038225483591801e-12  1.9999999999514696e+02 -2.8781236809256487e-11 -4.5165602172403664e-11  1.9999999999473084e+02 7.3581298316921630e-11 3.4555323675875271e-10  1.9999999999472141e+02 -3.4514989457285718e-11 -4.2983904263378929e-11  1.9999999999473019e+02 5.4094601162322638e-11 8.6100519735655560e-11  1.9999999999472493e+02 -2.8793475307593871e-11 -5.6647638758960849e-11  1.9999999999471970e+02 7.1452807535851796e-11 9.4156056303007877e-11  1.9999999999478504e+02 -3.0236313124484583e-11 -3.1792689764222709e-11  1.9999999999513616e+02 -7.2341991333252468e-11 9.1528576358075409e-13  1.9999999999514651e+02 -4.2640201786337711e-11 -1.0187328446460024e-10  1.9999999999515796e+02 -6.2065965641608887e-11 -1.3317532556967962e-11  1.9999999999429062e+02 -2.6953880869756318e-11 -7.2286333298897500e-11  1.9999999999426720e+02 -1.0645312650051613e-10 -2.3034994602953993e-10  1.9999999999432535e+02 -5.6636255986489059e-11 2.5847826154888525e-12  1.9999999999399950e+02 5.7339718040022621e-11 3.4302618315626742e-10  1.9999999999386611e+02 -6.1538182520876264e-11 -1.0147731511260096e-10  1.9999999999389004e+02 -7.0554988395176398e-12 1.3233537824565202e-11  1.9999999999399037e+02 3.8291498197591854e-11 3.2948098924155903e-10  1.9999999999391500e+02 -1.6892502279203755e-11 -3.9803626477128104e-11  1.9999999999397500e+02 3.6586710822449612e-11 7.8865562250400385e-11  1.9999999999428678e+02 -5.3904418070079453e-11 -9.7353306438622808e-11  1.9999999999393964e+02 -8.2693487930940983e-12 -6.9887079762551651e-11  1.9999999999397491e+02 5.2869393707511630e-11 7.8899868304811088e-11  1.9999999999394259e+02 5.1992267391441705e-12 1.5705902191983233e-11  1.9999999999427251e+02 -5.1330828717296310e-11 -5.6046744565645132e-11  1.9999999999430756e+02 -3.2859777235154813e-13 2.1117423739541000e-11  1.9999999999429414e+02 -7.7842458262060935e-11 -8.8237992258043763e-11  1.9999999999432191e+02 -3.7426826681258821e-11 3.2947880916450659e-11  1.9999999999433479e+02 -1.6042646823082103e-11 5.4978030175518004e-12  1.9999999999350081e+02 -2.6478082384875219e-11 -8.5651645453381011e-11  1.9999999999344473e+02 -9.5811841750925998e-11 -2.1621667433945120e-10  1.9999999999352792e+02 -4.6300267171846194e-11 2.7205831868798502e-11  1.9999999999304035e+02 -5.3341746818044170e-11 -9.5635984104135707e-11  1.9999999999309563e+02 -2.7492794284055956e-11 2.9328409215769878e-11  1.9999999999319868e+02 4.5974245899077799e-11 3.1111352963936764e-10  1.9999999999312985e+02 -3.2541530466522223e-11 -5.7989573667378104e-11  1.9999999999317200e+02 3.8683315492076418e-11 7.2340792929264831e-11  1.9999999999349092e+02 -9.1283927978474653e-11 -1.1227271044335364e-10  1.9999999999315179e+02 -2.2070208415792738e-11 2.3401517740919060e-12  1.9999999999346329e+02 -4.5569315359216787e-11 -9.0827464844800743e-11  1.9999999999354961e+02 -2.1045772879660908e-12 1.6507629997243154e-11  1.9999999999348952e+02 -1.0107627246168342e-10 -8.6992318160177188e-11  1.9999999999354444e+02 -6.2381615105803810e-11 6.0675071776987497e-12  1.9999999999351627e+02 -8.4701889289241538e-12 1.4754760698401612e-11  1.9999999999272049e+02 -5.0560237818744222e-11 -9.0999556253490272e-11  1.9999999999266859e+02 -8.8823286534487555e-11 -2.3715186813834774e-10  1.9999999999231611e+02 -6.8933944514142669e-11 -9.7803470658563193e-11  1.9999999999235317e+02 -3.8119789668277240e-11 1.3646651286129819e-11  1.9999999999241061e+02 4.1915068713077767e-11 3.0945851484097007e-10  1.9999999999237212e+02 -1.7550793718729278e-11 -5.3976476809541566e-11  1.9999999999240381e+02 4.2802043132080252e-11 5.9385947007768216e-11  1.9999999999237409e+02 -2.3174298703387217e-11 -9.8277413845697905e-12  1.9999999999268988e+02 -6.0043739178633712e-11 -7.3339661443914948e-11  1.9999999999269923e+02 -7.0153693183039758e-11 -1.0474793931649704e-10  1.9999999999272677e+02 -3.7424436538592425e-11 1.7128179819237939e-11  1.9999999999273956e+02 -5.8958163307917031e-13 7.9561104423018723e-12  1.9999999999197081e+02 -5.1989585297796523e-11 -8.9126204242830953e-11  1.9999999999195194e+02 -1.1169325689404646e-10 -1.6895340441700250e-10  1.9999999999149986e+02 3.5298405654662603e-13 -6.6241066188438182e-13  1.9999999999148594e+02 -3.3685861214297742e-12 -5.6015969696732922e-11  1.9999999999160954e+02 1.4385140000581698e-11 1.4868453491884757e-10  1.9999999999149864e+02 -4.0294328763472367e-12 -8.4580558483063473e-12  1.9999999999160974e+02 1.4249049086978375e-11 2.1578845303070676e-11  1.9999999999151845e+02 -2.9619498209565196e-12 6.4065292674439232e-13  1.9999999999198778e+02 -5.4817717488613479e-11 -9.9141583466994556e-11  1.9999999999198957e+02 -9.0819418899340440e-11 -7.8963311633218336e-11  1.9999999999200088e+02 -5.8244291650384831e-11 1.1111246623730201e-11  1.9999999999200602e+02 -7.5883857883619874e-12 1.7324611879567840e-12  1.9999999999471203e+02 -1.2302203849452952e-10 -1.4157819227152773e-10  1.9999999999472854e+02 -3.0305565815634110e-11 -1.8834916968741566e-12  1.9999999999514529e+02 -2.6880661087299345e-11 -4.8377141607828822e-11  1.9999999999473295e+02 5.1332384281678727e-11 3.3126397410208575e-10  1.9999999999471976e+02 -4.0716408070655594e-11 -2.8803378617118524e-11  1.9999999999473562e+02 4.6535512707101481e-11 8.6621342275066847e-11  1.9999999999476523e+02 -3.5062549821248963e-11 -2.8590103397333351e-11  1.9999999999514148e+02 -6.2767064099545634e-11 -5.6211158205866548e-12  1.9999999999428869e+02 -3.2823627000335689e-11 -7.3799359433398469e-11  1.9999999999425995e+02 -9.4242473613467284e-11 -2.2878706509502180e-10  1.9999999999385696e+02 -5.0836604424866575e-11 -8.6994883835112185e-11  1.9999999999388604e+02 -1.5168204939402385e-11 4.8583104307323757e-12  1.9999999999398278e+02 4.4671881842321933e-11 3.2651015721725113e-10  1.9999999999391608e+02 -7.1889010729177663e-12 -4.0273882532662631e-11  1.9999999999398207e+02 3.0782026838030245e-11 8.1288740937413177e-11  1.9999999999393228e+02 -7.8322257429517241e-12 1.6426843867832170e-11  1.9999999999428505e+02 -5.4748541063766716e-11 -7.0517021671674120e-11  1.9999999999430332e+02 -6.4075501154480006e-11 -9.3069931511659767e-11  1.9999999999433507e+02 -5.2019484426090722e-11 6.5153151258077933e-12  1.9999999999433086e+02 -1.3184584065315192e-11 1.1822431010972157e-11  1.9999999999349353e+02 -3.9983778172985455e-11 -7.3691948805921418e-11  1.9999999999343547e+02 -8.6484538095110045e-11 -2.3049727749983880e-10  1.9999999999307616e+02 -5.0524722842862874e-11 -9.3037496804021337e-11  1.9999999999312635e+02 -3.8394143142566281e-11 -8.2674145522699997e-12  1.9999999999318700e+02 4.4402118286581865e-11 3.1993522031389125e-10  1.9999999999313445e+02 -9.0748439987144196e-12 -4.1829296709106719e-11  1.9999999999317342e+02 3.1218162319873892e-11 7.3404029692624647e-11  1.9999999999313630e+02 -1.3743954797077717e-11 2.4541263565466823e-12  1.9999999999346440e+02 -5.5881042325177461e-11 -6.5500005752267921e-11  1.9999999999348123e+02 -4.7488900100677374e-11 -8.7218828488034680e-11  1.9999999999352079e+02 -3.5007120895063385e-11 -3.3284107345381908e-13  1.9999999999349973e+02 -2.7250376259877846e-12 2.5465517458892404e-11  1.9999999999272109e+02 -4.5852229166900804e-11 -9.2700340190356764e-11  1.9999999999265484e+02 -9.8536911987077310e-11 -2.1122777616130119e-10  1.9999999999227592e+02 -5.4252633310999271e-11 -1.0250327928014678e-10  1.9999999999233322e+02 -2.0818611505146093e-11 1.6594925822410091e-11  1.9999999999241334e+02 3.6641211279805975e-11 2.9960135963250851e-10  1.9999999999236667e+02 -8.8839181034296355e-12 -4.3771089374682706e-11  1.9999999999239378e+02 3.2756866466520513e-11 5.7430031736127576e-11  1.9999999999235632e+02 -2.4899694118024725e-11 9.5296594389122082e-12  1.9999999999271117e+02 -5.8189266712541009e-11 -6.6015918293397995e-11  1.9999999999271535e+02 -7.7237110752543326e-11 -9.8819806162973934e-11  1.9999999999275144e+02 -4.8453252128875038e-11 1.4818904569100330e-11  1.9999999999274971e+02 -5.4525683509873749e-12 2.2323109388311090e-11  1.9999999999197223e+02 -4.7995619047498876e-11 -7.5047754097356726e-11  1.9999999999193903e+02 -7.4939100860191128e-11 -2.0878765059299201e-10  1.9999999999152976e+02 3.7719152289042990e-12 -8.1067728988886132e-12  1.9999999999152365e+02 -8.0022066708988577e-12 -4.8605084485449173e-11  1.9999999999159542e+02 2.0221620330226456e-11 1.4669637575577888e-10  1.9999999999150634e+02 4.8178443523142450e-12 -1.1204180168267324e-11  1.9999999999159843e+02 2.9959052568634390e-12 2.4057628576482047e-11  1.9999999999151527e+02 -1.2095880956811246e-12 7.3125432783942538e-12  1.9999999999198499e+02 -5.0754102943807711e-11 -8.7424114412289529e-11  1.9999999999198522e+02 -5.0817831583822048e-11 -8.1380535631933081e-11  1.9999999999199733e+02 -4.1125184887998514e-11 1.9820949593432694e-11  1.9999999999200850e+02 -5.8304942379100164e-12 -9.9551666557142174e-12  1.9999999999428405e+02 2.4569484795703619e-11 -7.6258321421949235e-11  1.9999999999424136e+02 -4.4160880341959331e-11 -2.2095267386740499e-10  1.9999999999386074e+02 6.1387922625975480e-12 -9.2546096007213249e-11  1.9999999999391400e+02 3.1467658950223514e-12 1.1434449437318425e-11  1.9999999999398156e+02 -2.5074417506921645e-10 3.2333212804937741e-10  1.9999999999396843e+02 -1.5155095530104132e-11 -1.6033892614954120e-11  1.9999999999396289e+02 -2.3917806019386098e-10 7.5939595849060112e-11  1.9999999999395681e+02 1.7273101237996605e-11 2.5272515052643537e-11  1.9999999999427891e+02 1.2988588964787013e-11 -7.2467352974565592e-11  1.9999999999431020e+02 1.0723961503761697e-10 -4.8712837193841739e-11  1.9999999999432282e+02 4.5405124524139883e-12 4.4947563786991273e-11  1.9999999999433197e+02 -7.3134195811715904e-12 6.1752470976745386e-11  1.9999999999348321e+02 1.0291596611123894e-11 -8.4829105736890268e-11  1.9999999999344553e+02 -3.5495549200288682e-11 -2.4439326434321600e-10  1.9999999999306797e+02 1.5809464803119721e-11 -9.5848603063581211e-11  1.9999999999311055e+02 1.8776315466265863e-11 7.8565814885664932e-12  1.9999999999318993e+02 -2.3673647611175930e-10 3.3542669563303544e-10  1.9999999999318501e+02 -2.8084850704263033e-13 -3.9855577763961141e-11  1.9999999999315736e+02 -2.2169227536446065e-10 5.2182891426365176e-11  1.9999999999312894e+02 1.9435625044073315e-11 1.1184007246111909e-11  1.9999999999347094e+02 1.0478073235539742e-11 -7.4712725229816684e-11  1.9999999999352374e+02 9.1773474224108430e-11 -5.2290940128743690e-11  1.9999999999352258e+02 -7.1997878920321120e-12 2.3476153553898519e-11  1.9999999999353335e+02 -1.1428626594812258e-11 7.7343160869988246e-11  1.9999999999270912e+02 1.8869964734439394e-11 -8.6265662905611248e-11  1.9999999999266387e+02 -3.6620147865479869e-11 -2.3530269915288184e-10  1.9999999999228515e+02 5.6260276978670505e-12 -9.9860526927388488e-11  1.9999999999233663e+02 2.0187795168658932e-11 8.8865711454944240e-12  1.9999999999240032e+02 -2.0967629812435835e-10 3.1245495291953487e-10  1.9999999999239159e+02 9.3311432186701021e-12 -5.5649020331539753e-11  1.9999999999237181e+02 -2.2437177298396415e-10 4.4938781785980106e-11  1.9999999999236579e+02 1.4432590766096904e-12 5.5186470143489736e-12  1.9999999999271228e+02 9.3758109055291510e-12 -9.4481214617881347e-11  1.9999999999273740e+02 1.0999208707744068e-10 -5.5955741668576068e-11  1.9999999999273660e+02 2.2591909542481612e-11 2.4885323308242912e-11  1.9999999999274962e+02 -1.9897160788590074e-11 3.1711158846676086e-11  1.9999999999194952e+02 -3.3599403203601929e-11 -8.4007106491898951e-11  1.9999999999194077e+02 -4.8939245942004292e-11 -2.0621679247774410e-10  1.9999999999149446e+02 6.7985243970955384e-12 -1.2661439324930083e-11  1.9999999999147673e+02 -1.8236808964429217e-12 -5.3045216868189828e-11  1.9999999999160420e+02 -7.3202467163891026e-11 1.4640627096251454e-10  1.9999999999153297e+02 4.5483667797576211e-11 -1.0107774982571747e-11  1.9999999999158410e+02 -7.7088574970691091e-11 2.2684370120519316e-11  1.9999999999151245e+02 8.0574816201774403e-12 2.1284845859263858e-11  1.9999999999196945e+02 -7.2868469182003230e-12 -8.5155974476944789e-11  1.9999999999198818e+02 1.0903898491723131e-10 -5.4164864217312981e-11  1.9999999999197556e+02 2.4777819700415695e-12 1.5401032319044639e-11  1.9999999999201978e+02 4.3717809359424927e-12 4.2735640086668433e-11  1.9999999999152928e+02 5.2256770463659806e-12 -9.5930546614645586e-12  1.9999999999150754e+02 1.4049348283807921e-12 6.3441306062719281e-12  1.9999999999197385e+02 -5.9320799511798214e-11 -5.5933177359006506e-11  1.9999999999160343e+02 1.4946993730226679e-11 1.9025823147112967e-11  1.9999999999155526e+02 6.7275073468991222e-13 -7.0407110798522854e-11  1.9999999999197854e+02 -5.7679034063143206e-11 -2.2678198650012329e-11  1.9999999999198948e+02 -7.4971514479931570e-11 -5.0125889132824324e-11  1.9999999999239660e+02 3.6030045272929391e-11 5.1827313705802944e-11  1.9999999999202225e+02 1.6793280708229117e-11 -3.1728554482937279e-11  1.9999999999236925e+02 -5.5526068354127787e-13 -1.4225880469927507e-11  1.9999999999472865e+02 -1.0886710077464213e-10 -9.1365318988610197e-11  1.9999999999511684e+02 -4.3253341836810626e-11 -2.0251611273590770e-11  1.9999999999472152e+02 -4.2823928340957373e-11 -2.2344948599083969e-11  1.9999999999473198e+02 5.8226100895156376e-11 7.5282839424204586e-11  1.9999999999514966e+02 -4.3190835318897228e-11 -2.1643142664615854e-11  1.9999999999428846e+02 -4.0237522186409777e-11 -3.8084458694942887e-11  1.9999999999383513e+02 -4.8367432569135928e-11 -5.6131700427307594e-11  1.9999999999392878e+02 -8.9884128090755309e-12 1.0237802334765979e-11  1.9999999999396590e+02 4.7991585268462693e-11 4.4542408337396796e-11  1.9999999999429878e+02 -8.6676761754919939e-11 -3.5111172346732878e-11  1.9999999999433257e+02 -5.3169764924061542e-12 -3.5803048494428681e-11  1.9999999999348398e+02 -2.9373911602412996e-11 -4.8276496883861562e-11  1.9999999999307030e+02 -5.8732848003007683e-11 -4.9214896941829958e-11  1.9999999999311376e+02 1.0163271782909190e-11 -9.8028073384624763e-12  1.9999999999316913e+02 5.5535091107096095e-11 4.0726647955422825e-11  1.9999999999312666e+02 -7.0722013517592335e-12 -3.0430134153459696e-11  1.9999999999316663e+02 3.8720465057788550e-11 6.9684435613272643e-11  1.9999999999312308e+02 -1.9778499847532284e-11 -3.0090617075147837e-11  1.9999999999348543e+02 -5.1039383168021984e-11 -6.0978472741639102e-11  1.9999999999347546e+02 -8.5562846219916320e-11 -4.5028398226068614e-11  1.9999999999349737e+02 7.8525501209444613e-12 -4.0317779186098493e-11  1.9999999999270852e+02 -4.5967849035153260e-11 -5.7099240679370858e-11  1.9999999999229436e+02 -6.0985737366319030e-11 -4.8369920404314170e-11  1.9999999999235138e+02 -1.1325818132282566e-11 -3.0245225689476659e-11  1.9999999999240725e+02 2.9287310812623702e-11 5.1298356984050718e-11  1.9999999999270929e+02 -6.5817651049431143e-11 -5.1648274608208859e-11  1.9999999999238747e+02 -2.3009244603271577e-11 -4.1034988312779598e-11  1.9999999999269787e+02 -7.3671958304498401e-11 -5.9768994476005909e-11  1.9999999999274300e+02 -1.9057570336831326e-12 -2.4863699743804233e-11  1.9999999999270133e+02 -8.6449829075225479e-11 -5.8820681883612395e-11  1.9999999999271239e+02 1.5281610566836759e-11 -3.4755913484391924e-11  1.9999999999195899e+02 -5.2904620734372335e-11 -4.6098677138675059e-11  1.9999999999150700e+02 -5.5260778013022652e-12 8.6785391626132247e-14  1.9999999999151240e+02 1.1400717817091290e-11 -8.1643104671268273e-12  1.9999999999160519e+02 1.5131446746519182e-11 2.6183063575679525e-11  1.9999999999154664e+02 -3.4154535713498042e-12 -6.2362442330484781e-11  1.9999999999196314e+02 -5.3109099903996922e-11 -7.2932245832222754e-11  1.9999999999198820e+02 -9.9728023623597780e-11 -5.4575212344734696e-11  1.9999999999200671e+02 -8.7534061042325997e-12 -4.0533527850377654e-11  1.9999999999471041e+02 -1.0330428365415047e-10 -7.7721988847403306e-11  1.9999999999514316e+02 -2.9906005672312353e-11 -1.9485609282663371e-11  1.9999999999471578e+02 -3.2689518947440639e-11 -9.3095433636067990e-12  1.9999999999476381e+02 1.4960595886279449e-11 5.6004905320947662e-11  1.9999999999473002e+02 -3.5608585395182879e-11 -2.4330065701166300e-11  1.9999999999428994e+02 -4.0650411197900682e-11 -3.2196634539183063e-11  1.9999999999384843e+02 -4.8293543987528494e-11 -3.6303434657849838e-11  1.9999999999394095e+02 -1.5833770158777070e-11 -1.9558638629032948e-11  1.9999999999396906e+02 9.1783412757105261e-12 6.4892421204727812e-11  1.9999999999393518e+02 -2.1212796963317983e-13 -1.9127529944223707e-11  1.9999999999428024e+02 -4.5559220716561676e-11 -3.3450142011914396e-11  1.9999999999429104e+02 -5.3576507155061582e-11 -3.6374287451202434e-11  1.9999999999430148e+02 -2.9093021451741539e-11 -1.2318977130674827e-11  1.9999999999348651e+02 -5.0600291360673848e-11 -4.6217281917123868e-11  1.9999999999305572e+02 -5.7025510970119641e-11 -2.1367421898964170e-11  1.9999999999313150e+02 -7.8336841160954833e-12 -6.2564384773910749e-12  1.9999999999317185e+02 1.6436187505005893e-11 4.6962674226301769e-11  1.9999999999314406e+02 -1.4906592070105393e-11 -5.3439841850543906e-11  1.9999999999346400e+02 -5.5372944393344982e-11 -4.8902103928516422e-11  1.9999999999347096e+02 -5.4868992514464368e-11 -5.1415641453170491e-11  1.9999999999352025e+02 -7.6425618011227066e-12 -2.5659537746270373e-11  1.9999999999270139e+02 -3.6774625170299525e-11 -5.1714956985306578e-11  1.9999999999225821e+02 -4.0692725253843771e-11 -5.9312133122807922e-11  1.9999999999234086e+02 -1.2341396483661517e-12 -1.0851159852082223e-11  1.9999999999237971e+02 3.0873945162820799e-11 4.6289368006988396e-11  1.9999999999236078e+02 2.1857838595658371e-12 -4.6070479553999066e-11  1.9999999999267663e+02 -3.8635431560173226e-11 -6.3359186269340305e-11  1.9999999999271108e+02 -7.6800226383637163e-11 -4.2232281735519970e-11  1.9999999999274647e+02 -5.2118836395283732e-12 -3.7562902826198315e-11  1.9999999999196197e+02 -5.4333897664824512e-11 -6.3214328367881790e-11  