<?xml version="1.0"?>
<VTKFile type="UnstructuredGrid"  version="0.1"  >
<UnstructuredGrid>
<Piece  NumberOfPoints="610" NumberOfCells="2500">
<Points>
<DataArray  type="Float64"  NumberOfComponents="3"  format="ascii">30 25 35  30 25 37.5  27.5 25 37.5  27.5 22.5 37.5  30 25 40  25 25 40  27.5 25 40  30 27.5 37.5  27.5 27.5 37.5  30 27.5 40  27.5 27.5 40  32.5 27.5 37.5  32.5 25 37.5  32.5 27.5 40  32.5 25 40  35 25 40  35 27.5 40  27.5 27.5 42.5  30 27.5 42.5  27.5 25 42.5  30 25 42.5  30 25 45  30 27.5 45  27.5 27.5 45  27.5 25 45  32.5 27.5 42.5  35 27.5 42.5  32.5 25 42.5  35 25 42.5  35 25 45  35 27.5 45  32.5 27.5 45  32.5 25 45  30 27.5 47.5  27.5 27.5 47.5  30 25 47.5  27.5 25 47.5  30 25 50  30 27.5 50  27.5 27.5 50  27.5 25 50  32.5 27.5 47.5  35 27.5 47.5  32.5 25 47.5  35 25 47.5  35 25 50  35 27.5 50  32.5 27.5 50  32.5 25 50  37.5 27.5 40  37.5 25 40  37.5 27.5 37.5  40 25 40  40 27.5 40  42.5 27.5 40  42.5 25 40  42.5 27.5 37.5  45 25 40  45 27.5 40  37.5 27.5 42.5  40 27.5 42.5  37.5 25 42.5  40 25 42.5  40 25 45  40 27.5 45  37.5 27.5 45  37.5 25 45  42.5 27.5 42.5  45 27.5 42.5  42.5 25 42.5  45 25 42.5  45 25 45  45 27.5 45  42.5 27.5 45  42.5 25 45  47.5 27.5 42.5  47.5 27.5 45  37.5 27.5 47.5  40 27.5 47.5  37.5 25 47.5  40 25 47.5  40 25 50  37.5 27.5 50  37.5 25 50  42.5 27.5 47.5  45 27.5 47.5  42.5 25 47.5  45 25 47.5  45 25 50  45 27.5 50  42.5 27.5 50  42.5 25 50  47.5 27.5 47.5  47.5 27.5 50  30 20 35  30 20 37.5  30 17.5 37.5  27.5 17.5 37.5  30 20 40  30 15 40  30 17.5 40  27.5 17.5 40  27.5 15 40  27.5 20 37.5  27.5 20 35  25 20 40  27.5 20 40  35 20 35  35 20 37.5  35 17.5 37.5  32.5 17.5 37.5  35 20 40  35 15 40  35 17.5 40  32.5 17.5 40  32.5 15 40  32.5 20 37.5  32.5 20 40  30 22.5 37.5  30 22.5 40  27.5 22.5 40  25 22.5 40  35 22.5 37.5  32.5 22.5 37.5  35 22.5 40  32.5 22.5 40  35 10 40  35 10 42.5  35 7.5 42.5  32.5 7.5 42.5  35 10 45  35 5 45  35 7.5 45  30 5 45  32.5 7.5 45  32.5 5 45  32.5 10 42.5  30 7.5 45  30 10 45  32.5 10 45  30 15 42.5  30 12.5 42.5  27.5 12.5 42.5  30 15 45  30 12.5 45  27.5 12.5 45  27.5 10 45  27.5 15 42.5  27.5 15 45  35 12.5 42.5  35 12.5 40  32.5 12.5 42.5  35 15 42.5  35 15 45  35 12.5 45  32.5 12.5 45  32.5 15 42.5  32.5 15 45  30 17.5 42.5  27.5 17.5 42.5  30 20 42.5  30 20 45  30 17.5 45  27.5 17.5 45  27.5 20 42.5  27.5 20 45  32.5 17.5 42.5  35 17.5 42.5  35 20 42.5  35 20 45  35 17.5 45  32.5 17.5 45  32.5 20 42.5  32.5 20 45  27.5 22.5 42.5  30 22.5 42.5  30 22.5 45  27.5 22.5 45  32.5 22.5 42.5  35 22.5 42.5  35 22.5 45  32.5 22.5 45  35 0 45  35 2.5 47.5  35 2.5 45  32.5 2.5 47.5  35 5 47.5  35 5 50  35 0 47.5  35 0 50  35 2.5 50  32.5 2.5 50  32.5 5 47.5  30 5 50  32.5 5 50  30 5 47.5  30 7.5 47.5  27.5 7.5 47.5  30 10 47.5  30 10 50  30 7.5 50  27.5 7.5 50  27.5 10 47.5  27.5 10 50  32.5 7.5 47.5  35 7.5 47.5  35 10 47.5  35 10 50  35 7.5 50  32.5 7.5 50  32.5 10 47.5  32.5 10 50  30 12.5 47.5  27.5 12.5 47.5  30 15 47.5  30 15 50  30 12.5 50  27.5 12.5 50  27.5 15 47.5  27.5 15 50  32.5 12.5 47.5  35 12.5 47.5  35 15 47.5  35 15 50  35 12.5 50  32.5 12.5 50  32.5 15 47.5  32.5 15 50  30 17.5 47.5  27.5 17.5 47.5  30 20 47.5  30 20 50  30 17.5 50  27.5 17.5 50  27.5 20 47.5  27.5 20 50  32.5 17.5 47.5  35 17.5 47.5  35 20 47.5  35 20 50  35 17.5 50  32.5 17.5 50  32.5 20 47.5  32.5 20 50  30 22.5 47.5  27.5 22.5 47.5  30 22.5 50  27.5 22.5 50  32.5 22.5 47.5  35 22.5 47.5  35 22.5 50  32.5 22.5 50  45 5 40  45 5 37.5  45 2.5 37.5  42.5 2.5 37.5  45 0 40  45 2.5 40  45 0 37.5  42.5 0 37.5  40 0 40  42.5 2.5 40  42.5 0 40  42.5 5 37.5  40 2.5 40  40 5 40  42.5 5 40  50 5 40  50 5 37.5  50 2.5 37.5  47.5 2.5 37.5  50 0 40  50 2.5 40  50 0 37.5  47.5 0 37.5  47.5 2.5 40  47.5 0 40  47.5 5 37.5  47.5 5 40  40 10 40  40 10 37.5  40 7.5 37.5  37.5 7.5 37.5  40 7.5 40  37.5 7.5 40  37.5 10 37.5  37.5 10 40  45 10 40  45 10 37.5  45 7.5 37.5  42.5 7.5 37.5  45 7.5 40  42.5 7.5 40  42.5 10 37.5  42.5 10 40  50 10 40  50 10 37.5  50 7.5 37.5  47.5 7.5 37.5  50 7.5 40  47.5 7.5 40  47.5 10 37.5  47.5 10 40  40 15 35  40 15 37.5  40 12.5 37.5  37.5 12.5 37.5  40 15 40  40 12.5 40  37.5 12.5 40  37.5 15 37.5  37.5 15 40  45 15 35  45 15 37.5  45 12.5 37.5  42.5 12.5 37.5  45 15 40  45 12.5 40  42.5 12.5 40  42.5 15 37.5  42.5 15 35  42.5 15 40  50 15 35  50 15 37.5  50 12.5 37.5  47.5 12.5 37.5  50 15 40  50 12.5 40  47.5 12.5 40  47.5 15 37.5  47.5 15 35  47.5 15 40  40 17.5 37.5  37.5 17.5 37.5  40 17.5 40  40 20 40  37.5 17.5 40  37.5 20 40  37.5 20 37.5  42.5 17.5 37.5  45 17.5 37.5  45 17.5 40  45 20 40  42.5 17.5 40  42.5 20 40  42.5 20 37.5  47.5 17.5 37.5  50 17.5 37.5  50 17.5 40  50 20 40  47.5 17.5 40  47.5 20 40  37.5 22.5 37.5  37.5 22.5 40  40 22.5 40  42.5 22.5 40  42.5 22.5 37.5  45 22.5 40  40 2.5 42.5  37.5 2.5 42.5  40 5 42.5  40 5 45  40 0 42.5  37.5 0 42.5  40 0 45  40 2.5 45  37.5 2.5 45  37.5 0 45  37.5 5 42.5  37.5 5 45  42.5 2.5 42.5  45 2.5 42.5  45 5 42.5  45 5 45  42.5 0 42.5  45 0 42.5  45 0 45  45 2.5 45  42.5 2.5 45  42.5 0 45  42.5 5 42.5  42.5 5 45  47.5 2.5 42.5  50 2.5 42.5  50 5 42.5  50 5 45  47.5 0 42.5  50 0 42.5  50 0 45  50 2.5 45  47.5 2.5 45  47.5 0 45  47.5 5 42.5  47.5 5 45  40 7.5 42.5  37.5 7.5 42.5  40 10 42.5  40 10 45  40 7.5 45  37.5 7.5 45  37.5 10 42.5  37.5 10 45  42.5 7.5 42.5  45 7.5 42.5  45 10 42.5  45 10 45  45 7.5 45  42.5 7.5 45  42.5 10 42.5  42.5 10 45  47.5 7.5 42.5  50 7.5 42.5  50 10 42.5  50 10 45  50 7.5 45  47.5 7.5 45  47.5 10 42.5  47.5 10 45  37.5 12.5 42.5  40 12.5 42.5  40 15 42.5  40 15 45  40 12.5 45  37.5 12.5 45  37.5 15 42.5  37.5 15 45  42.5 12.5 42.5  45 12.5 42.5  45 15 42.5  45 15 45  45 12.5 45  42.5 12.5 45  42.5 15 42.5  42.5 15 45  47.5 12.5 42.5  50 12.5 42.5  50 15 42.5  50 15 45  50 12.5 45  47.5 12.5 45  47.5 15 42.5  47.5 15 45  37.5 17.5 42.5  40 17.5 42.5  40 20 42.5  40 20 45  40 17.5 45  37.5 17.5 45  37.5 20 42.5  37.5 20 45  42.5 17.5 42.5  45 17.5 42.5  45 20 42.5  45 20 45  45 17.5 45  42.5 17.5 45  42.5 20 42.5  42.5 20 45  47.5 17.5 42.5  50 17.5 42.5  50 20 42.5  50 20 45  50 17.5 45  47.5 17.5 45  47.5 20 42.5  47.5 20 45  37.5 22.5 42.5  40 22.5 42.5  40 22.5 45  37.5 22.5 45  42.5 22.5 42.5  45 22.5 42.5  45 22.5 45  42.5 22.5 45  50 25 45  50 25 42.5  50 22.5 42.5  47.5 22.5 42.5  50 22.5 45  47.5 22.5 45  47.5 25 42.5  47.5 25 45  50 27.5 45  50 27.5 42.5  37.5 2.5 47.5  40 2.5 47.5  40 5 47.5  40 5 50  37.5 0 47.5  40 0 47.5  40 0 50  40 2.5 50  37.5 2.5 50  37.5 0 50  37.5 5 47.5  37.5 5 50  42.5 2.5 47.5  45 2.5 47.5  45 5 47.5  45 5 50  42.5 0 47.5  45 0 47.5  45 0 50  45 2.5 50  42.5 2.5 50  42.5 0 50  42.5 5 47.5  42.5 5 50  47.5 2.5 47.5  50 2.5 47.5  50 5 47.5  50 5 50  47.5 0 47.5  50 0 47.5  50 0 50  50 2.5 50  47.5 2.5 50  47.5 0 50  47.5 5 47.5  47.5 5 50  37.5 7.5 47.5  40 7.5 47.5  40 10 47.5  40 10 50  40 7.5 50  37.5 7.5 50  37.5 10 47.5  37.5 10 50  42.5 7.5 47.5  45 7.5 47.5  45 10 47.5  45 10 50  45 7.5 50  42.5 7.5 50  42.5 10 47.5  42.5 10 50  47.5 7.5 47.5  50 7.5 47.5  50 10 47.5  50 10 50  50 7.5 50  47.5 7.5 50  47.5 10 47.5  47.5 10 50  37.5 12.5 47.5  40 12.5 47.5  40 15 47.5  40 15 50  40 12.5 50  37.5 12.5 50  37.5 15 47.5  37.5 15 50  42.5 12.5 47.5  45 12.5 47.5  45 15 47.5  45 15 50  45 12.5 50  42.5 12.5 50  42.5 15 47.5  42.5 15 50  47.5 12.5 47.5  50 12.5 47.5  50 15 47.5  50 15 50  50 12.5 50  47.5 12.5 50  47.5 15 47.5  47.5 15 50  37.5 17.5 47.5  40 17.5 47.5  40 20 47.5  40 20 50  40 17.5 50  37.5 17.5 50  37.5 20 47.5  37.5 20 50  42.5 17.5 47.5  45 17.5 47.5  45 20 47.5  45 20 50  45 17.5 50  42.5 17.5 50  42.5 20 47.5  42.5 20 50  47.5 17.5 47.5  50 17.5 47.5  50 20 47.5  50 20 50  50 17.5 50  47.5 17.5 50  47.5 20 47.5  47.5 20 50  37.5 22.5 47.5  40 22.5 47.5  40 22.5 50  37.5 22.5 50  42.5 22.5 47.5  45 22.5 47.5  45 22.5 50  42.5 22.5 50  47.5 22.5 47.5  50 22.5 47.5  50 25 47.5  50 25 50  50 22.5 50  47.5 22.5 50  47.5 25 47.5  47.5 25 50  50 27.5 47.5  50 27.5 50  </DataArray>
</Points>
<Cells>
[...]
<PointData  Vectors="u"> 
<DataArray  type="Float64"  Name="u"  NumberOfComponents="3" format="ascii">1.9999999999476248e+02 8.5850899421158448e-12 5.4605799646398840e-11  1.9999999999475514e+02 -1.2403599507958564e-11 -4.2197234207533909e-11  1.9999999999512175e+02 -1.1048744301011259e-11 -5.3637069883104158e-11  1.9999999999513199e+02 2.5537721181734562e-11 -5.4076677959097381e-12  1.9999999999474664e+02 -2.9425694341775440e-11 5.8969074044182185e-11  1.9999999999563818e+02 2.2850773016128284e-11 3.2916935075918923e-11  1.9999999999514446e+02 -1.9407769827699871e-11 -7.0384816371390791e-11  1.9999999999469696e+02 -7.4728109162826184e-11 -1.1719666447574611e-10  1.9999999999513852e+02 -2.5361670079798806e-11 -3.7500850191457524e-11  1.9999999999471038e+02 -6.1379462922046810e-12 -5.0187904957025023e-11  1.9999999999511672e+02 -4.5199393491707875e-11 -6.0788933550678228e-11  1.9999999999429542e+02 -1.8839787186350670e-11 -5.3267783782499076e-11  1.9999999999429028e+02 1.1929089248558574e-11 -6.5308570371015314e-11  1.9999999999428164e+02 1.7909069351654316e-11 -1.0552621475559844e-10  1.9999999999430253e+02 1.9776776811342526e-11 -3.0733970511920049e-11  1.9999999999398128e+02 -6.1747412387290808e-11 3.9405205195394324e-11  1.9999999999389880e+02 2.5541807821271818e-11 3.3707903408686434e-11  1.9999999999514108e+02 -1.2004872142615425e-11 -4.5369283398907554e-11  1.9999999999473596e+02 1.7553017604467034e-11 -1.1964770925252954e-10  1.9999999999515086e+02 -1.7982916056096477e-11 -5.5249770416150456e-11  1.9999999999473610e+02 3.4969319641686980e-11 -1.7384988881478654e-11  1.9999999999475909e+02 -6.0004948856989345e-11 3.3003880280258091e-11  1.9999999999475375e+02 1.9087464997709203e-11 -6.5226499907867657e-12  1.9999999999512434e+02 1.3340799899657065e-11 -5.2459423539055687e-11  1.9999999999514480e+02 7.9210042279212892e-11 -6.6116132413709398e-11  1.9999999999429011e+02 -1.6904739882994065e-11 -3.6945788384266609e-11  1.9999999999388331e+02 4.8655588731640744e-11 -8.3286886100702199e-11  1.9999999999428067e+02 1.6937265878755805e-11 -6.4303309542736753e-11  1.9999999999390207e+02 2.8832322617346761e-11 1.5633489262711170e-11  1.9999999999397463e+02 -6.2180480105019811e-11 3.0190170593411871e-11  1.9999999999389146e+02 6.3444717947474271e-12 3.6095239956400107e-11  1.9999999999427686e+02 5.3718532312920722e-11 -4.5763749179648725e-11  1.9999999999432245e+02 3.4753301246589683e-11 -3.5539475920285783e-11  1.9999999999475381e+02 9.9160543890871368e-11 -4.0426695516910310e-11  1.9999999999515083e+02 -4.9564720980100278e-12 8.9655508912825467e-12  1.9999999999475605e+02 3.1357442939837441e-11 4.4398625374129524e-11  1.9999999999515862e+02 -6.6478728027890454e-12 3.7518685256295598e-12  1.9999999999474193e+02 -6.0895159885696915e-11 -2.2025434071601179e-10  1.9999999999476762e+02 1.2039586860809543e-11 -2.3253877348582892e-11  1.9999999999512389e+02 1.1048827730528529e-11 1.1606912151118138e-10  1.9999999999520128e+02 6.3772673911905235e-11 -3.7924438615968198e-11  1.9999999999429150e+02 1.3374000420093941e-11 2.6904291367540910e-11  1.9999999999386549e+02 5.5338129979273548e-11 -4.3088800817838065e-12  1.9999999999427391e+02 2.9376016265722285e-11 -1.3275264543735436e-11  1.9999999999389263e+02 4.5485477244167570e-11 -1.4457913061112286e-11  1.9999999999395652e+02 -3.0139617565651284e-11 -2.1568119652384644e-10  1.9999999999384067e+02 6.9082473447759197e-12 2.7949841840895464e-11  1.9999999999435323e+02 -1.1722495004831909e-12 9.5892645495490971e-11  1.9999999999432649e+02 5.9455639342143076e-11 2.5825650779623034e-12  1.9999999999352030e+02 1.5664616466738045e-12 -5.8107060535291499e-11  1.9999999999352485e+02 5.5160872546888380e-11 -5.9037115309303671e-11  1.9999999999349808e+02 -8.6092211517810291e-12 -2.4190425972089666e-11  1.9999999999311976e+02 -6.0859934456866726e-11 5.0455786493533335e-11  1.9999999999311669e+02 3.7699817076659571e-12 -2.1353145679606640e-11  1.9999999999269048e+02 2.5568565019348776e-11 -6.6459398879447309e-11  1.9999999999274183e+02 3.6525614154752377e-11 -6.2882514549382768e-11  1.9999999999275036e+02 -2.5738496149651197e-11 -5.6320933062948950e-11  1.9999999999234814e+02 -5.0509332498394450e-11 3.2997875618539248e-11  1.9999999999233347e+02 1.4135543086641626e-11 1.8572636673193671e-11  1.9999999999351451e+02 -1.0161045865935145e-11 -4.1816604623824025e-11  1.9999999999311584e+02 9.0668389861046359e-11 -1.0319794760080860e-10  1.9999999999349217e+02 -2.0994655635356852e-11 -4.7083266083679638e-11  1.9999999999313596e+02 9.1049962860801238e-12 -3.5432944225659828e-11  1.9999999999312124e+02 -4.9694039596705906e-11 4.6941882392098444e-11  1.9999999999311896e+02 -1.9172307147349979e-12 -3.0783240404507216e-11  1.9999999999351249e+02 -7.1492973627109500e-12 -1.1882034590297270e-11  1.9999999999350374e+02 6.6669245899018235e-11 -6.3194101990432577e-11  1.9999999999269431e+02 3.1696261505088464e-12 -2.9981071834781576e-11  1.9999999999229871e+02 4.1888589109540637e-11 -3.7376514153556486e-11  1.9999999999267419e+02 1.8231302273389328e-11 -6.6100550698671129e-11  1.9999999999231031e+02 3.5904829602321259e-11 -5.2879794943186250e-12  1.9999999999236263e+02 -3.6876661243284757e-11 3.0327170896096592e-11  1.9999999999235612e+02 -2.6498127389736703e-12 -5.7937692804771326e-12  1.9999999999268690e+02 5.6356840627950115e-11 -6.0182317127466043e-11  1.9999999999273300e+02 2.0341630916401449e-11 -3.8347267472496928e-11  1.9999999999193813e+02 2.6815407828465094e-11 -4.4579480258600221e-11  1.9999999999194114e+02 3.1945776638611035e-11 -8.3578388223155374e-11  1.9999999999351468e+02 -1.6744050666043665e-11 3.2718581050061341e-12  1.9999999999311265e+02 7.7663831032193690e-11 -4.3732787888427392e-11  1.9999999999351527e+02 1.5999299697400410e-11 -1.4709070055847128e-11  1.9999999999311925e+02 4.0740996514213435e-11 -3.5576390173343929e-12  1.9999999999312067e+02 -4.8708445817752769e-11 -2.2643446668430364e-10  1.9999999999349149e+02 -2.9169598073448045e-12 1.2442724445271860e-10  1.9999999999350933e+02 7.7276844827474731e-11 -2.8494114897900661e-11  1.9999999999268883e+02 8.5656093259317304e-12 1.1095012940866200e-11  1.9999999999227575e+02 3.8673652413196751e-11 -2.7421566120728599e-12  1.9999999999269346e+02 1.5385914396401698e-11 -1.2989577427722739e-11  1.9999999999230153e+02 4.3412763359837745e-11 2.3140145508278443e-11  1.9999999999236266e+02 -3.0291937669342389e-11 -2.1441562274412409e-10  1.9999999999237772e+02 -1.0406696541627264e-11 -6.9799980915769138e-12  1.9999999999272273e+02 1.5372062178969174e-11 9.0264768827858338e-11  1.9999999999274118e+02 3.2456685196742843e-11 -9.0562554566675271e-12  1.9999999999192184e+02 1.7144797792636974e-11 -1.5859770235368631e-11  1.9999999999198079e+02 -2.2780291270041494e-11 8.0179960401487430e-11  1.9999999999475514e+02 2.0808522078119028e-11 3.9314710888250210e-11  1.9999999999470691e+02 5.1802328782758409e-12 -2.5035775324790760e-11  1.9999999999474221e+02 -1.0262063922088155e-10 -1.0082211014228645e-10  1.9999999999515938e+02 -3.8277582301368531e-11 -4.1534608761820538e-11  1.9999999999475384e+02 5.3817994342338274e-11 5.5550666963367733e-11  1.9999999999474295e+02 6.2854904467265069e-11 4.3864262230059442e-11  1.9999999999474571e+02 -2.2177549772309210e-11 -3.1237225430489736e-11  1.9999999999514947e+02 -4.4450114782139258e-11 -4.1401786032659731e-11  1.9999999999515981e+02 -1.4383250779543921e-11 -2.5487150379767395e-11  1.9999999999514435e+02 2.4866678589164256e-11 1.0988739991200824e-12  1.9999999999514392e+02 -1.7661600929772664e-11 5.6238501460532872e-12  1.9999999999564071e+02 4.5148347156119183e-11 4.9975533891674558e-11  1.9999999999512764e+02 -1.4045057598109960e-11 -1.4210885169482959e-11  1.9999999999396354e+02 3.6749792039876683e-11 3.0196793554975467e-11  1.9999999999390144e+02 1.4146167050059704e-12 -1.8932543933750382e-11  1.9999999999388962e+02 -4.6220376818121292e-11 -5.3582061263017454e-11  1.9999999999429807e+02 -3.5045050252098604e-11 -4.8497505940600750e-11  1.9999999999398409e+02 5.1513147852731891e-11 5.3116150954601990e-11  1.9999999999399370e+02 6.5048361764805367e-11 4.3631306145239228e-11  1.9999999999391056e+02 -4.8168764066300036e-12 5.6947430674612784e-12  1.9999999999429383e+02 -4.4770922007131841e-11 -7.8750058509580345e-11  1.9999999999433297e+02 4.7531084584930536e-12 -1.7373277206397249e-11  1.9999999999429156e+02 -7.2850608482964847e-11 -5.5591534813497513e-11  1.9999999999433842e+02 7.0413005177055362e-12 7.2576558436991456e-12  1.9999999999469637e+02 -1.1101412490327708e-11 -5.5408828521456475e-11  1.9999999999474775e+02 7.6193207713355916e-13 -4.0616787742744534e-11  1.9999999999514401e+02 -4.1483603903203835e-12 3.2320133392324530e-11  1.9999999999554100e+02 -7.0513457798100228e-12 1.3174546413805154e-11  1.9999999999389379e+02 8.1669944559503183e-12 -5.4013625439972400e-11  1.9999999999431779e+02 1.5188819611276671e-11 -2.2144181127479438e-11  1.9999999999386034e+02 -4.1349602564629804e-12 -1.2934787232705290e-11  1.9999999999430875e+02 2.0724620702846725e-12 -6.0901424869240665e-11  1.9999999999399674e+02 5.8112210134180201e-11 3.4041712113426094e-11  1.9999999999392199e+02 2.7196057772336214e-11 -8.1684909214334393e-12  1.9999999999389016e+02 -4.5429468794853614e-11 -5.5042784855632029e-11  1.9999999999429824e+02 -4.5128783727419411e-11 -2.6496480278295417e-11  1.9999999999399287e+02 4.4786164981320321e-11 2.0221413148884397e-11  1.9999999999398725e+02 2.9277351973855177e-11 4.5908398224472603e-11  1.9999999999390786e+02 -5.2977839523752886e-12 1.1789651044316522e-11  1.9999999999481000e+02 1.8855946136581354e-11 4.9625557132783829e-11  1.9999999999429522e+02 -4.2175985628609139e-11 -8.1197236733478041e-11  1.9999999999432657e+02 4.9446836684743968e-12 -4.0701858008494556e-11  1.9999999999428616e+02 -6.8835478936264040e-11 -4.9617060508286694e-11  1.9999999999473985e+02 1.5471550948473826e-12 -1.7795834466076986e-11  1.9999999999476745e+02 6.9479913647311155e-11 4.2763970181012574e-11  1.9999999999432021e+02 1.0184289594711626e-11 1.0323271692249861e-12  1.9999999999474809e+02 -1.5590001104151935e-11 -2.2524315850582880e-11  1.9999999999474642e+02 -8.2096667651655072e-11 -1.0890503017226767e-10  1.9999999999513693e+02 -3.5775850734439718e-12 -4.4652062607129273e-11  1.9999999999475241e+02 7.9948529997740980e-11 3.1013098349809029e-11  1.9999999999473789e+02 -1.3889547471092235e-11 -3.5816335639294365e-11  1.9999999999514921e+02 -2.7392514903101126e-11 -2.5375935024989559e-11  1.9999999999516214e+02 2.0914017484619495e-11 -2.6032934670191145e-11  1.9999999999514108e+02 -4.1860903557990285e-11 -6.0144499318541778e-11  1.9999999999516831e+02 -2.4729490187562640e-11 -5.0917850251587394e-11  1.9999999999386336e+02 -4.2870292211910493e-11 -6.7958194039053260e-11  1.9999999999391474e+02 3.6651805415372358e-12 3.6393321355394358e-12  1.9999999999430619e+02 -1.5008525946704877e-11 -4.3717845975195260e-11  1.9999999999389985e+02 1.8608357118232498e-11 8.5897339214271099e-13  1.9999999999399262e+02 6.5352654874271688e-11 -4.5711841871313940e-12  1.9999999999390502e+02 3.0493223891151557e-12 -1.5543499681183308e-11  1.9999999999429238e+02 -5.4353688865339813e-11 -6.5553452354211157e-11  1.9999999999429485e+02 -8.1059568874860426e-11 -5.5413972624199684e-11  1.9999999999430358e+02 2.0655017313140144e-11 -2.1986532888323591e-11  1.9999999999472149e+02 -8.9027068050768225e-11 -1.1066850831502820e-10  1.9999999999514284e+02 -8.8318219315545559e-12 -2.5224606289380663e-11  1.9999999999475571e+02 -3.3485687109242393e-11 -1.3445033159795961e-11  1.9999999999475668e+02 5.5634950001369049e-11 2.4572469770015885e-11  1.9999999999475273e+02 -6.4853932514446814e-12 -4.0789363006074520e-11  1.9999999999511755e+02 -2.5425401980619460e-11 -5.0347468503990237e-11  1.9999999999511937e+02 -4.8168147613697423e-11 -5.4688278525641822e-11  1.9999999999516811e+02 -4.3837124027300923e-11 -4.5628414671540109e-11  1.9999999999429772e+02 -2.1208294378949541e-11 -3.8466218486597505e-11  1.9999999999389513e+02 -5.1220418268708143e-11 -7.2659324570122574e-11  1.9999999999389419e+02 1.9691898421291373e-11 -3.3272495681349541e-11  1.9999999999396661e+02 5.3127982935126035e-11 2.0185159924759553e-11  1.9999999999390062e+02 2.7257348078646732e-12 4.5945858730345491e-12  1.9999999999428559e+02 -4.3049718918489340e-11 -5.8326072426755120e-11  1.9999999999429315e+02 -4.7196796022247586e-11 -5.8210462542913126e-11  1.9999999999432100e+02 1.5304714632315616e-11 -1.5750051853071034e-11  1.9999999999516996e+02 8.7562135741555681e-12 -3.1232194730368407e-11  1.9999999999473559e+02 -4.7391924939224089e-13 -8.5769251577867606e-11  1.9999999999476051e+02 4.8670871072863799e-12 -6.7866904280860262e-11  1.9999999999515725e+02 7.1322813557800990e-12 -7.3940374644986360e-13  1.9999999999431040e+02 -3.7258607373722499e-12 -2.4781524306830090e-11  1.9999999999391420e+02 3.0757530762545533e-12 -4.7767686554543966e-11  1.9999999999384821e+02 2.5594709864365984e-11 -3.5346574887844784e-11  1.9999999999430321e+02 8.0117261543585047e-12 -1.7156460809623291e-11  1.9999999999398167e+02 2.4058116588892001e-10 2.8238093776721369e-11  1.9999999999385966e+02 -5.4395548082723208e-12 -1.1878503947899219e-11  1.9999999999387686e+02 -2.0103518355506031e-11 2.0634684990645855e-11  1.9999999999429997e+02 -3.1544317213300489e-11 -9.9893586714507071e-13  1.9999999999390838e+02 2.7625680992237864e-11 6.2200045030023303e-12  1.9999999999398452e+02 2.7865940917218481e-11 -2.2081361352517469e-10  1.9999999999388194e+02 4.1311648689864229e-11 3.0650523450339392e-11  1.9999999999396641e+02 2.4139055386146677e-10 -2.2997465225834260e-10  1.9999999999387501e+02 -8.7389641662040741e-12 -4.9332508269848581e-12  1.9999999999433803e+02 -7.5035732701221438e-11 1.4365102719358714e-10  1.9999999999425404e+02 -6.5376216116220696e-12 -4.2984995377308838e-11  1.9999999999481452e+02 1.9210369969270968e-11 -2.4340303581910287e-10  1.9999999999434547e+02 3.7005193148123459e-11 -1.0790050333359952e-12  1.9999999999472996e+02 9.7533954114208138e-12 5.9402417168388098e-12  1.9999999999465996e+02 -2.4808386091789255e-11 -6.6949644713523538e-12  1.9999999999512576e+02 -1.0705226646223171e-11 7.0580343601606776e-12  1.9999999999475480e+02 -1.3081184499912660e-11 1.5327256462280651e-11  1.9999999999476759e+02 5.7854497038144229e-11 -2.4414353917294248e-10  1.9999999999479766e+02 1.1309082252582113e-11 -3.4438079829611188e-11  1.9999999999512673e+02 3.3540453839596585e-11 1.5997470118508038e-10  1.9999999999516402e+02 1.0785350593161089e-12 3.3856045391412231e-12  1.9999999999514711e+02 4.1714768503346754e-11 -4.3492871734176715e-11  1.9999999999429892e+02 -5.0740207489915458e-11 9.8404667147055730e-12  1.9999999999389101e+02 -7.2904109782256345e-11 -1.5562419403438507e-12  1.9999999999390329e+02 1.6861362505610852e-11 1.4428794184652484e-11  1.9999999999398474e+02 3.2553660465156345e-11 -2.1872429701759487e-10  1.9999999999391477e+02 -7.1130699335826516e-12 -3.7884502468830310e-12  1.9999999999433319e+02 -1.3271871210531462e-11 1.0740768306674769e-10  1.9999999999428633e+02 -8.3063556364524065e-11 -9.9140994362990561e-13  1.9999999999432836e+02 3.8704243259240278e-11 1.7370119195612440e-12  1.9999999999472666e+02 -1.0740024791772519e-10 -3.7529459407378907e-11  1.9999999999516396e+02 -2.9737149993095254e-11 1.7578519703329549e-13  1.9999999999476537e+02 -1.5401118664752819e-11 -8.7509793845309071e-12  1.9999999999475170e+02 6.8427519907039846e-11 -2.1372078623049945e-10  1.9999999999475600e+02 -1.4763171988602367e-11 -1.1189849088784584e-11  1.9999999999512821e+02 1.7816730663451583e-11 1.5492226408895398e-10  1.9999999999513170e+02 -3.0992435986798312e-11 1.0078749077888668e-11  1.9999999999515475e+02 2.9748919132688123e-11 -3.8344318546196508e-11  1.9999999999428195e+02 -4.3700042570450685e-11 1.6457061794986491e-12  1.9999999999387757e+02 -5.6256785907614350e-11 4.3724086908879355e-12  1.9999999999390380e+02 2.9431972765885737e-11 2.1601165923618410e-11  1.9999999999398023e+02 5.1679335539047549e-11 -2.1579033554014088e-10  1.9999999999389271e+02 -2.8586745192150839e-12 -2.0746752551958874e-11  1.9999999999433996e+02 -1.0087644137705877e-11 1.1948500295770797e-10  1.9999999999427538e+02 -6.0748629618363223e-11 5.1185084579078338e-13  1.9999999999431367e+02 4.6504264544408035e-11 -1.8054011859042466e-11  1.9999999999474238e+02 -7.7801790784179995e-11 -4.2532610324654052e-11  1.9999999999517144e+02 -2.0354564601856511e-11 4.7370209758516637e-12  1.9999999999476759e+02 -3.3145309052798496e-11 1.9103123086148512e-11  1.9999999999475776e+02 3.9196429338143044e-11 -2.3450230648898828e-10  1.9999999999476313e+02 3.9994971562643030e-12 -3.3448026813598361e-11  1.9999999999514245e+02 4.9704526947036042e-12 1.2817784328225669e-10  1.9999999999514552e+02 -4.9118183904892672e-11 5.8228716754879154e-12  1.9999999999515481e+02 4.0219308591919117e-11 -5.3805943033377374e-11  1.9999999999428078e+02 -1.6641093930071645e-11 2.2651518199596833e-12  1.9999999999387197e+02 -3.5074674542173107e-11 -1.1717095954104832e-11  1.9999999999386830e+02 3.4157224141775107e-11 9.9659660866910937e-12  1.9999999999395257e+02 3.6287884122211656e-11 -2.1981512319990834e-10  1.9999999999388109e+02 1.6441426070757465e-11 -1.7354886352648935e-11  1.9999999999432998e+02 1.8618306518283378e-11 1.3322928108592887e-10  1.9999999999430074e+02 -5.5970058968917503e-11 5.7702719189119161e-12  1.9999999999432322e+02 3.9899641410971135e-11 -2.3147138783575620e-11  1.9999999999473897e+02 1.2757922685351146e-11 -3.1781472573674740e-11  1.9999999999519494e+02 8.6139010192260633e-12 3.3217358631362246e-11  1.9999999999474059e+02 5.7146339352293060e-11 -8.2104353435083320e-11  1.9999999999515606e+02 3.0105288365000897e-11 1.9329976461703511e-10  1.9999999999429065e+02 -4.1867450183430044e-12 8.4298583381399175e-12  1.9999999999391096e+02 9.5672362530965165e-12 -1.1125744552277728e-11  1.9999999999385432e+02 2.1612350558048262e-11 -3.2729193179214133e-11  1.9999999999434414e+02 2.4270373957424106e-11 1.5997722259819315e-10  1.9999999999240194e+02 1.6234929454788018e-11 4.8855502201411520e-11  1.9999999999235715e+02 -1.7032948213851896e-11 -3.1382540227119244e-11  1.9999999999229013e+02 -4.3420368312504444e-11 -4.1451149733419917e-11  1.9999999999273192e+02 -6.6675572356012874e-11 -4.6587902392045710e-11  1.9999999999238992e+02 2.0787837864022008e-10 3.6110068927305720e-11  1.9999999999236266e+02 -2.9307641559378377e-11 2.0112525509473699e-11  1.9999999999232551e+02 2.3216725921979738e-11 -1.1224356087995845e-11  1.9999999999273433e+02 -1.2069955090267037e-10 3.0203609641025171e-15  1.9999999999314545e+02 2.2631515641480957e-10 6.5253093204910205e-11  1.9999999999271995e+02 -3.2515923281902717e-12 -5.4430138646796227e-11  1.9999999999275855e+02 2.6600141554319863e-11 -3.8956878009077261e-11  1.9999999999270997e+02 -5.6922353936788309e-11 -4.3557430843348929e-11  1.9999999999315091e+02 5.3380277217591378e-12 2.0063547218885886e-11  1.9999999999313297e+02 3.6361933210285366e-11 6.1760757192233459e-11  1.9999999999272421e+02 1.2047257828117288e-11 -4.2508644269052595e-11  1.9999999999161233e+02 6.2302959880511849e-12 1.8863943397743098e-11  1.9999999999150933e+02 -5.5607149699537916e-12 -8.7301864919114640e-12  1.9999999999152118e+02 -1.2556172365072115e-12 -1.4964158057398620e-11  1.9999999999197834e+02 -3.9861915558750770e-11 -4.6552948998789040e-11  1.9999999999160050e+02 8.9114207745147375e-11 1.3211124353763775e-11  1.9999999999151265e+02 2.1259736156712644e-12 1.9124163211760437e-11  1.9999999999155133e+02 -1.3772816356152730e-11 -1.6483595073823409e-11  1.9999999999198567e+02 -1.1450005665521979e-10 -3.1142077835780175e-11  1.9999999999197368e+02 4.9212827234562513e-12 -7.2828498164725685e-11  1.9999999999199235e+02 1.3131691448720031e-11 -2.3139700681309643e-11  1.9999999999197732e+02 -9.0135093601666701e-11 -5.0109060154134395e-11  1.9999999999200372e+02 3.8774169739389669e-12 -4.9651746846679041e-11  1.9999999999311586e+02 5.3904789993101807e-11 6.058082894374