<?xml version="1.0"?>
<VTKFile type="UnstructuredGrid"  version="0.1"  >
<UnstructuredGrid>
<Piece  NumberOfPoints="577" NumberOfCells="2276">
<Points>
<DataArray  type="Float64"  NumberOfComponents="3"  format="ascii">25 25 15  25 22.5 15  25 22.5 12.5  22.5 22.5 12.5  22.5 22.5 15  20 25 15  22.5 25 15  20 25 17.5  20 22.5 17.5  17.5 22.5 17.5  20 25 20  15 25 20  17.5 25 20  17.5 22.5 20  25 25 17.5  25 22.5 17.5  22.5 22.5 17.5  25 25 20  22.5 25 17.5  22.5 25 20  22.5 22.5 20  22.5 27.5 17.5  25 27.5 17.5  25 27.5 20  25 30 20  22.5 27.5 20  17.5 25 22.5  17.5 22.5 22.5  20 25 22.5  20 25 25  15 25 22.5  15 25 25  17.5 25 25  22.5 25 22.5  22.5 22.5 22.5  25 25 22.5  25 25 25  22.5 25 25  17.5 27.5 22.5  20 27.5 22.5  20 27.5 25  20 30 25  17.5 27.5 25  22.5 27.5 22.5  25 27.5 22.5  25 30 22.5  25 30 25  25 27.5 25  22.5 27.5 25  22.5 30 25  17.5 27.5 27.5  22.5 27.5 27.5  25 27.5 27.5  25 25 10  25 25 12.5  25 22.5 10  22.5 25 12.5  25 27.5 12.5  25 27.5 10  22.5 27.5 12.5  25 30 10  25 30 12.5  25 30 15  25 27.5 15  22.5 27.5 15  22.5 30 12.5  20 27.5 15  20 30 15  22.5 30 15  25 32.5 12.5  25 32.5 10  22.5 32.5 12.5  25 35 10  25 35 12.5  25 35 15  25 32.5 15  22.5 32.5 15  20 35 10  22.5 35 12.5  22.5 35 10  17.5 25 17.5  20 27.5 17.5  17.5 27.5 17.5  20 30 17.5  20 30 20  20 27.5 20  17.5 27.5 20  17.5 30 17.5  15 27.5 20  15 30 20  17.5 30 20  25 30 17.5  22.5 30 17.5  22.5 30 20  20 32.5 17.5  17.5 32.5 17.5  20 32.5 20  20 35 20  17.5 32.5 20  22.5 32.5 17.5  25 32.5 17.5  25 35 17.5  25 35 20  25 32.5 20  22.5 32.5 20  22.5 35 20  15 27.5 22.5  12.5 27.5 22.5  15 30 22.5  15 30 25  12.5 25 22.5  15 27.5 25  12.5 30 22.5  20 30 22.5  17.5 30 22.5  17.5 30 25  22.5 30 22.5  15 32.5 22.5  12.5 32.5 22.5  17.5 32.5 22.5  20 32.5 22.5  20 35 22.5  20 35 25  20 32.5 25  22.5 32.5 22.5  25 32.5 22.5  25 35 22.5  25 35 25  25 32.5 25  22.5 35 22.5  20 35 15  20 37.5 15  17.5 37.5 15  17.5 37.5 12.5  20 40 15  15 40 15  17.5 40 15  20 32.5 15  20 35 17.5  17.5 35 17.5  15 32.5 20  15 35 20  17.5 35 20  22.5 35 17.5  22.5 35 15  20 37.5 17.5  17.5 37.5 17.5  20 40 17.5  20 40 20  20 37.5 20  17.5 37.5 20  17.5 40 17.5  15 37.5 20  15 40 20  17.5 40 20  15 40 17.5  22.5 37.5 17.5  25 37.5 17.5  25 37.5 20  25 40 20  22.5 37.5 20  22.5 40 20  22.5 40 17.5  15 42.5 17.5  15 42.5 15  12.5 42.5 17.5  15 45 15  15 45 17.5  15 45 20  15 42.5 20  12.5 42.5 20  12.5 45 17.5  12.5 45 20  17.5 42.5 17.5  17.5 42.5 15  20 42.5 17.5  20 42.5 15  20 45 15  20 45 17.5  20 45 20  20 42.5 20  17.5 42.5 20  17.5 45 17.5  17.5 45 15  17.5 45 20  22.5 42.5 17.5  22.5 42.5 20  25 42.5 20  25 45 20  22.5 45 20  22.5 45 17.5  15 47.5 17.5  15 47.5 15  12.5 47.5 17.5  12.5 47.5 15  15 50 15  15 50 17.5  15 50 20  15 47.5 20  12.5 47.5 20  12.5 50 17.5  12.5 50 15  12.5 50 20  17.5 47.5 17.5  20 47.5 17.5  20 47.5 20  20 50 20  17.5 47.5 20  17.5 50 20  17.5 50 17.5  22.5 47.5 17.5  22.5 47.5 20  25 47.5 20  25 50 20  22.5 50 20  15 35 22.5  15 35 25  12.5 35 22.5  17.5 35 22.5  17.5 35 25  15 37.5 22.5  12.5 37.5 22.5  15 40 22.5  12.5 40 22.5  17.5 37.5 22.5  20 37.5 22.5  20 40 22.5  20 40 25  20 37.5 25  17.5 40 22.5  22.5 37.5 22.5  25 37.5 22.5  25 40 22.5  22.5 40 22.5  15 42.5 22.5  12.5 42.5 22.5  15 45 22.5  12.5 45 22.5  17.5 42.5 22.5  20 42.5 22.5  20 45 22.5  17.5 45 22.5  22.5 42.5 22.5  25 42.5 22.5  25 45 22.5  22.5 45 22.5  15 47.5 22.5  12.5 47.5 22.5  15 50 22.5  12.5 50 22.5  17.5 47.5 22.5  20 47.5 22.5  17.5 50 22.5  22.5 47.5 22.5  25 47.5 22.5  25 50 22.5  22.5 50 22.5  27.5 47.5 22.5  27.5 50 22.5  25 40 0  25 42.5 2.5  25 42.5 0  22.5 42.5 2.5  22.5 42.5 0  25 45 0  25 45 2.5  25 45 5  25 40 2.5  25 40 5  25 42.5 5  22.5 42.5 5  22.5 45 2.5  22.5 45 5  25 47.5 2.5  25 47.5 0  22.5 47.5 2.5  22.5 47.5 0  25 50 0  25 50 2.5  25 50 5  25 47.5 5  22.5 47.5 5  20 50 0  22.5 50 2.5  22.5 50 0  22.5 50 5  25 35 5  25 37.5 7.5  25 37.5 5  22.5 37.5 7.5  25 40 7.5  25 40 10  25 35 7.5  25 37.5 10  22.5 37.5 10  22.5 40 7.5  20 37.5 10  20 40 10  22.5 40 10  25 42.5 7.5  22.5 42.5 7.5  25 45 7.5  25 45 10  25 42.5 10  22.5 42.5 10  22.5 45 7.5  20 42.5 10  20 45 10  22.5 45 10  25 47.5 7.5  22.5 47.5 7.5  25 50 7.5  25 50 10  25 47.5 10  22.5 47.5 10  22.5 50 7.5  20 47.5 10  20 50 10  22.5 50 10  20 35 12.5  20 37.5 12.5  20 40 12.5  17.5 40 12.5  22.5 37.5 12.5  25 37.5 12.5  25 40 12.5  25 40 15  25 37.5 15  22.5 37.5 15  22.5 40 12.5  22.5 40 15  20 42.5 12.5  17.5 42.5 12.5  20 45 12.5  17.5 45 12.5  22.5 42.5 12.5  25 42.5 12.5  25 45 12.5  25 45 15  25 42.5 15  22.5 42.5 15  22.5 45 12.5  22.5 45 15  15 50 10  15 50 12.5  15 47.5 12.5  12.5 47.5 12.5  12.5 50 12.5  20 47.5 12.5  17.5 47.5 12.5  20 50 12.5  20 50 15  20 47.5 15  17.5 47.5 15  17.5 50 12.5  17.5 50 10  17.5 50 15  22.5 47.5 12.5  25 47.5 12.5  25 50 12.5  25 50 15  25 47.5 15  22.5 47.5 15  22.5 50 12.5  22.5 50 15  27.5 47.5 12.5  27.5 47.5 15  27.5 50 15  30 50 15  27.5 50 12.5  25 40 17.5  25 42.5 17.5  25 45 17.5  20 50 17.5  25 47.5 17.5  25 50 17.5  22.5 50 17.5  27.5 47.5 17.5  27.5 50 17.5  30 50 17.5  30 50 20  27.5 47.5 20  27.5 50 20  30 50 22.5  27.5 25 22.5  27.5 25 20  27.5 22.5 22.5  27.5 22.5 20  30 25 20  30 25 22.5  30 25 25  27.5 25 25  27.5 27.5 22.5  30 27.5 22.5  30 27.5 25  30 30 25  27.5 27.5 25  27.5 30 25  32.5 27.5 22.5  27.5 27.5 27.5  30 27.5 27.5  32.5 27.5 27.5  27.5 25 15  27.5 22.5 15  27.5 22.5 12.5  27.5 25 17.5  27.5 22.5 17.5  30 35 0  30 37.5 0  27.5 37.5 2.5  27.5 37.5 0  30 40 0  27.5 40 2.5  27.5 40 0  27.5 37.5 5  27.5 40 5  27.5 42.5 2.5  27.5 42.5 0  30 42.5 0  30 45 0  27.5 42.5 5  27.5 45 2.5  27.5 45 0  30 45 2.5  30 45 5  27.5 45 5  27.5 47.5 2.5  27.5 47.5 0  30 47.5 2.5  30 47.5 0  30 50 0  30 50 2.5  30 50 5  30 47.5 5  27.5 47.5 5  27.5 50 2.5  27.5 50 0  27.5 50 5  32.5 47.5 2.5  32.5 47.5 0  32.5 50 2.5  32.5 50 0  32.5 47.5 5  32.5 50 5  30 30 10  30 30 7.5  27.5 30 7.5  27.5 27.5 7.5  27.5 32.5 7.5  27.5 37.5 7.5  27.5 40 7.5  27.5 42.5 7.5  27.5 45 7.5  30 45 7.5  30 45 10  27.5 45 10  27.5 47.5 7.5  30 47.5 7.5  30 50 7.5  30 50 10  30 47.5 10  27.5 47.5 10  27.5 50 7.5  27.5 50 10  32.5 47.5 7.5  32.5 50 7.5  32.5 47.5 10  32.5 50 10  30 47.5 12.5  30 50 12.5  32.5 47.5 12.5  32.5 50 12.5  32.5 50 15  27.5 25 10  27.5 22.5 10  27.5 22.5 7.5  27.5 25 7.5  27.5 27.5 10  27.5 30 10  27.5 32.5 10  27.5 35 10  27.5 37.5 10  27.5 40 10  30 40 10  27.5 42.5 10  30 42.5 10  27.5 25 12.5  27.5 27.5 12.5  27.5 27.5 15  27.5 30 12.5  27.5 30 15  27.5 32.5 12.5  27.5 32.5 15  27.5 35 12.5  27.5 35 15  30 35 15  27.5 37.5 12.5  27.5 37.5 15  30 37.5 15  30 40 15  27.5 40 12.5  30 40 12.5  27.5 40 15  27.5 42.5 12.5  30 42.5 12.5  30 45 12.5  30 45 15  30 42.5 15  27.5 42.5 15  27.5 45 12.5  27.5 45 15  32.5 42.5 12.5  32.5 42.5 15  32.5 45 15  32.5 45 12.5  30 47.5 15  32.5 47.5 15  27.5 27.5 17.5  27.5 27.5 20  30 27.5 20  30 30 20  27.5 30 17.5  27.5 30 20  27.5 32.5 17.5  27.5 32.5 20  30 32.5 20  30 35 20  27.5 35 17.5  30 35 17.5  27.5 35 20  27.5 37.5 17.5  30 37.5 17.5  30 40 17.5  30 40 20  30 37.5 20  27.5 37.5 20  27.5 40 17.5  27.5 40 20  32.5 37.5 17.5  32.5 40 17.5  27.5 42.5 17.5  30 42.5 17.5  30 45 17.5  30 45 20  30 42.5 20  27.5 42.5 20  27.5 45 17.5  27.5 45 20  32.5 42.5 17.5  32.5 45 17.5  32.5 42.5 20  32.5 45 20  30 47.5 17.5  30 47.5 20  32.5 47.5 17.5  32.5 47.5 20  32.5 50 17.5  32.5 50 20  30 30 22.5  27.5 30 22.5  27.5 32.5 22.5  27.5 35 22.5  30 35 22.5  27.5 37.5 22.5  30 37.5 22.5  30 40 22.5  27.5 40 22.5  32.5 37.5 22.5  27.5 42.5 22.5  30 42.5 22.5  30 45 22.5  27.5 45 22.5  32.5 42.5 22.5  32.5 45 22.5  30 47.5 22.5  32.5 47.5 22.5  32.5 50 22.5  </DataArray>
</Points>
<Cells>
[...]
<PointData  Vectors="u"> 
<DataArray  type="Float64"  Name="u"  NumberOfComponents="3" format="ascii">1.9999999999562849e+02 9.1509379441955712e-11 3.2742200086071075e-11  1.9999999999555882e+02 -3.2489187587450577e-11 2.7966133167375401e-11  1.9999999999550425e+02 -4.9888077557383969e-11 -1.7737076014830974e-11  1.9999999999599055e+02 -2.2770153985484901e-11 -3.2560607765826607e-11  1.9999999999597776e+02 -6.4499178694633373e-11 -6.0882698859767064e-11  1.9999999999642856e+02 7.3596309238263125e-11 5.2452791351956923e-11  1.9999999999602255e+02 -2.1919891996184651e-11 2.7920807403070494e-11  1.9999999999639797e+02 -3.6400403058123402e-11 -1.5017683984851009e-11  1.9999999999643273e+02 -8.4448705691793556e-11 -7.7014410722483536e-11  1.9999999999688140e+02 -2.8242963123961702e-11 -3.1384587137876918e-11  1.9999999999644137e+02 4.7726722910769004e-11 5.3385852860505263e-11  1.9999999999727666e+02 2.8992555478966833e-11 4.4269811886550151e-11  1.9999999999684081e+02 -5.6861394988956126e-11 2.1085215776134087e-11  1.9999999999687029e+02 -6.8036634184811058e-11 -6.7196592954935952e-11  1.9999999999555976e+02 -4.8200257825393437e-12 2.3483630791501622e-11  1.9999999999551582e+02 -7.2096088999171669e-11 -3.8192300296701843e-11  1.9999999999598870e+02 -4.5006776248771973e-11 -1.5647497496327475e-11  1.9999999999562866e+02 6.3210006966010546e-11 2.1135623527558544e-11  1.9999999999598131e+02 -8.6358996834495437e-11 -3.1479265358606402e-11  1.9999999999598981e+02 -1.2996335097546596e-11 1.7592361012928058e-11  1.9999999999595977e+02 -5.2639152199855076e-11 -8.8819287058010776e-11  1.9999999999600644e+02 -2.1824243081773177e-11 -9.4507265056980818e-12  1.9999999999550081e+02 -4.2629874406170675e-11 -1.7590860288913349e-12  1.9999999999553319e+02 3.5856217285417022e-11 -3.8338330576278288e-12  1.9999999999562519e+02 4.9736033774330607e-11 6.2561748070626751e-11  1.9999999999602386e+02 -3.0021000787521179e-11 -1.0495773060660570e-10  1.9999999999690334e+02 -7.6439192947153359e-11 -4.3567971876773609e-11  1.9999999999684823e+02 -5.9793485315367439e-11 -5.9844076132763313e-11  1.9999999999644004e+02 -6.3209970027712815e-11 6.8874520379979301e-12  1.9999999999643086e+02 8.1443976879441392e-11 7.3939957612781963e-11  1.9999999999735712e+02 -4.8033548274143223e-11 -2.1442426797952781e-11  1.9999999999727638e+02 3.3881507281983138e-11 4.1934701491474463e-11  1.9999999999688882e+02 6.3917081283202971e-12 -5.7816248956734005e-12  1.9999999999595892e+02 -7.3133788269015291e-11 -5.5312223151950259e-11  1.9999999999596423e+02 -6.2326943178209955e-11 -2.4127908783893358e-11  1.9999999999554575e+02 1.7426609382594329e-11 6.0841905783070710e-12  1.9999999999563207e+02 4.3569302197244664e-11 6.5188698526492958e-11  1.9999999999600831e+02 3.6197646519398575e-12 1.5500900906848126e-11  1.9999999999687668e+02 -5.0820441408339785e-11 2.3182230319721534e-12  1.9999999999645121e+02 -8.5010089309188447e-11 9.1905802685047346e-12  1.9999999999644353e+02 -3.2699951880782942e-11 -3.3517926249485165e-11  1.9999999999645573e+02 7.8745992245111748e-11 6.2448849760698016e-11  1.9999999999692801e+02 -4.8944251743172007e-11 -8.4039050471596692e-11  1.9999999999597665e+02 -1.1945357451005609e-11 -4.3071064973205960e-11  1.9999999999549854e+02 -3.5860295900455911e-11 -7.2015324450197678e-11  1.9999999999557758e+02 -1.1546498454118325e-11 -3.0697285109123597e-11  1.9999999999561479e+02 6.5816912587304089e-11 5.0530937526585993e-11  1.9999999999554353e+02 2.5355492116701596e-11 6.4598272077602094e-12  1.9999999999594294e+02 -4.4412778643850815e-11 -8.1713815091661286e-11  1.9999999999598720e+02 -1.6209371911173146e-11 4.3467846409364593e-11  1.9999999999690408e+02 -2.2941868931197501e-11 -3.5896713556229456e-11  1.9999999999596963e+02 -3.0526221286095013e-11 -3.7638172557830956e-11  1.9999999999552821e+02 -3.9607909405306817e-11 -3.5665671007999993e-11  1.9999999999563880e+02 5.5478981989695112e-11 5.0632306024766295e-11  1.9999999999554299e+02 4.7626194518959056e-11 -1.4085848330279703e-11  1.9999999999553330e+02 1.4701170751798944e-11 2.2252361856326538e-11  1.9999999999597870e+02 8.0850154232472548e-12 -2.2477448789876990e-11  1.9999999999551176e+02 -5.1756434366908770e-11 -4.4484918344197045e-11  1.9999999999554120e+02 7.2577252577605581e-12 5.4917597327661210e-13  1.9999999999596594e+02 -4.6512844244994189e-11 -3.6203548915785293e-11  1.9999999999563002e+02 5.0185241278432861e-11 5.3658723968715841e-11  1.9999999999552915e+02 1.1387871407569363e-11 -4.9077288929540981e-12  1.9999999999562110e+02 5.1764696469974227e-11 5.1069225548107900e-11  1.9999999999554510e+02 -2.4177991615460304e-11 4.4390305760858334e-11  1.9999999999601579e+02 3.0890105951507744e-11 1.2893143823045602e-11  1.9999999999595747e+02 -8.0112231898467487e-11 -5.6942373226608254e-11  1.9999999999645334e+02 -2.4594259253192681e-12 3.7616223979676043e-11  1.9999999999645635e+02 7.6672450257368327e-11 4.0275457089084557e-11  1.9999999999599351e+02 1.0664910877328760e-11 1.4304839799184292e-11  1.9999999999552139e+02 -2.0953018475280881e-11 -4.0612768264507051e-11  1.9999999999555436e+02 1.9705877982734115e-11 1.3001979436422878e-11  1.9999999999597355e+02 -3.4252523723604805e-11 -2.2146712675247245e-11  1.9999999999563221e+02 6.4664215141002108e-11 5.5057064049758772e-11  1.9999999999553896e+02 -1.5649373181567504e-11 3.7375146052318502e-11  1.9999999999562519e+02 6.3796449271430969e-11 3.8157763156207186e-11  1.9999999999552239e+02 3.3892607077290869e-11 1.2466653425619454e-11  1.9999999999599228e+02 -3.3135542501539451e-11 -1.0060911996306308e-10  1.9999999999646175e+02 5.7800359929626541e-11 5.6264398966672371e-11  1.9999999999602505e+02 -6.8886886386542747e-11 -6.3885203087586706e-11  1.9999999999599004e+02 -1.1718567289713758e-11 -1.7152928397577938e-12  1.9999999999684809e+02 3.3212603414083862e-13 4.8042985592376916e-13  1.9999999999642466e+02 1.5030699680493684e-11 -7.2837866063105137e-12  1.9999999999680654e+02 -7.0239053656809773e-11 -3.7733407574092772e-11  1.9999999999642372e+02 6.4884328308242191e-12 6.6158349334121062e-12  1.9999999999646815e+02 7.0428363482154494e-11 3.7742909724275218e-11  1.9999999999645189e+02 1.5977918720728713e-11 2.4809360463794626e-11  1.9999999999683803e+02 -1.4805759357817020e-11 1.7728042757171750e-12  1.9999999999682424e+02 -6.6118657231732096e-11 -5.4268958876052682e-11  1.9999999999730272e+02 -3.0864851795013477e-11 1.9031398718385596e-11  1.9999999999729417e+02 6.0759369793539380e-11 3.2738407903584862e-11  1.9999999999687034e+02 5.7563578163684065e-12 1.1896008574271582e-12  1.9999999999556420e+02 1.7722258097421522e-11 -2.2069349205990067e-12  1.9999999999594070e+02 -2.6995406554791037e-11 -5.3448642060609402e-11  1.9999999999601235e+02 2.1936988631476866e-11 3.4789736827968637e-11  1.9999999999635489e+02 -3.0554266850030412e-11 -2.7235992606576443e-13  1.9999999999684965e+02 -4.6263032517075315e-11 -1.7281083803796849e-11  1.9999999999643586e+02 1.2569317785102985e-11 -1.3374409943445060e-11  1.9999999999647761e+02 6.1141750911844626e-11 5.2332350569289538e-11  1.9999999999685443e+02 -2.9518150164178385e-11 -9.8389679701321771e-11  1.9999999999594621e+02 -2.4886617722819050e-11 -4.2270430263446145e-11  1.9999999999550749e+02 -2.2050078509077064e-11 -4.4227386003686171e-11  1.9999999999557627e+02 -6.1455742327779596e-11 -7.9161648283561840e-12  1.9999999999562584e+02 5.1693278658474610e-11 5.3894779531477767e-11  1.9999999999553052e+02 -9.3941108124987644e-12 1.6462477344522088e-11  1.9999999999595838e+02 -4.6336397917344475e-11 -9.6193085738922338e-11  1.9999999999596920e+02 -3.2847894702003352e-11 5.2950649251758638e-11  1.9999999999727240e+02 -3.2964568516988983e-11 -4.1939535337342517e-12  1.9999999999769108e+02 -6.9859361445572732e-11 -2.8323410998555497e-11  1.9999999999725412e+02 2.6559851380591187e-12 -9.4248859454331838e-12  1.9999999999731943e+02 7.3816874452249214e-11 4.7798141276769585e-11  1.9999999999776156e+02 -2.2499860577670369e-11 -6.5599833644731465e-11  1.9999999999728533e+02 -1.8710554895020275e-11 1.6393052961900251e-11  1.9999999999768420e+02 -9.5841381532794133e-11 -4.8924726020695877e-11  1.9999999999644498e+02 3.9705605114965052e-11 1.5845681916507192e-12  1.9999999999683590e+02 -3.6573855530500736e-11 -3.4669608513579467e-11  1.9999999999687094e+02 1.3641783921574019e-11 1.4234547187195554e-11  1.9999999999600900e+02 3.5757306722424005e-12 -2.2136571808599847e-11  1.9999999999719901e+02 -2.1416357402075150e-11 1.2468976181720444e-12  1.9999999999770819e+02 -2.8266369732102105e-11 -2.1440388650867921e-11  1.9999999999680833e+02 -1.9563704019715870e-11 -2.9206474866104070e-11  1.9999999999635347e+02 -3.4735533664255592e-11 -3.5946925047052313e-11  1.9999999999647471e+02 -1.9985001946555958e-11 -7.7821292344371760e-12  1.9999999999647574e+02 7.6779371848578312e-11 5.7011260038135904e-11  1.9999999999641346e+02 -5.4238624673572996e-12 2.1988600178391845e-11  1.9999999999597929e+02 -2.8588821869460117e-11 -2.0546106754232663e-11  1.9999999999552068e+02 -4.3115975674457298e-11 -4.9995472203319798e-11  1.9999999999551531e+02 -5.2919631448066889e-12 -4.2557899668634076e-12  1.9999999999561152e+02 7.5559527005307450e-11 5.3278915658760484e-11  1.9999999999549780e+02 -8.0507675237965639e-12 -1.3838979929946523e-11  1.9999999999595184e+02 -6.1400404039134034e-11 -4.8728813861984569e-11  1.9999999999645300e+02 5.9173315710931734e-11 4.0287214251167342e-11  1.9999999999636810e+02 -1.8865996571055174e-11 1.2802918033593590e-11  1.9999999999680369e+02 -6.5446846916066190e-11 -1.0903411539514772e-10  1.9999999999681040e+02 -5.0477009761695588e-11 4.9968609024917381e-12  1.9999999999646616e+02 5.6450603176222883e-11 3.9214020753246189e-11  1.9999999999734371e+02 6.8068298834528216e-11 2.2349359284773470e-11  1.9999999999683644e+02 -3.6912610276271842e-11 4.6983347350040374e-11  1.9999999999647284e+02 -2.0441076830465528e-11 3.6795526716665393e-11  1.9999999999645510e+02 -1.0487599668560458e-11 -3.9862983878415680e-13  1.9999999999682763e+02 -1.5786665861627016e-11 -5.4111661020097869e-11  1.9999999999730829e+02 -1.8067624848704596e-11 3.5381892755039889e-11  1.9999999999732418e+02 6.7434268901923090e-11 6.8187447784178716e-11  1.9999999999684752e+02 2.0943784916067659e-11 4.1372430230252815e-11  1.9999999999600033e+02 -1.6932105708142321e-11 -8.2272132644842063e-12  1.9999999999600502e+02 -2.6886643628189929e-11 4.8144104290748730e-11  1.9999999999635850e+02 -5.8320470851361802e-11 -2.9019900771718825e-11  1.9999999999680347e+02 -4.3366811730726948e-11 -3.7432092205617170e-11  1.9999999999640539e+02 1.9691002698349897e-11 -2.5198976787010145e-11  1.9999999999646613e+02 4.6571847079415989e-11 5.4575570083599941e-11  1.9999999999641327e+02 -9.5167988113889750e-12 4.6302275068771812e-12  1.9999999999680742e+02 -6.6377619047561680e-11 -5.8830727100821599e-11  1.9999999999679687e+02 -8.5964711542054769e-11 -5.4290479734320024e-11  1.9999999999729016e+02 -1.2235681968506180e-11 6.9264427687858611e-12  1.9999999999732904e+02 5.2038143914790390e-11 5.4537912004319023e-11  1.9999999999685616e+02 8.9268822199389912e-13 4.9036916310664277e-12  1.9999999999728911e+02 -1.6241020263705167e-11 -7.7595723457678463e-12  1.9999999999596858e+02 -7.4302965030129062e-11 -1.2277434808945628e-11  1.9999999999550801e+02 -7.1534926317658058e-11 -1.9159175022137373e-11  1.9999999999551332e+02 -2.9564652790631478e-11 1.7423117264118846e-11  1.9999999999562644e+02 5.7634653958664755e-11 5.1369910414981255e-11  1.9999999999593589e+02 -7.5687576491500880e-11 -6.5008764959698256e-11  1.9999999999596722e+02 1.0535995874421993e-11 -9.0735069965995018e-13  1.9999999999593777e+02 -1.0087401438377152e-10 -9.2654861029176802e-12  1.9999999999720552e+02 -6.4895913005172389e-11 -3.2435344098205765e-11  1.9999999999724443e+02 -1.3244855533185324e-11 3.7245138330752677e-11  1.9999999999768184e+02 -4.5891838383372691e-11 -6.7194683048722746e-11  1.9999999999734038e+02 3.6557475170044414e-11 -4.7115185147979857e-12  1.9999999999729820e+02 -8.0171458063390118e-12 -8.1977579178016065e-12  1.9999999999734808e+02 3.2534309734892636e-11 5.6809137662207092e-11  1.9999999999729559e+02 -2.8965915983527544e-11 1.1769579920683503e-11  1.9999999999768679e+02 -7.9360656847780552e-11 -8.3153943298594184e-11  1.9999999999766214e+02 -7.3067480240507654e-11 -6.2566021217882418e-11  1.9999999999771720e+02 1.2372784157878764e-11 1.3221822648924035e-11  1.9999999999682336e+02 -4.0491125270349531e-11 -4.0992283509886962e-11  1.9999999999674799e+02 -9.5627650885799423e-11 -1.1834354742779697e-11  1.9999999999632516e+02 -6.1423144403231044e-11 -3.7707968919141876e-11  1.9999999999639053e+02 -4.0293970051280760e-12 6.4299353016807336e-11  1.9999999999644564e+02 2.9557716640545782e-11 2.2012090901021386e-11  1.9999999999640340e+02 -1.9150189267643670e-11 7.9907533802811677e-12  1.9999999999646857e+02 1.4624689229834747e-11 4.2726895521763205e-11  1.9999999999641440e+02 -4.7467970913093374e-12 8.4955269820733427e-12  1.9999999999680321e+02 -5.0001725395865599e-11 -6.9418514760435370e-11  1.9999999999680674e+02 -7.9500628213633905e-11 -3.7239065453959449e-11  1.9999999999683834e+02 -3.9067344336879630e-11 4.1005991415793083e-11  1.9999999999684837e+02 -9.1515318859097240e-12 -1.3348545378637580e-12  1.9999999999595019e+02 -5.6592007438098696e-11 -1.4769242595979120e-11  1.9999999999592686e+02 -6.1387432282277567e-11 -7.4124623403001165e-11  1.9999999999551821e+02 -3.1194267435978478e-11 5.3150992811807593e-11  1.9999999999561859e+02 -1.2840895775400748e-12 3.6149526850955577e-11  1.9999999999595084e+02 -2.9349713785134870e-11 2.1928258643739669e-12  1.9999999999593274e+02 -1.3261149980555027e-10 3.6685156762748822e-12  1.9999999999721103e+02 -9.3296687381638866e-12 -2.7643578144054766e-11  1.9999999999726299e+02 -2.5222612524684989e-11 4.7423883291791562e-11  1.9999999999767886e+02 1.3789387053678963e-12 -4.0561962987022068e-11  1.9999999999760541e+02 -6.0086011225262219e-11 -5.7806190262351424e-11  1.9999999999733592e+02 -2.4471706530886915e-10 -9.5277102097938763e-12  1.9999999999732933e+02 -1.1183981168085048e-11 4.4535221244060373e-11  1.9999999999733492e+02 -2.1987073917449239e-10 4.6855352640165686e-11  1.9999999999730079e+02 1.6820485456831666e-11 1.7461641373175458e-11  1.9999999999767138e+02 -4.2514841040071096e-12 -9.4600809813617497e-11  1.9999999999771509e+02 7.2080564464276859e-11 1.0902526214230878e-11  1.9999999999770031e+02 -2.0372258885427438e-11 6.9334480931622953e-11  1.9999999999771970e+02 5.9073112012388307e-12 5.9577696655133847e-11  1.9999999999679233e+02 -1.6470096952806803e-11 -2.4596304863003730e-11  1.9999999999628250e+02 -2.9687332930238393e-11 2.3919274554637937e-12  1.9999999999641742e+02 -8.6756049181279417e-13 5.0634157490874532e-12  1.9999999999644490e+02 -2.3650045728114862e-10 4.9927730429917395e-11  1.9999999999679093e+02 -6.0720702974320325e-12 -7.0956319428818205e-11  1.9999999999682515e+02 -1.3379933625586890e-12 4.7409119621131928e-11  1.9999999999682331e+02 8.1311172332888801e-11 1.3081010452863119e-11  1.9999999999593433e+02 -1.4644769849945360e-11 -3.8122513237560819e-12  1.9999999999591546e+02 -1.0607622170528427e-11 -8.7700608050502265e-11  1.9999999999551702e+02 2.0985262389462445e-11 3.5288114612345398e-11  1.9999999999560859e+02 -2.4393842242700756e-10 2.6980228582136036e-11  1.9999999999597560e+02 -2.9062914328601375e-11 5.8916746694776368e-11  1.9999999999730900e+02 1.0567053937613283e-11 -6.9251484917391934e-12  1.9999999999733552e+02 7.9226851047826309e-11 3.7205857853677340e-11  1.9999999999767445e+02 -3.8884515677722312e-11 -4.3435459113657127e-11  1.9999999999683232e+02 1.1541304046302203e-11 -1.1834541863760107e-11  1.9999999999684121e+02 -3.7671246097650106e-11 3.7107359476917485e-11  1.9999999999719648e+02 -6.2668273252165848e-11 -4.7475995518196635e-11  1.9999999999768337e+02 -3.9994155461197591e-11 -3.6126493289945397e-11  1.9999999999729164e+02 1.1752123168987861e-12 -2.3096413278127678e-11  1.9999999999767496e+02 -1.0965196100387999e-10 -5.0559964663509884e-11  1.9999999999683737e+02 -5.5917237062538415e-11 -1.1253268684498449e-11  1.9999999999634599e+02 -4.7963156325159478e-11 -2.9258512692227528e-11  1.9999999999642660e+02 -6.2026355696981339e-12 -5.1511343302368758e-12  1.9999999999647102e+02 3.1291205740832140e-11 4.9759078606896886e-11  1.9999999999641639e+02 -2.1518662570456631e-11 -2.0655140010762947e-11  1.9999999999678857e+02 -9.4111356940584340e-11 -3.8541949687798687e-11  1.9999999999596480e+02 -5.3249964767702341e-11 -2.1865387579535558e-12  1.9999999999552770e+02 -7.7750355267002212e-11 -1.7680044106862016e-11  1.9999999999553162e+02 -3.6381322110585389e-12 9.1924018930937784e-12  1.9999999999593814e+02 -9.6801317979250216e-11 -2.1224909663089365e-11  1.9999999999721717e+02 -6.1134444566256382e-11 -5.3909246421906304e-11  1.9999999999767104e+02 -4.4498801716630296e-11 -1.8811180992883711e-11  1.9999999999728581e+02 4.3471332666605243e-12 -6.9551770683936322e-12  1.9999999999767263e+02 -7.5614372143322510e-11 -2.9869048558113871e-11  1.9999999999681324e+02 -3.9751882590162586e-11 -3.7895441117630716e-11  1.9999999999631916e+02 -6.0878811923312021e-11 -5.2162344407062022e-11  1.9999999999641710e+02 -2.4380042498860283e-11 -1.0200993669306426e-11  1.9999999999679810e+02 -8.2035988702264869e-11 -3.9511704422692300e-11  1.9999999999595045e+02 -5.9860577753661398e-11 -3.3231269356380867e-11  1.9999999999550818e+02 -7.7089158021679080e-11 -2.9712994856454919e-11  1.9999999999551778e+02 -3.9628025372918437e-11 9.1380314074546951e-12  1.9999999999593214e+02 -7.7359965363384454e-11 -5.7992430159039281e-11  1.9999999999719816e+02 3.4057466880090695e-13 -4.9703398348632896e-11  1.9999999999766217e+02 -9.8662868250800929e-13 -3.2370789837364909e-11  1.9999999999733859e+02 -2.5386820670413050e-12 1.9903166243254754e-12  1.9999999999772686e+02 7.6472483789178669e-11 -6.7187064263097873e-12  1.9999999999678411e+02 2.8784173552851135e-13 -5.4191886659657603e-11  1.9999999999632638e+02 5.3341762424198999e-12 -5.4047383979214223e-11  1.9999999999683564e+02 1.0932071491284472e-10 7.8217821478151444e-12  1.9999999999592487e+02 -6.8348397524080636e-12 -3.3948049115324411e-11  1.9999999999547126e+02 7.4425393796913514e-13 -3.7514443642725857e-11  1.9999999999559671e+02 4.0167049822664049e-12 2.4160310226888105e-11  1.9999999999597665e+02 1.2387717090238102e-10 -2.7494324587129375e-12  1.9999999999510095e+02 3.3628776852230952e-11 -4.8099344815177858e-12  1.9999999999512576e+02 5.9075895556270360e-11 3.0972608370037163e-11  1.9999999999562849e+02 5.7686868995077667e-11 3.5006890310100181e-10  1.9999999999553032e+02 -6.2189655087431099e-11 -1.0674007792123143e-10  1.9999999999554285e+02 -3.9268440615249374e-11 2.3685461173307856e-11  1.9999999999596062e+02 -4.1135164382356082e-11 -9.5420492209093854e-11  1.9999999999589971e+02 -9.8871275480834309e-11 -2.3085969825922079e-10  1.9999999999564113e+02 4.2204273686349512e-11 3.5957336641871233e-10  1.9999999999553791e+02 1.6400936666616069e-12 -1.6174480716296750e-11  1.9999999999562419e+02 3.1809921584744461e-11 7.5096757673102274e-11  1.9999999999553600e+02 1.0158243092771668e-11 -6.7486633512657779e-11  1.9999999999562874e+02 3.9274174295235827e-11 8.3863117882169749e-11  1.9999999999554169e+02 -8.5405469941591560e-12 7.2222401404669190e-12  1.9999999999594232e+02 -5.5129769995546263e-11 -8.1907879698707561e-11  1.9999999999594206e+02 -9.3969253664072565e-11 -1.0329150149264013e-10  1.9999999999599365e+02 -7.3856990703592140e-12 2.2281932229903371e-11  1.9999999999553395e+02 -7.0764314373043419e-12 -1.2246220376145335e-10  1.9999999999553140e+02 6.9858819126262375e-11 -1.6570419164820355e-11  1.9999999999595244e+02 1.5217828310540488e-11 -9.5286590434165090e-11  1.9999999999592112e+02 -3.4823785465880835e-11 -2.2437536461869175e-10  1.9999999999563488e+02 -2.2023638409126161e-10 3.0207963858013616e-10  1.9999999999554501e+02 1.1738224747287318e-11 -6.6427679957395199e-11  1.9999999999563113e+02 -2.113591