<?xml version="1.0"?>
<VTKFile type="UnstructuredGrid"  version="0.1"  >
<UnstructuredGrid>
<Piece  NumberOfPoints="582" NumberOfCells="2411">
<Points>
<DataArray  type="Float64"  NumberOfComponents="3"  format="ascii">5 35 10  5 32.5 10  2.5 32.5 10  2.5 32.5 7.5  0 35 10  2.5 35 10  0 32.5 10  0 32.5 7.5  5 35 12.5  5 32.5 12.5  2.5 32.5 12.5  5 35 15  5 30 15  5 32.5 15  2.5 32.5 15  2.5 35 12.5  0 35 15  2.5 35 15  0 32.5 15  0 32.5 12.5  0 35 12.5  7.5 35 12.5  7.5 35 10  7.5 32.5 12.5  7.5 32.5 10  10 35 10  10 35 12.5  10 35 15  7.5 32.5 15  7.5 35 15  2.5 37.5 12.5  2.5 37.5 10  5 37.5 12.5  5 37.5 10  5 40 10  5 40 12.5  5 40 15  5 37.5 15  2.5 37.5 15  0 37.5 10  0 40 10  2.5 40 12.5  2.5 40 10  0 37.5 12.5  0 37.5 15  0 40 15  2.5 40 15  0 40 12.5  7.5 37.5 12.5  10 37.5 12.5  10 37.5 15  10 40 15  7.5 37.5 15  7.5 40 15  7.5 40 12.5  12.5 37.5 12.5  12.5 35 12.5  12.5 35 10  15 35 10  15 37.5 12.5  15 35 12.5  15 35 15  15 37.5 15  15 40 15  12.5 37.5 15  12.5 35 15  12.5 40 15  17.5 37.5 12.5  17.5 37.5 15  2.5 42.5 12.5  5 42.5 12.5  5 42.5 15  5 45 15  2.5 42.5 15  0 42.5 12.5  0 42.5 15  0 45 15  2.5 45 15  7.5 42.5 12.5  7.5 42.5 15  10 42.5 15  10 45 15  7.5 45 15  5 32.5 17.5  2.5 32.5 17.5  5 35 17.5  5 35 20  5 30 20  5 32.5 20  2.5 32.5 20  2.5 35 17.5  0 30 20  0 32.5 20  0 32.5 17.5  0 35 20  2.5 35 20  0 35 17.5  10 35 17.5  10 32.5 17.5  7.5 32.5 17.5  10 35 20  10 32.5 20  7.5 32.5 20  7.5 35 17.5  7.5 35 20  12.5 35 17.5  12.5 32.5 17.5  15 35 17.5  15 35 20  12.5 35 20  12.5 32.5 20  2.5 37.5 17.5  5 37.5 17.5  5 40 17.5  5 40 20  5 37.5 20  2.5 37.5 20  2.5 40 17.5  0 37.5 17.5  0 37.5 20  0 40 20  2.5 40 20  0 40 17.5  7.5 37.5 17.5  10 37.5 17.5  10 40 17.5  10 40 20  10 37.5 20  7.5 37.5 20  7.5 40 17.5  7.5 40 20  12.5 37.5 17.5  15 37.5 17.5  15 40 17.5  15 40 20  15 37.5 20  12.5 37.5 20  12.5 40 17.5  12.5 40 20  17.5 37.5 17.5  2.5 42.5 17.5  5 42.5 17.5  5 45 17.5  5 45 20  5 42.5 20  2.5 42.5 20  2.5 45 17.5  0 42.5 17.5  0 42.5 20  0 45 20  2.5 45 20  0 45 17.5  7.5 42.5 17.5  10 42.5 17.5  10 45 17.5  10 45 20  10 42.5 20  7.5 42.5 20  7.5 45 17.5  7.5 45 20  12.5 42.5 17.5  12.5 42.5 15  15 42.5 15  15 45 15  12.5 42.5 20  12.5 45 17.5  12.5 45 15  12.5 45 20  2.5 47.5 17.5  2.5 47.5 15  5 47.5 17.5  5 47.5 15  5 50 15  5 50 17.5  5 50 20  5 47.5 20  0 47.5 15  0 50 15  2.5 50 17.5  2.5 50 15  0 47.5 17.5  0 47.5 20  0 50 20  0 50 17.5  2.5 50 20  7.5 47.5 17.5  7.5 47.5 15  10 47.5 17.5  10 47.5 15  10 50 15  10 50 17.5  10 50 20  10 47.5 20  7.5 47.5 20  7.5 50 17.5  7.5 50 15  7.5 50 20  12.5 47.5 17.5  12.5 47.5 15  12.5 47.5 20  12.5 50 17.5  12.5 50 15  12.5 50 20  5 32.5 22.5  2.5 32.5 22.5  5 35 22.5  5 35 25  2.5 35 22.5  0 32.5 22.5  0 30 22.5  0 35 22.5  10 35 22.5  10 32.5 22.5  7.5 32.5 22.5  7.5 35 22.5  12.5 35 22.5  12.5 32.5 22.5  2.5 37.5 22.5  5 37.5 22.5  5 40 22.5  2.5 40 22.5  0 37.5 22.5  0 40 22.5  7.5 37.5 22.5  10 37.5 22.5  10 40 22.5  7.5 40 22.5  12.5 37.5 22.5  12.5 40 22.5  2.5 42.5 22.5  5 42.5 22.5  0 42.5 22.5  7.5 42.5 22.5  10 42.5 22.5  10 45 22.5  7.5 45 22.5  12.5 42.5 22.5  12.5 45 22.5  7.5 47.5 22.5  10 47.5 22.5  10 50 22.5  7.5 50 22.5  12.5 47.5 22.5  12.5 50 22.5  5 30 0  5 32.5 2.5  5 32.5 0  2.5 32.5 2.5  2.5 32.5 0  5 35 0  5 35 2.5  5 35 5  5 32.5 5  2.5 32.5 5  0 35 0  2.5 35 2.5  2.5 35 0  0 32.5 0  0 35 5  2.5 35 5  0 32.5 5  0 32.5 2.5  0 35 2.5  7.5 32.5 2.5  7.5 32.5 0  7.5 35 2.5  7.5 35 0  10 35 0  10 35 2.5  10 35 5  7.5 35 5  7.5 32.5 5  2.5 37.5 2.5  2.5 37.5 0  5 37.5 2.5  5 37.5 0  5 40 0  5 40 2.5  5 40 5  5 37.5 5  2.5 37.5 5  0 37.5 0  0 40 0  2.5 40 2.5  2.5 40 0  0 37.5 2.5  0 37.5 5  0 40 5  2.5 40 5  0 40 2.5  7.5 37.5 2.5  7.5 37.5 0  10 37.5 2.5  10 37.5 0  10 40 0  10 40 2.5  10 40 5  10 37.5 5  7.5 37.5 5  7.5 40 2.5  7.5 40 0  7.5 40 5  15 40 0  15 40 2.5  15 37.5 2.5  12.5 37.5 2.5  15 40 5  15 37.5 5  12.5 37.5 5  12.5 37.5 0  12.5 40 2.5  12.5 40 0  12.5 40 5  17.5 40 2.5  17.5 40 0  17.5 37.5 2.5  20 40 0  20 40 2.5  20 40 5  17.5 40 5  17.5 37.5 5  2.5 42.5 2.5  2.5 42.5 0  5 42.5 2.5  5 42.5 0  5 45 0  5 45 2.5  5 45 5  5 42.5 5  2.5 42.5 5  0 42.5 0  0 45 0  2.5 45 2.5  2.5 45 0  0 42.5 2.5  0 42.5 5  0 45 5  2.5 45 5  0 45 2.5  7.5 42.5 2.5  7.5 42.5 0  10 42.5 2.5  10 42.5 0  10 45 0  10 45 2.5  10 45 5  10 42.5 5  7.5 42.5 5  7.5 45 2.5  7.5 45 0  7.5 45 5  12.5 42.5 2.5  12.5 42.5 0  15 42.5 2.5  15 42.5 0  15 45 0  15 45 2.5  15 45 5  15 42.5 5  12.5 42.5 5  12.5 45 2.5  12.5 45 0  12.5 45 5  17.5 42.5 2.5  17.5 42.5 0  20 42.5 2.5  20 42.5 0  20 45 0  20 45 2.5  20 45 5  20 42.5 5  17.5 42.5 5  17.5 45 2.5  17.5 45 0  17.5 45 5  22.5 42.5 2.5  22.5 42.5 0  22.5 45 2.5  22.5 45 0  25 45 0  22.5 42.5 5  22.5 45 5  2.5 47.5 2.5  2.5 47.5 0  5 47.5 2.5  5 47.5 0  5 50 0  5 50 2.5  5 50 5  5 47.5 5  2.5 47.5 5  0 47.5 0  0 50 0  2.5 50 2.5  2.5 50 0  0 47.5 2.5  0 47.5 5  0 50 5  2.5 50 5  0 50 2.5  7.5 47.5 2.5  7.5 47.5 0  10 47.5 2.5  10 47.5 0  10 50 0  10 50 2.5  10 50 5  10 47.5 5  7.5 47.5 5  7.5 50 2.5  7.5 50 0  7.5 50 5  12.5 47.5 2.5  12.5 47.5 0  15 47.5 2.5  15 47.5 0  15 50 0  15 50 2.5  15 50 5  15 47.5 5  12.5 47.5 5  12.5 50 2.5  12.5 50 0  12.5 50 5  17.5 47.5 2.5  17.5 47.5 0  20 47.5 2.5  20 47.5 0  20 50 0  20 50 2.5  20 50 5  20 47.5 5  17.5 47.5 5  17.5 50 2.5  17.5 50 0  17.5 50 5  22.5 47.5 2.5  22.5 47.5 0  22.5 47.5 5  22.5 50 5  22.5 50 2.5  5 35 7.5  5 32.5 7.5  2.5 35 7.5  0 35 7.5  7.5 35 7.5  7.5 32.5 7.5  10 35 7.5  2.5 37.5 7.5  5 37.5 7.5  5 40 7.5  2.5 40 7.5  0 37.5 7.5  0 40 7.5  7.5 37.5 7.5  10 37.5 7.5  10 40 7.5  10 40 10  10 37.5 10  7.5 37.5 10  7.5 40 7.5  7.5 40 10  15 40 7.5  15 37.5 7.5  12.5 37.5 7.5  15 40 10  15 37.5 10  12.5 37.5 10  12.5 40 7.5  12.5 40 10  17.5 40 7.5  17.5 37.5 7.5  20 40 7.5  20 40 10  17.5 37.5 10  17.5 40 10  2.5 42.5 7.5  5 42.5 7.5  5 45 7.5  5 45 10  5 42.5 10  2.5 42.5 10  2.5 45 7.5  0 42.5 7.5  0 42.5 10  0 45 10  2.5 45 10  0 45 7.5  7.5 42.5 7.5  10 42.5 7.5  10 45 7.5  10 45 10  10 42.5 10  7.5 42.5 10  7.5 45 7.5  7.5 45 10  12.5 42.5 7.5  15 42.5 7.5  15 45 7.5  15 45 10  15 42.5 10  12.5 42.5 10  12.5 45 7.5  12.5 45 10  17.5 42.5 7.5  20 42.5 7.5  20 45 7.5  20 45 10  20 42.5 10  17.5 42.5 10  17.5 45 7.5  17.5 45 10  22.5 42.5 7.5  22.5 45 7.5  2.5 47.5 7.5  5 47.5 7.5  5 50 7.5  5 50 10  5 47.5 10  2.5 47.5 10  2.5 50 7.5  0 47.5 7.5  0 47.5 10  0 50 10  2.5 50 10  0 50 7.5  7.5 47.5 7.5  10 47.5 7.5  10 50 7.5  10 50 10  10 47.5 10  7.5 47.5 10  7.5 50 7.5  7.5 50 10  12.5 47.5 7.5  15 47.5 7.5  15 50 7.5  15 50 10  15 47.5 10  12.5 47.5 10  12.5 50 7.5  12.5 50 10  17.5 47.5 7.5  20 47.5 7.5  20 50 7.5  20 50 10  20 47.5 10  17.5 47.5 10  17.5 50 7.5  17.5 50 10  22.5 47.5 7.5  22.5 50 7.5  10 40 12.5  15 40 12.5  12.5 40 12.5  17.5 40 12.5  5 45 12.5  2.5 45 12.5  0 45 12.5  10 42.5 12.5  10 45 12.5  7.5 45 12.5  12.5 42.5 12.5  15 42.5 12.5  15 45 12.5  12.5 45 12.5  17.5 42.5 12.5  17.5 45 12.5  2.5 47.5 12.5  5 47.5 12.5  5 50 12.5  2.5 50 12.5  0 47.5 12.5  0 50 12.5  7.5 47.5 12.5  10 47.5 12.5  10 50 12.5  7.5 50 12.5  12.5 47.5 12.5  15 47.5 12.5  12.5 50 12.5  17.5 47.5 12.5  </DataArray>
</Points>
<Cells>
[...]
<PointData  Vectors="u"> 
<DataArray  type="Float64"  Name="u"  NumberOfComponents="3" format="ascii">1.9999999999912453e+02 7.6024103345595165e-11 6.2678998788910414e-12  1.9999999999901473e+02 -9.5417959143778673e-12 1.6726385960872203e-11  1.9999999999947897e+02 -5.5053651972110327e-11 -1.1381040283039863e-10  1.9999999999949412e+02 -2.1350573360671614e-11 -6.5558955603227369e-12  2.0000000000027867e+02 7.5870579877528134e-11 3.1365141607943995e-11  1.9999999999949222e+02 -7.6903241970579265e-12 2.7089979183321749e-11  2.0000000000001486e+02 -9.0745515848811268e-12 -5.7842686438348698e-11  1.9999999999988407e+02 -3.4823393238555390e-12 4.5509897755076264e-12  1.9999999999910722e+02 -3.3052309229227451e-11 -1.2781558433887234e-11  1.9999999999903233e+02 -6.2451019650101252e-11 -4.9786457497206033e-11  1.9999999999945746e+02 -4.0260368450952217e-11 -2.6096625543596954e-11  1.9999999999910455e+02 5.4595962075576009e-11 7.7081864411746557e-11  1.9999999999911216e+02 8.4559926376845288e-11 7.7762252478131222e-11  1.9999999999911040e+02 9.1048023618580084e-12 -2.4240648737113534e-11  1.9999999999953312e+02 -8.0281860236763255e-11 -1.9170041822636407e-11  1.9999999999950626e+02 -4.2524589820953996e-11 -3.7973232159459960e-11  2.0000000000025807e+02 8.5322470461796312e-11 7.2769069883071471e-11  1.9999999999949225e+02 4.8371897628604125e-11 -2.5429957263903348e-11  2.0000000000002680e+02 -2.7642614999698430e-11 -2.0649835396949574e-11  1.9999999999984621e+02 -2.1592510922508888e-11 -1.7032667262398411e-11  2.0000000000003331e+02 2.4508850834989660e-12 -1.5637315817427389e-11  1.9999999999855046e+02 -1.2463603979118535e-10 -4.5526388591859289e-11  1.9999999999861268e+02 -3.8303985272218819e-11 3.7764463937023915e-11  1.9999999999860287e+02 -5.0033388118785797e-11 -2.4659369103586454e-11  1.9999999999852764e+02 -1.1649135704512801e-10 -6.6710521158566480e-12  1.9999999999822785e+02 4.3763780401636464e-11 2.5511673994267126e-11  1.9999999999821387e+02 -3.7846040557496417e-12 -1.2570687619760247e-11  1.9999999999824738e+02 1.8224398156324704e-11 7.3065241466968735e-11  1.9999999999858099e+02 -1.5109645392532994e-11 -1.8607094529683225e-11  1.9999999999861487e+02 2.7855689472629826e-11 -5.7357995330716815e-11  1.9999999999948230e+02 -3.7741712391527968e-11 -2.5975379060163959e-11  1.9999999999956250e+02 -1.0889105411411236e-10 -2.9777959366853352e-11  1.9999999999905762e+02 -1.3146990728044364e-10 -8.6159261391545642e-11  1.9999999999908630e+02 -1.2331888416500748e-11 9.6089324458918196e-14  1.9999999999909261e+02 8.9749044036120991e-11 9.7510139506262669e-12  1.9999999999907249e+02 -3.0072533597931003e-11 -8.0646568799005167e-12  1.9999999999909289e+02 7.5045831856550532e-11 7.6680105203843039e-11  1.9999999999906328e+02 -2.1479666342591221e-11 -2.8927086928293741e-11  1.9999999999951601e+02 -4.5333320598581008e-11 -5.9576098444594275e-11  2.0000000000004005e+02 -9.6101606336162875e-12 9.9988143149541669e-11  2.0000000000027899e+02 6.4989091496955958e-11 5.1860272343328570e-12  1.9999999999950708e+02 -8.3391091928217763e-11 -6.3962862537281391e-11  1.9999999999951785e+02 -1.2095137806500137e-11 4.1676416408587063e-11  1.9999999999980304e+02 -3.7546968718864300e-11 1.0661769970849213e-11  2.0000000000005011e+02 -4.0441241739072976e-11 -4.0065317571561843e-11  2.0000000000028456e+02 5.5389019460681735e-11 7.1387505345483446e-11  1.9999999999948912e+02 -6.1024683550417943e-11 2.6256235478319480e-11  2.0000000000001711e+02 -6.2430374312075361e-11 -2.1530497830457852e-11  1.9999999999857928e+02 -3.8170252015267304e-11 -2.8318091775092127e-11  1.9999999999811709e+02 -4.3937301216758872e-11 -5.7621030093244916e-12  1.9999999999819551e+02 1.6726061464250473e-11 -2.2054197295056226e-11  1.9999999999825692e+02 7.7949732361109057e-11 3.1768761183732039e-11  1.9999999999857724e+02 -6.5500018565449620e-11 -5.5469145646428848e-11  1.9999999999861768e+02 1.5345607032945293e-11 -1.0972158186577090e-12  1.9999999999861893e+02 -9.9216916295211737e-11 -3.2802715306500799e-11  1.9999999999769480e+02 -3.6745905679857319e-11 -9.7281749178376020e-12  1.9999999999766962e+02 -3.7903287424203406e-11 -4.2695414602983532e-11  1.9999999999773436e+02 -4.7476235696514108e-11 7.3365109351306451e-11  1.9999999999732103e+02 5.4519519977288519e-11 2.9578299107623943e-11  1.9999999999714643e+02 -4.6489305599007932e-11 -3.6974877805987515e-12  1.9999999999729368e+02 4.0906886048299938e-12 2.4181170193849559e-12  1.9999999999734027e+02 5.6203210666697003e-11 2.2921888902569422e-11  1.9999999999729033e+02 -2.1712726192278465e-11 -2.9519654155129387e-11  1.9999999999734371e+02 6.8068298834528216e-11 2.2349359284773470e-11  1.9999999999767903e+02 -4.4360367747493872e-11 -1.0867367200912173e-10  1.9999999999770978e+02 3.1150990701925241e-11 -5.9563880462436966e-11  1.9999999999768937e+02 -3.2661620602451193e-11 1.8332369446688285e-11  1.9999999999681040e+02 -5.0477009761695588e-11 4.9968609024917381e-12  1.9999999999680369e+02 -6.5446846916066190e-11 -1.0903411539514772e-10  1.9999999999949458e+02 -5.5687910226931960e-12 5.6814871456879986e-12  1.9999999999910278e+02 -7.9859519697926749e-11 -2.3503338078267110e-11  1.9999999999912180e+02 7.4010822925015782e-12 -5.9924202203709040e-11  1.9999999999908738e+02 7.0759388764441140e-11 3.3771348377909889e-11  1.9999999999953505e+02 -4.7750481649487150e-11 -6.1902801550128353e-11  1.9999999999986301e+02 2.6106353075954091e-12 -1.2184702867901097e-11  1.9999999999999065e+02 -1.9558386365440362e-11 -5.4683817896687764e-11  2.0000000000028032e+02 5.4086854918334065e-11 1.7126128772977681e-11  1.9999999999953621e+02 -4.2892676306382348e-11 2.0372725554347869e-11  1.9999999999858329e+02 -1.1702591924684067e-11 -1.4003935209824198e-11  1.9999999999858059e+02 -3.4821568829664891e-11 -1.1442738410828322e-10  1.9999999999815364e+02 -2.0309033499453239e-13 2.3442632577666983e-11  1.9999999999823606e+02 2.8201396524513625e-11 8.8665681733489336e-13  1.9999999999861771e+02 -5.3879861994460388e-11 1.7627615398853603e-11  1.9999999999908513e+02 -2.5563078929140391e-11 -1.0372714999354393e-10  1.9999999999950251e+02 -1.9001168627440626e-11 -2.3476565385691285e-11  1.9999999999907675e+02 4.2700134431605271e-11 -2.6263300604828005e-11  1.9999999999911245e+02 4.4062947146210851e-11 7.9126324644914583e-11  1.9999999999911662e+02 9.1292689515013439e-11 7.0602524480662418e-11  1.9999999999911361e+02 1.2722911722955024e-11 -6.2947928945293893e-11  1.9999999999953002e+02 -8.2371976537987025e-11 -7.2936007863666048e-11  1.9999999999950867e+02 -4.4801963310112505e-11 -8.0010815805152407e-11  2.0000000000028771e+02 7.6097781709992338e-11 5.4100874406826276e-11  2.0000000000003598e+02 -3.4018011492381448e-11 -4.5828219065746542e-11  1.9999999999981267e+02 -2.0757788491394473e-11 -2.9712228685524944e-11  2.0000000000027160e+02 5.8272528320731135e-11 5.4762924432262863e-11  1.9999999999953150e+02 2.0774295831856465e-11 -4.1234387724608797e-11  2.0000000000000963e+02 -3.8369850777117538e-11 -5.7146515137816189e-11  1.9999999999814776e+02 -2.1462785512847538e-11 -3.0837099746337601e-11  1.9999999999813329e+02 5.5871191926076352e-12 -4.7650886261938644e-11  1.9999999999860844e+02 -1.1318213659781237e-11 -8.2684472571071936e-12  1.9999999999823396e+02 3.5232379452176893e-11 5.8659757883608886e-11  1.9999999999818274e+02 8.5408341248882971e-13 -7.7838407299782436e-12  1.9999999999859131e+02 -2.1260733994300832e-11 -3.2786793725193632e-11  1.9999999999854961e+02 1.1954319543818236e-11 -9.9510807276471453e-11  1.9999999999860671e+02 2.6100251503696682e-11 -4.1214595125484884e-11  1.9999999999762224e+02 2.4648773478393244e-11 -6.9572445756291759e-11  1.9999999999766547e+02 8.4771328242677734e-12 -4.0889644276095519e-11  1.9999999999726717e+02 3.7889058717166761e-12 -2.7541501345162097e-12  1.9999999999732418e+02 6.7434268901923090e-11 6.8187447784178716e-11  1.9999999999771615e+02 -8.5691924177130792e-12 -1.6185429826157270e-11  1.9999999999770722e+02 7.1142173684611268e-12 -1.9903124500233399e-11  1.9999999999947192e+02 -4.0850629081220355e-11 -4.1590844829601872e-11  1.9999999999908397e+02 -8.8765782953753815e-11 -1.1030949329202023e-10  1.9999999999909008e+02 -5.2661336141092764e-11 -8.3718540296402013e-12  1.9999999999909394e+02 7.4546634427755140e-11 8.3291375373887307e-11  1.9999999999909693e+02 -2.1576885631489189e-11 -5.5002635675828739e-11  1.9999999999950685e+02 -4.6813257984688420e-11 -8.3066380936676560e-11  1.9999999999950160e+02 -8.4173487618348070e-11 -6.0079692986556219e-11  1.9999999999981506e+02 -1.9463851716578328e-11 -2.9707958200492945e-11  2.0000000000006631e+02 -9.3655182143642285e-13 -6.2143846168206817e-11  2.0000000000025540e+02 5.0505180410571309e-11 5.2858572255413103e-11  1.9999999999951638e+02 8.5838036667537334e-12 8.9660003116584133e-12  2.0000000000002726e+02 -6.0893470173259024e-11 -2.8716172322169810e-11  1.9999999999856490e+02 -3.3234237440660853e-11 -9.5927150188783775e-12  1.9999999999811087e+02 -3.8734996864376676e-11 -4.6642928450145457e-11  1.9999999999817382e+02 1.1180332918034313e-11 -3.1940167618445546e-12  1.9999999999820713e+02 4.3941648874877560e-11 4.5843388959257146e-11  1.9999999999817490e+02 -6.9891084227988657e-12 1.5899656065249354e-11  1.9999999999858215e+02 -5.0205971565777736e-11 -7.9304387628113284e-11  1.9999999999859060e+02 -8.3214718833134322e-11 -4.2694782777988994e-11  1.9999999999863303e+02 2.7485507463349797e-12 -9.4469075500072059e-12  1.9999999999769256e+02 -4.9362292829515455e-11 -3.0866502407928904e-11  1.9999999999720262e+02 -2.6589674469232182e-11 -4.5962438720294764e-11  1.9999999999728911e+02 -1.6241020263705167e-11 -7.7595723457678463e-12  1.9999999999732904e+02 5.2038143914790390e-11 5.4537912004319023e-11  1.9999999999729016e+02 -1.2235681968506180e-11 6.9264427687858611e-12  1.9999999999767448e+02 -5.2449533608709888e-11 -6.6103142020956169e-11  1.9999999999766874e+02 -8.2710497520990119e-11 -5.4722466761638363e-11  1.9999999999773598e+02 -7.1252943080876444e-12 1.8857539051892508e-11  1.9999999999680347e+02 -4.3366811730726948e-11 -3.7432092205617170e-11  1.9999999999947690e+02 -2.3380581087121167e-11 -3.1179855385244755e-11  1.9999999999909178e+02 -1.0518680035743426e-10 -8.6153084414276405e-11  1.9999999999906635e+02 -2.7689029492281234e-11 -2.3685784338128571e-11  1.9999999999909502e+02 4.0393612045013463e-11 6.9908007308266524e-11  1.9999999999907971e+02 -2.0431981293581441e-11 -3.7084817620587445e-11  1.9999999999953482e+02 -6.0301719461659909e-11 -5.8640102416274790e-11  1.9999999999952189e+02 -6.1892180314138288e-11 -4.8830460314228494e-11  1.9999999999978647e+02 -1.9914843150979819e-11 -1.6189280456626813e-11  2.0000000000002530e+02 -2.2239417425881546e-11 -3.3348010182749744e-11  2.0000000000027160e+02 3.6358735293449519e-11 4.2161698697448110e-11  1.9999999999949154e+02 -9.2287217093005042e-12 -7.2990728920104947e-12  2.0000000000002129e+02 -3.7059823709183964e-11 7.1439306050962894e-12  1.9999999999857070e+02 -3.9028447205444653e-11 -2.3389243363131709e-11  1.9999999999809967e+02 -7.4366581751615203e-11 -6.4744550291419611e-11  1.9999999999817956e+02 -1.3472063466958486e-11 -2.5405523427020740e-11  1.9999999999820650e+02 3.9237027025688444e-11 6.5091970441482324e-11  1.9999999999814531e+02 -2.1682889733878682e-11 -1.3491790845190450e-12  1.9999999999856760e+02 -6.5537112596126411e-11 -4.0711216486547305e-11  1.9999999999856618e+02 -6.0350513000853556e-11 -6.6115603037163999e-11  1.9999999999858309e+02 -2.9208641004208636e-11 2.2173088385628104e-11  1.9999999999768184e+02 -4.5891838383372691e-11 -6.7194683048722746e-11  1.9999999999760490e+02 -8.1989034611285184e-11 7.5408902420134863e-12  1.9999999999724443e+02 -1.3244855533185324e-11 3.7245138330752677e-11  1.9999999999734038e+02 3.6557475170044414e-11 -4.7115185147979857e-12  1.9999999999768679e+02 -7.9360656847780552e-11 -8.3153943298594184e-11  1.9999999999766214e+02 -7.3067480240507654e-11 -6.2566021217882418e-11  1.9999999999770520e+02 -6.4701377361181998e-11 3.1630014692154137e-11  1.9999999999771720e+02 1.2372784157878764e-11 1.3221822648924035e-11  1.9999999999950302e+02 7.0292875526158824e-12 -3.3161598733842021e-11  1.9999999999956532e+02 -5.1826740651204705e-11 -2.1060619830622393e-11  1.9999999999904344e+02 -3.5596632037678251e-11 -8.9691453693141986e-11  1.9999999999907871e+02 1.9993665319381161e-11 3.0732733283889479e-11  1.9999999999909679e+02 -2.6338038066084825e-10 3.2251866934451466e-12  1.9999999999907388e+02 -1.4853954551446331e-11 -5.8111832690330116e-12  1.9999999999908340e+02 -2.6886841291373923e-10 5.3455658847965364e-11  1.9999999999906404e+02 4.2739365549718167e-11 -3.8858570228700677e-11  2.0000000000004130e+02 9.1540726823855079e-12 1.1110184811280054e-10  2.0000000000029166e+02 -2.8767285031140386e-10 -8.3759647163605400e-12  1.9999999999947354e+02 1.2431197850359611e-10 3.3041152067796966e-11  1.9999999999953067e+02 -2.1074987563298612e-11 8.9227029629941253e-11  1.9999999999983277e+02 2.8567340701568035e-11 3.3818287623118399e-11  2.0000000000004047e+02 3.4457986871861985e-11 -6.0742426473950057e-11  2.0000000000025676e+02 -2.7250621184041802e-10 3.6964344030941222e-11  2.0000000000000199e+02 6.5826121455568587e-12 3.2561113830903234e-11  1.9999999999951663e+02 -2.6714186961759593e-11 4.0195701748858836e-11  1.9999999999855160e+02 9.9215997053231309e-12 -5.0627668722050844e-11  1.9999999999851451e+02 -5.3363636363760199e-11 -1.3018991243633167e-11  1.9999999999807980e+02 4.6578937173253833e-12 -2.9195864565987642e-11  1.9999999999815299e+02 1.9944921806121429e-11 3.1292340242626901e-11  1.9999999999821216e+02 -2.7189632727015886e-10 -2.8294423452797744e-11  1.9999999999820216e+02 -3.2332628322254656e-11 2.7396770726341002e-11  1.9999999999819096e+02 -2.4955865072226247e-10 5.1876002089112638e-11  1.9999999999815728e+02 1.7349684093268510e-11 2.2835701386951331e-11  1.9999999999856729e+02 6.4687819854226714e-12 -5.7805873785006002e-11  1.9999999999860367e+02 1.5431339630388522e-10 4.4187934453544236e-12  1.9999999999860287e+02 -1.1487294963844386e-11 8.2432439942589988e-11  1.9999999999860356e+02 8.8125518470018155e-12 6.2335493057907959e-11  1.9999999999767886e+02 1.3789387053678963e-12 -4.0561962987022068e-11  1.9999999999760541e+02 -6.0086011225262219e-11 -5.7806190262351424e-11  1.9999999999767138e+02 -4.2514841040071096e-12 -9.4600809813617497e-11  1.9999999999771509e+02 7.2080564464276859e-11 1.0902526214230878e-11  1.9999999999770031e+02 -2.0372258885427438e-11 6.9334480931622953e-11  1.9999999999771970e+02 5.9073112012388307e-12 5.9577696655133847e-11  1.9999999999908454e+02 -2.1570777380065512e-11 -1.8273738562539128e-11  1.9999999999949918e+02 -9.7869946993067075e-12 -1.7111299954249911e-11  1.9999999999906990e+02 2.6962774112044078e-11 -4.2257904064180281e-11  1.9999999999909923e+02 6.0214659999161672e-11 -7.7962976645058400e-12  1.9999999999951717e+02 1.0804496481085554e-11 -2.3573778534632607e-11  1.9999999999973394e+02 -3.9679306481375482e-11 -2.5813509082960615e-11  2.0000000000004397e+02 -3.4654592078218508e-11 8.5899082414946607e-12  2.0000000000007037e+02 -7.5864624247449120e-11 -2.7556813267583169e-11  1.9999999999815293e+02 5.8559694476263319e-12 -2.6506133730877269e-12  1.9999999999814347e+02 2.3322376886759128e-12 -1.7960054319087840e-11  1.9999999999858105e+02 -1.1688777104598360e-12 -4.4718497821062391e-11  1.9999999999856763e+02 7.6033476384410235e-12 -1.1966500906323423e-10  1.9999999999767445e+02 -3.8884515677722312e-11 -4.3435459113657127e-11  1.9999999999770819e+02 -2.8266369732102105e-11 -2.1440388650867921e-11  1.9999999999947727e+02 -2.4168497327850771e-11 -4.9934639353058148e-12  1.9999999999907450e+02 -6.6666654816930780e-11 -2.4445942514114300e-11  1.9999999999909821e+02 -6.2290565387302218e-11 -1.9363232527366130e-11  1.9999999999953252e+02 -4.2953340314138039e-11 -2.9668315063301466e-11  1.9999999999977692e+02 -8.8038885025334251e-12 -2.0407183377222664e-11  2.0000000000004979e+02 -7.4924716421341292e-11 -3.4386820107399240e-11  1.9999999999858215e+02 -1.5436046601016175e-11 -4.4108245497253641e-12  1.9999999999808128e+02 -5.6254330057726419e-11 -4.3686732138792545e-11  1.9999999999816313e+02 4.2713153448595791e-12 7.6020934826723287e-12  1.9999999999855388e+02 -2.1287393862591474e-11 -8.4361386650716081e-12  1.9999999999768337e+02 -3.9994155461197591e-11 -3.6126493289945397e-11  1.9999999999767496e+02 -1.0965196100387999e-10 -5.0559964663509884e-11  1.9999999999948056e+02 -1.8306964283066464e-11 -3.2735054313919459e-11  1.9999999999910369e+02 -1.0362259815710564e-10 -1.4008834920205174e-11  1.9999999999977902e+02 -4.3284969463451916e-12 -4.0241089840254134e-11  1.9999999999857926e+02 -1.4041477892713354e-11 -1.1205618463565880e-11  1.9999999999810402e+02 -4.7601064072227081e-11 1.3911358015646041e-11  1.9999999999811931e+02 -2.7199762461304971e-11 2.4320459047485854e-11  1.9999999999858329e+02 -3.4601278336996790e-11 -1.0149328307923245e-11  1.9999999999767104e+02 -4.4498801716630296e-11 -1.8811180992883711e-11  1.9999999999767263e+02 -7.5614372143322510e-11 -2.9869048558113871e-11  1.9999999999858514e+02 2.5546002957515210e-11 -6.3822404596947853e-12  1.9999999999810342e+02 1.3528647014343100e-11 -7.0822862411899638e-12  1.9999999999816615e+02 -5.0751292695897170e-11 1.4978569840128885e-11  1.9999999999860816e+02 1.7453028114743801e-10 -7.4180184631761812e-12  1.9999999999766217e+02 -9.8662868250800929e-13 -3.2370789837364909e-11  1.9999999999772686e+02 7.6472483789178669e-11 -6.7187064263097873e-12  1.9999999999912640e+02 9.2319432779924811e-11 3.6695088964349404e-10  1.9999999999897202e+02 -2.5280210592063087e-11 -1.0445856909674719e-10  1.9999999999901732e+02 6.2578867800481454e-12 -1.1285365399987443e-11  1.9999999999949040e+02 -2.4301214337254598e-11 -5.0586342540559000e-11  1.9999999999949637e+02 -9.3684194416761288e-11 -2.6712034845871520e-10  1.9999999999912873e+02 8.4475076581341465e-11 3.7477506895659798e-10  1.9999999999907703e+02 -3.9433449256894485e-11 -4.2909422540210707e-11  1.9999999999909573e+02 8.2505661506944311e-11 9.2052242938376444e-11  1.9999999999906458e+02 1.1573249956373719e-12 1.0483122604572320e-11  1.9999999999947408e+02 2.8803143631422118e-11 2.6486824485527550e-11  2.0000000000029490e+02 9.7600982476995680e-11 3.8370355664454383e-10  1.9999999999952590e+02 -3.6424749572735556e-11 -8.4095433215448050e-11  1.9999999999951456e+02 8.5874450595253754e-12 2.1406361306288650e-11  2.0000000000002061e+02 -2.9415804744859658e-11 2.2684525501215621e-11  2.0000000000028172e+02 8.4085162306780393e-11 5.7436215095279209e-11  1.9999999999951817e+02 -8.2107100663052092e-12 2.3337737773973027e-11  2.0000000000002413e+02 -4.2046693867927365e-12 3.6168645077523647e-11  1.9999999999983234e+02 -1.4157781805597144e-11 -3.2527070210341481e-11  2.0000000000001862e+02 -9.0324539057476271e-12 -1.1099823163764003e-11  1.9999999999861265e+02 -2.3579313588455918e-11 -6.5058825257227120e-11  1.9999999999850525e+02 -9.7723252505157329e-11 -2.8779794535509093e-10  1.9999999999856189e+02 -1.0542846571558945e-10 -1.1376081847683626e-10  1.9999999999857010e+02 -3.1340170933834780e-11 1.3119196147705393e-11  1.9999999999823984e+02 7.2564261417428622e-11 3.7302882997497289e-10  1.9999999999816004e+02 9.8401878575195700e-14 -5.1355205461697782e-11  1.9999999999821154e+02 4.0357411773972189e-11 9.6284186705595766e-11  1.9999999999860623e+02 -1.4611111217577798e-11 2.5729483668591726e-11  1.9999999999857957e+02 -4.3979348528355572e-11 -5.6877607751025819e-11  1.9999999999949787e+02 -3.0543331168207955e-11 -2.8131087424375693e-11  1.9999999999955099e+02 -8.8450862499092627e-11 -2.7834348991437003e-10  1.9999999999903483e+02 -1.0903980152094386e-10 -1.4391053306488388e-10  1.9999999999908934e+02 -3.1393141295881308e-11 -6.6518005193102881e-12  1.9999999999909130e+02 1.0562262587087262e-10 3.7465428350467635e-10  1.9999999999906106e+02 -3.8839826076087144e-11 -3.0043576169081995e-11  1.9999999999907260e+02 8.1878489795549284e-11 8.8613219049439133e-11  1.99999999