<?xml version="1.0"?>
<VTKFile type="UnstructuredGrid"  version="0.1"  >
<UnstructuredGrid>
<Piece  NumberOfPoints="608" NumberOfCells="2483">
<Points>
<DataArray  type="Float64"  NumberOfComponents="3"  format="ascii">5 25 0  5 25 2.5  5 22.5 2.5  2.5 22.5 2.5  5 22.5 0  2.5 22.5 0  5 25 5  5 22.5 5  2.5 22.5 5  0 25 0  2.5 25 2.5  2.5 25 0  0 22.5 0  0 20 5  0 22.5 5  0 22.5 2.5  0 25 5  2.5 25 5  0 25 2.5  10 20 0  10 22.5 2.5  10 22.5 0  7.5 22.5 2.5  7.5 22.5 0  10 25 0  10 25 2.5  10 25 5  10 22.5 5  7.5 22.5 5  7.5 25 2.5  7.5 25 0  7.5 25 5  15 20 0  15 22.5 2.5  15 22.5 0  12.5 22.5 2.5  12.5 22.5 0  15 25 0  15 25 2.5  15 25 5  15 22.5 5  12.5 22.5 5  12.5 25 2.5  12.5 25 0  12.5 25 5  20 25 0  20 25 2.5  20 22.5 2.5  17.5 22.5 2.5  20 22.5 0  17.5 22.5 0  20 25 5  20 22.5 5  17.5 22.5 5  17.5 25 2.5  17.5 25 0  17.5 25 5  25 20 0  25 22.5 2.5  25 22.5 0  22.5 22.5 2.5  22.5 22.5 0  25 25 0  25 25 2.5  25 25 5  25 22.5 5  22.5 22.5 5  22.5 25 2.5  22.5 25 0  22.5 25 5  2.5 27.5 2.5  2.5 27.5 0  5 27.5 2.5  5 27.5 0  5 30 0  5 30 2.5  5 30 5  5 27.5 5  2.5 27.5 5  0 27.5 2.5  0 27.5 5  0 30 5  2.5 30 5  7.5 27.5 2.5  7.5 27.5 0  10 27.5 2.5  10 27.5 0  10 30 0  10 30 2.5  10 30 5  10 27.5 5  7.5 27.5 5  7.5 30 2.5  7.5 30 0  7.5 30 5  12.5 27.5 2.5  12.5 27.5 0  15 27.5 2.5  15 27.5 0  15 30 0  15 30 2.5  15 30 5  15 27.5 5  12.5 27.5 5  12.5 30 2.5  12.5 30 0  12.5 30 5  17.5 27.5 2.5  17.5 27.5 0  20 27.5 2.5  20 27.5 0  20 30 0  20 30 2.5  20 30 5  20 27.5 5  17.5 27.5 5  17.5 30 2.5  17.5 30 0  17.5 30 5  22.5 27.5 2.5  22.5 27.5 0  25 27.5 2.5  25 27.5 0  25 30 0  25 30 2.5  25 30 5  25 27.5 5  22.5 27.5 5  22.5 30 2.5  22.5 30 0  22.5 30 5  17.5 32.5 2.5  17.5 32.5 0  20 32.5 2.5  20 32.5 0  20 35 0  20 35 2.5  20 35 5  20 32.5 5  17.5 32.5 5  22.5 32.5 2.5  22.5 32.5 0  25 32.5 2.5  25 32.5 0  25 35 0  25 35 2.5  25 35 5  25 32.5 5  22.5 32.5 5  22.5 35 2.5  22.5 35 0  22.5 35 5  5 25 7.5  5 22.5 7.5  2.5 22.5 7.5  5 25 10  5 22.5 10  2.5 22.5 10  2.5 25 7.5  0 22.5 7.5  0 20 7.5  0 20 10  0 22.5 10  0 25 10  2.5 25 10  0 25 7.5  10 25 7.5  10 22.5 7.5  7.5 22.5 7.5  10 25 10  10 22.5 10  7.5 22.5 10  7.5 25 7.5  7.5 25 10  15 25 7.5  15 22.5 7.5  12.5 22.5 7.5  15 25 10  15 22.5 10  12.5 22.5 10  12.5 25 7.5  12.5 25 10  20 25 7.5  20 22.5 7.5  17.5 22.5 7.5  20 25 10  20 22.5 10  17.5 22.5 10  17.5 25 7.5  17.5 25 10  25 25 7.5  25 22.5 7.5  22.5 22.5 7.5  25 25 10  25 22.5 10  22.5 22.5 10  22.5 25 7.5  22.5 25 10  2.5 27.5 7.5  5 27.5 7.5  5 30 7.5  5 30 10  5 27.5 10  2.5 27.5 10  2.5 30 7.5  0 27.5 7.5  0 27.5 10  0 30 10  2.5 30 10  0 30 7.5  7.5 27.5 7.5  10 27.5 7.5  10 30 7.5  10 30 10  10 27.5 10  7.5 27.5 10  7.5 30 7.5  7.5 30 10  12.5 27.5 7.5  15 27.5 7.5  15 30 7.5  15 30 10  15 27.5 10  12.5 27.5 10  12.5 30 7.5  12.5 30 10  17.5 27.5 7.5  20 27.5 7.5  20 30 7.5  20 30 10  20 27.5 10  17.5 27.5 10  17.5 30 7.5  17.5 30 10  22.5 27.5 7.5  25 27.5 7.5  25 30 7.5  25 30 10  25 27.5 10  22.5 27.5 10  22.5 30 7.5  22.5 30 10  17.5 32.5 7.5  20 32.5 7.5  20 35 7.5  20 35 10  20 32.5 10  17.5 32.5 10  22.5 32.5 7.5  25 32.5 7.5  25 35 7.5  25 35 10  25 32.5 10  22.5 32.5 10  22.5 35 7.5  22.5 35 10  5 25 12.5  5 22.5 12.5  2.5 22.5 12.5  5 25 15  5 20 15  5 22.5 15  2.5 22.5 15  2.5 25 12.5  0 20 15  0 22.5 15  0 22.5 12.5  0 25 15  2.5 25 15  0 25 12.5  10 25 12.5  10 22.5 12.5  7.5 22.5 12.5  10 25 15  10 22.5 15  7.5 22.5 15  7.5 25 12.5  7.5 25 15  15 25 12.5  15 22.5 12.5  12.5 22.5 12.5  15 25 15  15 20 15  15 22.5 15  12.5 22.5 15  12.5 25 12.5  12.5 25 15  20 25 12.5  20 22.5 12.5  17.5 22.5 12.5  20 25 15  17.5 25 12.5  17.5 22.5 15  17.5 25 15  22.5 22.5 12.5  22.5 25 12.5  2.5 27.5 12.5  5 27.5 12.5  5 30 12.5  5 30 15  5 27.5 15  2.5 27.5 15  2.5 30 12.5  0 27.5 12.5  0 27.5 15  0 30 15  2.5 30 15  0 30 12.5  7.5 27.5 12.5  10 27.5 12.5  10 30 12.5  10 30 15  10 27.5 15  7.5 27.5 15  7.5 30 12.5  7.5 30 15  12.5 27.5 12.5  15 27.5 12.5  15 30 12.5  15 30 15  15 27.5 15  12.5 27.5 15  12.5 30 12.5  12.5 30 15  17.5 27.5 12.5  20 27.5 12.5  20 30 12.5  20 30 15  20 27.5 15  17.5 27.5 15  17.5 30 12.5  17.5 30 15  22.5 27.5 12.5  22.5 30 12.5  22.5 32.5 12.5  5 22.5 17.5  2.5 22.5 17.5  5 25 17.5  5 25 20  5 22.5 20  2.5 22.5 20  2.5 25 17.5  0 22.5 17.5  0 20 17.5  0 20 20  0 22.5 20  0 25 20  2.5 25 20  0 25 17.5  10 25 17.5  10 22.5 17.5  7.5 22.5 17.5  10 25 20  7.5 25 17.5  7.5 25 20  7.5 22.5 20  15 22.5 17.5  12.5 22.5 17.5  15 25 17.5  15 25 20  12.5 25 17.5  12.5 25 20  17.5 22.5 17.5  17.5 25 17.5  2.5 27.5 17.5  5 27.5 17.5  5 30 17.5  5 30 20  5 27.5 20  2.5 27.5 20  2.5 30 17.5  0 27.5 17.5  0 27.5 20  0 30 20  2.5 30 20  0 30 17.5  7.5 27.5 17.5  10 27.5 17.5  10 30 17.5  10 30 20  10 27.5 20  7.5 27.5 20  7.5 30 17.5  7.5 30 20  12.5 27.5 17.5  15 27.5 17.5  15 30 17.5  15 30 20  15 27.5 20  12.5 27.5 20  12.5 30 17.5  12.5 30 20  17.5 27.5 17.5  17.5 30 17.5  17.5 32.5 17.5  5 25 22.5  5 22.5 22.5  2.5 22.5 22.5  5 25 25  2.5 25 22.5  0 22.5 22.5  0 25 22.5  0 25 25  2.5 25 25  7.5 25 22.5  7.5 22.5 22.5  10 25 22.5  10 25 25  7.5 25 25  2.5 27.5 22.5  5 27.5 22.5  2.5 30 22.5  0 27.5 22.5  0 30 22.5  7.5 27.5 22.5  10 27.5 22.5  10 30 22.5  7.5 30 22.5  12.5 27.5 22.5  12.5 25 22.5  12.5 30 22.5  12.5 32.5 22.5  2.5 32.5 7.5  2.5 32.5 10  5 32.5 10  0 32.5 7.5  0 32.5 10  2.5 32.5 12.5  5 32.5 12.5  2.5 32.5 15  0 32.5 12.5  0 32.5 15  7.5 32.5 12.5  7.5 32.5 10  10 32.5 12.5  10 32.5 10  10 35 10  10 35 12.5  10 35 15  10 32.5 15  7.5 32.5 15  12.5 32.5 12.5  12.5 32.5 10  15 32.5 12.5  15 32.5 10  15 35 10  15 35 12.5  15 35 15  15 32.5 15  12.5 32.5 15  12.5 35 12.5  12.5 35 10  12.5 35 15  17.5 32.5 12.5  17.5 32.5 15  20 32.5 15  20 35 15  17.5 35 15  17.5 35 12.5  17.5 37.5 12.5  17.5 37.5 15  2.5 32.5 17.5  5 32.5 17.5  2.5 32.5 20  0 32.5 17.5  7.5 32.5 17.5  10 32.5 17.5  10 32.5 20  7.5 32.5 20  12.5 32.5 17.5  15 32.5 17.5  15 35 17.5  15 35 20  15 32.5 20  12.5 32.5 20  17.5 35 17.5  17.5 37.5 17.5  2.5 32.5 22.5  7.5 32.5 22.5  10 32.5 22.5  0 27.5 0  0 30 0  2.5 30 2.5  2.5 30 0  0 30 2.5  2.5 32.5 2.5  2.5 32.5 0  5 32.5 2.5  5 32.5 5  2.5 32.5 5  0 32.5 0  0 32.5 2.5  0 32.5 5  7.5 32.5 2.5  7.5 32.5 0  10 32.5 2.5  10 32.5 0  10 35 0  10 35 2.5  10 35 5  10 32.5 5  7.5 32.5 5  12.5 32.5 2.5  12.5 32.5 0  15 32.5 2.5  15 32.5 0  15 35 0  15 35 2.5  15 35 5  15 32.5 5  12.5 32.5 5  12.5 35 2.5  12.5 35 0  12.5 35 5  17.5 35 2.5  17.5 35 0  17.5 35 5  12.5 37.5 2.5  12.5 37.5 0  15 37.5 2.5  15 37.5 0  15 40 0  15 37.5 5  12.5 37.5 5  17.5 37.5 2.5  17.5 37.5 0  20 37.5 2.5  20 37.5 0  20 40 0  20 40 2.5  20 40 5  20 37.5 5  17.5 37.5 5  17.5 40 0  22.5 37.5 2.5  22.5 37.5 0  25 37.5 2.5  25 37.5 0  25 40 0  25 40 2.5  25 40 5  25 37.5 5  22.5 37.5 5  22.5 40 2.5  22.5 40 0  22.5 40 5  22.5 42.5 2.5  22.5 42.5 0  22.5 42.5 5  5 32.5 7.5  7.5 32.5 7.5  10 32.5 7.5  10 35 7.5  12.5 32.5 7.5  15 32.5 7.5  15 35 7.5  12.5 35 7.5  17.5 35 7.5  17.5 35 10  12.5 37.5 7.5  15 37.5 7.5  17.5 37.5 7.5  20 37.5 7.5  20 40 7.5  20 40 10  20 37.5 10  17.5 37.5 10  22.5 37.5 7.5  22.5 40 7.5  22.5 42.5 7.5  20 32.5 12.5  20 35 12.5  27.5 22.5 2.5  27.5 22.5 0  27.5 25 2.5  27.5 25 0  27.5 22.5 5  27.5 27.5 2.5  27.5 27.5 0  27.5 30 2.5  27.5 30 0  30 30 0  30 30 2.5  30 30 5  27.5 27.5 5  27.5 30 5  27.5 32.5 2.5  27.5 32.5 0  30 32.5 0  30 35 0  27.5 32.5 5  30 32.5 5  30 35 5  27.5 35 2.5  27.5 35 0  27.5 35 5  27.5 37.5 2.5  27.5 37.5 0  27.5 37.5 5  27.5 22.5 7.5  27.5 27.5 7.5  27.5 30 7.5  30 30 7.5  27.5 32.5 7.5  27.5 35 7.5  27.5 37.5 7.5  27.5 25 7.5  27.5 35 10  </DataArray>
</Points>
<Cells>
[...]
<PointData  Vectors="u"> 
<DataArray  type="Float64"  Name="u"  NumberOfComponents="3" format="ascii">1.9999999999914561e+02 8.9075012993497651e-11 4.1369509923342512e-10  1.9999999999912330e+02 -2.7906244944434208e-11 -7.7956065588073631e-11  1.9999999999899075e+02 -5.0166365512195387e-11 -1.0477575777548998e-10  1.9999999999949534e+02 -3.6647956024794681e-11 -6.7565072138344488e-11  1.9999999999905407e+02 -1.4924695420784830e-11 -8.4153753735451149e-13  1.9999999999948011e+02 -1.1031992374572240e-10 -2.4066594999261634e-10  1.9999999999912768e+02 7.2414287275597398e-11 8.7464892174555576e-11  1.9999999999912848e+02 -3.6979592486242570e-12 -5.3486974827003614e-11  1.9999999999954363e+02 -2.9299272705469856e-11 -4.7794078229952086e-11  2.0000000000029010e+02 7.7758769103320046e-11 3.8995212599764376e-10  1.9999999999955043e+02 -6.0172351047409408e-11 -1.0693230498947106e-10  1.9999999999950646e+02 2.3934717266312495e-11 -2.4371599245695285e-12  2.0000000000001867e+02 -4.4777701948752346e-11 2.2902542508070718e-11  2.0000000000026978e+02 7.6646168709245595e-11 8.0564792987957580e-11  2.0000000000000725e+02 -1.3627760403958620e-11 -2.1221070003084213e-11  1.9999999999988538e+02 -2.8294813543529397e-11 -7.4860927826952207e-11  2.0000000000027649e+02 7.3323662258829188e-11 8.2647124787198464e-11  1.9999999999951066e+02 -2.1801174989160762e-11 3.4042857397669420e-11  1.9999999999998224e+02 -2.5958302814973759e-11 -4.4550332949116536e-11  1.9999999999825900e+02 9.0788040587621556e-11 3.5808998950486329e-10  1.9999999999812690e+02 -5.8803357060548754e-11 -9.7854569962874226e-11  1.9999999999814338e+02 -3.3505363256237066e-12 1.9606696456959654e-11  1.9999999999860131e+02 -2.0226642951643133e-11 -7.2039154166013980e-11  1.9999999999853034e+02 -9.9340613331638577e-11 -2.7538205648725563e-10  1.9999999999827895e+02 8.1234621477174063e-11 3.5736289887662120e-10  1.9999999999818490e+02 1.5929469073085208e-11 -7.3770950380353763e-11  1.9999999999823984e+02 4.9380534741373691e-11 1.0267033085786152e-10  1.9999999999818615e+02 -2.7882067497447640e-13 1.4650875635900848e-11  1.9999999999858235e+02 -3.9393452430726647e-11 -7.7924078684542392e-11  1.9999999999856493e+02 -7.6453988358023757e-11 -1.0724167702502601e-10  1.9999999999862231e+02 -3.6989594377288229e-11 1.8564694596944557e-11  1.9999999999862342e+02 2.1887722595369145e-12 6.3561297975249033e-12  1.9999999999726995e+02 9.9770929438083197e-11 3.4384980405598640e-10  1.9999999999722053e+02 -4.6619045459172877e-11 -1.0565064061488732e-10  1.9999999999723241e+02 -3.7737429634154701e-11 -9.1336153523732278e-12  1.9999999999770390e+02 -1.7110897800547918e-11 -7.8999467694646111e-11  1.9999999999764142e+02 -9.6348939430855824e-11 -2.7107294355352489e-10  1.9999999999731011e+02 7.2160654452427718e-11 3.5748262224534323e-10  1.9999999999725529e+02 -2.2274485685158541e-12 -5.5873409386441935e-11  1.9999999999732705e+02 3.9036403886071561e-11 9.3337440938322868e-11  1.9999999999725929e+02 -2.1584264297184318e-12 3.8097669649970829e-11  1.9999999999768099e+02 -2.6704936851984494e-11 -5.2363828693229540e-13  1.9999999999767294e+02 -8.8584380689274109e-11 -1.3508967912740778e-10  1.9999999999769872e+02 -2.6821236209454174e-11 2.0706602962804440e-11  1.9999999999772595e+02 4.8414133313892417e-11 -4.9142684160343342e-11  1.9999999999646815e+02 8.3382823258919948e-11 3.2963668436572600e-10  1.9999999999641290e+02 1.8528706361747830e-11 -3.7764972389434495e-11  1.9999999999635651e+02 -4.9718544166514963e-11 -1.0415452318427736e-10  1.9999999999681881e+02 -1.8462335478225912e-11 -6.9123713021048471e-11  1.9999999999636503e+02 -1.5237223597678841e-12 -5.5276694316792416e-12  1.9999999999673784e+02 -1.0149365120867289e-10 -2.5838887618347235e-10  1.9999999999645590e+02 5.1302717570022449e-11 9.7519222038550384e-11  1.9999999999640028e+02 -2.0619023008304312e-12 3.2684747442102858e-11  1.9999999999680117e+02 -8.3717717829070956e-12 -1.8430938179692222e-11  1.9999999999679221e+02 -9.5171052271771320e-11 -1.0059863371724777e-10  1.9999999999684459e+02 -2.8225340489569751e-11 1.9516493928763528e-11  1.9999999999683894e+02 5.0097055341930764e-11 -2.8210928338848200e-11  1.9999999999564849e+02 7.4617650975632931e-11 3.5792860675135690e-10  1.9999999999555848e+02 -5.7680648149395863e-11 -9.5688937266997418e-11  1.9999999999554794e+02 1.7682501842196364e-11 1.4299348945680174e-11  1.9999999999597034e+02 -3.0577908624847840e-11 -6.7174288972172752e-11  1.9999999999589679e+02 -8.5132282584010250e-11 -2.6306974413860405e-10  1.9999999999564668e+02 8.1113475462279089e-11 3.4379284935330419e-10  1.9999999999554149e+02 5.9146641913239556e-11 -2.0638646716715882e-11  1.9999999999564562e+02 6.0647701521398800e-11 8.7665821979530729e-11  1.9999999999550474e+02 -1.0930223735058449e-12 2.7795705385035288e-11  1.9999999999596082e+02 6.9184170435808630e-12 -6.4613081666749379e-12  1.9999999999596636e+02 -6.1374086985991390e-11 -1.0387585198788252e-10  1.9999999999597776e+02 -3.0565821633987296e-11 2.1553911386887477e-11  1.9999999999599694e+02 3.2716379470316325e-11 -2.9862188583231993e-11  1.9999999999952442e+02 -2.1974209823691480e-11 -5.5982787790245709e-11  1.9999999999956927e+02 -9.1257749763147453e-11 -2.9085595325929243e-10  1.9999999999907297e+02 -1.1366205859969578e-10 -1.5632819409052300e-10  1.9999999999910875e+02 7.7290737834574335e-12 1.6692440859433450e-11  1.9999999999912640e+02 9.2319432779924811e-11 3.6695088964349404e-10  1.9999999999910099e+02 -3.1915652052666514e-11 -4.8422417195961613e-11  1.9999999999911830e+02 9.2711312533001857e-11 8.5026600851736456e-11  1.9999999999914922e+02 3.1740774114837964e-12 -1.4881241433274585e-11  1.9999999999954167e+02 -6.3479510466308089e-11 -7.2404656040982912e-11  1.9999999999984942e+02 -1.5743173578390836e-11 -5.7236392440206703e-11  2.0000000000001381e+02 -3.2609831341489732e-11 -3.8314209748334456e-11  2.0000000000028442e+02 9.6815406151891007e-11 5.8189831557470613e-11  1.9999999999953840e+02 -2.9004032190905661e-11 4.0512257764278026e-11  1.9999999999858807e+02 -4.1610404978839634e-11 -8.8911427856421844e-11  1.9999999999853605e+02 -1.0382908019889234e-10 -2.4584826603816389e-10  1.9999999999809492e+02 -6.7001615931590034e-11 -1.1781424644398153e-10  1.9999999999816137e+02 -4.0965704293527112e-11 4.2904072478189952e-11  1.9999999999824976e+02 8.8667056007389898e-11 3.6781503808919263e-10  1.9999999999819738e+02 -1.2895468496660262e-11 -3.5104220217879063e-11  1.9999999999822663e+02 8.4090132576249327e-11 8.7996058934012752e-11  1.9999999999818687e+02 -1.0721737879124258e-11 8.6877145703976258e-13  1.9999999999858713e+02 -5.6149062904419225e-11 -8.8991179336291619e-11  1.9999999999856573e+02 -4.6107399363051200e-11 -1.0856473958809840e-10  1.9999999999862169e+02 -1.5872213801597400e-11 9.4893512854779070e-12  1.9999999999862729e+02 -7.7850043738005660e-12 2.8727755469115665e-11  1.9999999999768085e+02 -5.6030594908997124e-11 -9.2850673779313934e-11  1.9999999999761371e+02 -1.3313724618912933e-10 -2.9823604566533575e-10  1.9999999999720359e+02 -5.2746478399066115e-11 -1.0154519732369357e-10  1.9999999999724969e+02 -1.8502826276033816e-11 -6.0339254111417067e-13  1.9999999999732978e+02 7.8234804756996385e-11 3.5944265777620926e-10  1.9999999999728209e+02 -2.6040772704667646e-11 -6.5289508789082614e-11  1.9999999999732606e+02 6.2882199316150992e-11 9.2045547518034347e-11  1.9999999999727333e+02 -1.7129549581072025e-11 1.9466215475971674e-11  1.9999999999767454e+02 -4.7682414792105235e-11 -8.0029390612716659e-11  1.9999999999765114e+02 -4.6163985013942244e-11 -1.1616316707228777e-10  1.9999999999771612e+02 -1.3448944485768583e-11 -7.8016888942528547e-12  1.9999999999770964e+02 -2.8747784609897541e-11 3.3131167830330543e-11  1.9999999999683163e+02 -3.1502490459214639e-11 -9.5546420442875366e-11  1.9999999999675842e+02 -9.6116048486280502e-11 -2.3822532521802596e-10  1.9999999999632485e+02 -3.2176102680853362e-11 -1.0801154989975822e-10  1.9999999999638558e+02 -2.0133589398871851e-12 6.7028636392774512e-12  1.9999999999648062e+02 6.4368552025618246e-11 3.5232917346307909e-10  1.9999999999643211e+02 -1.5097337359372759e-11 -5.9324164445709233e-11  1.9999999999646786e+02 6.1433829262433320e-11 8.9485570374154853e-11  1.9999999999640173e+02 7.3007984900173038e-12 1.1633517269897123e-11  1.9999999999681523e+02 -4.8221827637862381e-11 -5.9610919614068057e-11  1.9999999999679991e+02 -8.8905755543101476e-11 -1.1996383726978568e-10  1.9999999999684223e+02 -5.2030115203377523e-11 3.7320823682389132e-11  1.9999999999685303e+02 -1.1597466120591291e-11 4.0597416218230701e-11  1.9999999999596892e+02 -2.6957785738376639e-11 -7.6731791137514715e-11  1.9999999999587297e+02 -9.7533517863759566e-11 -2.6993839486704616e-10  1.9999999999554228e+02 -6.5152922065070611e-11 -1.0057252250547211e-10  1.9999999999557795e+02 -2.2887667107676907e-11 1.9359404198983915e-11  1.9999999999565608e+02 9.5594777562012346e-11 3.2943390449644423e-10  1.9999999999555919e+02 4.0892524640657288e-11 -2.0403952852873190e-11  1.9999999999563445e+02 5.5620172415982545e-11 7.6513657967061533e-11  1.9999999999556067e+02 5.1388761571511826e-12 1.1182333105160886e-11  1.9999999999595707e+02 -1.9840794519770437e-11 -8.5762064162086143e-11  1.9999999999595559e+02 -7.0054158427798299e-11 -8.7004785530708663e-11  1.9999999999598000e+02 -4.5611535981430242e-12 3.6455602818768881e-11  1.9999999999602628e+02 3.2969940633839327e-11 9.7592505648958870e-12  1.9999999999682117e+02 -1.9198765964443503e-11 -8.7791775928624452e-11  1.9999999999683533e+02 -9.7256759350262695e-11 -2.7691187414389392e-10  1.9999999999635443e+02 -4.7411002895087266e-11 -9.8510850833652180e-11  1.9999999999637822e+02 -2.5252092059148017e-11 1.6377368930895844e-11  1.9999999999647028e+02 8.3568948715902062e-11 3.4743932367495430e-10  1.9999999999646280e+02 -4.2228865249639344e-11 -4.5182066156331213e-11  1.9999999999646420e+02 5.4429333166147171e-11 9.1387648038729236e-11  1.9999999999642745e+02 -4.1277768873612496e-12 3.4986888647466926e-11  1.9999999999683854e+02 -4.0890869299331478e-11 -1.0420294223181246e-10  1.9999999999597813e+02 -4.6853230111795898e-11 -8.7848001147854879e-11  1.9999999999594118e+02 -8.9965052540372473e-11 -2.6455153926150180e-10  1.9999999999551727e+02 -8.1137706629091236e-11 -1.3351248751735493e-10  1.9999999999552915e+02 -1.7838416599333748e-11 3.1833367273862773e-12  1.9999999999564315e+02 5.5621619172553257e-11 3.3427175036357459e-10  1.9999999999556516e+02 -4.0262299414859228e-11 -8.2252934710106019e-11  1.9999999999565111e+02 6.8999187193454627e-11 1.0734691081260950e-10  1.9999999999554234e+02 -3.8263042724696434e-11 1.0804423441626549e-11  1.9999999999594502e+02 -7.2648411721322558e-11 -6.3464490694666654e-11  1.9999999999594087e+02 -7.1383631996066413e-11 -1.1434684916347760e-10  1.9999999999599666e+02 -3.7649054097739994e-11 -1.2863127907229348e-11  1.9999999999597523e+02 -3.3276658823045217e-11 3.7378994587787317e-11  1.9999999999911472e+02 -1.9982780080813563e-11 2.0991381435916201e-11  1.9999999999909170e+02 -7.5836346425844500e-11 -9.6009049963621702e-11  1.9999999999951089e+02 -2.9498709781712768e-11 -2.1052746200691151e-11  1.9999999999914192e+02 6.2296247028133052e-11 6.7970917793977588e-11  1.9999999999913430e+02 2.0287437275897759e-12 1.3149284325703560e-12  1.9999999999952624e+02 -6.8889301591093751e-11 -4.6266914198194240e-11  1.9999999999954383e+02 -7.2387839791271366e-11 -6.4164379584215968e-11  1.9999999999978976e+02 -2.0572627405001752e-11 -1.7527543989653852e-11  1.9999999999999989e+02 -1.4517619251113095e-11 -5.6209652677862586e-12  2.0000000000026935e+02 8.7978629544022568e-11 7.1542719649332896e-11  2.0000000000003550e+02 -1.9930128976858904e-11 -4.6290948212194730e-11  2.0000000000027936e+02 6.6490412301974781e-11 6.5568581517325490e-11  1.9999999999951442e+02 3.0541965673947326e-11 -3.3707906715018920e-11  2.0000000000000318e+02 -3.3207299121539327e-11 -2.0011354632656778e-11  1.9999999999811780e+02 1.6975536700176391e-11 -7.7332447052174879e-12  1.9999999999815759e+02 1.0116854367555023e-11 -3.4818889977777490e-11  1.9999999999862979e+02 -2.3378506921099880e-11 -5.9141795432627491e-12  1.9999999999824257e+02 3.0036763831269256e-11 6.3432664300697117e-11  1.9999999999817820e+02 -9.4670678652619374e-12 -2.4800803005557234e-11  1.9999999999860626e+02 -3.5989831269714843e-12 -1.6186139712443093e-11  1.9999999999859548e+02 -1.3200384830635713e-10 -5.0154371248888034e-11  1.9999999999860711e+02 2.6895923969234841e-11 -6.0040478908734402e-11  1.9999999999725631e+02 1.4868302280334923e-11 -2.3172645333497977e-12  1.9999999999722488e+02 -1.1931128701893479e-11 -3.5089039733577933e-11  1.9999999999770523e+02 -2.1955610091268142e-12 -1.6087899315548897e-11  1.9999999999732947e+02 3.4288527657072737e-11 5.2549504074761153e-11  1.9999999999726296e+02 -1.1001264603067382e-11 -5.5032206523433785e-12  1.9999999999768991e+02 -2.5597702367407497e-11 -4.3176777961214303e-11  1.9999999999761519e+02 -2.4866530509480690e-11 -8.8523899061993765e-11  1.9999999999770640e+02 1.2733160699750153e-11 -3.1459197487112642e-11  1.9999999999639235e+02 9.3092683413309814e-12 -1.5147846420363366e-11  1.9999999999637629e+02 1.4575350722124045e-11 -3.5659426286416574e-11  1.9999999999681052e+02 2.5124213900146019e-11 -2.5507963683943127e-11  1.9999999999647369e+02 5.3411711746095469e-11 3.7379062264338960e-11  1.9999999999644749e+02 9.9012213411382235e-12 -2.8982588475418769e-11  1.9999999999683195e+02 4.2748107640442045e-12 -1.4481515210175089e-11  1.9999999999674927e+02 9.0853868899672206e-12 -8.9053435362220378e-11  1.9999999999682274e+02 -7.5319737137260339e-12 -8.4024969692834348e-12  1.9999999999555220e+02 4.9597081330958637e-11 -2.5024450336278017e-11  1.9999999999550644e+02 9.1995245056096268e-13 -4.2067856111823257e-11  1.9999999999597730e+02 2.2582580113880282e-11 -2.6386636426361418e-11  1.9999999999563880e+02 5.5478981989695112e-11 5.0632306024766295e-11  1.9999999999553330e+02 1.4701170751798944e-11 2.2252361856326538e-11  1.9999999999600499e+02 1.1286391527662062e-11 -4.1371412423857191e-12  1.9999999999590713e+02 8.2465523700342651e-12 -6.5414837851164602e-11  1.9999999999599402e+02 6.0843865634855293e-12 -3.3655908527105134e-12  1.9999999999950484e+02 -4.5735227689753549e-11 -4.6785815317359928e-11  1.9999999999908567e+02 -1.1573433275200917e-10 -1.0399602021868868e-10  1.9999999999912637e+02 9.8251177167259433e-12 -1.6930525154364468e-11  1.9999999999914778e+02 1.1312052315211128e-10 6.7859333573758731e-11  1.9999999999911293e+02 -3.6619463798915766e-11 -2.3405317450375517e-11  1.9999999999952996e+02 -8.4038416856974267e-11 -4.7548954743915078e-11  1.9999999999953727e+02 -6.1716169496581660e-11 -8.0536441575040835e-11  1.9999999999978095e+02 -3.4975555346693210e-11 -1.9401840663968447e-11  2.0000000000002919e+02 -1.9744283222900749e-11 -3.1394881748838221e-11  2.0000000000025864e+02 9.2919581357548301e-11 7.3049327735555433e-11  1.9999999999951859e+02 -2.0664695527615447e-11 3.5690319815172934e-11  2.0000000000001143e+02 -1.7981887200905795e-11 9.2956613889968459e-12  1.9999999999858863e+02 -3.5307726076148668e-11 -2.9629052785085437e-11  1.9999999999810166e+02 -4.9450226945307751e-11 -5.0022169135845646e-11  1.9999999999817726e+02 -3.3391980121190238e-12 7.5943320123186592e-12  1.9999999999822205e+02 8.9396412940417754e-11 4.8351201822614894e-11  1.9999999999816200e+02 8.7057299913873637e-13 6.3860952064064214e-12  1.9999999999859580e+02 -4.9919677265863385e-11 -7.2134464912775898e-11  1.9999999999858812e+02 -2.4969532713685248e-11 -4.9086748861789305e-11  1.9999999999864207e+02 -1.8871990064289838e-11 -2.0312643217908470e-12  1.9999999999768460e+02 -3.6763954295999253e-11 -4.1708261131851279e-11  1.9999999999722118e+02 -2.9086323339446906e-11 -4.6270700232678335e-11  1.9999999999726973e+02 -3.2209535849752737e-11 1.5624650047105706e-11  1.9999999999733978e+02 7.3911577044861306e-11 5.3603342953127253e-11  1.9999999999727737e+02 1.4242487770737270e-11 2.3452726971093522e-11  1.9999999999767664e+02 -4.5064932423940256e-11 -5.9660702478017616e-11  1.9999999999767618e+02 -2.4464504575098320e-11 -6.1107437492051215e-11  1.9999999999772243e+02 -1.7152948351426351e-11 7.8409763266911250e-12  1.9999999999681398e+02 -4.2036761505872335e-11 -4.5686111156025958e-11  1.9999999999634917e+02 -2.1318234241069484e-11 -4.6355161398863778e-11  1.9999999999642174e+02 -9.9612643943899012e-12 -8.3931005080619568e-12  1.9999999999646420e+02 5.6995068516821716e-11 6.0471222674079918e-11  1.9999999999642253e+02 2.3908819312153404e-11 -1.2362772209684617e-12  1.9999999999679852e+02 -2.5183513287788629e-11 -6.4070495755402493e-11  1.9999999999680145e+02 -5.2149155959241179e-11 -4.7404303692419031e-11  1.9999999999683723e+02 -6.6716363093559708e-13 2.7942532573428523e-11  1.9999999999597119e+02 -3.7503181954153710e-11 -1.5357255755906774e-11  1.9999999999554058e+02 -3.3640260329965333e-11 -5.1781527826349364e-11  1.9999999999554603e+02 2.2950703739801098e-12 -4.9697867272483488e-11  1.9999999999563002e+02 5.0185241278432861e-11 5.3658723968715841e-11  1.9999999999554120e+02 7.2577252577605581e-12 5.4917597327661210e-13  1.9999999999596130e+02 -3.6747497426640921e-11 -7.4857152769750249e-11  1.9999999999596076e+02 -6.0549773803584903e-11 -6.3527051981524136e-11  1.9999999999599032e+02 3.6919325329204408e-12 1.0800851032560271e-11  1.9999999999682439e+02 -4.0368052706571416e-11 -4.2759583472837235e-11  1.9999999999633874e+02 -3.8503577815452425e-11 -5.4785554973979817e-11  1.9999999999647102e+02 -1.4269043986999723e-11 7.8602400508159156e-12  1.9999999999646175e+02 5.7800359929626541e-11 5.6264398966672371e-11  1.9999999999641059e+02 2.2741435865572963e-12 -7.7423258436784053e-12  1.9999999999684121e+02 -4.0954115696843762e-11 -7.8496917137964948e-11  1.9999999999595511e+02 -3.5914659441936690e-11 -4.4051763078261951e-11  1.9999999999553353e+02 -6.1717168489034065e-11 -4.7098517999039748e-11  1.9999999999556451e+02 4.1091775441312483e-12 -4.7374535740146330e-13  1.9999999999563221e+02 6.4664215141002108e-11 5.5057064049758772e-11  1.9999999999555436e+02 1.9705877982734115e-11 1.3001979436422878e-11  1.9999999999595479e+02 -3.8101895252997990e-11 -7.6089765622243132e-11  1.9999999999594854e+02 -4.9116063118603001e-11 -3.5829097541835958e-11  1.9999999999599004e+02 -1.1718567289713758e-11 -1.7152928397577938e-12  1.9999999999911037e+02 3.3915250927103567e-11 -4.1701509828430095e-11  1.9999999999912123e+02 -7.4954530950417684e-12 -1.1334766503520743e-10  1.9999999999952354e+02 -1.3130933681925110e-11 -4.6954300001200359e-11  1.9999999999911137e+02 5.5530840416228096e-11 7.0630600970877036e-11  1.9999999999911353e+02 8.4680550402305682e-11 5.1936388417109675e-11  1.9999999999915207e+02 2.7349154841271545e-11 -2.1908841115153559e-11  1.9999999999954593e+02 -7.3434157928162228e-11 -5.0373204466875806e-11  1.9999999999952809e+02 -6.2539782919514353e-11 -7.6427195614143352e-11  2.0000000000028058e+02 9.1159070888264286e-11 6.2636454667692692e-11  1.9999999999999784e+02 -2.4345876473281975e-11 -2.9397361391061000e-11  1.9999999999981600e+02 -4.6137785301750029e-11 -3.5974535613582300e-11  2.0000000000025474e+02 7.6891397559357732e-11 9.2343453320759973e-11  1.9999999999952379e+02 3.1301524637869355e-11 -1.4218406333960972e-11  2.0000000000002885e+02 -2.3503892435516690e-11 -4.3064628602220238e-11  1.9999999999815719e+02 2.6174365117967230e-11 -3.3971151722868974e-11  1.9999999999814901e+02 -2.1273791012754739e-11 -5.9221732599232456e-11  1.9999999999858855e+02 4.8170095615527227e-12 -3.7385434565054696e-11  1.9999999999825226e+02 5.9520159432980531e-11 4.6727163873822536e-11  1.9999999999823430e+02 -3.0008249462979599e-11 1.4840370724084677e-11  1.9999999999863994e+02 -1.0941742427139719e-11 -3.4666752899052475e-11  1.9999999999855331e+02 -5.0597432196112263e-12 -1.1022168235950003e-10  1.9999999999862158e+02 2.4345151337048199e-12 -3.1984841456997060e-11  1.9999999999727009e+02 2.4285756795960240e-12 -2.6136628759211577e-12  1.9999999999724