<?xml version="1.0"?>
<VTKFile type="UnstructuredGrid"  version="0.1"  >
<UnstructuredGrid>
<Piece  NumberOfPoints="581" NumberOfCells="2286">
<Points>
<DataArray  type="Float64"  NumberOfComponents="3"  format="ascii">40 30 25  40 27.5 25  40 27.5 22.5  37.5 27.5 22.5  37.5 27.5 25  35 30 25  37.5 30 25  40 30 27.5  40 27.5 27.5  37.5 27.5 27.5  40 30 30  40 27.5 30  40 30 32.5  40 27.5 32.5  37.5 27.5 32.5  40 30 35  40 27.5 35  37.5 27.5 35  37.5 30 32.5  37.5 30 35  40 32.5 32.5  40 32.5 30  37.5 32.5 32.5  40 35 30  40 35 32.5  40 35 35  40 32.5 35  37.5 32.5 35  45 30 25  45 27.5 25  42.5 27.5 25  42.5 27.5 22.5  42.5 30 25  45 30 27.5  45 27.5 27.5  42.5 27.5 27.5  45 30 30  45 27.5 30  42.5 27.5 30  42.5 30 27.5  42.5 30 30  47.5 30 30  47.5 27.5 30  47.5 27.5 27.5  50 30 30  47.5 30 27.5  42.5 32.5 27.5  45 32.5 27.5  45 32.5 30  45 35 30  42.5 32.5 30  40 32.5 27.5  42.5 35 30  47.5 32.5 27.5  47.5 30 25  50 30 25  50 32.5 27.5  50 30 27.5  50 32.5 30  50 35 30  47.5 32.5 30  47.5 35 30  45 30 32.5  45 27.5 32.5  42.5 27.5 32.5  45 30 35  45 27.5 35  42.5 27.5 35  42.5 30 32.5  42.5 30 35  50 30 32.5  50 27.5 32.5  47.5 27.5 32.5  50 27.5 30  50 30 35  47.5 30 32.5  47.5 30 35  47.5 27.5 35  42.5 32.5 32.5  45 32.5 32.5  45 35 32.5  45 35 35  45 32.5 35  42.5 32.5 35  42.5 35 32.5  42.5 35 35  47.5 32.5 32.5  50 32.5 32.5  50 35 32.5  50 35 35  50 32.5 35  47.5 32.5 35  47.5 35 32.5  47.5 35 35  42.5 37.5 32.5  45 37.5 32.5  45 37.5 35  45 40 35  42.5 37.5 35  40 37.5 35  40 40 35  42.5 40 35  47.5 37.5 32.5  50 37.5 32.5  50 37.5 35  50 40 35  47.5 37.5 35  47.5 40 35  40 30 37.5  40 27.5 37.5  37.5 27.5 37.5  40 30 40  40 27.5 40  37.5 30 37.5  45 30 37.5  45 27.5 37.5  42.5 27.5 37.5  45 30 40  45 27.5 40  42.5 27.5 40  42.5 30 37.5  42.5 30 40  50 30 37.5  50 27.5 37.5  47.5 27.5 37.5  50 30 40  47.5 30 37.5  47.5 30 40  47.5 27.5 40  40 32.5 37.5  37.5 32.5 37.5  40 35 37.5  40 35 40  40 32.5 40  37.5 32.5 40  42.5 32.5 37.5  45 32.5 37.5  45 35 37.5  45 35 40  45 32.5 40  42.5 32.5 40  42.5 35 37.5  42.5 35 40  47.5 32.5 37.5  50 32.5 37.5  50 35 37.5  50 35 40  50 32.5 40  47.5 32.5 40  47.5 35 37.5  47.5 35 40  42.5 37.5 37.5  45 37.5 37.5  45 40 37.5  45 40 40  45 37.5 40  42.5 37.5 40  42.5 40 37.5  40 37.5 40  40 40 40  42.5 40 40  40 40 37.5  47.5 37.5 37.5  50 37.5 37.5  50 40 37.5  50 40 40  50 37.5 40  47.5 37.5 40  47.5 40 37.5  47.5 40 40  40 42.5 37.5  40 42.5 35  37.5 42.5 37.5  40 45 35  40 45 37.5  40 45 40  40 42.5 40  42.5 42.5 37.5  42.5 42.5 35  45 42.5 37.5  45 42.5 35  45 45 35  45 45 37.5  45 45 40  45 42.5 40  42.5 42.5 40  42.5 45 37.5  42.5 45 35  42.5 45 40  47.5 42.5 37.5  47.5 42.5 35  50 42.5 37.5  50 42.5 35  50 45 35  50 45 37.5  50 45 40  50 42.5 40  47.5 42.5 40  47.5 45 37.5  47.5 45 35  47.5 45 40  42.5 47.5 37.5  42.5 47.5 35  45 47.5 37.5  45 47.5 35  45 50 35  45 50 37.5  45 50 40  45 47.5 40  42.5 47.5 40  40 47.5 35  40 50 35  42.5 50 37.5  42.5 50 35  40 47.5 37.5  40 47.5 40  40 50 40  42.5 50 40  40 50 37.5  47.5 47.5 37.5  47.5 47.5 35  50 47.5 37.5  50 47.5 35  50 50 35  50 50 37.5  50 50 40  50 47.5 40  47.5 47.5 40  47.5 50 37.5  47.5 50 35  47.5 50 40  45 30 42.5  45 27.5 42.5  42.5 27.5 42.5  45 30 45  45 27.5 45  42.5 27.5 45  42.5 30 42.5  40 30 45  42.5 30 45  40 27.5 45  40 30 42.5  47.5 30 42.5  47.5 27.5 42.5  50 30 42.5  50 30 45  47.5 30 45  47.5 27.5 45  40 32.5 42.5  37.5 32.5 42.5  40 35 42.5  40 35 45  40 32.5 45  37.5 32.5 45  37.5 35 42.5  42.5 32.5 42.5  45 32.5 42.5  45 35 42.5  45 35 45  45 32.5 45  42.5 32.5 45  42.5 35 42.5  42.5 35 45  47.5 32.5 42.5  50 32.5 42.5  50 35 42.5  50 35 45  50 32.5 45  47.5 32.5 45  47.5 35 42.5  47.5 35 45  40 37.5 42.5  37.5 37.5 42.5  40 40 42.5  40 40 45  40 37.5 45  42.5 37.5 42.5  45 37.5 42.5  45 40 42.5  45 40 45  45 37.5 45  42.5 37.5 45  42.5 40 42.5  42.5 40 45  47.5 37.5 42.5  50 37.5 42.5  50 40 42.5  50 40 45  50 37.5 45  47.5 37.5 45  47.5 40 42.5  47.5 40 45  42.5 42.5 42.5  45 42.5 42.5  45 45 42.5  45 45 45  45 42.5 45  42.5 42.5 45  42.5 45 42.5  40 42.5 45  40 45 45  42.5 45 45  40 45 42.5  47.5 42.5 42.5  50 42.5 42.5  50 45 42.5  50 45 45  50 42.5 45  47.5 42.5 45  47.5 45 42.5  47.5 45 45  40 47.5 42.5  37.5 47.5 42.5  40 50 42.5  40 50 45  40 47.5 45  42.5 47.5 42.5  45 47.5 42.5  45 50 42.5  45 50 45  45 47.5 45  42.5 47.5 45  42.5 50 42.5  42.5 50 45  47.5 47.5 42.5  50 47.5 42.5  50 50 42.5  50 50 45  50 47.5 45  47.5 47.5 45  47.5 50 42.5  47.5 50 45  40 30 47.5  40 27.5 47.5  37.5 27.5 47.5  40 30 50  40 25 50  40 27.5 50  37.5 27.5 50  37.5 30 47.5  45 30 47.5  45 27.5 47.5  42.5 27.5 47.5  45 30 50  45 27.5 50  42.5 27.5 50  42.5 30 47.5  42.5 30 50  47.5 30 47.5  47.5 27.5 47.5  50 30 47.5  50 30 50  47.5 30 50  47.5 27.5 50  40 32.5 47.5  37.5 32.5 47.5  40 35 47.5  40 35 50  40 32.5 50  42.5 32.5 47.5  45 32.5 47.5  45 35 47.5  45 35 50  45 32.5 50  42.5 32.5 50  42.5 35 47.5  42.5 35 50  47.5 32.5 47.5  50 32.5 47.5  50 35 47.5  50 35 50  50 32.5 50  47.5 32.5 50  47.5 35 47.5  47.5 35 50  42.5 37.5 47.5  45 37.5 47.5  45 40 47.5  45 40 50  45 37.5 50  42.5 37.5 50  42.5 40 47.5  42.5 40 50  47.5 37.5 47.5  50 37.5 47.5  50 40 47.5  50 40 50  50 37.5 50  47.5 37.5 50  47.5 40 47.5  47.5 40 50  42.5 42.5 47.5  45 42.5 47.5  45 45 47.5  45 45 50  45 42.5 50  42.5 42.5 50  42.5 45 47.5  42.5 45 50  47.5 42.5 47.5  50 42.5 47.5  50 45 47.5  50 45 50  50 42.5 50  47.5 42.5 50  47.5 45 47.5  47.5 45 50  42.5 47.5 47.5  45 47.5 47.5  45 50 47.5  45 50 50  45 47.5 50  42.5 47.5 50  42.5 50 47.5  42.5 50 50  47.5 47.5 47.5  50 47.5 47.5  50 50 47.5  50 50 50  50 47.5 50  47.5 47.5 50  47.5 50 47.5  47.5 50 50  45 27.5 22.5  50 27.5 25  50 27.5 22.5  47.5 27.5 22.5  47.5 27.5 25  50 27.5 27.5  50 27.5 40  50 27.5 42.5  50 27.5 45  50 27.5 47.5  50 27.5 50  42.5 40 32.5  42.5 42.5 32.5  40 45 30  42.5 45 32.5  40 45 32.5  42.5 47.5 32.5  40 47.5 32.5  40 47.5 30  40 50 30  42.5 50 32.5  40 50 32.5  40 30 22.5  37.5 30 22.5  45 30 22.5  42.5 30 22.5  50 30 22.5  47.5 30 22.5  40 35 25  40 35 22.5  40 32.5 22.5  37.5 32.5 22.5  40 32.5 25  45 35 25  45 35 22.5  45 32.5 22.5  42.5 32.5 22.5  45 32.5 25  42.5 32.5 25  42.5 35 22.5  42.5 35 25  50 35 25  50 35 22.5  50 32.5 22.5  47.5 32.5 22.5  50 32.5 25  47.5 32.5 25  47.5 35 22.5  47.5 35 25  45 40 25  45 40 22.5  45 37.5 22.5  42.5 37.5 22.5  45 37.5 25  42.5 37.5 25  42.5 40 22.5  42.5 40 25  50 37.5 25  50 37.5 22.5  47.5 37.5 22.5  50 40 25  47.5 37.5 25  47.5 40 25  47.5 40 22.5  45 42.5 25  45 42.5 22.5  42.5 42.5 22.5  45 45 25  42.5 42.5 25  47.5 42.5 25  47.5 42.5 22.5  50 42.5 25  50 45 25  47.5 45 25  45 50 25  45 50 22.5  45 47.5 22.5  42.5 47.5 22.5  45 47.5 25  42.5 47.5 25  42.5 50 22.5  42.5 50 25  50 50 25  50 50 22.5  50 47.5 22.5  47.5 47.5 22.5  50 47.5 25  47.5 47.5 25  47.5 50 22.5  47.5 50 25  45 35 27.5  42.5 35 27.5  40 35 27.5  50 35 27.5  47.5 35 27.5  42.5 37.5 27.5  45 37.5 27.5  45 40 27.5  45 40 30  45 37.5 30  42.5 37.5 30  42.5 40 27.5  42.5 40 30  47.5 37.5 27.5  50 37.5 27.5  50 40 27.5  50 40 30  50 37.5 30  47.5 37.5 30  47.5 40 27.5  47.5 40 30  45 42.5 27.5  42.5 42.5 27.5  45 45 27.5  45 45 30  45 42.5 30  42.5 42.5 30  42.5 45 27.5  42.5 45 30  47.5 42.5 27.5  50 42.5 27.5  50 45 27.5  50 45 30  50 42.5 30  47.5 42.5 30  47.5 45 27.5  47.5 45 30  45 47.5 27.5  42.5 47.5 27.5  45 50 27.5  45 50 30  45 47.5 30  42.5 47.5 30  42.5 50 27.5  42.5 50 30  47.5 47.5 27.5  50 47.5 27.5  50 50 27.5  50 50 30  50 47.5 30  47.5 47.5 30  47.5 50 27.5  47.5 50 30  45 40 32.5  50 40 32.5  47.5 40 32.5  45 42.5 32.5  45 45 32.5  47.5 42.5 32.5  50 42.5 32.5  50 45 32.5  47.5 45 32.5  45 47.5 32.5  45 50 32.5  47.5 47.5 32.5  50 47.5 32.5  50 50 32.5  47.5 50 32.5  </DataArray>
</Points>
<Cells>
[...]
<PointData  Vectors="u"> 
<DataArray  type="Float64"  Name="u"  NumberOfComponents="3" format="ascii">1.9999999999314747e+02 4.3094483392337613e-11 3.2854624673639963e-11  1.9999999999310685e+02 -1.3859442985140499e-11 2.7684286295179273e-11  1.9999999999303040e+02 -4.0116161664459788e-11 -1.9836474167088092e-11  1.9999999999347227e+02 -3.3615544861990340e-11 -1.8543456897623727e-11  1.9999999999346051e+02 -3.2498167416798448e-11 -7.5707358900915275e-11  1.9999999999398315e+02 6.4680213075292193e-11 4.0953821002532944e-11  1.9999999999349768e+02 -3.2807067972121495e-11 1.5474408610171454e-11  1.9999999999309338e+02 -3.1524293160989505e-11 -2.4844650314603332e-11  1.9999999999304387e+02 -5.4988508689441897e-11 -8.6387087814588019e-11  1.9999999999350254e+02 -5.7402080143298639e-11 -2.8979320548642099e-11  1.9999999999316495e+02 4.9561400102664289e-11 5.5918795993526810e-11  1.9999999999306638e+02 -1.3152670049337496e-11 7.0839003130463507e-12  1.9999999999309784e+02 2.0963704668215359e-11 -2.1962740783593283e-11  1.9999999999303790e+02 -6.7114518226367551e-11 -6.7068338633218925e-11  1.9999999999347511e+02 -5.6424355903650782e-11 -2.7916377661473515e-11  1.9999999999316222e+02 5.8379882905694974e-11 6.2158474162915709e-11  1.9999999999306019e+02 -7.6686959607756894e-12 -5.7076298712707217e-11  1.9999999999342648e+02 -5.5718769378201836e-11 -6.5710928331628370e-11  1.9999999999345465e+02 -7.2439049061102964e-11 -5.9615730447311320e-11  1.9999999999348978e+02 -6.0182188652286842e-12 -9.7419420984957850e-12  1.9999999999306280e+02 -7.2886161729706328e-11 -5.0424904070862055e-11  1.9999999999307886e+02 -1.4036077358124311e-11 8.4023781089674078e-12  1.9999999999347162e+02 -4.9113693292734390e-11 -4.8651592813980280e-11  1.9999999999314065e+02 4.6225139237668471e-11 2.9258585374002032e-11  1.9999999999309927e+02 -3.0526216436320665e-12 -8.3855520158699196e-12  1.9999999999314625e+02 4.4818395534953836e-11 6.3459565633047353e-11  1.9999999999307735e+02 -1.7664796963925529e-11 -2.6413317175422410e-11  1.9999999999345701e+02 -4.7612363704953734e-11 -4.8081137612901544e-11  1.9999999999238850e+02 3.0692921867044009e-11 -2.8729191667810508e-12  1.9999999999233137e+02 1.7431129529185918e-11 -3.3277555404871446e-11  1.9999999999264435e+02 -4.6241352855068915e-11 -8.0832012631616832e-11  1.9999999999270634e+02 -2.9993637119208453e-11 -2.1227092519675692e-11  1.9999999999273592e+02 -4.8687290274589172e-11 2.0692684663613547e-11  1.9999999999237062e+02 -5.0788608289387390e-11 9.8630120112809284e-12  1.9999999999225091e+02 -1.3029541430770272e-11 -4.1090578056451808e-11  1.9999999999265580e+02 -2.4317984835446453e-11 -2.8489556938209226e-11  1.9999999999236846e+02 4.5713000975403271e-11 5.2693452273880583e-11  1.9999999999240143e+02 2.0282736034065760e-12 -2.3614149395996540e-11  1.9999999999269608e+02 -1.8576196193419843e-11 -4.1152628731737767e-11  1.9999999999270258e+02 -2.0120778460800038e-11 -4.4110689171603666e-11  1.9999999999272327e+02 3.7341785061710344e-12 -4.8909238125190052e-11  1.9999999999201830e+02 3.3772642076475494e-11 -4.8494031728121436e-11  1.9999999999199193e+02 2.5386969781675847e-11 -6.0310674757645133e-11  1.9999999999198647e+02 -3.4633727411282886e-11 -2.2923062148346019e-11  1.9999999999159149e+02 1.4029901405233703e-11 1.3669732849509218e-11  1.9999999999200224e+02 -1.2054233020426250e-10 -6.5392084537936557e-12  1.9999999999271844e+02 -5.1928231546844555e-11 2.0918021388124671e-11  1.9999999999238497e+02 -8.4722619932618959e-11 7.2764122990615052e-12  1.9999999999237517e+02 -1.8107119372584521e-11 -5.2016496780902570e-11  1.9999999999237096e+02 4.7399369297871697e-11 2.5442974292349820e-11  1.9999999999270989e+02 -6.6888395785748233e-11 -5.8573249522569949e-11  1.9999999999302787e+02 -5.3752357801685638e-11 -4.4484750669118021e-12  1.9999999999273518e+02 -5.1385577639284994e-11 1.8389720259251927e-11  1.9999999999196467e+02 -3.2819653693555210e-11 -1.4242676255269862e-11  1.9999999999200008e+02 -1.1461349847849714e-12 8.1705813307779005e-11  1.9999999999159837e+02 1.3050058369346187e-11 4.1314158353442104e-12  1.9999999999151547e+02 -7.8452272680784751e-12 -5.1052973639624753e-13  1.9999999999152291e+02 7.1271798374496032e-12 2.4007450675361767e-13  1.9999999999148537e+02 -5.9248012021185693e-12 5.3167363713929097e-13  1.9999999999157100e+02 1.7914371723764511e-11 4.2250834810396394e-13  1.9999999999197610e+02 -4.7845680864505957e-11 -6.8322888147551240e-11  1.9999999999200645e+02 -3.8333495688903808e-11 1.0220737576362300e-11  1.9999999999236812e+02 2.9418897545384732e-11 -2.8166394553957874e-11  1.9999999999237227e+02 8.6387811825571948e-11 -9.6477873049063526e-11  1.9999999999272049e+02 -1.0318193462358399e-11 -2.1227753255047803e-11  1.9999999999235885e+02 2.0830019203869078e-11 6.1326456403304890e-11  1.9999999999237443e+02 4.5995440961656664e-12 -2.9261495919332146e-11  1.9999999999272893e+02 -1.4934026751592788e-11 -4.9569564542782880e-11  1.9999999999269170e+02 7.3760666587696103e-13 -5.3342441646427690e-11  1.9999999999271142e+02 -1.2782238540736953e-11 -7.3078789316473344e-11  1.9999999999149048e+02 1.4366651629383282e-12 -3.4988099773341374e-12  1.9999999999145930e+02 -7.0031949976033421e-12 -6.0792387462548541e-12  1.9999999999197573e+02 5.9309988677684226e-12 -3.4832471774200517e-11  1.9999999999149753e+02 -9.4007112540735670e-12 1.3347665261389130e-12  1.9999999999158675e+02 4.4205450701110142e-12 2.1461475745143761e-11  1.9999999999194597e+02 5.7976679517702472e-12 -8.5806053366690860e-11  1.9999999999199056e+02 1.5961047848771977e-11 -4.4643534016371454e-11  1.9999999999197456e+02 3.0392831533492421e-11 -8.7203666729332542e-11  1.9999999999271353e+02 -4.6334951851001874e-11 -1.6712327301196170e-11  1.9999999999236724e+02 -9.0827311340982942e-11 -1.0046838968292754e-10  1.9999999999235919e+02 -5.2308905351795655e-11 4.1390069204220472e-13  1.9999999999234737e+02 5.4981290306804632e-11 5.5806972936363700e-11  1.9999999999236383e+02 4.6201639819519315e-12 -3.6237025473085735e-11  1.9999999999270213e+02 -4.7779262594531059e-11 -2.3593286891584536e-11  1.9999999999270759e+02 -3.0153713607027434e-11 -3.0020470686429398e-11  1.9999999999273396e+02 -2.4128779635256278e-12 -9.4829014449568433e-12  1.9999999999195953e+02 -5.0115519772156043e-11 -4.3820240202421429e-11  1.9999999999148741e+02 1.0214558763810023e-12 -2.2413224365132759e-12  1.9999999999150970e+02 2.9190378011470305e-12 8.7525337095966710e-12  1.9999999999156287e+02 1.5656624814809661e-11 1.5916224496604246e-11  1.9999999999149412e+02 2.0645141847555305e-13 2.3028761314980039e-12  1.9999999999196731e+02 -3.6163397344321307e-11 -7.2532801696715905e-11  1.9999999999196905e+02 -8.2317048245997538e-11 -5.2722310944456414e-11  1.9999999999197431e+02 5.1763873463836475e-12 1.1305519640448097e-11  1.9999999999272202e+02 -4.4875824206047638e-11 8.6081886753389893e-12  1.9999999999235544e+02 -1.0155838027185709e-10 -1.0655899242543437e-11  1.9999999999234345e+02 -5.8728306282897054e-11 -3.9964073550996996e-11  1.9999999999233475e+02 5.6104350315312024e-11 2.9655865762898418e-11  1.9999999999270844e+02 -6.2833705912981619e-11 -2.2423570882964931e-11  1.9999999999307761e+02 -2.9122980877313978e-12 -2.2010661203492809e-11  1.9999999999312803e+02 5.9476245707086416e-11 2.2980375580416462e-11  1.9999999999273984e+02 -4.8071024192364572e-11 1.9340037561935372e-11  1.9999999999195592e+02 -3.7903690707298597e-11 -1.7515022373032213e-11  1.9999999999146766e+02 -5.2598746107578329e-12 4.6652940100392149e-13  1.9999999999145626e+02 -6.6359713595170999e-12 1.6314072424112236e-13  1.9999999999156873e+02 1.6421452415741597e-11 8.0201788363867704e-12  1.9999999999197917e+02 -6.4193053278334823e-11 -7.4416077513342902e-11  1.9999999999198508e+02 -5.9243393152755335e-11 2.5536919109147757e-11  1.9999999999314230e+02 -1.6886394686187630e-11 -4.3409666621126448e-11  1.9999999999310043e+02 -3.8588616083421905e-12 -1.0318181666673877e-10  1.9999999999349808e+02 -8.6092211517810291e-12 -2.4190425972089666e-11  1.9999999999310700e+02 3.7648391443388417e-11 5.7313726878703372e-11  1.9999999999311669e+02 3.7699817076659571e-12 -2.1353145679606640e-11  1.9999999999351337e+02 2.1228977844209786e-12 -4.4693371297198114e-11  1.9999999999235067e+02 2.9439905367713494e-11 -3.9825575537344647e-11  1.9999999999234282e+02 8.3239580969063560e-11 -1.2234711789128275e-10  1.9999999999275036e+02 -2.5738496149651197e-11 -5.6320933062948950e-11  1.9999999999237656e+02 1.9628434556753701e-11 4.9944849869094260e-11  1.9999999999233347e+02 1.4135543086641626e-11 1.8572636673193671e-11  1.9999999999269048e+02 2.5568565019348776e-11 -6.6459398879447309e-11  1.9999999999271597e+02 -1.8527609838536667e-11 -7.5268839337581931e-11  1.9999999999270460e+02 1.1289780297248165e-11 -8.0275438488054407e-11  1.9999999999148042e+02 3.4424486084244522e-12 -7.3133493652772227e-12  1.9999999999145675e+02 3.2863828954391329e-12 -8.0517232482237817e-12  1.9999999999196959e+02 6.3060049022147135e-12 -5.5910433026978956e-11  1.9999999999158439e+02 9.8825222710559611e-12 2.2585860186843357e-11  1.9999999999194426e+02 9.0744973625387873e-12 -9.3366905865494313e-11  1.9999999999198960e+02 2.1021567095833009e-11 -4.0097004048032742e-11  1.9999999999197527e+02 2.2338727851134076e-11 -6.5384442737200749e-11  1.9999999999308039e+02 -9.1534304620692223e-11 -1.0909254103296162e-10  1.9999999999351874e+02 1.4318772446519344e-12 2.0553282821840639e-11  1.9999999999314983e+02 -2.6241873205046487e-11 -1.4037624272925016e-11  1.9999999999309819e+02 4.5035122687629978e-11 3.7214198311022379e-11  1.9999999999314014e+02 -1.7389285441877122e-11 -5.3563919317475881e-11  1.9999999999349626e+02 -2.4364997316060978e-11 -2.6144064171594996e-11  1.9999999999272845e+02 -3.1351711656895563e-11 -5.7813544220671065e-11  1.9999999999235098e+02 -6.0856317599563563e-11 -1.0472865253166537e-10  1.9999999999236172e+02 -3.2418295083606170e-11 -7.7821314177486598e-12  1.9999999999236334e+02 5.4180877055304032e-11 2.8292674603229985e-11  1.9999999999234160e+02 3.8382641815383444e-12 -1.8207095862638828e-11  1.9999999999267965e+02 -2.1949237606099257e-11 -9.5040731508107341e-11  1.9999999999272211e+02 -2.5103392476384348e-11 -6.8371070413274248e-11  1.9999999999273282e+02 -1.1598495601640572e-11 -4.1051506688926071e-11  1.9999999999195197e+02 -3.2266620584013697e-11 -4.0336545756964051e-11  1.9999999999145481e+02 5.1887318001483368e-12 -1.0962757217294998e-11  1.9999999999144336e+02 -6.3165992689262013e-12 -2.7032869419064086e-12  1.9999999999155099e+02 1.3137500448586600e-11 6.6051019208132109e-12  1.9999999999147369e+02 -4.3566232590415873e-12 -2.2399364655295298e-12  1.9999999999195322e+02 -3.2028497157715396e-11 -8.1279149538089967e-11  1.9999999999196203e+02 -7.4754899222551979e-11 -6.2670303553265519e-11  1.9999999999197067e+02 6.6202332098287979e-13 -1.7249979894579212e-12  1.9999999999272865e+02 -5.5927826209980044e-11 -5.6418005715246405e-11  1.9999999999236169e+02 -1.0736588754821874e-10 -8.4511061775505618e-11  1.9999999999234998e+02 -4.9784151826316752e-11 -2.3168163689543163e-11  1.9999999999235607e+02 3.2655338593297825e-11 4.1178474813965147e-11  1.9999999999233449e+02 -3.8764721105320735e-11 -2.8592162548138166e-12  1.9999999999270335e+02 -6.8588394433709972e-11 -1.0792049603480947e-10  1.9999999999271830e+02 -4.2001480208704601e-11 -5.5529539166856605e-11  1.9999999999312723e+02 -2.2449444613935027e-11 -5.8533973928141538e-11  1.9999999999309179e+02 5.6662908154882125e-11 4.3078139508943357e-11  1.9999999999273419e+02 -4.8773618933919643e-12 -3.7353282620469173e-11  1.9999999999313775e+02 -3.2764518901880931e-11 -2.6790526878479958e-12  1.9999999999193068e+02 -5.9836859729335033e-11 -3.9932779590753478e-11  1.9999999999144509e+02 4.5703806283192683e-12 -2.2255372844954557e-12  1.9999999999147639e+02 -2.9130357269186372e-12 -4.7345647106944738e-12  1.9999999999154952e+02 1.1648258258294496e-11 8.7992816180185627e-12  1.9999999999145857e+02 -6.3801466561252923e-12 -2.1545783867869547e-12  1.9999999999194171e+02 -5.4782910441246434e-11 -8.7925858406008641e-11  1.9999999999196021e+02 -9.3389783349244351e-11 -4.4959595370838702e-11  1.9999999999197996e+02 -1.5303512582740870e-11 -1.8795447267359417e-12  1.9999999999310361e+02 -1.0809370031982468e-10 -7.6366381563641388e-11  1.9999999999313729e+02 -4.6300675941527818e-11 -2.0383986902264034e-12  1.9999999999350351e+02 -3.6006153139456980e-11 1.2004705248523005e-11  1.9999999999312547e+02 2.9235646259327967e-11 1.2205781560682509e-12  1.9999999999308903e+02 -4.6560508017909844e-11 9.7293874104963162e-12  1.9999999999311487e+02 1.2507489463853924e-11 4.1030009344851912e-11  1.9999999999314318e+02 -1.5961912617386388e-11 -3.7006163061089536e-11  1.9999999999272043e+02 -3.9932241985923951e-11 -3.9055699418076602e-11  1.9999999999272109e+02 -1.0476691231087500e-10 8.7141462852849099e-12  1.9999999999236138e+02 -8.9121267069016395e-11 -7.1384487692025597e-11  1.9999999999235504e+02 -3.9390908379827459e-12 -1.0807372929501057e-11  1.9999999999235510e+02 2.9909134250995473e-11 8.7505456903319070e-12  1.9999999999232446e+02 -1.2619297452624480e-12 -1.9093050783849320e-11  1.9999999999236002e+02 1.4038062892965747e-11 4.4234724196020052e-11  1.9999999999229919e+02 1.0139734771983185e-11 -7.9815323169839344e-12  1.9999999999268090e+02 -4.6350103389873683e-11 -9.3578163178694258e-11  1.9999999999269161e+02 -1.2015742324626903e-10 -4.3420489958810621e-11  1.9999999999273547e+02 -6.7808159558562226e-11 3.3183646467284034e-11  1.9999999999269519e+02 -3.6740682352039299e-11 4.0965751921714879e-12  1.9999999999192730e+02 -4.2125077825540910e-11 -4.1800325371869747e-11  1.9999999999191323e+02 -8.9059075847022081e-11 -1.2848607195933218e-11  1.9999999999146331e+02 -5.2987131965790588e-12 -8.9069034016052077e-12  1.9999999999150663e+02 -5.6351797827922882e-12 7.2340277350471027e-11  1.9999999999157882e+02 1.0559350106915866e-11 -7.3492313046633276e-13  1.9999999999147772e+02 8.5331716105069578e-13 8.5629220516210858e-12  1.9999999999156680e+02 6.3630306823486606e-12 1.2673540136678851e-11  1.9999999999147579e+02 8.7494318743612961e-13 5.5790169045188122e-12  1.9999999999194432e+02 -5.7719910734787713e-11 -7.9145289699040882e-11  1.9999999999193727e+02 -7.8247589680996329e-11 -3.7696722392082794e-11  1.9999999999195370e+02 -4.0926800731611469e-11 3.2624604801891240e-11  1.9999999999194875e+02 -1.1420844762383575e-11 -2.9629728568079443e-12  1.9999999999269619e+02 1.0504747252281668e-11 -4.0175720847555798e-11  1.9999999999266194e+02 -4.6813968989373813e-11 -4.5018818414748145e-11  1.9999999999228618e+02 -1.2086003930780327e-11 -4.3533806112533099e-11  1.9999999999230204e+02 2.6536423674447967e-11 4.7482185341960887e-11  1.9999999999236513e+02 -2.1535046562059682e-10 -1.4484755379958083e-11  1.9999999999236087e+02 -1.1369200382957560e-11 4.1936501778166389e-13  1.9999999999234927e+02 -2.3166728780128671e-10 2.4918440734879341e-11  1.9999999999233196e+02 2.4715683156563003e-11 -5.9353126188754550e-12  1.9999999999267990e+02 9.9409578306649000e-13 -6.5979005858653596e-11  1.9999999999312647e+02 5.6884878317690365e-13 3.3397383119615324e-12  1.9999999999312192e+02 -2.1833689125485896e-10 -1.7691940519310856e-11  1.9999999999273908e+02 1.1062466576090646e-10 -4.3521756552139133e-13  1.9999999999272256e+02 -8.8084661695734308e-12 5.3312702631477483e-11  1.9999999999307101e+02 -6.5010629219090170e-11 -5.5694973264836309e-11  1.9999999999311891e+02 -1.1802161941543430e-11 -3.0305778536243211e-12  1.9999999999311606e+02 -2.2643209432943395e-10 3.0519287275835018e-11  1.9999999999272532e+02 -1.8344960089271925e-11 4.1550131315992079e-11  1.9999999999309301e+02 -8.2700745857749931e-12 1.1657911830515888e-12  1.9999999999191078e+02 -1.0629454098526914e-11 -5.3176176561499286e-11  1.9999999999190061e+02 -2.7229193787948065e-11 -2.6733820894124290e-11  1.9999999999142662e+02 1.1432208711903895e-11 -4.1678152411061322e-12  1.9999999999146277e+02 1.4455200419898674e-11 9.4163083696259316e-11  1.9999999999154406e+02 -9.0574120919209487e-11 6.8849360544314902e-14  1.9999999999146374e+02 2.6178161750344289e-11 1.3939513411644933e-11  1.9999999999153437e+02 -7.4887341017938442e-11 -2.5680358602528872e-12  1.9999999999143606e+02 -3.0116742160442020e-13 1.2789426997618423e-11  1.9999999999194031e+02 4.3767225712843363e-13 -7.9909312303173238e-11  1.9999999999197649e+02 8.3336196573174418e-11 -1.3682294849398379e-11  1.9999999999195902e+02 -1.6897232422428693e-12 8.5615186228027765e-11  1.9999999999198346e+02 -3.8746760714388129e-12 2.7662954442288682e-11  1.9999999999229723e+02 -9.6608001604495500e-12 -2.6533054082311502e-11  1.9999999999229871e+02 4.1888589109540637e-11 -3.7376514153556486e-11  1.9999999999269431e+02 3.1696261505088464e-12 -2.9981071834781576e-11  1.9999999999237983e+02 2.3911536421494417e-12 4.2064043351602473e-11  1.9999999999235612e+02 -2.6498127389736703e-12 -5.7937692804771326e-12  1.9999999999268690e+02 5.6356840627950115e-11 -6.0182317127466043e-11  1.9999999999266441e+02 6.1117055788222331e-12 -7.9329689082194411e-11  1.9999999999313422e+02 1.6068183625296092e-11 4.5321309144017965e-11  1.9999999999270372e+02 9.4168638800979801e-12 -5.5332039508068341e-11  1.9999999999311896e+02 -1.9172307147349979e-12 -3.0783240404507216e-11  1.9999999999310543e+02 5.3860044494977027e-12 -3.4989346228762437e-11  1.9999999999192119e+02 -2.2141542008435396e-11 -8.6121089934081490e-11  1.9999999999193813e+02 2.6815407828465094e-11 -4.4579480258600221e-11  1.9999999999148858e+02 3.4085718951077192e-12 -1.1181898974200309e-11  1.9999999999158018e+02 2.5627721661942609e-12 1.8413956250565932e-11  1.9999999999196530e+02 1.3430503986544674e-12 -3.5197611348706352e-11  1.9999999999194114e+02 3.1945776638611035e-11 -8.3578388223155374e-11  1.9999999999309793e+02 -6.7687117820083982e-11 -1.1362455731868100e-10  1.9999999999347997e+02 5.8660859595240136e-12 -4.3391994939651222e-11  1.9999999999309489e+02 -4.6726653573504310e-11 -1.1891367121372710e-11  1.9999999999311905e+02 4.0515462046726299e-11 7.7226397821757980e-12  1.9999999999312132e+02 -6.6257164151519525e-12 -3.4108611771950175e-11  1.9999999999346892e+02 -1.3778872222696073e-11 -2.1201980343733021e-11  1.9999999999347077e+02 -5.3130120278853183e-11 -4.2458376846438703e-11  1.9999999999268692e+02 -2.5876357576491701e-11 -3.1065886745849067e-11  1.9999999999226796e+02 -2.0764363600763875e-11 -5.8227799159982241e-11  1.9999999999232654e+02 -4.0489303433378094e-12 -2.2672043965264064e-11  1.9999999999237406e+02 5.6716954252247712e-11 1.6009028535138975e-11  1.9999999999232506e+02 -1.4546994276800389e-11 -1.2356231115828003e-11  1.9999999999267433e+02 -4.3804226125129779e-11 -7.3907139136459911e-11  1.9999999999269858e+02 -7.6857618987054373e-11 -6.6877516464060815e-11  1.9999999999270699e+02 3.9252168526631479e-12 -1.6856808623870206e-11  1.9999999999194486e+02 -3.6922425202078412e-11 -5.6320419403867311e-11  1.9999999999147320e+02 3.7352362474400848e-12 -1.5693066978471074e-12  1.9999999999147460e+02 1.5877205473782795e-12 -1.1539609423322649e-12  1.9999999999156887e+02 1.6968094296586351e-11 1.1934746392336958e-11  1.9999999999148611e+02 -3.4353816813662280e-12 7.5218984335882722e-12  1.9999999999195040e+02 -4.1121241836924918e-11 -8.5059032221821611e-11  1.9999999999194091e+02 -7.4942446693661569e-11 -5.8623627747521524e-11  1.9999999999195293e+02 1.0365877568716385e-11 -9.0429833591132057e-12  1.9999999999309350e+02 -9.2378111355884840e-11 -7.9552392238048115e-11  1.9999999999349671e+02 -3.6603086110619987e-11 -3.8546525973414560e-11  1.9999999999308679e+02 -2.8974384239759669e-11 -1.6684998456538826e-11  1.9999999999313562e+02 4.3659599759622648e-11 7.9850282138345898e-12  1.9999999999310054e+02 -1.3776157027798540e-11 -2.2372946040672723e-11  1.9999999999269119e+02 -4.6237619244175202e-11 -3.9147578365425511e-11  1.9999999999228018e+02 -5.1713004632078676e-11 -4.7469505123954117e-11  1.9999999999232719e+02 -1.0571027772115613e-11 -9.6680642900553547e-12  1.99999