<?xml version="1.0"?>
<VTKFile type="UnstructuredGrid"  version="0.1"  >
<UnstructuredGrid>
<Piece  NumberOfPoints="585" NumberOfCells="2475">
<Points>
<DataArray  type="Float64"  NumberOfComponents="3"  format="ascii">20 25 25  20 27.5 27.5  20 27.5 25  17.5 27.5 27.5  20 30 25  20 30 27.5  20 30 30  20 25 27.5  20 25 30  20 27.5 30  25 30 25  25 30 27.5  25 27.5 27.5  22.5 27.5 27.5  25 30 30  25 27.5 30  22.5 27.5 30  22.5 30 27.5  22.5 30 25  22.5 30 30  17.5 27.5 30  17.5 30 30  20 27.5 32.5  17.5 27.5 32.5  20 30 32.5  20 30 35  20 25 35  20 27.5 35  17.5 27.5 35  17.5 30 32.5  17.5 30 35  25 30 32.5  25 27.5 32.5  22.5 27.5 32.5  25 30 35  25 27.5 35  22.5 27.5 35  22.5 30 32.5  22.5 30 35  20 27.5 37.5  17.5 27.5 37.5  20 30 37.5  20 30 40  17.5 30 37.5  25 30 37.5  25 27.5 37.5  22.5 27.5 37.5  25 30 40  22.5 30 37.5  20 32.5 32.5  20 32.5 30  17.5 32.5 32.5  17.5 32.5 30  20 35 30  20 35 32.5  20 35 35  20 32.5 35  17.5 32.5 35  15 35 30  17.5 35 32.5  17.5 35 30  17.5 35 35  22.5 32.5 32.5  22.5 32.5 30  25 32.5 32.5  25 32.5 30  25 35 30  25 35 32.5  25 35 35  25 32.5 35  22.5 32.5 35  22.5 35 32.5  22.5 35 30  22.5 35 35  17.5 37.5 32.5  17.5 37.5 30  20 37.5 32.5  20 37.5 30  20 40 30  20 40 32.5  20 40 35  20 37.5 35  17.5 37.5 35  17.5 40 32.5  22.5 37.5 32.5  22.5 37.5 30  25 37.5 32.5  25 37.5 30  25 40 30  25 40 32.5  25 40 35  25 37.5 35  22.5 37.5 35  22.5 40 32.5  22.5 40 30  22.5 40 35  20 42.5 32.5  20 42.5 30  17.5 42.5 32.5  20 45 30  20 45 32.5  20 45 35  20 42.5 35  22.5 42.5 32.5  22.5 42.5 30  25 42.5 32.5  25 42.5 30  25 45 30  25 45 32.5  25 45 35  25 42.5 35  22.5 45 32.5  22.5 45 30  22.5 47.5 32.5  22.5 47.5 30  25 47.5 32.5  25 47.5 30  25 50 30  25 50 32.5  20 47.5 30  20 50 30  22.5 50 32.5  22.5 50 30  20 47.5 32.5  27.5 47.5 32.5  27.5 47.5 30  27.5 50 32.5  27.5 50 30  30 50 30  20 32.5 37.5  17.5 32.5 37.5  17.5 35 37.5  22.5 32.5 37.5  25 32.5 37.5  25 35 37.5  22.5 35 37.5  17.5 37.5 37.5  22.5 37.5 37.5  25 37.5 37.5  22.5 32.5 25  22.5 32.5 22.5  25 32.5 25  25 35 25  20 32.5 25  20 35 25  22.5 35 25  22.5 35 22.5  17.5 30 27.5  20 32.5 27.5  17.5 32.5 27.5  20 35 27.5  17.5 35 27.5  22.5 32.5 27.5  25 32.5 27.5  25 35 27.5  22.5 35 27.5  25 40 25  25 40 22.5  25 37.5 22.5  22.5 37.5 22.5  25 37.5 25  22.5 37.5 25  22.5 40 22.5  20 37.5 25  20 40 25  22.5 40 25  25 45 25  25 45 22.5  25 42.5 22.5  22.5 42.5 22.5  25 42.5 25  22.5 42.5 25  22.5 45 22.5  20 42.5 25  20 42.5 22.5  20 45 25  22.5 45 25  20 45 22.5  25 50 25  25 50 22.5  25 47.5 22.5  22.5 47.5 22.5  25 47.5 25  22.5 47.5 25  22.5 50 22.5  20 47.5 25  20 50 25  22.5 50 25  27.5 47.5 25  27.5 47.5 22.5  27.5 50 25  30 50 25  27.5 50 22.5  20 37.5 27.5  17.5 37.5 27.5  20 40 27.5  22.5 37.5 27.5  25 37.5 27.5  25 40 27.5  22.5 40 27.5  22.5 42.5 27.5  25 42.5 27.5  25 45 27.5  22.5 45 27.5  20 42.5 27.5  20 45 27.5  20 47.5 27.5  17.5 47.5 27.5  20 50 27.5  17.5 50 27.5  22.5 47.5 27.5  25 47.5 27.5  25 50 27.5  22.5 50 27.5  27.5 47.5 27.5  27.5 50 27.5  30 50 27.5  30 50 22.5  30 30 25  30 30 27.5  30 27.5 27.5  27.5 27.5 27.5  30 30 30  30 25 30  30 27.5 30  27.5 27.5 30  27.5 30 27.5  27.5 30 25  27.5 30 30  35 30 25  35 30 27.5  35 27.5 27.5  32.5 27.5 27.5  35 30 30  35 27.5 30  32.5 27.5 30  32.5 30 27.5  32.5 30 25  32.5 30 30  40 30 30  40 27.5 30  37.5 27.5 30  37.5 27.5 27.5  37.5 30 27.5  37.5 30 25  40 30 25  40 30 27.5  37.5 30 30  27.5 32.5 27.5  30 32.5 27.5  30 32.5 30  30 35 30  27.5 32.5 30  27.5 35 30  32.5 32.5 27.5  35 32.5 27.5  35 32.5 30  35 35 30  32.5 32.5 30  32.5 35 30  37.5 32.5 27.5  40 32.5 27.5  40 32.5 30  40 35 30  37.5 32.5 30  37.5 35 30  30 27.5 32.5  27.5 27.5 32.5  30 30 32.5  30 30 35  30 27.5 35  27.5 27.5 35  27.5 30 32.5  27.5 30 35  35 30 32.5  35 27.5 32.5  32.5 27.5 32.5  35 30 35  35 27.5 35  32.5 27.5 35  32.5 30 32.5  32.5 30 35  37.5 27.5 32.5  37.5 30 32.5  37.5 30 35  37.5 27.5 35  27.5 32.5 32.5  30 32.5 32.5  30 35 32.5  30 35 35  30 32.5 35  27.5 32.5 35  27.5 35 32.5  27.5 35 35  32.5 32.5 32.5  35 32.5 32.5  35 35 32.5  35 35 35  35 32.5 35  32.5 32.5 35  32.5 35 32.5  32.5 35 35  37.5 32.5 32.5  37.5 32.5 35  37.5 35 32.5  40 35 32.5  40 35 35  37.5 35 35  27.5 37.5 32.5  30 37.5 32.5  30 37.5 35  30 40 35  27.5 37.5 35  27.5 40 35  32.5 37.5 32.5  35 37.5 32.5  35 37.5 35  35 40 35  32.5 37.5 35  32.5 40 35  37.5 37.5 32.5  40 37.5 32.5  40 37.5 35  40 40 35  37.5 37.5 35  37.5 40 35  30 30 37.5  30 27.5 37.5  27.5 27.5 37.5  27.5 30 37.5  35 30 37.5  35 27.5 37.5  32.5 27.5 37.5  32.5 30 37.5  27.5 32.5 37.5  30 32.5 37.5  30 35 37.5  27.5 35 37.5  32.5 32.5 37.5  35 32.5 37.5  35 35 37.5  32.5 35 37.5  27.5 37.5 37.5  30 37.5 37.5  32.5 37.5 37.5  35 37.5 37.5  35 40 37.5  32.5 40 37.5  32.5 42.5 37.5  32.5 42.5 35  35 42.5 37.5  35 42.5 35  35 45 35  30 42.5 35  30 45 35  32.5 45 35  42.5 37.5 32.5  37.5 30 37.5  37.5 27.5 37.5  37.5 32.5 37.5  37.5 35 37.5  40 35 37.5  40 35 40  37.5 37.5 37.5  40 37.5 37.5  40 40 37.5  40 40 40  40 37.5 40  37.5 40 37.5  42.5 37.5 37.5  37.5 42.5 37.5  37.5 42.5 35  40 42.5 35  40 45 35  37.5 45 35  30 35 25  30 35 22.5  30 32.5 22.5  27.5 32.5 22.5  30 32.5 25  27.5 32.5 25  27.5 35 22.5  27.5 35 25  35 35 25  35 35 22.5  35 32.5 22.5  32.5 32.5 22.5  35 32.5 25  32.5 32.5 25  32.5 35 22.5  32.5 35 25  30 40 25  30 40 22.5  30 37.5 22.5  27.5 37.5 22.5  30 37.5 25  27.5 37.5 25  27.5 40 22.5  27.5 40 25  35 40 25  35 40 22.5  35 37.5 22.5  32.5 37.5 22.5  35 37.5 25  32.5 37.5 25  32.5 40 22.5  32.5 40 25  40 40 25  40 40 22.5  37.5 40 22.5  37.5 37.5 22.5  37.5 37.5 25  37.5 40 25  30 45 25  30 45 22.5  30 42.5 22.5  27.5 42.5 22.5  30 42.5 25  27.5 42.5 25  27.5 45 22.5  27.5 45 25  35 45 25  35 45 22.5  35 42.5 22.5  32.5 42.5 22.5  35 42.5 25  32.5 42.5 25  32.5 45 22.5  32.5 45 25  40 45 25  40 45 22.5  40 42.5 22.5  37.5 42.5 22.5  40 42.5 25  37.5 42.5 25  37.5 45 22.5  37.5 45 25  30 47.5 22.5  30 47.5 25  35 50 25  35 50 22.5  35 47.5 22.5  32.5 47.5 22.5  35 47.5 25  32.5 47.5 25  32.5 50 22.5  32.5 50 25  40 50 25  40 50 22.5  40 47.5 22.5  37.5 47.5 22.5  40 47.5 25  37.5 47.5 25  37.5 50 22.5  37.5 50 25  30 35 27.5  27.5 35 27.5  35 35 27.5  32.5 35 27.5  37.5 35 27.5  27.5 37.5 27.5  30 37.5 27.5  30 40 27.5  30 40 30  30 37.5 30  27.5 37.5 30  27.5 40 27.5  27.5 40 30  32.5 37.5 27.5  35 37.5 27.5  35 40 27.5  35 40 30  35 37.5 30  32.5 37.5 30  32.5 40 27.5  32.5 40 30  37.5 37.5 27.5  37.5 37.5 30  40 37.5 30  40 40 30  37.5 40 27.5  40 40 27.5  37.5 40 30  27.5 42.5 27.5  30 42.5 27.5  30 45 27.5  30 45 30  30 42.5 30  27.5 42.5 30  27.5 45 27.5  27.5 45 30  32.5 42.5 27.5  35 42.5 27.5  35 45 27.5  35 45 30  35 42.5 30  32.5 42.5 30  32.5 45 27.5  32.5 45 30  37.5 42.5 27.5  40 42.5 27.5  40 45 27.5  40 45 30  40 42.5 30  37.5 42.5 30  37.5 45 27.5  37.5 45 30  30 47.5 27.5  30 47.5 30  32.5 47.5 27.5  35 47.5 27.5  35 50 27.5  35 50 30  35 47.5 30  32.5 47.5 30  32.5 50 27.5  32.5 50 30  37.5 47.5 27.5  40 47.5 27.5  40 50 27.5  40 50 30  40 47.5 30  37.5 47.5 30  37.5 50 27.5  37.5 50 30  30 40 32.5  27.5 40 32.5  35 40 32.5  32.5 40 32.5  40 40 32.5  37.5 40 32.5  42.5 40 32.5  27.5 42.5 32.5  30 42.5 32.5  30 45 32.5  27.5 42.5 35  27.5 45 32.5  27.5 45 35  32.5 42.5 32.5  35 42.5 32.5  35 45 32.5  32.5 45 32.5  37.5 42.5 32.5  40 42.5 32.5  40 45 32.5  37.5 45 32.5  42.5 42.5 32.5  30 47.5 32.5  32.5 47.5 32.5  35 47.5 32.5  37.5 47.5 32.5  40 47.5 32.5  37.5 32.5 25  37.5 32.5 22.5  40 32.5 25  40 35 25  40 35 22.5  37.5 35 22.5  37.5 35 25  40 37.5 22.5  40 37.5 25  42.5 37.5 25  42.5 37.5 22.5  42.5 40 25  42.5 40 22.5  42.5 42.5 25  42.5 42.5 22.5  42.5 45 25  45 45 25  42.5 45 22.5  42.5 47.5 25  42.5 47.5 22.5  42.5 50 25  42.5 50 22.5  40 35 27.5  40 37.5 27.5  42.5 37.5 27.5  42.5 40 27.5  42.5 37.5 30  42.5 40 30  42.5 42.5 27.5  42.5 42.5 30  42.5 45 27.5  42.5 47.5 27.5  42.5 50 27.5  </DataArray>
</Points>
<Cells>
[...]
<PointData  Vectors="u"> 
<DataArray  type="Float64"  Name="u"  NumberOfComponents="3" format="ascii">1.9999999999643086e+02 8.1443976879441392e-11 7.3939957612781963e-11  1.9999999999641213e+02 -9.9406339219701053e-11 -1.0759291669425254e-10  1.9999999999644353e+02 -3.2699951880782942e-11 -3.3517926249485165e-11  1.9999999999690408e+02 -2.2941868931197501e-11 -3.5896713556229456e-11  1.9999999999645573e+02 7.8745992245111748e-11 6.2448849760698016e-11  1.9999999999644248e+02 1.6278125707366200e-11 -1.2693925530616576e-11  1.9999999999647412e+02 9.6627510105167824e-11 3.3100071558961117e-11  1.9999999999644626e+02 -2.5601550003977224e-11 -3.8580244660121022e-11  1.9999999999645445e+02 5.4376853986641328e-11 7.0516903856820169e-11  1.9999999999646670e+02 -4.5124759497239820e-11 -2.4018137321415527e-11  1.9999999999561479e+02 6.5816912587304089e-11 5.0530937526585993e-11  1.9999999999553279e+02 -1.0504467283891593e-11 -6.7118288479909619e-13  1.9999999999552821e+02 -3.9607909405306817e-11 -3.5665671007999993e-11  1.9999999999596963e+02 -3.0526221286095013e-11 -3.7638172557830956e-11  1.9999999999563153e+02 6.6696235525509256e-11 4.6306904772932501e-11  1.9999999999554390e+02 -1.6866775818296539e-11 -2.4758217046669597e-11  1.9999999999596000e+02 -5.7523049252885574e-11 -3.7528375175257410e-11  1.9999999999595562e+02 -2.0078119083529942e-11 -4.5929855944875680e-11  1.9999999999598720e+02 -1.6209371911173146e-11 4.3467846409364593e-11  1.9999999999600573e+02 8.1149090785744357e-12 -3.4584355534837315e-11  1.9999999999684206e+02 -6.1965657657911956e-11 -6.8287116487241221e-11  1.9999999999686361e+02 -4.6097700460614462e-11 8.2077709036613235e-12  1.9999999999636549e+02 -6.1630412613319376e-11 -6.0031765978848821e-11  1.9999999999682106e+02 -6.5303191700237143e-11 -3.0145305298120621e-11  1.9999999999644285e+02 -1.4447840016232354e-11 9.0503925223013071e-12  1.9999999999645954e+02 9.6204078118133298e-11 2.9088579121368822e-11  1.9999999999647619e+02 5.2072429988078267e-11 -7.1976432523221778e-12  1.9999999999647741e+02 -6.3490275341261902e-12 2.8879879103967982e-11  1.9999999999686824e+02 1.0765899521166966e-11 -6.1922627554672196e-12  1.9999999999680804e+02 -6.2464131318739674e-11 -4.3907412237943278e-11  1.9999999999688524e+02 1.6538443667841727e-11 2.0870576109269022e-11  1.9999999999554669e+02 -3.2227895432952221e-11 5.5703271463270133e-12  1.9999999999554618e+02 -3.4431016136157770e-11 -4.0859057913784064e-11  1.9999999999597745e+02 -4.0733804678338357e-11 -3.3424531371659472e-11  1.9999999999563130e+02 3.7500038126627286e-11 1.5953561517046840e-11  1.9999999999556047e+02 9.9799620987783865e-12 1.7641146416649245e-11  1.9999999999601042e+02 1.1833056701987096e-11 -4.6596806991136257e-12  1.9999999999596028e+02 -5.4598132128385215e-11 -5.5467469473445402e-11  1.9999999999600297e+02 -1.3523120994117487e-11 -1.5848334804242962e-11  1.9999999999631913e+02 -3.6878461846035655e-11 -1.6410671593931181e-11  1.9999999999682080e+02 -5.5560236002378293e-11 -2.7503276116280475e-11  1.9999999999646042e+02 -5.3785962852685062e-12 -2.1461056083863895e-11  1.9999999999648324e+02 8.2221496024596344e-11 4.5127651876056128e-11  1.9999999999681347e+02 -3.6503795936050955e-11 -2.3937229940663049e-11  1.9999999999554387e+02 -2.8420264799368756e-11 -4.2529397698309914e-11  1.9999999999550596e+02 -4.3230119001893933e-11 -1.8956103075296307e-11  1.9999999999596935e+02 -4.3239505286620993e-11 -1.2055834492409656e-11  1.9999999999562743e+02 5.4805817049611887e-11 4.3904042078169252e-11  1.9999999999594650e+02 1.7974896936943660e-11 -1.9292435651139749e-11  1.9999999999635364e+02 -7.3345329829252334e-11 -3.7177015119460245e-11  1.9999999999641722e+02 7.3536507896814242e-12 4.0149564651123949e-11  1.9999999999684280e+02 -1.3498385073790891e-11 -1.4127186353716092e-12  1.9999999999675293e+02 -8.9351269221354110e-11 -7.7043733534838369e-12  1.9999999999646070e+02 6.3369471098441209e-11 -3.1145873422261054e-12  1.9999999999644157e+02 -5.5006562550016880e-11 -1.3543444857015321e-11  1.9999999999643364e+02 4.5587892717281647e-11 5.7086346189649041e-11  1.9999999999646195e+02 -1.8509548679397733e-11 -4.5499708089218516e-11  1.9999999999685866e+02 -6.2954295682703894e-11 -2.0524011504748165e-12  1.9999999999732978e+02 8.0820644288054800e-11 1.6885246966991260e-11  1.9999999999684570e+02 7.1887582494437836e-12 -4.8709316796980202e-11  1.9999999999685289e+02 -7.6293607241956304e-12 5.7636449138380259e-11  1.9999999999686429e+02 -5.3271615155689074e-11 -6.2260672242346730e-11  1.9999999999597043e+02 -4.4071182266650582e-11 -2.2383060492165075e-11  1.9999999999587723e+02 -1.1717747525400736e-10 -1.0994160018427566e-11  1.9999999999550801e+02 -7.9093533041573748e-11 -4.2328543338405117e-11  1.9999999999553117e+02 -9.1306105014550950e-12 6.6713106592925614e-11  1.9999999999561840e+02 6.2834728271656007e-11 4.6759736455557848e-12  1.9999999999554794e+02 -6.1597616625878925e-12 -1.9699813991176981e-11  1.9999999999563190e+02 3.5989716926091685e-11 3.7488181310627085e-11  1.9999999999550653e+02 1.4228124871300447e-11 -4.8753009825042918e-12  1.9999999999594104e+02 -3.1710374565455047e-11 -3.8426850729394397e-11  1.9999999999595249e+02 -1.0954926598705681e-10 -4.2011170638685902e-11  1.9999999999599271e+02 -3.9278331121599381e-11 1.9180126013165129e-11  1.9999999999598330e+02 1.3417651521554157e-11 -6.0661870791992602e-11  1.9999999999686716e+02 -1.1846710006752450e-11 -2.0420845686646034e-11  1.9999999999684604e+02 -1.4593746713762204e-11 2.1228178255299946e-12  1.9999999999636648e+02 -1.0845868279609172e-10 -8.6946984047282973e-11  1.9999999999641813e+02 -1.8700960873482408e-11 -4.1571245373500838e-12  1.9999999999647329e+02 3.6745160687385519e-11 -3.4589104262413518e-12  1.9999999999641037e+02 -3.5781335791036665e-11 -9.2033537324005112e-12  1.9999999999646136e+02 1.8475589334965022e-11 4.8011372462601851e-11  1.9999999999644552e+02 -2.8662066691683231e-11 -5.3084904564762216e-11  1.9999999999687384e+02 -9.1203000214954442e-11 -5.5301852029822551e-11  1.9999999999676285e+02 -3.2729944910867690e-11 -1.0976223242667386e-10  1.9999999999595445e+02 -3.4353300743827297e-11 -4.9364002055385895e-11  1.9999999999590730e+02 -9.3217482067678958e-11 -3.9066047947429403e-11  1.9999999999555214e+02 -5.1871746302488477e-11 -4.5534235048697420e-11  1.9999999999554896e+02 -3.9381560657222776e-12 2.3804599109111214e-11  1.9999999999563167e+02 3.4815509575892753e-11 2.3803366897055479e-12  1.9999999999556420e+02 -5.7373416424763032e-12 -1.9816685342568865e-12  1.9999999999565156e+02 2.6908541986152986e-11 2.1255307944468023e-11  1.9999999999555922e+02 -1.7058423128221119e-11 -2.6186872368973578e-12  1.9999999999595317e+02 -6.9333256046466212e-11 -7.5850824211335676e-11  1.9999999999595281e+02 -8.9950717685320679e-11 -5.4483156934512637e-11  1.9999999999597424e+02 -4.0378379319494280e-11 3.2197152138651840e-11  1.9999999999597466e+02 1.0891223175020940e-11 -1.2277923579739320e-11  1.9999999999633977e+02 -7.6979802980455103e-11 -5.6141066676099248e-11  1.9999999999638692e+02 -3.9037380686632585e-11 2.4721106209524518e-11  1.9999999999681216e+02 -5.0673194261393946e-11 -6.0231702658922210e-11  1.9999999999646741e+02 1.4980180512058184e-11 -2.3619331996011630e-11  1.9999999999642574e+02 -4.1509932845419021e-11 -4.8838600677382701e-12  1.9999999999646784e+02 1.1336256545551468e-11 5.2021936635733555e-11  1.9999999999643035e+02 -3.0416026520449682e-11 -1.1093767000450547e-11  1.9999999999597412e+02 -4.7509502387550082e-11 -5.9905520752871594e-11  1.9999999999589838e+02 -1.2528704759084247e-10 -9.8761204578806438e-12  1.9999999999554370e+02 -7.4895559216627031e-11 -5.8389229351995548e-11  1.9999999999555786e+02 -3.2710437272842400e-11 6.4853229181974808e-11  1.9999999999562706e+02 -1.5433193391575950e-12 -8.6481875993139227e-12  1.9999999999552739e+02 -8.6511353288528345e-11 -1.6681390931519754e-12  1.9999999999561734e+02 -9.2503094227226381e-12 3.2969890102922424e-11  1.9999999999552557e+02 -1.4413561581987436e-11 -3.1658357484598261e-11  1.9999999999595420e+02 -9.7421166767039889e-11 -4.1047699737407560e-11  1.9999999999596869e+02 -6.0491817432605506e-11 4.0089263521035725e-11  1.9999999999594871e+02 -1.3371779120764544e-12 -6.0782609768229773e-11  1.9999999999589448e+02 -4.0380333747341442e-11 -4.5204950509024697e-11  1.9999999999547623e+02 -3.3454777683593895e-12 -5.4724067481863230e-11  1.9999999999552085e+02 6.6643843235650714e-12 1.5581712730918986e-11  1.9999999999561783e+02 -2.4427192713941463e-10 -2.9075728186857913e-11  1.9999999999559822e+02 -1.4872778706406182e-11 -8.5775358384200274e-12  1.9999999999638391e+02 1.8595570685046411e-11 1.4812453915482420e-11  1.9999999999645337e+02 -2.5902625110487469e-10 -4.4041728471369104e-11  1.9999999999597037e+02 1.1661306628599997e-10 6.2786063632528745e-12  1.9999999999598319e+02 -1.4603342240369364e-11 6.6965429593100203e-11  1.9999999999634232e+02 1.7935818150082283e-12 -4.8035351110795855e-11  1.9999999999514895e+02 1.3469612449099946e-11 -4.6137884664319654e-11  1.9999999999504936e+02 4.6734980553053302e-11 -1.7466243323898623e-11  1.9999999999516703e+02 9.1027751448685611e-11 -6.9906417012544278e-12  1.9999999999511766e+02 -2.7436241073468546e-11 8.6830682417079695e-11  1.9999999999478362e+02 -2.5299319011060073e-10 3.9765451245909739e-11  1.9999999999644029e+02 -8.8395523457673447e-12 -1.2356253414908125e-10  1.9999999999687930e+02 2.0514620634532277e-11 -4.9298633279477245e-11  1.9999999999685701e+02 -3.0201310717526691e-11 -1.0049107701136191e-10  1.9999999999595491e+02 -1.0428968892069232e-11 -2.6882493968902058e-11  1.9999999999554279e+02 -5.5629539456441861e-12 -6.7882880812793148e-11  1.9999999999554527e+02 3.1180786008012082e-11 -3.8963167821279803e-11  1.9999999999591469e+02 -6.3316482334299921e-12 -1.1537318579930052e-10  1.9999999999686861e+02 -4.7592446851554004e-11 -6.4612775824118496e-11  1.9999999999596182e+02 -4.1695748473401846e-11 -3.9635767924386992e-11  1.9999999999553296e+02 -5.2819190288670178e-11 -7.9026124972787881e-11  1.9999999999595622e+02 -3.5218883927630192e-11 -6.3230188170712142e-11  1.9999999999597929e+02 -2.8588821869460117e-11 -2.0546106754232663e-11  1.9999999999549780e+02 -8.0507675237965639e-12 -1.3838979929946523e-11  1.9999999999561152e+02 7.5559527005307450e-11 5.3278915658760484e-11  1.9999999999641346e+02 -5.4238624673572996e-12 2.1988600178391845e-11  1.9999999999647574e+02 7.6779371848578312e-11 5.7011260038135904e-11  1.9999999999599976e+02 -9.3747640817957204e-12 1.6488045589350262e-11  1.9999999999595184e+02 -6.1400404039134034e-11 -4.8728813861984569e-11  1.9999999999686150e+02 2.1452236537460867e-11 -3.4453966578138994e-12  1.9999999999640983e+02 -3.1416223732539916e-11 5.8162355807680513e-12  1.9999999999686568e+02 -1.7292793486996429e-11 -5.2539379988136099e-13  1.9999999999643106e+02 -5.9676032699045894e-11 2.1315430558129099e-11  1.9999999999681620e+02 -8.8260904256279265e-12 3.3096081074604518e-11  1.9999999999596184e+02 5.6201565907719640e-12 5.8868907179149785e-12  1.9999999999555166e+02 -4.9148510169347697e-11 4.9163283276428333e-12  1.9999999999549487e+02 -2.8854695721462040e-11 9.8026193727810413e-12  1.9999999999594016e+02 -3.0544421785760343e-11 3.6958063433699463e-12  1.9999999999562183e+02 3.2242910843431496e-11 4.6232460431479816e-11  1.9999999999553162e+02 -3.6381322110585389e-12 9.1924018930937784e-12  1.9999999999552770e+02 -7.7750355267002212e-11 -1.7680044106862016e-11  1.9999999999596480e+02 -5.3249964767702341e-11 -2.1865387579535558e-12  1.9999999999550093e+02 -3.0607995482101118e-11 9.8396316883532395e-12  1.9999999999595619e+02 -7.8795268098217161e-11 -7.8527359120687726e-11  1.9999999999593814e+02 -9.6801317979250216e-11 -2.1224909663089365e-11  1.9999999999641639e+02 -2.1518662570456631e-11 -2.0655140010762947e-11  1.9999999999647102e+02 3.1291205740832140e-11 4.9759078606896886e-11  1.9999999999597364e+02 -1.3564782275233976e-11 -1.0575437964027683e-11  1.9999999999562320e+02 -1.2622723580401305e-11 5.0487825509472052e-11  1.9999999999551778e+02 -3.9628025372918437e-11 9.1380314074546951e-12  1.9999999999550818e+02 -7.7089158021679080e-11 -2.9712994856454919e-11  1.9999999999595045e+02 -5.9860577753661398e-11 -3.3231269356380867e-11  1.9999999999553083e+02 -3.6805031262566262e-11 -5.1635146906655046e-12  1.9999999999593427e+02 -8.7880405909717669e-11 -8.0694274422487984e-11  1.9999999999593214e+02 -7.7359965363384454e-11 -5.7992430159039281e-11  1.9999999999640997e+02 -2.7058785982557567e-11 -9.7115172286094436e-12  1.9999999999631916e+02 -6.0878811923312021e-11 -5.2162344407062022e-11  1.9999999999644805e+02 4.9957075582589591e-12 4.3116542336698339e-11  1.9999999999597037e+02 -2.0643537623738464e-11 -4.6340738163576925e-12  1.9999999999641710e+02 -2.4380042498860283e-11 -1.0200993669306426e-11  1.9999999999561331e+02 -2.3774101747372283e-10 4.0769428045714231e-11  1.9999999999559671e+02 4.0167049822664049e-12 2.4160310226888105e-11  1.9999999999547126e+02 7.4425393796913514e-13 -3.7514443642725857e-11  1.9999999999592487e+02 -6.8348397524080636e-12 -3.3948049115324411e-11  1.9999999999555388e+02 5.7034654522076201e-11 2.3295480220126786e-11  1.9999999999593240e+02 1.0575565941561952e-11 -8.1503372669894517e-11  1.9999999999597665e+02 1.2387717090238102e-10 -2.7494324587129375e-12  1.9999999999642338e+02 -1.9184939646619719e-11 -2.9961566346829085e-12  1.9999999999644248e+02 -2.3723309572775878e-10 3.9787328167631215e-11  1.9999999999598424e+02 -2.9787021214724468e-11 4.3512710978368647e-11  1.9999999999508506e+02 4.7881909907324026e-11 -1.0189672991764541e-10  1.9999999999510095e+02 3.3628776852230952e-11 -4.8099344815177858e-12  1.9999999999509114e+02 -4.8972238027147815e-12 3.7641172213213509e-11  1.9999999999475821e+02 -2.6022784041962680e-10 3.8625502178565102e-11  1.9999999999512576e+02 5.9075895556270360e-11 3.0972608370037163e-11  1.9999999999637586e+02 -5.6861347254283547e-11 -7.3909128827925140e-12  1.9999999999683882e+02 -2.6034921095408366e-11 1.1233112886555305e-11  1.9999999999638604e+02 -4.4975062047728569e-11 3.7453001063285984e-12  1.9999999999598049e+02 -4.5200949552291281e-11 -1.6721758120462460e-11  1.9999999999558136e+02 -2.3472643828065600e-11 4.3008316576373110e-12  1.9999999999550744e+02 1.9205702796822878e-11 2.1141648015266910e-11  1.9999999999594448e+02 -6.0263733258800810e-11 -2.2024961958965308e-12  1.9999999999596409e+02 -4.7727271715206040e-11 -1.3278742086658624e-11  1.9999999999554788e+02 -7.2979986090032943e-11 5.4718023423583301e-12  1.9999999999550573e+02 -2.3653785189451154e-11 1.8017031010476858e-11  1.9999999999594007e+02 -5.6348202068391029e-11 1.4530498635132181e-11  1.9999999999637569e+02 -6.2368758704333506e-11 8.2163592564556151e-12  1.9999999999638669e+02 -4.5419375599627573e-11 1.0673760196493508e-11  1.9999999999634045e+02 1.0685683229858580e-11 8.0189390666265436e-12  1.9999999999681279e+02 2.0813837196917992e-11 -4.8167505162827353e-13  1.9999999999640889e+02 -3.1960809293807096e-11 2.6615369461071892e-11  1.9999999999684925e+02 1.1494971965879542e-10 4.9611607725774783e-12  1.9999999999596517e+02 1.9232576474489474e-11 -1.2636069961140193e-11  1.9999999999551889e+02 3.7377510486262514e-12 1.9212367398120487e-12  1.9999999999555740e+02 -3.1827372703366839e-11 9.5042683872364575e-12  1.9999999999598961e+02 1.3706408673119890e-10 1.3695359285295136e-11  1.9999999999508458e+02 3.0101280026431323e-11 -1.5626278133171870e-11  1.9999999999511769e+02 1.4306504341551207e-10 -1.0075754254598748e-11  1.9999999999465851e+02 2.9742372988878484e-11 4.2147625501162112e-12  1.9999999999467511e+02 4.3538773507567984e-11 -2.0205631762227259e-11  1.9999999999472547e+02 5.1457189967083293e-11 3.3528604538021174e-11  1.9999999999473368e+02 -5.6975886695660630e-11 1.0058303271131989e-11  1.9999999999470799e+02 -1.0868958912722984e-10 -8.6980767343500556e-11  1.9999999999513253e+02 -2.7253957528614048e-11 -3.0704127876891439e-11  1.9999999999472570e+02 6.6036278175841895e-11 5.8551986510323538e-11  1.9999999999474480e+02 2.6829312950237260e-11 6.8173868768214441e-11  1.9999999999471981e+02 -3.4147636126500503e-11 -4.4932786916926955e-11  1.9999999999512352e+02 -5.0446117106106042e-11 -9.0680220041448852e-12  1.9999999999509859e+02 -2.8982836806728228e-11 -2.1233202428072714e-11  1.9999999999513096e+02 -8.5567408563563642e-11 1.1526035990773592e-11  1.9999999999513216e+02 -3.3755775034488655e-11 -2.4520860553908122e-11  1.9999999999398315e+02 6.4680213075292193e-11 4.0953821002532944e-11  1.9999999999391815e+02 1.4634305686741335e-11 -1.6293537811454884e-11  1.9999999999385761e+02 -4.2184409190982499e-11 -5.1792040697098530e-11  1.9999999999426819e+02 -5.3658017820118213e-11 -4.1275821195185612e-11  1.9999999999395831e+02 5.4646262375525517e-11 5.5815354875026543e-11  1.9999999999391795e+02 -1.3132121051779676e-11 2.6527003060388130e-11  1.9999999999429647e+02 -6.2322602521330297e-11 -5.3315090967179399e-11  1.9999999999429571e+02 -5.6979609354821683e-11 -3.4085505372978535e-11  1.9999999999433669e+02 -5.8715405361695213e-11 3.3620000004806723e-11  1.9999999999432563e+02 9.9282708656377834e-12 1.2891955649261572e-11  1.9999999999316495e+02 4.9561400102664289e-11 5.5918795993526810e-11  1.9999999999306638e+02 -1.3152670049337496e-11 7.0839003130463507e-12  1.9999999999345175e+02 -5.5718244690315506e-11 -1.0653230983837013e-10  1.9999999999350254e+02 -5.7402080143298639e-11 -2.8979320548642099e-11  1.9999999999345340e+02 -8.7131438727915453e-11 -6.3505838142184654e-11  1.9999999999349768e+02 -3.2807067972121495e-11 1.5474408610171454e-11  1.9999999999314747e+02 4.3094483392337613e-11 3.2854624673639963e-11  1.9999999999309338e+02 -3.1524293160989505e-11 -2.4844650314603332e-11  1.9999999999348674e+02 -5.6610822064677260e-12 -1.5687980638594853e-12  1.9999999999510524e+02 -1.4211041464569666e-11 -8.3980593294360887e-12  1.9999999999471686e+02 -9.7800557070349933e-11 -3.9156096586166636e-12  1.9999999999472888e+02 -2.8083636292933170e-11 -2.8306112421286122e-11  1.9999999999472683e+02 6.7739214271618831e-11 3.5891004220341382e-11  1.9999999999512428e+02 -6.5323864750572128e-11 -6.3602462498532480e-11  1.9999999999512406e+02 -7.1182832742302485e-11 3.2012466543741550e-11  1.9999999999429005e+02 -4.2194800020997835e-11 -4.1100712205819508e-12  1.9999999999381822e+02 -7.6708609303281743e-11 -2.4815285730355602e-12  1.9999999999392412e+02 -3.9003917994628006e-11 2.1371343573572561e-12  1.9999999999395263e+02 5.8685154211812676e-11 3.8576834210808141e-11  1.9999999999428604e+02 -6.4718002603317654e-11 -6.4794966429561652e-11  1.9999999999432458e+02 -3.0248524381519958e-11 3.3317876210060387e-11  1.9999999999346937e+02 -4.4445601759945879e-11 -2.0025476305846018e-11  1.9999999999302787e+02 -5.3752357801685638e-11 -4.4484750669118021e-12  1.9999999999307886e+02 -1.4036077358124311e-11 8.4023781089674078e-12  1.9999999999314065e+02 4.6225139237668471e-11 2.9258585374002032e-11  1.9999999999346937e+02 -4.0307549115403988e-11 -5.0815326135213827e-11  1.9999999999351559e+02 -5.3682619670757646e-11 2.1013297463889799e-11  1.9999999999470950e+02 -8.5283878567716160e-11 -9.1551488196218553e-11  1.9999999999511465e+02 -7.3370111755102589e-12 -1.9468957049896818e-11  1.9999999999472976e+02 -2.9732078869287952e-11 -1.5528408262140359e-11  1.9999999999472993e+02 5.1566642121160417e-11 5.3925120187850864e-11  1.9999999999472965e+02 -7.8596449695470722e-12 -3.6814661630118192e-11  1.9999999999509896e+02 -2.6161294771085454e-11 -4.1049400775873875e-11  1.9999999999510416e+02 -8.0428751252434776e-11 -2.6515091291375410e-11  1.9999999999513952e+02 -1.6696835949114049e-11 -4.7286170862837885e-11  1.9999999999390269e+02 -1.0396645222128527e-11 -7.1977515858841703e-12  1.9999999999382661e+02 -4.1460539905080831e-11 -5.0119638972072052e-11  1.9999999999430588e+02 -3.9423116629789314e-11 -2.1497022996522123e-11  1.9999999999396110e+02 3.8586998961133438e-11 4.2511585553771830e-11  1.9999999999392477e+02 5.1629864275945020e-12 -7.6941047449934045e-12  1.