<?xml version="1.0"?>
<VTKFile type="UnstructuredGrid"  version="0.1"  >
<UnstructuredGrid>
<Piece  NumberOfPoints="6585" NumberOfCells="30118">
<Points>
<DataArray  type="Float64"  NumberOfComponents="3"  format="ascii">27.90047073364258 31.9360294342041 9.430098533630371  28.05939962634755 31.96289137407701 10.33859106590298  28.12386900162322 31.65809889009867 9.920417454390726  28.17746543884277 31.98068904876709 9.646953105926514  27.83600135836691 32.24082191818244 9.848272145142628  28.45446014404297 32.02534866333008 9.863807678222656  28.40086370682341 31.70275850466166 10.13727202668687  28.1129960635671 32.28548153274543 10.06512671743877  27.77153198309124 32.54561440216078 10.26644575665489  28.34726726960385 31.38016834599324 10.41073637515108  28.0522403717041 31.96347045898438 12.18564987182617  28.74446981476072 32.3514693282833 11.66729508242348  28.50876404063966 31.71862667356731 11.66662430048498  28.00659919994142 31.83668201719524 11.73371910334142  28.24230497406247 32.46952467191123 11.73438988527993  27.96095802817873 31.70989357540611 11.28178833485667  27.08904075622559 34.55644989013672 9.019798278808594  27.50000560692914 35.03896814716472 9.893562564220737  26.98461482301088 34.48141501421091 9.965620680144873  26.6241476439353 34.6561095305481 9.479050265560236  27.13953842785357 35.21366266350192 9.406992149636098  26.15925453164501 34.75576917095948 9.938302252311876  26.84254937306586 35.0359168940623 10.46172881470087  26.89928229895603 33.77495579261816 11.11833084695148  26.88195547426047 34.99462985601873 11.4641510577052  26.19866063283962 34.71448213291592 10.94072449531621  26.56867451649513 34.22407544374525 11.53073879263601  26.52926841530052 34.26536248178882 10.52831654963168  26.23806673403423 34.67319509487235 11.94314673832054  26.21324920654297 35.29748153686523 8.753868103027344  26.70992206562719 35.06239958486939 9.428649054775324  26.70164265301226 35.58417848686618 9.274027061745473  26.18625186909399 35.02662535391236 9.346085177669611  26.73691940307617 35.33325576782227 8.836431980133057  27.57773348043777 32.09025550956156 11.50207606406588  27.62337465220045 32.21704395135069 11.95400683255063  27.81343925455883 32.72309816427754 11.50274684600438  28.19666380229979 32.3427362301221 11.28245911679518  27.19450893269681 32.470617443717 11.72236379327509  28.43236957642085 32.97557888483809 11.28312989873368  28.30559539794922 32.41079902648926 9.666204929351807  28.02860069274902 32.36613941192627 9.449350357055664  28.15673065185547 32.79624938964844 9.468602180480957  27.96413131747335 32.67093189590461 9.867523968567921  27.48302045789402 32.50811592293889 10.99440477496499  27.22582605966685 33.67100125801144 10.01013172066506  27.33540714102363 33.16028509738947 10.69238830180318  26.77047965195649 33.45494872558935 10.57282759015186  26.64167700495695 33.13494165856054 10.02732433335224  27.79075354873399 33.37633762981156 10.12969243231638  27.20660449402409 32.84027803036066 10.14688504500356  27.80997511437674 34.20706085746234 9.992939107977872  28.1978006362915 31.57435512542725 9.558116436004639  28.4747953414917 31.61901473999023 9.774971008300781  28.49513053894043 31.21268081665039 9.686134338378906  28.42119890427214 31.29642458132182 10.04843535676499  26.40046576830098 33.94535541476001 9.982813292832059  27.24587059020996 32.73620986938477 8.939910888671875  27.39920382840621 32.96559552410449 9.747963256916599  27.5087012866506 32.64091213577277 9.60317832266338  26.94377379758345 32.93557576397265 9.483617611012058  27.70130062103271 32.7662296295166 9.204256534576416  27.56745454583156 34.08933057146857 12.36796245555995  26.9027606399329 34.38126283317046 12.15555459694025  27.18097142246513 34.26638304929455 12.73872279799089  26.92056324691712 34.99010434354224 12.11543265444479  26.7944882990987 34.44343552712053 13.10948314042182  26.51627751656647 34.55831531099644 12.52631493937118  27.38098173926419 33.27997400759278 12.04516312441752  27.66582593768844 33.37526733872812 11.20073037284258  27.04689561582642 33.12278661816758 11.42034732011328  26.91809296882688 32.80277955113877 10.87484406331366  28.2911901473999 31.46689510345459 11.83294486999512  28.5301399230957 30.9703197479248 11.48023986816406  28.24554897563722 31.34010666166546 11.38101410151037  27.35855220104823 33.99409630092355 9.482399519961836  27.44950793530116 34.38175537379953 9.506368693393233  26.53319190968237 34.26845045767212 9.45508109212884  26.99808502197266 34.16879081726074 8.995829105377197  26.90712928771973 33.78113174438477 8.971859931945801  27.74441909790039 33.7258415222168 9.108258247375488  27.75797554049581 33.13572796218879 9.687352002015187  27.95057487487793 33.26104545593262 9.288430213928223  27.41672992706299 34.14114570617676 9.064028263092041  27.32577419281006 33.75348663330078 9.040059089660645  27.77719710613857 33.96645118983957 9.55059867767668  26.35401916503906 35.99330902099609 8.927197456359863  26.25663684834203 35.37453909597779 9.432749854335871  26.28363418579102 35.64539527893066 8.840532779693604  27.19304805142867 33.43039159038867 9.567791290363864  26.77440314633834 33.45803670147265 9.49959213264902  27.49514484405518 33.23102569580078 9.024084568023682  27.07649993896484 33.25867080688477 8.955885410308838  24.88883580858967 38.47587661425564 14.71825872780135  25.10938593025444 38.83136074770711 14.17345920153644  25.0667156139795 38.25434801416732 13.94525262114149  25.73209095067239 38.29901966797473 14.34313307179678  25.24459541936933 38.03281941407899 13.17224651448164  25.28726573564427 38.60983214761879 13.40045309487659  25.32993605191922 39.18684488115858 13.62865967527153  27.54664938015913 34.70269759431685 11.6765589163249  27.2333684223938 33.93214318204336 11.74314665125572  27.57317066192627 32.33611965179443 9.185004711151123  26.32172012329102 34.35440063476562 8.728701591491699  26.24048732746801 34.55508490286255 9.333501921901789  26.7053804397583 34.45542526245117 8.874249935150146  26.61442470550537 34.0677661895752 8.85028076171875  25.52993789516619 37.29447044226927 13.92307640387986  26.9412899017334 33.76126098632812 13.70384979248047  27.16687935004984 33.92882340015694 13.15006179497287  27.23204391608988 34.34927361072823 13.30830640480563  26.86788910041605 34.10234825672433 13.40666646645114  27.60443496704102 33.83466148376465 13.34888505935669  27.24028015136719 33.58773612976074 13.4472451210022  27.30544471740723 34.00818634033203 13.60548973083496  27.53927040100098 33.41421127319336 13.19064044952393  26.37705984605485 36.12897566881648 11.22943599588729  26.30756329004454 35.40108538184441 11.58629136710392  28.21577072143555 32.94765090942383 12.69330978393555  28.3240701489282 32.96161489713096 11.98821984133462  27.70513982706618 32.70913417657042 12.20783678860532  27.0291805267334 34.53921890258789 14.03339004516602  26.9852352142334 34.15023994445801 13.86861991882324  26.91183441291605 34.49132721485421 13.57143659279392  26.65114498138428 34.92696571350098 8.886833190917969  26.26748466491699 34.82594108581543 8.741284847259521  28.13400554656982 32.4555606842041 12.43947982788086  26.37191951912991 35.33277237299009 12.60066480071005  26.44141607514022 36.06066265996216 12.24380942949342  26.80730438232422 35.6811695098877 8.923096656799316  28.37825511804831 32.39230595196507 10.46219986174426  27.86624500563499 32.12775398878345 10.77411704575578  28.58462865837072 30.54036757800872 10.31053117582654  28.74996722908842 30.48673678099824 9.964392378219465  28.31894267769682 30.75841761290742 9.887557699569562  28.14275481645321 30.30415440916445 10.08898106076022  28.66747570037842 30.69266510009766 9.376180648803711  28.83982086181641 30.17264938354492 9.066226959228516  28.49128783913481 30.23840189635468 9.577604009994367  27.86323928833008 28.07121086120605 8.839407920837402  28.50799696976059 28.38016377733268 8.979257511300991  28.14539187485092 28.50861417100944 8.900711940927456  28.28989260727279 28.34494839952507 9.339919017953823  28.42754446137176 28.94601748081283 8.96201596101751  28.78562927246094 28.34869956970215 8.253138542175293  28.28744738632553 29.09706364915886 8.413082050485562  28.60658686691635 28.64735852525749 8.607577251596402  28.87261486053467 28.82013988494873 8.336335182189941  28.46648979187012 28.79840469360352 8.058643341064453  28.1473503112793 29.24810981750488 7.864148139953613  28.55347537994385 29.2698450088501 8.141839981079102  28.9596004486084 29.29158020019531 8.41953182220459  28.69357245499008 29.11879884050407 8.69077389161105  28.50780187603016 29.5402126096794 8.788336144953368  28.44791208263416 29.9807472013542 9.111683713465331  28.62555503845215 30.00341510772705 8.683267593383789  28.8997106552124 29.73211479187012 8.742879390716553  28.41128921508789 29.83418083190918 8.300308227539062  28.68544483184814 29.56288051605225 8.359920024871826  28.2336462592699 29.81151292553633 8.728724347620604  28.05600330345191 29.78884501916348 9.157140467702146  28.76445960998535 25.20395088195801 14.07131958007812  28.64795017242432 24.65861511230469 13.67569971084595  29.0310697555542 24.78259563446045 14.02955961227417  28.70489025115967 24.82019519805908 14.31875467300415  28.64532089233398 24.43643951416016 14.56618976593018  28.58838081359863 24.27485942840576 13.92313480377197  28.97150039672852 24.39883995056152 14.2769947052002  29.29767990112305 24.36124038696289 13.98779964447021  28.91456031799316 24.23725986480713 13.63393974304199  28.53144073486328 24.11327934265137 13.28007984161377  28.66167934584687 29.39869267415986 9.494382571016667  28.40167355005558 29.33033536171857 10.00026456960114  27.98176808662055 29.29907393754686 9.565460212944302  28.24177388241183 29.36743124998816 9.059578214359828  28.47590876688695 29.82010644333519 9.591944824358984  28.89581423032199 29.85136786750689 10.02674918101582  27.90753286978918 28.80930285593025 9.973779958186459  28.16753866558047 28.87766016837154 9.4
[...]
<PointData  Scalars="p"> 
<DataArray  type="Float64"  Name="p"  format="ascii">8.6256832550708218e+00  8.5890703823479821e+00  8.5959035165109565e+00  8.6003956246585620e+00  8.6106951323850360e+00  8.5706000905406867e+00  8.5701569539137150e+00  8.5872291663315199e+00  8.6028771345776569e+00  8.5697976478012290e+00  8.5903214728425716e+00  8.5307223187486567e+00  8.5503457547395847e+00  8.5902159099494675e+00  8.5664443755279009e+00  8.5926243529903115e+00  8.6243256432473796e+00  8.5888937312366966e+00  8.6240709860552531e+00  8.6468180090230522e+00  8.6056304864371409e+00  8.6617765302017204e+00  8.6218085568448188e+00  8.6294344929677074e+00  8.6178037984539486e+00  8.6500694519917776e+00  8.6377404699785938e+00  8.6442371638414954e+00  8.6448819307973590e+00  8.6785471853835183e+00  8.6348839482319697e+00  8.6268107278049975e+00  8.6672728089488427e+00  8.6337764766290572e+00  8.6142099683724442e+00  8.6132392616290350e+00  8.5922162463284284e+00  8.5706288405987472e+00  8.6317647404431650e+00  8.5521290395295448e+00  8.5815530463182128e+00  8.6093871280164471e+00  8.5874405893525800e+00  8.5955909605154446e+00  8.6144323345822240e+00  8.6221730886206078e+00  8.6167907856213066e+00  8.6425446042530734e+00  8.6595768259525094e+00  8.5928570609396928e+00  8.6331828582680430e+00  8.5819871424954517e+00  8.6057553384273486e+00  8.5766908541219795e+00  8.5771052662047662e+00  8.5709622659793929e+00  8.6606258599155197e+00  8.6643921770882848e+00  8.6272423799230609e+00  8.6298788021980481e+00  8.6584700725357635e+00  8.6274508320640191e+00  8.5948348920282296e+00  8.6218650995014983e+00  8.6123525691680989e+00  8.6155784436001017e+00  8.6275891049552964e+00  8.6356716623644747e+00  8.6119860736787714e+00  8.5949104426119316e+00  8.6295075304129210e+00  8.6413572018509495e+00  8.5728221487887346e+00  8.5539119539932962e+00  8.5750908483092374e+00  8.6142875492414444e+00  8.6012260457588958e+00  8.6588805975999783e+00  8.6410147693279225e+00  8.6573015256356687e+00  8.5981990265893486e+00  8.6038457750014405e+00  8.5940900121322734e+00  8.6098526589210689e+00  8.6269391249796605e+00  8.5882742634000824e+00  8.6441168308142426e+00  8.6557880033104215e+00  8.6608162451339989e+00  8.6341591891465104e+00  8.6583848206848799e+00  8.6314417823919367e+00  8.6590150650940299e+00  8.6458111904351753e+00  8.6407241600756350e+00  8.6451090529023507e+00  8.6296358472482293e+00  8.6451688306943808e+00  8.6406332433615223e+00  8.6369022800924729e+00  8.5911521754713291e+00  8.6113941817672366e+00  8.6462777238766630e+00  8.6941031562874613e+00  8.6726050218485309e+00  8.6583970023416583e+00  8.6747499483432087e+00  8.6403895433936935e+00  8.6395509353368301e+00  8.6207974808075072e+00  8.6114387072119456e+00  8.6321227979706094e+00  8.6040274015710700e+00  8.6289360333401692e+00  8.6181484578288874e+00  8.6140083056122378e+00  8.6297524243109009e+00  8.6364318720909701e+00  8.5677181849100794e+00  8.5581715921050190e+00  8.6028925899230817e+00  8.6183847490194747e+00  8.6296929552870179e+00  8.6236423900935240e+00  8.6495031608406787e+00  8.6869987841375060e+00  8.5795509571480064e+00  8.6326785776141808e+00  8.6255004536051754e+00  8.6179940891331022e+00  8.5622764367591895e+00  8.5960004471919689e+00  8.5465258372897797e+00  8.5365592658611344e+00  8.5780106379626506e+00  8.5828466789506255e+00  8.5652045252411124e+00  8.5427801837777047e+00  8.5614882342182774e+00  8.5820526789490295e+00  8.5111975733120193e+00  8.5590839716757348e+00  8.5306328933238902e+00  8.5419810160491156e+00  8.4744759028195880e+00  8.5768082750260390e+00  8.5159545428216479e+00  8.4928333665861580e+00  8.5606399372464956e+00  8.6224091893834505e+00  8.5707939066832619e+00  8.5064264314636056e+00  8.5251839835199004e+00  8.5596324320257935e+00  8.5704208999988385e+00  8.5722910421326830e+00  8.5294304258143807e+00  8.5995520460296042e+00  8.5605713232115406e+00  8.5957368863141959e+00  8.5969155473034444e+00  8.6522107933765131e+00  8.6231194785811898e+00  8.5922004657102242e+00  8.6760688879979018e+00  8.7046539693531724e+00  8.6541175214358290e+00  8.6318232242062294e+00  8.5205738692163688e+00  8.5722772243893655e+00  8.6278443721220519e+00  8.5243743634204474e+00  8.5422642647103793e+00  8.5854773557482034e+00  8.5718118015580647e+00  8.5522236195137022e+00  8.5082240063635481e+00  8.5802916653086676e+00  8.5589130011319341e+00  8.5414680369905138e+00  8.5464097329124975e+00  8.5630395267626067e+00  8.5241888080154773e+00  8.5473129540331083e+00  8.5153960623489269e+00  8.5541454093040148e+00  8.4940908939726665e+00  8.5473078879469444e+00  8.4740705183857212e+00  8.5267051162309215e+00  8.5821255082630632e+00  8.5889782806349544e+00  8.6030072672779472e+00  8.5488867571014318e+00  8.5866194817953794e+00  8.5291232158673917e+00  8.5568975598485189e+00  8.5162814513010971e+00  8.4948024980733017e+00  8.5357717232891499e+00  8.5676112763406476e+00  8.6093793429304419e+00  8.5834952221658583e+00  8.6062800395706418e+00  8.6311849604277242e+00  8.5646848176684109e+00  8.6238478971554642e+00  8.5067598659290464e+00  8.4929019376982833e+00  8.5222097416954412e+00  8.5782807581822365e+00  8.5500631590201674e+00  8.6031271643071872e+00  8.6021601254637794e+00  8.5859233157143020e+00  8.6229727757634933e+00  8.5633036824710107e+00  8.6423136094037876e+00  8.5534467060342099e+00  8.5114236341858476e+00  8.5224410857313995e+00  8.5781083903413826e+00  8.5580059898607406e+00  8.6089506481803202e+00  8.5883621658605787e+00  8.5792209208641310e+00  8.5672500245703702e+00  8.5728199085264638e+00  8.6066209778157639e+00  8.6372056040564331e+00  8.6401750230447139e+00  8.5812188563711942e+00  8.7128783783025980e+00  8.6231316479338229e+00  8.6667763921294672e+00  8.6309437513726035e+00  8.7023028578138213e+00  8.5628228444972194e+00  8.6232592324442727e+00  8.6284617857125046e+00  8.6193665198440090e+00  8.6092543316175547e+00  8.5872273970094462e+00  8.6079852778063657e+00  8.6002336995397552e+00  8.6302009506607416e+00  8.5799296527656779e+00  8.6003735150543736e+00  8.6161650422546838e+00  8.6118439922272660e+00  8.7561904902690095e+00  8.7671831696914992e+00  8.7678498833719729e+00  8.7680588503513359e+00  8.7558994485700143e+00  8.7785926668853023e+00  8.7787711164594153e+00  8.7673774183290583e+00  8.7548825175235212e+00  8.7788059878987248e+00  8.8041956585842964e+00  8.8171106194964999e+00  8.8078475961422846e+00  8.8014622876087500e+00  8.8151203680894739e+00  8.8247528714003263e+00  8.8119993499154692e+00  8.7988526539293055e+00  8.8050309269089375e+00  8.8129874122327116e+00  8.7487708138767175e+00  8.7541215607553386e+00  8.7580838384450654e+00  8.7590611485092964e+00  8.7717885783679606e+00  8.7665490957756376e+00  8.7672318365961139e+00  8.7607778733480224e+00  8.7582069647511549e+00  8.7601806368858899e+00  8.7024275878509396e+00  8.6962762330592636e+00  8.7070513810206087e+00  8.7072340344588071e+00  8.7036379484745634e+00  8.7019699659895444e+00  8.6914585360246051e+00  8.6791344705158515e+00  8.7118953641943619e+00  8.8278051077424688e+00  8.8132456248756430e+00  8.8256613031884434e+00  8.8142299249898546e+00  8.8282502234090927e+00  8.8280144977651975e+00  8.8243674436664552e+00  8.7998998142615665e+00  8.8106446926908752e+00  8.8209804840180936e+00  8.6784615887745868e+00  8.7044808635360891e+00  8.6931621928529292e+00  8.6954588343150796e+00  8.6929090815045562e+00  8.7137825432741725e+00  8.7080136356760871e+00  8.7087125945563226e+00  8.7044496355795111e+00  8.7057060766249279e+00  8.7478190272307490e+00  8.7065855539127845e+00  8.7428372376986037e+00  8.7240106380421452e+00  8.7478035249665194e+00  8.7261732993715686e+00  8.7646116109720964e+00  8.7425990127333275e+00  8.7214779227190977e+00  8.7423082220460664e+00  8.7324442923701042e+00  8.7422342622727403e+00  8.7376569087987974e+00  8.7367181627040260e+00  8.7474988901547768e+00  8.7529972635397240e+00  8.7411766752769893e+00  8.7300242170123603e+00  8.7331278045620202e+00  8.8321806159403735e+00  8.8283717440847678e+00  8.8310314681326183e+00  8.8314683029166936e+00  8.8294048637108062e+00  8.8311336622590169e+00  8.8308669571015290e+00  8.8294166233622011e+00  8.8276086506624480e+00  8.8298521801708052e+00  8.7083400654677821e+00  8.7076187325574068e+00  8.7061050703674869e+00  8.7132889932442268e+00  8.7030376298024610e+00  8.7012851175890944e+00  8.6938583211429759e+00  8.6960900403954700e+00  8.6980469391422961e+00  8.7178958674420848e+00  8.7998820870407339e+00  8.7673701768798420e+00  8.7890145191121309e+00  8.7834581215216581e+00  8.7821310378882576e+00  8.7667468284132202e+00  8.7733743704442251e+00  8.7592468591488615e+00  8.7590050411154632e+00  8.7813920790662099e+00  8.8831000608480970e+00  8.8711106337061203e+00  8.8845604920606522e+00  8.8852173186826739e+00  8.8706658576180484e+00  8.8567085094265305e+00  8.8705449912387841e+00  8.8864185591558034e+00  8.8839058514950153e+00  8.8833701791730313e+00  8.7961721751509838e+00  8.7983771624306542e+00  8.7900619308430290e+00  8.8105981305601322e+00  8.8049863334347975e+00  8.8137950687456037e+00  8.8193000326663071e+00  8.8236707558462619e+00  8.8036236815390509e+00  8.7837405590141433e+00  8.6582193078204632e+00  8.6635482935124539e+00  8.6427534550794416e+00  8.6655498433727232e+00  8.6562324714605996e+00  8.6424847785966357e+00  8.6559691254855764e+00  8.6501712319001385e+00  8.6722733701253105e+00  8.8620062675210356e+00  8.8683337278589374e+00  8.8806318416464922e+00  8.8588714852047907e+00  8.8569202070195878e+00  8.8654710861265347e+00  8.8790897154621078e+00  8.9047405831811695e+00  8.8908452802550784e+00  8.8744283417088639e+00  8.8994103812083694e+00  8.8899453736902494e+00  8.8913856134720390e+00  8.8914931236440360e+00  8.8902925627055289e+00  8.8997843571667890e+00  8.9004561368560005e+00  8.8855130054246150e+00  8.8848878199775623e+00  8.8804016844171958e+00  8.8097975916691951e+00  8.8199617728803066e+00  8.8078839892801195e+00  8.7873997958918650e+00  8.8006740214364569e+00  8.7882503246559569e+00  8.7992170764713205e+00  8.8113539705424557e+00  8.7904813469145875e+00  8.6972089250197033e+00  8.7126393677913274e+00  8.6969565363008279e+00  8.6942783247172795e+00  8.7113281848221451e+00  8.7261082209074026e+00  8.7078205343546546e+00  8.6907344830727009e+00  8.6937964156897074e+00  8.6973200081564439e+00  8.7565240734975820e+00  8.7778638092702330e+00  8.7639937226216720e+00  8.7580900028133115e+00  8.7757408084736301e+00  8.7837881383385668e+00  8.7591992658888600e+00  8.7653394122963668e+00  8.7710413169027834e+00  8.8286482721929538e+00  8.8271835968656269e+00  8.8313681538197670e+00  8.8280742486874413e+00  8.8244038157344118e+00  8.8181147057310678e+00  8.8238784329747357e+00  8.8272579935524647e+00  8.8301819221463429e+00  8.8345245947846234e+00  8.8251285666878001e+00  8.8187489629707141e+00  8.8114265478581562e+00  8.8130969212779888e+00  8.8052828643033063e+00  8.8066674457974106e+00  8.7983456048104109e+00  8.7978456825107614e+00  8.8137735536258504e+00  8.8445198358449204e+00  8.8480887013116956e+00  8.8658808534142519e+00  8.8415252902821440e+00  8.8496855144404805e+00  8.8369247096062047e+00  8.8602352047057593e+00  8.9174594241116445e+00  8.9059038193219671e+00  8.9047282548428868e+00  8.9090650792414880e+00  8.8928480263985072e+00  8.8943848120008493e+00  8.8949649810227438e+00  8.8205117113009912e+00  8.8261058065449589e+00  8.8158734138659103e+00  8.8265891473545537e+00  8.8209850207317420e+00  8.8159676004091132e+00  8.8100378832021988e+00  8.8214242642760041e+00  8.8253297330678002e+00  8.8319211505987258e+00  8.7215045490410557e+00  8.7376873674435451e+00  8.7407971872409824e+00  8.7159216033559428e+00  8.7197213825744910e+00  8.7100660845109932e+00  8.7057105569714235e+00  8.7370621314303811e+00  8.7148833758083057e+00  8.7214750042769467e+00  8.7170105480438540e+00  8.7278889348542030e+00  8.7192126744807208e+00  8.7182482472635652e+00  8.7268060288181104e+00  8.7307330123060787e+00  8.7426480953171435e+00  8.7163978902121553e+00  8.7317324386133812e+00  8.7383770946616792e+00  8.7324200875124802e+00  8.7267511092624623e+00  8.7427164041747911e+00  8.7206227865401154e+00  8.7536560240336190e+00  8.7173548494923399e+00  8.7223877558162553e+00  8.8076214739161038e+00  8.8027326839605209e+00  8.7885048034681805e+00  8.7929458122849180e+00  8.7771706356296679e+00  8.7843930141384998e+00  8.7894678783919282e+00  8.7687780335415244e+00  8.7998950891059966e+00  8.8587824540591011e+00  8.8571785177048028e+00  8.8732358793238575e+00  8.8458875537421573e+00  8.8368027468335466e+00  8.8459204626842975e+00  8.8846079551042987e+00  8.8663620188316283e+00  8.8524150817357032e+00  8.7300777006133519e+00  8.7481104062573429e+00  8.7586121099688565e+00  8.7436399070552646e+00  8.7443637755598953e+00  8.7345825493003098e+00  8.7587257319736302e+00  8.7482656373640530e+00  8.7581324934374436e+00  8.7379653695696486e+00  8.7273457941991808e+00  8.7406547488687192e+00  8.7240722133855559e+00  8.7312575828858527e+00  8.7779339440724442e+00  8.7876856696479031e+00  8.7840398378560973e+00  8.7953868539120776e+00  8.7705240540422995e+00  8.7907074629637343e+00  8.7653536884865755e+00  8.8019896970904945e+00  8.8074990320808002e+00  8.8122634146868126e+00  8.7478806848504789e+00  8.7389276575831936e+00  8.7389020675388256e+00  8.7294673410906913e+00  8.7485704039283938e+00  8.7479865137972439e+00  8.7216911084482813e+00  8.7295252976622510e+00  8.7300253609947891e+00  8.9095894919071306e+00  8.9114570187692568e+00  8.9247862931131099e+00  8.9152144573207348e+00  8.9090777616085237e+00  8.9325102424858365e+00  8.9268743830790065e+00  8.9476383205236765e+00  8.9056658217824101e+00  8.9183812486516256e+00  8.8382276575088135e+00  8.8281100273820670e+00  8.8223264914468782e+00  8.8255652459107683e+00  8.8410934089717035e+00  8.8194625933510462e+00  8.8011325834547058e+00  8.8078631335031972e+00  8.8437310022463276e+00  8.7043640285641679e+00  8.7018693247568173e+00  8.7033967651006403e+00  8.7041772956728920e+00  8.7047695029572889e+00  8.7033069959936658e+00  8.7050361497331821e+00  8.7068176221145439e+00  8.7049352209865756e+00  8.7010991710416317e+00  8.7368456190151296e+00  8.7410457364308254e+00  8.7396286577457900e+00  8.7515845949920035e+00  8.7462738440346559e+00  8.7352977324611256e+00  8.7254726350915064e+00  8.7183727510127778e+00  8.7128500796587467e+00  8.7168900174326076e+00  8.7170635986789495e+00  8.7149209648849180e+00  8.7129120385374392e+00  8.7153198271462404e+00  8.7114408735438769e+00  8.7190941656435630e+00  8.6995376653910164e+00  8.6974533545988191e+00  8.6967653381798335e+00  8.7029733861359126e+00  8.7023522336837953e+00  8.6975924694697468e+00  8.6971489670416808e+00  8.8009724761168044e+00  8.7990903610258009e+00  8.7939693499920146e+00  8.8061392729583190e+00  8.7901464920747845e+00  8.8025422718430182e+00  8.7986674922861905e+00  8.7861846283043867e+00  8.7958541303285802e+00  8.8684419557529246e+00  8.8643051792921685e+00  8.8569039179679692e+00  8.8636960689367381e+00  8.8602598981081027e+00  8.8529057092577457e+00  8.8605610946797491e+00  8.8540217224749984e+00  8.8461204374369338e+00  8.8602512734254102e+00  8.7372427120704685e+00  8.7082869763701982e+00  8.7105984370894891e+00  8.7316095596920107e+00  8.7166267409103622e+00  8.7150492073323438e+00  8.6953711362540780e+00  8.6940614157169875e+00  8.7257912639661992e+00  8.6933961672265649e+00  8.8510588835752895e+00  8.8349926151721405e+00  8.8441502031157206e+00  8.8407831543484416e+00  8.8468807422407227e+00  8.8322231757625662e+00  8.8404657525409203e+00  8.8378852027552099e+00  8.8459694312783199e+00  8.8317784309360245e+00  8.8243112927855023e+00  8.8508925089865080e+00  8.8404122420924196e+00  8.9831849463392803e+00  8.9711789596868439e+00  8.9422230039955171e+00  8.9648179391720983e+00  8.9569159176580353e+00  8.9880204666676473e+00  8.9504910350044344e+00  8.9269703060044190e+00  8.9911585096214637e+00  8.9511806319045313e+00  8.6658449683949055e+00  8.6883385300234330e+00  8.6663183512675115e+00  8.6832569980271899e+00  8.6742721406481387e+00  8.6791976942411271e+00  8.6741028565613192e+00  8.6836478349322430e+00  8.6697834043883262e+00  8.8917620598152940e+00  8.8848081759369819e+00  8.8798432941793575e+00  8.8878506282665040e+00  8.8858042237097052e+00  8.8915690018546503e+00  8.8811064963034205e+00  8.8855224570524474e+00  8.8902057402726680e+00  8.9132147298602860e+00  8.9005622829616122e+00  8.9096333371035801e+00  8.9058650034207556e+00  8.9053820110973270e+00  8.9006373271985257e+00  8.9020349801365999e+00  8.9052875932311881e+00  8.8983729247456029e+00  8.9070686336767348e+00  8.8741205312062306e+00  8.8617983028122591e+00  8.8700398847633135e+00  8.8684489797465105e+00  8.8672209495179981e+00  8.8619517905973098e+00  8.8641490165466941e+00  8.8634673713735204e+00  8.8661724337165424e+00  8.8891464411561625e+00  8.8691929868874482e+00  8.8685077941084067e+00  8.8704063463051916e+00  8.8546845027340471e+00  8.8548732333507765e+00  8.8537688356772932e+00  8.8518176381802434e+00  8.8543630139992384e+00  8.8547603376094965e+00  8.6567051690044146e+00  8.6613563179941551e+00  8.6600088503933197e+00  8.6557268596556085e+00  8.6553547769389123e+00  8.6621214855782132e+00  8.6679591804904597e+00  8.6548430717654927e+00  8.6544532053384149e+00  8.6531422340617059e+00  8.6810925927308720e+00  8.6732878240891100e+00  8.6683286869790450e+00  8.6592035963190419e+00  8.6455217892710454e+00  8.6629863802325051e+00  8.6655037543710662e+00  8.8872121051505939e+00  8.8775498446897672e+00  8.8816444721386194e+00  8.8693672588045249e+00  8.8825858571421730e+00  8.8561448619751353e+00  8.8648238956000451e+00  8.8690870740886432e+00  8.8821423104260013e+00  8.8749269904076087e+00  8.7277249742832375e+00  8.6974470601850946e+00  8.7125312654863549e+00  8.6984492175340957e+00  8.7115012392167941e+00  8.6622225308534180e+00  8.6866748692022728e+00  8.6755814178905624e+00  8.6854921894006694e+00  8.8663064692705991e+00  8.8570024017596243e+00  8.8595627196316133e+00  8.8623547044329563e+00  8.8614156491573848e+00  8.8567812693236565e+00  8.8541635034613346e+00  8.8590598359580124e+00  8.8552198406820892e+00  8.8510669519551861e+00  8.9510821224844701e+00  8.9538524457253583e+00  8.9448254830991605e+00  8.9434507954874700e+00  8.9305959053094739e+00  8.9552838576651048e+00  8.9359692998615792e+00  8.7262208929907032e+00  8.7110846252303453e+00  8.7107394012932371e+00  8.7149991339217028e+00  8.7279194865676057e+00  8.7253676135168341e+00  8.7260093978738862e+00  8.7245185226164104e+00  8.7259157035051746e+00  8.7001683342852587e+00  8.7186136508784191e+00  8.7355337354484153e+00  8.7354947001626293e+00  8.7299217469853811e+00  8.7480103309429964e+00  8.7476047615852135e+00  8.7294195371108305e+00  8.7104008949936222e+00  8.7211451919342018e+00  8.7132196331592056e+00  8.7197507157620162e+00  8.7318324341806441e+00  8.7075287928066558e+00  8.7023928729437188e+00  8.6866543467791413e+00  8.7442691332289186e+00  8.6790852085454713e+00  8.7027207002292553e+00  8.7399651444697035e+00  8.7813198894827558e+00  8.7596667681280262e+00  8.7694522177899916e+00  8.7636837017787883e+00  8.7702541805393643e+00  8.7466389408806808e+00  8.7528138017885873e+00  8.7592775516856527e+00  8.8822148774782921e+00  8.8519357626343123e+00  8.8695445515122486e+00  8.8713008297154001e+00  8.8626053266484686e+00  8.8600360870819657e+00  8.8585931467118630e+00  8.8520689385398992e+00  8.8465689328893191e+00  8.7410907887268490e+00  8.7531412006420677e+00  8.7676515939540742e+00  8.7553291711571379e+00  8.7476362227147835e+00  8.7346657222555404e+00  8.6419693136309199e+00  8.6396995359749038e+00  8.6557947334885359e+00  8.6619512552562732e+00  8.6319642204925948e+00  8.6142983961793025e+00  8.6923615259357856e+00  8.7005408320468369e+00  8.7101835613953558e+00  8.6918653775502950e+00  8.6827752151282631e+00  8.7038948312280571e+00  8.6936454545310475e+00  8.6918158362740687e+00  8.6891775412394914e+00  8.7066500085519358e+00  8.6920545991192526e+00  8.6755945177387730e+00  8