<?xml version="1.0"?>
<VTKFile type="UnstructuredGrid"  version="0.1"  >
<UnstructuredGrid>
<Piece  NumberOfPoints="6883" NumberOfCells="31411">
<Points>
<DataArray  type="Float64"  NumberOfComponents="3"  format="ascii">29.4379997253418 11.04088973999023 18.72356033325195  29.50073162361956 10.2804848344903 18.3381606581  30.01693218041515 10.57132999899041 18.06807856710625  29.74439814584037 10.57848164837272 18.70182885328202  29.19433320312098 10.74289292610781 18.35989213806992  29.71053375991658 11.03373809060792 18.08981004707618  29.98306779449135 11.0265864412256 17.4560597609004  29.46686723769576 10.73574127672549 17.72614185189415  28.95066668090017 10.44489611222539 17.9962239428879  30.05079656633895 10.11607355675521 18.6800973733121  29.8376407623291 11.76027965545654 18.24045944213867  30.24950477864787 11.02683945573282 18.06710818726581  29.91035427841023 11.39343304834107 17.84825960151954  29.50470924377441 11.9337797164917 17.47977066040039  30.12416901382283 11.54536814889649 17.20486989967628  30.14471401962117 11.61521334848145 17.61727968208594  29.74388851913288 11.48018307885865 17.4679152106504  29.88498973846436 11.99896478652954 17.21672534942627  29.9055347442627 12.0688099861145 17.62913513183594  30.30636024475098 12.2038402557373 17.77849960327148  30.28581523895264 12.13399505615234 17.36608982086182  30.2652702331543 12.06414985656738 16.95368003845215  29.14554799346522 10.1709377220978 18.54135728699571  29.38921451568604 10.46893453598022 18.90502548217773  29.34042930603027 9.896979331970215 19.08649063110352  29.73483910354451 11.50019831857423 17.01729455940528  29.49565982818604 11.95379495620728 17.02915000915527  29.48661041259766 11.97381019592285 16.57852935791016  29.80941169972305 10.1549210172123 17.82520478837539  29.29321114292746 9.864075852712197 18.09528687936913  29.67117500305176 11.84702968597412 17.86011505126953  30.07200050354004 11.98205995559692 18.00947952270508  30.52406129140022 11.33463739888902 17.65880358816107  29.28266095322246 10.07927598608406 17.32089808831972  23.27552032470703 6.364998817443848 9.283381462097168  22.46651902266972 6.48166520125947 8.979071463155268  22.89769628586138 6.72216885034427 9.224130244900923  22.98498999059958 6.763904807866559 8.776381320703557  22.84434306151537 6.124495168359047 9.038322680351513  22.41316579832372 5.883991519274248 8.793263898605858  22.51987224701572 7.079338883244692 9.16487902770468  21.96242904663086 6.471183776855469 9.545368194580078  22.18779742247729 6.177587648064858 9.169316046592968  22.06602954864502 5.924479961395264 9.625584602355957  21.72009468078613 6.032158851623535 9.345222473144531  23.19116973876953 7.157869815826416 9.763742446899414  23.14708593429888 7.206430839937775 9.108240218808394  22.85552099289263 7.118604349535554 9.464310737302046  23.23334503173828 6.761434316635132 9.523561954498291  23.52490997314453 6.849260807037354 9.167491436004639  23.48273468017578 7.245696306228638 9.407671928405762  23.77429962158203 7.333522796630859 9.051601409912109  22.59053113998735 6.665658878725617 9.451492877652388  22.24115064682329 6.77526133005008 9.355123611142378  22.31180953979492 6.361581325531006 9.641737461090088  22.66119003295898 6.251978874206543 9.738106727600098  22.53717791564135 6.067985196740395 9.265685313102978  22.96835517883301 6.308488845825195 9.510744094848633  21.84991824156909 6.132149358422524 8.760735743400829  21.62454986572266 6.425745487213135 9.136787891387939  21.28667068481445 6.380307197570801 8.728207588195801  23.99087905883789 7.91362190246582 8.300700187683105  23.61570397242183 7.305352231051701 7.698726709885413  23.56482565918082 7.784829937226609 7.856731033018204  23.34266935766501 7.538216350377545 8.285040683496526  23.13877225952374 7.656037971987399 7.412761878353303  22.43355941772461 6.926178932189941 10.26354026794434  22.47671583237016 7.002758907717316 9.714209647824507  22.5473747253418 6.589078903198242 10.00082349777222  22.19799423217773 6.698681354522705 9.904454231262207  23.23437963903708 7.248166797460065 8.660491294611028  22.69445965649212 7.16281079828927 8.269381179309946  22.60716595175392 7.121074840766981 8.717130103507312  22.92617988586426 6.704924345016479 9.750924587249756  22.81236457824707 7.042024374008179 10.01364135742188  22.20681233055982 7.88242865563894 6.398167792915405  22.08011374074345 7.922234383005256 7.050992121999414  22.67279229504178 7.76923331381317 6.905464835634354  22.45359718575407 8.441219888102045 7.280591268067957  22.54609370522541 7.809039041179485 7.558289164718364  21.95341515092708 7.962040110371571 7.703816451083424  21.81158065795898 7.487373828887939 9.756502151489258  22.16572645248735 7.283356356066315 9.460690589596968  21.88700485229492 6.979278802871704 9.650935173034668  22.1225700378418 7.20677638053894 10.0100212097168  22.91812992095947 5.760334968566895 9.537691593170166  22.29139792449145 5.630883832604653 9.249532454368847  22.41541004180908 5.814877510070801 9.721953868865967  22.16963005065918 5.377776145935059 9.705801010131836  21.43733978271484 7.259790897369385 8.972145080566406  21.90327146591509 6.729823040407746 8.94654330795024  21.97860601486528 7.169564890307038 9.068512054135542  21.69988441467285 6.865487337112427 9.258756637573242  21.62446022033691 7.373582363128662 9.364323616027832  23.32023048400879 8.547385215759277 7.566911220550537  22.63682281746793 8.254712663065424 7.63536383581698  23.22950137176626 8.101711593873338 7.48983654945192  21.03409957885742 8.78461742401123 10.55300998687744  21.69843197251493 8.691078328520021 10.58558908821695  21.20162487030029 8.477824687957764 10.33292484283447  21.16788005828857 8.342902183532715 10.70046520233154  21.30166053771973 7.901186943054199 10.84792041778564  21.83221245194608 8.249363088041505 10.73304430367105  21.33540534973145 8.036109447479248 10.48038005828857  21.36915016174316 8.171031951904297 10.1128396987915  21.8659572639578 8.384285592466554 10.36550394417398  22.36276436617244 8.597539233028813 10.61816818955646  27.50148963928223 9.181827545166016 9.156952857971191  27.48559250272173 9.254064304492665 9.897022041190379  27.69815061792781 8.885517198221823 9.513519440380506  27.20518745816607 9.082558853290273 9.69026115785908  27.78189468383789 9.353332996368408 9.36371374130249  28.06229972839355 9.524838447570801 9.570474624633789  20.04292789381959 13.95553186029079 10.72307908226891  20.77918998493439 13.63314924880411 10.25722767693153  21.10694366038742 13.81950581684904 10.67361283083627  20.30118743307914 13.50765011316279 10.83540910537381  20.55944697233869 13.0597683660348 10.94773912847871  20.73398017883301 11.66693019866943 13.36250019073486  21.00562113988092 11.03426933548271 13.51792000640108  21.08657664525201 11.3217792536956 13.19462012160494  20.6419849395752 11.21658515930176 13.27262020111084  20.65302467346191 11.37942028045654 13.68580007553101  20.57206916809082 11.09191036224365 14.00909996032715  20.5610294342041 10.92907524108887 13.59592008590698  20.54998970031738 10.76624011993408 13.18274021148682  20.9945814059942 10.87143421432792 13.10474013198091  21.43917311167102 10.97662830872176 13.02674005247501  26.59320068359375 12.78983974456787 15.48077011108398  26.85147798150923 12.62749017051222 14.89416824517817  26.48358741043703 12.6667432333031 14.94011500750774  26.78806018829346 12.9310998916626 15.06862497329712  26.98291969299316 13.07236003875732 14.65647983551025  27.04633748620894 12.76875031760695 14.4820231073913  26.67844691513674 12.80800338039783 14.52796986972087  26.37397413728031 12.54364672203833 14.39945990393149  26.74186470835252 12.50439365924745 14.35351314160192  27.10975527942472 12.46514059645657 14.30756637927236  23.32143974304199 7.044608116149902 10.50963973999023  22.94694365985016 7.709663658312172 10.81824759936639  23.34914778553229 7.461494248343558 10.41124584645104  23.44619374225474 7.466689441883628 10.8184187561896  22.91923561735987 7.292777526118516 10.91664149290559  22.51703149167774 7.54094693608713 11.32364324582094  23.04398961657261 7.714858851852242 11.22542050910496  23.57094774146748 7.888770767617354 11.12719777238897  23.47390178474503 7.883575574077284 10.72002486265041  23.37685582802258 7.878380380537214 10.31285195291185  24.75614929199219 10.79708003997803 9.108000755310059  24.62963765774605 10.46677110753525 9.844471166040675  24.81416753538483 10.04871130371444 9.384614361374096  25.00180200346344 10.44026136780136 9.495985878555492  24.19635047819619 10.432039715625 9.345114525613845  24.3839849462748 10.82358977971192 9.456486042795241  24.56851482391357 10.40552997589111 8.996629238128662  24.38088035583496 10.0139799118042 8.885257720947266  24.01182060055742 10.85009951944581 9.804971330280424  25.24745471493469 10.08344269562469 9.883971001800926  19.85285949707031 9.599264144897461 8.020384788513184  20.33176599958516 10.21548015394532 8.159127477635938  20.31879632893011 9.646901107979438 7.737476943375103  20.21916120472356 9.659652210426948 8.247321723343365  20.58546291237681 9.720040275956434 8.474258658173545  27.57074155008795 10.0596657366476 12.03946721730708  26.8478048797963 9.587287454859947 11.86822136812717  27.25053888507635 9.207259995606961 11.79113783235678  27.23800851712621 9.526858267880632 12.25364514645448  27.18053791275804 10.12009492362691 11.65404343897977  26.79033427542814 10.18052411060623 11.26861966065247  26.86033524774643 9.267689182586274 11.40571405402948  26.90527548416446 8.994050799113666 12.46782307560188  26.9178058521146 8.674452526839994 12.00531576150418  26.93033622006473 8.354854254566323 11.54280844740649  20.86763000488281 11.28555011749268 12.49015045166016  21.41910760791475 11.58987813533869 12.87644953790967  21.60159095590615 11.20114580991404 12.39841378724219  21.13333605452065 11.74433903972414 12.60815473750224  21.15340155827692 11.13108921310722 12.75844525206758  21.58152545214989 11.81439563653097 12.248123
[...]
<PointData  Scalars="p"> 
<DataArray  type="Float64"  Name="p"  format="ascii">8.6116452864479580e+00  8.6153728221569015e+00  8.5907470529917482e+00  8.6001571729363331e+00  8.6287933893924027e+00  8.6015799002970894e+00  8.5875699334280764e+00  8.6138317068742829e+00  8.6399037322334884e+00  8.5908494459522338e+00  8.5863827468657874e+00  8.5787693820658291e+00  8.5896928756736770e+00  8.6075836493168421e+00  8.5754463355320052e+00  8.5761449055278423e+00  8.5963279241753838e+00  8.5835262687576179e+00  8.5806290949058717e+00  8.5618535124393222e+00  8.5605265216302815e+00  8.5585350448776403e+00  8.6344246272365268e+00  8.6162879159714034e+00  8.6248510533380767e+00  8.5954819960052173e+00  8.6088910812394950e+00  8.6094731986217923e+00  8.6009318636502172e+00  8.6265015889980940e+00  8.5966304204729784e+00  8.5741314681515419e+00  8.5630947676453246e+00  8.6225010699044891e+00  8.7564249107930614e+00  8.7656574426512748e+00  8.7716543814589993e+00  8.7634167717966083e+00  8.7537642841605017e+00  8.7515531452235571e+00  8.7841028846861686e+00  8.7731701630514323e+00  8.7612705469764673e+00  8.7562980806598087e+00  8.7583698226533357e+00  8.7988678618093630e+00  8.7790122262971533e+00  8.7892202104592663e+00  8.7760841005757566e+00  8.7618641899382474e+00  8.7840304408306089e+00  8.7672991588755682e+00  8.7775331789711135e+00  8.7806239688745986e+00  8.7713438482896589e+00  8.7674600447854836e+00  8.7575373369013239e+00  8.7636428783923144e+00  8.7593767867584447e+00  8.7671847113701613e+00  8.7643243416914611e+00  8.7618134855019072e+00  8.7467650178849201e+00  8.7614129302413186e+00  8.7677361662163324e+00  8.7633101893387391e+00  8.8220342911616196e+00  8.7953978374015023e+00  8.7892427335586092e+00  8.7907862434492756e+00  8.7689188958649904e+00  8.7704204563335324e+00  8.7766555424569752e+00  8.7834843947719907e+00  8.8079738756087185e+00  8.7754435197228631e+00  8.7841446022229501e+00  8.7702971758182020e+00  8.7951263491434908e+00  8.7799197899120713e+00  8.7929769784645995e+00  8.8137321651767575e+00  8.7982639594652383e+00  8.7930074354971008e+00  8.8137796803029822e+00  8.7491026548824387e+00  8.7493680621018068e+00  8.7537819820685936e+00  8.7449379081667420e+00  8.7906209416620857e+00  8.7744981096277126e+00  8.7882059441474762e+00  8.7819058759912831e+00  8.8003724916550752e+00  8.7881645708750913e+00  8.7911172429367337e+00  8.7735906579341272e+00  8.8581200054960512e+00  8.8533452237697325e+00  8.8509562994278994e+00  8.8591334817282679e+00  8.8629516785428724e+00  8.8525606517711868e+00  8.8513946727276629e+00  8.8417880439459502e+00  8.8446239848875443e+00  8.8441349373089260e+00  8.6870027625912343e+00  8.6947338765760467e+00  8.6763220436761621e+00  8.6979820551669338e+00  8.6855684529482300e+00  8.6839072429062867e+00  8.9615320712356556e+00  8.9469050051524874e+00  8.9414126828758107e+00  8.9502316885787714e+00  8.9387500075412376e+00  8.9236302802869858e+00  8.9227981285847360e+00  8.9164388360016407e+00  8.9218206053409475e+00  8.9260969762845637e+00  8.9435171845466019e+00  8.9363095221998456e+00  8.9284769942022280e+00  8.9167726783452146e+00  8.9071895432781467e+00  8.7344922554980116e+00  8.7409878402122558e+00  8.7495499076980359e+00  8.7403838803509135e+00  8.7473374472536651e+00  8.7461600491858711e+00  8.7549360526917201e+00  8.7629712302815239e+00  8.7534831112724270e+00  8.7441534119901210e+00  8.8250557830190015e+00  8.8347506580562758e+00  8.8195554817969413e+00  8.8251316347431121e+00  8.8394564634363686e+00  8.8554804656425823e+00  8.8410148705493654e+00  8.8257109205356539e+00  8.8218447721229936e+00  8.8171721038776010e+00  8.8196805729242218e+00  8.8148693405436429e+00  8.8023038758942693e+00  8.8046548601449537e+00  8.8254448636282969e+00  8.8286694143153461e+00  8.8163929475289891e+00  8.8146578279451031e+00  8.8371867514576223e+00  8.7896127834209299e+00  8.8722861361323506e+00  8.8783991823463904e+00  8.8638837157164936e+00  8.8680023910267085e+00  8.8642844369064004e+00  8.7134469197235109e+00  8.7290988524596980e+00  8.7074506795075184e+00  8.7141024696361331e+00  8.7276340317497194e+00  8.7416673838528798e+00  8.7219975985337435e+00  8.7174146472959890e+00  8.7102014660957092e+00  8.7019036378788481e+00  8.9094093328341657e+00  8.9101648074388251e+00  8.8986104749181454e+00  8.9144898893957958e+00  8.9090313054699894e+00  8.9053765658230084e+00  8.9021115544568197e+00  8.8936611656321176e+00  8.9183928938294343e+00  8.7968198363983454e+00  8.7764670482227451e+00  8.7761538129585652e+00  8.7694825325952852e+00  8.7396022568316774e+00  8.7467343181578343e+00  8.7489505953279245e+00  8.7586486558890293e+00  8.7555966175643007e+00  8.7528651190505649e+00  8.8191867473555074e+00  8.8183030376456166e+00  8.8275045682394317e+00  8.8157664257000761e+00  8.8089503488459293e+00  8.8186476150969124e+00  8.8834258920830091e+00  8.8800815144167764e+00  8.8670350310697383e+00  8.8889529568151762e+00  8.8768514090286583e+00  8.8786427200023255e+00  8.8730238341643748e+00  8.8708602496619164e+00  8.8915698993201051e+00  8.9440754612392617e+00  8.9350672132699547e+00  8.9401449596589249e+00  8.9437764809072942e+00  8.9316817081606548e+00  8.9366946331182469e+00  8.9391288110947773e+00  8.9361664025847869e+00  8.9268753440394466e+00  8.9426825424802701e+00  8.9088283303006133e+00  8.8994331512277078e+00  8.8978719747660353e+00  8.8960509015130036e+00  8.9095194246122880e+00  8.8861153356657834e+00  8.8869249418829028e+00  8.8979247935852666e+00  8.8866793553725998e+00  8.7137248089515023e+00  8.7365037754753168e+00  8.7384735827029605e+00  8.7146738518625533e+00  8.7344131966340104e+00  8.7386679042220976e+00  8.7622627495680998e+00  8.7591882363121858e+00  8.7250046636996377e+00  8.7011665118803094e+00  8.7187476715710517e+00  8.7134126693136764e+00  8.7087702737633670e+00  8.7026518609191559e+00  8.7068933384809490e+00  8.6984379833854675e+00  8.9102671058313980e+00  8.9186995431984162e+00  8.9070776648499965e+00  8.9091317819662539e+00  8.9243868801466242e+00  8.8964809085575283e+00  8.8977845704693213e+00  8.8852538819640543e+00  8.9356837025500351e+00  8.8899651386874723e+00  8.8992509243913371e+00  8.8897355838536747e+00  8.8908536730725434e+00  8.8994975777656897e+00  8.8904129581670013e+00  8.9004655385479108e+00  8.9093035201434230e+00  8.8878000784401010e+00  8.8552988027338380e+00  8.8599963635038410e+00  8.8442868578142768e+00  8.9045159734077508e+00  8.9003052812198771e+00  8.8928543843759833e+00  8.8956120596045114e+00  8.9073639279886763e+00  8.9156285659191266e+00  8.8978686148753177e+00  8.8863133469626447e+00  8.8831408599224044e+00  8.8792998549574715e+00  8.9066198125710727e+00  8.8907103137353261e+00  8.9001069345921664e+00  8.8997809702284041e+00  8.8953149626391532e+00  8.9045951774956738e+00  8.8960829773344106e+00  8.8862932428145989e+00  8.8930850133342982e+00  8.8628223950923548e+00  8.8553352786447732e+00  8.8595271706965875e+00  8.8562508127538173e+00  8.8620333739180328e+00  8.8633987310962201e+00  8.8510902112314938e+00  8.8592206015423507e+00  8.8486570762198511e+00  8.8542080728408514e+00  8.8683632695934911e+00  8.8611328926397555e+00  8.8497034438837172e+00  8.8657489818152850e+00  8.8481710821786059e+00  8.8643185550289445e+00  8.8520167650008243e+00  8.8350195924280222e+00  8.8599993426703758e+00  8.8642063407184608e+00  8.9077880230653115e+00  8.9055799575942611e+00  8.9031580689761007e+00  8.9283148791946232e+00  8.9431526104094807e+00  8.9214288426980328e+00  8.9210986686039959e+00  8.8987321331524836e+00  8.9010698508258432e+00  8.9028626592853808e+00  8.8355323513006407e+00  8.8161090612551050e+00  8.8293159442816336e+00  8.8201533233245257e+00  8.8311276879176059e+00  8.8179861681866587e+00  8.8075308657296230e+00  8.8074049075040595e+00  8.8173222337805832e+00  8.8158836204500464e+00  8.8173695497335522e+00  8.8032744032659611e+00  8.8058707678135555e+00  8.8011590470258056e+00  8.8056143560921747e+00  8.8286429123025716e+00  8.8087864425565456e+00  8.7757006440747869e+00  8.7694694825650359e+00  8.7649007158784915e+00  8.7778707579159700e+00  8.7802109571760365e+00  8.7715002833320899e+00  8.7665880292519525e+00  8.7531300433523231e+00  8.7581441175745738e+00  8.7643356145750477e+00  8.7621390700816271e+00  8.7811731099049375e+00  8.7642729110749311e+00  8.7607662606014660e+00  8.7793630875087203e+00  8.7632094830308223e+00  8.7795004235835599e+00  8.7967491748246776e+00  8.7596924653711010e+00  8.7737835074766011e+00  8.7539422917386247e+00  8.7716788075049017e+00  8.7860328750557315e+00  8.7881126400816996e+00  8.7690726624216175e+00  8.7500448296366198e+00  8.7703401298718600e+00  8.8880351431376177e+00  8.8799602464306684e+00  8.8843367818741221e+00  8.8773108411224229e+00  8.8690922852464276e+00  8.8711926800263061e+00  8.8734096214448801e+00  8.8452575524605930e+00  8.8648794642168482e+00  8.8648259466901358e+00  8.8447103896636410e+00  8.8657308950393148e+00  8.8404393177459504e+00  8.8433386926534574e+00  8.8425014806056499e+00  8.8868199820514757e+00  8.8418474925426818e+00  8.8496789755603960e+00  8.8424442663757432e+00  8.8590961633468979e+00  8.8575302430331870e+00  8.9860713064519899e+00  8.9428781810066162e+00  8.9574707120319932e+00  8.9540484045880913e+00  8.9647516623233905e+00  8.9344152026131898e+00  8.8639974540723880e+00  8.8953320229280184e+00  8.8862772150311091e+00  8.8808119509901342e+00  8.8783454511044049e+00  8.9006456047573188e+00  9.0103779283549414e+00  9.0568613468123242e+00  9.0398594819887119e+00  9.0680599124355279e+00  9.0630498527006420e+00  8.7639360014371057e+00  8.7696388864427899e+00  8.7837175313343874e+00  8.7563043514864578e+00  8.7793478320886251e+00  8.7926804868775452e+00  8.7962676033926659e+00  8.7516947740578868e+00  8.7763169946432615e+00  8.8002421889899054e+00  8.7199922866125075e+00  8.7129467349130998e+00  8.7350732474496411e+00  8.7421070596198049e+00  8.7154388220609036e+00  8.7106348977937245e+00  8.7522715293358750e+00  8.9116390678645683e+00  8.9282400507230637e+00  8.9254132377282058e+00  8.9163732357278089e+00  8.9236270839769460e+00  8.9418795905622694e+00  8.9341560696400713e+00  8.9307914853853365e+00  8.7510865375519220e+00  8.7137182931065080e+00  8.7283925793973349e+00  8.7247228045644363e+00  8.7377205960039301e+00  8.7255668385481471e+00  8.7053513719973310e+00  8.7170478447700184e+00  8.6958056710311347e+00  8.7092524196266314e+00  8.8170305367669446e+00  8.8036752067461368e+00  8.7918033549573114e+00  8.7974120190066198e+00  8.7758072684940096e+00  8.7811892386799855e+00  8.7861967968228196e+00  8.7702273723084367e+00  8.7961879609718974e+00  8.8238522904671584e+00  8.8109648766208863e+00  8.8063681712858788e+00  8.8084223924161087e+00  8.7955864315471768e+00  8.7958863034610797e+00  8.7978074834476114e+00  8.7926736963735550e+00  8.7900114483121090e+00  8.7994658783655328e+00  8.6962600156664500e+00  8.7125294087665033e+00  8.7114941960195704e+00  8.7121952094952224e+00  8.6990657669600377e+00  8.7244916504638539e+00  8.7246710852296179e+00  8.7129366574364440e+00  8.7013945930392129e+00  8.7266688002700477e+00  8.9074918649495736e+00  8.8976453779285531e+00  8.9060008036194258e+00  8.9003206625888645e+00  8.9005528930267754e+00  8.8934705848282309e+00  8.8929632738090021e+00  8.8924380288014628e+00  8.8966509785378456e+00  8.7581148443501391e+00  8.7505276117538173e+00  8.7606055936968534e+00  8.7724369436914849e+00  8.7623258996383822e+00  8.7517051572139231e+00  8.7476103315711775e+00  8.7912364900186422e+00  8.7894706592672964e+00  8.7789741215496839e+00  8.7960023370275504e+00  8.8001555696755496e+00  8.7789122863488593e+00  8.7941440041159140e+00  8.7845024766687132e+00  8.7674624711535056e+00  8.7718810891587253e+00  8.7726525903666168e+00  8.7596543809872554e+00  8.7800252888532793e+00  8.7911426268786741e+00  8.7900570149433577e+00  8.8667480426643177e+00  8.8920285433872461e+00  8.8710103259131898e+00  8.8768057439993555e+00  8.8819101697512259e+00  8.8960010899209987e+00  8.8852194349129956e+00  8.8806418110980179e+00  8.8754919763275701e+00  8.7556877548292640e+00  8.7599085011408171e+00  8.7445617582862294e+00  8.7598384780284952e+00  8.7651955664383152e+00  8.7645276279413142e+00  8.7491074106243829e+00  8.8029076350781299e+00  8.8014064158168797e+00  8.8071464221223508e+00  8.8169214984728992e+00  8.8316479389827531e+00  8.8160014526638637e+00  8.8205053868598480e+00  8.8085240899855144e+00  8.8028813127873082e+00  8.8119438841768165e+00  8.8151252935291620e+00  8.8266059429539858e+00  8.8183151237304607e+00  8.8273748822173630e+00  8.8236482189779739e+00  8.8333011744020151e+00  8.8408261725841761e+00  8.8311447526014053e+00  8.8198730421821008e+00  8.7414203192055844e+00  8.7287305665807562e+00  8.7213892194600753e+00  8.7321421839742470e+00  8.8244438895935478e+00  8.8332556914668068e+00  8.8192026377813697e+00  8.8273612032894437e+00  8.8233806667805439e+00  8.8317366756653843e+00  8.8162634531164930e+00  8.8084136176703147e+00  8.8374369794566707e+00  8.8310107903261752e+00  8.9915309921871653e+00  9.0035729735227790e+00  9.0385005194992392e+00  9.0439175771425493e+00  9.0064679604348523e+00  8.7644590792351238e+00  8.7669068056205877e+00  8.7781630403917799e+00  8.7842367958318945e+00  8.7738844704299463e+00  8.8984226072373254e+00  8.8970576698281576e+00  8.9092521176256714e+00  8.8966468517279296e+00  8.8878636858434614e+00  8.8931132470510565e+00  8.9042063560854796e+00  8.8868660670185875e+00  8.9169482826534630e+00  8.8239491988931711e+00  8.8210423607567439e+00  8.8215469441131482e+00  8.8347023839667287e+00  8.8472382396692684e+00  8.8335326821535656e+00  8.8348031459592793e+00  8.8208573375767401e+00  8.8204141876903126e+00  8.9160540253841170e+00  8.9085805819590007e+00  8.9043315743417342e+00  8.9027416180678429e+00  8.8913065271116736e+00  8.8926096467807891e+00  8.9241421363698130e+00  8.9094681423768662e+00  8.8933025654284314e+00  8.8520195681683020e+00  8.8578307884471350e+00  8.8492348147223243e+00  8.8755087233727785e+00  8.8287470432031707e+00  8.8210470230023343e+00  8.8146232420031261e+00  8.8207935514145994e+00  8.8221909777704379e+00  8.8299684327777523e+00  8.8162095539974903e+00  8.8250717446862499e+00  8.8145019036862440e+00  8.8313690028524174e+00  8.8998970010857139e+00  8.8928555734442636e+00  8.9015816203602132e+00  8.8995834812354140e+00  8.8900824874245856e+00  8.8803064642537102e+00  8.8900487323045940e+00  8.9602532925666338e+00  8.9568837825173091e+00  8.9579522935428102e+00  8.9615276427613111e+00  8.9539469123902524e+00  8.9518416017797318e+00  8.9170946768171326e+00  8.9012057545309062e+00  8.9135409409616564e+00  8.9101101101123774e+00  8.9294157168672719e+00  8.9336227124031282e+00  8.8576615659693339e+00  8.8433157616536207e+00  8.8557190061023903e+00  8.8605067693189330e+00  8.8659319452263059e+00  8.8478445025207915e+00  8.8614307398187364e+00  8.8557873439314285e+00  8.8425992813240786e+00  8.8287940123433781e+00  8.8268585403697930e+00  8.8220391139171568e+00  8.8341676679266783e+00  8.8122030256039974e+00  8.8354848750943855e+00  8.8256697937921640e+00  8.8144372772252950e+00  8.8065558308645020e+00  8.8119141782715698e+00  8.8135300287230578e+00  8.8000638534678917e+00  8.8252336973011030e+00  8.7673166869554500e+00  8.7818512730919345e+00  8.7819061444337176e+00  8.7870144250491649e+00  8.7651359322316722e+00  8.7676630687974715e+00  8.8576712607784298e+00  8.8569080707712455e+00  8.8471165908900851e+00  8.8431250075533452e+00  8.8428402633073908e+00  8.8309140546319043e+00  8.8322045955461448e+00  8.8440222360207237e+00  8.8571283818723021e+00  8.7695839365039205e+00  8.7882632400109824e+00  8.8260273051734917e+00  8.8317029645644087e+00  8.8420245552093313e+00  8.8492219622606711e+00  8.8393170740235707e+00  8.8348094695375874e+00  8.8260886905902343e+00  8.8119706166597140e+00  8.8047734639948256e+00  8.8210557131070644e+00  8.8190886871932506e+00  8.8119216526213897e+00  8.7940553402055617e+00  8.8016491091331996e+00  8.7088068934640095e+00  8.7168123033630724e+00  8.7275118955339757e+00  8.7127065592624202e+00  8.7121979521953410e+00  8.7265458871298360e+00  8.7438212337777319e+00  8.7316470130288515e+00  8.7172348628951131e+00  8.8182141285328637e+00  8.8248540329859999e+00  8.8134594963218689e+00  8.8163580100279972e+00  8.8309570881555306e+00  8.8102142000033279e+00  8.8120696329713031e+00  8.8263896797686847e+00  8.8407553163951356e+00  9.1047859678090735e+00  9.0505252418041131e+00  9.0505929724457772e+00  9.0531257976100807e+00  9.0508455482184633e+00  9.0034953238775781e+00  9.0064730126081116e+00  9.0043973418503409e+00  9.0453136340725084e+00  8.8262847619674112e+00  8.8226082365787377e+00  8.8124116496352318e+00  8.8240352990810464e+00  8.8251640151549431e+00  8.8217908197935220e+00  8.8105562775413215e+00  8.8021247090869732e+00  8.8038124438557670e+00  8.7964357949780148e+00  8.8130546978874698e+00  8.8036850091099659e+00  8.8181065103028011e+00  8.7576610228079872e+00  8.7461117161854922e+00  8.7536347031957291e+00  8.7640070709448210e+00  8.7728091775265113e+00  8.7491728537598021e+00  8.7972086356309731e+00  8.8147371577407778e+00  8.8020875425667615e+00  8.8077778640900846e+00  8.8122897436437864e+00  8.7926429053759811e+00  8.8709465884406313e+00  8.8736936100651587e+00  8.8740474166879757e+00  8.8870771355498430e+00  8.8788279549045104e+00  8.8838164227465413e+00  8.7310768135967916e+00  8.7431010224922314e+00  8.7372716776692840e+00  8.7308231329064121e+00  8.7504877898147786e+00  8.7437481104634713e+00  8.7200329284263045e+00  8.8569753349531233e+00  8.8417433563183661e+00  8.8560710546702239e+00  8.8440546905720261e+00  8.8292349862272435e+00  8.8282391060671408e+00  8.8428705434879369e+00  8.7317247246698706e+00  8.7427263970393625e+00  8.7373928055953503e+00  8.7517443480161656e+00  8.7566467097315090e+00  8.7647579202255557e+00  8.7818743100483303e+00  8.7745412580196138e+00  8.7812115352634130e+00  8.7911181110449466e+00  8.7925274027385196e+00  8.8012448907393797e+00  8.7827031251032590e+00  8.7815761831786290e+00  8.7893896255794477e+00  8.6715775448194456e+00  8.8797717182210416e+00  8.8750912918302109e+00  8.8964487644611747e+00  8.8927013917915279e+00  8.8976658234215584e+00  8.8437778124343804e+00  8.8273955523045800e+00  8.8353340990702680e+00  8.9270453463645136e+00  8.9244136485587884e+00  8.9199146906228410e+00  8.9335089040944400e+00  8.9180448324958679e+00  8.9294109343030250e+00  8.9322011122462825e+00  8.9353162878999353e+00  8.9303499637207437e+00  8.9090436084950007e+00  8.9184614951604253e+00  8.9142024801837998e+00  8.9185361213438714e+00  8.9091144522854719e+00  8.9122216161685621e+00  8.8948059888165325e+00  8.8953803922581489e+00  8.8797249020519278e+00  8.8683989277027901e+00  8.8837464412404437e+00  8.8824537301181046e+00  8.8983837754605908e+00  8.8618697306699712e+00  8.8615341113618644e+00  8.8658178245713817e+00  8.8719532858865868e+00  8.8598610542132956e+00  8.8682782903803545e+00  8.8782027149271272e+00  8.8727487158826008e+00  8.8688078280542708e+00  8.8888299606971639e+00  8.8814539835366837e+00  8.8913756315462482e+00  8.8870257789850715e+00  8.8791930748069703e+00  8.8773692793985877e+00  8.8849029472072729e+00  8.8889192979292080e+00  8.9003834567223272e+00  8.8953479053300164e+00  8.8959052448353013e+00  8.9080022457528898e+00  8.9030935480112827e+00  8.8914362629982744e+00  8.8914916998581859e+00  8.8729365158489717e+00  8.8768143416039820e+00  8.8831827754908375e+00  8.8655946712810980e+00  8.8671202232692838e+00  8.8620272123571660e+00  8.6935559021883027e+00  8.6919728368113507e+00  8.6905004646317092e+00  8.6790333375980797e+00  8.6949922260205259e+00  8.6960488243077538e+00  8.6750806214373632e+00  8.6805668118604764e+00  8.6877327103313036e+00  8.9766116092293746e+00  8.9565100789023315e+00  8.9616077660192346e+00  8.9678641432916919e+00  8.9622156297553524e+00  8.9654341272129976e+00  8.9705017879651940e+00  8.9654440041609771e+00  8.9551170230004775e+00  8.9571023015211253e+00  8.8539643947694433e+00  8.8643984941328249e+00  8