<?xml version="1.0"?>
<VTKFile type="UnstructuredGrid"  version="0.1"  >
<UnstructuredGrid>
<Piece  NumberOfPoints="6805" NumberOfCells="30595">
<Points>
<DataArray  type="Float64"  NumberOfComponents="3"  format="ascii">3.898984909057617 37.61381912231445 16.48582077026367  3.713054923695438 37.26135471903031 16.08297930478496  4.01025652885437 37.58523368835449 16.01601552963257  3.630062937736511 37.75469017028809 16.21944522857666  3.361140966415405 37.89556121826172 15.95306968688965  3.444132952374332 37.40222576700394 15.81660376309795  3.741334557533264 37.72610473632812 15.74963998794556  4.121528148651123 37.55664825439453 15.54621028900146  3.82432654349219 37.23276928507035 15.61317406415386  3.527124938333258 36.90889031574617 15.68013783930626  0.09939099848270416 34.55088043212891 18.68515014648438  0.8931136977453623 34.56685994936949 18.61922414427954  0.5192503025363301 34.70997625901221 18.86288917245746  0.4506841204763499 34.99453724531158 18.41040529538624  0.4732543936917364 34.40776412248618 18.44148511830646  0.8019772424699956 35.43819405849425 18.1356604442881  0.8705434245299758 35.15363307219488 18.58814432135932  0.8245475156853821 34.85142093566886 18.16674026720832  0.8471177889007686 34.26464781284346 18.19782009012854  0.939109606589956 34.8690720858955 19.04062819843054  0.09939099848270416 34.36660003662109 18.1667947769165  0.09939099848270416 34.15435981750488 18.53181552886963  0.09939099848270416 33.75783920288086 18.37848091125488  0.4732543936917364 34.22348372697837 17.92312974873859  0.4732543936917364 34.01124350786216 18.28815050069171  0.09939099848270416 36.82049942016602 16.3398609161377  0.5239463644330778 36.34700009315165 15.91822283432024  0.5239463644330778 36.7192649552122 16.17635815307635  0.5239463644330778 36.17748448341044 16.25645249053973  0.09939099848270416 36.44823455810547 16.08172559738159  0.09939099848270416 36.27871894836426 16.41995525360107  0.6242139935493469 37.90962982177734 16.42461013793945  0.64850603748555 37.1114829195719 16.52016029741755  0.9109175350188714 37.65604812037756 16.56253490831843  0.7863578619663992 37.26383015601786 16.21873276397723  0.3618024960160255 37.36506462097168 16.38223552703857  0.9485017303834515 36.61803049025838 16.012855390015  1.073061403435924 37.01024845461808 16.35665753435621  1.197621076488396 37.40246641897777 16.70045967869742  0.6849979758262634 33.55118942260742 20.50000953674316  0.8145295541876129 33.49533476156383 19.99561733658671  0.6647104695439339 33.16760635375977 19.77158069610596  0.3921944871544838 33.3994255065918 20.09994506835938  0.5420135717981628 33.72715391439586 20.32398170884013  0.9575139582157135 33.31937026977539 20.17164516448975  1.230029940605164 33.08755111694336 19.84328079223633  0.09939099848270416 33.24766159057617 19.69988059997559  0.2492100831263831 33.57538999838024 19.92391724045634  0.3990291677700621 33.9031184061843 20.14795388093709  1.390860562926964 36.29165172626035 17.40095692257686  2.152404201051144 34.90257015781268 17.13358523238648  1.278362605359 35.41595644229633 17.36392796617947  1.849167614933632 35.51940680150437 17.94329978038988  2.264902158619108 35.7782654417767 17.17061418878387  3.138943754311252 35.26487915729304 16.94027145499088  2.723209210625776 35.00602051702072 17.71295704659689  2.307474666940299 34.74716187674839 18.4856426382029  1.736669657365668 34.64371151754035 17.90627082399249  1.165864647791036 34.54026115833232 17.32689900978207  2.587954569232497 34.67911341627187 16.64029620397468  2.580532365101948 34.43474954220431 17.30357696310858  2.036965384153741 34.09334767525071 16.34032095295849  1.913728975787253 36.5692871000814 15.34216736568849  1.208618704118333 37.24490374476718 15.78197460726633  1.640387067248155 37.10612340657926 15.91763705819266  1.431115353085352 36.59365879516989 15.67751137785174  1.691232326820234 37.22053204967868 15.44663059510307  2.123000689950056 37.08175171149076 15.5822930460294  2.332272404112858 37.59421632290012 15.82241872637032  1.900504040983036 37.73299666108805 15.68675627544399  1.468735677853215 37.87177699927597 15.55109382451765  4.280109111308972 36.49620708642813 15.44906653870981  4.177640466374271 37.1538451059932 15.27090893506451  4.228011874836795 36.96994427286332 15.6331840586607  1.554725954705148 35.09267796762132 18.3106515412455  1.623292136765128 34.80811698132194 18.76313541831672  1.577296227920534 34.50590484479593 18.34173136416572  1.067335647133083 33.81558869866902 19.10442522935841  0.891819338232369 33.39163901027261 19.03040408519361  1.057718519253502 33.5610484689621 18.61670413512545  1.3839471767241 33.11541995214712 18.69345117620797  1.393564304603682 33.36996018185404 19.18117227044092  0.7163030293316546 32.96768932187619 18.95638294102881  2.960338658936601 37.27487488823943 16.73783258636791  3.029704169925031 36.71986405861315 16.70924947952421  2.913445189791243 36.80890788499724 16.09697245387367  2.630052050092914 36.99190017124387 16.62581982740449  3.643383918467046 36.81984648936209 16.2924148649568  3.359990778768718 37.00283877560872 16.82126223848762  3.243731798634929 37.0918826019928 16.20898521283709  3.759642898600835 36.73080266297801 16.90469189060734  2.299765441249227 36.70892545424831 16.51380706844107  3.203213606510481 34.52351263739641 17.13588893263942  3.887609832382198 34.25503713956044 17.30657275470453  3.58320097261461 34.68592926370512 17.32912544307161  3.82333998018297 34.99640365945707 17.11095527705599  0.09939099848270416 35.73833084106445 17.59810066223145  0.745125780704834 36.01429510141142 16.95050325682065  0.745125780704834 36.0149912836624 17.49952879240415  0.09939099848270416 36.13005065917969 17.39507579803467  0.09939099848270416 35.73763465881348 17.04907512664795  0.09939099848270416 36.52177047729492 17.19205093383789  0.745125780704834 36.40671110177763 17.29650392820737  0.09939099848270416 36.12935447692871 16.84605026245117  0.09939099848270416 35.7369384765625 16.50004959106445  4.928898811340332 37.03099822998047 15.58623027801514  3.973208500898392 36.47355074207024 16.05039693852765  2.702566396573796 37.5680514960484 15.28021772560055  2.929698671223058 37.25155331932315 15.75127828283829  3.217000677725069 37.71872394372919 15.34554320586022  2.846706685264132 37.74488877058092 15.88774420662999  3.299992663683996 37.22538849247142 15.20907728206852  3.072860389034734 37.54188666919666 14.73801672483078  0.09939099848270416 34.27186965942383 19.7790699005127  0.2492100831263831 33.86308874410778 19.62458652909159  0.5833633228078938 34.04372917904642 19.44174756493555  0.2492100831263831 34.08749403280407 19.9635118907249  0.09939099848270416 34.04746437072754 19.44014453887939  0.09939099848270416 33.82305908203125 19.10121917724609  0.7331824074515728 33.85935355242666 19.62618955514775  0.5833633228078938 33.81932389035013 19.10282220330225  3.000216458542279 36.84703170531203 15.02175886628899  2.720426957060255 36.73908870791378 15.51115260249737  2.609784572417082 35.91068817518888 15.21813501302784  2.889574073899105 36.01863117258712 14.72874127681946  3.416482553690084 36.08048978302126 15.38712024983673  3.30584016904691 35.25208925029636 15.0941026603672  3.333034346322255 36.08688473651961 16.31020464714857  2.802802805148068 35.98050735227234 15.80395486440414  3.222391961679081 35.25848420379471 16.01718705767904  2.71935459778024 35.98690230577068 16.72703926171598  0.957226718016926 34.04011825575624 18.65112265974348  1.544728311512864 33.7101043128923 18.38565385029234  1.785480941891276 36.06846349100442 16.46964997503644  1.845313002088095 36.50028859025433 16.95738199550897  1.169681146655208 36.45484110825937 16.70690615629593  1.331028502730145 35.85982662701043 16.91322490210433  1.271196442533325 35.42800152776053 16.4254928816318  1.109849086458388 36.02301600900945 16.2191741358234  1.624133585816339 36.66347797225335 16.26333122922804  1.687405157036691 34.28137528770871 18.79503393378066  2.164797821416472 34.17589090193198 18.07626255471459  4.169466726665798 35.66780655370323 15.15604894924028  3.862566116255218 35.64515020934534 15.75737934905812  4.419292063463526 36.03821116839431 16.42065603774905  2.118613958358765 33.71051025390625 19.57024955749512  1.696118375553236 33.50558411373881 18.96156300988184  1.592974802745924 33.76304947628763 19.33733739342676  1.919203460216522 33.31742095947266 19.41408443450928  2.221757531166077 33.45304489135742 19.1944751739502  1.71979296207428 32.92433166503906 19.25791931152344  2.022347033023834 33.05995559692383 19.03831005096436  2.324901103973389 33.19557952880859 18.81870079040527  0.9839209451305158 34.98922760841329 17.73127972703509  1.03658684250166 35.43309779312739 17.28057666295995  0.4506841204763499 35.21896732954009 17.59281553555958  2.022120975892645 33.60461992711557 17.66688247122627  1.59399281184184 34.07244054272395 17.49689074050417  2.610403060913086 38.29212188720703 15.36692047119141  2.412080184321836 38.23070111393081 14.62375035629864  2.123057202201323 38.27816166996109 14.82208028183575  2.473043218951658 38.02509274601089 15.03653064118024  2.549440026283264 38.49773025512695 14.95414018630981  2.26041704416275 38.54519081115723 15.15247011184692  1.910431027412415 38.79825973510742 14.93801975250244  2.199454009532928 38.75079917907715 14.73968982696533  2.488476991653442 38.70333862304688 14.54135990142822  2.335683376990231 37.75806360481475 14.70614081116907  3.617917060852051 34.12364959716797 18.37038993835449  2.787479062825004 34.26465399712409 17.90857452424543  3.44270025978088 33.95289785733388 17.85094817432122  3.378430407581651 34.69426437723051 17.65533069667269  2.962695863896175 34.43540573695818 18.4280162882787  3.267483458709709 33.78214611749979 17.33150641028796  3.160739812676003 37.58521805325057 16.34545113662878  2.646305531524729 37.43454560556978 16.28012565636912  3.501452951115481 37.4428904398555 15.39926396130962  3.418460965156555 37.9362
[...]
<PointData  Scalars="p"> 
<DataArray  type="Float64"  Name="p"  format="ascii">1.0356087533289415e+01  1.0361014874105502e+01  1.0359844903385438e+01  1.0358941432353408e+01  1.0361568253284542e+01  1.0362292741498811e+01  1.0360349047018195e+01  1.0358027368212776e+01  1.0360336552527889e+01  1.0364477999389187e+01  1.0449468656863148e+01  1.0422625378205430e+01  1.0424951796304255e+01  1.0431997730391023e+01  1.0444653743739224e+01  1.0415623593603835e+01  1.0409536932940554e+01  1.0427914439793065e+01  1.0440349505182690e+01  1.0402023744476223e+01  1.0465414416896323e+01  1.0462981352209498e+01  1.0475631351953984e+01  1.0458695924666563e+01  1.0457249956711975e+01  1.0432082090301190e+01  1.0432740345203847e+01  1.0422567234425090e+01  1.0434409889285826e+01  1.0445235960255292e+01  1.0446675782107519e+01  1.0387552336149120e+01  1.0405633949768152e+01  1.0386524881261034e+01  1.0402035400083911e+01  1.0405880864397892e+01  1.0413356747913713e+01  1.0399396692090697e+01  1.0384652974838081e+01  1.0391085270780625e+01  1.0415708064201313e+01  1.0438318047543603e+01  1.0423874151106329e+01  1.0394567852589295e+01  1.0415290760017706e+01  1.0430315081635278e+01  1.0454050673308473e+01  1.0429042697999131e+01  1.0399924146633962e+01  1.0393401738652582e+01  1.0406802319804591e+01  1.0415384903765540e+01  1.0389072536096858e+01  1.0387628494421968e+01  1.0384802850535378e+01  1.0386900931645243e+01  1.0386184298584142e+01  1.0411685282805919e+01  1.0437271979918320e+01  1.0405658530780093e+01  1.0405528784254997e+01  1.0428768855876880e+01  1.0391325275976184e+01  1.0396354351836676e+01  1.0388681134096293e+01  1.0402335733766005e+01  1.0387230988362308e+01  1.0380806104545481e+01  1.0372075660492182e+01  1.0377416887397455e+01  1.0383462114496899e+01  1.0361473866409884e+01  1.0356300995455701e+01  1.0359805087777477e+01  1.0398184944909968e+01  1.0392811358680635e+01  1.0411087089597823e+01  1.0426020575860115e+01  1.0444783525310354e+01  1.0443672730916933e+01  1.0446075066147841e+01  1.0430488914580122e+01  1.0462555620602243e+01  1.0360073851768957e+01  1.0366495222141124e+01  1.0371203135594584e+01  1.0368591002262232e+01  1.0363500394823188e+01  1.0358766309393184e+01  1.0364503625579442e+01  1.0358297204939616e+01  1.0378483848603675e+01  1.0395115139921698e+01  1.0391005824176013e+01  1.0386126321257635e+01  1.0380267957978530e+01  1.0444493094118583e+01  1.0424157876665527e+01  1.0416379740183409e+01  1.0438685305040378e+01  1.0452500376060659e+01  1.0432041524121720e+01  1.0410541279449713e+01  1.0446037071577528e+01  1.0457974064302109e+01  1.0357882032713647e+01  1.0365225920789701e+01  1.0367075288349202e+01  1.0367676055431305e+01  1.0361514744601381e+01  1.0365388493576603e+01  1.0361789944770255e+01  1.0357042149627008e+01  1.0417374897867811e+01  1.0432212759619944e+01  1.0422777662612248e+01  1.0406877701629037e+01  1.0439591146717190e+01  1.0457271755788449e+01  1.0417768738345970e+01  1.0439922113825265e+01  1.0366794971024699e+01  1.0374906528953685e+01  1.0386112883480198e+01  1.0375377938794843e+01  1.0372544787205012e+01  1.0382981787667271e+01  1.0374160166778617e+01  1.0383623564862173e+01  1.0387528206606255e+01  1.0380983782597321e+01  1.0433428710176758e+01  1.0431007545778636e+01  1.0399399720689212e+01  1.0385427506745149e+01  1.0405001705736238e+01  1.0410499529079862e+01  1.0424714630123534e+01  1.0419262089262626e+01  1.0394076188020300e+01  1.0404693997149177e+01  1.0410080029812637e+01  1.0368128798652089e+01  1.0374510750735778e+01  1.0366517846575928e+01  1.0396623199200850e+01  1.0423856836281397e+01  1.0409901402904667e+01  1.0418222709083002e+01  1.0411481928966188e+01  1.0438567244118097e+01  1.0431163270545799e+01  1.0423038750525961e+01  1.0427694306246273e+01  1.0423242454648330e+01  1.0442845186782012e+01  1.0430625908945562e+01  1.0433003471831690e+01  1.0367167405015955e+01  1.0361580709087372e+01  1.0368141567697391e+01  1.0366282151225853e+01  1.0364045399440110e+01  1.0369453359809976e+01  1.0371423238558833e+01  1.0365550397028894e+01  1.0358880026992118e+01  1.0366038900283939e+01  1.0385792972719495e+01  1.0398770331443977e+01  1.0396797217887622e+01  1.0384921809662499e+01  1.0384355721885884e+01  1.0405872873789885e+01  1.0360221155329491e+01  1.0366711404848765e+01  1.0360374071668792e+01  1.0361212439564760e+01  1.0372645379579097e+01  1.0376387188220860e+01  1.0377944073477263e+01  1.0389736233227955e+01  1.0387092437884867e+01  1.0405625678848187e+01  1.0418705806264530e+01  1.0393667925274366e+01  1.0393930335037423e+01  1.0400274658123084e+01  1.0403420567489905e+01  1.0420066373817354e+01  1.0426289281873148e+01  1.0422510859841292e+01  1.0415970421554432e+01  1.0408979310087265e+01  1.0434706979168739e+01  1.0429700921259244e+01  1.0404224142552932e+01  1.0467945411846632e+01  1.0479152598825577e+01  1.0467400160996988e+01  1.0459399901509940e+01  1.0470607903786163e+01  1.0386394251820208e+01  1.0374924240260345e+01  1.0439757643362094e+01  1.0446155490770924e+01  1.0426460835739785e+01  1.0460038732136120e+01  1.0356646306001245e+01  1.0422377556947936e+01  1.0433268781705152e+01  1.0449750064549653e+01  1.0449018542731778e+01  1.0352308432037129e+01  1.0355154898971609e+01  1.0360571504701813e+01  1.0358588458602361e+01  1.0363312751009833e+01  1.0364566092270877e+01  1.0361243053233036e+01  1.0364700360450115e+01  1.0360115820008510e+01  1.0371309189628352e+01  1.0369057495989203e+01  1.0362262957337908e+01  1.0439381833619363e+01  1.0434976490907658e+01  1.0401428028695941e+01  1.0402829841037745e+01  1.0404559996416635e+01  1.0388513322755754e+01  1.0390261190637894e+01  1.0397282078121204e+01  1.0361424209840612e+01  1.0358166808647644e+01  1.0356232933740918e+01  1.0359927344227666e+01  1.0358491054677495e+01  1.0362978754586045e+01  1.0362209541480855e+01  1.0390012397670798e+01  1.0395760497605309e+01  1.0399346224421098e+01  1.0387169983073314e+01  1.0394643304017578e+01  1.0438416724705752e+01  1.0359922919082708e+01  1.0360332410371422e+01  1.0357461217158919e+01  1.0354428715838628e+01  1.0357447279808911e+01  1.0403020249609316e+01  1.0367297994116676e+01  1.0362407797158093e+01  1.0366295921590529e+01  1.0366672551632865e+01  1.0363851063056078e+01  1.0363456735283405e+01  1.0366417713634613e+01  1.0362814163341982e+01  1.0382697938249768e+01  1.0382613878800136e+01  1.0386314785132546e+01  1.0356513228998931e+01  1.0431409738519484e+01  1.0379532641915374e+01  1.0373712566177554e+01  1.0369478334713810e+01  1.0371206116187063e+01  1.0372009429037595e+01  1.0369876078865271e+01  1.0358880913509726e+01  1.0387188313770421e+01  1.0398993268492028e+01  1.0385555268696910e+01  1.0400004920029552e+01  1.0404253358637392e+01  1.0416188861322333e+01  1.0410529376413745e+01  1.0378221783814210e+01  1.0384820087929375e+01  1.0456970676048693e+01  1.0424828664473813e+01  1.0440407831769605e+01  1.0449402369604925e+01  1.0448900970093938e+01  1.0364887876160640e+01  1.0387325128516178e+01  1.0388956549139925e+01  1.0360137866637823e+01  1.0439219062566595e+01  1.0448751343428583e+01  1.0435553075449972e+01  1.0397708873631821e+01  1.0411169165016952e+01  1.0456743822133088e+01  1.0456349000041076e+01  1.0363339190105428e+01  1.0373858952307756e+01  1.0377833993770075e+01  1.0374274144838624e+01  1.0365117736496439e+01  1.0363705769352730e+01  1.0378051482586342e+01  1.0389363671049889e+01  1.0413433872473489e+01  1.0450836170650813e+01  1.0466850389990508e+01  1.0384848023553007e+01  1.0362399414180910e+01  1.0361407099694592e+01  1.0376875507627638e+01  1.0376098040361793e+01  1.0435567464962290e+01  1.0453276427147285e+01  1.0454075384423152e+01  1.0434287957181034e+01  1.0449370451872880e+01  1.0416999330635825e+01  1.0427383670902667e+01  1.0465370702528162e+01  1.0373608487451351e+01  1.0387695151952183e+01  1.0413427918732800e+01  1.0407967576568760e+01  1.0393963764284747e+01  1.0410274571409881e+01  1.0359628105130891e+01  1.0362027621635102e+01  1.0381719454831503e+01  1.0361283468472370e+01  1.0372893955739430e+01  1.0421034646774492e+01  1.0408009239701874e+01  1.0397478885721627e+01  1.0386112150001566e+01  1.0445040518443735e+01  1.0468145685835010e+01  1.0389962567141051e+01  1.0426645865930555e+01  1.0388719236380432e+01  1.0458225646689153e+01  1.0462774710403782e+01  1.0357034403727521e+01  1.0356987357655667e+01  1.0446376731287446e+01  1.0452275957862172e+01  1.0408283326268092e+01  1.0384879700084980e+01  1.0367556854412944e+01  1.0392850343660523e+01  1.0435902901741033e+01  1.0390272158437879e+01  1.0470878114839135e+01  1.0482676671244860e+01  1.0471656945113720e+01  1.0363463875773954e+01  1.0403659888553515e+01  1.0475728195527140e+01  1.0473976294254914e+01  1.0468157305117096e+01  1.0391430718390794e+01  1.0474388124429263e+01  1.0364439785365070e+01  1.0353525008188031e+01  1.0346583049513992e+01  1.0353621488346988e+01  1.0356780449512664e+01  1.0364635417161445e+01  1.0356983631273133e+01  1.0349434586004115e+01  1.0371870589385091e+01  1.0428362607457345e+01  1.0411151988740947e+01  1.0437038297906103e+01  1.0395139255458233e+01  1.0403005283764804e+01  1.0396440750291676e+01  9.4040897453085996e+00  9.4039080193863356e+00  9.4040635415864458e+00  9.4041678147780861e+00  9.4037863485516997e+00  9.4038435432487155e+00  9.4039806603952396e+00  9.4039365607849259e+00  9.4034928420357673e+00  9.4042999743386435e+00  9.4074608301485121e+00  9.4062584463958725e+00  9.4055322717957655e+00  9.4087741718525866e+00  9.4090454247862940e+00  9.4039944715245394e+00  9.3993422164122773e+00  9.4119351696704250e+00  9.4118136984545586e+00  9.4115159408609745e+00  9.3979620305536908e+00  9.4064666887888890e+00  9.4139288035688917e+00  9.4014914898389907e+00  9.4038958070912759e+00  9.4214232639051829e+00  9.3934467936472394e+00  9.4335374378972308e+00  9.4448126585700560e+00  9.4954986588798693e+00  9.4694006340836765e+00  9.4537858230526695e+00  9.4834736426424850e+00  9.5371121191151413e+00  9.5083894896485290e+00  9.4588227641199616e+00  9.4745540988990307e+00  9.4897379973772953e+00  9.4044067560106992e+00  9.4045381778340875e+00  9.4045606427250004e+00  9.4043446418640784e+00  9.4043611603628374e+00  9.4042060521446871e+00  9.4045188179756849e+00  9.4042559797194336e+00  9.4047973300491439e+00  9.4018905512154483e+00  9.3990585063244509e+00  9.3985649251208621e+00  9.3997580111652521e+00  9.4006382903949337e+00  9.4008815414739946e+00  9.4003520622083929e+00  9.4004191441799385e+00  9.3962864453579495e+00  9.4003726501301852e+00  9.4140518058120026e+00  9.4136536360771359e+00  9.4157326444854199e+00  9.4145200096772292e+00  9.4125997111462905e+00  9.4115107155701008e+00  9.4130681417882158e+00  9.4144410369323239e+00  9.4156163823013870e+00  9.4171506689220053e+00  9.4085461176709124e+00  9.4087497769795672e+00  9.4082089023556392e+00  9.4088362969640791e+00  9.4080027608956645e+00  9.4088284729660003e+00  9.4077045657728711e+00  9.4082615055218746e+00  9.4079165932269095e+00  9.4090798389207642e+00  9.4070606227617954e+00  9.4080654696315040e+00  9.4080792140988994e+00  9.4073627960563293e+00  9.4080472244831039e+00  9.4084349259854658e+00  9.4085851597096735e+00  9.4075778262727265e+00  9.4073092241365615e+00  9.4084867768252725e+00  9.4077147637155321e+00  9.4046355729365008e+00  9.4048157531265293e+00  9.4047305063567670e+00  9.4049533718574807e+00  9.4053997844416202e+00  9.4052248385970287e+00  9.4051324385539115e+00  9.4048119643915769e+00  9.4049452417535129e+00  9.4050481706723197e+00  9.3893798093666820e+00  9.4040194844550324e+00  9.3887841941417189e+00  9.4035775519404829e+00  9.4170773996261588e+00  9.4011539936295279e+00  9.3880281224957454e+00  9.3981354543439579e+00  9.4004818424499703e+00  9.4002631449133922e+00  9.3991752889654965e+00  9.4011557412816824e+00  9.4008253012513254e+00  9.4025278247086028e+00  9.4018863001432909e+00  9.4018003307890829e+00  9.4298356996479260e+00  9.4260032325859200e+00  9.4274533249591581e+00  9.4255928430506017e+00  9.4220595645628453e+00  9.4236473593837768e+00  9.4227304876952580e+00  9.4228843845036145e+00  9.4230503922080562e+00  9.4227083437286208e+00  9.4055050451352820e+00  9.4065514672165289e+00  9.4055568038054655e+00  9.4051939141962020e+00  9.4062814929091143e+00  9.4058446410415737e+00  9.4060470924285990e+00  9.4049298042161151e+00  9.4059112488375245e+00  9.4071232334660877e+00  9.4020615146427318e+00  9.4017192886091721e+00  9.4007910721746981e+00  9.4017140112854332e+00  9.4012686295687171e+00  9.4003018043420639e+00  9.4012766780859724e+00  9.4001917131956638e+00  9.3990592849722443e+00  9.4014384183933810e+00  9.4181611785249792e+00  9.4161149798016233e+00  9.4187664553906885e+00  9.4159924692199439e+00  9.4181937509651803e+00  9.4182320242485780e+00  9.4187660465776393e+00  9.4143216236623015e+00  9.4163209922345015e+00  9.4188776886535290e+00  9.4093626594730573e+00  9.4091311029653895e+00  9.4090628273188042e+00  9.4083452802275715e+00  9.4054158661184353e+00  9.4071194598731065e+00  9.4072671002798245e+00  9.4085277801371863e+00  9.4085503015689245e+00  9.4090321548413396e+00  9.4053441357802772e+00  9.4052200373143844e+00  9.4054419798726645e+00  9.4053859877002939e+00  9.4053904066376646e+00  9.4051896696946162e+00  9.4054156466823731e+00  9.4052260299256361e+00  9.4054039947894132e+00  9.4129681119363831e+00  9.4137356318310008e+00  9.4135462483430423e+00  9.4125707724199525e+00  9.4118837731666130e+00  9.4129485650548990e+00  9.4129871889578940e+00  9.4137688561989137e+00  9.4139739753528744e+00  9.4082273453678553e+00  9.4098241289318594e+00  9.4090736143047735e+00  9.4097900234796725e+00  9.4089940187965055e+00  9.4097596955654126e+00  9.4106643455604555e+00  9.4115180959273950e+00  9.4105330468844137e+00  9.4097483817053309e+00  9.4022152418310014e+00  9.3968298145548133e+00  9.3977686558826026e+00  9.3993839499932026e+00  9.3999737992991683e+00  9.3968723021480809e+00  9.3942682856275610e+00  9.4061996120072049e+00  9.3971128429817288e+00  9.3920213044370620e+00  9.4021603271858201e+00  9.4013676938657245e+00  9.4011566319866446e+00  9.4019722231457123e+00  9.3953110500051054e+00  9.4003557298094638e+00  9.3934395956284504e+00  9.4004759596827761e+00  9.4015781371912706e+00  9.3940621274468992e+00  9.4012770873552931e+00  9.3874338413904095e+00  9.4015292643402546e+00  9.4712339088404445e+00  9.4547332938983342e+00  9.4519524608140220e+00  9.4812237781972382e+00  9.4732086969635478e+00  9.4593174686108448e+00  9.4873690188581428e+00  9.4773330454311591e+00  9.4136907174356672e+00  9.4224265350299028e+00  9.4012892229459712e+00  9.4074117906813353e+00  9.4015798240180199e+00  9.4016157401948117e+00  9.4018338290201200e+00  9.4002124980010411e+00  9.4117011007325093e+00  9.4121047729508991e+00  9.4123657768159070e+00  9.4111546058557138e+00  9.4103814650843400e+00  9.4114037258852452e+00  9.4126281957814903e+00  9.4124531216147780e+00  9.4122870175229494e+00  9.4133963770831066e+00  9.4129053753131444e+00  9.4132673361862977e+00  9.4132541207719420e+00  9.4135897332791831e+00  9.4137114618941613e+00  9.4139701505182636e+00  9.4134292694327151e+00  9.4130528592960534e+00  9.4012549119043491e+00  9.3963775708234838e+00  9.3990505381388676e+00  9.4002742925074489e+00  9.3996504601151631e+00  9.3959204706147439e+00  9.3982492853880011e+00  9.4080701401143667e+00  9.4218709312416866e+00  9.4203902496177712e+00  9.4284864243029514e+00  9.4196039592619680e+00  9.4263031274431590e+00  9.4155721362906846e+00  9.4248844785486110e+00  9.4363173593662744e+00  9.4077203216684797e+00  9.4075593929267143e+00  9.4075256415777790e+00  9.4082650574235434e+00  9.4087717030993971e+00  9.4079875477803689e+00  9.4079583320641511e+00  9.4072883509497203e+00  9.4073496958462570e+00  9.4073364979162033e+00  9.4427415191689015e+00  9.4348763436994929e+00  9.4367821394637783e+00  9.4431795808407042e+00  9.4362145484299695e+00  9.4346124089521979e+00  9.4311291894375948e+00  9.4299107816444980e+00  9.4423975586269631e+00  9.4283641977941155e+00  9.4157719963831958e+00  9.4248961310539094e+00  9.4231800329458757e+00  9.4195620421125383e+00  9.4201533654019940e+00  9.4256636623599572e+00  9.4306062679439133e+00  9.4225661917071672e+00  9.4282952113644569e+00  9.4365497976863928e+00  9.4052256552006437e+00  9.4011312198948911e+00  9.4043155692888014e+00  9.4028389691888439e+00  9.4092786815401137e+00  9.4130488004487702e+00  9.4070434866914319e+00  9.4234746591865157e+00  9.4260191239999518e+00  9.4255039392213451e+00  9.4269328295773214e+00  9.4280599549935680e+00  9.4292796882956029e+00  9.4273275995969321e+00  9.4042919134932959e+00  9.4044929960890169e+00  9.4043785102066959e+00  9.4042994181382689e+00  9.4044478579671651e+00  9.4043975134238025e+00  9.4045848254940587e+00  9.4045044523459804e+00  9.4287955047727223e+00  9.4353406010355645e+00  9.4418826757041110e+00  9.4300544864029607e+00  9.4052207402294492e+00  9.4055176372405214e+00  9.4051434523148956e+00  9.4053140063350646e+00  9.4054071008093469e+00  9.4056005263752986e+00  9.4053029632466298e+00  9.4102793879863356e+00  9.4146560278535105e+00  9.4286551885740266e+00  9.4140795895096137e+00  9.4282756351237804e+00  9.4104272362777817e+00  9.4244401338118013e+00  9.4081042966080606e+00  9.4028183593925707e+00  9.4017968421971911e+00  9.4025999393618385e+00  9.4021864768815355e+00  9.4025303718206885e+00  9.4028861344675860e+00  9.4022530644117399e+00  9.4032008401122589e+00  9.4023615657302262e+00  9.4373436693197750e+00  9.4499003680756584e+00  9.4256182114742320e+00  9.4328670069696088e+00  9.4528438464204907e+00  9.4410718847849733e+00  9.4303636980362651e+00  9.4165557103633137e+00  9.4228129605960440e+00  9.4148142098233194e+00  9.4265943403850798e+00  9.4179604524615996e+00  9.4062733531200777e+00  9.4066300161192871e+00  9.4076417034051794e+00  9.4066899398069523e+00  9.4079899877500885e+00  9.4052048530288115e+00  9.4074453051477569e+00  9.4097532541698374e+00  9.4099180107109390e+00  9.4102199185700730e+00  9.4089202323416767e+00  9.4080770204860702e+00  9.4089930533729280e+00  9.4092770875068652e+00  9.4107156386859288e+00  9.4102936898150791e+00  9.4098950891002850e+00  9.4077189879913607e+00  9.4122866043149145e+00  9.4139692833964261e+00  9.4131594382644330e+00  9.4177665075768253e+00  9.4153216420248054e+00  9.4015935291476183e+00  9.4019708757391207e+00  9.4008944688539646e+00  9.4011073332115096e+00  9.4341885587630383e+00  9.4359024952481683e+00  9.4259438246800684e+00  9.4311283629442908e+00  9.4406040086608520e+00  9.4405133159255818e+00  9.4061553176001986e+00  9.4063060589108431e+00  9.4058572955835515e+00  9.4062465020771384e+00  9.4067072251204671e+00  9.4067824519539425e+00  9.4062783786902102e+00  9.4058766779545575e+00  9.4055337965583199e+00  9.4094381892955479e+00  9.4091014474219978e+00  9.4086401974263918e+00  9.4060231400435832e+00  9.4061512976365442e+00  9.4068090198099572e+00  9.4057692768559580e+00  9.4064525119437139e+00  9.4065611680359975e+00  9.4038518562392532e+00  9.4042872790669705e+00  9.4036839828430825e+00  9.4043780138207982e+00  9.4041126175374234e+00  9.4048906024684644e+00  9.4042426894510882e+00  9.4035448339771666e+00  9.4494051244705979e+00  9.4572132969130660e+00  9.4464586737763749e+00  9.4647745046900322e+00  9.4601994420482729e+00  9.4799309962330174e+00  9.5018022908355437e+00  9.4713936221806616e+00  9.4043049952548241e+00  9.4046538125500607e+00  9.4041302585044306e+00  9.4041656382706442e+00  9.4046384688541877e+00  9.4042436847020205e+00  9.4046016586213668e+00  9.4050505375107125e+00  9.4040633566426592e+00  9.4169161410620035e+00  9.4180424298366745e+00  9.4260733687677813e+00  9.4191223524404482e+00  9.4205739000332489e+00  9.4232634632324519e+00  9.4201477201751089e+00  9.4132415792488953e+00  9.4132548629781230e+00  9.4473473694220722e+00  9.4286404779935076e+00  9.4212284681209262e+00  9.4632218845910039e+00  9.4439102617045876e+00  9.4363261892135171e+00  9.4070272745105115e+00  9.4082118195891749e+00  9.4056583133345129e+00  9.4055273374649371e+00  9