<?xml version="1.0"?>
<VTKFile type="UnstructuredGrid"  version="0.1"  >
<UnstructuredGrid>
<Piece  NumberOfPoints="6850" NumberOfCells="31647">
<Points>
<DataArray  type="Float64"  NumberOfComponents="3"  format="ascii">0.5222272872924805 35.12524032592773 32.89327239990234  0.6199345973222138 35.35332173645403 32.56066804200404  0.6432422789529157 35.03852704241971 32.42616749908923  0.7058736321418168 35.28763074219134 32.79767327576869  0.4362882524728775 35.19093132019043 32.6562671661377  0.7291813137725187 34.97283604815701 32.66317273285388  0.3503492176532745 35.25662231445312 32.41926193237305  0.936135340252557 34.82043177038629 32.43307306580542  0.912827658621855 35.13522646442063 32.56757360872022  0.889519976991153 35.45002115845495 32.70207415163502  3.633425951004028 32.3714599609375 27.86569023132324  2.919146936235254 32.29199117178648 27.87313800235514  3.301542918977563 32.20579045767515 28.16347842593913  3.353808522224426 32.04137516021729 27.75113010406494  3.251029968261719 32.45766067504883 27.57534980773926  2.868633985519409 32.54386138916016 27.28500938415527  2.971412539482117 32.12757587432861 27.46078968048096  3.074191093444824 31.71129035949707 27.63656997680664  3.021925490197961 31.87570565695493 28.04891829868082  2.969659886951098 32.04012095441279 28.461266620555  0.6044865846633911 35.16376113891602 31.11257362365723  1.137505160137719 34.87115594453213 31.1563978473435  0.8142726028409175 34.65781879546584 30.90916473230896  0.8350299461332027 34.84360238618252 31.34770968358617  0.9069617986679077 35.19131469726562 30.92126178741455  1.209437012672424 35.21886825561523 30.72994995117188  1.116747816845434 34.68537235381545 30.71785289606628  1.065573307603014 34.52344363344904 31.58284574351512  1.044815964310729 34.33766004273235 31.1443007922379  1.024058621018444 34.15187645201566 30.70575584096068  2.568645000457764 35.00992965698242 29.79216003417969  2.885900903360367 34.74886129753047 29.03009250223906  2.719308901445389 34.55010031120234 29.3364622837332  3.115878391878129 34.53037069694453 29.42351272166044  2.869972802433014 34.09027096542226 28.88076453328671  0.09939099848270416 34.78276824951172 29.64460945129395  0.4385223370478428 34.89159216903717 29.23917894706643  0.4385223370478428 34.60708060287506 29.37070398673929  0.09939099848270416 34.76891899108887 29.20234489440918  0.09939099848270416 35.06727981567383 29.51308441162109  0.09939099848270416 35.35179138183594 29.38155937194824  0.09939099848270416 35.05343055725098 29.07081985473633  0.09939099848270416 34.75506973266602 28.76008033752441  0.4385223370478428 34.59323134445221 28.92843942985452  0.7776536756129815 34.4313929562384 29.09679852218462  0.9507859945297241 32.16539001464844 32.13727951049805  1.70221187005991 32.19936619014223 32.10828555872872  1.406377388343754 32.4651409170099 32.08505977442697  1.492901734397951 31.97623154735112 31.96833647498972  1.24662047624588 31.89961528778076 32.1605052947998  1.542454957962036 31.63384056091309 32.18373107910156  1.788736216114107 31.71045682048345 31.99156225929148  2.035017474266179 31.78707308005381 31.7993934394814  1.948493128211981 32.27598244971259 31.91611673891864  1.861968782157783 32.76489181937136 32.03284003835589  2.207945108413696 33.16020965576172 25.16440963745117  1.378642456025585 33.58632862577337 25.22176853815311  1.896474879531481 33.61676511316046 25.04681811638164  1.950531663336325 33.54247720333597 25.49119722295042  1.690112684907801 33.12977316837463 25.33936005922263  1.172280261401905 33.09933668098753 25.5143104809941  1.432699239830429 33.51204071594888 25.66614764472189  1.693118218258953 33.92474475091022 25.81798480844967  1.639061434454109 33.99903266073471 25.37360570188089  1.585004650649265 34.0733205705592 24.92922659531212  0.6649547219276428 35.66436386108398 32.0771484375  0.7772373494593979 35.55719250976946 32.38961129456752  1.05442801117897 35.55633163452148 32.25602340698242  0.8778643310070038 35.77284812927246 32.20438575744629  1.090773940086365 35.88133239746094 32.33162307739258  1.166710638710725 35.44916028320696 32.56848626404994  0.9901469585387589 35.66567677795794 32.5168486145138  1.267337620258331 35.66481590270996 32.38326072692871  1.443901300430298 35.44829940795898 32.43489837646484  1.154147028923035 35.27116012573242 29.8505802154541  0.9659003522680081 34.85127654098541 29.47368936881936  1.026415774915756 34.84666950796107 29.91068227428391  0.6267690137028694 35.02696418762207 29.74759483337402  0.4990377596955905 34.60247356985072 29.80769689220384  0.8986845209084768 34.42217889018971 29.97078433311373  0.8381690982607292 34.42678592321406 29.53379142764918  0.09939099848270416 34.38862991333008 27.87883949279785  0.4148891483102953 33.8765194740531 27.72462417198916  0.4988539318730106 34.31273889451568 27.54525518299004  0.09939099848270416 34.13806533813477 27.60184001922607  0.09939099848270416 33.88750076293945 27.3248405456543  0.8143520817006018 33.80062845523869 27.39103986218134  0.4148891483102953 33.62595489885778 27.44762469841738  0.4988539318730106 34.06217431932036 27.26825570941826  0.8983168652633171 34.23684787570127 27.21167087318222  0.7303872981378865 33.36440903477612 27.57040885118046  2.314058065414429 32.87498092651367 33.39599990844727  2.106422314051373 33.23114161964153 32.9949926392794  2.088013423786106 32.81993637294252 32.71441997340158  1.815620005130768 32.79685974121094 33.08767509460449  1.317181944847107 32.7187385559082 32.77935028076172  1.607984253767712 33.1530204343388 32.68666782543663  1.589575363502445 32.74181518763979 32.4060951595588  1.88037767242305 33.17609706607038 32.31341270423371  1.898786562688318 33.5873023127694 32.59398537011154  2.180433034896851 29.14081954956055 26.01339912414551  1.39439507886755 29.06510575033965 26.29142265492775  1.693371619433041 29.35895569540801 26.33184700185158  1.743046522140503 29.2175350189209 25.83157920837402  1.88145649433136 28.84696960449219 25.97297477722168  1.305660009384155 29.29425048828125 25.64975929260254  1.255985106676693 29.43567116476837 26.1500270860801  1.444069981575012 28.92368507385254 25.7911548614502  1.582479953765869 28.55311965942383 25.93255043029785  1.206310203969231 29.57709184125548 26.65029487955766  1.951987981796265 34.96356964111328 32.1702995300293  1.508780644699639 34.74350663728116 31.87657263677221  1.444061661024411 34.89200070574979 32.30168629791736  1.616072237491608 35.19708442687988 31.92436981201172  1.280156493186951 35.43059921264648 31.67844009399414  1.172864900394982 34.97702142304776 31.63064291875463  1.108145916719754 35.12551549151639 32.05575657989978  1.000854323927786 34.67193770191767 32.00795940466027  1.349681973457336 35.80786895751953 27.7352409362793  1.87909559940917 35.45970724849325 27.38373384401122  1.487451061960287 35.41370199946981 27.71402940675537  1.353137493133545 35.65630531311035 27.42990589141846  1.741326510906219 35.85387420654297 27.40494537353516  2.132971048355103 35.89987945556641 27.07464981079102  1.744782030582428 35.70231056213379 27.09961032867432  1.356593012809753 35.50474166870117 27.12457084655762  1.490906581636496 35.26213835506063 27.40869436189453  1.625220150463238 35.01953504142008 27.69281787723143  2.709695100784302 34.84284973144531 30.62343978881836  3.110883569608812 34.37569134661335 29.98054308368998  3.220729088674669 34.20004551836628 30.48633760883646  2.784839129339342 34.31188099810261 30.30913252308207  3.471629500389099 34.79482460021973 30.47205543518066  3.145585060119629 34.73101425170898 30.80064487457275  3.581475019454956 34.61917877197266 30.97784996032715  2.859983157894381 33.78091226475991 29.99482525734578  2.695225459492697 33.3367965862647 29.22824826886517  2.700220281762013 33.49147593659588 28.67121790683563  2.10474139118771 33.62366282676023 29.20856573025041  2.864977980163698 33.93559161509108 29.43779489531624  2.099746568918393 33.46898347642906 29.76559609227994  1.339509979942405 33.15705468809821 29.53636692721411  1.934988870516708 33.02486779793385 28.99901910379933  2.530467761091012 32.89268090776949 28.46167128038455  0.09939099848270416 32.40042877197266 25.48715972900391  0.5524496042500109 32.7901282627809 25.13952812832471  0.4663223005724798 32.20612217478742 25.48240445783274  0.5004260018467903 32.28665351867676 24.90346527099609  0.9014610052108765 32.17287826538086 24.31977081298828  0.9193809063397864 32.59582166559566 25.13477285715355  0.953484607614097 32.676353009485 24.5558336703169  0.8673573039365658 32.09234692149153 24.89870999982493  0.8332536026622553 32.01181557760219 25.47764918666158  1.005508210017318 33.17982775358914 24.79189652764552  0.09939099848270416 34.40061950683594 30.37927055358887  0.4990377596955905 34.41139919851283 30.1750274433513  0.3587425127625465 34.7846851348877 30.29507541656494  0.09939099848270416 34.59169387817383 30.01194000244141  0.6180940270423889 35.16875076293945 30.21088027954102  0.7583892739754329 34.79546482656458 30.09083230632737  0.3587425127625465 34.97575950622559 29.92774486541748  2.735660155019827 33.98267124505748 28.22584721252559  3.282760735455195 34.2077949414677 28.26786866671716  3.306857395784379 33.67484091178828 28.20224692881376  2.601347507606639 33.87507152469271 27.57092989176448  2.85086663214897 32.56902578482636 31.15666942215574  2.320619765242993 32.5920376888724 30.30411970056794  2.12141023920771 33.24972100246627 30.40671526516256  2.855424895021676 33.17496902479313 30.57574733975076  3.054634421056959 32.51728571119925 30.47315177515613  2.116851976335004 32.6437777624995 30.98763734756754  1.382837320521039 32.71852974017264 30.81860527297935  3.059192683929664 33.12322895116603 29.89222969275115  3.258402209964947 32.46554563757215 29.78963412815653  0.09939099848270416 33.51128005981445 25.46013069152832  0.5524496042500109 33.3455539067018 25.12601360958692  0.09939099848270416 33.20644569396973 24.9963903427124  0.09939099848270416 32.9
[...]
<PointData  Scalars="p"> 
<DataArray  type="Float64"  Name="p"  format="ascii">9.6883767224789850e+00  9.6868098410088557e+00  9.6939323899644858e+00  9.6849379252011403e+00  9.6898248451723390e+00  9.6914382852713370e+00  9.6926762469396834e+00  9.6944092431846549e+00  9.6897066161401639e+00  9.6814551600938472e+00  9.7141448211167010e+00  9.7392405569046065e+00  9.7190268142052947e+00  9.7260179150855262e+00  9.7366913680499341e+00  9.7584791905250636e+00  9.7479987323260993e+00  9.7378628811935233e+00  9.7296622738917034e+00  9.7224180206513910e+00  9.7208596468772814e+00  9.7170946019790350e+00  9.7296722328409171e+00  9.7158657365973369e+00  9.7248416445412875e+00  9.7270394139966943e+00  9.7295154388027978e+00  9.7095371114863820e+00  9.7210995255958981e+00  9.7334899173535465e+00  9.7191556623029651e+00  9.7247648748747171e+00  9.7214220767018755e+00  9.7079340525646174e+00  9.7251074669596775e+00  9.7855117743775732e+00  9.7832846263006470e+00  9.7822670488336048e+00  9.7965792098677085e+00  9.7871220083446921e+00  9.7894268549574228e+00  9.7958127357402169e+00  9.7996128746663391e+00  9.7899093604938692e+00  9.7779586051840734e+00  9.7001730702227533e+00  9.6786524577528077e+00  9.6891626550987269e+00  9.6871254477557684e+00  9.6900929554272022e+00  9.6791308111884859e+00  9.6760831663012272e+00  9.6732561902229346e+00  9.6756789630440672e+00  9.6779437939300834e+00  9.8259106029975367e+00  9.8327065887416047e+00  9.8309760112379063e+00  9.8232220725522890e+00  9.8282758706201250e+00  9.8332023339801182e+00  9.8265673914151854e+00  9.8203158423958747e+00  9.8288350527828019e+00  9.8361046855945897e+00  9.6904825709951243e+00  9.6845595436399794e+00  9.6877735874218320e+00  9.6837473460293459e+00  9.6782603376659697e+00  9.6846019137921342e+00  9.6787607878874482e+00  9.6846336080404818e+00  9.6887874359093615e+00  9.7538498671685758e+00  9.7648173495312065e+00  9.7530974428692456e+00  9.7667757195571951e+00  9.7697619823226169e+00  9.7551025091098644e+00  9.7673209628190616e+00  9.8163730145708019e+00  9.8172930082568683e+00  9.8118734024272669e+00  9.8274147635905233e+00  9.8357412852950130e+00  9.8110830422361985e+00  9.8242857553809841e+00  9.8202323907056410e+00  9.8081248482897170e+00  9.8127553062484747e+00  9.6347737337592587e+00  9.6537207308440838e+00  9.6569794848829105e+00  9.6589918880433920e+00  9.6786957626590713e+00  9.6744592159233136e+00  9.6781272870494330e+00  9.6735685776162370e+00  9.6707589851413314e+00  9.7653951175779650e+00  9.7745528839897613e+00  9.7741376426158570e+00  9.7760345015428722e+00  9.7652740030269438e+00  9.7885456023815056e+00  9.7865123660823627e+00  9.7755828788189447e+00  9.7637039881097536e+00  9.7845247760304321e+00  9.6907952527124621e+00  9.6978179405342395e+00  9.6927622402846314e+00  9.6971414050981402e+00  9.7016084787443262e+00  9.7054139230373533e+00  9.6969295728976164e+00  9.7012197167148777e+00  9.7764226251885589e+00  9.7789402870273872e+00  9.7782574255463928e+00  9.7811690009039367e+00  9.7771519173080002e+00  9.7811357704523534e+00  9.7833303076899796e+00  9.7876697107903219e+00  9.7842173493947868e+00  9.7791173736754811e+00  9.6958977122045091e+00  9.6940948491635748e+00  9.6778334955658600e+00  9.6961788937412052e+00  9.6727127818273679e+00  9.6774397402318595e+00  9.6545062769435734e+00  9.6983374928134758e+00  9.7189193116551156e+00  9.7321667433285626e+00  9.7375846987439409e+00  9.7117241996553343e+00  9.7247881243461620e+00  9.7524498394910637e+00  9.7456635452184042e+00  9.7396370509144514e+00  9.8633145312462087e+00  9.8487964727797905e+00  9.8496754180149093e+00  9.8501642929946769e+00  9.8429460599826868e+00  9.8412105716780882e+00  9.8424929981246354e+00  9.8418776180419272e+00  9.8390048604088154e+00  9.8401189123539883e+00  9.7657699878618462e+00  9.7604678367913280e+00  9.7554658038349285e+00  9.7759198968382996e+00  9.7520943281637784e+00  9.7541920958015442e+00  9.7674942521667170e+00  9.7435978917774797e+00  9.7290885341696356e+00  9.7269966724388208e+00  9.7627202078776865e+00  9.6670273331412808e+00  9.7027512164831240e+00  9.7088044391546884e+00  9.6825717927354074e+00  9.6765421101165678e+00  9.6933757862241681e+00  9.7201540148141987e+00  9.6919752083733268e+00  9.6857646356276508e+00  9.8545259406515182e+00  9.8449869487216173e+00  9.8565691060086476e+00  9.8622968725437552e+00  9.8636811543611902e+00  9.8567049556027371e+00  9.8465986038032529e+00  9.8384939678890841e+00  9.8381160401117089e+00  9.8393026641872172e+00  9.8378771260946447e+00  9.8387983306777151e+00  9.8410751422009515e+00  9.8392351344958549e+00  9.8404706449153387e+00  9.8412443198347308e+00  9.7227884547793977e+00  9.7246131272057212e+00  9.7054628658150470e+00  9.7191949477888890e+00  9.7134186330095780e+00  9.7279384114688892e+00  9.7087474019149340e+00  9.6935304965601627e+00  9.7303105360650672e+00  9.7163060310246383e+00  9.6724011277187181e+00  9.6761507216068825e+00  9.6625134303866371e+00  9.6645000373797814e+00  9.6841924320012343e+00  9.6559896034221655e+00  9.6568381463259385e+00  9.6568882842652890e+00  9.6506792235609691e+00  9.6781671790959880e+00  9.6886986296178179e+00  9.6671605907820677e+00  9.6615662013070001e+00  9.6363254200294612e+00  9.6416511039879218e+00  9.6456730564773050e+00  9.6594063495899967e+00  9.6720883602748255e+00  9.6625555869607851e+00  9.6445709771687582e+00  9.6692591264324488e+00  9.6550339559950658e+00  9.6641904539459276e+00  9.7861491110356038e+00  9.7919415838372768e+00  9.7828881783207553e+00  9.7930915444634969e+00  9.7783470087007700e+00  9.7832090629900108e+00  9.7894905328708468e+00  9.7949392812117484e+00  9.7728194459268725e+00  9.7803850106979358e+00  9.7758318365410481e+00  9.7867365333378267e+00  9.7569127905716311e+00  9.7597645787788192e+00  9.7685108884190424e+00  9.6317322713681044e+00  9.6554747684457993e+00  9.6365014043445196e+00  9.6453506475037845e+00  9.6448460719369873e+00  9.6235634753015944e+00  9.6545966461013144e+00  9.6177582047252237e+00  9.6379536142932807e+00  9.7718784653107367e+00  9.7709407855613151e+00  9.7696746342172318e+00  9.7900736385134532e+00  9.7710493078331933e+00  9.7720509906858428e+00  9.7897610856385544e+00  9.7912451080084342e+00  9.8095504929951503e+00  9.7686662516247438e+00  9.7155162276018032e+00  9.6841330195420916e+00  9.6985201878979250e+00  9.7001247310501455e+00  9.7007260531302570e+00  9.6849911215583067e+00  9.6834973917061262e+00  9.6840446275854735e+00  9.6830433322332485e+00  9.7119337714950102e+00  9.7153969821442363e+00  9.7321070209915970e+00  9.7128159381673100e+00  9.7138420449071710e+00  9.7308127695835402e+00  9.7519938261533863e+00  9.7340417336824014e+00  9.7132422077185705e+00  9.7212765137079256e+00  9.7416069677956507e+00  9.7639290813569364e+00  9.7541226686628963e+00  9.7517361142278602e+00  9.7433595593552251e+00  9.7660474120227185e+00  9.7311774031796876e+00  9.7457159948498280e+00  9.8039039591377470e+00  9.8279931393273170e+00  9.8214304044631682e+00  9.8109277679671294e+00  9.8213533032096763e+00  9.8168606351869503e+00  9.8290654499866754e+00  9.8361345933486728e+00  9.8171171235971890e+00  9.7539307505644235e+00  9.7634219000338991e+00  9.7652747765563550e+00  9.7554799237773793e+00  9.7909771792108771e+00  9.7902386015714402e+00  9.7796921552808485e+00  9.8004869530199077e+00  9.8096348591237064e+00  9.7802534297089387e+00  9.7991629072479771e+00  9.7889076461090525e+00  9.7694802846518574e+00  9.7887866911694505e+00  9.7255196708484508e+00  9.7281554209487542e+00  9.7319569475791834e+00  9.7389587823498349e+00  9.7366022282559417e+00  9.7442686880167244e+00  9.7470782677541017e+00  9.7388725373339486e+00  9.7694581577760999e+00  9.7646183751714606e+00  9.7562988821373757e+00  9.7803577525406222e+00  9.7774231426119957e+00  9.7849516485918642e+00  9.7883272440307536e+00  9.7669608346993044e+00  9.7441999890011175e+00  9.8302698985530252e+00  9.8256258995060364e+00  9.8186394684187910e+00  9.8417832730460724e+00  9.8372130272114156e+00  9.8514503609452593e+00  9.8292532098326184e+00  9.8479238543247014e+00  9.8420900301008221e+00  9.6947327865087427e+00  9.6926275290991288e+00  9.6922267629915790e+00  9.7038582733481515e+00  9.7100408800239890e+00  9.7084730221670981e+00  9.7064185213344825e+00  9.7077541865665626e+00  9.7121172007189180e+00  9.7116990388855733e+00  9.7315786584952395e+00  9.7281449897415317e+00  9.7110044013090420e+00  9.7336454353597723e+00  9.7539324649629418e+00  9.7265506227752905e+00  9.7487014113167341e+00  9.7094021913345472e+00  9.6178397578175989e+00  9.5977092642293744e+00  9.6182326778622436e+00  9.6033645072778882e+00  9.6011145658003354e+00  9.6932720996493629e+00  9.6728172539385930e+00  9.6868436784094776e+00  9.6864834727486340e+00  9.7652113582866544e+00  9.7704541438599684e+00  9.7613704315354290e+00  9.7619767172737824e+00  9.7711250429359158e+00  9.7635428098787980e+00  9.6029674783214105e+00  9.6350097373258894e+00  9.6116834743449395e+00  9.6187831959844949e+00  9.6289468706903083e+00  9.6411527615278132e+00  9.6307098884623183e+00  9.6240393250568399e+00  9.7620068050083102e+00  9.7710605086213835e+00  9.7706794707810101e+00  9.8454027402777875e+00  9.8374791208748462e+00  9.8370242584960224e+00  9.7741440465043539e+00  9.7749560001305547e+00  9.7685055847886879e+00  9.7734813118862398e+00  9.7742460317930036e+00  9.7644760639124630e+00  9.7677420197041300e+00  9.7584359924237756e+00  9.7719761679346089e+00  9.7638510178031375e+00  9.7566955112249616e+00  9.7729293352338846e+00  9.7648416099064477e+00  9.7655603843269176e+00  9.7575028331644571e+00  9.7490405646580012e+00  9.6860053790941407e+00  9.7044847120725031e+00  9.7016406822524104e+00  9.7117609765516733e+00  9.7107604616836340e+00  9.7191067145140071e+00  9.7140393148480459e+00  9.7026725062739647e+00  9.6949585546558588e+00  9.7062671190856609e+00  9.6316876194795533e+00  9.6321788949320268e+00  9.6165844931996443e+00  9.6345980773795592e+00  9.6285506312467728e+00  9.6249676803263480e+00  9.6130928237734548e+00  9.6201537769963910e+00  9.6019933578990209e+00  9.7489334549469984e+00  9.7382492296371570e+00  9.7461253125758738e+00  9.7599076711123747e+00  9.7503009078168077e+00  9.7587728421746114e+00  9.7448078488680228e+00  9.7369340583843123e+00  9.7289745086523833e+00  9.7950458801768612e+00  9.7892065051138299e+00  9.7795798482809726e+00  9.7724248396060727e+00  9.7816833259378395e+00  9.8024226209981471e+00  9.8092615707519268e+00  9.7611611431554728e+00  9.6048348757160529e+00  9.5958393589135262e+00  9.5874501345950680e+00  9.5783303602766043e+00  9.5899175274909343e+00  9.6722530638790527e+00  9.6603761780957917e+00  9.6911930829206394e+00  9.6805702451600446e+00  9.6664876872691643e+00  9.6998182320493065e+00  9.7158435348178322e+00  9.6986322376276810e+00  9.6989824417928503e+00  9.6982305734629595e+00  9.6956718536914686e+00  9.6972286524153581e+00  9.6784670786970892e+00  9.6809669192528673e+00  9.7535493409203831e+00  9.7604898249210272e+00  9.7710834386105834e+00  9.7559206547330604e+00  9.6904559646932249e+00  9.6956374736098283e+00  9.6025792129518095e+00  9.6265317036497162e+00  9.6375797445934133e+00  9.6176831890862040e+00  9.6235470803774987e+00  9.6137519828869884e+00  9.6430805714753802e+00  9.6322859535403182e+00  9.6236817574926725e+00  9.6312966737130932e+00  9.6181571383037028e+00  9.6036418680799240e+00  9.6277063319598977e+00  9.5992455542342832e+00  9.7283274014926935e+00  9.7336691274500247e+00  9.7438048022989339e+00  9.7198507959206388e+00  9.7286105971086272e+00  9.7481110718152504e+00  9.8338085159013193e+00  9.8221497994322515e+00  9.8227206492843457e+00  9.8193150358082377e+00  9.8291323917006306e+00  9.8118034337308497e+00  9.8111048555806981e+00  9.8210004171691541e+00  9.8284331153059057e+00  9.8120769313755076e+00  9.7572177214229292e+00  9.7567627803092609e+00  9.6628217060057171e+00  9.6464463708037407e+00  9.6455675554276610e+00  9.6573162972512669e+00  9.6512586130159104e+00  9.6393550415298073e+00  9.6380745164117272e+00  9.6272677729140348e+00  9.6289543477760393e+00  9.6713395942567217e+00  9.6587709335953580e+00  9.6708208452096240e+00  9.6555302585862393e+00  9.5833971509020870e+00  9.5979274383050548e+00  9.6094341035125410e+00  9.5940585546787887e+00  9.6104029251015088e+00  9.8016223417216111e+00  9.8155447339551269e+00  9.8030633271009862e+00  9.8081241144946816e+00  9.6070978967028147e+00  9.6194524549321514e+00  9.6305812617454336e+00  9.6163482883056641e+00  9.6286350708198487e+00  9.7466520058480981e+00  9.7502058476803981e+00  9.7351087654935231e+00  9.7373011514834094e+00  9.7262894433620701e+00  9.7418116571489648e+00  9.7411620293246894e+00  9.7322125864534694e+00  9.7415751541677675e+00  9.7438223939095767e+00  9.7281038630616727e+00  9.7201492146984005e+00  9.7343572329638253e+00  9.7664425084036957e+00  9.7511878430718646e+00  9.7529081646950626e+00  9.7795812221203988e+00  9.7755425832917791e+00  9.7636721511852542e+00  9.8332779249502718e+00  9.8333527931420157e+00  9.8335689113288698e+00  9.6522494454410594e+00  9.6423045846627051e+00  9.6599894937436126e+00  9.7420016655949055e+00  9.7287812779242877e+00  9.7364902792877519e+00  9.7229397063145147e+00  9.7335283885745927e+00  9.7900290129511696e+00  9.7952998331869043e+00  9.8006837029989065e+00  9.7861350810083003e+00  9.8087185013043836e+00  9.7938848477191591e+00  9.7989353454634625e+00  9.8021392175347728e+00  9.7494039311641600e+00  9.7514928282324504e+00  9.7493331370377625e+00  9.7569038608635150e+00  9.7681604013688013e+00  9.7672482445866855e+00  9.7904019529490967e+00  9.7751663211466937e+00  9.7823814759281031e+00  9.7598308178467139e+00  9.7811253716873043e+00  9.6560634589111469e+00  9.7817636070085339e+00  9.7956925029975430e+00  9.7965313573072219e+00  9.7842916683028669e+00  9.7808068125232950e+00  9.7843551228151924e+00  9.8013317173971171e+00  9.6286611410208032e+00  9.6178657588105008e+00  9.7081152552210543e+00  9.7171118694690470e+00  9.7067458847357315e+00  9.7192198391726023e+00  9.6411708875688067e+00  9.8509642625637071e+00  9.8327106116315335e+00  9.8404285792753630e+00  9.8451977171535461e+00  9.8367776814580736e+00  9.8419023022250975e+00  9.8363919499233372e+00  9.8321408692483683e+00  9.8246905025871456e+00  9.7455576904057093e+00  9.7576510878020475e+00  9.7618766682030103e+00  9.7370666849173571e+00  9.6803485126666207e+00  9.6604460629222686e+00  9.6829181998860996e+00  9.6684390623239036e+00  9.6725783809733752e+00  9.6661029835265584e+00  9.6751856903084263e+00  9.6691818111720274e+00  9.6464492423905153e+00  9.6316433398506991e+00  9.7646047364515862e+00  9.7230534200561731e+00  9.7282029074431087e+00  9.7472358486203241e+00  9.7364655081809257e+00  9.7414023613722875e+00  9.7167204240418030e+00  9.7604008411878578e+00  9.8397682491660401e+00  9.8413690913947853e+00  9.8414963702850180e+00  9.8413601615316022e+00  9.8062386544744395e+00  9.8046044841791939e+00  9.8182816147774830e+00  9.8136504819387582e+00  9.8005266825597168e+00  9.8084607569563680e+00  9.8116456477384748e+00  9.8189272201292361e+00  9.8084425065733249e+00  9.8143887734313537e+00  9.8190848097841847e+00  9.6875403858846330e+00  9.6901254112980535e+00  9.7030526651104907e+00  9.6999304596720286e+00  9.7030458128647101e+00  9.7008234365049208e+00  9.7909654277272224e+00  9.7928682684563686e+00  9.7943695706524103e+00  9.8018146003591404e+00  9.7998055931723620e+00  9.8348001522132584e+00  9.8428227390701117e+00  9.8429788686563242e+00  9.8396453873359633e+00  9.8334557268454574e+00  9.8319182841382560e+00  9.8319880322599609e+00  9.8299018213123457e+00  9.6129612054578946e+00  9.6016098091723148e+00  9.5820879540576911e+00  9.5886311069652308e+00  9.7548748091870525e+00  9.7384230515368433e+00  9.7559333894106501e+00  9.7511120497738411e+00  9.7372860207205072e+00  9.7388791316742775e+00  9.7223984372546042e+00  9.6911406573952270e+00  9.6937516800844961e+00  9.6867329460303271e+00  9.7879094361449415e+00  9.7855660713058175e+00  9.7840632731791519e+00  9.7691345893134844e+00  9.7890596750649745e+00  9.7708092010643171e+00  9.7834592981110386e+00  9.7957809496843797e+00  9.8080369912748537e+00  9.7833468948360149e+00  9.7989256005267684e+00  9.7874806960557681e+00  9.7741208847514542e+00  9.8482320731198598e+00  9.7690464991034656e+00  9.7534749074926328e+00  9.7598985938450333e+00  9.7676423207198280e+00  9.7612007612784719e+00  9.7642733390641183e+00  9.8068323539205373e+00  9.8015275563749036e+00  9.8147251906413295e+00  9.8248623491177636e+00  9.8141605027244783e+00  9.8266037026764650e+00  9.8257800526826298e+00  9.8197962348274412e+00  9.8095203670040689e+00  9.8193343784210594e+00  9.7511180960186383e+00  9.7523349495837746e+00  9.7753567304582560e+00  9.7757563453900431e+00  9.7864282128885733e+00  9.7860579719121130e+00  9.8258154152615766e+00  9.8221194495395956e+00  9.8129231474366652e+00  9.8313410045467382e+00  9.8346947616658760e+00  9.8425851095610781e+00  9.8401823025787252e+00  9.8363309132487444e+00  9.8180884637709571e+00  9.8009045847492029e+00  9.8304129884360094e+00  9.8136870710677098e+00  9.8309406316345402e+00  9.8189625552962276e+00  9.8215859984847711e+00  9.8243306381502844e+00  9.8198777210678241e+00  9.7773533203140310e+00  9.7610206198360423e+00  9.7639527619006614e+00  9.7701501828386075e+00  9.7818127025656754e+00  9.7653221338755998e+00  9.7777655368965792e+00  9.7927304332244187e+00  9.6885745336039388e+00  9.6890228706776078e+00  9.6809989806085337e+00  9.6835966263048867e+00  9.6942293577453906e+00  9.7763312361702219e+00  9.7754239418323401e+00  9.6898527920626147e+00  9.6988579045058270e+00  9.6930005294958743e+00  9.6822402698620866e+00  9.6879106277962652e+00  9.6799501787977462e+00  9.6781488009906980e+00  9.6879753247085851e+00  9.6783813483651233e+00  9.6664360713896453e+00  9.5840894772357608e+00  9.6023492101599821e+00  9.6014672203444853e+00  9.6066710739662948e+00  9.6214418554577303e+00  9.6153743822176558e+00  9.8089254697804069e+00  9.8018461677527657e+00  9.8000414892647907e+00  9.7931953757624353e+00  9.7961149200416155e+00  9.8144819698899415e+00  9.8187082032040394e+00  9.7832114157591850e+00  9.7858868870899816e+00  9.7893610332223222e+00  9.7425677553430727e+00  9.7405637908012768e+00  9.7389936688144179e+00  9.7723494077593553e+00  9.6304314715662152e+00  9.6084256015548153e+00  9.6212311889815023e+00  9.6103277432360148e+00  9.6590757835430647e+00  9.6545930641231816e+00  9.6768544154304106e+00  9.6809556807081805e+00  9.7060339291879387e+00  9.7206119562946185e+00  9.7223345751652932e+00  9.6510121958325126e+00  9.6620363162418847e+00  9.6711949726820343e+00  9.6605741067946749e+00  9.6526058845710097e+00  9.6429249717027758e+00  9.6621327378847788e+00  9.6414307170348170e+00  9.6350499016860454e+00  9.6335516527708975e+00  9.7192391302944365e+00  9.7216803748088978e+00  9.7277429098566461e+00  9.7443637852035820e+00  9.7450573050680482e+00  9.7560238790287368e+00  9.7618305047216971e+00  9.7519470294060238e+00  9.7452095117088096e+00  9.7509011487719572e+00  9.7561926948606637e+00  9.8233223006682575e+00  9.8344941174322109e+00  9.5952377480343021e+00  9.6154073930859152e+00  9.7876063502736450e+00  9.7943649285873633e+00  9.8003832833458908e+00  9.7984444541492497e+00  9.8237586066496334e+00  9.8259817036906512e+00  9.8188467112118545e+00  9.7099639738859320e+00  9.7037244499667885e+00  9.7066586971466116e+00  9.7102134141399095e+00  9.7119194163608729e+00  9.7797435138863182e+00  9.7733255078870958e+00  9.7886117583368275e+00  9.7758465960407186e+00  9.7824459761926317e+00  9.7952639076295807e+00  9.8374348115326988e+00  9.8312866001350390e+00  9.6881735707223910e+00  9.6819531709736459e+00  9.6888946220845860e+00  9.6901888713977513e+00  9.6832881013310548e+00  9.6813708492603006e+00  9.8192987388559860e+00  9.8075061075728396e+00  9.8267465123132816e+00  9.8068017558587286e+00  9.6958220459996518e+00  9.7021840850850900e+00  9.7548823471788104e+00  9.7684830017060804e+00  9.7694964739117633e+00  9.7584737507954067e+00  9.8310594609218889e+00  9