<?xml version="1.0"?>
<VTKFile type="UnstructuredGrid"  version="0.1"  >
<UnstructuredGrid>
<Piece  NumberOfPoints="6627" NumberOfCells="30612">
<Points>
<DataArray  type="Float64"  NumberOfComponents="3"  format="ascii">35.07986831665039 31.27112007141113 11.54263019561768  34.79350547055314 31.74163094182887 11.44682829598314  35.03214836120605 31.55367469787598 11.2494649887085  35.0783748626709 31.81194972991943 11.57146024703979  34.98442840576172 31.83622932434082 10.95629978179932  34.56700897216797 33.24711990356445 11.39815998077393  34.64470735137454 32.71309147451775 11.46992356987255  34.74324417114258 32.94713973999023 11.1864447593689  34.82194519042969 32.79994964599609 11.49922513961792  34.91947937011719 32.64715957641602 10.97472953796387  34.23116564267225 31.38072616330785 10.79053590440333  33.86343919623747 31.57778611299873 11.34456911360952  33.99068888663908 31.03962285075018 11.72536771487615  34.4168740890084 31.51387936131238 11.36394635728514  34.65551697966131 31.32592311735949 11.1665830500105  34.60779702421698 31.60847774382433 10.87341784310132  34.43120951799509 32.76327673062954 11.30802606459635  34.6074447169697 32.46329656705532 11.09631084319133  34.29541006382221 32.27943355769462 11.21789214841879  33.98477748909426 32.90844898168186 11.55271456879965  33.94751485468942 32.65865407421943 11.17910184211843  34.0833143088623 33.14249724715435 11.269235758296  33.59961964555663 33.03787459074424 11.14031153581807  34.26328785324723 31.83007986050124 11.00421402641106  33.54766619767966 32.40636032671692 11.5194569293169  34.63991923479196 32.05783144101773 11.08709596510905  31.0957202911377 36.51436996459961 8.328132629394531  30.47428353650373 36.83389112996198 8.009808461244166  30.45133257471896 36.30015233793061 7.834265280843407  30.57792920542469 36.66442458800203 8.361137110687158  30.99207462221674 36.68383650655957 7.976803979951539  30.55497824363992 36.13068579597065 8.1855939302864  30.01423619614213 35.7470016273417 8.043055231178268  30.03718715792691 36.28074041937307 8.218598411579027  30.88842895329578 36.85330304851953 7.625475330508547  30.06013811971168 36.81447921140445 8.394141591979785  29.21954917907715 35.07582092285156 8.13145637512207  29.86915289573952 35.21771048469135 8.265398350757591  29.61689268760964 35.41141127509663 8.087255803150169  29.61564922332764 34.99879455566406 7.946274757385254  29.47180938720703 34.88212013244629 8.309598922729492  29.72406959533691 34.68841934204102 8.487741470336914  29.86790943145752 34.80509376525879 8.124417304992676  30.01174926757812 34.92176818847656 7.761093139648438  30.01299273186013 35.33438490790913 7.902074185413353  29.15921020507812 38.5631103515625 7.174285888671875  29.97175843457378 38.60862605171214 7.182464418323348  29.63507710033799 38.7832916529655 7.543516329828412  29.69850880841411 38.24327151374828 7.305506286533187  29.43245983123779 38.92846488952637 7.051244020462036  29.70570945739746 39.29381942749023 6.928202152252197  29.90832672649766 39.14864619092936 7.420474461618573  30.2378074117501 37.92343267593405 7.436726684394499  30.17437570367397 38.46345281515127 7.674736727689725  30.11094399559785 39.00347295436849 7.91274677098495  28.25810050964355 34.53462982177734 8.969587326049805  28.32490512282743 34.49424623240475 9.720283836843636  27.964773665431 34.78725716361737 9.739792097690053  28.54896782046084 34.65803071456225 9.208607945879603  28.03403781201015 34.37084533961984 9.481263217013838  28.1888363630644 34.95104164577486 9.228116206726018  28.11957221648525 35.36745346977239 9.486645087402232  28.47970367388168 35.07444253855978 9.467136826555816  27.80997511437674 34.20706085746234 9.992939107977872  28.83983513127812 34.78143160734716 9.447628565709401  29.01416969299316 34.80854034423828 8.70344352722168  29.07338443912995 35.21380564074951 9.134939958633314  29.583535881152 35.24873023877421 9.229071526411401  28.92700241213564 34.79498597579272 9.07553604646554  29.16055171998748 35.22736000919507 8.762847439389454  29.43715385415769 34.82991057381742 9.169667614243627  29.30693374698179 35.64617967415187 8.822251351557227  29.86013801532221 34.85128080339656 9.635891701265574  29.34998657330016 34.81635620537186 9.541760133487488  30.01811027526855 37.36734008789062 9.433716773986816  30.5744457244873 37.00218963623047 8.920247554779053  30.03912419749012 37.09090964964754 8.913929182983301  30.41334056854248 37.46067428588867 9.041779041290283  30.17921543121338 36.90885543823242 9.312185287475586  30.3403205871582 36.45037078857422 9.190653800964355  30.20022935343494 36.63242499998933 8.79239769647207  30.80857086181641 37.55400848388672 8.64984130859375  30.43435449076404 37.18424384764558 8.521991450286768  30.9323902130127 38.43249130249023 8.608931541442871  30.91095883587993 38.06959216194164 7.693882284076522  30.71084840039409 38.50432650642406 7.763758716495345  30.5850988123814 38.17796198921214 8.022829112918686  31.25825023651123 38.32412147521973 8.279984712600708  31.38399982452393 38.65048599243164 8.020914316177368  31.05813980102539 38.75885581970215 8.349861145019531  31.18388938903809 39.08522033691406 8.090790748596191  31.58411026000977 38.21575164794922 7.951037883758545  30.88050079345703 34.84772872924805 10.30130958557129  30.73293523244849 34.43776082487243 9.794749071783038  30.90491130072905 34.40737160864171 10.29113774313038  31.07119083404541 34.62482452392578 9.891363143920898  31.26188087463379 34.40192031860352 9.481416702270508  30.7573457397205 33.99740370426608 9.784577229342126  30.92362527303687 34.21485661955016 9.384802630132647  31.09560134131743 34.18446740331945 9.881191301479989  30.92932180800106 33.96701448803537 10.28096590068947  30.58536967143995 34.0277929204968 9.288188557994784  27.96095802817873 31.70989357540611 11.28178833485667  28.19666380229979 32.3427362301221 11.28245911679518  28.74446981476072 32.3514693282833 11.66729508242348  28.24230497406247 32.46952467191123 11.73438988527993  28.43236957642085 32.97557888483809 11.28312989873368  28.68004035949707 35.57851028442383 7.763682842254639  29.51598430817327 36.25010623012031 7.978522095983909  29.49269854240701 35.83675002021381 7.580723610919945  29.3471382778196 35.66275595588276 7.903369036716454  28.82560062408447 35.75250434875488 7.44103741645813  28.84888638985074 36.16586055866138 7.838835901522094  28.97116088867188 35.92649841308594 7.118391990661621  28.99444665443815 36.33985462299243 7.516190475725585  29.01773242020442 36.75321083289892 7.913988960789549  28.0522403717041 31.96347045898438 12.18564987182617  28.42329502105713 32.19535446166992 12.28234481811523  28.3240701489282 32.96161489713096 11.98821984133462  28.13400554656982 32.4555606842041 12.43947982788086  28.79434967041016 32.42723846435547 12.3790397644043  28.6133596234155 32.70140867459678 11.83108483156899  31.43573580644872 32.64360272366867 11.33264418530393  32.29055827388355 31.99773097681577 12.04379815881222  31.83217972036491 32.08810127068735 11.32128226695166  31.47353736448062 31.94936739017917 11.81752321223005  31.89411435996736 32.55323242979709 12.05516007716449  31.51133892251252 31.25513205668967 12.30240223915617  31.86998127839681 31.39386593719785 11.80616129387778  32.22862363428111 31.53259981770603 11.30992034859939  29.14015960693359 39.25217819213867 7.442903995513916  29.62555180126572 39.12782557325358 7.677825383249433  29.29838586230485 38.69890583281007 7.934509430085328  29.14968490600586 38.90764427185059 7.308594942092896  29.30791116137711 38.35437191252198 7.800200376664308  29.4566121176761 38.14563347348147 8.426114864656741  29.78377805663698 38.57455321392498 8.169430817820846  29.68353593334674 36.23032944277816 8.608196471768506  29.14096904002898 36.35135815536869 9.027719290099659  29.82362716707 36.04827523136304 9.006452576260791  29.65766246011719 36.75345371257986 9.211920514803223  28.97500433307618 37.0565366365855 9.233187228642091  29.51757122639393 36.93550792399498 8.813664410310938  29.31727981567383 34.23305130004883 8.953628540039062  29.07855747347597 34.50724145369799 9.200628552874232  29.58870891549802 34.5421660517227 9.294760120652318  29.33891337911599 34.01645646215437 9.60614862877887  29.36054694255815 33.79986162425992 10.25866871751868  29.10019103691813 34.29064661580354 9.853148641614039  29.61034247894018 34.32557121382824 9.947280209392126  28.15439987182617 37.84255981445312 8.244411468505859  29.23717226894026 37.4494221531902 8.170051912723146  28.80550599475114 37.9940966439673 8.335263166581299  28.45086002349854 37.78278541564941 7.887069702148438  28.58606614601529 37.29788532367603 8.079200214647704  28.7473201751709 37.7230110168457 7.529727935791016  29.1019661464235 37.93432224516359 7.977921400223878  28.88252629768766 37.23811092487232 7.721858448290282  30.26585960388184 35.65174102783203 9.305734634399414  29.78330995734526 35.32138945672147 8.777747772003909  29.78639667543181 35.64896035099195 9.063992992978321  30.14004790001199 35.69937132758686 8.674394932788841  30.26277288579528 35.32417013356155 9.019489413425003  29.66058497156196 35.69659065074678 8.432653291367748  30.13696118192543 35.37180043331638 8.38814971181443  30.25968616770872 34.99659923929107 8.733244192450591  29.05290031433105 32.53258895874023 9.778939247131348  29.17276259778177 33.01942956301464 10.45831134217616  29.01893928366822 32.38579323025481 10.21844660698249  29.55530136717908 32.71879647560779 10.21399860829024  29.2067236284446 33.16622529150008 10.01880398232501  29.70912468129263 33.35243280836763 10.4538633434839  30.0577024200271 32.90500399247534 10.64905796944913  29.52134033651624 32.57200074712236 10.65350596814138  28.98497825300538 32.23899750176937 10.65795396683363  30.69569501839165 33.7628700922233 11.6688655472862  30.75704637960534 33.40064298196029 10.81728295992211  31.07604267878761 33.82957603183426 11.32718674884065  30.81250841319635 33.86494229012933 10.97491572398
[...]
<PointData  Scalars="p"> 
<DataArray  type="Float64"  Name="p"  format="ascii">8.2570680698252534e+00  8.2712843380414203e+00  8.2671527981691622e+00  8.2689313082986047e+00  8.2710331978854761e+00  8.2950038898178882e+00  8.2876339395395195e+00  8.2879138282312379e+00  8.2870588700980434e+00  8.2807417380089063e+00  8.2719522820616103e+00  8.2845261869160041e+00  8.2722504990246932e+00  8.2725357774104555e+00  8.2657240187453453e+00  8.2700800292444114e+00  8.2905127092188646e+00  8.2828744988985914e+00  8.2859597736276278e+00  8.3022772165282497e+00  8.2974168477635661e+00  8.3008235460794388e+00  8.3098016690541847e+00  8.2791270644229957e+00  8.3056090946298404e+00  8.2772839308212962e+00  8.3840020521538516e+00  8.3963955792194582e+00  8.3902536490120436e+00  8.4055887319198401e+00  8.3760555225759230e+00  8.3983183194710751e+00  8.4134187310910402e+00  8.4201217436026461e+00  8.3682120236937063e+00  8.4261305106505073e+00  8.4503040556291200e+00  8.4262479481973855e+00  8.4308648871038105e+00  8.4252048396782673e+00  8.4462004466142684e+00  8.4409051484141475e+00  8.4198364857507020e+00  8.4008618638771573e+00  8.4072241796954064e+00  8.4071293806008018e+00  8.3793323354012106e+00  8.4051620732173280e+00  8.3943393630286405e+00  8.3919122730258593e+00  8.3738926629749120e+00  8.3895429705921511e+00  8.3822847428772214e+00  8.3912220649186988e+00  8.3995681479443398e+00  8.5432040006709951e+00  8.5484257516230304e+00  8.5655162839450565e+00  8.5271581143754833e+00  8.5655097025911182e+00  8.5435908553315940e+00  8.5472943385908700e+00  8.5310103746740946e+00  8.5819871424954517e+00  8.5140261924862859e+00  8.4860678932372728e+00  8.4926172097204997e+00  8.4722459630243137e+00  8.5015693537658965e+00  8.4767985183982333e+00  8.4766916623917368e+00  8.4713286700777974e+00  8.4686162493298358e+00  8.4898081469087785e+00  8.4688368133801504e+00  8.4273365816695254e+00  8.4469350284628053e+00  8.4356348635644220e+00  8.4604219091695256e+00  8.4501924675444133e+00  8.4368782663691047e+00  8.4052533792446766e+00  8.4164704025633590e+00  8.3940348981402728e+00  8.3683380876110238e+00  8.3759177162880913e+00  8.3896644332768364e+00  8.3753058290676208e+00  8.3618861378888614e+00  8.3825456673397820e+00  8.3694968572503825e+00  8.3539891329782794e+00  8.4400235503113361e+00  8.4270661701895602e+00  8.4270833647719172e+00  8.4192461943852734e+00  8.3917447110241810e+00  8.4172968435150377e+00  8.4031828135033546e+00  8.4061875874809324e+00  8.4170167089336498e+00  8.4154175705650012e+00  8.5926243529903115e+00  8.5706288405987472e+00  8.5307223187486567e+00  8.5664443755279009e+00  8.5521290395295448e+00  8.4574771777310573e+00  8.4311033326337821e+00  8.4168148711126562e+00  8.4350602704751072e+00  8.4374253284563281e+00  8.4521998256780222e+00  8.4179378745725373e+00  8.4329390380296552e+00  8.4471584440075276e+00  8.5903214728425716e+00  8.5550195969240850e+00  8.5581715921050190e+00  8.5795509571480064e+00  8.5201498708851684e+00  8.5393255887076904e+00  8.3812814924969725e+00  8.3375932448290691e+00  8.3551943292468600e+00  8.3672450577683435e+00  8.3624961250525693e+00  8.3481655999580369e+00  8.3407078717918317e+00  8.3306868980084943e+00  8.4224390787910863e+00  8.4103645686386752e+00  8.4341481773756062e+00  8.4151097381511182e+00  8.4286075439074999e+00  8.4474819097768865e+00  8.4228762523530278e+00  8.4486905500877825e+00  8.4850133154134593e+00  8.4585112737430208e+00  8.4734866122059902e+00  8.4985493799813483e+00  8.4626483272469279e+00  8.4808668575402173e+00  8.4981795077738287e+00  8.4717485616343406e+00  8.4909671678824132e+00  8.4959327252070338e+00  8.5076155992200722e+00  8.4818394750952315e+00  8.4950388565161639e+00  8.4475568965539818e+00  8.4709390618021914e+00  8.4662409813006576e+00  8.4698036056920252e+00  8.4383190445274501e+00  8.4442936680171741e+00  8.4431207458304254e+00  8.4536993384207033e+00  8.4489481262600759e+00  8.4603631402595898e+00  8.4316787317476578e+00  8.4371635524341055e+00  8.4423048187841125e+00  8.4195431735785267e+00  8.4241305053678825e+00  8.5148135852138900e+00  8.5062648690591587e+00  8.5172467662250018e+00  8.4786936222001525e+00  8.5026478149053997e+00  8.4746389588440376e+00  8.4512879152725375e+00  8.4817229975829562e+00  8.5180518025985990e+00  8.4351371832457005e+00  8.4220508451495242e+00  8.4181496410872239e+00  8.4283540901682645e+00  8.4418810637588741e+00  8.4325684518210284e+00  8.4086430333179649e+00  8.4000131756201064e+00  8.5165106212223733e+00  8.5089049117928077e+00  8.5119422306448964e+00  8.4938394806069049e+00  8.5327888695907106e+00  8.5231081788651615e+00  8.4904284791327260e+00  8.5069488379146225e+00  8.4351516711987049e+00  8.4285152194879096e+00  8.4244896974197463e+00  8.4451023363898372e+00  8.4333295932228349e+00  8.4139037180298644e+00  8.4186437762847692e+00  8.4479253734084452e+00  8.4608582263647989e+00  8.4513989123180089e+00  8.4429561294722308e+00  8.4212283822171621e+00  8.4234253863529158e+00  8.3864801828690378e+00  8.4060987159820311e+00  8.3776185874224307e+00  8.3847308919539518e+00  8.4040369733214035e+00  8.3759943524279574e+00  8.3655125627963276e+00  8.3714267589973712e+00  8.3574394813652546e+00  8.3916098814635145e+00  8.3957555438453753e+00  8.3785040451672010e+00  8.3466336428104633e+00  8.3615388960185975e+00  8.3764398704223311e+00  8.5540001572348316e+00  8.5359131295152721e+00  8.4886504778538168e+00  8.4967132840061552e+00  8.4848452707888828e+00  8.4760288730713960e+00  8.4614661756232987e+00  8.4736035668742762e+00  8.3640526048669308e+00  8.3757573727225818e+00  8.4868924412519284e+00  8.5246982723415243e+00  8.5315084033561295e+00  8.5115691760961365e+00  8.4972677579470410e+00  8.4623650727168229e+00  8.4807920913029715e+00  8.4221745993210675e+00  8.4160383051131511e+00  8.4327366943607753e+00  8.3988047779316961e+00  8.3662977234142861e+00  8.3561063762993530e+00  8.3772480031510188e+00  8.3891436803238477e+00  8.3671086461588331e+00  8.4003907000389706e+00  8.4564363222407746e+00  8.4633320325565276e+00  8.4558889529207235e+00  8.5706000905406867e+00  8.5622764367591895e+00  8.5635857184434769e+00  8.5408310165872567e+00  8.5872291663315199e+00  8.5415912026827900e+00  8.6028771345776569e+00  8.4899528034745462e+00  8.5013359686119134e+00  8.4891676480638480e+00  8.5021480524879323e+00  8.4838657134870292e+00  8.4941472650239795e+00  8.5099996789229859e+00  8.4253331944994425e+00  8.3941499032631874e+00  8.4136984290288694e+00  8.4367491354745123e+00  8.6144323345822240e+00  8.5960004471919689e+00  8.5757436405741796e+00  8.5022371110005004e+00  8.5055182889545069e+00  8.5268171007106233e+00  8.5176275972865341e+00  8.4891377770544469e+00  8.4816614409271711e+00  8.4736683822874088e+00  8.4714504630640519e+00  8.5690978810873393e+00  8.5949104426119316e+00  8.5928570609396928e+00  8.6167907856213066e+00  8.4126161520397584e+00  8.4317349662871930e+00  8.4576370474089373e+00  8.4791939602068336e+00  8.4821279180220976e+00  8.5044392840860503e+00  8.4676530208507863e+00  8.4621457004059160e+00  8.5015280042498720e+00  8.4894088371398215e+00  8.4588735418521885e+00  8.5084929287072111e+00  8.4286015458363064e+00  8.4479541707673249e+00  8.4572820163467597e+00  8.4199427670446347e+00  8.4343965181812308e+00  8.4601271551137920e+00  8.4655953213875073e+00  8.3912589953506842e+00  8.3906566203868049e+00  8.3971389299635835e+00  8.4194133257527604e+00  8.3911876163956745e+00  8.4094740974374318e+00  8.3989397382967255e+00  8.4019371705482264e+00  8.3833147870520381e+00  8.3805254764433421e+00  8.3752984673917563e+00  8.3880648399330191e+00  8.4461572705020931e+00  8.4464040243983511e+00  8.4518172496721427e+00  8.4232904085463947e+00  8.4190730919717343e+00  8.3728970980091688e+00  8.3823342146960851e+00  8.3657420859732650e+00  8.3592127336985609e+00  8.4714315924178045e+00  8.4991515436606573e+00  8.4769546799879691e+00  8.4792887064581102e+00  8.4999167026435192e+00  8.5874405893525800e+00  8.5649254011531450e+00  8.5323703844922942e+00  8.5519856222554669e+00  8.5349226323570839e+00  8.5240718409715317e+00  8.4888479714731364e+00  8.4297014220050244e+00  8.4137320090475534e+00  8.5208538022313132e+00  8.5118286606253069e+00  8.4582183342866255e+00  8.4815859510444387e+00  8.4560894805811664e+00  8.4491620876126383e+00  8.4512561186883737e+00  8.3340319399600045e+00  8.3574240576690126e+00  8.3361329769469439e+00  8.4092008206399012e+00  8.4085929259566097e+00  8.4202016644174513e+00  8.4033887278176422e+00  8.3967621125941481e+00  8.3911709690369118e+00  8.3741636664903787e+00  8.4180813532986232e+00  8.4079898267507698e+00  8.4451651449242817e+00  8.4535263821670235e+00  8.4554100152802292e+00  8.4432954582811703e+00  8.4860697377080232e+00  8.5118173656177092e+00  8.3980966692141390e+00  8.4016567769035646e+00  8.4141631531210752e+00  8.4096950160735364e+00  8.4117391330294637e+00  8.5821565337782886e+00  8.5580712991776089e+00  8.5396583089545519e+00  8.5589710809611326e+00  8.5365967646559699e+00  8.5470771560316621e+00  8.5030788253245557e+00  8.4815276413890732e+00  8.5031941819816623e+00  8.4803229623516678e+00  8.4793156182177594e+00  8.4536960199251894e+00  8.4553589992485190e+00  8.4365049974774031e+00  8.4740098187913713e+00  8.5163616894322818e+00  8.4912180901209595e+00  8.5173029286723843e+00  8.5070655113575562e+00  8.4896126170391639e+00  8.4988490632769267e+00  8.5086587389781769e+00  8.4816294607190716e+00  8.4642707475111809e+00  8.5421174664788033e+00  8.5285180872357191e+00  8.5189338842623670e+00  8.5280808830841313e+00  8.5458874783736096e+00  8.5339934545216920e+00  8.5244331058436593e+00  8.5244251651766767e+00  8.5559539508017046e+00  8.4971743088891767e+00  8.5037143966242006e+00  8.4959665850843962e+00  8.4197234021686960e+00  8.4414098641379898e+00  8.4431168184758505e+00  8.4554310348703190e+00  8.5313640198299563e+00  8.5636021745012414e+00  8.5269683306554196e+00  8.5099869515419559e+00  8.5461101198347329e+00  8.4848280752941942e+00  8.4836734505566067e+00  8.4815240645925876e+00  8.4699563637991542e+00  8.5122056322995920e+00  8.5254013064917231e+00  8.5030535419208420e+00  8.4878545356357602e+00  8.4822643081050106e+00  8.4786023681780360e+00  8.6243256432473796e+00  8.5794109525536850e+00  8.5820552413289946e+00  8.5480365882944938e+00  8.4460010590640398e+00  8.4186670395960110e+00  8.4206599465308258e+00  8.4189753420095190e+00  8.4409894533953675e+00  8.4396580625687250e+00  8.4181966071823275e+00  8.4043308227344173e+00  8.4030146949878688e+00  8.3566394635131651e+00  8.3629012094187516e+00  8.3744431351911803e+00  8.3801373299170034e+00  8.3768628295146357e+00  8.3723461551985192e+00  8.3664099107539691e+00  8.3797252300874270e+00  8.3966418542167514e+00  8.3831142917527011e+00  8.3739509416116533e+00  8.3939575355939464e+00  8.3894897443902661e+00  8.5147991166030099e+00  8.5131386204085278e+00  8.4449140119602077e+00  8.4670137596535096e+00  8.4689759615666844e+00  8.4478005234352995e+00  8.4359299696517898e+00  8.3228785739251112e+00  8.3162394367655335e+00  8.3112895074614652e+00  8.3076484315699748e+00  8.3047534808747780e+00  8.2975945377381422e+00  8.2972254203775524e+00  8.4608683064681021e+00  8.4653778552324148e+00  8.4653371086781295e+00  8.3940832008058095e+00  8.3991521135302456e+00  8.4167479191550747e+00  8.4058365413450833e+00  8.4021590235160186e+00  8.3978987109476257e+00  8.3943434037981621e+00  8.4620987073408092e+00  8.4427027455748966e+00  8.3468619596100382e+00  8.3217139843938490e+00  8.3265395808381140e+00  8.3324887950135427e+00  8.3335372405665051e+00  8.3187819770218283e+00  8.3159098709121348e+00  8.4542633059803727e+00  8.3887926299424223e+00  8.3828304470189394e+00  8.5287912936463250e+00  8.4012996532288788e+00  8.4180222578274346e+00  8.4114563549367460e+00  8.3561547379760093e+00  8.3413528175785885e+00  8.3505183888426409e+00  8.5157666524176694e+00  8.4990964158199009e+00  8.3887824215685072e+00  8.3717624821592818e+00  8.3829112051767130e+00  8.4042879112769953e+00  8.4047723661421880e+00  8.4168666944366048e+00  8.4100004108292445e+00  8.4219052335982010e+00  8.3963200729664340e+00  8.3968573966895654e+00  8.3942003932791724e+00  8.5374760801068348e+00  8.5396013043920327e+00  8.5456144592000083e+00  8.4136319140295210e+00  8.4158861839583246e+00  8.3315927477638319e+00  8.3288621832500223e+00  8.4288869875518166e+00  8.4059823366486928e+00  8.3880337917966923e+00  8.4023846867839271e+00  8.3971001027571628e+00  8.4067720836118429e+00  8.3773712416105077e+00  8.5137371276890175e+00  8.4885997289873458e+00  8.5491626760078390e+00  8.5981990265893486e+00  8.5882742634000824e+00  8.5940900121322734e+00  8.5719552536433312e+00  8.5403596863515752e+00  8.5649511882492710e+00  8.5704550726142052e+00  8.6012260457588958e+00  8.6098526589210689e+00  8.4565373641648449e+00  8.4191018323597451e+00  8.4127205893734320e+00  8.4038344454692080e+00  8.3900992132244046e+00  8.4095460461667262e+00  8.3874808745264531e+00  8.3783812975425445e+00  8.4598484709485291e+00  8.4670461174767837e+00  8.4916816035094591e+00  8.4545484887833311e+00  8.4031645830034609e+00  8.3897287323751328e+00  8.2975840323932584e+00  8.3127907591035690e+00  8.3173788237306354e+00  8.4867627444564615e+00  8.4539866184514540e+00  8.4219323150568002e+00  8.4544364749819483e+00  8.5072523886702811e+00  8.3736674868648393e+00  8.3777948950931158e+00  8.3891364652099334e+00  8.3987253176216559e+00  8.3997790771350100e+00  8.3872477890185060e+00  8.4114322765139988e+00  8.4230815396368772e+00  8.4192418541108971e+00  8.4330953915637732e+00  8.4108054230641223e+00  8.3709646380194656e+00  8.4221270728131401e+00  8.4504472138671307e+00  8.4939163272695186e+00  8.4800228703113927e+00  8.4088554632134738e+00  8.3499177122502726e+00  8.4337560267621718e+00  8.4432550057677069e+00  8.5213331677180477e+00  8.5061912592432716e+00  8.4462991207488436e+00  8.4271703427801583e+00  8.4518431157154925e+00  8.3975130739346824e+00  8.3067669505499051e+00  8.4276746952239012e+00  8.4116728932579576e+00  8.3968749610254871e+00  8.4611731480339678e+00  8.4328279659576229e+00  8.4540324522020498e+00  8.3661965308646202e+00  8.3468025865398836e+00  8.3466851295976863e+00  8.3575022929405769e+00  8.4722031861753777e+00  8.4188232922995958e+00  8.5955909605154446e+00  8.5815530463182128e+00  8.3574830882213771e+00  8.4807294475193231e+00  8.3221687679822782e+00  8.3906467753104987e+00  8.3966495771326350e+00  8.4191882955437336e+00  8.3831333358112960e+00  8.4132250460661719e+00  8.3985814942426487e+00  8.4889882968996115e+00  8.4794675992274371e+00  8.4612857379019637e+00  8.4676207565932273e+00  8.3299018375781007e+00  8.4140051709069432e+00  8.4951378596811473e+00  8.3634649636114524e+00  8.3903616866650008e+00  8.4282545052877360e+00  8.4000893855163810e+00  8.4739420022394309e+00  8.3709005167621235e+00  8.3839746025199080e+00  8.3889084393057729e+00  8.3997219657013513e+00  8.3121713171278095e+00  8.3873515513856898e+00  8.3897693496600887e+00  8.3754562397142021e+00  8.4567601358214706e+00  8.3981089171468390e+00  8.3790215172759783e+00  8.5206740853951377e+00  8.5584706228741201e+00  8.4536876670490120e+00  8.4734469384378617e+00  8.3420355364268275e+00  8.3247380181345161e+00  8.4657470625044908e+00  8.3608936542569356e+00  8.3751900376883963e+00  8.3973082757200519e+00  8.4362939440240048e+00  8.4428696786090640e+00  8.4152643836005083e+00  8.3845144077707960e+00  8.3315322642956051e+00  8.4887764819548099e+00  8.5151868971416871e+00  8.3818226313919180e+00  8.3683552069940319e+00  8.3859127606684485e+00  8.3627068747240649e+00  8.3853048934695007e+00  8.3677215708153643e+00  8.3842749398044631e+00  8.2244172877010904e+00  8.2213523260022061e+00  8.2217884393934320e+00  8.2329885680625612e+00  8.2241311023610884e+00  8.2229980731065293e+00  8.2336883806342804e+00  8.2428128855996299e+00  8.2303828449108316e+00  8.2197240075061409e+00  8.1774597129220972e+00  8.1729995863634208e+00  8.1598619677607935e+00  8.1730215364771244e+00  8.1711381323445895e+00  8.1705462903000967e+00  8.1560236478703825e+00  8.1380951171417806e+00  8.1544885571999899e+00  8.1713743183203977e+00  8.1894510592845489e+00  8.1855155374120425e+00  8.1931122178727485e+00  8.1925553860644005e+00  8.1813266025516818e+00  8.1971519588997097e+00  8.1971757948622717e+00  8.1848396080842214e+00  8.1983718801649683e+00  8.1736924108787488e+00  8.1683106643634940e+00  8.1668928507856240e+00  8.1703492929792283e+00  8.1768443689091352e+00  8.1812391150664840e+00  8.1717167120951597e+00  8.1626562741949993e+00  8.1623192890665397e+00  8.1615146048025800e+00  8.2395682202825533e+00  8.2427576435965335e+00  8.2454432678750305e+00  8.2389402924888344e+00  8.2436829181439961e+00  8.2475856422818410e+00  8.2497852137636301e+00  8.2385127343034057e+00  8.2448413039211559e+00  8.2515342539671099e+00  8.2345004031566909e+00  8.2290226542297855e+00  8.2281268161895316e+00  8.2244763454231098e+00  8.2135047747872569e+00  8.2226152860929211e+00  8.2184259553204857e+00  8.2171993936689542e+00  8.2212729529794544e+00  8.2228463605945752e+00  8.3572257810600412e+00  8.3492711946932197e+00  8.3668053969120404e+00  8.3524864007508288e+00  8.3404649602574263e+00  8.3365146549086990e+00  8.3251970851685329e+00  8.2077711616761313e+00  8.1902305638274928e+00  8.2013442857671350e+00  8.1990029190516704e+00  8.1944589193541866e+00  8.1864061635057404e+00  8.1904284151018860e+00  8.1924994144893919e+00  8.1957523590980674e+00  8.2330190099133844e+00  8.2331343211700485e+00  8.2325952217876122e+00  8.2319098191397799e+00  8.2334840042221789e+00  8.2339196742767307e+00  8.2325624392140462e+00  8.2308423876910624e+00  8.2314425279114438e+00  8.2325425136484611e+00  8.2713260272805158e+00  8.2612148306988118e+00  8.2619074527085985e+00  8.2544808271448993e+00  8.2699016209070582e+00  8.2412028606446981e+00  8.2468602745758233e+00  8.2533407244395551e+00  8.2669610599540970e+00  8.2530365359882527e+00  8.2283373404394240e+00  8.2340828052697059e+00  8.2292324268027102e+00  8.2341870021708985e+00  8.2343472846823644e+00  8.2348258926517612e+00  8.2299178502115673e+00  8.2056494347729121e+00  8.1975816788163307e+00  8.2037592343133472e+00  8.2042298802329636e+00  8.2001991640195424e+00  8.1924443410979944e+00  8.1966517563946173e+00  8.2023521851181975e+00  8.2020344514512793e+00  8.2022119503261699e+00  8.3591175677308946e+00  8.3464860829758205e+00  8.3389244030380958e+00  8.3550520626453935e+00  8.3437458338064037e+00  8.3288285372938287e+00  8.3485511748867367e+00  8.0805460916840719e+00  8.0567640967577887e+00  8.0796133374414936e+00  8.0690453480573385e+00  8.0644909258735495e+00  8.0851390690083456e+00  8.0942452306640575e+00  8.0712466878707314e+00  8.0559647232651024e+00  8.0602555511981038e+00  8.1790851393035933e+00  8.1687231444988715e+00  8.1754351349925365e+00  8.1758006979293079e+00  8.1720169188553129e+00  8.1720178116026982e+00  8.1709255090594670e+00  8.1679760741627163e+00  8.1674288709885250e+00  8.2390714992704179e+00  8.2380017457925891e+00  8.2383484144936734e+00  8.2418853654677040e+00  8.3721755472182515e+00  8.3832879285881265e+00  8.3608990547991180e+00  8.3646320549441437e+00  8.2417358206241573e+00  8.2358983650530284e+00  8.2340105397664161e+00  8.2420471579828103e+00  8.2419752208805850e+00  8.2353868560507522e+00  8.2332765824802525e+00  8.2252481789643976e+00  8.2274058491307791e+00  8.2295707739673603e+00  8.2410460118883808e+00  8.2384524846491534e+00  8.2389998893450080e+00  8.2390789672926203e+00  8.2408517243007218e+00  8.2406769911425730e+00  8.2410829860470241e+00  8.2407877932501421e+00  8.2392167148012501e+00  8.2377706472587082e+00  8.2100929402482894e+00  8.2052498139224923e+00  8.2028932477084933e+00  8.2023538608775457e+00  8.2103128747376939e+00  8.2130384594146371e+00  8.2098721647083437e+00  8.2120676805149824e+00  8.1933418209586684e+00  8.2156547715702075e+00  8.1786397402281619e+00  8.1868667598473195e+00  8.1868072861620576e+00  8.1898589268740398e+00  8.1776321174749693e+00  8.2019017291193510e+00  8