<?xml version="1.0"?>
<VTKFile type="UnstructuredGrid"  version="0.1"  >
<UnstructuredGrid>
<Piece  NumberOfPoints="7056" NumberOfCells="32631">
<Points>
<DataArray  type="Float64"  NumberOfComponents="3"  format="ascii">30.52351951599121 21.13785934448242 34.06517028808594  30.38449332610821 20.75081047493914 34.42330479178188  30.169290497279 20.56999180705304 33.94988097311882  30.12431998488886 20.90327141673322 34.09861601950553  30.82866336960069 20.65211879300817 34.24112401397556  30.78369285721055 20.98539840268834 34.38985906036228  30.56849002838135 20.80457973480225 33.91643524169922  30.61346054077148 20.47130012512207 33.7677001953125  31.0438661984299 20.83293746089426 34.71454783263863  29.72512045378652 20.66868348898402 34.13206175092513  29.87471001769725 20.5741088958795 35.89900672960957  30.82513033360854 20.1862437346732 35.42152127414838  30.02824239623988 20.24955771608662 35.42529412608891  30.45928810806357 20.70352317838688 35.3067772811241  30.18177477478252 19.92500653629374 34.95158152256825  30.61282048660621 20.378971998594 34.83306467760345  30.01381543899387 21.21397070945565 34.91109736188455  30.22611739051744 21.55005004436406 34.70636311880848  29.91171290290758 21.36226012737187 34.49283925406239  29.88249232185289 21.68546512157353 34.7092184197118  25.29897912133083 21.25870207306377 33.67941004970169  24.88853933568386 21.8123156245569 33.99983228772601  25.5574378767123 22.11550069822368 34.48042956267874  25.31867842465454 21.38193651858562 34.67683825559472  25.96787766235926 21.56188714673054 34.16000732465443  24.47809955003689 22.36592917605003 34.32025452575032  31.11318016052246 18.64185905456543 37.65922164916992  31.19339877094682 19.34220202966237 37.09265172625622  31.37435908023178 18.88477730675123 36.84586938239575  30.85075193457793 18.96912697928267 37.41609135791936  31.45582699689135 19.01493410494513 37.33578201750679  31.63678730617631 18.55750938203399 37.08899967364631  31.79847383326024 19.38800915532483 37.01234238584365  30.5883237086334 19.29639490399991 37.1729610666688  26.86557294053507 20.92302443634773 33.19925800990005  26.06232012748206 21.61232776812223 33.49409351987079  25.71082098153331 21.80522902187978 33.08221004474512  26.84561703708418 21.44448894976421 33.25401749996998  26.08227603093295 21.09086325470575 33.43933402980087  26.49411789113543 21.63739020352176 32.84213402484431  26.12266284173579 22.35175597069579 32.48501003978857  26.47416198768455 22.15885471693824 32.89689351491424  26.8256611336333 21.96595346318068 33.3087769900399  29.3667003772865 19.30805498465221 37.53760497674538  29.61942921433729 19.9005861007013 36.94046378485106  29.3887075466987 19.42142165152634 36.97368131418442  28.86649457661748 20.06007809981844 37.24481195948518  29.5974220449251 19.78721943382717 37.50438744741201  29.82814371256369 20.26638388300212 37.47116991807866  29.4107147161109 19.53478831840047 36.40975765162347  28.88850174602968 20.17344476669257 36.68088829692422  27.45257501459575 20.80307685329194 32.98661802151743  27.48706029466677 21.08624044342476 33.3445396473178  27.18422481374482 21.21477383031117 33.03751159636023  27.50287668695456 21.50652322427459 32.87576518282041  27.7712268878055 21.09482624725538 32.82487160797761  27.80571216787652 21.37798983738819 33.18279323377799  28.10854764879847 21.24945645050179 33.48982128473556  28.07406236872745 20.96629286036897 33.13189965893518  28.03957708865643 20.68312927023615 32.7739780331348  31.3261604309082 20.71208000183105 33.92852020263672  31.66683812948754 20.23471534081683 33.88671605379187  31.23312326284936 20.03610026665911 33.77371709138953  31.2891735634475 20.34642493554339 34.13651196748816  31.6477746963501 20.29004573822021 33.3159294128418  31.70382499694824 20.60037040710449 33.67872428894043  31.27011013031006 20.40175533294678 33.56572532653809  31.21405982971191 20.0914306640625 33.20293045043945  32.08148956298828 20.48866081237793 33.42892837524414  31.2521866959868 19.98076986925572 34.3445037323396  26.46791871207128 20.8357048868759 36.18419356405651  26.78787625216025 21.65458882425691 36.7510118495852  26.32993707931355 21.74538360856013 36.46227729431401  26.68609018808272 21.39119443846553 36.15031630438081  26.11176560330211 21.18989405697049 36.49615455398971  26.56970477614881 21.09909927266727 36.78488910926091  25.75561249453293 21.54408322706508 36.8081155439229  26.21355166737964 21.45328844276187 37.0968500991941  26.67149084022634 21.36249365845865 37.3855846544653  26.90426166409416 21.94668399005517 36.1164390447051  29.99951921237215 19.41559161120019 36.79135935914613  30.5085828145847 19.8015340683412 37.01737052990575  30.20823371059855 19.78138939350102 37.32206549237373  30.428841920536 20.3066732326825 36.8617799931427  30.12849281654984 20.28652855784231 37.16647495561068  29.91977831832345 19.92073077554149 36.63576882238308  27.46503067016602 22.01873016357422 31.98241996765137  27.81910344357494 21.37580685444687 32.3075172197061  27.56444470612342 21.24429719416249 31.88453530134133  27.22929494110878 21.63111703364003 32.00611065687112  27.48395367856029 21.76262669392441 32.42909257523588  27.80018043518066 21.63191032409668 31.86084461212158  28.13533020019531 21.24509048461914 31.7392692565918  26.99355921205154 21.24350390370584 32.02980134609086  27.24821794950305 21.37501356399022 32.45278326445563  27.41710374400987 20.82390305093028 36.56810625314074  27.63527522002131 21.37939260251991 36.53422899346504  28.42081069946289 22.03923034667969 33.71184921264648  28.64541838616681 21.3551683650214 33.5953115670504  28.26467917413068 21.64434339859073 33.60083524869103  28.6497106552124 21.66695499420166 33.44369506835938  28.87861061096191 21.29467964172363 33.17554092407227  28.49357912988019 21.27206804611271 33.33268110440392  29.03044986724854 21.37777996063232 33.43817138671875  29.18228912353516 21.46088027954102 33.70080184936523  28.80154991149902 21.75005531311035 33.70632553100586  26.9621696472168 22.91194915771484 32.8931884765625  26.53103190349491 22.75382948914718 33.28096719148585  26.89391539042505 22.43895131044776 33.1009827333012  27.0381498336792 22.78059482574463 33.14312362670898  27.1141300201416 22.64924049377441 33.39305877685547  26.60701208995732 22.62247515717696 33.53090234163233  26.96989557688745 22.30759697847755 33.35091788344769  26.46277764670316 22.2808316418801 33.48876144822455  26.09989415977303 22.59570982057951 33.6687459064092  30.78821372012881 19.23632067845444 35.89043628226084  31.6334798628474 19.91774504418875 36.45190170578607  31.12834980628169 19.84190080575355 35.89094865399467  31.0411238856758 19.72463761041432 36.55269759896264  31.29334377669452 19.31216491688964 36.45138933405224  31.29403405122279 20.2129545423742 37.21495891566443  31.38125997182868 20.33021773771343 36.55320997069646  31.54625394224151 19.80048184884951 37.11365065075404  31.46848589243457 20.44748093305266 35.89146102572849  29.47909170969806 20.44127873362959 35.22434397326793  29.56047788675757 19.86271454215384 35.6169665189244  29.16485957875839 19.72988437990393 34.94230376258277  29.6326240882407 20.1167275538367 34.75063136974728  29.71401026530021 19.53816336236096 35.14325391540375  29.2462457558179 19.15132018842818 35.33492630823923  29.08347340169888 20.30844857137967 34.5496812169263  27.56953048706055 22.12206077575684 33.38940048217773  27.83903906792951 21.68575861312931 33.43961088345665  27.53620358700756 21.81429200001572 33.13258283249907  27.83911514282227 21.84278011322021 33.07513046264648  28.10869979858398 21.56349945068359 32.76086044311523  28.10862372369123 21.40647795059269 33.1253408639254  27.80578824276927 21.53501133747909 32.81831281296782  32.64811322303112 20.09802743480845 36.76250694826163  32.22329352814568 19.74301829506664 36.88742466705264  31.97107363712696 20.15549098859132 36.98873293196303  32.05829955773284 20.27275418393056 36.32698398699506  26.02374646941398 20.93102827788827 34.22945983027982  26.75117457196139 21.39404832837253 33.9199313047536  26.8070433790161 20.76318945953025 33.989383810379  26.6367762033877 21.86507222039732 34.64060459960717  26.69264501044242 21.23421335155504 34.71005710523256  26.74851381749713 20.60335448271276 34.77950961085795  25.33837772797825 21.50517096410747 35.67426646148774  26.04344577273769 21.05426272341012 35.22688803617284  25.98757696568298 21.68512159225239 35.15743553054745  31.32799053192139 21.20998477935791 34.14743995666504  30.92483997344971 20.92496967315674 33.99684524536133  30.92667007446289 21.42287445068359 34.21576499938965  31.18501331466905 20.77250873136266 34.32153401763767  31.18684341568223 21.27041350888951 34.54045377166599  29.97751204295995 19.30222494432606 37.35528302170709  26.55234745772949 21.35038855363661 35.41239908183184  26.1213196960362 21.72592747708132 35.89535275309642  25.90314822002476 21.17043792549168 35.92923001277212  26.77051893374093 21.90587810522624 35.37852182215613  28.99138731269948 21.13893003190628 33.70425863101088  28.90806218546365 21.35805971411021 34.00871986952306  28.45451657533113 21.03321811738667 33.59876834869604  28.3711914480953 21.2523477995906 33.90322958720822  28.63383524739213 21.25523914867941 34.31663788968088  28.71716037462797 21.03610946647548 34.0121766511687  28.8004855018638 20.81697978427155 33.70771541265653  29.02005958557129 20.2440299987793 39.36513900756836  28.47127171160201 20.37853663382062 38.59433203807997  28.48154474058077 19.82524439296318 38.64839043776121  29.01260729128455 20.17333409361725 38.84171316379408  28.47872400588876 20.44923253898267 39.11775788185425  28.48899703486751 19.89594029812523 39.17181628153549  27.95793448416373 19.54785059747115 38.97849355550262  27.94766145518498 20.1011428383286 38.92443515582139  27.93738842620622 20.65443507918604 38.87037675614014  29.00515499699781 20.1026381884552 38.3182873200198  28.92825719278786 21.57935983923228 34.22181458082677  28.527322973
[...]
<PointData  Vectors="u"> 
<DataArray  type="Float64"  Name="u"  NumberOfComponents="3" format="ascii">2.4725821549251589e+02 2.8509726628425636e+01 7.5166946251602596e+01  2.0459884007028890e+02 1.9301305709099406e+01 3.7939261532772079e+01  1.9434859927479820e+02 -2.2559744223281356e+01 6.8713204361333112e+01  1.9897012229686297e+02 -1.0460429230738835e+00 7.3996361274724180e+01  2.1902179430397007e+02 2.5146972352728927e+01 1.7462199765543836e+01  2.1969523988883358e+02 3.9643612315274822e+01 2.3622898526995137e+01  2.5826859315416544e+02 -6.4603753007219291e+00 8.8498173876701614e+01  2.4794918444288047e+02 -1.8640684653075933e+01 4.3579848031173881e+01  2.0158206291931276e+02 4.9503253731380617e+01 3.2279740029707824e+00  1.8809809729240558e+02 -5.9312825982771535e+00 5.4168793554631790e+01  1.6751022900642931e+02 3.5333754963784919e+01 8.6318338010053655e+00  1.6809892778815461e+02 4.1286748789742880e+01 -2.6621932584845891e+00  1.7008399887860347e+02 2.9099317606243325e+01 9.0205620293157232e+00  1.8202130251703545e+02 3.8312584541782876e+01 1.0794364620106329e+01  1.7311782222280627e+02 2.0174331847468626e+01 6.1593923207353232e+00  1.8540185602577293e+02 2.9627305331005825e+01 8.5362830453817651e+00  1.9550989196973239e+02 2.9787589185571523e+01 3.6593596238156685e+01  2.1668287108848577e+02 3.6002154427414617e+01 4.5672407496509756e+01  2.0177288452105813e+02 2.0372995567829978e+01 6.2067739164120951e+01  2.0579199085729053e+02 2.9776690226802945e+01 5.7113029157120032e+01  1.0515917474830985e+02 -1.7345857573377685e+01 7.0632861214860739e+01  1.0206906537248848e+02 -1.5590655727324778e+01 6.2158719590854062e+01  1.2175175637118635e+02 -1.0778391049588711e+01 6.4763633062651550e+01  1.1696163328862860e+02 -1.2187885392261123e+01 5.5582872827150133e+01  1.2180219818148448e+02 -1.2306323431846392e+01 7.1459525222154298e+01  1.0276262424243683e+02 -1.6851806438185559e+01 5.0080314293031073e+01  1.6844766077227962e+02 6.7561495971724828e+00 2.1097109773497330e+01  1.5135820961667065e+02 4.1280045018866893e+01 -1.6976759955970189e+00  1.3679012258145079e+02 3.2683777397881208e+01 6.0978328812297700e-01  1.7574324471608136e+02 2.3846539724680785e+01 -2.0560044367751358e+00  1.3938081514999419e+02 3.1064005319522085e+01 1.5901130151021643e+01  1.1935035657576296e+02 2.5564784313802789e+01 1.3404721162011887e+01  1.2771397507484934e+02 5.0164696168045360e+01 3.4478945560903274e+00  1.6881550958691832e+02 3.8925352674958255e+01 -1.8320635338939518e+01  1.3331946659230195e+02 -3.1255911177766922e+01 8.9507248699109539e+01  1.1398234576907964e+02 -2.1352814488609607e+01 8.6101374104726261e+01  9.9589560825938349e+01 -2.3099523313781940e+01 8.8885152735863926e+01  1.2844055363694474e+02 -3.2098566544918725e+01 1.0083450129228936e+02  1.1670272458029797e+02 -2.1961322999270056e+01 8.1445662532100854e+01  1.0874892159343115e+02 -4.0112774450678117e+01 1.0582539821366906e+02  8.2465189130153348e+01 -3.1798299926780516e+01 1.0746854411369010e+02  9.8120573793991682e+01 -3.8682664401927497e+01 1.1275268246767050e+02  1.2317483939758999e+02 -3.4582888141818763e+01 1.1524823784832265e+02  1.3465484510623193e+02 5.2335361697568523e+01 -3.9632316205744182e+01  1.5053803794760043e+02 4.4355522137350590e+01 -1.5957951465741075e+01  1.4465453700389128e+02 4.3147029914601781e+01 -2.1787747277442509e+01  1.3040971463888943e+02 4.4896337591896767e+01 -9.9819754191514765e+00  1.4380510062702211e+02 5.1958605908585149e+01 -3.5365428126891587e+01  1.5401281420637429e+02 5.4649270390357337e+01 -2.9260435848309019e+01  1.5034500903269745e+02 3.5033977402266103e+01 -9.4849472173367797e+00  1.4107790745583929e+02 3.7258436215995893e+01 1.7735597859947552e+00  1.4955176063149551e+02 -4.0878546949804957e+01 9.1254999781584502e+01  1.4963268558041946e+02 -3.0581995886732482e+01 9.3411697235109216e+01  1.3934045122858834e+02 -4.0801653818487949e+01 1.0236356455253049e+02  1.4324114698373049e+02 -5.6562727308608991e+01 1.2129468243319890e+02  1.5769679528534883e+02 -5.2622844217557954e+01 1.0490640799593039e+02  1.6054361929211566e+02 -3.4694806888311469e+01 1.1055000903584582e+02  1.6123654609173556e+02 -2.4366232070675448e+01 9.3719810585322449e+01  1.6255425646819825e+02 -3.9848261218023133e+01 9.0509801140334247e+01  1.6857669808457820e+02 -5.1917987454068516e+01 8.9247754313329523e+01  2.3495833846314176e+02 4.6528069506668061e+01 -1.0894198176526064e+01  1.9013552656441220e+02 4.5587010972851239e+01 -2.9773375710016332e+01  2.0333096335556442e+02 2.4766316381835537e+01 -2.5054046096763123e+01  2.0226582819997441e+02 3.7842885891028025e+01 -1.4372571457965682e+01  2.0579077294758329e+02 3.1033849017841469e+01 -5.8752736866857866e+01  2.1381713167207332e+02 6.8112604113538183e+01 -2.2555990710912020e+01  2.2625807515346142e+02 2.9179161100578927e+01 -2.5676416648746333e+01  2.4763964610726765e+02 1.2789594794741845e+01 -4.7337476735190492e+01  1.8851965162574783e+02 6.9540202634389530e+01 -5.3483644089875952e+01  1.8130578202983085e+02 3.5024807385499450e+01 -1.7612066248028899e+01  1.2994764477921166e+02 1.0401791066578207e+01 4.7643508360101968e+01  1.3215871949014308e+02 2.2020712158070697e+01 5.8082427380045836e+01  1.4493358492460089e+02 1.1294481108026270e+01 6.0413703505980635e+01  1.3655481939807254e+02 1.2132242752524235e+01 5.2931219855098092e+01  1.3564666698527452e+02 7.6210711383819412e+00 5.5250566146963010e+01  1.2597102667194102e+02 2.0342433588144637e+01 5.3718039120140169e+01  1.5716540166199539e+02 1.9690861294620301e-02 6.3411515284619405e+01  1.3541687501177711e+02 1.8071684044844432e+01 7.2379120421380719e+01  1.1425503426941479e+02 3.2473793221558552e+01 6.0353673119802188e+01  1.4378907212764290e+02 1.4659287742995890e+01 5.8934643405805943e+01  1.5888180239082786e+02 3.9783113681946311e+01 -1.9996598818183966e+01  1.6385865463269823e+02 4.6640329332239851e+01 -1.4464332502321170e+01  1.6485178462418747e+02 4.9231375350501729e+01 -2.8303572038201686e+01  1.6400981776210125e+02 4.9396447844206762e+01 -8.6834508482851707e+00  1.6258159515843246e+02 5.1969178861759943e+01 -1.9259887894518855e+01  1.5686422628843934e+02 4.1296404634546192e+01 -9.8082125461504965e+00  1.0086128591142069e+02 -1.1206345732698527e+02 1.2721249092224691e+02  1.4869503510225113e+02 -8.7710963679430989e+01 1.2293178748119344e+02  1.4403569340554142e+02 -7.7591942306544027e+01 1.2368110921785751e+02  1.1595288283119461e+02 -7.7792567370595620e+01 1.2384311290602228e+02  1.3305410563410456e+02 -8.2244419125321855e+01 1.3130993451621620e+02  1.3407419218286520e+02 -9.7799546020551645e+01 1.2273254843090898e+02  1.8484510720748352e+02 -1.0857307889222938e+02 1.2386104897242785e+02  1.2022947117999820e+02 -5.9744891403339267e+01 1.1628495480643429e+02  1.2949812964293633e+02 -6.2880245062029587e+01 1.1503171674548280e+02  1.2879060819573363e+02 2.5124806793146934e+01 3.5040029439962417e+01  1.3556047360640679e+02 2.6189365217058761e+01 3.9644429622130808e+01  1.5642474307293080e+02 2.5947376356278838e+01 1.0860086245713518e+02  1.6164116949168331e+02 -2.4956220817765814e+01 9.7534069327601927e+01  1.5671824377995699e+02 -1.0672868388884128e+01 1.0432689394493117e+02  1.4873656822309900e+02 -3.0979711596801902e+01 1.1607970028522415e+02  1.6303380074888278e+02 -4.8384278949081946e+01 9.9194604781638319e+01  1.6309523143569359e+02 -3.5486141649736055e+01 9.7889801279496368e+01  1.6498938770657338e+02 -4.0999898565012479e+01 1.0580956778973804e+02  1.8156003610675145e+02 -1.8624818641332649e+01 1.0844571806976769e+02  1.5911149355718223e+02 -1.1116352125363205e+01 1.2525188755308064e+02  4.0827056365901797e+01 -3.5870942591731264e+01 1.6014928081191437e+02  9.8266442918102129e+01 -2.3290484014302322e+01 1.2537014493049740e+02  8.7801344500989501e+01 -5.4072449058519773e+01 1.4533893710468155e+02  5.0094330894011215e+01 -3.7630614080978276e+01 1.8356358395383484e+02  1.3412352577902988e+02 -3.5909826336770422e+01 1.8371909536064473e+02  1.1468248853271345e+02 -2.2079822731279403e+01 1.2172227023666223e+02  1.2008716651605778e+02 -3.9639435979548658e+01 1.4373636556278370e+02  1.1515108507222789e+02 -2.3556683549464584e+01 1.0764383818368570e+02  1.1363970853580024e+02 -1.5212402103207255e+01 9.6505743293623993e+01  1.5170307250972351e+02 3.3368113844860318e+01 -1.1366381382163457e+01  1.4208521746460991e+02 5.7939447117806509e+01 -6.2777624828937899e+00  1.5377642425781394e+02 4.6071436920596774e+01 -8.6640383270266579e+00  1.5335020497188287e+02 4.5421368057405424e+01 -5.8775429022943984e+00  1.4213934389816606e+02 4.0959030123119824e+01 -5.3143312851006490e+00  1.5813576992572573e+02 5.6869877367258844e+01 4.2022913146981589e+00  1.5484012919365398e+02 5.8709300449497235e+01 -4.9260341659497309e+00  1.4525974940592161e+02 5.3926595883593336e+01 2.6467838430340720e+00  1.6035829747541410e+02 6.0958994837374135e+01 -8.9302684139738915e+00  1.6911079906939722e+02 1.9785799138971708e+01 2.2736197495262424e+01  1.6006220736511983e+02 2.5353330352164534e+01 5.6560839654061219e+00  1.6302902617460228e+02 9.7738957531902138e+00 1.6729298946993833e+01  1.7471359177552242e+02 9.8132181090784485e+00 2.1372899784997038e+01  1.6357877406872740e+02 1.7032073876724535e+01 3.5673247439700946e+00  1.5683794131479982e+02 1.7016125286869670e+01 3.5912224940918203e-01  1.6984899720230780e+02 1.4673228463160062e+00 3.6348540535978316e+01  1.8560446913244323e+02 -1.5348644825158472e+01 1.4787783230491056e+02  1.6940272358691996e+02 -8.5047134023437394e+00 1.1010714371127797e+02  1.5259604539556835e+02 -5.5389150935088395e+01 1.4216622197263337e+02  2.0201822927969178e+02 -3.7541201930386961e+01 1.6730959789273450e+02  1.7561499955311774e+02 -6.1527053903070914e+01 1.4018392989432868e+02  1.6373630651687748e+02 -3.0454758338798115e+01 1.1186397619031555e+02  1.5543679335659087e+02 -7.0086970270795661e+01 1.3872193682123057e+02  1.1676525124157662e+02 8.3518368564963936e+01 -7.3962812325100771e+00  1.1938674830696428e+02 6.5815559084884796e+01 -5.2724589058063120e-01  1.3581059599257935e+02 6.6905498799971312e+01 7.8042795435686585e-01  1.3976832315479132e+02 7.2661881528065237e+01 -9.3132248815293170e+00  1.2272200736889340e+02 -1.2698126347313108e+01 6.5183899706150697e+01  1.3476758370236516e+02 -1.5813368222302721e+01 8.1825746672071631e+01  1.3546334194559282e+02 -1.5763519115051251e+01 6.9722177722751496e+01  1.3838394501248314e+02 -4.4945564469902521e+00 7.3974279815712606e+01  1.3676719407939873e+02 -4.6470923826619375e+00 6.3986299478570530e+01  1.3446337678663014e+02 -3.8475647305850584e+00 5.4901236863297171e+01  1.3320761143127319e+02 -9.4367441183497380e+00 4.2344383282807662e+01  1.2884133438989826e+02 -3.4242280240848730e+00 5.3385782206657296e+01  1.3402265048355716e+02 -4.7248681455862078e+00 5.8339226986481002e+01  2.5909003224202979e+02 6.1748616708144851e+01 7.2070915298147629e+00  2.3883921784664764e+02 2.9090249480144131e+01 2.7874017684131903e+01  2.3802500222069634e+02 5.7224666957069900e+01 3.2102059514275496e+01  2.1682161972161171e+02 4.6130103157754633e+01 3.1149584256235330e+00  2.2423117571774594e+02 6.2877986307403170e+01 6.6284002326643217e+00  1.5777520729306130e+02 4.8784942392917579e+01 -4.0027165678685257e+01  1.3691838340560261e+02 3.1820828822188298e+00 5.5579177515949205e+01  1.4069969271922358e+02 2.5829240800140445e+00 5.3663463281887708e+01  1.3446456392828091e+02 -8.6724385261777892e-01 4.8752898556476211e+01  1.4307446600723847e+02 5.4099759228722437e+00 6.2100483077338858e+01  1.7241536848070521e+02 -2.3705397568999025e+01 8.8018706026742848e+01  1.7286898157655034e+02 -7.0560367347831683e+00 8.5022918301301658e+01  1.6518836007489915e+02 -2.4137283241355107e+01 8.2037395037844817e+01  1.6344532963550066e+02 -1.0718622918233873e+01 8.1968640302990380e+01  1.6795395157091724e+02 3.6381549900755739e-01 6.9267051323925187e+01  1.6906022901961569e+02 -1.1198906874690580e+01 7.3053301979809888e+01  1.7049648201971570e+02 -2.4499328971190241e+01 7.2079018425773739e+01  6.1347737999481375e+01 6.5989896996084653e+01 -4.7753409373744269e+01  8.8507175939508073e+01 5.9696010003870242e+01 -1.5998749113971666e+01  8.3588895758189835e+01 5.8015182130811972e+01 -2.1482538272622467e+01  8.2219348684927127e+01 6.3254466121713328e+01 -4.1259939348137586e+01  7.0061540081619128e+01 6.3574035718675816e+01 -2.2248530508891911e+01  6.5814068982916694e+01 6.1041555282570521e+01 -2.5531530076171492e+01  7.2373247363565255e+01 5.9048275105255797e+01 -9.0282312262556275e+00  7.4665042919838555e+01 5.9706948674785878e+01 -4.8013868110258526e+00  7.7084423031116572e+01 6.0605683775958902e+01 9.4901315830133992e-01  1.0310654747949557e+02 5.9604447569480428e+01 -3.4712465541185495e+01  1.7366176477963612e+02 5.4543811636286694e+00 8.3426517160867050e+01  1.6401722065726375e+02 1.7254199088928825e+00 9.1382198224963020e+01  1.7733746499325196e+02 -7.4393109449650183e+01 1.0346283753902004e+02  1.8637959777592002e+02 -7.9712140917257614e+01 9.6668723937049762e+01  1.7589521725845358e+02 -6.4756345212878443e+01 1.0296320017613758e+02  1.6784532701778764e+02 -5.7979022529691164e+01 1.0525531867671609e+02  1.8442159209335327e+02 -1.0949076118018627e+02 1.2230330109102798e+02  1.8340970449392353e+02 -8.1276548023612236e+01 8.0532841982315162e+01  1.7947791398440293e+02 -6.4246658374145554e+01 8.6672894881525579e+01  1.2212721468686654e+02 6.8844917156678221e+01 -1.0288090034913769e+02  1.3134376290147000e+02 6.1155245069087485e+01 -6.1202925457334437e+01  1.5295033044671484e+02 7.2508551357605413e+01 -1.1785844459428525e+02  1.1460982786259044e+02 6.9419149028872354e+01 -1.0649111010145799e+02  1.1289917083065905e+02 7.2735625335404478e+01 -9.8598367564893806e+01  1.4683823799935766e+02 6.0005288623863670e+01 -6.8234453959094239e+01  1.3131880207112368e+02 6.1156848429014559e+01 -6.5670196459950873e+01  1.4713193735178589e+02 7.7524813262360368e+01 -1.1441777794669655e+02  2.2442892093769194e+02 5.2079624247411580e+01 -8.3752001473645834e+01  1.1689359551197202e+02 -5.2641254144129903e+01 1.1354232808663018e+02  1.2826850623923886e+02 -4.6429847145098705e+01 1.0314218731499027e+02  9.3248090695548711e+01 -4.8455657762269965e+01 1.1211091482670641e+02  1.7749687309370370e+02 -2.4942304822404502e+00 4.4611196624355379e+01  1.7903442123137839e+02 -1.6182360694965347e+01 6.3744894823312016e+01  1.7659208536908667e+02 -4.0691917015270427e+00 6.3393069024998113e+01  1.6969025163798747e+02 -9.9454027232168174e-01 5.3674587632886052e+01  1.7157831898301924e+02 -1.0538365362293309e+01 5.4168630104350143e+01  1.5829899552425459e+02 1.6533104097574775e+01 5.4772295283297005e+01  1.5681447454539156e+02 7.4736358144220869e+00 4.5830940999479239e+01  1.5810488532740709e+02 1.5508599219373750e+01 3.8443259050253708e+01  1.6343220308166340e+02 1.1119209155195135e+01 6.0638532829813009e+01  1.4344297219899090e+02 1.4444374081286428e+01 3.0372837021102448e+01  1.4992292945375343e+02 1.4501104390542391e+01 4.4122170109044248e+01  1.7702797680971804e+02 2.0494451928272458e+01 4.8586041101605396e+01  1.7282010569385628e+02 1.1069777691683617e+01 6.0278223861730716e+01  1.6648128748440192e+02 1.8761806057795219e+01 5.1366223566092621e+01  2.5602216670705064e+02 1.2944403003873519e+00 9.4479088463110124e+00  2.3735236389698352e+02 1.3607025084444306e+01 -3.4952482705016941e+00  2.0719646074856425e+02 1.7914862996898762e+01 -3.3344314244423177e+00  1.5822795708273730e+02 -4.8306985829091813e+00 4.3289573569199092e+01  1.4721202903241934e+02 -7.2797811216763018e+00 4.4074381393267757e+01  1.5198145960561345e+02 1.3372862809830929e+01 6.6698747783077764e+01  1.7416918631168528e+02 2.1751562672690379e+00 6.2856131151325762e+01  1.8744767359802140e+02 1.1181362351163610e+01 6.2010363310179279e+01  1.7021176152626319e+02 4.6668584051412545e+01 2.2933623759581989e+00  1.6341583221772586e+02 4.3298104214827276e+01 -1.6859006786972250e+00  1.6642095260435400e+02 4.4710292000692334e+01 2.9342908926928581e+00  9.7617313854071085e+01 -2.2953624365819266e+01 1.0495369842948335e+02  8.8502610711343792e+01 -2.0837387401808218e+01 1.1336470787110750e+02  6.8978048485066196e+01 -3.9010406295821397e+01 1.2465368842448312e+02  1.2714653875648735e+02 7.3697775797472602e+01 -2.1781980117112862e+01  1.3967606281868277e+02 8.2281167979120028e+01 -1.7042700750638595e+01  1.5204433658768050e+02 8.6493377650597125e+01 -2.0552961730412783e+01  1.4601101605294471e+02 6.6800125816487423e+01 -1.5835662192889625e+01  1.6412316632316987e+02 3.6327761668665528e+00 9.1493702397062307e+01  1.6099055869798443e+02 -9.3673772285786399e+00 1.0273962530789414e+02  1.7689389592658043e+02 1.6440249822598343e+01 8.6785617792765905e+01  1.5375650196409899e+02 -8.4030561078572976e+00 8.4206099484473711e+01  1.6804433751960033e+02 -4.4563612889341478e+01 9.5882516357922242e+01  1.7940457381258443e+02 -3.0348764556063443e+01 5.2493649402313160e+01  1.7642995079408036e+02 -3.3789894795070389e+01 7.9101949039270920e+01  1.8531556060978380e+02 -1.6658049084135111e+01 7.4257843623214256e+01  1.7801888924394984e+02 -4.8324521621959519e+01 6.0413891422489385e+01  1.8230640669266612e+02 -4.2006766869847134e+01 4.9237671212905134e+01  1.7493662718599145e+02 -3.4654801562708791e+01 6.1283458460396432e+01  1.3833958614691363e+02 -2.0249623371902022e+01 1.1573981932114347e+02  1.3663932886538336e+02 -1.5238621535912580e+01 9.1877926739203431e+01  1.2834133547014670e+02 -1.3346806131847705e+01 1.0472602766957063e+02  1.2900121846534358e+02 -1.0794007859069646e+01 8.7528907962720538e+01  1.4930538544975570e+02 -8.5734360705501196e+00 1.0436033587272618e+02  1.8242295117939602e+02 1.0538255165764523e+01 5.4346625431812576e+01  1.7280435540032286e+02 1.0942013130926320e+01 4.4951975488565097e+01  1.4868493328453960e+02 -1.6611048637358120e+01 1.2814548785098054e+02  1.6418539249274508e+02 6.3691635534938520e+01 -3.3704065800473330e+01  1.8083307540415768e+02 7.4558049653200300e+01 -3.4351911893973949e+01  2.0154596490141014e+02 1.0682148274250649e+01 9.0370325513425271e+01  2.1291729321985000e+02 2.5434794341234433e+01 5.2685476822517366e+01  2.6012085026731620e+02 4.2141389203263877e+01 5.6660617331240282e+01  2.1391017607392621e+02 1.5378538985228749e+01 9.9100895617181095e+01  2.1942967006604957e+02 2.5635927854111547e+01 8.4316243943234582e+01  2.4939571190352481e+02 5.7041298923979490e+01 4.3719672251787713e+01  1.7575563803589014e+02 2.6397180728144459e+01 1.0384200152636528e+02  1.5687350202600734e+02 -1.4456309314926733e+01 8.9954085597671707e+01  1.9438986458707265e+02 8.9565581848381548e+00 1.7547454518223091e+01  1.8254109298725876e+02 8.1716674765288246e+00 2.7048810230418397e+01  3.9570214691668454e+01 5.4759012319402522e+01 -1.2930839428822182e+01  7.1304766973864645e+01 5.9033343738920685e+01 -3.2091900114940934e+01  5.8945634762529465e+01 5.9323807366759077e+01 -1.3357309845906117e+01  4.3212921615893940e+01 5.8884627937860337e+01 -4.1024384584257902e+01  5.4627060193466853e+01 5.3132608897632657e+01 -4.2573384563331139e+01  6.7129476643006541e+01 6.3428268417801156e+01 -5.4372219815688169e+01  6.7231559043917954e+01 6.1376938799657154e+01 -5.6995903180166714e+01  1.5505342292595185e+02 -6.2026720315851485e+00 9.4402691153228105e+01  1.4648210878040666e+02 -5.7658393399086716e+00 7.8817202146044693e+01  1.5683916600718010e+02 2.4628618464876091e+00 7.8278152160111944e+01  1.7073756991190126e+02 5.8372195872182528e+00 8.6323399492154465e+01  1.8851629342385058e+02 4.1064691920415193e+01 1.9877223042987911e+01  1.4313422288817506e+02 5.6757393726000537e+01 2.1232127340564805e+01  1.4212467188083488e+02 4.9558660451179335e+01 3.3958906885138568e+01  1.4152809596040305e+02 6.4926734040491056e+01 6.1770799499756166e+01  1.6958787817105966e+02 5.2731372029708353e+01 8.9593055845140146e+00  1.8455737643800063e+02 5.6782920708340690e+01 2.9528323533776657e+01  1.1062338967577107e+02 6.3131181579588343e+01 3.2151692459213500e+01  1.2119040791876459e+02 6.2982406943608908e+01 7.1096075395689535e+00  1.0892377085415487e+02 6.516238377381878