<?xml version="1.0"?>
<VTKFile type="UnstructuredGrid"  version="0.1"  >
<UnstructuredGrid>
<Piece  NumberOfPoints="7244" NumberOfCells="33212">
<Points>
<DataArray  type="Float64"  NumberOfComponents="3"  format="ascii">32.08148956298828 20.48866081237793 33.42892837524414  31.69945697340355 19.65190318067289 33.81964370006143  32.37411252066599 19.8358435837843 33.78909030972748  32.11410840690429 19.90584865223399 33.3618560215137  32.14672725082031 19.32303649209006 33.29478366778327  32.17793777683508 19.12528511324088 34.05198570028278  32.65169271171386 19.37469306599132 33.72729257546878  32.99869918823242 18.6954402923584 33.88011169433594  32.75073369682129 19.39087310444346 33.31937173806644  32.57271321952636 19.00923839222423 33.5874476810596  33.17671966552734 19.07707500457764 33.61203575134277  33.35474014282227 19.45870971679688 33.34395980834961  32.69876861572266 20.6254997253418 32.9217414855957  32.97811896666697 19.90368019613771 33.81367838001066  33.02675437927246 20.04210472106934 33.13285064697266  32.71811485290527 19.9736852645874 33.38644409179688  33.2107048034668 20.42185020446777 33.40144157409668  35.6425895690918 7.805421829223633 27.36277008056641  35.06239321551325 7.80905150255635 26.82638832013209  35.60615486656178 7.723825674375275 26.86239043559642  35.58133453880299 8.028636198362092 27.25063029613109  35.66740989685059 7.500611305236816 26.97453022003174  35.12364824580205 7.585837133417892 26.9385281045674  35.69223022460938 7.19580078125 26.58629035949707  35.52007950851419 8.251850567500551 27.13849051169577  36.39913940429688 7.861127853393555 26.6499195098877  36.58277936440746 8.435882220987274 26.25908452128158  36.38494916421214 8.396582256082489 26.59608918284164  36.76799964904785 8.215154647827148 26.46547985076904  36.59696960449219 7.90042781829834 26.31291484832764  37.13685989379883 8.569181442260742 26.28104019165039  36.75380940896312 8.750609050516083 26.41164952372299  36.96582984924316 8.254454612731934 26.12847518920898  36.7947998046875 7.939727783203125 25.97591018676758  36.37075892412741 8.932036658771425 26.54225885579558  33.28261947631836 10.58673000335693 27.00785064697266  33.94652709879949 9.804452401671682 26.89722329451976  33.90737686076238 10.10359571603325 26.61666852309642  33.73477554321289 10.28741979598999 27.45756530761719  33.32176971435547 10.28758668899536 27.288405418396  33.36091995239258 9.988443374633789 27.56896018981934  33.77392578125 9.988276481628418 27.73812007904053  34.18693161010742 9.988109588623047 27.90727996826172  34.35953292765691 9.804285508666311 27.06638318374095  34.53213424520641 9.620461428709573 26.22548639922018  36.37427139282227 8.124374389648438 27.99474906921387  36.17598755510538 8.563740846065251 27.31926550082324  36.56866348383168 8.424311057157507 27.38674567069557  36.60308349725942 8.500002757139196 27.74739477958229  36.33985137939453 8.048682689666748 27.63409996032715  35.94717545066823 8.188112478574494 27.56661979045482  36.3054313659668 7.972990989685059 27.27345085144043  35.91275543724049 8.112420778592805 27.2059706815681  36.83189560169657 8.875631124629953 27.5000404899507  35.0261068768603 8.936155998105061 26.68198845545798  34.93162101169784 9.411801763589862 26.93597844036866  35.45144658466691 9.276249043740499 26.38387262750788  35.9454192163208 8.591943613135989 26.84037468374568  35.85093335115834 9.067589378620788 27.09436466865636  35.33110777818926 9.203142098470151 27.64647048151715  35.42559364335173 8.72749633298535 27.39248049660646  34.72793960571289 8.664060592651367 28.10000991821289  35.07527542114258 8.086454629898071 27.88919067382812  35.12400955711354 8.457955580075959 27.61925021495433  35.07933044433594 8.481886386871338 28.03692531585693  34.72388458251953 8.268628835678101 27.95227527618408  34.71982955932617 7.873197078704834 27.80454063415527  35.11995453392018 8.062523823102692 27.47151557292553  35.43072128295898 8.299712181091309 27.97384071350098  35.47540039573659 8.27578137429593 27.55616561259838  35.16374969482422 13.25113964080811 25.15073013305664  35.26401452557789 12.78817163704728 25.14093133827271  35.33353996276855 12.96985960006714 24.7204704284668  35.02217416302906 12.695291864861 24.82330152412476  34.92190933227539 13.15825986862183 24.83310031890869  35.36427935633157 12.32520363328645 25.13113254348877  36.87567901611328 8.419107437133789 25.32357025146484  36.04014633037433 8.815673780735793 25.47813781941452  36.12257311506053 8.430274570147567 25.99949701198177  36.62321897012035 8.675572047952606 25.93291455363021  36.54079218543416 9.060971258540832 25.41155536106297  36.28833213944122 9.317435869359651 26.02089966322833  36.20590535475502 9.702835079947876 25.49954047066108  35.21645493064869 7.705445270856599 27.18898001994701  35.18120956420898 7.839309453964233 27.58365535736084  34.81632995605469 7.51611852645874 27.52200508117676  34.9128303527832 7.159039974212646 27.23946952819824  35.2777099609375 7.48223090171814 27.30111980438232  35.86807632446289 8.136351585388184 27.6236457824707  35.53665542602539 8.052567005157471 27.66830539703369  35.9740104675293 7.889206409454346 27.31811046600342  36.5576286315918 9.299646377563477 24.85242080688477  36.38176699317341 9.501240728755675 25.17598063877293  36.71665382385254 8.859376907348633 25.0879955291748  36.21600796879272 8.614079429543594 25.15457798752636  36.68251991271973 8.028323650360107 26.91517448425293  36.33809514504711 8.452513824228241 26.90785485361801  36.63566589355469 8.084255218505859 27.2269401550293  36.35228538513184 7.917059421539307 26.96168518066406  36.668329672635 8.563778053049042 26.86134415720687  36.96590042114258 8.19551944732666 27.18042945861816  34.25066718974188 9.412507516417776 27.09885293319164  34.75901969414834 9.5956258435466 27.77687522488943  34.07806587219238 9.596331596374512 27.9397497177124  33.96920013427734 9.204553604125977 27.97221946716309  34.6501539562333 9.203847851298065 27.80934497434011  35.69723340725392 8.090181524512129 26.29761283993187  35.95960945640553 8.056489210447053 26.89420501079174  34.50128936767578 12.98351001739502 25.99725914001465  34.93278436200367 12.65435682534074 25.56419584175171  34.83251953125 13.11732482910156 25.57399463653564  34.44887542724609 12.98871994018555 25.57341003417969  34.39646148681641 12.99392986297607 25.14956092834473  34.88037042157399 12.65956674813126 25.14034673591675  34.78010559082031 13.12253475189209 25.15014553070068  35.85268958550576 8.663758244059295 27.8206097753655  35.38091453057412 8.751427139780731 27.81015559750906  35.90249633789062 8.212043285369873 27.98429489135742  35.36901979998072 9.661648254328725 25.86251343494063  34.71733225558285 10.03234569225694 25.34067863394043  35.03906104685944 9.19022492733467 25.30945396567041  35.55421781035715 10.07353251787609 24.97770566966088  35.87594660163375 9.231411752953822 24.94648100139086  36.89889801141958 8.535575285978307 27.34023497428444  36.60132726291199 8.903833891700689 27.02114967287314  36.67008590698242 8.159946918487549 27.58758926391602  35.30253028869629 7.177420377731323 26.91287994384766  36.62855692542439 9.399795530696593 25.54665000370213  36.80441856384277 9.198201179504395 25.22309017181396  37.05120849609375 9.096755981445312 25.59375953674316  36.96344375610352 8.757931709289551 25.458664894104  34.66997099935986 8.309673629898896 27.1087365428253  34.57548513419739 8.785319395383697 27.36272652773599  34.27390104795921 8.515778642474306 27.58949624608386  35.02952369195108 8.93360134556076 27.87324019986502  35.58422088623047 8.749244689941406 28.60737991333008  35.45766433220987 8.976193394205779 28.12692519742361  35.50747108459473 8.524478435516357 28.29061031341553  35.97924613952637 8.436809539794922 28.30106449127197  35.20326077560003 8.774486955116641 25.84111078369407  36.02086448669434 7.833274841308594 27.00634479522705  35.13105318592764 10.26482167100874 25.74857520276502  35.72997212664886 10.9091819133079 25.27166400630987  35.96793874070194 10.30600849662789 25.38560223848548  36.83523941040039 8.179417610168457 25.64974021911621  36.08150168994291 9.039386611550052 27.57325548573392  34.94402924539534 11.83169995117522 25.46326297910369  34.62243625667676 11.59584975002767 25.11645346559847  34.63052491681324 12.37644659279679 25.32353135963501  34.52377913445912 11.33819626906399 25.79539341471861  35.14607526365282 9.983522961859499 26.43439974807515  35.74499420437404 10.62788320415866 25.95748855161999  35.98296081842712 10.02470978747865 26.0714267837956  35.76001628209922 10.34658449500943 26.64331309693011  36.13169860839844 9.98658275604248 24.41679000854492  36.16880198157673 9.844708917995177 24.95816523960301  35.93083536752365 10.44788233467519 24.84422700742739  34.55877743285541 12.42371654698372 24.79353722241153  34.38705062866211 9.385318279266357 28.15509510040283  34.49591636657715 9.777096271514893 28.12262535095215  34.80490112304688 9.566082954406738 28.33797073364258  35.06800445061807 9.384612526438445 27.99222060757986  35.15608024597168 8.706652641296387 28.35369491577148  34.19902992248535 12.70559978485107 25.75659465789795  33.89677047729492 12.42768955230713 25.51593017578125  34.14661598205566 12.7108097076416 25.33274555206299  36.71098371011058 9.014396320108368 26.06800919626937  37.00626945495605 8.494144439697266 25.80230522155762  37.09403419494629 8.832968711853027 25.93739986419678  33.96929168701172 10.9735803604126 27.54340934753418  34.25071296610906 10.29702089456109 26.88444787337718  33.73207092285156 10.99485540390015 27.07378482818604  33.62595558166504 10.78015518188477 27.27562999725342  33.38873481750488 10.80143022537231 26.80600547790527  33.49485015869141 11.0161304473877 26.60416030883789  34.07811164855957 10.48084497451782 27.72534465789795  33.66510581970215 10.48101186752319 27.55618476867676  34.56842058385936 8.493356933160861 26.36988626389429  33.66506004333496 9.596498489379883 27.77058982849121
[...]
<PointData  Vectors="u"> 
<DataArray  type="Float64"  Name="u"  NumberOfComponents="3" format="ascii">1.8851965162574783e+02 6.9540202634389530e+01 -5.3483644089875952e+01  1.6739528779192719e+02 3.5701287840139990e+01 -4.6324222309285709e+01  1.3837613103067125e+02 6.0916944598681297e+01 -5.8152280654690252e+01  1.6198129611471640e+02 4.8131279545646393e+01 -6.6584522150258806e+01  1.4749308386603332e+02 3.1049037276611166e+01 -7.8823335394125053e+01  1.2142560347943213e+02 4.0086673934863327e+01 -5.9528699597966579e+01  1.0553473894048781e+02 5.6777016482628682e+01 -7.9033763508225050e+01  4.4929847963420791e+01 3.9162057834688511e+01 -1.1921949897144214e+02  1.1511646408571809e+02 4.3697623301267861e+01 -9.2729780736623169e+01  1.0884715844342901e+02 3.4476244513635415e+01 -9.0854179931781189e+01  5.8656271218930506e+01 5.1056939135459032e+01 -1.3098573641187525e+02  7.5948177388383272e+01 5.6143117472680899e+01 -1.0915692681065923e+02  1.2341789331992545e+02 7.3584705767106243e+01 -5.8057193099745284e+01  1.0617108430193132e+02 8.7829328761351519e+01 -5.9419749047012658e+01  1.0617084940861439e+02 6.0750707440782755e+01 -6.9038053984990668e+01  1.2400698037793408e+02 6.7467570292265577e+01 -6.6125080458242138e+01  1.0681093811261832e+02 9.7666484782692862e+01 -3.8894436394612491e+01  4.2497350883813652e+02 3.6992041484912795e+02 2.6089893578715163e+02  2.7226449728401479e+02 2.3141177064496898e+02 1.1044843211092039e+02  2.6346981321157426e+02 3.0146013133751359e+02 1.6378804633088023e+02  3.9036396721805022e+02 2.8784786569686611e+02 2.4953585581608758e+02  2.2949199338084247e+02 3.0981580299446796e+02 1.2380662830022327e+02  2.6215628506185038e+02 2.4948493332686900e+02 8.6433846656751413e+01  1.9206550884009158e+02 2.4988755132879956e+02 9.6897429542186870e+01  3.4162883574656297e+02 2.3774952434297981e+02 2.2632035815735659e+02  2.5506876394590375e+02 3.2075532171612838e+02 3.3390859420881611e+02  2.0832707846929893e+02 2.5103925380273080e+02 3.0631330100956876e+02  2.7958466803643881e+02 2.1256878522207856e+02 3.1042869698335613e+02  2.7072385376254562e+02 2.8317134337518900e+02 4.3473339850654952e+02  1.2668577362703135e+02 3.2586010655022523e+02 2.6416636719533182e+02  3.2255425692678006e+02 2.2563173962468895e+02 4.1375142078649901e+02  2.7214511811640676e+02 1.9593167019939014e+02 3.3029604630499767e+02  1.4468493104230089e+02 3.4552024806663604e+02 2.9272827324245810e+02  1.2271437019136077e+02 2.8296467961901232e+02 2.2220990393183476e+02  2.7299066429226457e+02 1.7408839510890817e+02 2.8005777810443146e+02  4.6500932988540239e+02 2.0557689708849145e+02 1.3664960711308180e+02  3.3482942718514073e+02 1.8619979049918098e+02 1.1942791495226096e+02  3.2175207652269495e+02 1.7542206230657379e+02 1.2814493874792774e+02  3.8860981548492134e+02 2.6916857908721732e+02 1.3348101163545329e+02  5.1103289071727011e+02 2.6506409780285060e+02 1.3013555424610951e+02  4.8581715700013223e+02 2.1950507521152014e+02 4.5678659127114429e+01  4.5459122110271716e+02 2.4993923501761506e+02 1.3089173985185388e+02  4.4509829765307040e+02 2.6638685322681192e+02 2.1391751683865178e+02  3.2688639614595604e+02 1.9140738946069604e+02 1.5632230678567421e+02  2.6180001491264568e+02 1.4827811217586702e+02 1.3904729127584869e+02  4.5962495905194578e+02 5.0211561855946208e+01 5.1638018832691444e+02  3.6005059354418563e+02 1.6771537034654276e+02 3.2495531789387672e+02  3.8031837917804239e+02 1.4819199551123677e+02 3.7844884188377023e+02  3.8649152699430931e+02 6.1451623171739620e+01 3.8801108965206635e+02  4.0889659751908926e+02 2.1749370060936897e+02 4.1476033675586160e+02  4.1642798903698525e+02 1.9045488995673210e+02 3.5348015208166817e+02  3.6940774958358395e+02 1.9720750108559278e+02 3.7224443566597984e+02  3.8560113137540287e+02 2.2906676047102400e+02 3.2595184297803303e+02  3.4262489002272082e+02 7.2697901635995549e+01 3.2833842516331248e+02  2.8651775478714416e+02 1.8103041230027191e+02 1.6499053134312240e+02  3.0266305272481833e+02 1.7551468974592856e+02 1.8740734283205808e+02  2.5232690726055054e+02 1.5788651313026040e+02 1.9507420964230738e+02  2.9824586076530471e+02 1.9421982253922798e+02 2.6163508433671984e+02  3.0874386339414394e+02 1.5316577774235000e+02 2.6163262777676175e+02  3.5418307280169796e+02 1.8022014410686972e+02 2.7059093959279124e+02  3.6067760003430033e+02 1.9976923447372081e+02 2.5094034663242923e+02  5.3773823088799713e+02 3.0765895194255717e+02 2.1345567338998390e+02  4.6862454466291445e+02 3.6094399305114348e+02 1.1912776301369863e+02  4.1664236950463027e+02 2.7283699527749468e+02 2.1146366576425453e+02  5.2325004146628180e+02 3.3320480052717829e+02 3.8918700250428822e+02  4.5504420424643041e+02 3.1421212730303512e+02 1.0540714235121256e+02  3.8874420822336367e+02 3.1430363535334334e+02 6.1378764485850688e+01  3.8743077939546049e+02 3.0001790154724534e+02 1.5214699733920094e+02  5.0365665202720720e+02 2.7466707141416072e+02 3.4564583343796699e+02  4.4752658683183643e+02 2.4880844583003238e+02 2.7277192480858355e+02  2.5713538794575038e+02 1.7613959956216618e+02 3.3718743843431798e+02  2.1426495975400502e+02 1.3616479020148327e+02 2.8606935102163351e+02  2.2489566841148658e+02 1.0350193043557655e+02 2.9745107599642779e+02  2.1111206089958057e+02 9.8647884919601239e+01 2.7014261440774362e+02  2.2687885663644764e+02 8.1907434475217769e+01 2.9001691777415061e+02  1.9720191742106476e+02 1.2356893137015666e+02 2.5666408707930412e+02  1.0951825238590558e+02 1.9377672953346098e+02 2.2797977741416102e+02  1.6952658691829026e+02 1.5998848296611189e+02 1.9464147620250833e+02  1.9984203923311165e+02 1.9676628711382415e+02 2.1692956802645267e+02  1.8830528437081529e+02 2.1189361447045653e+02 2.7722283185662855e+02  1.7362071466913909e+02 1.7504968707278547e+02 2.4094505125893625e+02  2.2892280820714743e+02 1.6171664829831775e+02 2.4867632163465470e+02  1.9741873124263390e+02 1.4129677438333627e+02 2.3145910683866103e+02  3.1014572511902099e+02 2.9852560865737559e+02 1.1055880635606013e+02  3.7527179185742477e+02 3.6404041194515827e+02 1.2278248466691350e+02  3.1563048467093671e+02 2.8835684104542344e+02 2.5247593939046446e+01  2.6500009782516861e+02 2.5489561199904242e+02 2.6429742016221621e+01  2.8296040613320258e+02 2.9902625716015058e+02 7.2894247551418886e+01  4.4397354724047517e+02 1.7147102458103521e+02 3.7050665645950937e+02  5.6563256862270464e+02 2.9598239132072285e+02 2.8999033911405610e+02  4.5625925068405121e+02 1.8205518548517662e+02 4.0369668062239714e+02  1.2435044907591707e+02 1.5206480389570325e+02 2.6065005433463995e+02  1.7388255441495645e+02 1.4850227273836978e+02 2.4092401229839416e+02  1.3078422414244503e+02 1.7669477042627801e+02 2.6253121765490300e+02  1.2978098446199030e+02 1.4587111889751873e+02 1.8710441402409819e+02  3.7778024982401087e+02 2.0757789605734158e+02 3.8923259569319879e+02  3.2377263660782870e+02 1.9472047479587184e+02 3.2879318246493045e+02  3.7573249623050742e+02 2.3458168411065623e+02 3.9610561578968048e+02  3.6926008060000430e+02 2.2488888605840697e+02 4.0032653647538899e+02  3.3513097724658792e+02 1.6726769430847057e+02 3.5002370511953637e+02  4.2919384900302583e+02 1.1984716360617684e+02 4.4283970296477139e+02  3.4338397468180631e+02 1.9557863299758768e+02 1.3172443635138862e+02  3.8296061040060448e+02 2.1856072527893599e+02 2.4432035747346688e+02  4.7473347638679104e+02 2.5417803169750616e+02 1.6995039640781829e+02  4.8672794120317110e+02 2.5971096200556622e+02 9.2513891758680813e+01  4.2315726320899859e+02 2.3872394445347996e+02 2.1524508779167277e+02  2.2524890555883317e+02 2.1720196168091007e+02 1.7455558752439291e+02  3.3125475400701202e+02 2.5952269407182979e+02 2.8674008395911500e+02  1.8451367391706810e+02 1.8727081290936366e+02 3.2554853921725953e+02  2.1576272253105304e+02 1.3968453800447554e+02 2.7932164839121884e+02  2.5312232437458530e+02 1.9258915590750780e+02 3.3798619677195569e+02  2.0369247018169207e+02 8.9867470110912322e+01 3.2862460103530873e+02  2.3011102630437804e+02 8.4320254455519063e+01 2.9635245167976137e+02  2.1273872107417623e+02 1.1412025182074518e+02 2.7243579364594717e+02  2.5769956613268960e+02 7.4034571767592041e+01 2.9743912498187007e+02  4.0331364718346003e+02 1.6900008144032358e+02 3.4727336371887947e+02  4.0063900661314881e+02 1.9216908158729811e+02 3.2021005149161971e+02  4.8382388467255248e+02 2.2364276460907593e+02 3.7475240630239932e+02  2.2198713968123084e+02 1.4121245540949593e+02 1.8668836101242019e+02  2.0271506512132046e+02 1.1419364742067243e+02 1.4372301563987040e+02  1.8323681435797920e+02 1.2300832231500637e+02 1.3185294125941709e+02  1.6928356343646635e+02 1.1412951848201411e+02 1.9084899318857092e+02  1.4374508792228767e+02 1.2412235657152976e+02 1.8516693266068785e+02  3.8083754302801134e+02 9.4006425798006902e+01 3.8372681729846158e+02  3.2125893772268086e+02 1.3344882966998196e+02 3.2024526464998524e+02  5.0032322527117162e+02 1.3420036748480936e+02 4.8767767309076436e+02  2.2769100653575424e+02 2.5563146388747336e+02 7.1040917530713145e+01  2.0484381835120720e+02 1.6610536074631366e+02 2.6087689808589045e+02  1.7476494336409189e+02 1.7881695385365714e+02 2.6070352062062534e+02  1.9429788185872425e+02 2.2448984007323838e+02 2.9649737065589363e+02  1.2419742066065314e+02 2.2372095959572439e+02 2.4735156068198179e+02  3.1932357578955111e+02 2.1888393379562760e+02 1.0585591249986241e+02  3.6479275814485072e+02 2.2204654047208234e+02 1.3821763911849516e+02  3.7744517285596055e+02 2.3293624627345486e+02 6.4501084238777366e+01  4.3494211787533595e+02 2.2045130890236194e+02 2.7491496800239531e+02  3.2766724381269842e+02 2.1611167200995229e+01 5.0906248986836272e+02  4.0091930050376311e+02 1.5622602780879387e+02 3.7016051805050597e+02  4.7103639419706684e+02 2.4286121395351148e+02 4.2495513883070686e+02  4.3830011531271549e+02 -1.0958652596693366e+00 5.4467222367306977e+02  2.1031023708918292e+02 1.5341330546214601e+02 1.4295966242735255e+02  3.5315256002561352e+02 3.9601046307132958e+02 3.2457182127316855e+02  2.1901347740702812e+02 1.3054684049464694e+02 1.8403195745881993e+02  1.9381785378768427e+02 1.1616720190942897e+02 2.2300902313199748e+02  1.9997043011740155e+02 1.2320279841006200e+02 2.2246807257661052e+02  1.2160825575936160e+02 2.4663741899804586e+02 2.4330924872313332e+02  3.3296200225181298e+02 1.2446842641378254e+02 3.0661041494666836e+02  2.0418219806858224e+02 1.2774304169881070e+02 2.3290843368775219e+02  2.0726944972474323e+02 1.0835909038012643e+02 2.0726301301597644e+02  2.1370454668226753e+02 1.2526654855616171e+02 2.6083830833717178e+02  2.3030270232357299e+02 1.4708594051755838e+02 2.1143605488460886e+02  2.5742361310302243e+02 1.4995650843031416e+02 1.9549135354270047e+02  2.2080356878812569e+02 1.2784650898313744e+02 2.1855947914767722e+02  2.3147462757682496e+02 1.3632308714563192e+02 2.2662638032198012e+02  2.4448259407792136e+02 1.3322376335374199e+02 2.2732008632968223e+02  1.0340861183862511e+02 1.0953002001135457e+02 2.4104929255853460e+02  1.6705623924379148e+02 1.3224666780096015e+02 2.3223175571760285e+02  1.6851953642110669e+02 1.1341237661554838e+02 2.2485780356127640e+02  2.1285275886348822e+02 8.8931931599671856e+01 2.4325415377556200e+02  4.8643105030137122e+02 2.5598199953919590e+02 2.0264844668562947e+02  5.0347099841589966e+02 3.1629075635632563e+02 2.6506908059315685e+02  3.8015082623927168e+02 2.1412868487595469e+02 4.6335037752491723e+02  3.9290337169314722e+02 1.9323918923147824e+02 3.0942583382764747e+02  5.2420511269065173e+02 1.6617521376187153e+02 3.7865942194129531e+02  2.1338886519174915e+02 1.6749373455240857e+02 3.0847536133427468e+02  2.5890241322068425e+02 1.3802404165814360e+02 2.8167623426370619e+02  2.4797001298748020e+02 1.2308166018538691e+02 3.1422658411125303e+02  2.3022586900744997e+02 1.9057992274822772e+02 2.9398216363294608e+02  1.1920078513347400e+02 2.2317362463493788e+02 3.0311259332160068e+02  1.9484185901703444e+02 2.7302198711412308e+02 3.7698944379888673e+02  3.0590235341894657e+02 3.8118228847952503e+02 3.0779839597294773e+02  3.1662242956103250e+02 1.9867618063610396e+02 1.7287609589696899e+02  3.8312996788197449e+02 3.0487946187200629e+02 2.4093692211261302e+02  3.8755220197993128e+02 2.9330765562041449e+02 2.0973231896625038e+02  4.3800361945542619e+02 2.1640025765872150e+02 1.7663662625287506e+02  4.0830297202566533e+02 2.1809697963057289e+02 1.8811681494768624e+02  4.7412862603220037e+02 3.0494380594767443e+02 2.2775673122031174e+02  3.6507143853882036e+02 3.1547683484086247e+02 1.2376624347645414e+02  2.5219390854010686e+02 1.6879515475463234e+02 9.3098764132889698e+01  4.8534225099305104e+02 2.4439702780728322e+02 5.4792845378616697e+01  3.7585344428005271e+02 1.6853175414221641e+02 3.9261398245718794e+02  2.6295806041763802e+02 1.3854511075709172e+02 2.4138294424044017e+02  2.0129731674091570e+02 2.1929403656853921e+02 3.3643595925037039e+02  2.7142947277790535e+02 1.6504649351251931e+02 2.0837289418040598e+02  2.3498196859625591e+02 1.7294290799165404e+02 2.5112202927934939e+02  2.5102439322236643e+02 2.5509954985656569e+02 3.5705343068532113e+02  2.8293528124482799e+02 2.2200951875353914e+02 2.6399857715891375e+02  3.4892963454317243e+02 1.8932574202461595e+02 1.8494563201693930e+02  3.4372168961323058e+02 2.5124672180349748e+02 2.4239777382845705e+02  2.8363593772065019e+02 2.9777345955983702e+02 3.1812138651980121e+02  2.5985223261134155e+02 1.8747544144706367e+02 2.3324538758982803e+02  2.0741011335202685e+02 1.5817550692525637e+02 2.6231563531694150e+02  1.7564954815789187e+02 1.9786784550586404e+02 3.3895104758918188e+02  2.4275955947078953e+02 1.6687460369109908e+02 3.0301681234319750e+02  4.1544579530229839e+02 1.5894890041635219e+02 3.8075501160852457e+02  1.1583235958595286e+02 1.3054217383663385e+02 2.5893561148860528e+02  4.9894171624549682e+02 3.2097620684309641e+02 1.1692135468097520e+02  5.6021117186314916e+02 2.6734417298344965e+02 2.6762354653200993e+02  3.9091363057636443e+02 1.9651809076378811e+02 5.0009368957161360e+02  2.7981154339460096e+02 1.9198437754889503e+02 2.1385112174713197e+02  4.2546382525671106e+02 1.9523667890580714e+02 1.6584399319394984e+02  3.9633850184970038e+02 2.7856585747544995e+02 2.5657054245699743e+02  4.2825354132180462e+02 2.4570294220169546e+02 1.5885671698939303e+01  7.4969939677750332e+01 1.1958535664575979e+02 1.9775645305472133e+02  1.9584911320666171e+02 8.4930687250585265e+01 -6.2717820037104175e+01  1.9299737215282988e+02 9.0324689328154093e+01 -6.5000357763061544e+01  2.2715529385355012e+02 7.8981337958861047e+01 -7.7547166627452782e+01  1.8008157690682270e+02 8.3352103023109876e+01 -9.7670397228113160e+01  1.7828125809128321e+02 9.0992520227606406e+01 -5.6087836636881036e+01  1.5726135903059304e+02 8.3627196419864617e+01 -1.3693998350400383e+02  2.2424901082200827e+02 7.7233583193347926e+01 -1.2252863059801911e+02  1.5546143140738124e+02 9.3845668094247173e+01 -8.7214685688327378e+01  1.5144371615687336e+02 8.7717820040194653e+01 -4.9767462284619299e+01  2.7110852230832086e+02 1.0103264239996902e+02 -6.9180461337617601e+01  2.5969380632051184e+02 -4.3530340281636121e+01 -1.2771560424890265e+02  2.7269886190995572e+02 -5.1644522497915084e+01 -1.6059005008616370e+02  2.7123981426804716e+02 -6.7451103161101656e+01 -1.7030141401360456e+02  2.9817263954383981e+02 -6.3146712634705985e+01 -1.4235774645178807e+02  3.1881218675612064e+02 -8.5306547197779452e+01 -2.1730151331974156e+02  2.8316346486595410e+02 -5.4614260764086993e+01 -1.9008894216032340e+02  2.9227754537040443e+02 -7.1695536495346801e+01 -1.9227383522189902e+02  2.9427238794324688e+02 -7.7086981255847817e+01 -2.0140490442536174e+02  2.7708332101472729e+02 -5.2996007082797185e+01 -1.9373007687257706e+02  2.6575447734926269e+02 -4.2464691871857617e+01 -1.8740443675156101e+02  2.1899152637382764e+02 5.8531943191371425e+01 -3.2585820129040485e+01  2.6553548955520017e+02 3.8531616503736394e+01 -2.9144259148085258e+01  2.5996347592907154e+02 3.0172708381514660e+01 -5.6257802002752825e+01  2.3176629074803142e+02 4.1644074819554113e+01 -4.2019056798720960e+01  2.5784252785097300e+02 5.1342510739156772e+01 -2.1852064582874039e+01  2.6531714327130015e+02 5.4130459692818292e+01 -2.7437037523831474e+01  2.5172072011052472e+02 4.8486389446749783e+01 -2.8577127122161379e+01  2.4475638925706266e+02 3.5654961310023140e+01 -5.3845372508345314e+01  2.7100080539450175e+02 2.4757996620556227e+01 -5.4499918222841139e+01  2.9283311212710413e+02 1.5596355758307684e+01 -4.4787293561956851e+01  3.7115462455430600e+02 -1.3244563108894611e+00 -1.4682191906396647e+00  3.5983424096107166e+02 -6.2770551356961120e+00 1.5526493504059951e+01  3.6720119620209681e+02 -4.8841367403050899e+00 1.4113690185826478e+01  3.5854333498199628e+02 -9.2510569263486886e+00 3.7680319372827253e+00  3.6404516357431379e+02 1.2946295310483927e-01 -2.3155474236104784e-01  3.7403382476630856e+02 7.8733315032901846e-02 7.6687795242932322e-01  3.9460054019730194e+02 -2.4918101712660889e-01 1.0541342855729328e+00  3.8286970977416627e+02 -2.5504915488088958e-01 2.0687181041399597e-01  3.7296218156396930e+02 -6.3083331130174549e-03 4.1643449419430995e-01  3.4089839534179964e+02 -1.2709056440719083e+01 1.8974137929256489e+01  6.8878918745954243e+00 5.8188003856971848e+00 6.0127261530319931e-01  1.2159522181953005e+01 5.4888506500991046e+00 -8.0721509270071112e-01  1.3587163960629210e+01 6.4284090617156187e+00 -1.4033254390652232e+00  8.6230557754693482e+00 2.2330330380516474e+00 -2.0329655666519397e-01  1.0021654841276705e+01 9.6730949250406386e+00 -7.8951279435047073e-01  9.2696865344496207e+00 1.0307781942402128e+01 -2.1825217406503161e+00  1.4803065166577628e+01 1.7625627044710299e+01 -5.4715419061698087e+00  1.4130027141403938e+01 1.7226425164750911e+01 -3.3181664791741645e+00  1.4758778507343656e+01 1.6967364604281368e+01 -1.7834263154494832e+00  8.3992369459664111e+00 -1.2915522952473879e+00 -3.9389126364130039e-01  2.3669744742479040e+02 -1.3366700183198942e+01 -9.7711469305273980e+01  2.2188995427227229e+02 1.4491169999905877e+01 -6.1374828109358639e+01  2.4917777551785500e+02 1.0835159931887880e+01 -9.6297126524802863e+01  2.1268028225945889e+02 1.5288361527585053e+00 -1.0210658844838282e+02  1.8909525247131296e+02 1.2662170419814698e+01 -1.1748763122477905e+02  1.9193957314496581e+02 3.0691886469078316e+01 -7.2165621627913950e+01  2.2613693500284441e+02 2.2236826494851300e+01 -1.0415516261902819e+02  2.6443352296931346e+02 3.5918857673795173e+01 -8.9400805472374472e+01  2.3023674160100853e+02 3.5239434257543813e+01 -6.2536064580236747e+01  2.0383972376708275e+02 4.4832199386756415e+01 -2.7792683840292490e+01  3.5242725872244115e+01 -7.5877215389431242e+01 -1.2720582112830229e+01  3.9211605993492569e+01 -3.3708718494514223e+01 -2.7724465491469403e+00  5.2483811444633020e+01 -4.0916610010259902e+01 6.0966514089213712e-02  4.3179087663056350e+01 -5.5689161983862249e+01 -2.8084184860616199e+00  3.0556173492627160e+01 -4.2810646329477606e+01 -1.6112782934921647e+01  2.6153701745003627e+01 -2.0705962029531001e+01 -7.2464262068726066e+00  4.5355084340424582e+01 -2.0325571928271717e+01 2.3494575642026803e+00  4.7963639495470794e+01 -4.1200120637724595e+01 1.3173677624294469e+00  6.3095777063316810e+01 -2.5670115221509970e+01 5.6231225451990978e+00  7.0614117920786242e+01 -1.0457734728826876e+01 1.8222649620761818e+01  1.7383733181814654e+02 2.1476654582225785e+02 2.7606198845486563e+02  2.2375922802643643e+02 1.7669814822582472e+02 2.3092738516848351e+02  2.0434076924824521e+02 2.4753729929214586e+02 2.7021216029366133e+02  2.0439106688131375e+02 1.9282626045186228e+02 2.3902128585824443e+02  1.8870607360919442e+02 1.6717327213044138e+02 2.5075834632729683e+02  1.8675135197842619e+02 1.6541367623501588e+02 2.5291186077673876e+02  1.9251773863103139e+02 1.4196894865580629e+02 2.3341345110138866e+02  2.0324711943035535e+02 1.4600674645225786e+02 2.3079675614856737e+02  1.8605561956133138e+02 2.4443672231766530e+02 2.5815117625434254e+02  1.7974827269400473e+02 2.3362194272517706e+02 2.292610