<?xml version="1.0"?>
<VTKFile type="UnstructuredGrid"  version="0.1"  >
<UnstructuredGrid>
<Piece  NumberOfPoints="6632" NumberOfCells="30468">
<Points>
<DataArray  type="Float64"  NumberOfComponents="3"  format="ascii">33.45497131347656 39.89572906494141 38.09474182128906  33.31501856042179 39.51581172572483 38.17603067596032  33.80083270985789 39.46334262244223 38.25727515554517  33.43345642089844 39.61771965026855 38.60458564758301  33.41194152832031 39.3397102355957 39.11442947387695  33.29350366784367 39.23780231105198 38.68587450225426  33.77931781727976 39.18533320776938 38.76711898183911  33.17506580736703 39.13589438650826 38.25731953063158  33.66087995680311 39.08342528322565 38.33856401021642  33.67628860473633 38.84822845458984 37.73688888549805  33.42567720605167 38.99206142054905 37.99710420806481  33.42232217980656 38.6504476510178 38.26733926971032  32.82368087768555 38.66490173339844 37.55527877807617  32.99937334252628 38.90039805995335 37.90629915435387  33.24998474121094 38.75656509399414 37.64608383178711  33.24662971496582 38.41495132446289 37.91631889343262  33.21213912963867 39.23488998413086 37.49785995483398  33.76238059997559 39.60101890563965 37.85410118103027  33.56562995910645 39.37197875976562 37.91581535339355  33.33355522155762 39.56530952453613 37.79630088806152  33.67881011962891 38.56987571716309 39.07949447631836  33.5407600402832 38.75235557556152 38.69589424133301  33.62242784692081 39.22110156642307 37.93539003570153  33.19360246850285 39.18539218531956 37.87758974273278  33.4442138671875 39.04155921936035 37.61737442016602  33.01791000366211 38.94989585876465 37.52656936645508  31.53544044494629 31.99403953552246 36.05831146240234  32.18656539916992 31.8732852935791 36.4139461517334  32.10200977325439 31.95065975189209 36.22359657287598  31.8726053237915 32.23379993438721 36.28750610351562  31.84940052032471 31.63352489471436 36.18475151062012  32.16336059570312 31.27301025390625 36.31119155883789  32.41596984863281 31.59014511108398 36.35003662109375  32.20977020263672 32.47356033325195 36.51670074462891  32.43917465209961 32.19042015075684 36.45279121398926  32.6685791015625 31.90727996826172 36.38888168334961  29.17655944824219 27.23356056213379 33.71850967407227  28.68597156440455 26.98133958958032 34.08535053195111  28.74439538710628 26.90526634549888 33.72956547286996  29.05506628197357 26.95936353491396 33.98027961169345  28.80746473067317 27.25553661680015 33.82358059432992  29.11349010467529 26.88329029083252 33.6244945526123  29.0504207611084 26.53302001953125 33.53047943115234  28.99199693840667 26.60909326361269 33.88626449023349  28.43837001310416 27.2775126714665 33.92865151458757  28.93357311570495 26.68516650769414 34.24204954931464  27.36519050598145 27.22282981872559 39.25796890258789  27.66312067091578 26.85091347909433 38.99676094637032  27.71148014068604 26.87873458862305 39.57502937316895  27.29832553863525 26.72440528869629 39.29198455810547  27.23146057128906 26.22598075866699 39.32600021362305  28.00941030562037 26.50681824899179 39.31382141695137  27.59625570356959 26.35248894906503 39.03077660188789  27.64461517333984 26.38031005859375 39.60904502868652  28.05776977539062 26.53463935852051 39.89208984375  27.96105083585012 26.47899713946307 38.73555299015274  31.0823802947998 27.65830039978027 37.13880920410156  30.7521207005239 27.1045435907868 36.76877241419206  30.6892659336782 27.36917867684637 37.18446188257585  30.62032725081443 27.64176701458693 36.65705542257032  31.14523506164551 27.3936653137207 36.72311973571777  31.20808982849121 27.12903022766113 36.30743026733398  30.68318201766013 27.37713192852736 36.24136595418653  30.15827420682906 27.62523362939358 36.17530164103908  30.22721288969282 27.35264529165303 36.70270810104461  30.29615157255659 27.08005695391246 37.23011456105014  29.60693938088576 26.6678370650787 35.21590610005333  29.77179008413693 25.44730710897901 35.52148350574817  30.13033147065643 25.83244881969373 35.78965583026751  29.57132270118624 26.13916171022544 35.72862480744075  29.80740676383645 25.97598246383227 35.00876479836076  30.16594815035595 26.36112417454698 35.2769371228801  30.72495691982614 26.05441128401527 35.33796814570687  30.36641553330664 25.66926957330055 35.06979582118753  30.00787414678714 25.28412786258583 34.80162349666818  29.53570602148671 25.61048635537219 36.24134351482816  26.69443675083757 24.36984019151255 34.6590902672469  26.38526839756665 25.22011267210909 33.50067505214931  25.79668281341519 24.87520439658016 34.48058305410984  26.44257801946215 24.35015423831543 33.90713600753279  26.63712712894208 25.23979862530621 34.25262931186342  26.57981750704658 26.10975705909987 33.84616835647994  26.19071928808672 24.33046828511831 33.15518174781868  28.24221221019296 27.12024021872548 38.77413857748752  28.12082521498316 26.97751851296884 39.31382141695137  27.94428204525862 27.49215655835674 39.03534653370509  27.82289505004883 27.3494348526001 39.57502937316895  28.28059959411621 27.47603988647461 39.89208984375  28.40198658932601 27.61876159223125 39.35240700428615  28.5233735845358 27.76148329798789 38.8127241648223  27.46992748394306 29.53206964847502 36.77276299780715  27.1940750991144 29.64016544572819 37.20374418963321  27.02425175499152 30.18548246578017 36.64267548855231  27.65603219500487 30.19596799369218 37.08600329303954  27.84213690606668 30.85986633890934 37.39924358827192  26.74839937016287 30.29357826303334 37.07365668037836  27.38017981017621 30.30406379094535 37.51698448486559  27.21035646605333 30.84938081099733 36.95591578378469  26.57857602603999 30.83889528308532 36.51258797929746  26.91822271428575 29.74826124298136 37.63472538145926  28.69277291564455 27.28006795888261 36.90241878987627  29.49446224410057 27.18006245639754 37.0662666754632  29.34477626979944 27.38144655221188 37.69369951091006  29.01357164798559 26.69508292100937 37.57057639465164  29.33437038032664 26.11009788313612 38.238733999427  29.81526097644161 26.59507741852429 37.73442428023857  29.66557500214049 26.79646151433863 38.36185711568543  29.99677962395433 27.48282514554115 38.48498023194387  30.14646559825546 27.2814410497268 37.857547396497  34.09431838989258 33.36664962768555 38.1845588684082  34.36458151267784 32.9135972313608 38.41598377670804  34.13849584983605 32.83091748282564 38.09260426010648  34.06829588340538 33.12714207694185 38.46960888351956  34.39060401916504 33.15310478210449 38.13093376159668  34.16451835632324 33.07042503356934 37.80755424499512  34.23471832275391 32.77420043945312 37.43054962158203  34.4608039855957 32.85688018798828 37.75392913818359  34.6868896484375 32.93955993652344 38.07730865478516  34.04227337691819 32.88763452619816 38.75465889863092  25.5135498111657 23.71459920985363 34.11599053110383  25.49242795892853 24.2234491925563 33.93254430654569  25.74428669030396 24.24313514575342 34.6844985662598  26.46369987169932 23.84130425561276 34.09058223209092  26.21184114032389 23.82161830241564 33.33862797237681  26.23296299256106 23.31276831971296 33.52207419693494  24.79413662977034 24.1164300999943 34.70990686527271  32.77767944335938 33.01461029052734 39.89208984375  32.68898807126446 33.60931794791055 39.59678711943336  33.00920220649829 33.28852348181927 39.53130050580391  32.89781379699707 33.60292053222656 39.89208984375  33.01794815063477 34.19123077392578 39.89208984375  32.80912242490216 34.19762818960977 39.59678711943336  33.12933656013598 33.87683372351849 39.53130050580391  33.2407249696372 33.56243667311119 39.17051116785781  32.92051083440337 33.88323113920248 39.23599778148726  32.60029669916955 34.20402560529377 39.30148439511671  27.46899072706812 26.15754838204843 38.7370410977375  27.49438075490209 25.92599330525368 38.86847036321144  27.1041955947876 26.03104019165039 39.03226470947266  26.97693061828613 25.83609962463379 38.73852920532227  27.36711577840062 25.73105273823708 38.57473485906105  27.75730093851511 25.62600585184038 38.41094051279983  27.85917588718262 26.05250149565173 38.57324675147628  30.07104938872175 29.95462304020403 38.75820823079226  30.43271274552819 29.38849167202113 39.15213404022727  29.88547734922034 29.66810853750934 39.11045116921396  30.32348408650034 29.19821917566652 38.81088465740193  30.61828478502959 29.67500617471582 38.79989110180557  31.16552018133744 29.39538930922761 38.84157397281889  30.87071948280819 28.91860231017831 38.85256752841524  30.57591878427893 28.44181531112901 38.86356108401159  30.13791204699893 28.91170467297184 39.16312759582362  29.69990530971893 29.38159403481466 39.46269410763566  29.90328025817871 22.73711013793945 39.13901138305664  30.12680560269894 22.818101976776 38.50101466208725  29.89990550199094 23.08074197616565 38.67596621543198  30.09083187415349 22.52844989759988 38.4269921073406  30.13018035888672 22.4744701385498 38.96405982971191  30.35708045959473 22.21183013916016 38.78910827636719  30.31773197486149 22.26580989821023 38.25204055399587  30.27838349012826 22.3197896572603 37.71497283162454  30.08745711796571 22.87208173582607 37.96394693971592  29.89653074580316 23.42437381439184 38.21292104780731  31.87166976928711 26.32401084899902 35.95365905761719  32.12511633635766 25.73923139860357 35.93967917855404  31.62296035487316 25.77614299519863 35.35909461941797  31.43022562617155 25.58951874868367 35.847471116701  30.98878148305599 24.85502664836832 35.74128317578482  31.87640692194371 25.19136354480317 35.34511474035482  31.6836721932421 25.00473929828822 35.83349123763786  31.1815162117576 25.04165089488328 35.25290667850179  31.37425094045921 25.22827514139823 34.76453018121875  32.37856290342822 25.15445194820811 35.92569929949089  27.78649990451339 27.15388821897073 34.21336680348839  28.36003651010917 26.91952736333243 34.22770817640152  27.98901189826293 26.73437328128916 34.03142461078205  28.11243495880878 27.21570044521862 34.07100915903798  28.31494695255831 26.79618550753705 33.88906696633164  28.19152389201246 26.31485834360759 33.8494824180757 
[...]
<PointData  Vectors="u"> 
<DataArray  type="Float64"  Name="u"  NumberOfComponents="3" format="ascii">5.8333354483360665e+02 -6.6065303177250158e+01 7.6888493991661605e+01  5.4048394349222463e+02 -2.5382977825300511e+01 2.3977770147407249e+01  6.2037737550289080e+02 -1.7322679885772466e+01 5.2216304880531190e+01  6.3792454788857879e+02 -3.7070321819588067e+01 -8.0805949573325879e+00  5.7169925540039014e+02 6.0511263084538998e+00 -3.2060371795581432e+01  5.1428614520438180e+02 -1.9588920173465901e+01 -5.9843569673420012e+00  5.6089619491198061e+02 5.6026394451739762e+01 -7.2891998120203985e+00  4.9782013406237422e+02 2.5256999390345552e+01 4.5297366341265167e+01  5.8859700863148237e+02 4.3869542207508317e+01 -1.5003842855511861e+01  7.7057252470589776e+02 2.6178817877944223e+01 2.7599403133267664e+01  5.9231569369023100e+02 5.6836752976555900e+01 5.8911513828458673e+01  5.6966964944588949e+02 1.0625327103093818e+02 3.9873901362230747e+01  4.0647617384956743e+02 9.0548211195557556e+01 1.9186254402871774e+02  4.6804371931182851e+02 5.8102596231706741e+01 1.1029468152704037e+02  5.4082757646355878e+02 9.2717462356832016e+01 1.1455978557786804e+02  5.0980083967677069e+02 1.7856415933863838e+02 1.2425066019607905e+02  6.1011819733898506e+02 1.1077007390114144e+00 2.1101581701525501e+02  6.1890873197535348e+02 -1.5842192678720934e+02 6.4238131394358362e+01  6.2365483381568799e+02 3.8915509043806864e+00 2.8918780616252267e+01  5.9610084130678183e+02 -3.6716674011744580e+01 8.8404380570348380e+01  5.4969910327817320e+02 1.0492655069995151e+02 -2.1154019883643361e+01  5.4406536092955787e+02 8.0594032984512083e+01 -1.1304724478824419e+01  6.4763164123167428e+02 1.1693217562607354e+00 3.7388649663000187e+01  5.4399238413353851e+02 2.3280488306176679e+01 1.0693454191222675e+02  6.4608357169945532e+02 7.7722574200263836e+01 1.2785321993146940e+02  5.0599571083544504e+02 1.5023516828521268e+01 2.1498632413886537e+02  2.6065516027409217e+02 -8.3609299052867826e+01 1.1224530021903962e+02  3.0962429756392299e+02 -9.2907498667909408e+01 6.4373581960291475e+01  2.9264843599593701e+02 -7.2727206955992600e+01 9.7180733141675319e+01  2.7553710407822820e+02 -1.2688630838052387e+02 8.3223016556792572e+01  2.7439950900246612e+02 -9.9153842883166277e+01 5.8691398677200858e+01  3.8303133023098854e+02 -1.0661694445887517e+02 3.3286591439230925e+01  3.8763960359617846e+02 -1.4031214953294932e+02 3.4094614939493155e+01  2.6747876062400502e+02 -1.4839215781289832e+02 7.8065021204253327e+01  3.1794704814401291e+02 -1.4571728877010850e+02 4.9325387679778025e+01  3.9105463573170590e+02 -1.4145684025931541e+02 2.0606040201221778e+00  1.6062748393128021e+02 -1.7661863375707938e+01 1.1277259827628616e+02  1.4931264394679951e+02 -1.9513833868868225e+01 1.1106149568213276e+02  1.5137611862081161e+02 -1.7679102264807874e+01 1.2696362106356737e+02  1.6000083229947822e+02 -3.0046443285787664e+01 1.0943374989464596e+02  1.4690236729927813e+02 -1.3262641189922567e+01 1.1658510860750269e+02  1.7468912328511746e+02 -3.2720889604302371e+01 1.4497210809052282e+02  1.8438929459268851e+02 -3.4966715086829652e+01 1.5002153945260366e+02  1.7407573097425748e+02 -3.3662816644988951e+01 1.1858812870263023e+02  1.4140559044662828e+02 -8.7669181583700322e+00 1.1276254516119961e+02  1.6313392543424959e+02 -3.2599059766365862e+01 1.0462523638772859e+02  2.5267636319677852e+01 7.3236811405007494e+00 3.9466112668257630e+01  4.2190652171249624e+01 6.9384923653245894e+00 4.1593014235430850e+01  4.2246862603689330e+01 9.3992867993076441e+00 2.9092920753002208e+01  2.2409677552397397e+01 1.0018688372383853e+01 2.4546775536621475e+01  2.2397082027623956e+01 1.2058785497693156e+01 2.9802953173194648e+01  5.0843446438789798e+01 1.0595957269958307e+01 2.7726859132475990e+01  3.9189150626460730e+01 1.0675265558460724e+01 3.8824155397316908e+01  4.0293300643612319e+01 1.1954362208469743e+01 2.9680380825708255e+01  3.6639835450472056e+01 1.4799401853329613e+01 9.4481099450147603e+00  5.8617138906761156e+01 8.7103471195579107e+00 4.3897805391500746e+01  3.7231312640324042e+01 -6.1824563935784433e+01 5.5435574685847961e+01  1.1706519216267542e+02 -9.4810663915233903e+01 4.4497929631149219e+01  8.9282311426509210e+01 -5.7443662979760930e+01 4.6478936593305313e+01  7.5618262697057631e+01 -5.6243901753069046e+01 6.9116393388666680e+01  7.3750213370778269e+01 -1.2807244245152472e+02 5.5567200687535262e+01  1.2682564028602214e+02 -1.7363416667161383e+02 4.1803317653787659e+01  9.5598401682803555e+01 -9.0914442037658532e+01 6.4026545776462214e+01  1.0219205332480719e+02 -4.8086815698158389e+01 7.3710896218187159e+01  1.0921812109352513e+02 -4.8765609488307959e+01 6.0014720576285498e+01  1.1760585141631849e+02 -4.4821762894480457e+01 4.1078029450801580e+01  1.5832787945601891e+02 -5.5697169637193269e+01 7.2497168886632025e+01  2.0024885534570771e+02 -3.5522006642929867e+01 4.7208531543802216e+01  1.9863375845602567e+02 -5.3780748211750030e+01 4.2584703296581864e+01  1.6935493005143408e+02 -4.1271162980529716e+01 5.8864264614374811e+01  1.9708930771155426e+02 -5.7396700104831780e+01 5.7682552437803309e+01  1.8539022768323557e+02 -8.1388477897166908e+01 5.7386780104483890e+01  2.3552360426771574e+02 -9.8710649732714643e+01 3.7819141566418651e+01  2.3218207626886252e+02 -6.5514792018965949e+01 3.8536134780982117e+01  2.3137726739454331e+02 -4.6799630489334554e+01 4.0793582616117533e+01  1.7135950499354038e+02 -2.4772732731205981e+01 4.7110508181956867e+01  1.4985631014358552e+02 5.6552225767402087e+00 9.9687592109298436e+01  1.2440085250950588e+02 4.6404080282150835e+00 1.1428279086068807e+02  1.4217143201299405e+02 4.1220553280428254e+00 8.9534803758736430e+01  1.3190214901832192e+02 2.6246913748186458e+00 1.1048138744548851e+02  1.4074262444881688e+02 5.3938922279059067e+00 1.0832267013461556e+02  1.3450950168327091e+02 6.3795141461159028e+00 1.1466815369300986e+02  1.0424568752393500e+02 2.0771939469362262e+00 1.1524012357401841e+02  6.6017951286700480e+01 4.0205254018310024e+00 4.1255188789395532e+01  5.3408365983820012e+01 7.8488702233220060e+00 2.8916355773431953e+01  5.3540339868828077e+01 4.1641755946268617e+00 4.1659843557412721e+01  4.4516695126732891e+01 6.8647304433457279e+00 3.0467049204940277e+01  4.5848284620194242e+01 6.9442369513851716e+00 8.3226460594685552e+00  6.3410223113661701e+01 7.4598882586166742e+00 2.4352374274726458e+01  7.5955073033515404e+01 5.7258547378602094e+00 4.0143351443733849e+01  1.0482073520008099e+02 -9.5536591318497024e+00 8.8079790447632135e+01  1.0046301177246679e+02 -1.3632155278701678e+01 8.7397282117714710e+01  1.0962719780439870e+02 -1.1289213149308129e+01 8.8946392120590502e+01  1.1004913625015664e+02 -8.3989227820374417e+00 8.2461590904654926e+01  1.1657198427159824e+02 -9.0879181562335454e+00 7.6673131599405011e+01  1.0553979166412027e+02 -1.5385479417259846e+01 8.9626670805558604e+01  1.0528526206675947e+02 -1.3331520611118151e+01 8.0797371792357325e+01  1.1254197915931438e+02 -1.1120505109191759e+01 8.1699472534433994e+01  1.1555346418567080e+02 -1.1139499770050174e+01 8.8624467163311138e+01  9.5305055126462975e+01 -1.8011570477786105e+01 8.6933925078811853e+01  1.0722037893907856e+02 -1.1068699488962922e+01 7.1623261384836610e+01  1.1447836775004083e+02 -2.2770939489879222e+01 5.6768752279419267e+01  1.0360089897791347e+02 -6.5439481544431253e+00 5.1143813488020832e+01  1.0992427815833128e+02 -8.6118375736681614e+00 4.8528454593120678e+01  1.0999091934305071e+02 -5.0762063084947595e+00 2.3618575810300410e+01  1.2248798416583799e+02 -2.3029490874892126e+01 2.8260401996945376e+01  1.0210277918386119e+02 -7.3962352391478321e+00 2.2050233643592705e+01  9.8219828121774853e+01 7.8332262208087382e+00 2.8750779745761754e+01  1.0285068315478850e+02 -1.8942690151714327e+01 3.4847074417567086e+01  1.6493197871776630e+02 -1.5423010919517537e+02 -6.3590215714635391e+01  1.7625744847845169e+02 -1.4692301755171891e+02 -6.2235976804374225e+01  1.9715831481947959e+02 -1.4624580977532418e+02 -6.5502419824418226e+01  1.6935088950889704e+02 -1.4378840547224800e+02 -4.7550806295219672e+01  1.8187353646435889e+02 -1.4495577123811358e+02 -6.9133592432140745e+01  1.8828053110014469e+02 -1.3443910535517583e+02 -8.0337746807184715e+01  2.2384337947968169e+02 -1.6310173766058631e+02 -1.0319526881544360e+02  1.9280568655277875e+02 -1.7546657024210452e+02 -8.9190070915032734e+01  1.5529858622593682e+02 -1.6727194961560980e+02 -8.4394115110743044e+01  1.7316044405816240e+02 -1.3579534609856202e+02 -3.8945300085909565e+01  1.2222419589702905e+02 -5.7793282432408004e+00 8.0613118937737084e+01  1.2068540129226014e+02 -4.1567978507357743e+00 8.4286162774158555e+01  1.4183014214124464e+02 2.2040791858309245e+00 8.1792071337941920e+01  1.3515996593178673e+02 4.5097225669808444e-01 1.0700808417860370e+02  1.0470673370799774e+02 -1.7931061608014518e+00 1.1537971099064112e+02  1.0915947430943105e+02 -8.2465584681584474e+00 1.1146560947508799e+02  1.3474851612804440e+02 -9.1712823391697587e+00 5.3740896024495392e+01  1.6331875490298137e+02 -8.7605031888137660e+01 1.0115953404658511e-01  1.4655464025834141e+02 -8.7907722576605252e+01 1.5892227582436291e+00  1.5871275801715967e+02 -9.7386976022311345e+01 -7.0644562085014573e-01  1.4563779210347877e+02 -9.5392653753827332e+01 1.0416475241060341e+00  1.2464065869012173e+02 -1.0271368957403527e+02 -5.1365294638995103e+00  1.2769786970805058e+02 -9.3066578208605691e+01 -2.3435054132865458e+00  1.4023071886643129e+02 -1.0163361619346628e+02 -4.3959807684698395e+00  1.5459912051794547e+02 -1.0447250741131714e+02 -5.7134775149575212e+00  1.4601491795451139e+02 -9.5652614105756570e+01 -2.7592158473896339e-01  1.3182369336305814e+02 -8.6345368480861538e+01 7.6701024712740500e+00  3.8392066026447289e+01 1.3606205601687059e+01 5.1647445168647288e+01  3.8447416032277232e+01 1.6646323828772257e+01 4.7082021212848957e+01  1.8462951377411503e+01 1.6218719397925067e+01 4.6176022790428632e+01  1.0710077737135551e+01 2.1470154784916033e+01 5.4532780100361592e+01  3.7493086614215763e+01 2.2053103114910282e+01 5.9966303882574927e+01  6.4020183112647729e+01 1.9618218954153438e+01 5.6402766029802656e+01  5.9747541032607124e+01 1.2648868919837923e+01 4.9469808708516631e+01  1.5352133938556540e+02 2.1942020774814406e+01 4.3843523268132500e+01  1.6356287073246423e+02 3.5250353949682911e+01 2.8223933582126815e+01  1.4000094845512123e+02 2.4685446801664167e+01 3.2119389723256226e+01  1.5293962248340210e+02 3.6230702221155902e+01 4.0317049864541652e+01  1.7970359897369491e+02 3.2159431690909720e+01 3.9481565341630578e+01  2.1914282660114333e+02 4.5861402864023837e+01 4.1023243413320358e+01  1.8385607838017276e+02 5.7939167516302447e+01 4.1066571567481304e+01  1.4191856767924429e+02 5.4950147469252009e+01 3.7606966900699895e+01  1.3905030911454872e+02 3.6290195636059352e+01 2.6499496865226096e+01  1.2647255611900981e+02 2.6366116718000363e+01 1.8383351465621455e+01  1.7312271748263993e+02 6.4990909745846210e+01 -6.2333233505263351e+01  1.7711462005158356e+02 4.5803041615765039e+01 -1.4171905036192927e+01  1.6527530900887183e+02 4.2343492627600135e+01 -1.9058996822972460e+01  1.8424469677793113e+02 5.1172753357694987e+01 -1.4584210955619824e+01  2.1865418563239527e+02 7.3698134012869872e+01 -3.8492575455532602e+01  2.4096809520919103e+02 5.1660393196182454e+01 -1.9607150081450584e+01  1.9209472573457364e+02 4.7486782957438400e+01 -2.8303407544172665e+00  1.7977624186793287e+02 4.7642029924433601e+01 -4.1520422036630139e-01  1.7399007786323889e+02 4.0784896523887177e+01 -2.4046231276185326e+00  1.6471014043424515e+02 3.3417509650516877e+01 -5.1671317808294477e+00  4.3776652631093725e+02 -1.5360881167635532e+02 -1.7579397240651787e+01  3.8221024129807233e+02 -5.9223280171356096e+00 -2.4387856095251028e+01  3.5954976985760595e+02 -6.8535518900116386e+01 2.4096285873209693e+00  3.0344693761033909e+02 -5.2331000006425931e+01 6.1213311961136530e+00  2.5251257167456771e+02 -1.2675714600339928e+01 9.2837998945379443e+00  3.2456065416230234e+02 3.8475287885169793e+00 -1.1452345610727566e+01  2.9281870535753575e+02 4.8705834204200764e+00 -4.6839486618702768e+00  2.8160326717298454e+02 -2.4355728531882679e+01 6.8301515660548144e+00  3.1482266084541914e+02 -3.4414595115042260e+01 3.1511042638363853e+00  3.1978644688524827e+02 4.6195118447602916e+01 -2.1926966438889210e+01  1.3502968374037317e+02 -1.8350022533699135e+00 1.1161135514816441e+02  1.4487049431295108e+02 -1.3372423246539032e+01 1.0904799183237832e+02  1.4390977713164079e+02 -6.7544166325813455e+00 1.1617714103933565e+02  1.3823422766597039e+02 -5.4874372237075724e+00 1.1146162022071040e+02  1.4845570265562606e+02 -1.0949943579027368e+01 1.1867708157105245e+02  1.5543512670730058e+02 -1.1515356852903315e+01 1.2306992310084432e+02  1.6043515711378311e+02 -2.0953336824997873e+01 1.1724477644133084e+02  8.2516546724408599e+01 1.7262036822635451e+01 3.7991160731782458e-01  8.8774537405559002e+01 1.9101134627498421e+01 1.0995191374369167e+01  9.2786966882533903e+01 2.6488999542614245e+01 5.5887753690237885e+00  9.0720062364414687e+01 2.0951282806309948e+01 7.7380458375439911e+00  8.7616627589370026e+01 1.9113046921202596e+01 5.3370488443380648e-01  8.3107009371297636e+01 1.5233173452681060e+01 6.6171981722600588e+00  8.3491730726152213e+01 2.3285846128495439e+01 -5.1815774360320621e-01  8.1742657286586905e+01 1.5034718994133181e+01 2.4077179436001366e+00  1.0014540909545418e+02 2.5151273013345111e+01 1.4919990802532066e+01  8.3764528784222264e+01 7.0017919678966480e+00 4.8320589538252419e+00  5.6185491287980831e+01 4.7836894002206918e+01 1.1698651164527671e+02  8.3261281592093553e+01 4.4723469610061038e+01 1.0063609548376668e+02  1.6259330173371445e+01 3.7826493014418780e+01 9.8020497490951499e+01  7.8019255298368449e+01 2.6206716758880713e+01 9.5400398004816367e+01  6.0616971424516969e+01 7.5819544792132135e+01 1.2933848329292294e+02  2.7116577778436412e+01 7.2149260359920095e+00 9.7125310500168993e+01  1.2222671643890385e+02 1.0605779751397975e+02 1.4118630496458627e+02  6.5536982123504600e+01 -4.8731417656174516e+00 7.5025726009545480e+01  9.4967545940552768e+01 1.1707395614153802e+01 7.5636579308817318e+01  7.5793848758652587e+01 -3.3837178273643791e+00 1.2253042034247213e+02  8.9780086288840323e+01 -2.2079200580482656e+01 9.4257903275471037e+01  6.1113875750750879e+01 -3.2300813349930344e+01 1.0539810658367044e+02  6.2262727382500053e+01 -2.6479512039915328e+01 1.1124704029380842e+02  6.5083444289179297e+01 -4.0383543338805751e+01 9.7585686362509520e+01  9.3739619111829242e+01 -2.9790255564130799e+01 9.0071268925915163e+01  6.9440814853801257e+01 -4.8438327677023928e+01 1.0045632545642987e+02  7.4889738972715705e+01 -6.4290102146480521e+01 9.1798680310648919e+01  9.7291018254183015e+01 -3.8888577120687941e+01 8.7778411802780909e+01  1.0876356793528198e+02 -2.3318277485510844e+01 8.5134456154013790e+01  1.5055441523265557e+02 1.8162853108829804e+01 7.1940483036126480e+01  1.5712505307395787e+02 2.0814972899980738e+01 8.0129165179744945e+01  1.4968025015317227e+02 1.7921649495825111e+01 6.5350785611931869e+01  1.5331297549301323e+02 1.5281459466461817e+01 7.7732363350081982e+01  1.4283212282847242e+02 2.3932107552626292e+01 7.7665958511195186e+01  1.4194267929842150e+02 2.9937738042531034e+01 9.1622204066912104e+01  1.4947082761491055e+02 9.6343756874862763e+00 6.5836435371038277e+01  1.4409845630653942e+02 2.1339601983055292e+01 7.1657415336199733e+01  1.5501300155885667e+02 8.3749494472105166e+00 7.1214596858601624e+01  1.4378907212764290e+02 1.4659287742995890e+01 5.8934643405805943e+01  2.0028665280755723e+02 5.7654367048468927e+01 2.6404957565398102e-01  1.9238148748859192e+02 8.6733286939763317e+01 -2.4124682756767054e+01  1.9689889298377184e+02 6.8705342735053293e+01 -1.2256687936062784e+01  1.8063265824056967e+02 6.9345682297061728e+01 -8.7558423052680538e+00  1.9783949867282286e+02 7.3500418029123523e+01 -1.6568277528616214e+01  1.5966214489180328e+02 8.2893689507398975e+01 -1.0903611991260407e+01  1.7806482029280758e+02 8.5014974736682248e+01 -1.3869945832990112e+01  1.7234670275640931e+02 8.6226403043311436e+01 -1.8830782555398169e+01  1.8847946885210959e+02 9.3381356422385167e+01 -2.9896394718971486e+01  1.9817086398297889e+02 8.2266917944338928e+01 -1.6238174367183717e+01  1.7881341574371535e+02 1.2296052943410477e+02 -8.0329772183447545e+00  2.0075605796172877e+02 1.6029981053531864e+02 2.0101638032699803e+01  1.4650103930122060e+02 9.7993244711914059e+01 2.4525523692724306e+01  2.2376104170530175e+02 1.0425490956031972e+02 1.3524064379378459e+01  1.7520420046995551e+02 1.5461143835775016e+02 -1.1313152067087733e+01  1.5281424347088426e+02 8.1546493541032433e+01 1.4873565661324632e+01  1.3603861456901154e+02 1.6773755516225526e+02 4.9388451760146177e+00  1.8792756336334244e+02 8.0891353049815677e+01 3.2619756907454651e+01  2.7062866773570374e+02 9.3006164676398399e+01 2.7881691438875809e+01  2.0358981474069182e+02 1.5652417477861464e+01 -1.6794325301621171e+01  1.9495622829245858e+02 2.3627518401368789e+01 9.6115057518990969e+00  1.8737417793732919e+02 2.2006140716944933e+00 3.6573189601938481e+01  2.2721492554578231e+02 2.2228800227752171e+01 -8.2925723473926782e-01  2.0562628364794972e+02 3.3261286186351654e+01 1.3826826638778982e+01  2.1636334741983987e+02 5.8450974186028501e+00 5.3610627917783660e+01  1.7885879026911337e+02 4.4206562713588902e+00 3.6303578035246431e+01  1.8902067194684045e+02 2.6390616599938067e+01 2.0476570323629542e+01  1.8980478544933436e+02 3.8789981268861048e+01 7.5620422116244868e+00  4.2362711069851493e+01 5.2264478212276295e+01 1.0101066893682261e+02  6.5005527488327672e+01 3.4616640708243331e+01 7.2676892096308393e+01  7.9511848000717734e+01 4.1470363748286097e+01 9.2050883409219622e+01  4.9377168368548304e+01 5.0390806016046461e+01 1.0166514397142021e+02  5.5343030607805190e+01 5.1479111869516501e+01 8.9778854488326616e+01  6.7390863269700858e+01 3.9471482340868171e+01 6.9854535364858165e+01  8.0881727786842660e+01 4.1061079181994266e+01 8.7098251461377387e+01  1.0154095980627362e+02 3.6191428808560836e+01 8.1470926949119161e+01  8.9553686807598297e+01 3.3876416367621140e+01 6.7170340015749957e+01  8.2459954806044564e+01 2.9558458356041392e+01 5.2062772758855573e+01  1.6751022900642931e+02 3.5333754963784919e+01 8.6318338010053655e+00  1.5605399541970274e+02 2.7460859782980794e+01 2.7648135744350693e+01  1.7006386878958671e+02 3.7554210234939674e+01 1.4921535536905633e+01  1.7308279705370961e+02 2.7882460443216701e+01 2.6606519077786924e+01  1.5163908592449690e+02 3.5732229818000654e+01 1.0241929691112285e+01  1.3310683637067146e+02 3.7532032658850177e+01 1.4844579729703421e+01  1.5185946284223272e+02 3.6073581513170659e+01 1.7098947414810752e+01  1.7702797680971804e+02 2.0494451928272458e+01 4.8586041101605396e+01  1.7493682304559621e+02 3.0267123769372400e+01 3.3416704238328812e+01  1.7206325841998270e+02 3.6932173087807541e+01 1.9844589911686906e+01  1.0621055928857051e+02 5.1271549862444949e+01 1.3420219791385207e+02  1.1889561091077464e+02 3.4765519580069778e+01 9.4786463808301932e+01  1.0121032144902121e+02 4.0606668514622399e+01 1.0414830165736022e+02  9.7774304612894426e+01 4.1413769976060792e+01 1.0393695605267744e+02  1.3313185886776859e+02 3.7256668342885582e+01 1.1063602707916462e+02  1.2670982241031288e+02 4.0572896052825840e+01 1.1263200698313634e+02  1.2063598516631167e+02 4.3304125354712625e+01 1.3820224793796254e+02  1.1659076983167992e+02 4.1298328685739214e+01 1.3313765419655684e+02  1.3912456950723043e+02 3.5265273214198103e+01 1.0350932024840665e+02  7.2694473742101138e+01 1.2949252588713813e+01 2.7002942337523994e-01  8.3725258655121820e+01 4.5282476307192354e+00 7.5191911146745172e-02  9.1788625016782618e+01 1.2265745052643377e+01 3.2073557380884083e+00  8.8586495955325560e+01 6.3769027789073673e+00 1.2999170194346119e+01  1.0681801277884178e+02 -6.5469624317516875e+00 2.6639278266620345e+00  1.1764048519677095e+02 1.0864716953776921e+00 8.716770263254