<?xml version="1.0"?>
<VTKFile type="UnstructuredGrid"  version="0.1"  >
<UnstructuredGrid>
<Piece  NumberOfPoints="7054" NumberOfCells="32428">
<Points>
<DataArray  type="Float64"  NumberOfComponents="3"  format="ascii">29.92853927612305 11.57324028015137 18.9993896484375  30.58015776772287 11.19928550220488 19.25316162191072  30.22259623998374 10.87364602760048 19.05965840782879  30.22224051946372 11.3001663751957 18.83877313103436  29.92889499664307 11.14671993255615 19.22027492523193  30.2864565243822 11.47235940716055 19.41377813931386  29.92925071716309 10.72019958496094 19.44116020202637  30.28681224490222 11.04583905956533 19.6346634161083  30.51594176280439 11.02709247024003 18.67815661363122  30.64437377264134 11.37147853416973 19.82816663019022  32.01638849884263 10.94415653337042 18.71429619226365  31.80202787269122 11.64934605648538 18.72971969087406  31.39637473887368 11.39099897307935 18.67787566138295  31.54072164357586 11.29342244496143 18.2879218038427  31.06505478830908 11.64268835655244 17.86154741542174  31.32636101742445 11.9986119680764 18.3033453024531  30.92070788360691 11.74026488467036 18.25150127296199  30.77636097890473 11.83784141278829 18.64145513050224  31.18201411272227 12.09618849619432 18.69329915999335  31.58766724653982 12.35453557960035 18.74514318948447  32.43262100219727 13.13720989227295 19.24402046203613  32.15383444298153 12.14900145605447 19.21356264117049  32.44759346171356 12.39524530193862 19.7026361229958  32.15084434672332 12.71634506008681 19.52619111567158  32.7293701171875 12.81611013412476 19.42046546936035  32.43561109845548 12.56986628824061 18.93139198753504  33.02611923217773 12.49501037597656 19.59691047668457  32.73236021344572 12.24876653009242 19.10783699485926  31.86906769124938 12.29548022790067 19.80836176930703  32.43860119471369 12.00252268420827 18.61876351303395  32.63322883210785 7.914206222199187 21.00983252958887  32.47698870959374 7.478999928712117 20.55026849680422  32.78442541267896 7.389971153052606 21.09287927808747  32.23176611289701 7.038676061591074 20.94732847654986  32.0805695323259 7.562911130737655 20.86428172805127  32.93562199325006 6.865736083906026 21.17592602658605  33.85465801853636 7.103128021119278 22.02097134617921  33.56617434999728 6.719304006548251 21.21240855932065  33.60240273618828 7.202400152328771 21.03449296574077  34.02569236264043 6.837999975154876 21.63493121911723  33.39514000589321 6.984432052512652 21.59844868638263  34.06192074883143 7.321096120935398 21.45701562553735  34.2691834791265 7.539064220751516 20.89305990489548  34.2329550929355 7.055968074970996 21.07097549847537  34.1967267067445 6.572871929190475 21.24889109205525  31.79231071472168 7.558013916015625 22.25259971618652  32.27393430437679 8.058113401208015 21.80559678171483  32.59313550578405 8.492641593424855 22.20250876818753  32.18558855688433 7.467792105024172 22.15733927949195  31.88065646221415 8.14833521219947 21.9008572184094  32.50478975829158 7.902320297241011 22.55425126596466  33.21726880186149 8.246626678466397 22.85590281574279  32.89806760045423 7.812098486249557 22.45899082927009  31.96900220970662 8.738656508383313 21.54911472063228  32.57886639904697 7.377570294032718 22.06207884279737  31.31194610307237 9.493507549785766 20.03139875654378  31.5749601689753 10.16804861127549 20.58383028467435  31.58515267668999 10.02456288703326 20.10998983488803  31.70465060527795 9.577725162602725 20.41670815586642  31.30175359535769 9.636993274028001 20.5052392063301  32.09735510748352 9.661942775419686 20.80201755518905  31.97785717889556 10.10878049985021 20.49529923421066  31.69445809756327 9.721210886844959 20.89054860565273  31.29156108764301 9.780478998270233 20.97907965611642  31.8583592503076 10.55561822428074 20.18858091323228  32.11224964391554 9.719256277710043 19.43933953679169  32.6360506375721 9.916018598284213 19.89054670935771  32.90344531414246 9.978543030356128 19.44587255848727  32.40525324695135 10.5182733864058 19.56397447478681  32.69825684998715 11.31729049510155 19.68860941278194  32.92905424060791 10.71503570697997 20.01518164735284  33.19644891717827 10.77756013905188 19.5705074964824  33.69464098436939 10.23782978300222 19.45240558018286  33.42724630779902 10.1753053509303 19.8970797310533  33.15985163122866 10.11278091885838 20.34175388192374  30.84127998352051 9.571548461914062 21.21129989624023  31.16386030151194 9.308974526448349 21.01808997606847  31.06642053558176 9.676013730092148 21.09518977617833  31.40514109661356 9.155102485148689 21.38020730843625  30.93871974945068 9.204509258270264 21.13420009613037  31.03615951538086 8.837470054626465 21.05710029602051  31.63028164867482 9.259567753326774 21.26409718837435  31.50258086254374 8.78806328150489 21.30310750832639  34.39310003752323 8.99832525772262 20.12348279985135  34.17278885814854 7.971445052333947 19.9995728088307  33.86912479819824 8.698238171725666 19.98122011925602  34.33114175832486 8.268694739237068 20.50827135237341  34.69676409747353 8.271532138330901 20.14183548942603  33.80716651899988 7.968607653240115 20.36600867177809  33.34514955887326 8.398151085728713 19.8389574386607  30.82158088684082 13.02620983123779 18.1701602935791  31.20462406669032 12.69037270541907 18.45765174153178  31.19710164933183 12.73003650089862 18.01012664210738  31.27604579925537 13.12469005584717 18.09125995635986  31.73051071166992 13.22317028045654 18.01235961914062  31.65908897910487 12.78885293002845 18.37875140431255  31.65156656174638 12.828516725508 17.93122630488814  31.57262241182283 12.43386317055945 17.85009299063566  31.58014482918132 12.3941993750799 18.29761809006006  32.67102813720703 12.9338903427124 20.30545997619629  32.27004791422821 12.61468528530654 20.05691087275166  32.55182456970215 13.03555011749268 19.77474021911621  32.84857368469238 12.71445035934448 19.95118522644043  32.9381160736084 12.85738515853882 19.01905536651611  32.55050086975098 13.09196996688843 18.74676513671875  32.66838073730469 13.04673004150391 18.24950981140137  32.94110616986661 12.29004155450648 18.70642689201502  32.55349096600919 12.52462636285609 18.43413666221766  33.05599594116211 12.8121452331543 18.52180004119873  33.44361114501953 12.57756042480469 18.79409027099609  35.03842163085938 11.91174030303955 19.31386947631836  35.2504131592157 11.58465241844561 18.8579988341524  35.43710136413574 11.92822504043579 18.86367034912109  35.40265655517578 11.79710006713867 19.26239967346191  35.07286643981934 12.04286527633667 18.91514015197754  34.88617823489929 11.69929265434648 18.90946863700885  35.1073112487793 12.17399024963379 18.51641082763672  35.76689147949219 11.68245983123779 19.21092987060547  33.5473629315195 8.384155239849729 20.59322142760951  33.58124830365359 8.994483119975275 20.33508928328556  34.07133817084448 8.684242325846682 20.73548410820483  33.74957630416575 8.370159393970747 21.34748541655831  33.25948643697485 8.680400188099338 20.94709059163905  32.76939656978395 8.99064098222793 20.54669576671978  33.05727306432861 8.694396033978322 20.19282660269024  31.42863597758886 11.19568812348696 19.51218493428536  30.71036737577304 11.60465997347901 19.23481088034623  31.10249847824679 11.51676476813762 19.0768200323938  31.02277980711212 11.71309692990365 19.41168086499038  31.0365048751151 11.28358332882834 19.67017578223779  30.61692363663538 12.23050573632035 19.3111767956954  30.69664230777006 12.03417357455432 18.97631596309882  30.63064870463836 11.80099213524504 19.56967171294281  33.94998490454929 12.12751309673164 18.45498141041411  33.49027573706882 12.35224835674141 18.38151129475249  33.89360046386719 12.52533531188965 18.53380489349365  33.9033203125 12.35282516479492 18.86756038665771  34.36302947998047 12.12808990478516 18.94103050231934  34.35330963134766 12.30060005187988 18.60727500915527  34.34358978271484 12.47311019897461 18.27351951599121  33.94026505591648 12.30002324382637 18.12122591725004  33.53694032911811 12.12693628867812 17.96893231850888  31.93737387457512 10.74988737882558 19.45143855274797  32.06431907137909 10.33170640554023 19.07681786452767  31.98530444711157 10.13743725099539 19.81396022501198  32.35732267441489 11.13072351423599 19.20145280252279  32.27830805014737 10.93645435969115 19.93859516300711  35.40256881713867 11.09335041046143 20.92291069030762  34.8694351380631 10.47096560899084 20.50416998400765  35.3747529633064 10.61207840773537 20.44373950270055  35.1563956416286 10.40201694631518 20.98693846817966  34.89725099189536 10.9522376117169 20.98334117161472  34.91022246611853 9.710683482168927 21.0509662460517  35.12857978779633 9.920744943589117 20.50776728057259  34.6510778163853 10.26090414757065 21.04736894948676  34.39193316665206 10.81112481297238 21.04377165292182  35.34693710947413 10.13080640500931 19.96456831509347  29.98674964904785 10.98838043212891 20.35658073425293  30.41959708834704 10.8208444001415 19.99158842678945  30.3155617108446 11.17992948314932 20.09237368222158  29.95800018310547 10.85429000854492 19.89887046813965  30.09078502655029 10.62929534912109 20.2557954788208  30.06203556060791 10.49520492553711 19.79808521270752  30.19482040405273 10.27021026611328 20.15501022338867  34.67066955566406 11.82977962493896 21.43370056152344  34.81762681586997 10.93198729128233 21.51420111881931  34.53130136115806 11.32045221895567 21.23873610722263  35.03661918640137 11.4615650177002 21.17830562591553  34.95699501037598 11.44131469726562 21.70916557312012  35.24332046508789 11.05284976959229 21.9846305847168  35.32294464111328 11.07310009002686 21.45377063751221  31.09025955200195 8.015859603881836 20.44436073303223  31.36288853147418 8.46811575377434 20.5120574800369  31.8617441920549 7.965032913040512 20.72709663131055  31.52362732696016 8.150722412099146 20.09892418768784  31.95699510191837 8.285585220316454 19.75348764234344  32.13437317152712 8.417289062933015 20.79479337831523  31.79625630643238 8.602978561991648 20.16662093469251  32.29511196701311 8.09989572125782 20.38166008596
[...]
<PointData  Vectors="u"> 
<DataArray  type="Float64"  Name="u"  NumberOfComponents="3" format="ascii">4.2653863267592733e+01 1.5318387129851084e+01 -1.0183215036937726e+01  9.9772949148647029e+01 -1.9730259756180619e+01 -3.7394511371233591e+01  1.1436831842828381e+02 1.4691013781345964e+01 1.7495442464379803e+01  1.0931563868349249e+02 1.7817996190190183e+01 -6.3636101211913685e+00  3.6177608055167774e+01 2.3849159947216574e+01 4.4650605610318621e+01  6.3783064002033576e+01 -3.7530446286922093e+01 -4.8502680334486428e+01  5.7418397958901622e+01 1.3806927388300329e+01 6.2047370514825033e+01  4.8805876587837602e+01 -3.3690140393732356e+01 -2.5766310352857488e+01  1.3924876997663139e+02 1.4549659364991637e+01 -1.8331060944049941e+01  8.4937934227197431e+01 -4.7353360409748511e+01 -5.8456722448187648e+01  1.3354034564905510e+02 -2.9401840386015898e+00 -8.0578163126942385e+01  1.3186193948784083e+02 -1.6580420793596591e+01 -9.8121795189810811e+01  1.3369330849909241e+02 -7.6323497562544791e+00 -7.8105128521181840e+01  1.4782746854891789e+02 9.2901580971311564e+00 -8.4505688909959659e+01  1.6627244996187920e+02 2.9713011851054777e+01 -8.7146100800285055e+01  1.3994059136562251e+02 -6.9972465355385696e+00 -1.0984213421092871e+02  1.4444810735685849e+02 1.2073440912373604e+01 -7.7819404805021605e+01  1.1907684252363208e+02 -8.6726045536182443e+00 -7.3510392437753126e+01  1.2336281465725585e+02 -2.6839737231570926e+01 -9.8750083295120163e+01  1.2827080495456079e+02 -4.6657899439197884e+01 -1.1999460710883250e+02  1.3730112862368634e+02 -1.3622711644063665e+02 -1.5570846881085149e+02  1.2612207912158878e+02 -4.9649865675687494e+01 -1.0986380522371375e+02  1.1436668962556823e+02 -8.0487783667736835e+01 -1.0890118768164606e+02  1.1345851718170019e+02 -9.3884398634267200e+01 -1.1464610053033900e+02  1.5192968396215960e+02 -9.2826652350637644e+01 -1.6826467216353109e+02  1.4386347757922621e+02 -6.6601406479663495e+01 -1.4068532231599454e+02  1.3698074877168935e+02 -7.7624596575483181e+01 -1.4539467908845518e+02  1.4063480575695974e+02 -4.6237786250837814e+01 -1.3383584848798859e+02  1.0889844726208680e+02 -7.0959708443892112e+01 -8.9167980884499329e+01  1.4302343478413079e+02 -1.9193294028053639e+01 -1.3211963385220233e+02  5.5176740581252481e+01 -1.9269363849210929e+01 -4.7944778146432597e+01  4.8699957042558680e+01 -2.1960407603401499e+01 -3.6428663553906674e+01  4.6461961378945766e+01 -1.6961319299994454e+01 -4.9604391260926079e+01  2.7387146881398660e+01 -3.0410507423354613e+01 -3.8458758713316286e+01  3.6341402650990474e+01 -3.1815473325229615e+01 -3.5783509350983827e+01  3.7247007913532777e+01 -1.6828281366059684e+01 -5.1585861632198387e+01  4.8122253030231860e+01 9.6300904842677983e+00 -5.7888312019522004e+01  4.0582875097783912e+01 -7.7951689747563417e+00 -5.5507223436348163e+01  4.9685026192049136e+01 -3.1514919764465503e+00 -5.2845186870803637e+01  4.0964028669059466e+01 4.3349183769660797e+00 -6.0023662847439930e+01  4.3859358615284222e+01 -5.1105564359825788e+00 -5.9449312266448459e+01  4.8851107609371951e+01 6.7989371064751003e+00 -5.4390112392816455e+01  5.4111895273221450e+01 6.7890965121547984e+00 -5.6361021500123606e+01  4.6169485786442443e+01 5.9326483832220704e+00 -5.8409153498127019e+01  3.7526385498104659e+01 8.4249180325176337e-02 -6.0137213293393636e+01  5.3493043428192465e+01 -4.0481990482204829e+01 -1.0401037535963290e+02  5.9037906710333210e+01 -2.5254093236699998e+01 -6.3776758896381473e+01  8.2741468663543401e+01 -9.2483529570664018e+00 -5.4569509090085930e+01  4.4695722798707266e+01 -2.7574034978185054e+01 -8.5669532154889097e+01  6.0558719120385831e+01 -3.5316065941375491e+01 -7.7886576277630368e+01  7.9896972785585206e+01 -5.7713646573101700e+00 -7.0512162256774303e+01  9.1010311521271916e+01 1.5898836945544959e+01 -4.0510323032003079e+01  7.2706083182583484e+01 6.4189269459939025e-01 -6.0631261771171147e+01  6.9595437007142721e+01 -3.2340006263059522e+01 -6.1952944774942296e+01  4.9759680893396279e+01 -1.5651747803687369e+01 -7.3771587735972943e+01  8.0347804182576340e+01 -3.3227818106383310e+01 -1.6375566957392657e+01  8.7149953240597185e+01 -4.1577190982435432e+01 -5.0446821553701312e+01  9.1798136809473334e+01 -3.1801905881052761e+01 -4.0806173535052800e+01  7.8844949255220726e+01 -3.4392042227573242e+01 -3.8898205766787321e+01  6.9500094818435343e+01 -4.5371799010477915e+01 -3.6194130357771030e+01  8.4050717909401627e+01 -3.1293782410130245e+01 -4.8728782945119825e+01  9.2777650184293819e+01 -3.2629618111322557e+01 -4.9460233367563625e+01  7.9455790061673412e+01 -4.1069668434306216e+01 -5.1391544805822690e+01  7.2636711184559246e+01 -5.2588688829430744e+01 -5.7595701787631725e+01  1.0005975686547004e+02 -3.3659305494846777e+01 -5.4853244021567932e+01  1.0845822539375801e+02 -1.2073891766825291e+01 -4.6070916837650316e+01  9.9430191849903565e+01 -1.5555444113585862e+01 -5.7257465669017265e+01  1.0642317299496447e+02 -6.5717052912814369e+00 -6.8304278373472243e+01  1.1141151988833104e+02 -1.7446377648426765e+01 -6.7340439699963881e+01  1.1530907454224541e+02 -3.1843375231727915e+01 -8.6706908732452646e+01  1.0560844605284055e+02 -2.3185144537481850e+01 -7.0987525572468726e+01  1.0996415384330346e+02 -1.3724800080813699e+01 -8.4941851209183881e+01  1.0159984599051357e+02 -9.1216975804999867e-01 -8.5239640884706702e+01  9.7974747163863327e+01 -9.5658700869339164e+00 -7.1500939407894009e+01  9.3659149619366104e+01 -1.7026686923045595e+01 -6.0744076685265114e+01  5.6668546696958913e+01 -7.6770963361531201e+01 -8.4118149437548311e+01  4.3859909496742247e+01 -5.9840133924548191e+01 -5.9871096664325748e+01  6.2034576764747200e+01 -6.4645803853022684e+01 -6.6395227988130173e+01  6.3205306302702603e+01 -4.8052701055784134e+01 -6.7575919550210443e+01  2.9562605248077357e+01 -6.4679598824871164e+01 -8.2661875241449337e+01  1.7367809949208063e+01 -6.2607033227273028e+01 -6.1606399654150614e+01  7.0329447699923563e+01 -4.2354588665262234e+01 -5.9072346560180051e+01  5.2223821371519087e+01 -4.7369656566387256e+01 -6.2975791125469712e+01  7.3820922683779088e+01 4.4580610935558855e+00 -6.7798275186053161e+01  6.8702122127555342e+01 7.0697260804589019e+00 -6.0278928356277767e+01  7.8143693438414132e+01 2.2485371583179830e+00 -6.1329198243296254e+01  6.4814077458513097e+01 5.7167891203590893e+00 -5.9067503185886601e+01  6.6525439893961305e+01 9.6757116036608632e+00 -6.6754047602434539e+01  6.5610428312818257e+01 9.0172590012970089e-01 -5.4622345944304655e+01  7.9690122877237144e+01 -2.0500886962031610e+00 -5.3054330453390499e+01  1.1369552463682950e+02 -9.2625172727196045e+01 -1.6698499128225905e+02  1.2391430798181251e+02 -5.9896095041999757e+01 -1.3412173120696210e+02  1.3162337522109306e+02 -2.6711608224505813e+01 -1.7209999320403500e+02  1.3727186628623645e+02 -1.2084481073484480e+02 -2.0124504289408804e+02  1.5806231826961732e+02 -1.1928742628517367e+02 -2.4147425726452207e+02  1.3968024155424936e+02 -7.1165974857119124e+01 -1.6072277832292673e+02  1.5623815666829574e+02 -3.4803869182937078e+01 -1.9991467598154406e+02  1.5578556957438821e+02 1.0169463289122105e+00 -1.6397394380531273e+02  1.4189978476643429e+02 -2.9345162060463288e+01 -1.4061468384202720e+02  9.4891579419171066e+01 -1.2811599923737518e+02 -7.6995361021990377e+01  1.0315298391215568e+02 -9.5083220044296866e+01 -8.7594238232749333e+01  9.0798285724943767e+01 -1.4366461527568893e+02 -1.1426064693984920e+02  1.0376886995979605e+02 -1.1716015331030060e+02 -1.0514733886112256e+02  1.6247965650482320e+02 -7.3497555211496845e+01 -1.4503586333046218e+02  1.7258958062062811e+02 -9.0922226059273001e+01 -1.7093429498860490e+02  2.0564269060241216e+02 -5.5051766083436561e+01 -2.3841975714362397e+02  1.5053486733594625e+02 -2.4702232657651233e+01 -1.5130655019639420e+02  1.6084118691318253e+02 -3.3232239878768908e+01 -1.7003984001770715e+02  1.9124281818589517e+02 -3.3408836675682394e+01 -2.1890206437111806e+02  1.7337304321749596e+02 -1.5834460347319673e+01 -1.7317603064638038e+02  9.8849024601427502e+01 1.5768207325897651e+01 -1.4420707624354577e+02  1.0477887346817214e+02 2.5399361390046224e+01 -1.4131776577729178e+02  1.1826471513200836e+02 3.8181354188528488e+01 -1.5318443030278578e+02  9.7904947079272347e+01 9.7184235781049448e+00 -1.5294602890297131e+02  9.7683390459851367e+01 2.3101300110524480e+01 -1.5274250724788314e+02  1.0854480808130855e+02 2.5774911958469975e+01 -1.3993678165903003e+02  1.1222046468069679e+02 4.6800132836994756e+01 -1.5078547502521357e+02  1.1143654320940134e+02 2.5813782400499296e+01 -1.5246016764583337e+02  7.0274743848597112e+01 -3.0212784669717490e+00 -5.1443289117725946e+01  7.9305455312289823e+01 -4.1227773773835850e+00 -5.6163656902956191e+01  6.8810838827514758e+01 1.2266640041664754e+00 -5.3501935403681564e+01  6.5074325687920108e+01 8.4175004864983083e-01 -4.6846129719843638e+01  7.3250793103079161e+01 -7.8168750372125597e+00 -4.8562713836713456e+01  7.9193515231450519e+01 -1.5921247448154244e+01 -4.7723727669052721e+01  7.9666885866160413e+01 -8.4518397994559162e+00 -4.9615650628790924e+01  1.1020699284124984e+02 -3.0270060115352386e+01 -6.3430775004902522e+01  9.9506711892102246e+01 -2.9013933314435672e+01 -5.8774049365101384e+01  1.1411077245366148e+02 -2.3725221803588987e+01 -6.8431753085267147e+01  1.0438844582557358e+02 -3.8743789910988724e+01 -7.0369362681828761e+01  9.9596558017426403e+01 -3.7072190446972783e+01 -5.7991320851114253e+01  9.4852070918791853e+01 -5.3386072219912968e+01 -8.1444222483485873e+01  1.0286643394438181e+02 -3.1918792105502973e+01 -7.8712082357117694e+01  9.1964421986343766e+01 -4.6889357046676906e+01 -6.8843810979817619e+01  1.3687194960215959e+02 2.3640014680147200e+01 -1.4758967640063511e+02  1.5208143679317149e+02 1.8908555031286838e+01 -1.6026107165412728e+02  1.4469094269756974e+02 1.9548083003066253e+01 -1.5754624328738561e+02  1.4724138782029183e+02 2.2125208672436674e+01 -1.3950693495248228e+02  1.2891797036153162e+02 2.1381281095867259e+01 -1.4673127207076612e+02  1.4242385724477964e+02 2.9343435229258795e+01 -1.4926059796642915e+02  1.4039363746747560e+02 4.3454358159257175e+01 -1.5594521278609975e+02  1.3943373566548189e+02 3.0549407009279239e+01 -1.5911724500420431e+02  1.4212738627507207e+02 3.0798361634859358e+01 -1.5710842004480079e+02  1.1435096666063825e+02 -2.0432272748853368e+01 -6.3338369505477594e+01  1.2222060463469688e+02 -7.3048366623946155e+00 -6.1088308255563561e+01  1.0260114319610548e+02 -2.2130023713387104e+01 -4.9734982510809949e+01  1.2210778970931449e+02 -1.8300449983988003e+01 -8.6513901546168270e+01  1.0838549260058306e+02 -3.1544391327450278e+01 -6.8610846017188521e+01  4.0425405539882597e+01 -2.9248524980647300e+01 -7.8855512288082977e+01  6.7883115420098392e+01 -9.8329158102691796e+00 -7.9105373176687110e+01  5.5625673688799573e+01 -1.0182508005585230e+01 -9.5573134303905405e+01  4.9220674320578851e+01 -1.4049887297577691e+01 -6.2995923579800809e+01  5.7856338476978721e+01 -2.4467196590639610e+01 -6.2003527000094131e+01  5.6782334635297197e+01 -3.4689126741518916e+00 -5.2543197667419612e+01  6.0078552104587139e+01 -3.2411718990889571e+00 -7.6538570580545368e+01  6.4069048800714697e+01 -1.1594650835776196e+01 -5.0942580929954495e+01  7.3902391615302960e+01 -2.2423322847310651e+01 -4.9699720543823560e+01  6.7126976370189951e+01 4.7930116155065781e+00 -9.9503745294096191e+01  5.7455726865746499e+01 -9.3654021123450718e+01 -9.4271317987274344e+01  5.8339513431221683e+01 -5.0392341727196957e+01 -4.2999841881229464e+01  6.2744457275009836e+01 -6.4355158632514346e+01 -6.5237613787802175e+01  -2.5143702890830442e+00 -5.3870049505591616e+01 -3.1145605251264293e+01  1.6992416705920945e+01 -7.5774623002137488e+01 -5.4105417463423564e+01  4.1513895936818708e+00 -3.6398372165839085e+01 2.4747896068056988e+01  2.2499883090145939e+01 -5.8979880102700491e+01 -1.7534617270527061e+01  5.5688199437965366e+01 -5.3197341381487561e+01 -3.2272425839087809e+01  5.3035016325185104e+01 -2.5772856754701177e+01 -2.5224101908414070e+01  6.8422543013172572e+01 -3.5203223317798518e+01 -4.2714139810318272e+01  4.7449057151537751e+01 -4.0951124374402895e+01 -5.7005218485564590e+01  3.8101793295828649e+01 -4.6912648081256357e+01 -7.7787173964022722e+00  2.4178560307810315e+01 -2.6903590728655647e+01 1.4053809192084598e+01  2.8902475475192205e+01 -3.1459406778327569e+01 -3.9486749090987814e+01  2.2015630762288254e+01 -4.9887850583545465e+01 6.7859607928528858e+00  3.9482041642465681e+01 -4.2766178144293228e+01 -1.3340092259838400e+01  4.1714400639733647e+01 -3.5436931569142629e+01 -3.1208119177075577e+01  5.8395567826279581e+01 -3.5651966695490735e+01 -3.1456485502984779e+00  8.1783554714408666e+01 -2.2019333777891955e+01 -1.7139350738713205e+01  5.9067664305700553e+01 -2.8647878929591965e+01 -4.0384295578954855e+01  6.9608747782549514e+01 -2.8946078907251398e+01 -2.1970858629155952e+01  6.2694601462298934e+01 -2.2684317163521104e+01 -3.4507713205936419e+01  6.0429904885992123e+01 -3.7805094062421432e+01 -3.2601439481629896e+01  7.8486330897907351e+01 -1.7417697257089536e+01 -1.3852513792122073e+02  8.9199722116197535e+01 7.2667944451783040e+00 -1.3041472809277806e+02  9.0190440758184295e+01 -2.3576646990152907e+00 -1.2278626745321141e+02  9.4826656222455270e+01 1.6066257167182457e+01 -1.3424561382471168e+02  9.7872898990529237e+01 1.5847349030185701e+01 -1.3706509753436950e+02  1.0023324390533055e+02 1.0574035117695859e+01 -1.3013310383377598e+02  9.4883530652225105e+01 6.8126383894591591e-01 -1.1580206842743871e+02  9.2343385382292979e+01 1.1305680973607503e+01 -1.2353894148291310e+02  9.1973054156142922e+01 2.0606866694974176e+01 -1.3065201880510051e+02  5.2814394991937633e+01 -1.8674835301519335e+00 -6.3211167410101417e+01  5.3677707875343543e+01 -5.5416065430643835e+00 -5.4066548501235218e+01  4.9565145765708351e+01 -1.9235001952308348e+01 -5.6790871036700175e+01  3.9344631918331956e+01 -1.6894953190843989e+01 -6.2114617122347866e+01  5.5166473253390137e+01 -3.5053118292388440e+01 4.4516713330366144e+01  6.8149645052384301e+01 -3.8611076204965507e+01 1.5894669237979748e+01  1.1141864195142233e+02 -1.7151100704791510e+01 4.0514818672162747e+01  6.9995838073101794e+01 -3.9006701856343795e+01 8.9085327407489014e+00  6.5357804027729514e+01 -3.8223136391785538e+01 5.8954069521792867e+01  6.7159706688730310e+01 -4.1852622740890340e+01 5.7600925800361033e+01  1.1109254463162362e+02 -1.8489116069229571e+01 7.0437143665199402e+00  1.1032792997598898e+02 -2.5043043799827998e+01 4.2678203040664513e+01  1.4904653130230665e+02 -7.6764717492548282e+00 9.9013945961423317e+00  3.4105329573356798e+01 5.7124099952652037e+00 -1.0580057760405532e+02  3.2407860945882845e+01 -1.0321522918642065e+01 -7.1581109950983944e+01  3.3544410878535587e+01 -1.4497751302821618e+01 -8.7518260535585526e+01  4.0349762077998740e+01 7.2112902094224092e+00 -7.2090828755004196e+01  2.2549169325097807e+01 7.4158397011718924e-01 -9.2332242982515481e+01  1.5644641847994523e+01 -4.8055240708269658e+00 -8.0355475547885092e+01  3.5840243578087012e+01 9.7791239462519695e+00 -6.4992557743791266e+01  4.1696330825451632e+01 -1.1487017196477045e+00 -6.4682274436114241e+01  3.2258605945511484e+01 -1.5805693453137629e+01 -7.0173037687781971e+01  8.7448136532199072e+01 -1.1198520289433759e+01 -3.6821124695063936e+01  8.8780036201845718e+01 -1.6240024359573525e+01 -4.8296716780368207e+01  8.3722945445110497e+01 -1.4805437419474885e+01 -3.9077703943153900e+01  9.7148198365479601e+01 -2.3986933727547953e+01 -3.0778901190842625e+01  1.0380155373674032e+02 -4.5886802425225909e+01 -2.5601888884579516e+01  9.8231104723043131e+01 -3.0437194838944670e+01 -4.9803668515018558e+01  8.9668259671584622e+01 -3.3451981468350098e+01 -3.6197126357235064e+01  8.8121060624929200e+01 -1.8015409835400320e+01 -5.7723032683125439e+01  1.1081318093468411e+02 -1.8616134558965079e+01 -1.2731086364290992e-01  7.2314486670800051e+01 -3.4606275786108100e+01 8.2023781813303369e+00  7.5478327061015918e+01 -4.7406549643938575e+01 6.7616855055388498e+01  2.8796725424827869e+01 -7.3595572051491914e+01 -2.0106364839023065e+01  6.3689696850614347e+01 -4.4901285669717147e+01 -4.4081059124080014e+01  5.3165219599799350e+01 -6.2622388137799540e+01 -4.6427464077808906e+01  5.8542771013650224e+01 -4.8673098112024867e+01 -1.6147496131050929e+01  4.5614459455734661e+01 -5.0519200905191738e+01 -2.6047212424507830e+01  7.0204181921476533e+01 -3.6725015478337070e+01 -2.2979857865088974e+01  1.1110804931655993e+02 -2.5579535784311194e+01 -1.1871330402489646e+02  1.0774547955866427e+02 -6.1072522691507729e+01 -1.0678940162666919e+02  1.1026013444817438e+02 -4.9654965716293567e+01 -9.6687634325228984e+01  6.3939446930226040e+00 1.0241175883740253e+01 -3.3526514579971249e+01  4.4084846387489584e+01 1.4044541308570326e+00 -6.9387787261802515e+01  3.5406622872633015e+01 1.1012576875361244e+01 -5.3499731912934251e+01  1.9086106436915621e+01 -4.4633930758023501e+00 -7.1069693777786213e+01  8.0313578391180780e+00 -2.9223355936270039e+00 -6.1418047340442776e+01  3.2683171128460266e+01 -1.4192577341383288e+01 -8.1060400613091119e+01  4.2429205436315570e+01 -9.2198514125874684e+00 -1.0102787752244143e+02  7.2062090571344527e+01 -9.9564718521380069e+00 -9.4674321051608430e+01  4.8500814906226211e+01 9.2953641058998127e+00 -7.5119293911872674e+01  5.0864955570615962e+01 1.0872730064435862e+01 -6.0737714569113415e+01  1.7857998468750458e+02 9.7005776864008144e+00 -2.1075514158631231e+02  1.8218509884577307e+02 3.8407798445554391e+01 -2.2463358741016762e+02  2.1626470240531827e+02 2.4996665238967841e+00 -2.6344530258109887e+02  1.5048994136396021e+02 7.1212193837026604e+01 -2.3322234763625227e+02  1.6329487599488237e+02 4.5757474071641298e+01 -1.8612611952974984e+02  1.6144015900333798e+02 5.3925464197759666e+01 -2.1023426885520200e+02  1.7597363198461736e+02 5.3583569890281630e+01 -2.2752410863812455e+02  1.5461461077942030e+02 7.9632472580019027e+01 -4.8650568187683980e+01  1.1706362880738844e+02 2.7664690078477204e+01 -7.4597146196315961e+01  1.7132709339962415e+02 4.5536353616939621e+01 -7.6562323651029260e+01  1.4615959931331611e+02 2.3096632859636884e+01 -1.2654755100994120e+02  1.3789205475164832e+02 -7.2431978921794533e+00 -1.1158008070488431e+02  1.5749798068061205e+02 2.0567255546012717e+01 -1.2376410710288630e+02  7.9356067984034453e+01 -4.1629997680115425e+00 -1.4058345617116874e+01  7.4391796789066476e+01 -5.1091308101848485e+00 -3.9260621778934777e+01  6.1379572915637482e+01 -1.4955658993767186e+01 -1.8099270962174831e+01  5.3020188168396807e+01 -4.7430770043167554e+00 -2.3485450984323872e+01  5.6138120359186857e+01 6.0668046476523563e-01 1.9806383439788103e+01  6.6657902438751307e+01 1.9528003105517559e+01 -3.5962381772990909e+01  7.9387319959778637e+01 2.1725789066674228e+01 -1.6967644535233575e+01  6.3239433873154098e+01 1.0774872850390658e+01 -3.1362982756415590e+01  5.6855232700469351e+01 1.0338215616308258e+01 -4.6176337403790242e+01  7.2997400680948417e+01 5.7580207783912742e+00 -4.0855966508305208e+01  5.5563394003224019e+01 2.0239634471269341e+01 -1.9250039929527052e+00  5.0380780118576077e+01 2.1874702969561891e+01 -2.6776273167445666e+01  4.4006155685196283e+01 2.2208032035325164e+01 -4.5781079197500794e+01  5.9726139855257180e+01 6.0741754657060127e+00 -8.6121439222092107e+01  4.8106870540180573e+01 -5.6982990330050720e+00 -8.7297356934220531e+01  4.1059867555905996e+01 -1.3946713049958175e+01 -9.5030591887963951e+01  4.9334493589562534e+01 1.4586875563421515e+00 -1.0828919240344757e+02  5.5489048336868414e+01 4.4995596178088775e+00 -1.0659060804899912e+02  3.4889774769619748e+01 2.6731781174612156e+01 -7.6859081630046887e+01  3.4409484004035264e+01 2.1472727435664339e+01 -6.4045165542952134e+01  3.0568712682116203e+01 2.6550647378075446e+01 -5.1336661884114079e+01  3.4024950145802634e+01 2.5287998353600980e+01 -5.6960143479414917e+01  1.0054441705376634e+01 3.1570469262269548e+01 -6.8993022663834608e+01  4.1354605704264607e+01 2.3002320029531042e+01 -8.35336239036