<?xml version="1.0"?>
<VTKFile type="UnstructuredGrid"  version="0.1"  >
<UnstructuredGrid>
<Piece  NumberOfPoints="6902" NumberOfCells="31310">
<Points>
<DataArray  type="Float64"  NumberOfComponents="3"  format="ascii">39.89416122436523 29.22612953186035 34.76615142822266  39.57429858244544 28.87908441695551 34.96179848895014  39.89416122436523 28.8028450012207 35.0991039276123  39.89416122436523 28.86724472045898 34.68060493469238  39.89416122436523 29.16172981262207 35.18465042114258  39.57429858244544 29.23796922835688 35.04734498248042  39.89416122436523 29.09733009338379 35.6031494140625  39.57429858244544 29.1735695091186 35.46584397540034  39.89416122436523 28.50835990905762 34.59505844116211  39.25443594052563 29.24980892485341 35.32853853673818  35.20320129394531 31.15176963806152 34.98698043823242  35.78186854022869 30.62848573034794 35.36204423649777  35.65476243791262 30.63173006078715 35.00452186846112  35.70763453143963 31.08512597387821 35.41756524785031  35.27743530273438 30.69512939453125 34.93145942687988  35.35166931152344 30.23848915100098 34.87593841552734  35.72899644670169 30.17508981725688 34.94900085710858  36.21206776893395 31.0184823096949 35.8481500574682  36.15919567540694 30.56508639660384 35.43510667807901  36.10632358187993 30.11169048351278 35.02206329868982  39.89416122436523 29.20315933227539 33.8904914855957  39.55580737675842 29.22599423613196 33.5510278853297  39.32341616466618 29.67837311913358 33.7279208152273  39.55580737675842 29.02936375822669 33.9251791151881  39.89416122436523 29.39978981018066 33.5163402557373  39.89416122436523 29.59642028808594 33.14218902587891  38.98506231705937 29.50457754508488 33.7626084448197  39.32341616466618 29.87500359703886 33.3537695853689  39.21745352915162 28.85556818417799 33.95986674478051  38.75267110496713 30.15358690599177 33.5653501448589  36.60728517433678 29.25747409081343 36.53578530213722  37.55909870681634 28.44723872330869 36.01881552017494  37.21403872962166 29.27731320400197 35.61190511461135  37.33993733767731 29.18651679980596 36.44587765970594  36.82644654347583 28.51819601431616 36.10872316260622  37.04560791261486 27.77891793781888 35.68166102307522  37.43320009876071 28.5380351275047 35.18484297508034  38.07258950101783 29.1155595087985 36.35597001727465  37.94669089296219 29.2063559129945 35.52199747218006  37.82079228490655 29.29715231719051 34.68802492708547  39.14582824707031 30.05756950378418 30.08444976806641  39.48553930961783 29.70931550274644 30.71921106703476  39.62931632995605 29.74368000030518 30.22620487213135  39.51999473571777 30.11679935455322 30.32323455810547  39.25514984130859 29.68445014953613 29.98742008209229  39.11137282097037 29.6500856519774 30.4804262769957  39.36447143554688 29.31133079528809 29.89039039611816  39.22069441520865 29.27696629772935 30.38339659102158  39.89416122436523 30.17602920532227 30.56201934814453  39.07691739487043 29.24260180017062 30.87640278592499  38.05136581755925 28.80908832050995 33.14409964431525  37.48494776269254 29.35742237706803 33.15791225108357  37.74341623032277 29.17675199747008 32.55607337558428  37.97295070690923 29.58659746515544 32.80545599198107  37.89453559625921 30.36410660980092 32.46681233964689  37.17699817545606 29.72508605402816 32.56988598235261  37.66500111967275 29.95426114211557 32.21742972325011  37.43546664308629 29.54441567443022 31.96804710685332  36.91852970782583 29.90575643362611 33.1717248578519  39.59898289997948 28.65161472142592 35.87948398406066  39.47096875404863 28.63120089797225 35.64444374139031  39.59898289997948 29.08835464299575 35.91276340300598  39.89416122436523 28.66059017181396 35.56986999511719  39.89416122436523 28.22385025024414 35.53659057617188  39.47096875404863 28.19446097640242 35.611164322445  39.30380457559371 29.07937919260771 36.22237739194945  39.17579042966287 28.62222544758421 35.95405773033379  39.04777628373203 28.1650717025607 35.68573806871812  35.69247817993164 30.56555938720703 34.32452011108398  36.03491725936065 30.89302686232279 34.98974878493428  35.89940088090579 30.3386249353599 34.6732917048869  36.62858226067691 30.88560324289845 34.37004136990388  36.83550496165105 30.65866879105133 34.7188129637068  38.4025989444538 28.91212310125289 31.6642667315503  39.16990228064233 28.67844554803522 31.15443607507452  38.50541648253344 28.60878308546984 31.07413237585803  38.73975816966211 29.07736245071175 31.27033475873765  38.83274305543402 28.51320619857636 31.54836804788717  39.26288716641423 28.11428929589982 31.43246936422404  38.93556059351366 28.20986618279331 30.9582336921949  38.84257570774176 28.7740224349287 30.68020040304538  38.60823402061308 28.30544306968679 30.48399802016575  35.7069091796875 29.97266006469727 34.24351119995117  36.27718209708861 29.77308225388565 34.46696721695284  36.01718156633059 30.15546510717387 34.37658645891522  35.90661638078372 30.04217527410502 34.63278724932049  35.81747436523438 30.08594989776611 33.9873104095459  36.0774748959924 29.70356704447789 34.07769116758352  35.92803955078125 30.19923973083496 33.73110961914062  36.18804008153927 29.81685687754674 33.82149037717825  36.44804061229729 29.43447402425851 33.91187113521587  34.76108169555664 31.30418014526367 35.77244186401367  35.08940604012255 31.27641087602984 36.40580291769396  34.70326987106841 31.27008067299268 36.25698531217269  34.876220703125 31.59264469146729 35.98901176452637  35.14721786461079 31.31051034830083 35.92125946953495  34.99135971069336 31.8811092376709 36.20558166503906  34.81840887863677 31.5585452191963 36.47355521268538  35.26235687217915 31.59897489450444 36.13782937004764  35.53335403366493 31.31684055133799 36.07007707505622  34.64545804658017 31.23598120072169 36.7415287603317  37.41188049316406 30.0810604095459 38.05276870727539  37.06247104579636 30.11719618851506 37.4395186840445  36.98864341013045 29.53517866739445 37.68402008719731  36.90777945749373 30.04508925089055 37.88178353019048  37.5736083984375 29.06123924255371 37.65724182128906  37.64743603410341 29.64325676367432 37.41274041813625  37.49274444580078 29.5711498260498 37.85500526428223  36.40367842182341 30.0091180922352 37.71079835310556  39.89416122436523 30.00370979309082 35.87982177734375  39.57429858244544 29.62675935897212 35.60418015704096  39.89416122436523 29.5505199432373 35.74148559570312  39.89416122436523 29.86167526245117 35.52845573425293  39.89416122436523 29.71964073181152 35.17708969116211  39.57429858244544 29.48472482833247 35.25281411395014  39.89416122436523 29.40848541259766 35.3901195526123  35.84774017333984 29.47920036315918 33.57366943359375  36.25538474706661 29.41036178324742 33.34007558225638  36.14789039281857 29.45683719370885 33.74277028440481  36.38313494058283 29.69247839839264 33.37269714572282  35.95523452758789 29.43272495269775 33.17097473144531  36.06272888183594 29.38624954223633 32.76828002929688  36.49062929483088 29.64600298793122 32.97000244357439  36.68328516006156 29.67011522894231 33.54179799653389  38.25936363629698 29.55840704481764 32.21590106391141  38.74292978698073 29.24226075822898 32.0640108762599  38.14856727035651 29.63811485552691 32.0655395355986  37.91903279377004 29.22826938784155 31.81615691920181  38.48889811288343 29.968252512503 32.4652836803082  39.08326062950766 29.57239841520507 32.4637550209695  39.15035707932964 29.21398329969153 33.211810882875  38.40201846126319 29.48133761325086 33.35472489458707  38.63440967335544 28.83232825234397 33.55198319454787  38.56731322353346 29.19074336785751 32.80392733264237  38.9179658672374 29.86299266059842 33.0145525829142  39.89416122436523 29.47288513183594 34.97162055969238  39.89416122436523 29.47318077087402 36.65325164794922  39.18961860156401 29.35864074800506 36.7409682078932  39.46585934985808 29.76013513617591 36.53255279511028  39.59898289997948 29.27627998174086 36.43781451994933  39.17068102547232 29.56323434704275 36.31711566711039  39.03755747535093 30.0470895014778 36.41185394227134  36.59078004865786 30.05111050673606 36.62692798977289  37.06951850239291 29.79127035730203 36.18452983420309  37.16427442205305 29.74137418780418 36.85201215856033  37.72126366976932 30.22527428479493 37.16823901498343  37.05301337671399 30.58490677322465 36.27567252183876  37.14776929637414 30.53501060372681 36.94315484619599  37.62650775010918 30.27517045429277 36.5007566906262  37.53175183044904 30.32506662379062 35.83327436626897  36.57427492297895 30.84474692265869 36.71807067740856  37.3537555944619 28.86792339259213 32.9279690728205  37.41827338417748 28.2884904270628 33.35201824218652  37.84063689976433 28.40242304959533 32.70459166618743  37.62990798196941 27.99575777868073 32.2650836880596  37.14302667666698 28.46125812167752 32.48846109469267  37.20754446638256 27.8818251561482 32.9125102640587  36.78518095079572 27.76789253361566 33.55993684005779  36.72066316108013 28.34732549914499 33.13588767069177  36.65614537136454 28.92675846467431 32.71183850132574  38.28673169493683 29.72536961159114 34.12668753597218  38.51912290702909 29.07636025068425 34.32394583593299  37.93607905123289 29.05312031885023 33.91606228570036  36.55209299183092 29.18061624446641 33.3118548182708  36.78733753959519 29.41625744915021 32.94178167958882  36.35943712660024 29.15650400345532 32.74005926531131  36.37074299558395 29.15881851163805 35.83287069143568  36.58990436472298 28.41954043514077 35.40580855190468  36.13420081683111 29.06016293246267 35.12995608073414  36.97749655086883 29.17865762482659 34.90899050390981  37.67627205767779 29.81110947049056 35.26064964667722  36.96355793339324 29.70442140035164 34.85504411288764  37.69273931316437 30.25139970789019 34.55179377790462  36.81903770616449 30.2183785536517 35.42766883247939  36.76303445672244 31.67391518679491 35.50335981145942  36.08778935288765 31.34642277541385 35.40279216432347  36.88837705517807 31.11206470414239 35.13185634309599  36.88731287276873 31.34597472107595 35.94871770460415  39.55580737675842 28.59097398008948 33.74030362690685  
[...]
<PointData  Vectors="u"> 
<DataArray  type="Float64"  Name="u"  NumberOfComponents="3" format="ascii">2.0246530732905634e+02 -5.1810948858705117e+01 2.6584170892646345e+01  1.7158441688208779e+02 -1.0384158163757471e+00 -5.5025990456120120e+00  1.7685794729324800e+02 2.1949003815801302e+00 -4.7529251719018828e-01  1.7555103533457114e+02 7.6108106174164440e+00 -3.2493344778880835e+00  1.8249557321827564e+02 1.4336640791938603e+01 -1.3492718002156389e+01  1.6882657978456515e+02 -9.6576282984845836e+00 3.4742362791725312e+00  1.8635371233815161e+02 -6.2942709470788316e-01 1.1114769341843882e+00  1.8166137425044735e+02 3.2980073414824127e+00 -4.7010865598992595e+00  1.6811531394195327e+02 -1.6054467259447374e+00 -8.8502948235195278e-02  1.6900303515325291e+02 7.2198831545954132e+00 -1.0989639870657189e+01  1.2471733669733698e+02 1.5432123968581598e+02 -3.4761871321313424e+02  1.8400819096060309e+02 5.5983398648901428e+01 -2.1623692403079838e+02  1.6029081134790687e+02 7.1612194053218758e+01 -2.2010407642108981e+02  1.9382565134092806e+02 8.5669798686636312e+01 -2.4837327523299658e+02  1.6911497389000778e+02 9.9670652731711598e+01 -2.5746187972348542e+02  1.4749291121439373e+02 4.5877794603534497e+01 -2.2359269668576957e+02  1.4529939593413781e+02 5.3545564282674334e+01 -1.9449965845585439e+02  2.2715300596034365e+02 6.3821649552287042e+01 -1.9153019424273919e+02  1.8320558948834679e+02 5.3919562243686194e+01 -1.7966162259796081e+02  1.4775936409745012e+02 5.4188116978003855e+01 -1.6506681777541056e+02  1.6054623380545934e+02 -1.7628194293174431e+01 -2.1316360718222903e+01  1.2366379263156314e+02 -1.2360155098180080e-02 -1.8480339034405297e+01  1.0742781429572132e+02 2.8474156736581384e+00 -4.4345899502945777e+01  1.3688350948879594e+02 -8.4548266466279092e+00 -1.7651388968728011e+01  1.3475719137424875e+02 2.2746093169894732e+00 1.8196681944938874e+01  1.1011086015990813e+02 2.3905104013335263e-01 6.5700291364226515e-01  1.1645187925947617e+02 1.1121068959437544e+01 -3.3411685173703390e+01  1.0533424457725494e+02 7.3780270487614219e+00 -2.2144389189735396e+01  1.3404255043381315e+02 4.6191320582994670e+00 -2.3061783254966947e+01  1.0039993858480766e+02 1.7964350621581499e+01 -3.1272256197831872e+01  2.2982829495869058e+02 2.5708979200879757e+01 -1.3648828611385724e+02  2.1346367700239767e+02 3.5399409628342845e+01 -7.4564193590649097e+01  1.8836370024642389e+02 3.7941041995545511e+01 -9.6584902552167236e+01  2.3600073678439327e+02 3.3313836957698257e+01 -9.2679149274920263e+01  2.1215254709098116e+02 3.8905620003691247e+01 -1.1091630821825575e+02  2.0575535691836922e+02 5.0509316653619969e+01 -9.0066417148998525e+01  1.7855229613663730e+02 4.1358433207706945e+01 -8.1635104784963985e+01  2.2139615823297183e+02 2.8961130648670832e+01 -5.1568601472749066e+01  1.8265143321229371e+02 3.2105324189909659e+01 -6.2050540589256897e+01  1.4733675238180143e+02 3.4133573457557546e+01 -6.7091520083968405e+01  2.0176669179081561e+01 3.6586211941088096e+00 1.4288235794019855e+00  5.3082677616667993e+01 4.7436070070086336e+00 1.3403911921572240e+01  1.0389569819101830e+01 1.2407247591050234e+01 4.0765906005867279e+01  3.7167484878355445e+01 3.3742772018577050e+00 2.2763705591705982e+01  1.9019837905663056e+01 -4.2642957817227367e-01 4.9481343132850339e+00  3.7463610632033877e+01 3.4844076388626681e+00 4.2663613595095606e-01  1.0558028590344520e+01 -6.6526023037596440e+00 1.3103718206191319e+00  3.4795326018167422e+01 -2.1061635651553754e+00 2.4916188843112255e+00  8.5405358368131971e+01 4.6430144770877275e+00 2.4301497298562211e+01  5.4217247096913994e+01 1.7039347105415943e+00 -7.8815327260211712e+00  1.0572841341693605e+02 2.5455133517985104e+01 -5.4303333790573419e+01  9.0702040772851376e+01 3.4317811394317502e+01 -6.6614057843799472e+01  8.0944364075855290e+01 2.4240963003186785e+01 -5.4310238198396220e+01  8.5244824278208796e+01 2.2970021335375769e+01 -4.7219592224378111e+01  6.7404789929981561e+01 2.0143778401108786e+01 -3.7520459027126556e+01  6.3218388808170673e+01 3.0943655217765958e+01 -6.0221557930038117e+01  6.4059565361696571e+01 2.0230502484185802e+01 -4.2259242339943505e+01  5.9916140546113795e+01 1.9443591252227851e+01 -4.8118185330438934e+01  6.8198599650076545e+01 4.1819560658502553e+01 -7.9388370731984040e+01  1.9784480034526484e+02 4.7694404109407973e+00 -7.5563383202893135e+00  1.9211803432920630e+02 6.4635170711389822e+00 -1.1050806978584705e+01  1.9143599643897224e+02 5.1380614428663138e+00 -6.6346430245770547e+00  1.9019821201330544e+02 -1.8675748541303833e-01 -1.4033919400887130e-02  1.9638026189614993e+02 -6.5667922463189810e-02 1.0327501954423028e-03  1.9831813929461796e+02 7.2900537123318276e+00 -1.1545976001647752e+01  1.9822236937298766e+02 1.1743870435498325e+01 -1.4531677138749394e+01  1.9998970782640700e+02 1.2243019588497241e+01 -1.8352910820911156e+01  2.0172808889155110e+02 1.4529897952145715e+01 -2.2799703208160643e+01  5.6745188981443228e+01 8.8538548635528883e+01 -2.0494330091870847e+02  1.3703309874753981e+02 7.2895696181062064e+01 -1.8282609046707765e+02  1.1818890562279321e+02 7.0557934621670952e+01 -1.8003965944058777e+02  9.6742887853956617e+01 5.8211403409652299e+01 -1.1496964027749414e+02  1.2679936650008622e+02 5.5439024676718738e+01 -1.1291883553372300e+02  6.8945805045475311e+01 9.3589281286403843e+00 -3.2449902346761654e+01  6.4589982306645325e+01 1.3188920153098342e+00 -1.1581296352158539e+01  5.7727355643552727e+01 4.4986037996192607e+00 -2.7051450611214790e+01  6.1758142250873597e+01 5.0046939208483412e+00 -2.0499740154260110e+01  7.2162152601187344e+01 5.9174087778097242e+00 -2.4051685556208398e+01  7.4478863870196790e+01 2.9535837694597595e+00 -1.4743102700192546e+01  6.0406522466161604e+01 1.8389465379443874e+00 -1.8840410286082129e+01  5.0079231547336988e+01 5.7100080025451327e-01 -1.5469745734027232e+01  4.7445015879874845e+01 4.2200558400953048e-01 -2.2181908577403831e+01  1.1250086363781692e+02 7.7849395202807742e+01 -1.7502102306447506e+02  1.1840625810344999e+02 5.7458744708221374e+01 -1.3803311070247298e+02  1.0102727765338234e+02 6.9455902379570588e+01 -1.6085303047567314e+02  1.2204843089854722e+02 6.1965346251588848e+01 -1.6816203875701208e+02  7.8848606067249321e+01 9.1795101209954666e+01 -1.7298550527980251e+02  9.7130297218475505e+01 7.0762847016942004e+01 -1.4341664703924863e+02  3.3513262197993285e+01 7.4598153521958977e+01 -1.4835733494529228e+02  7.6108698308901609e+01 6.7551886189787041e+01 -1.3445214272613759e+02  9.7753393871405493e+01 5.9524215597577246e+01 -1.1781899826996663e+02  4.7168239544384545e+02 1.4388185065168523e+01 -3.8069883981594683e+02  3.5866166160881482e+02 -3.3279489877735124e+01 -2.6890576353274116e+02  4.1369061234504107e+02 -7.6585766663798978e+01 -2.4471940187805859e+02  5.5513566361053256e+02 3.2686810685361394e+01 -4.4147815253866008e+02  3.2214048111808927e+02 6.4762427712955017e+01 -3.4836245585736651e+02  5.0482836140033032e+02 -4.8131249683331143e+00 -4.3763851728355382e+02  4.0986179400130482e+02 -8.2597582924286414e+01 -2.7349459320709440e+02  3.5593731846401562e+02 6.0027652476954032e+01 -3.6587282521319179e+02  3.0312606080302317e+02 5.1026467469482000e+01 -2.8716558642412105e+02  3.5176219692591383e+02 -9.1907695595475758e+01 -2.1038166384956477e+02  6.0426281130890709e+02 1.1964326169090255e+02 -2.1627604761883080e+02  3.4343020208797753e+02 3.3627971432292682e+01 -1.6582565294117751e+02  3.1570115987320031e+02 2.7584273198624263e+01 -2.1333508409343645e+02  3.1680456653425182e+02 -2.3698207000841127e+00 -2.8029744129883693e+02  4.0179274431225861e+02 2.3160466848032495e+01 -1.0486201110223035e+02  3.4966170352844807e+02 4.0082278785480476e+01 -4.4805131693373220e+01  5.8184040902872516e+02 9.5777267722665286e+01 -1.8941358377065970e+02  2.7416260599522661e+02 -1.3798211910841916e+01 -2.0823367880616010e+02  1.7376167306436338e+02 2.3408288665236480e-05 2.7878853337328344e+00  1.7456157701595259e+02 5.6630861163398984e+00 -2.4535882108971632e+00  1.7854722873264936e+02 2.2570799148580753e-01 -3.5388801732397117e+00  1.7639822026420819e+02 2.0990099990212134e+00 -4.0385854983486240e+00  2.0246489934848375e+02 -9.0770448795052996e+00 4.7222391790296165e+01  1.6994164972723354e+02 -3.3196184696922151e+00 1.0101552284156309e+01  1.8557957914804055e+02 6.1744792487052547e-01 -6.4321966627894200e+00  7.0625494466687172e+01 9.1598285732921255e+01 -1.5784681336758851e+02  6.0690107220620853e+01 6.6711448944972744e+01 -1.1547052550670054e+02  8.3501603437708383e+01 7.1458193655929193e+01 -1.3254357181721022e+02  5.6932473221202599e+01 6.1685069620520267e+01 -1.0803240070491758e+02  2.8733463052147862e+01 8.1475428734975381e+01 -1.2442324056903169e+02  2.8556698349396413e+01 6.4305573044299933e+01 -1.0277981327301623e+02  5.0700886498854821e+01 5.1632369306843515e+01 -8.9778461220854922e+01  7.9953490977840985e+01 5.2010558245351476e+01 -9.9229574378849037e+01  7.4667607589677644e+01 1.4818622449004339e+01 -3.5213178829252286e+01  7.8487282150593586e+01 9.3831032378675019e+00 -2.5132832633351271e+01  7.0380008168448811e+01 1.4138308895036939e+01 -3.5060720119226879e+01  6.6126344479043823e+01 1.3467293146315464e+01 -4.1486938736811247e+01  7.8301018234354117e+01 1.4235056842432224e+01 -2.9617230526703349e+01  8.6541715815004991e+01 8.2213442108532231e+00 -1.8744111924348683e+01  1.0972127007603913e+02 8.3542756192144640e+00 -2.3620503627359287e+01  1.0357822523655636e+02 2.0363902637599910e+01 -4.2606768309826464e+01  1.2163239591616926e+02 1.7021129910143074e+01 -3.8836512245133449e+01  9.5431923486985340e+01 1.5341221034929754e+01 -3.4995955940184359e+01  9.4724292915070720e+01 1.2352688915412317e+01 -2.5943694182630558e+01  2.3122297878222062e+02 -6.0794997638263816e+01 6.7514526109739222e+01  2.0276895192519135e+02 8.0104298492077186e-01 -1.3174443704330707e+00  2.0258980917470635e+02 1.9028567976263954e+01 -1.7015295047367051e+01  1.9003743209752281e+02 1.1862306794260435e+01 -8.1362159787544908e+00  2.0031831517697501e+02 7.1920527202349582e+00 -7.3489286304765464e+00  1.9155552831766289e+02 1.6742027543155686e+01 -1.4679138410754796e+01  1.8533945386994208e+02 2.3462165411731011e+01 -1.4112412691405327e+01  2.5674647348970626e+02 2.8454869960994223e+01 -1.5561201599471002e+02  2.2168143001347468e+02 4.0471950524257743e+01 -1.1158655097401692e+02  2.7219054747999496e+02 3.8867206435658112e+01 -1.1352316592813550e+02  2.9650825886142360e+02 6.6070874323025720e+01 -4.9572963570597182e+01  2.3761689702669125e+02 5.8825571247950840e+01 -1.1421363509125514e+02  2.9176105805479898e+02 5.6841515241171777e+01 -1.1772309910901919e+02  2.3308170588646581e+02 5.2114974242734732e+01 -7.2567409442864928e+01  1.9356504631564806e+02 4.8270666523484778e+01 -8.0995379629925452e+01  3.0250245730362622e+02 4.9013793704751798e+01 -1.7912443495078503e+02  9.2194316313614038e+01 3.6073762522195700e+01 -7.2437936930409492e+01  1.1786704655569926e+02 4.1493415916892111e+01 -7.9881323615089244e+01  9.7562379729310990e+01 2.6040296257617111e+01 -6.1089117214708800e+01  8.6937585547323849e+01 2.3537980834656089e+01 -7.0674471007659676e+01  8.3049914085032441e+01 3.5230352085753445e+01 -8.1318160375660810e+01  1.1095474641550776e+02 4.2996097857491755e+01 -9.2211844166256682e+01  1.3735026675738391e+02 6.5539736435161103e+01 -1.0576388715568942e+02  1.0243998358246547e+02 5.7794386026068828e+01 -1.0268539539218592e+02  6.9453707470529068e+01 4.8720256215321378e+01 -9.0315428112405300e+01  1.2220255316481263e+02 2.6530418282227529e+01 -4.7719641517230798e+01  1.3784391200565474e+02 2.0340025977792173e+01 -4.2653899548555117e+01  1.2498437954530338e+02 3.0919072085129912e+01 -6.0795208147223484e+01  7.9153740417346867e+01 5.8535620433746708e+01 -1.0266451808683696e+02  6.7209223727696624e+01 4.5753235772527667e+01 -8.3176571386864907e+01  5.2121892099750909e+01 5.7318769937736370e+01 -9.6067585156579426e+01  1.9069222335159472e+02 3.5828310595714669e+01 -1.4054069024396992e+02  1.7795163241962300e+02 5.3521610001727041e+01 -1.1331569661174690e+02  1.4760855772959400e+02 5.2050858996423436e+01 -1.4009523678119760e+02  1.5449379294198636e+02 4.7344438117500061e+01 -1.0222281179742632e+02  1.6595378453333987e+02 3.9158613125962979e+01 -7.3814959932976123e+01  1.4538957533957583e+02 4.6753485845497202e+01 -1.0717699053232010e+02  1.2642205630058037e+02 3.9467135069608482e+01 -6.8080156479013581e+01  1.7554968892993713e+02 4.9384200457833181e+01 -1.2297648650784772e+02  1.7178143100755830e+02 9.1183553237520016e+01 -1.1724336259170113e+02  1.7265165603034171e+02 9.0855693945822594e+01 -2.0227794413842437e+02  1.4838310863438383e+02 6.4534018796449075e+01 -1.1277983805951965e+02  2.1836089007266554e+02 8.5039213890932800e+01 -1.2094528598183250e+02  1.3651062066859004e+02 3.8685092509439101e+00 -1.0531398032982594e+01  1.5047573294947128e+02 7.9082683957422684e-01 2.8106380984941604e+00  1.3471189048941400e+02 1.8986208064856114e+00 2.4570493006201657e+00  1.5394000283252316e+02 -3.1799766195757478e-01 -9.7267081651997991e+00  1.5906394781506211e+02 1.6851068777033699e+01 -8.3358060850132809e-01  1.3424105339557002e+02 -4.7962809544703716e-01 -5.8211539307742732e-01  1.5203128270121778e+02 -3.1090906148665038e+01 -9.5745103064013914e+00  2.5872284301437179e+02 -8.6521139641690070e+01 6.2673755426292646e+00  1.0333656195907082e+02 4.7738601277074729e+01 -9.3241292338709258e+01  1.2688738306661644e+02 4.5556412493158462e+01 -9.1663175512050998e+01  2.9237970794659168e+02 1.3367835441925715e+01 -5.6087978682486586e+01  2.0937406776675280e+02 3.3142232835877941e+01 -4.0503570151340845e+01  2.2700107686565312e+02 -2.4003381496870153e+00 8.0564968078801709e+00  2.1821876657654204e+02 -1.0178066360371250e+01 1.6779097167173088e+01  3.4434210853025371e+02 5.3504966077735027e+01 -6.2981650578134783e+01  2.2342004605734644e+02 1.7864534992168601e+01 5.4769069473598151e+01  1.6682841750838404e+02 3.1498607375039644e+01 -1.8422330837970144e+01  7.5851812186247571e+01 2.1083263503903780e+01 1.5224777139509559e+01  1.7273369031778870e+02 1.3293357871141817e+01 4.9618308994420573e+01  1.1262598137343709e+02 1.9792040188570056e+01 -1.1448493727891554e+01  8.2368604389367917e+01 4.5537509229727874e+01 -1.5867932714111191e+02  1.0726585362286964e+02 6.3296934410150982e+01 -1.4358353240718287e+02  1.0250699103377930e+02 6.0392963328182127e+01 -1.4622706297325598e+02  8.9330075596213106e+01 6.9022312971872609e+01 -1.4228226521494267e+02  8.9285493670143964e+01 8.6732717631746340e+01 -1.3958010314223722e+02  9.7763861474592588e+01 7.1762782175208002e+01 -1.3174607519169922e+02  9.4978168985799613e+01 7.4186683904230435e+01 -1.3940351800499573e+02  3.0870729060870690e+02 1.8185139167435815e+02 -2.7946719850430077e+02  2.6934311990624974e+02 1.0632376213867583e+02 -1.5883488364855549e+02  2.9982157434515159e+02 6.6672701092425839e+01 -2.1092226002173950e+02  2.6270142800760090e+02 9.8986216370130151e+01 -2.3033494916438258e+02  4.3033469842233217e+02 1.4498077072559317e+02 -2.7893830938538929e+02  3.0182201989307265e+02 1.9024494112538886e+02 -1.5519983817064664e+02  4.4744597159061362e+02 6.6507161216486963e+01 -3.2727867648318238e+02  3.7322038899180524e+02 1.8518649338997352e+02 -1.7210690143641344e+02  3.0972643592758845e+02 1.7391494667118340e+02 -7.7555298009790903e+01  7.7925041367774943e+00 7.1147144179972287e+01 -1.1086218578014463e+02  2.2648670426505659e+00 4.9323941974111364e+01 -8.3838441267847386e+01  4.0230416174592179e+01 4.7356832396570368e+01 -8.5225780836489648e+01  1.8589538513491807e+01 5.6199796831939743e+01 -9.4774265988576389e+01  1.4844412105933668e+02 3.5069780363425518e+00 -1.1304714815773506e+01  1.6580047607723921e+02 9.9954458411585225e+00 -2.0329876977354633e+01  1.6087714521754947e+02 8.9023694524649422e-02 -9.6514774132746119e-04  1.5688264181920030e+02 -2.0481035121587279e-01 -1.4504327716694046e-01  1.5189785843767308e+02 1.5054352267399583e+01 -3.1130302823102383e+01  1.6252169949797010e+02 1.0866189062854110e+01 -2.1085953159331673e+01  1.6874562263750536e+02 2.2751601358269944e+01 -4.2332554379746689e+01  1.8555153579854294e+02 6.3017656525173456e+00 -5.5798773973348794e+00  1.9264616847044707e+02 8.8742037651887234e-02 -2.9922193926210816e-02  1.8400422403168508e+02 -6.2506984049821482e-02 -2.5324501141758859e-01  9.8997676822749924e+01 4.3493135761105002e+00 -1.1420778665953236e+01  9.6532862178150381e+01 4.4534029901382963e+00 -1.1179804051231766e+01  9.7639554750894774e+01 -5.5255200271936963e-02 -3.1345116893928959e-01  1.1120759088695596e+02 -6.6804154995039507e-03 9.2734880318961141e-02  8.9778461659993710e+01 -4.3606628609435122e-03 4.9563660212996290e-02  8.8860864344491787e+01 3.8543496583380605e+00 -9.6657950316310988e+00  1.0038787339023592e+02 6.5737119645552414e-02 1.8848995642087654e-02  1.1304106959701210e+02 -2.3936691163899357e-01 6.7949064233713108e-02  1.7382053339327024e+02 1.4819381941250316e+02 -2.2406411342476812e+02  3.2586077343567973e+02 8.1954123780172509e+01 -3.0772220166007781e+02  2.0232721927168697e+02 1.0278801719736305e+02 -2.5899171081281736e+02  2.5855434570601102e+02 6.2949250909552298e+01 -2.4161137993920758e+02  2.4066306055340274e+01 2.1120655303790322e+01 -2.9364477933994973e+01  5.1334594406776368e+01 1.2288131407333172e+01 -3.6685622777328796e+01  4.6344676608358860e+01 1.9949615866409001e+01 -4.2009020711183091e+01  4.0934572933747631e+01 1.5508186607297842e+01 -2.6746115321649309e+01  2.6315478531989172e+01 2.1314350472881298e+01 -2.7523313585235623e+01  3.9877918910855755e+01 2.1705953504338996e+01 -4.8431217472610662e+01  5.1395625160998250e+01 1.3173951829900229e+01 -3.8488585988059882e+01  5.2060134468500301e+01 2.0283676066817961e+01 -4.9652820290604453e+01  4.7300956202996389e+01 4.9072715105161757e+00 -2.3294946462359267e+01  8.6339349400999225e+01 1.7379253584752348e+01 -4.3413309832600994e+01  2.3963759704601384e+02 3.7758860475816213e+01 -5.0489272684225689e+01  2.7555210190438720e+02 3.6281963520739673e+01 4.7942357078789994e+00  2.7086193401143225e+02 2.7328743181481762e+01 -4.5505377474569556e+01  2.3751158145677641e+02 2.6034245566328043e+01 -1.1277656153705566e+01  3.0550183394067386e+02 1.1487876502117324e+01 5.1091363027756003e+01  1.1033143330715244e+02 4.0744334305485495e+01 -7.8796699522775285e+01  2.0885578885384518e+02 1.1651399979651050e+02 -1.5510690605283867e+02  7.9503087505252893e+01 -2.0994725787347093e-01 2.1658362627641869e-01  6.8078839374257555e+01 1.4914147156780975e+00 -5.9710214201748508e+00  7.7266225567508016e+01 1.5941909221859800e+00 -6.8527825599225016e+00  7.5634122442024776e+01 4.5520701957899208e+00 -1.6087888611994142e+01  2.7165274237255591e+02 2.1982380288411917e+01 2.4399069569800940e+01  2.0433531095920944e+02 1.7395687636286350e+01 1.2227257433286205e-01  2.2279827291672214e+02 1.8609722189957573e+01 2.2661788381340053e+00  2.4627519607479221e+02 2.4420392291423141e+01 -3.0820141740969891e+01  2.4613906544149549e+02 7.1543986965722954e+00 3.7683820810636298e+01  2.1254455133262968e+02 1.4092981296693297e+01 -1.8176683132029087e+01  2.1834455822241958e+02 2.1999332621830746e+01 -2.6408373234688774e+01  3.6946713465005224e+01 2.0256687782122058e+00 -2.7205140638682138e+01  4.1591143712844016e+01 1.2083356563411318e+00 -2.5584643229374002e+01  4.3202008724025916e+01 2.0420840156494844e+00 -2.0326620737739763e+01  5.0329462366423762e+01 4.9713259838638875e+00 -3.0702583336326988e+01  4.9169953588667646e+01 3.0780936406941695e+01 -5.6275035643863163e+01  4.9839089784871177e+01 2.0804252387237472e+01 -4.1166635686418509e+01  1.2584517232578729e+02 5.8302993490769090e+01 -1.2991104853674631e+02  1.1271247690995801e+02 6.7657725757638403e+01 -1.3959699937668901e+02  1.1685698330816577e+02 5.0922859649612313e+01 -1.5715820652312570e+02  1.0615264933873522e+02 -3.0853637877745879e-02 7.2371495509323133e-02  8.9761959125716771e+01 2.2935008525442080e+00 -8.3448022024536712e+00  9.5760432798133721e+01 1.0900009785830923e-01 -7.0952136341144403e-02  9.1283016066912808e+