<?xml version="1.0"?>
<VTKFile type="UnstructuredGrid"  version="0.1"  >
<UnstructuredGrid>
<Piece  NumberOfPoints="6981" NumberOfCells="32494">
<Points>
<DataArray  type="Float64"  NumberOfComponents="3"  format="ascii">26.57981750704658 26.10975705909987 33.84616835647994  25.54482408203976 24.85551844338304 33.72862879439573  25.73937319151969 25.74516283037382 34.07412209872636  25.79668281341519 24.87520439658016 34.48058305410984  26.38526839756665 25.22011267210909 33.50067505214931  26.19071928808672 24.33046828511831 33.15518174781868  24.8989288759928 25.38056860164777 34.30207584097278  24.79413662977034 24.1164300999943 34.70990686527271  25.44701539477169 23.3560699602869 34.18932638584096  24.63611808990362 23.24117963802217 34.51508069551151  25.2668477919533 22.8828890043235 34.93845476549214  24.47809955003689 22.36592917605003 34.32025452575032  25.28899685490496 22.48081949831477 33.99450021607976  26.09989415977303 22.59570982057951 33.6687459064092  25.33837772797825 21.50517096410747 35.67426646148774  25.5574378767123 22.11550069822368 34.48042956267874  24.90823863900757 21.93555007007875 34.99726049361903  25.98757696568298 21.68512159225239 35.15743553054745  25.69698688092398 22.45250989835221 35.61546073336085  25.31867842465454 21.38193651858562 34.67683825559472  24.74460029602051 24.59523010253906 36.20790863037109  25.27090454101562 24.35284996032715 36.6867561340332  25.40009816494511 23.99753946756801 35.88228181780252  24.91866016387939 24.25410461425781 36.51463508605957  25.09272003173828 23.91297912597656 36.82136154174805  26.12266284173579 22.35175597069579 32.48501003978857  26.11127850075441 22.47373289563765 33.07687797309889  26.17781291714842 22.83226214520437 33.00354211836176  26.54241624447629 22.63185256420532 32.68909925817553  25.7240936529931 25.15949235124669 35.21541300641876  25.31151126449295 25.27003047644722 34.75874442369577  25.47389984130859 26.35720062255859 35.20257186889648  25.1864143586507 25.86888461210318 34.75232385493463  25.59899674715085 25.75834648690264 35.20899243765762  25.49242795892853 24.2234491925563 33.93254430654569  24.84653275288157 24.74849935082103 34.50599135312275  25.25911514138172 24.63796122562049 34.96265993584574  18.18078994750977 35.49190902709961 33.25119018554688  18.31583280282567 35.33557071721204 32.247949622805  17.87616319375584 35.25915088688978 32.65241052978742  18.0692353439855 35.76173530189951 32.36994739660717  18.62045955657959 35.56832885742188 32.84672927856445  17.95768074046124 36.0315615766994 31.48870460766748  17.76460859023158 35.52897716168967 31.77116774084772  17.57153644000192 35.02639274667995 32.05363087402795  18.86551094055176 34.78332901000977 32.86011123657227  18.21852369027684 34.90486087834486 32.45687105530011  18.82976147334013 34.82712551737534 32.10122145443761  18.79401200612851 34.87092202474092 31.34233167230294  18.18277422306522 34.94865738571043 31.69798127316545  18.44333457946777 35.99797439575195 32.97968482971191  18.37584637329488 35.45124180072015 31.41551813998521  18.52315044403076 35.13761901855469 33.05565071105957  18.93540954589844 26.75423049926758 30.36422920227051  19.29642697450466 26.7670771505823 30.05010993257458  19.34605026245117 26.33495998382568 30.10824012756348  18.98282166597194 26.81353730225466 29.98975474611218  19.24901485443115 26.70777034759521 30.42458438873291  19.03244495391846 26.38142013549805 30.04788494110107  19.56262016296387 26.66131019592285 30.48493957519531  19.12948036193848 26.00860977172852 29.73154067993164  19.07985707399196 26.44072693848513 29.67341048494275  19.03023378604545 26.87284410524174 29.61528028995385  20.07486915588379 28.99049949645996 27.51592063903809  20.33488878283742 28.95015415869191 28.14970086310981  20.01006683381059 29.21496306260748 27.79448428388688  20.11922296557668 28.8005941840215 28.08405659888862  20.29053497314453 29.14005947113037 27.58156490325928  20.50620079040527 29.28961944580078 27.64720916748047  20.22573265107134 29.36452303727789 27.86012854810808  20.16357677526957 28.61068887158304 28.65219255873915  20.05442064350348 29.02505775016902 28.36262024373741  19.9452645117374 29.439426628755 28.07304792873568  18.07826995849609 31.0513801574707 29.45578956604004  18.78518507883548 30.91594637592173 29.20883475058945  18.50119040415287 30.82365168292856 29.57269488089951  18.41178512573242 31.25512504577637 29.43052005767822  18.36226463317871 31.14367485046387 29.09192943572998  18.74530029296875 31.45886993408203 29.40525054931641  18.83470557138919 31.02739657123423 29.5474253725377  18.69577980041504 31.34741973876953 29.06665992736816  18.64625930786133 31.23596954345703 28.72806930541992  18.92411084980964 30.59592320838642 29.68960019575898  21.40394020080566 24.20462989807129 31.67447090148926  21.88328846334896 24.66775403408334 31.76121268146819  22.03175367410448 24.19327633141643 31.7323953553601  21.64745588975018 24.50264881610392 32.01378167943516  21.63977277440445 24.36973511605071 31.42190190352229  21.87560534800323 24.53484033403014 31.16933290555533  22.26758624770326 24.35838154939585 31.47982635739314  21.8909715786947 24.80066773413655 32.35309245738105  22.275269363049 24.49129524944905 32.07170613330599  22.65956714740329 24.18192276476156 31.79031980923094  18.19969886145677 30.01576788983317 29.63158627398584  18.51482434479992 29.00899592772697 30.08267737921577  18.72662905953818 29.54766852169396 29.71643072901425  18.5594521981744 29.84257547564575 30.45962411476184  17.9878941467185 29.47709529586619 29.99783292418735  17.77608943198024 28.9384227018992 30.36407957438886  18.34764748343613 29.30390288167876 30.82587076496335  18.91920553489203 29.66938306145832 31.28766195553785  19.08638239625581 29.37447610750653 30.54446856979026  19.25355925761959 29.07956915355474 29.80127518404267  22.87566856684012 24.17115734261778 34.58684820605669  23.4584875427135 23.70598365188783 34.34211978842455  23.07254336006331 23.6311657170267 34.69275353934603  22.84138833619296 23.72205915067551 34.04848178711214  23.2616127494903 24.24597527747891 34.23621445513522  23.64755693214048 24.32079321234004 33.88558070421374  23.22733251884314 23.79687708553664 33.69784803619066  22.8071081055458 23.27296095873324 33.51011536816758  23.03826312941616 23.18206752508443 34.15438712040147  23.26941815328651 23.09117409143562 34.79865887263536  17.55471992492676 30.08629035949707 27.87598991394043  17.79586422026913 29.44884227108457 27.68084136177888  17.51797485351562 30.01782989501953 27.40265464782715  17.20535469055176 29.73210525512695 27.61478996276855  16.85598945617676 29.37792015075684 27.35359001159668  17.759119148858 29.38038180660703 27.2075060956656  17.44649898589413 29.09465716671445 27.419641410607  17.16860961914062 29.66364479064941 27.14145469665527  17.48122978210449 29.94936943054199 26.92931938171387  18.03700851561151 28.81139418267206 27.48569280961733  20.53097915649414 25.8420295715332 31.39900970458984  21.08258126389157 25.84037039090749 30.72126719039472  21.03539059769284 25.80637476255055 31.33374735396894  20.75588989257812 25.49522495269775 30.97906017303467  20.57816982269287 25.87602519989014 30.78652954101562  20.6253604888916 25.91002082824707 30.17404937744141  20.80308055877686 25.52922058105469 30.36658000946045  20.98080062866211 25.1484203338623 30.55911064147949  21.26030133377683 25.4595701437151 30.91379782241377  21.53980203889154 25.7707199535679 31.26848500334804  23.18206077939163 24.08595602919609 32.90872652081912  22.34948201301287 23.93002116696474 32.32903870476725  22.92081396339746 24.13393939697882 32.34952316502503  22.9700258212612 23.64231790449626 32.52681200475535  22.61072882900703 23.882037799182 32.88824206056134  22.03939687862244 23.67811956916791 32.86775760030356  22.39869387087661 23.43839967448217 32.50632754449757  20.96952056884766 27.30533027648926 28.02199935913086  21.44091485877114 27.43105903456371 28.63654362540607  21.86132264253806 27.61024761225172 28.36701755331913  20.98557351726653 27.59097218966121 28.33914175909229  21.42486191035226 27.14541712139176 28.31940122544464  21.40598130103346 27.77016076734922 28.06961568700535  21.88020325185687 26.98550396629426 28.61680309175842  21.84244203321925 28.23499125820918 28.11723201487984  21.42203424945233 28.05580268052117 28.38675808696678  21.00162646568541 27.87661410283316 28.65628415905372  18.39876199158593 27.72493581792566 28.9318991028944  17.77812001856079 27.71234804585247 29.79970607181219  18.21186149795542 27.29427763213446 29.48546775798029  18.37173520623235 27.88477069978149 29.56993492838956  17.80514680391436 27.55251316399664 29.16167024631703  17.2115316162428 27.38009051006761 29.39144138973966  17.61824631028385 27.12185497820543 29.71523890140292  18.34470842087878 28.04460558163732 30.20797075388471  18.18483471260184 27.45411251399029 30.12350358347545  18.02496100432491 26.86361944634326 30.03903641306618  19.7529296875 26.75900077819824 31.62072944641113  19.57344553739637 27.34900715911192 31.25088335585807  20.12807440428588 27.18549792355365 31.32699462036254  19.62729912644691 27.26610558336181 31.71023762684419  19.50166856539381 27.77321038852537 31.79974580727725  19.44781497634327 27.85611196427548 31.34039153629113  20.00244384323279 27.69260272871721 31.41650280079561  20.50321912107176 27.61199506890905 31.03325979431396  19.94859025418225 27.77550430446733 30.95714852980948  19.39396138729274 27.9390135400256 30.881037265305  21.47765922546387 23.95638084411621 32.52188110351562  21.96518422865857 24.23939365165223 32.6104250288423  22.06861318643358 24.06915180443889 32.15610045637328  21.68431540207929 24.37852428912638 32.43748678044834  21.75852805204315 23.81725020664206 32.69481935190959  18.88258934020996 31.32506942749023 27.81949043273926  19.34046166513782 31.31551153827252 27.91992624578454  19.27011013031006 31.31354999542236 27.48397541046143  19.39968013763428 31.68665981292725 27.421125
[...]
<PointData  Vectors="u"> 
<DataArray  type="Float64"  Name="u"  NumberOfComponents="3" format="ascii">1.3450950168327091e+02 6.3795141461159028e+00 1.1466815369300986e+02  1.2208613811699090e+02 -1.0016098042756962e+00 9.0245648697094708e+01  1.3709160348334919e+02 3.5567293015140469e+00 9.4345433497392875e+01  1.4217143201299405e+02 4.1220553280428254e+00 8.9534803758736430e+01  1.2440085250950588e+02 4.6404080282150835e+00 1.1428279086068807e+02  1.0424568752393500e+02 2.0771939469362262e+00 1.1524012357401841e+02  1.4227517654955733e+02 -5.6469557330270845e+00 6.6209489424596157e+01  1.3474851612804440e+02 -9.1712823391697587e+00 5.3740896024495392e+01  1.2095350270004995e+02 -7.8678552448871004e+00 7.5144669606965252e+01  1.1615433639351922e+02 -1.4538675217763107e+01 5.0756174495684512e+01  1.3143074029503512e+02 -6.6676386765999105e+00 5.7405600744263424e+01  1.0276262424243683e+02 -1.6851806438185559e+01 5.0080314293031073e+01  1.1012178596306673e+02 -1.3850897605162448e+01 7.1002031738793775e+01  1.1363970853580024e+02 -1.5212402103207255e+01 9.6505743293623993e+01  1.3320761143127319e+02 -9.4367441183497380e+00 4.2344383282807662e+01  1.2175175637118635e+02 -1.0778391049588711e+01 6.4763633062651550e+01  1.1986476327218497e+02 -1.3769001303761611e+01 4.4426405096263892e+01  1.3402265048355716e+02 -4.7248681455862078e+00 5.8339226986481002e+01  1.4665673868882260e+02 -8.6482933430034448e-01 5.4814739196758516e+01  1.1696163328862860e+02 -1.2187885392261123e+01 5.5582872827150133e+01  2.3975609243058460e+02 1.8982345176662331e+01 4.2765356971957083e+01  2.0887737166607650e+02 6.4069488865911978e+01 1.0591925019114731e+02  1.7518379202827839e+02 1.6673066663637186e+01 6.4660706784582729e+01  2.6698944024711608e+02 5.0324863601014250e+01 4.0797329704865511e+01  2.5835090615107276e+02 5.0863225384180545e+01 4.6530892872605136e+01  8.2465189130153348e+01 -3.1798299926780516e+01 1.0746854411369010e+02  9.7617313854071085e+01 -2.2953624365819266e+01 1.0495369842948335e+02  8.8502610711343792e+01 -2.0837387401808218e+01 1.1336470787110750e+02  6.8978048485066196e+01 -3.9010406295821397e+01 1.2465368842448312e+02  1.6020730440660057e+02 1.7666126376317717e+01 9.6683822361591325e+01  1.5642942050083323e+02 5.1873873736486873e+00 8.2353471456150942e+01  1.8695063713098901e+02 2.7499206773840413e+01 1.3042837634046808e+02  1.7203026971979082e+02 3.5274561313783863e+00 8.3510650572752354e+01  1.6834472258728510e+02 2.3098934039859010e+01 1.1042632756819101e+02  1.2068540129226014e+02 -4.1567978507357743e+00 8.4286162774158555e+01  1.3818732029937925e+02 -7.5236269478402678e+00 6.1365964969916327e+01  1.5482018758360323e+02 1.9367148454725083e+00 7.2002674790974098e+01  1.6071300283328515e+02 -1.1198924356946178e+02 -1.2991848773884618e+02  1.8383281048852999e+02 -7.7876385793339210e+01 -9.5373633444746972e+01  1.7715174261675958e+02 -9.2428518937553463e+01 -9.4994250615496185e+01  1.7853419690902624e+02 -7.1998927584958906e+01 -1.0652794684628120e+02  1.6871954373627972e+02 -1.0333327826105780e+02 -1.3473403372397647e+02  1.9245486783944631e+02 -5.1543744144652052e+01 -9.1817731229203375e+01  1.9004586924794944e+02 -6.4786141166328562e+01 -8.5391683334445730e+01  1.8632309084685764e+02 -8.0260674712156117e+01 -7.6282084272528650e+01  1.9375907892882176e+02 -1.0787655969900864e+02 -8.5972928609806260e+01  1.8145135385412792e+02 -9.2043891994156368e+01 -8.3526270901270621e+01  1.8814468341833046e+02 -7.2675780199024430e+01 -7.3606065236078251e+01  1.7782602640521932e+02 -5.6980799491421649e+01 -7.5205552831291456e+01  1.8563743741299263e+02 -6.9251262525245068e+01 -7.8516220074375738e+01  1.5544907568540339e+02 -8.0478167848898835e+01 -1.5183985722998545e+02  1.8874058475039615e+02 -5.8820443995118929e+01 -8.6324880142856316e+01  1.7053964447578821e+02 -1.1874443672377376e+02 -1.1553188741872896e+02  1.1140205104820754e+02 4.1070625276793933e+01 5.2503174865716879e+01  1.0733672783383265e+02 3.4741918937121966e+01 6.2946228986226473e+01  1.1149239721565885e+02 5.6995517591849669e+01 6.7176018308075413e+01  9.1577976281165263e+01 3.4395897418013753e+01 5.1430993945726350e+01  1.1408461573326683e+02 2.3700545598062199e+01 7.9637026822140839e+01  1.1431196050502615e+02 5.9991622702460333e+01 5.0723146439119297e+01  1.2292530720322439e+02 -4.6241542176599104e+00 8.3086383492867824e+01  9.0740345400681051e+01 8.5117237617724683e+01 5.2590966130621581e+01  9.0254199081553040e+01 5.1113776492888192e+01 5.8421387454665656e+01  8.3385033536885331e+01 3.7268136616085279e+01 5.3071354534267577e+01  1.2806183735206736e+02 4.5880477788628539e+01 5.7056616297415800e+01  1.1040346117580971e+02 2.9635311279400444e+01 2.2741153710755153e+01  1.1188275090833422e+02 4.2464597491389895e+01 3.8218893884678799e+01  1.1202770243673361e+02 3.3481371148351769e+01 2.9620854077908820e+01  1.3590586013356150e+02 4.0304073311766395e+01 4.0813624506012097e+01  1.4127244008997286e+02 3.1636552697917708e+01 -6.0470905372624069e+00  1.1253517489720119e+02 3.6595876719430450e+01 2.1312083678127404e+01  9.9153144731141566e+01 2.4400156083549266e+01 2.7782702831497513e+01  9.9467899869840636e+01 2.9433069410161586e+01 2.5858576436571504e+01  1.0049028665888386e+02 3.5891056928961881e+01 2.3874126897823686e+01  9.0887538001938779e+01 1.0300440030030782e+00 -5.8474743116712190e+01  7.6376647766083082e+01 2.8923176015205037e+01 -2.8363770206290862e+01  8.5213777424140019e+01 8.6811992376404863e+00 -3.3611839866920775e+01  9.4517809286506690e+01 9.5905968062230311e+00 -6.8106656546022450e+01  7.1751482807843928e+01 3.9574037782362581e+01 -4.7015119072098884e+01  7.8365253149078271e+01 3.3087989697831276e+01 -6.8069106750344773e+01  8.6238718181339650e+01 1.2545101584678841e+01 -3.4899723452547711e+01  6.0401878304712312e+01 6.7729761375199942e+01 -4.9600672237010336e+01  6.2052064550766360e+01 6.3001401552118004e+01 -2.9124512626799714e+01  8.4370094412203841e+01 7.7673008207939356e+00 -1.7930017390549231e+01  2.2078901933044534e+01 -3.7390438205205143e+01 6.3072622751181882e+01  4.1464919127747372e+01 -3.1564807578307647e+01 5.5504872990150083e+01  3.7828488963024270e+01 -3.1027633761163134e+01 6.5591884573285327e+01  3.7083957900732500e+01 -3.9190038508574105e+01 4.9294081625480992e+01  2.9572098985566512e+01 -2.7956807939281095e+01 6.8542501911800500e+01  3.6658732152898537e+01 -1.9955185239977730e+01 7.0649414215800860e+01  4.3860168780309778e+01 -2.2236468045200631e+01 6.9508794333487103e+01  5.0556584009362162e+01 -3.7665456512331914e+01 4.1549076929135964e+01  4.8742953403771743e+01 -3.0150872058055860e+01 5.4831492361911572e+01  4.9852979413896065e+01 -2.2549991177868041e+01 6.5930079164172597e+01  7.6401539843108537e+01 4.5302609701117040e+00 -1.1099331057636274e+01  7.7586905186829867e+01 4.4745137087864334e-01 1.1320137587662895e+01  7.8998408657705482e+01 6.6021027021870475e+00 4.8448607820331242e+00  8.6591167354435726e+01 -9.3346527156200523e+00 -4.1630479406367611e+00  7.4343989301537334e+01 -3.8919818504745183e+00 -2.5645221784614782e+00  7.1987714246569780e+01 -9.1022323444163380e+00 2.8974382726623626e+00  8.5142602539300981e+01 -1.4696267548778216e+01 3.2506791815772740e+00  9.3816905290471766e+01 -1.9054063230500553e+01 3.0942719843464008e+00  8.7224613147957783e+01 -6.2086545705587683e+00 7.6432918034185953e+00  8.3161660939343165e+01 7.6415426443711851e+00 1.6470930600138757e+01  8.7898854978286508e+01 -3.4829716784083516e+01 1.3339777949298227e+01  9.3306912827819829e+01 -2.6406157153484330e+01 2.9271465836377118e+01  8.8722000144087318e+01 -3.1351015932794638e+01 1.6136622480729677e+01  7.4960884012506597e+01 -3.1820975300891408e+01 2.5533432657473522e+01  9.2906673455395762e+01 -2.9087741790533123e+01 2.6126882998094352e+01  9.5702766353948306e+01 -2.3439528960990380e+01 3.9980753818993598e+01  7.8225930792114525e+01 -2.6805135889006717e+01 3.8084160345511052e+01  6.0373064697507445e+01 -2.9442885579030420e+01 3.6150258399573850e+01  7.5677221583176149e+01 -2.8583348970967268e+01 2.7936066093618550e+01  8.9986260312830751e+01 -2.8086803301195367e+01 1.8468002252248660e+01  4.9458652916425855e+01 4.7202061848173244e+01 4.0936796117670774e+01  5.4132883111413122e+01 4.0765356640742759e+01 5.2799183197837891e+01  4.9266204403514990e+01 4.2511142827655895e+01 7.0199351846948360e+01  3.8062618311050791e+01 4.4830635674147054e+01 6.0904291203143501e+01  3.3497180872211011e+01 2.9665800825885608e+01 7.5761183965767131e+01  5.5115867060446000e+01 3.8558134505594836e+01 6.8836577317528892e+01  4.4996825537607066e+01 3.3982054251790501e+01 6.4215501081538562e+01  5.1550933819390501e+01 3.0141181794767011e+01 8.5926675791332727e+01  6.3393222869678418e+01 3.4968782634245997e+01 9.0562231594110983e+01  5.6029887328856276e+01 3.8972771869135599e+01 6.1398040289250062e+01  4.0845760744333397e+01 -7.1358269893745188e+01 4.5299159411649050e+01  4.4865613581606880e+01 -4.6082762467891904e+01 5.2484051163266997e+01  4.5308249435889692e+01 -4.9402066700030964e+01 4.5550769443792632e+01  2.5208120480254319e+01 -5.7770950007524114e+01 5.0251361026952623e+01  4.2129124210903271e+01 -7.8777682812807456e+01 5.6702987947339487e+01  8.1888949509747718e+01 -8.0076095885632228e+01 7.3170094185263309e+01  1.9831239874358424e+01 -6.3113310113194593e+01 5.3358762068555635e+01  1.2620541035412614e+01 -3.5262309705929674e+01 5.8542921901812889e+01  3.5827340773565240e+01 -3.7185975543636800e+01 5.4635499182086122e+01  5.2538238617300799e+01 -3.3432899449146653e+01 4.8545859816479421e+01  6.8531238595331999e+01 -2.4614138864894390e+01 5.1184224056637312e+01  4.1628850035929837e+01 -3.4224734632661509e+01 5.4409518640342370e+01  5.8038662220420221e+01 -2.4258118306536289e+01 5.7356146804129246e+01  5.3810793376332022e+01 -2.5216795430094638e+01 5.7810886514122821e+01  5.4157831277072859e+01 -3.1943085743745868e+01 4.4234287636118957e+01  3.5020607610554528e+01 -4.3608754608533005e+01 3.6409352711390973e+01  3.4191343607457270e+01 -3.2965094817206356e+01 5.2739170013485960e+01  1.5454860246147612e+02 -1.5260376168602978e+00 -1.6823568256020565e+01  8.7863128905183657e+01 4.0300437741720847e+00 1.1261095816824628e+01  6.7169022158648445e+01 6.8985189629363246e+00 1.0064150143504211e+00  1.2449494008429350e+02 1.2328964231404372e+01 7.1152064250012685e+00  8.1532187915430882e+01 -7.6820944057045892e+00 -1.1194558087626717e+01  8.9976092497467164e+01 3.3859864962283854e+00 -1.7883058056698889e+01  6.4213308042069528e+01 6.2653935010644437e+00 1.6538880796673109e+01  7.3237366939093434e+01 1.0673574766424155e+01 -4.4236881848301532e+00  9.1728715598253416e+01 1.0150471705154981e+01 2.3715554128015666e+00  1.0422624988501411e+02 1.2190013998545734e+01 1.6395960292614060e+01  6.0696021299195891e+01 2.7946021637984202e+01 4.5193505942432139e+01  5.2537551391519983e+01 9.7406485873138760e+00 2.7357483399706009e+01  5.5572803343601500e+01 2.4080491881694840e+01 4.0539864602941009e+01  6.5319417770174425e+01 1.6631057136855290e+01 3.3229785701464024e+01  4.5213885286003254e+01 2.0200872239627024e+01 3.9240168545049109e+01  2.9498884039744237e+01 9.6348856630849387e+00 3.2318853552484562e+01  3.8376083410986418e+01 1.4098059078602171e+01 3.4296563719095097e+01  7.2319588119971939e+01 5.4460824746532097e+00 2.4562461561918443e+01  6.3177933313172204e+01 1.5045772649396415e+01 3.0575765664068292e+01  4.7230570174678832e+01 2.3316064702178974e+01 3.4362011139950198e+01  1.0602375422141056e+02 -7.4584344234569372e+01 5.1465662118914494e+01  1.0085633669800458e+02 -2.6350150959298858e+01 3.9593938005276065e+01  9.4424440361018668e+01 -3.7060805155104063e+01 4.3348273459405370e+01  1.0702119094995973e+02 -3.5126021261402812e+01 3.7014777277493145e+01  9.6390894998086367e+01 -2.5382071393941704e+01 2.8734660232178665e+01  9.4835445297612921e+01 -1.6530941351518070e+01 3.0260506804684454e+01  9.3927363058364250e+01 -2.4558213864518532e+01 3.2948617969591673e+01  8.9561031451838360e+01 -2.0811047763533637e+01 3.6588909285185359e+01  9.3663955676578809e+01 -1.5489963752888574e+01 3.5350371549383141e+01  9.1855578391251768e+01 -7.9298116269469769e+00 3.0926626928712796e+01  2.9444873527119633e+01 -6.1917053370326620e+01 4.2617541689750702e+01  4.4085602909840446e+01 -4.3023890991990051e+01 4.1257377588380720e+01  3.7590558113944908e+01 -3.8091250748420080e+01 5.6274393700463840e+01  4.2191374247245122e+01 -4.5151484067907425e+01 4.1583653490436951e+01  2.6791492804035645e+01 -5.3689902791985418e+01 3.6485131750890389e+01  5.4987575722293869e+01 8.4078806731740229e+01 -3.7725494316625126e+00  5.4885328865082840e+01 5.7485363823536318e+01 -9.5437345101261997e+00  6.5026370948721649e+01 7.9854714956243129e+01 -2.9636863534196922e+00  3.2045362320252899e+01 5.6589065318407300e+01 -3.3468436122620169e+01  4.2755719149678548e+01 4.4983228119386084e+01 -1.9175869775743280e+01  2.7895514236940969e+01 6.4459280688030518e+01 -1.8900447001045926e+01  5.8524214446399796e+01 6.6038924854533903e+01 -8.7237439794819505e+00  5.8944680854246400e+01 5.1273380941725911e+01 -1.1301658501571346e+01  6.2927648748598095e+01 3.8240783395872739e+01 -1.0195189748830222e+01  3.7381099330627556e+01 1.0628431553580451e+02 1.3541604838991546e+02  9.6400544076607375e+01 6.8918827724521833e+01 1.2557921617866945e+02  7.9496188720655311e+01 9.5716663756656274e+01 1.6745073352211440e+02  1.0843709751986596e+02 1.2717403645412654e+02 1.5236389446466109e+02  2.0494059247628368e+02 4.6796212337073001e+01 1.3202582451063432e+02  1.1251347048711321e+02 5.8486304496549543e+01 1.2454132053677307e+02  1.3435869032918694e+02 6.0308076367140877e+01 1.2428767874762812e+02  1.6392305131272863e+02 9.5674700578671263e+01 1.5255078170610767e+02  1.2397657430688541e+02 8.8139264999278083e+01 1.3837434801901171e+02  1.1064229006628921e+02 4.1518848135424427e+01 1.0622922682849119e+02  7.2076871519448090e+01 4.5052496131087786e+01 1.1446530002127226e+01  6.7328360471764626e+01 5.1572942606449445e+01 -4.1029354066788803e+00  7.2047022828561836e+01 3.7046280868617529e+01 -6.1778133547662950e+00  6.7406170866086441e+01 6.1410566541836687e+01 -4.9389302167287692e+00  6.7959984441886320e+01 6.7903988694848081e+01 1.9031666584725080e+01  7.4191270203680901e+01 6.1277645444739392e+01 1.3877872985229201e+01  7.9444812221163730e+01 2.9424719595749252e+01 1.0307613400722765e+01  7.9442281255467776e+01 3.9747009587044403e+01 1.1358099372686123e+01  8.0783327856532637e+01 5.0071184875559226e+01 9.9320105392335734e+00  4.1119461939246143e+01 -5.4422357763331568e+01 1.5519226978150789e+01  5.5459535945693290e+01 -4.4337838341207224e+01 2.7359638290271374e+01  4.0618546010334654e+01 -4.5604920260915584e+01 3.4909556239092538e+01  4.3535703261983130e+01 -4.6712202601539900e+01 3.2175325807329351e+01  5.2832481576808071e+01 -5.0512118951953724e+01 1.6658090748213997e+01  4.9200808756910845e+01 -5.1372254782811531e+01 2.0508881835438864e+01  3.2944529733278088e+01 -5.9272432790121286e+01 1.8135068775234476e+01  3.1754699422225595e+01 -5.7392375875253144e+01 2.6280875792688921e+01  6.1232146833745723e+01 -4.7966496044944265e+01 1.6334335598782157e+01  7.8683808391657720e+01 -2.9500165655882711e+01 3.2762619480335204e+01  6.4224763989396990e+01 -2.7732619656746454e+01 4.4006573337140061e+01  8.1094328714727482e+01 -2.4196215977587503e+01 4.5175642641563705e+01  5.6525120153053400e+01 -1.0927218853760962e+01 6.5575837202471661e+01  5.7273269829232504e+01 -4.9178080734075280e+00 8.0701154792191602e+01  5.6275190437429089e+01 -4.0668380535980087e-01 7.6793452929826373e+01  5.2966250074565153e+01 -8.7853042834040949e+00 7.6672053814144789e+01  5.1645523537940754e+01 -6.7261955793541448e+00 9.0076452084387469e+01  5.9922157402078433e+01 1.5318767830606872e+00 8.7985001875442677e+01  6.3785059181349972e+01 7.4466419727641142e+00 8.3363363748713482e+01  1.6570519772840998e+02 4.0172013744643621e+01 1.1363310813912260e+02  1.3207872652834371e+02 -2.9312396078407222e+01 7.9949074792116065e+01  1.2872222966333774e+02 -1.0689027703507629e+02 6.6540090650805396e+01  2.1170684412535391e+02 5.7542258122235850e+01 1.3597686847763921e+02  1.3439528120041626e+02 1.3157165826713973e+01 8.0658569521299128e+01  1.6126657113481255e+02 -5.0219366295923834e+01 9.8057463558854693e+01  2.1983531502822967e+02 -4.0477042728848247e+01 7.0224147332788789e+01  1.6072714926664742e+02 1.4475204772079001e+01 7.7128267665609059e+01  1.2306837808890620e+02 1.2894356299413824e+01 6.2663623107889620e+01  7.9253194342516707e+01 5.5552031955587831e+00 2.1753891498770521e+01  8.3338138970293983e+01 -8.4615378505071188e+00 1.2306019706769296e+01  7.1046507867009680e+01 -1.7021993349854758e+00 1.3985382844283450e+01  8.8210535087780499e+01 1.9292271325602219e+00 2.5578461586565499e+01  8.5760765209981983e+01 -1.0127508189280203e+01 2.8435360869639187e+01  8.9112503837305511e+01 -6.7071446681677607e+00 2.1526056982712127e+01  8.8982829685959032e+01 -7.5530027042312522e+00 3.1931766816032411e+01  8.3438134733808823e+01 -2.2684084788409211e+00 2.3058816153835444e+01  8.1136894269333908e+01 -3.8418051063826826e+00 2.6090620637956224e+01  8.9782069587424431e+01 -8.0705686276941702e+00 2.1507143453108139e+01  9.0896477959254554e+01 -1.5360640197370167e+01 2.5201523739194702e+01  9.4167597975499234e+01 -1.4513905622762666e+01 1.6340203556600876e+01  -2.0555243180320901e+00 3.8522480649207318e+00 4.1430158693956479e+01  8.1796193789714540e+00 1.3610861731146766e+01 4.8990739675838313e+01  -3.9617775011495078e+00 1.2168595949087205e+01 5.7994564392848787e+01  -1.6143140538812588e+00 1.0305814762752673e+01 5.5906227606033191e+01  -3.1112384372957225e+00 2.4774830843432625e+01 7.6000537671580716e+01  6.4322667101617732e+00 2.1609888658707884e+01 6.4799549331789535e+01  1.7311557155947714e+01 2.2506718524786294e+01 5.4224445257451848e+01  9.0606546515820582e+01 -3.6411961028975113e+00 3.0169799678360260e+01  9.2850444420593988e+01 5.5767800504966871e+00 3.4503432945627921e+01  8.8154729801781556e+01 5.6677547011274472e+00 2.2561488866917649e+01  8.6563772996085746e+01 1.5048932430482356e-01 2.3531745972187089e+01  8.6212790129440251e+01 1.0198550973889569e+01 2.9947526664687974e+01  9.3227582743542669e+01 1.3715658933308518e+01 4.3989035646537815e+01  9.2086458406705717e+01 1.9621909409555276e+00 3.7797128885037679e+01  1.0517577248500798e+02 2.1008124075892447e+01 -4.6187159804947973e+00  1.5444197607939370e+02 3.7879771355101504e+01 -2.0084319034336325e+01  1.4668360889360375e+02 2.8971794024703907e+01 -1.4674712037541726e+01  1.1130684771495883e+02 2.0677210703080291e+01 -7.5922577354291203e+00  1.1739457388629360e+02 2.8740731543424097e+01 2.3418385368623781e+01  1.0084931721647087e+02 2.1986413442945590e+01 1.5471754642496593e+01  9.4434938898483466e+01 1.6744179939179027e+01 3.4629324577042691e+00  8.7378787974090258e+01 -2.8099670394402605e+01 2.0541885906275080e+01  8.4774914846250752e+01 -3.3305939444123865e+01 1.8539933606709646e+01  7.0222891115680213e+01 -3.4096629654231215e+01 3.0469052870409097e+01  7.3701776499249419e+01 -3.8340197195701897e+01 2.0077056378645977e+01  6.7944192660431156e+01 -3.6667044049066774e+01 2.8762092163864917e+01  7.1135906756030892e+01 -4.1201647166079781e+01 1.7491824650419215e+01  8.4276297558824353e+01 -3.6370391496319101e+01 1.5428882475968873e+01  1.0768005302959946e+02 -1.3270285638927454e+01 6.2510626974375555e+01  9.1512773005965045e+01 -1.7841309166095058e+01 5.7066335243659346e+01  9.7806895735648766e+01 -1.9512725421368629e+01 4.6036198892615069e+01  1.1501977700809761e+02 -1.7403116749551149e+01 4.5153259127014714e+01  9.5471172682954816e+01 -1.6473981432855300e+01 6.2145273446601578e+01  8.7540743605426471e+01 -1.5520528977171784e+01 7.1792509270068805e+01  7.2989411502998337e+01 -1.1259938583431216e+01 6.1269651264141395e+01  6.6772958859303657e+01 -1.6584882001881564e+01 5.7911085764319957e+01  7.2594058000937565e+01 -1.8166487523147719e+01 4.7372953343737848e+01  8.0995522561117781e+01 -1.8959286271085698e+01 4.9632979539431780e+01  9.9210658012947889e+01 6.85