<?xml version="1.0"?>
<VTKFile type="UnstructuredGrid"  version="0.1"  >
<UnstructuredGrid>
<Piece  NumberOfPoints="6887" NumberOfCells="31046">
<Points>
<DataArray  type="Float64"  NumberOfComponents="3"  format="ascii">8.566227912902832 29.49756050109863 5.828784942626953  9.153979377740189 29.02598616433573 5.582871050411303  9.156111316674515 29.47912642312479 5.826887936168749  8.885292530059814 29.1710147857666 5.932410478591919  9.204357147216797 28.84446907043457 6.036036014556885  9.475175933831498 29.15258070779276 5.930513472133715  9.7459947204462 29.46069234515095 5.824990929710546  9.501147762812316 29.75726540406365 3.102495602620155  9.998973230688147 30.27765248944184 2.566541170784502  9.63187700555636 29.79936932071187 2.158550606215954  9.239480076235285 30.29631119647537 2.545562729108265  8.977812389658254 30.8353569888871 1.988629855596376  9.737305544111116 30.81669828185357 2.009608297272612  9.370209318979329 30.3384151131236 1.601617732704065  9.762606248300404 29.8414732373601 1.214605609811753  10.12970247343219 30.31975640609006 1.622596174380301  10.49679869856398 30.79803957482003 2.030586738948849  10.53754997253418 29.93255996704102 0.1048400029540062  10.93760767722284 29.23956999149501 0.5800533522196343  10.51967564368402 29.41533502903163 0.5800533522196343  10.81506243491327 29.77077516880214 0.5800533522196343  10.66009521484375 29.40135478973389 0.1048400029540062  10.24216318130493 29.57711982727051 0.1048400029540062  9.946776390075684 29.2216796875 0.1048400029540062  10.3647084236145 29.04591464996338 0.1048400029540062  10.78264045715332 28.87014961242676 0.1048400029540062  11.09257489729236 29.60899037056327 1.055266701485262  11.20559667765683 32.1635178977555 1.998446916141631  10.46087904087978 32.95325500484742 2.270945027976341  10.89025941879453 32.69998624834741 2.582634077501271  10.40490667742991 32.54294796832798 2.004976505045836  10.77621629974207 32.4167866542555 1.686757866616702  10.34683592182732 32.67005541075551 1.375068817091772  9.975526299515151 32.79621672482799 1.693287455520907  9.604216677202984 32.92237803890045 2.011506093950041  10.08956941856761 33.0794163189199 2.589163666405476  10.57492215993224 33.23645459893933 3.166821238860911  11.19989967346191 27.73162078857422 2.23164701461792  11.368221676083 28.20530325168226 1.712414217996013  11.74560022354126 28.00034523010254 1.814356505870819  11.44633483886719 27.758225440979 1.777316987514496  11.06895629140892 27.96318346255872 1.675374699639689  11.49916505813599 27.97374057769775 2.268686532974243  11.79843044281006 28.21586036682129 2.305726051330566  11.69277000427246 27.78483009338379 1.322986960411072  11.3153914568142 27.98978811496351 1.221044672536265  10.93801290935594 28.19474613654323 1.119102384661459  9.278445243835449 31.8769702911377 0.8567929863929749  9.828260277282848 31.51912255867705 0.4736419520407806  9.771730278503551 31.80520768746123 0.849618443760265  9.57656192779541 31.90237522125244 0.4808164946734905  9.334975242614746 31.59088516235352 0.4808164946734905  9.391505241394043 31.30480003356934 0.1048400029540062  9.633091926574707 31.61629009246826 0.1048400029540062  9.874678611755371 31.92778015136719 0.1048400029540062  10.06984696246351 31.83061261757598 0.4736419520407806  10.26501531317165 31.73344508378477 0.8424439011275551  9.163186103706877 29.93969082544066 5.273435534207959  8.573302699935194 29.9581249034145 5.275332540666163  8.88267127789759 29.98580596964105 5.849423270243825  9.472554681669275 29.96737189166721 5.847526263785622  9.199114642892349 30.47405143818346 5.870061597860698  10.89425674958241 32.91018344255027 1.882392253753565  10.58291682150799 33.65684898734504 1.766337591365498  10.57891949072011 33.44665179314219 2.466579415113205  10.46487637166765 33.16345219905028 1.570703204228635  9.484455646661761 31.18127228255031 0.5815441548262716  9.427925647882464 31.46735741133449 0.957520646545756  9.921210682550566 31.39559480765803 0.9503461039130461  9.577406051929481 31.05774453153129 1.058248306698537  8.360699653625488 32.10406112670898 1.830083966255188  8.982458165414236 32.51321958280472 1.920795030102615  9.006527064071303 32.00003974699707 1.727973563114543  8.736528873443604 32.29314613342285 1.573895454406738  9.112358093261719 32.48223114013672 1.317706942558289  9.628285575860051 32.40919820309281 1.81868462696197  9.358287385232352 32.70230458951859 1.664606518254165  9.382356283889418 32.18912475371094 1.471785051266093  9.652354474517118 31.89601836728517 1.625863159973898  10.79468679792817 30.20351497269165 1.542926720217056  10.42759057279638 29.72523180396168 1.134936155648508  10.33995254337684 30.3852192631475 1.017461416283464  10.70704876850862 30.86350243187747 1.425451980852012  10.91729883845327 30.92896528893491 0.8203172227551752  11.00493686787281 30.26897782974909 0.9377919621202188  10.48266321620775 29.11249213378808 0.9930153596375239  10.32769599613823 28.74307175471983 0.5178020103718958  9.90976396259941 28.91883679225645 0.5178020103718958  9.872751535123138 28.6159938970129 0.9307640177897853  8.051908492815514 32.23964351007629 2.56414432577142  8.077942762087325 31.6173742415941 2.469824208255199  8.896543491340966 31.86226467827017 2.546862160148875  8.817957878112793 31.73331069946289 1.389945030212402  9.235156176314955 31.81466453337403 1.50790409509315  9.197681965021136 31.39552761549709 1.22409666845547  9.048201560974121 31.80514049530029 1.123369008302689  9.614880263223299 31.47688144940823 1.342055733336218  9.465399859176284 31.88649432921143 1.241328073183436  8.807096377771682 33.21958305910828 4.17566009895573  9.046637773521672 31.7027310163007 4.217592192861051  9.956512835905325 31.99993828675964 4.055667064729702  9.119741853414062 32.42002564446982 3.719650226499147  9.643867360262945 32.7994957013981 4.511676937186285  10.48063834275421 32.37940834368792 4.847693775416841  9.570763280370553 32.08220107322898 5.009618903548191  8.660888217986901 31.78499380277004 5.17154403167954  9.432387329056443 31.62046822983135 3.263640354042563  8.17194390296936 29.74515533447266 5.587149381637573  8.490890979766846 29.89326572418213 5.865297079086304  8.415554046630859 30.28897094726562 5.901809215545654  10.11070063313573 30.25029177433211 4.814447764748634  9.305616230506438 29.70740155081774 4.680428511090366  10.09937958465915 29.45782097584615 4.963157096252129  9.928347676790963 29.85549205974153 5.31971934722959  9.123263274161673 29.31260183622716 5.185700093571322  9.917026628314389 29.06302126125556 5.468428678733084  10.08805853618258 28.66535017736018 5.111866427755623  9.670006150114943 30.44960888444569 1.136426958255145  10.24735244519137 30.9933549102331 0.9392827647268561  10.03710237524673 30.92789205317566 1.544417522823693  9.303796291351318 30.59660053253174 0.1048400029540062  9.198922018660882 30.76224996260833 0.3596416155396109  9.614275932312012 31.01177024841309 0.1048400029540062  9.08102560043335 30.88963031768799 0.1048400029540062  8.770545959472656 30.47446060180664 0.1048400029540062  9.421692709578851 30.46922017745208 0.3596416155396109  8.888442377700189 30.34708024672698 0.3596416155396109  9.83704662322998 30.71874046325684 0.1048400029540062  9.006338795927721 30.21969989164732 0.6144432281252157  9.466767545934379 30.6888668169475 3.183067978331359  9.964593013810211 31.20925390232569 2.647113546495706  9.205099859357349 31.22791260935923 2.62613510481947  11.07983244862816 32.33171544186464 3.195445530680528  11.39516970749045 31.79524709127272 2.611258369320889  10.31899200335664 31.89199306379343 2.631043635092097  10.50856503319026 31.52372225731065 3.243855088271355  10.00365474449434 32.42846141438534 3.215230796451737  11.58474273732408 31.42697628478994 3.224069822500146  10.62006912028872 29.88516028547104 2.156871769386895  10.12224365241289 29.36477320009285 2.692826201222548  10.25297289515694 29.40687711674108 1.748881204818348  10.74333954201347 28.97228099612205 2.283156799824941  10.8406762256847 28.58351356633264 1.7011295922432  10.97161960773769 28.35195089234814 2.257401907221431  11.27088499241176 28.59407068147167 2.294441425577754  9.195401668548584 32.17960071563721 1.087249964475632  8.965157985687256 32.1077709197998 1.353825986385345  8.113670349121094 31.21632957458496 1.759932994842529  8.897885133885524 31.28433384417499 1.689287442904389  8.371824741363525 31.15512943267822 1.37431401014328  8.465814113616943 31.47482013702393 1.574939012527466  8.723968505859375 31.41361999511719 1.189320027828217  8.629979133605957 31.09392929077148 0.9886950254440308  9.518844127655029 32.22022533416748 0.8153354823589325  9.759243011474609 32.56348037719727 0.7738779783248901  10.01212916232313 32.14846273049102 0.8081609397262226  9.81696081161499 32.24563026428223 0.4393589906394482  11.10204982757568 27.45159912109375 3.058307886123657  11.12143890986798 28.04242920343084 3.509196361747079  10.74748674542978 28.08474192853925 3.271658404454318  10.94157402644512 27.74370407525701 3.543300351348214  11.28191471099854 27.75032424926758 3.024203896522522  11.46177959442139 28.04904937744141 2.990099906921387  10.92735162885263 28.38346705671308 3.237554414853183  10.78109822531456 28.03580902942027 4.028292816572772  8.954212188720703 31.48544979095459 0.9227440059185028  9.103692592767718 31.07583691115139 1.023471666071284  9.936022819665911 31.25074268812893 0.5815441548262716  9.843072414398193 31.37427043914795 0.1048400029540062  10.29463958740234 31.44374084472656 0.1048400029540062  10.279827450287 31.58859296425567 0.4736419520407806  10.6014112589077 28.30190283053968 0.6119711938077325  10.86032668325463 28.53244787448499 0.6119711938077325  10.85159015655518 28.37857437133789 0.1048400029540062  10.5237250328064 28.63960456848145 0.1048400029540062  10.26480960845947 28.40905952453613 0.1048400029540062  10.59267473220825 28.14802932739258 0.1048400029540062  10.92053985595703 27.88699913024902 0.10484000
[...]
<PointData  Vectors="u"> 
<DataArray  type="Float64"  Name="u"  NumberOfComponents="3" format="ascii">1.5574220196514423e+02 -9.9405389109944675e+00 1.2515892710621941e+02  1.5026179584361500e+02 -6.0387849732898147e+00 1.0876124837361884e+02  1.4189510223131023e+02 -1.9611911710700728e+01 1.0351623351191078e+02  1.4459169789261193e+02 -1.6675197490819382e+01 1.2530738274654551e+02  1.3971307392662621e+02 -2.0183762408047482e+01 1.3430293764403950e+02  1.3778974694492183e+02 -1.9471935844558416e+01 1.1045673992023768e+02  1.3742414451405631e+02 -2.2643432459360373e+01 9.0660930898014598e+01  1.4002421401161055e+02 3.2572000424059695e+01 2.7999069238320513e+00  1.3058210071539469e+02 3.2295989059574659e+01 -4.6638400998723819e+00  1.2104858409005757e+02 4.4268413809807427e+01 -9.3892686013178253e+00  1.2746583525267205e+02 3.2049541232918337e+01 -1.9665810963514694e+01  1.1404790867330459e+02 3.2337470036817209e+01 -4.2106167246485853e+01  1.1909325753830066e+02 3.2639967619828226e+01 -2.3777072245201111e+01  1.0608004736259825e+02 4.4923902994729893e+01 -2.5252227106362984e+01  1.0391471432397283e+02 5.4186010426912361e+01 -1.1522101894161036e+01  1.1538612511464402e+02 4.4456035559769703e+01 -9.7509127622008602e+00  1.2660733161404166e+02 3.4476845879089687e+01 -9.2551435680337732e+00  1.0434693778233787e+02 5.7680317444545551e+01 3.8595110630522939e-01  1.0844895830576348e+02 6.2203191087985758e+01 1.8616044869366914e+00  1.0617584360563109e+02 6.0866414814562930e+01 1.7298768706636788e-01  1.0858735380456119e+02 5.8206976385909094e+01 1.0258425749915931e+00  1.0656869542668944e+02 6.0977390892334419e+01 -2.5618826696914898e-01  1.0183185067701491e+02 6.0213473923068811e+01 -6.1052552061881087e-02  9.8140113045981636e+01 6.3986490503027262e+01 -4.5044977520552815e-01  1.0415214147054185e+02 6.4315590395754086e+01 -6.9503673769713326e-01  1.0685597301387432e+02 6.4444066312063228e+01 -9.3514821183210736e-02  1.1287540957290237e+02 5.9072978293421208e+01 5.5229343177501651e+00  1.4239665689639162e+02 2.1175024389089259e+01 -2.2257162454417241e+01  1.4148023612676539e+02 8.2529802214462700e-01 -5.6169311461141923e+01  1.5085019617832185e+02 -2.5999552508053205e+00 -4.2967114696493461e+01  1.3319737065761339e+02 1.2517607962896776e+01 -4.4991209311369765e+01  1.3177614492243870e+02 2.3077757762529664e+01 -3.3806294051495229e+01  1.2010561103992971e+02 2.6247827254358608e+01 -4.7060227257438974e+01  1.2441002143580593e+02 1.3834344659838420e+01 -6.0031724640795915e+01  1.2942578604150245e+02 8.0795800528692674e-01 -6.9668665775462614e+01  1.4264065627885026e+02 -1.2842944940311435e+01 -6.5479197645416860e+01  1.5631767081685732e+02 -3.0890709205175025e+01 -6.5463981559803671e+01  1.0977899802390999e+02 1.1829233439399650e+02 8.1484314373273161e+00  1.1748593667759081e+02 7.9834949862138586e+01 9.1960853501281843e+00  1.3058015592760324e+02 8.2692565581943299e+01 6.5942137006670984e+00  1.2620795211675916e+02 7.9865450483512262e+01 -2.0292972480163654e+00  1.1967111692092328e+02 8.2432446890031386e+01 3.3930863900040205e+00  1.2422631753948301e+02 1.0040921446512543e+02 1.7078809733553378e+01  1.2875221469204274e+02 8.8793518732562433e+01 2.7177182319550507e+01  1.2287703028692727e+02 7.3341556936481979e+01 -5.3731502892976635e-01  1.1647635719798289e+02 7.3709333788261731e+01 5.6171294695403984e-01  1.1287623861108948e+02 7.4603207764562782e+01 1.4446647995897592e+00  7.4349879841636678e+01 4.7323463697346057e+01 -5.3669361641330298e+01  8.4579490515659060e+01 5.3846333387413416e+01 -1.6871252748711175e+01  8.9260029243857417e+01 4.5810032571720171e+01 -3.7125792323010018e+01  6.5945312919031110e+01 6.1476025926027610e+01 -3.7877817799358901e+01  6.8172740860558250e+01 6.0506279797544643e+01 -3.2919361611652164e+01  6.4422123568068542e+01 6.6269369595044651e+01 -6.9225404771691839e+00  6.3405918708309905e+01 6.8481194335235287e+01 -5.4333128814037579e+00  6.7333406137061075e+01 4.7092314283114447e+01 -4.2454419988658945e+00  8.8357333963247825e+01 4.5054197826953754e+01 -1.4989445680317896e+01  1.0402579708845013e+02 4.2612412642523815e+01 -2.1188200534121382e+01  1.5113303826611423e+02 -1.5741233254466486e+01 7.0346663629694845e+01  1.6143257333983601e+02 -7.6216188526485800e+00 8.1705239754410556e+01  1.3648034071142669e+02 -3.3820656312898514e+01 9.9485993703713476e+01  1.3751654911518818e+02 -3.5873981195669806e+01 8.1910023312867295e+01  1.3505518639036211e+02 -5.3333594484189227e+01 7.0855822800525459e+01  1.4039927165556557e+02 1.4676417273737341e+01 -4.5766437418011165e+01  1.3684899489468569e+02 1.1439892785426974e+01 -7.2386041336424626e+01  1.4944678945180024e+02 -9.1612997687875080e+00 -7.0545036265119776e+01  1.2884257463661714e+02 1.8960967617233504e+01 -5.8832988111748392e+01  8.0931595321921847e+01 5.5793587363428664e+01 -2.2908128384410880e+01  8.6825388246692640e+01 4.6663520783698687e+01 -3.8825694796407070e+01  9.9131227208098849e+01 4.3704794130819302e+01 -2.4341759445819648e+01  9.6074088151377708e+01 4.5428308615761303e+01 -2.8350223514236628e+01  1.2581059798593877e+02 2.3824064277735046e+00 -7.1924571540297919e+01  1.2216323485563407e+02 1.5089027698872055e+00 -7.2760569640844864e+01  1.1203247672269279e+02 1.5471700973729963e+01 -6.9037792677941297e+01  1.1443842492513879e+02 6.7842907381770612e+00 -8.8540426968009029e+01  1.0502583497627802e+02 1.2019930137922112e+01 -8.3867366181105169e+01  1.2025132177068798e+02 1.2166360250570550e+01 -5.8706044231889599e+01  1.2018506665083649e+02 8.9404854250752877e+00 -7.1555815102976027e+01  1.0481086041044061e+02 2.0567121767018556e+01 -6.5023356733563190e+01  1.1253659678065618e+02 2.4371613777181679e+01 -4.7803083561347485e+01  1.1929039112315550e+02 4.8634893282117488e+01 7.8580724394748702e-01  1.1029936260266450e+02 5.6077523783680178e+01 -1.6065751073826033e+00  1.0865115494450329e+02 5.0259685070475406e+01 -6.6971751977737055e+00  1.1931007963129149e+02 4.2385745600239446e+01 -7.3820231549190121e+00  1.1426755335134462e+02 4.8631888135812318e+01 -4.0814027256186725e+00  1.1402298750965788e+02 5.3191268631908301e+01 1.1365427497408236e+00  1.0874088462359607e+02 6.2770708428753707e+01 1.0926203779148398e+00  1.0567531474051974e+02 6.6537195398238367e+01 -5.2771725981219553e-01  1.0018041285627945e+02 6.6435614594694442e+01 -2.5683873382104441e+00  1.0250101004471678e+02 6.9010417534962968e+01 -2.6728371103703199e+00  1.1703637714995197e+02 -3.5605881192528486e+00 -5.5872093553627160e+01  1.2341827967511142e+02 1.0506971885764465e+01 -5.8063502432732960e+01  1.2592828177682763e+02 2.0209918958894479e+00 -5.1366117872368477e+01  9.7490694958551700e+01 2.9961524774703545e+01 -7.7838457510428569e+01  1.0136831989381849e+02 2.7533297292087287e+01 -6.2209085497502471e+01  9.0770166056811519e+01 4.2621318764210088e+01 -4.8616225030357114e+01  7.5129972134771620e+01 4.8384643715841946e+01 -7.1490385805492750e+01  1.0277535458718081e+02 3.6135235793231274e+01 -3.7949473144293904e+01  9.4136694093844994e+01 3.4042034247277087e+01 -5.3274023680480568e+01  1.2937767641580035e+02 -7.1558405931378729e+01 -7.3100807385471683e+01  1.4035625725922122e+02 -3.1372405572447526e+01 -1.8354057795605275e+01  1.4951046155331196e+02 -3.7166377095586867e+01 -2.5185150684773308e+01  1.3593517139158357e+02 -3.5662736103365283e+01 -4.6740806906075690e+01  1.4821399283982893e+02 -7.3542822165611881e+01 -5.1462737068723712e+01  1.6313313269643066e+02 -7.1617862452539939e+01 -2.6525231760417807e+01  1.4816991865809035e+02 -7.1814348269186482e+01 -1.7307638865740415e+01  1.3477068840340831e+02 -6.7853366537871906e+01 -1.1751128809258249e+00  1.3787679290815856e+02 -6.1145687089286618e+00 -2.9729784671957606e+01  1.6077527317791879e+02 -3.0948071897166796e+00 1.2277747053921701e+02  1.4776762819452560e+02 -2.3629350366343957e+01 1.2274202780678348e+02  1.4089020670526264e+02 -4.1439109752245471e+01 1.0821165148057999e+02  1.4974867034934974e+02 -1.3957419777132127e+01 3.8343148698695117e+01  1.5689465240343532e+02 3.4498659570469092e+00 5.0191187500605558e+01  1.4827590887980261e+02 2.2497672256313908e+00 6.1422145429450943e+01  1.4586650492405991e+02 -1.7250611606410548e+01 6.2138555054918548e+01  1.5879157298478455e+02 1.0016714128622519e+00 8.3826352228427524e+01  1.4142280668334413e+02 -2.6474091256946668e+00 8.8700261656589106e+01  1.4335718704026536e+02 1.5426548682691129e+01 8.3935489255266674e+01  1.0072130099588654e+02 4.8952306452744722e+01 -1.8331678975602301e+01  1.0608284867321532e+02 4.6398564451944416e+01 -1.4047727586419610e+01  1.1349613137305170e+02 3.8885157885375051e+01 -1.9244040827157917e+01  7.7943576067140228e+01 5.8350833117783651e+01 2.3320719192091746e+00  7.2650706998014627e+01 6.0174238657094214e+01 -1.4011117274873879e+01  8.1601527220382934e+01 5.7074602056718795e+01 -4.6088631360585841e-01  6.1621880446551621e+01 6.9602119557142188e+01 -4.4429357861858225e+00  4.7718259702109229e+01 5.8067169336296878e+01 -9.6292568840559252e+00  8.3009061657720309e+01 5.6475563203595449e+01 -7.8316735896613450e+00  6.0449409565140797e+01 5.6788813408534168e+01 -1.7751188795382046e+01  9.0155495584295053e+01 5.4909455240952639e+01 -1.3641228340184797e+00  7.4327276922912020e+01 5.7009700913209677e+01 -2.1720333329972387e+01  1.3958682355512948e+02 1.4648959011734188e+01 -1.1517760449394103e+01  1.3376840171488286e+02 1.5170603108544681e+01 -2.1014381491696597e+01  1.2859487164529455e+02 1.5619266431854696e+01 -3.4022216515901142e+01  1.6030524218502330e+02 -1.3082880414248486e+01 -3.0284156398643116e+01  1.5321275835016689e+02 1.3901700733494703e+01 -1.1488407914554688e+01  1.3902849330721008e+02 5.5923905387659723e+00 -2.9969183333438295e+01  1.4805303492614689e+02 -2.1009077259267710e+00 -1.4637757620660555e+01  1.4376678017934543e+02 -2.1213448998978322e+01 -4.5051959459924149e+01  1.6326768994617797e+02 7.3696965479527101e+00 6.3551856616180324e-01  1.2562828126236279e+02 4.6113000874570020e+01 5.7406583919773198e+00  1.2982592985094337e+02 4.6040884308555150e+01 1.1649781250938757e+01  1.1620484383230098e+02 5.5263193386126851e+01 1.3129535953193363e+00  1.2297500950749709e+02 6.1115557907951207e+01 1.7765986082292791e+01  1.1635250040319859e+02 6.9756830218754629e+01 1.0711579777838496e+01  1.1798864571121241e+02 7.9876118420354516e+01 1.9741488147722247e+01  1.2300325521369014e+02 7.5875268007886390e+01 2.4184776554189153e+01  7.5363764626521473e+01 2.6517827218473268e+01 -7.2602201753390958e+01  9.6096272939615247e+01 1.9196482460554950e+01 -9.5450736540994811e+01  1.0804334567031279e+02 1.7496239220078923e+01 -8.2849425606883429e+01  1.0356916700469412e+02 2.9867167643688379e+01 -5.5661714933955786e+01  7.9747080741684613e+01 3.6846713336395425e+01 -7.7763380688848130e+01  1.0161036755357767e+02 2.0829229306607061e+01 -8.3529268450531660e+01  8.4159096185953260e+01 4.5935080223572001e+01 -6.7744363040414640e+01  7.4048012789510295e+01 5.1179484602724031e+01 -5.4357048340896782e+01  7.9929823661741594e+01 3.9068001174273491e+01 -6.1837139233989902e+01  8.8021938968458727e+01 3.7402858349527541e+01 -4.9586399187954200e+01  9.5574802917586084e+01 3.9742465879180870e+01 -3.0447845160842153e+01  6.1697326641372449e+01 3.7882242429203117e+01 -2.1155066086398833e+01  8.1736338004158981e+01 1.1061304992883859e+02 7.8975374611508698e+01  1.2309957612635603e+02 7.7947807002238335e+01 6.6995899707209674e+01  1.2056506188958279e+02 7.0718583365576265e+01 5.2688627563215434e+01  1.1437889496472360e+02 7.7135317759104979e+01 7.3706281926676212e+01  9.9198521799765246e+01 1.1389222371006016e+02 7.0530216628510900e+01  1.2642723421424736e+02 1.0769017692452420e+02 5.5696212973282648e+01  1.2634960146190068e+02 6.9465426486693303e+01 4.8195295515953539e+01  1.3074694943908571e+02 5.5633363363619409e+01 7.2886928788814444e+01  7.5452905242258780e+01 5.4143651252670779e+01 -5.3450329123583245e+01  8.5530842716057833e+01 4.8736394388120026e+01 -4.0684557639116065e+01  9.2892385047821421e+01 5.0215016721109869e+01 -1.4522238685161948e+01  8.3878660884613325e+01 5.5772178192179439e+01 2.1316251007816980e-01  9.7392127180513327e+01 5.0026992221232277e+01 -7.0043361437883289e-01  9.9396324945798241e+01 4.7569972761898455e+01 -1.0334276537151792e+01  1.1009143268409872e+02 6.9930156215432660e+01 -1.3036176702409537e+00  1.0943909081483119e+02 6.7370926181731363e+01 1.0937881627738741e+00  1.0929070954663942e+02 6.5923736859590662e+01 -4.2503075665368650e-01  1.0704521503577034e+02 6.6211791922500637e+01 2.6631462395665195e-01  1.0533480431947052e+02 7.0266812996951458e+01 1.1490190754237550e+00  1.1121928159959259e+02 6.7062125858451225e+01 1.2674861371730459e+00  1.1276104520797114e+02 5.2916074169498152e+01 -4.0057706015171028e+00  1.1380369425375901e+02 6.3884544323118483e+01 -4.0003041449194336e+00  8.5872079447024376e+01 5.2886183102076750e+01 -2.3474621673141296e+01  9.5935200377941413e+01 5.4417775351790382e+01 -8.8321359879480141e+00  9.0979981458101605e+01 5.2169423476941290e+01 -1.3772347031012533e+01  8.7437057964414834e+01 5.6450733664412567e+01 -7.6730202300296735e-01  8.3778289960727079e+01 5.9691041173265333e+01 -1.4123784913005164e+00  7.7030247123546019e+01 5.9247824474812120e+01 -8.5810050990913105e+00  9.2654018254253515e+01 5.7414072364923435e+01 -9.6529692618331673e+00  1.4228514160527524e+02 1.0433627675479558e+00 1.0491458798105469e+02  1.1288737897264434e+02 2.0234695453513698e+01 -6.3041505708884529e+01  1.1419408249828828e+02 1.3299017298518040e+01 -8.2464327278868851e+01  1.2429833734590181e+02 6.8312470742886227e+00 -7.3245621526056112e+01  1.0735704239635180e+02 2.8028708273950709e+01 -6.2635810018837553e+01  1.1923640189830199e+02 1.2535404755736727e+02 -1.6005858890318102e+01  1.1967822109011588e+02 8.5636743096310127e+01 -4.5801395265096572e+00  1.3020474448025891e+02 7.8863897491788592e+01 -8.4294634234257941e+00  1.1198069695400524e+02 1.1997243394590234e+02 -1.3116717706353127e+01  1.1073617238759472e+02 4.5203054108529834e+01 -1.1258624224746310e+01  1.1642912258885409e+02 3.7718824954380914e+01 -1.7768921179979550e+01  1.0380286262148461e+02 5.0952845397604342e+01 -4.7288998501803867e+00  1.0268421402504211e+02 5.1594049974192203e+01 2.8681036300314033e-01  1.0588441416444641e+02 4.9745926296182148e+01 -8.3808773292890631e-02  1.0746932526717349e+02 4.9040059357226099e+01 -4.5400289872292090e+00  9.3919055322197210e+01 5.2830890608388685e+01 -1.0848087868302130e+00  1.0913128489799902e+02 5.1940437327209025e+01 4.9189435677819936e-02  1.1126521902056447e+02 5.0607979925852547e+01 -2.0460595253419349e+00  1.1184826957852411e+02 2.7299920889096288e+01 -4.3837252707504710e+01  8.8831576448368722e+01 5.0972003665307966e+01 -4.6713196482448253e-02  9.7904348016743270e+01 5.7637166618081494e+01 3.7788372940952580e-01  9.9974879817185240e+01 5.4574629482984122e+01 -5.1682907187803473e-01  1.0240744180902871e+02 5.6485653022969977e+01 -4.0002741700779341e+00  1.0841151354404518e+02 5.3375488225556659e+01 -1.1993437259030775e+00  6.9094003796897056e+01 6.3300099615040772e+01 -3.5359282345349044e+01  1.3569027047553874e+02 4.3574212919128811e+01 2.2343842130526863e+01  1.4155751033933527e+02 2.6090614841812869e+01 1.4386431545013853e+01  1.3928620501564032e+02 2.8156460555038862e+01 5.1370963502093314e+00  1.4897374858943522e+02 2.1406354452075448e+01 2.2153458356103844e+01  1.4647335316889516e+02 -3.2545715040812986e+01 5.0201804015716171e+01  1.0465585719807684e+02 1.6082398828629884e+01 -6.5927141490966264e+01  1.1740699368083826e+02 8.6539208476170622e+00 -6.8032804310988269e+01  1.2097123699276729e+02 1.4318817914002522e+00 -5.5953015914047832e+01  1.2344027316641559e+02 7.6337759456940390e+01 3.2137800271879321e+01  1.3406551244729792e+02 9.8368387658005616e+01 3.6123908820152408e+01  1.1674482705400379e+02 1.2345068256779517e+02 2.4428481271195043e+01  1.2223401583422056e+02 6.1211023554189019e+01 1.2324849779420528e+02  1.1722344259393100e+02 6.0981664179008128e+01 1.1223524875941906e+02  1.2181245802485032e+02 6.3727823602556441e+01 1.0465546816234882e+02  1.2456858994820630e+02 5.5951751315452512e+01 1.1445953371479828e+02  1.1630081385687249e+02 6.9200283315170012e+01 1.2043758470217267e+02  1.1950054733907190e+02 7.1679687893512110e+01 1.1077854852567560e+02  1.2683436575398153e+02 8.7842487222545131e+01 9.1437928784746035e+01  1.1091608582535916e+02 7.8112734043080962e+01 1.1750174011959233e+02  1.0057553520875152e+02 7.7375207250367922e+01 1.2619999675539408e+02  1.2620254665086145e+02 5.1948110736568381e+01 1.0849759463905201e+02  1.1191095444185450e+02 6.4842082992386253e+01 5.1855481939922212e+00  1.0918580056914392e+02 7.1196764221987635e+01 2.2843480963226828e-01  1.2049475879257805e+02 5.1558709338072489e+01 1.2047654268120357e+02  1.2165821121682650e+02 5.2500971319888450e+01 1.3055229596513004e+02  1.1703382635473021e+02 4.6467813659655299e+01 1.3992080391981827e+02  1.0692827624344301e+02 6.3190673687887447e+01 1.4180678403688040e+02  1.1640563425868274e+02 7.3910531164596492e+01 -8.4565446229287051e+00  1.0617616076612853e+02 7.9148357577805868e+01 -3.0603211992232220e+00  1.0998696080360644e+02 7.3416795192399718e+01 9.7833974345719299e-01  1.1196910504822387e+02 9.3244774671365434e+01 -1.5824624116784853e+00  1.0819834187485736e+02 8.2550296787875780e+01 -1.9990286726161370e-02  1.0354632374836389e+02 6.9794640736568240e+01 -1.1199251685027929e+00  1.0184967396520332e+02 9.6392939890522570e+01 4.0849627855485423e+01  1.2141834161664460e+02 -1.0436625533676825e+02 7.9092954884241252e+01  1.2473147592176421e+02 -7.4702058260521994e+01 7.7642428976752072e+01  1.2485129118899590e+02 -7.4254952513799310e+01 1.0086049120357222e+02  1.0313955681573243e+02 -8.2975736534200919e+01 1.0629890346879347e+02  1.0788215709959042e+02 -6.3944165904134550e+01 1.0181535105485101e+02  1.2283911131124971e+02 -6.0234690694199962e+01 8.8593011416553509e+01  1.1709138532634536e+02 -5.4817792095101083e+01 1.0825318510162499e+02  1.6543188746145540e+02 -3.0450892159541088e+01 -1.4849596285158620e+01  1.5819434008259671e+02 -1.9884031809947729e+01 1.8980725625452437e+00  1.4511107706719264e+02 6.3223670549263735e+00 -3.0665183316461651e+00  1.5522181024593345e+02 1.3682973919262237e+01 1.1485383897556023e+01  1.3265079434954296e+02 -4.7721323721046058e+00 -5.0962893704313629e+01  1.1206067956725519e+02 -1.4534595226953348e+02 1.2288304109166416e+01  1.3094729694685668e+02 -8.2825235921217555e+01 3.4199524278333925e+01  1.1798055347440001e+02 -9.1794791913087693e+01 4.9545029593614515e+01  1.1642379908036942e+02 -1.1891932167254816e+02 5.0975527406902295e+01  1.0756159198221607e+02 5.3997160638153943e+01 6.2678040802973967e-01  9.9193560340689231e+01 6.0218608247980001e+01 -5.0777538887689992e+00  9.2195843749087999e+01 6.1419090888352386e+01 -4.7079293153876045e-01  1.4792411477813553e+02 -9.6263788409339810e+00 3.4185852445609162e+00  1.4851254510350367e+02 1.2510768173479047e+01 2.3131780303331155e+01  1.5161215454549327e+02 4.1995899192482966e+00 2.6694820639688395e+01  1.4391613175320637e+02 2.1825663633001803e+01 -2.7955364687085318e+00  1.3373719482196483e+02 2.6839154535703731e+01 -1.4482239355736102e+01  1.0028136331408047e+02 3.0355362860391697e+01 -5.2292392622413686e+01  1.0971206782679761e+02 2.2401892384974325e+01 -6.1435150409924603e+01  9.3876874865381694e+01 2.7916634223456132e+01 -7.2080643963505509e+01  1.0827946536065546e+02 3.2424834389971608e+01 -4.9584677781520043e+01  1.1548557967892901e+02 2.3830027354936597e+01 -4.6322079928111386e+01  1.1784370908211228e+02 6.0233252485798118e+01 9.7132557967195545e+00  9.1799542209596879e+01 4.6739449541999221e+01 -3.5209102657338377e+01  7.5286264908106446e+01 5.3109862361481468e+01 -3.4936231363561504e+01  1.3668758465185277e+02 -5.5144895145124877e+01 7.7272853985677699e+01  1.1882143721165600e+02 -4.0371940780506961e+01 1.1609837120916819e+02  1.0633798727051092e+02 3.4764301172300783e+01 -3.4962269190070700e+01  1.2058114688986306e+02 2.8986690522871523e+01 -2.5939498074278760e+01  1.474