<?xml version="1.0"?>
<VTKFile type="UnstructuredGrid"  version="0.1"  >
<UnstructuredGrid>
<Piece  NumberOfPoints="6828" NumberOfCells="30628">
<Points>
<DataArray  type="Float64"  NumberOfComponents="3"  format="ascii">0.6640430092811584 12.61184978485107 22.00791931152344  1.607178264336706 12.5324981423166 22.02859617901939  1.511336260514379 12.93872334678437 21.71219183636802  1.263933741526723 12.899738094404 22.14618612958091  1.254690051078796 12.28359508514404 21.45633506774902  1.007287532091141 12.24460983276367 21.89032936096191  0.9114455282688141 12.65083503723145 21.57392501831055  1.15884804725647 12.68982028961182 21.13993072509766  1.350532054901123 11.87736988067627 21.77273941040039  1.863824473772288 13.18762640395693 22.28445294763838  3.981308937072754 13.13778972625732 24.56105995178223  4.083428309225072 12.4883053751254 24.14513006617869  4.001094857925266 12.87087329507612 23.77137489277968  4.341584920883179 12.8972749710083 24.22589015960693  4.701860904693604 12.65676021575928 23.89072036743164  4.443704293035497 12.24779061987638 23.8099602740034  4.361370841735691 12.6303585398271 23.43620510060439  4.020880778777778 12.60395686389491 22.98168983377714  4.103214230077585 12.22138894394419 23.35544500717615  4.185547681377391 11.83882102399348 23.72920018057516  1.686281269310931 13.79227116995648 22.95674010268532  1.386130806535395 13.49618824511152 22.47956855729188  1.982729102686702 13.93006277032698 22.46317972075362  2.163974936547824 13.48370932880189 22.76162449303183  2.46412539932336 13.77979225364685 23.23879603842527  2.282879565462238 14.22614569517193 22.94035126614706  2.101633731601117 14.67249913669702 22.64190649386886  1.505035435449809 14.23862461148157 22.65829533040711  0.9084371392985024 13.80475008626611 22.67468416694538  2.280373096466064 16.22086906433105 24.68157958984375  2.366882611434563 15.78520872860694 24.13781870691388  1.980869103591545 15.84814360409522 23.94693411676495  1.93203604221344 15.94415950775146 24.53345489501953  2.318049550056458 15.88122463226318 24.72433948516846  1.583698987960815 15.66744995117188 24.38533020019531  1.969712495803833 15.60451507568359 24.57621479034424  2.355726003646851 15.54158020019531 24.76709938049316  0.8524230122566223 13.53999042510986 24.8889102935791  0.7967453874865846 12.96979585310671 24.51306389244213  1.253963753920453 13.00557062252031 24.58845266866805  0.7917108811656313 13.3729759754822 24.36954449089184  0.8574575185775757 13.13681030273438 25.03242969512939  1.2489292475995 13.4087507448958 24.44493326711775  0.8624920248985291 12.73363018035889 25.17594909667969  1.645435482942378 13.27751106468173 24.00095624065641  1.188217116508509 13.24173629526814 23.92556746443049  0.7309987500746402 13.20596152585454 23.85017868820457  5.274674892425537 14.59609985351562 23.03957939147949  5.670399315194598 14.2009175825888 22.62978497729773  5.293182260827533 14.11664233692229 22.77986470447058  5.407102234200946 14.51973233707488 22.67174950824256  5.537971973419189 14.27728509902954 22.99761486053467  5.160754919052124 14.19300985336304 23.14769458770752  5.046834945678711 13.78991985321045 23.25580978393555  5.424052000045776 13.87419509887695 23.1057300567627  5.801269054412842 13.95847034454346 22.95565032958984  5.539529575976355 14.44336482063414 22.30391962500562  4.397663116455078 13.7418098449707 20.48123931884766  4.931362867355347 13.30732011795044 20.5608549118042  5.028625830193153 13.69694814441762 20.58261607209475  4.801435947418213 13.54691505432129 20.29056930541992  4.527590036392212 13.50221490859985 20.75152492523193  4.657516956329346 13.262619972229 21.02181053161621  5.158552750130287 13.45735320804677 20.85290167847903  5.205208778381348 13.35202026367188 20.09989929199219  5.432398661156288 13.50205335376821 20.39194605866702  5.659588543931229 13.65208644386454 20.68399282534184  2.113444242021528 14.45777614449039 21.29137771391376  2.561564186087688 14.1707994039151 21.6626396725991  2.892128142428184 14.42180147619544 21.22535138847734  2.774182065281653 15.04476167704057 21.81432614274173  3.434919888541779 15.63174720959074 22.33727457156969  3.222302009347814 14.75778493646527 22.18558810142706  3.552865965688309 15.00878700874561 21.7482998173053  3.670812042834841 14.38582680790048 21.15932506304092  3.340248086494345 14.13482473562014 21.59661334716267  3.009684130153849 13.8838226633398 22.03390163128443  2.856884821187117 15.3334426081034 23.94577891434453  2.239938362370589 15.2710327303263 24.32163340653203  2.972672462463379 15.60399007797241 24.39124488830566  3.589618921279907 15.66639995574951 24.01539039611816  2.983829070251091 15.84761860638404 23.76196421472638  2.378039219222275 16.02883725701857 23.50853803333458  2.251094970158301 15.51466125873793 23.69235273295274  2.124150721094327 15.00048526045728 23.8761674325709  1.034963160600872 15.18186076080113 22.5572488557608  1.516461701991288 14.26197205916824 22.03904759141369  0.9831264164911659 14.51665287122029 21.99671877235967  1.5742037013112 14.81981845264576 21.92431328483728  1.568298446100994 14.92717994874907 22.59957767481483  1.522366957201494 14.15461056306492 21.36378320143615  2.107538986811322 14.56513764059371 21.96664210389131  0.93128967238146 13.85144498163945 21.43618868895853  4.272822856903076 12.78633975982666 21.64837074279785  3.992226958274841 12.1826548576355 21.85234928131104  4.146851817840427 12.69514831186079 22.3150302882875  4.330238342285156 12.34994983673096 21.77976512908936  3.934811472892761 12.6190447807312 21.72095489501953  3.596800088882446 12.45174980163574 21.79353904724121  4.204267303222507 12.25875838876508 22.446424674579  3.808840433830112 12.52785333276533 22.38761444050918  4.387653827667236 11.91355991363525 21.91115951538086  3.290148973464966 13.78055000305176 25.11223983764648  3.326910075847139 13.01130297613754 24.62987856401465  3.081536111537447 13.20678809118881 24.83796362413428  3.241543588344087 13.52439310980453 24.61389879716894  3.375515460968018 13.26745986938477 25.12821960449219  3.130141496658325 13.46294498443604 25.33630466461182  2.970134019851685 13.14533996582031 25.56036949157715  3.215507984161377 12.94985485076904 25.35228443145752  3.460881948471069 12.75436973571777 25.14419937133789  3.192938203223209 13.26823621655731 24.1155577566914  4.024335861206055 15.17730045318604 23.54174041748047  3.896611358641586 14.89167835648186 22.25294570226271  4.107060459636489 15.42448375799361 22.71691704805291  3.729627874873917 15.40452383138838 22.93950749452508  4.401768445968628 15.19726037979126 23.3191499710083  4.191319344973724 14.66445497827951 22.85517862521809  4.779201030731201 15.21722030639648 23.09655952453613  4.568751929736298 14.68441490488473 22.63258817874593  4.358302828741393 14.15160950337298 22.16861683295572  4.938755989074707 12.52659034729004 21.39591979980469  5.357952385380777 13.19234747138296 21.25214612989033  5.559313158133989 12.7145714704584 21.28969588526127  5.167785911992105 12.99251264777456 21.56971586255635  5.128922462463379 12.72642517089844 21.07835006713867  5.319088935852051 12.92625999450684 20.76078033447266  5.749479631522661 12.9144062940668 20.97212615259526  5.396815834909503 13.45843494825908 21.74351192530801  5.788343081051387 13.18049377094292 21.46349194801294  6.17987032719327 12.90255259362676 21.18347197071786  2.796634912490845 12.92343044281006 21.23683929443359  2.478090819222137 12.54877841574443 21.88408537128365  2.857465800148651 12.8424285660435 21.83744974353707  2.330229693131566 13.0555284233835 21.76064612103599  2.417259931564331 12.62978029251099 21.28347492218018  2.037884950637817 12.33613014221191 21.33011054992676  1.950854712205053 12.76187827308442 21.80728174878257  2.391060580789373 12.97452654661694 22.36125657013947  2.918296687806457 12.76142668927695 22.43806019264055  3.817839083377351 13.38971331549301 24.01779417528174  3.894968967216419 13.3292475371518 23.88287981903543  3.587123570147981 13.20301297140732 24.33830885423681  4.212024450302124 13.32449007034302 24.24054527282715  4.442739963531494 13.51119041442871 23.92003059387207  4.12568448044579 13.51594788123749 23.56236514008035  3.500783600291647 13.39447078230179 23.66012872149001  3.808628997360085 13.52070534804627 23.20469968628863  3.008600950241089 16.22036933898926 24.52323913574219  3.04900598526001 15.59232950210571 24.63925933837891  3.299109935760498 15.94338464736938 24.26931476593018  2.68216347694397 15.88097476959229 24.64516925811768  2.722568511962891 15.25293493270874 24.76118946075439  3.339514970779419 15.31534481048584 24.38533496856689  3.089411020278931 14.96428966522217 24.75527954101562  0.9340131695602095 12.04730568586798 22.70514862324587  0.8345531638000167 12.57261048017951 22.51690857197634  0.3817170038819313 12.41250467300415 22.43090438842773  0.7635030150413513 12.08654499053955 22.19615936279297  0.09939099848270416 12.21315956115723 22.85388946533203  0.4811770096421242 11.88719987869263 22.61914443969727  0.5522271584007895 12.37326536833258 22.93989364888063  0.8629630208015442 11.56124019622803 22.3843994140625  1.005063318318875 12.53337117550794 23.02589783242923  1.454378257685925 11.16874944760593 22.75246802026293  1.473155270510937 11.60896455838474 22.58130732232592  1.155110031366348 11.26349496841431 22.26525974273682  0.844186007976532 11.12102508544922 22.55556011199951  0.8254089951515198 10.68080997467041 22.72672080993652  1.136333018541336 10.8232798576355 22.43642044067383  1.447257041931152 10.96574974060059 22.14612007141113  1.765302281075741 11.31121933057102 22.46216765100024  2.08334752022033 11.65668892054146 22.77821523058934  2.482297606517847 13.86996580754305 23.91640168526968  2.054780441132869 13.52865165916429 23.61987613954084  2.419186843082794 13.27287364061952 24.0582569986739  2.072952648327355 13.61882521306049 24.29748178638524  2.828531801273285 13.52401423510208 23.67717689755834  2.846704008467771 13.
[...]
<PointData  Vectors="u"> 
<DataArray  type="Float64"  Name="u"  NumberOfComponents="3" format="ascii">4.6165097076678698e+01 1.1725926480812821e+02 -1.8993942918161790e+02  1.0035963042004849e+02 1.3430290133697906e+02 -1.1673878921938361e+02  9.2963523833591609e+01 1.0795473038626416e+02 -1.0327368209772830e+02  1.0138184847353324e+02 1.1608410593231586e+02 -1.2055345906748968e+02  2.3273765286473751e+01 1.1456967582157682e+02 -1.3197801723555378e+02  6.7707842960079915e+01 1.4352850722583835e+02 -1.8513790754454087e+02  2.8629690552292988e+01 7.9132122630743496e+01 -1.4790152648027615e+02  3.9452725562172922e+01 8.0227955279785505e+01 -1.1193848030404652e+02  6.3864714625710654e+01 1.6854185909229560e+02 -1.4000031885481025e+02  1.3080570470883350e+02 1.2405976452788470e+02 -9.5140287681368335e+01  1.2842083855881623e+02 1.2217124746301704e+02 -1.7120024457595130e+02  1.8990090810123405e+02 1.0887296510367187e+02 -2.0500836968615044e+02  1.9220818187383040e+02 1.0488337215886337e+02 -1.8125668501497350e+02  1.5493476293418118e+02 9.7174508689616829e+01 -2.1846595369362441e+02  2.4057510400269550e+02 5.9510446939426949e+01 -2.4866601602632795e+02  2.5573973262576973e+02 8.3838158494025279e+01 -2.1855878799113935e+02  2.5164527212869268e+02 8.4882063556473753e+01 -1.8913257401677524e+02  2.5198656138999243e+02 1.0326728114141606e+02 -1.4593745777284963e+02  2.5795841264799935e+02 1.0441678723954735e+02 -1.7055608125072581e+02  2.6648510783963019e+02 1.0805310010562029e+02 -1.9720439071961121e+02  1.3661886050535469e+02 1.3124329725765233e+02 -8.1393945506500586e+01  1.3059581382158800e+02 1.1711932698737259e+02 -9.4249810365178817e+01  1.3845752105161287e+02 1.1734593250455612e+02 -7.7855501013867467e+01  1.4359357162461069e+02 1.2947406975191697e+02 -8.9959508444521262e+01  1.3896527645410987e+02 1.3173108913369677e+02 -9.2253968464665363e+01  1.3597525043085483e+02 1.2464847545797655e+02 -7.6307811756571439e+01  1.3522593798232717e+02 1.1765819322507873e+02 -6.1908354684457272e+01  1.3916855051434661e+02 1.2069724970661139e+02 -6.8377919597213264e+01  1.4433881142314658e+02 1.1160673716552800e+02 -9.0545030187880144e+01  4.6543818317117569e+01 1.7973274111404058e+02 -7.6724341320902445e+00  7.0583797680024276e+01 1.6301906534131527e+02 -2.8495539227102842e+01  8.6069266744274358e+01 1.6295448757347646e+02 -1.4227575061881623e+01  5.9882908441122275e+01 1.7623441638117410e+02 1.2469746173786605e+01  2.4575864951210274e+01 1.7229416584233363e+02 -1.4555885241690392e+01  8.5757840518845796e+01 1.8615503178087789e+02 2.2370045374713929e+00  6.8996465885861099e+01 1.9840604378987493e+02 -9.7051955642628922e+00  5.2445062151626779e+01 1.7755565041233203e+02 -1.9577931603507029e+01  6.5327956233553124e+01 1.6550420630116423e+02 -1.5476666676112812e+01  1.0632216139241562e+02 1.9063189996045864e+02 -2.7231076268310652e+01  9.6212777892820242e+01 1.8372933490263426e+02 -5.6299859429703183e+01  1.0940425293939660e+02 1.6978427751767694e+02 -2.0650557613674053e+01  5.5338048566276854e+01 1.9784748798606472e+02 -2.0331763202918488e+01  1.0496014559856687e+02 1.7091851225757588e+02 -5.2209709596719776e+01  6.4788032033260208e+01 2.0179892780629058e+02 -2.0228416297617624e+01  1.2083226432976772e+02 1.6177622994751022e+02 -8.0878856003730661e+01  1.2766202411714413e+02 1.6301414032495134e+02 -6.8028785009181959e+01  1.4799547582535121e+02 1.6361601367292539e+02 -5.7593143764305132e+01  3.0328856320366691e+02 5.5840169183577963e+01 -1.0649476080042264e+02  3.0234711673781948e+02 8.6012718739158576e+00 -5.9120892048166510e+01  3.0021670509005151e+02 3.7348592830322296e+01 -1.0520514710048684e+02  2.7977164716503438e+02 2.4095281564123784e+01 -6.5819774820372317e+01  3.4263619286786331e+02 4.7659305859666972e+01 -7.7636785371136057e+01  2.9986840506871130e+02 5.2227525486219569e+01 -1.5971127947154667e+02  3.0195974604334691e+02 7.4816268522685618e+01 -1.9613442339797169e+02  3.4474621824394893e+02 4.7289417850896626e+01 -1.3557895057994031e+02  3.6691524401960874e+02 1.7945234736445144e+01 -5.8421747112695684e+01  2.5960367440758739e+02 -1.9600371983428716e-01 -5.7548543823673910e+01  2.7033636544357756e+02 -4.1025884561013655e+01 -1.0353699154417558e+02  2.0238615989704300e+02 -1.0113033351144942e+02 -1.3621918550052348e+02  2.1760064962542802e+02 -7.1117795331216655e+01 -1.0231110297086558e+02  2.1075325559216191e+02 -9.9979118282086120e+01 -1.1096451010623949e+02  2.8865287429972386e+02 -3.8845026497367812e+01 -1.3914830540755236e+02  2.8699044863624567e+02 -2.5206107762382320e+01 -1.4452080487567048e+02  2.3058690208445552e+02 -5.5036656158423064e+01 -1.1373010206945716e+02  1.9739044495285370e+02 -8.6170676253451873e+01 -9.4533525804584727e+01  2.0826569893605208e+02 -7.3513811215817483e+01 -8.7335592458739484e+01  2.1923564092892465e+02 -6.1381972215964311e+01 -7.7810810120535209e+01  1.4311194087533050e+02 8.5421066935393355e+01 -5.9850274486380933e+01  1.5482957310432468e+02 9.5284690154132306e+01 -6.9632498493928793e+01  1.6512881086338842e+02 7.4929568129955115e+01 -6.1631780723865631e+01  1.4453369436717566e+02 8.3291976732812600e+01 -5.2415002090800819e+01  1.3701440135771563e+02 7.7404627936055732e+01 -5.2423466495463209e+01  1.5789910004767844e+02 8.4668889137537221e+01 -7.0289352445611428e+01  1.6560765225896617e+02 6.0059331937607382e+01 -5.8242254484024414e+01  1.9607250420624550e+02 4.8626554288919408e+01 -6.7229559342005118e+01  1.8886159766307870e+02 7.9182501223017866e+01 -7.6709132411477285e+01  1.7450977775111249e+02 1.0208644860483105e+02 -8.0781685397223910e+01  8.0462450375515431e+01 1.4289041370497972e+02 -6.7222098147380990e+01  7.8214104490184866e+01 1.6864118064105804e+02 -3.9003009211792573e+01  4.7759312348331918e+01 1.5405134851055661e+02 -5.9409584838625904e+01  7.1242194976933447e+01 1.3587155347805080e+02 -1.0202606437899084e+02  7.9044056091076072e+01 1.3768492593585086e+02 -5.6975732170469414e+01  8.8656884177321885e+01 1.4422112047378269e+02 -2.6752362669045247e+01  9.5070401659502338e+01 1.4902643722638933e+02 -3.6741173703564115e+01  9.9744025141295808e+01 1.5487483326954006e+02 -4.9543260533678321e+01  1.4450529081339860e+02 1.3120810580116819e+02 -3.9313750748025143e+01  1.3923371167102431e+02 1.0195552580531037e+02 -6.9303900683241153e+01  1.5098841169881590e+02 9.8552063373006803e+01 -6.3602694870686506e+01  1.4042993712259809e+02 1.0485577717026922e+02 -5.3552502240614288e+01  1.3536864077707764e+02 1.2310499507599141e+02 -4.9802870288781982e+01  1.3411311357665284e+02 8.3447862880810803e+01 -7.0758790493478529e+01  1.4062339356378368e+02 1.0042077538074393e+02 -6.1779214138259476e+01  1.2612366258826712e+02 6.0003306475424957e+01 -8.3035499305860242e+01  3.5365981699849226e+02 7.8155173394611978e+01 -1.3801304690937809e+02  3.5478118633959326e+02 1.4812617872841773e+02 -4.7820361325135494e+01  2.8644138937016407e+02 9.7014420379537029e+01 -1.1783950041746910e+02  4.2204034241834773e+02 9.6967230812450325e+01 -1.4239812090414117e+02  3.1507882365509596e+02 1.3800638956687584e+02 -6.4743928977326746e+01  2.7512345441978323e+02 1.6942304159030869e+02 -4.0812438013464785e+01  3.1285511873724658e+02 1.0451234920207972e+02 -1.2224681772357414e+02  2.6528652088349889e+02 1.2235515731811596e+02 -1.0132155578485035e+02  4.1810504886600967e+02 1.0970188635847643e+02 -1.4737477235934361e+02  8.6247162235849473e+01 1.4724349561693501e+02 -1.2209118419117037e+02  1.2790202482395084e+02 1.5300683134814440e+02 -1.4668300665464292e+02  1.0863979960732578e+02 1.6030899497724144e+02 -1.3198652634802986e+02  1.0969032177003065e+02 1.4311727502837726e+02 -1.2953637037018518e+02  1.0888642975851269e+02 1.6272120192138323e+02 -1.3584132158480347e+02  9.0067103038978530e+01 1.6484278252190549e+02 -1.2261304749034964e+02  7.6261387497023520e+01 1.8904596088267840e+02 -1.2236901207090389e+02  9.6022445186444358e+01 1.9049655622519015e+02 -1.4584787959452379e+02  1.1431884871310153e+02 1.8307908545190213e+02 -1.7146041981864101e+02  1.3598512260764437e+02 1.3759094512365351e+02 -1.3426461538816957e+02  1.5042510273354011e+02 1.0431408911406476e+02 -1.4596793084669835e+02  1.7770231436043719e+02 6.4189325874953653e+01 -7.5564694489864621e+01  1.6660802736461005e+02 6.8620731550540000e+01 -7.7734456040137431e+01  1.4447107483528225e+02 8.6862938896108432e+01 -8.0703994862040645e+01  1.8923449693448043e+02 8.4715230363573838e+01 -1.2809431624912042e+02  1.9623505487894010e+02 7.3758521722326861e+01 -1.1137866211914785e+02  2.3038151091735443e+02 6.6406150415438475e+01 -9.4487923384171467e+01  2.1659915112989987e+02 5.4882617806383323e+01 -1.0158117996427323e+02  2.2440549186583038e+02 5.2009510682131364e+01 -9.6909093135083893e+01  3.0065700030865912e+02 1.1705236928640654e+00 -1.9848708167025464e+02  2.5305968990039705e+02 -3.4161315882720331e+01 -1.1708151058905078e+02  2.6291528008056270e+02 -3.2653275413052050e+01 -1.3498493796618436e+02  2.8158303885028982e+02 -6.5407814219481653e+00 -1.3836011100424125e+02  2.5006585495924762e+02 -5.5605141213847119e+01 -1.7884119545229595e+02  2.2200559713583536e+02 -7.1695630014051375e+01 -1.3267155333581672e+02  2.3790577309287403e+02 -5.6789813815568245e+01 -1.0908091471879273e+02  2.7363254985175564e+02 -6.9994857322542119e+00 -9.7483974703035656e+01  2.6618113014002643e+02 -3.1402080248529710e+01 -9.1121364264567802e+01  2.5304002011092012e+02 -4.8942332933299866e+01 -7.9222533227856076e+01  1.5921354883606821e+02 1.5862680075291567e+02 -5.6693967720486327e+01  1.4155266909696056e+02 1.4962804112329516e+02 -7.3710795779685157e+01  1.6944494888681052e+02 1.5030238950553661e+02 -6.7783515763996220e+01  1.3950025120580835e+02 1.3208874035240541e+02 -7.8858948065923030e+01  1.0811061646470013e+02 1.5605216813853710e+02 -6.0236173447799302e+01  7.7636179915443748e+01 1.4579574695503112e+02 -8.6525682943856964e+01  1.1263740991193303e+02 1.3098412666618276e+02 -9.4724540443190222e+01  1.4920754912605017e+02 1.3467665247490129e+02 -9.1764770474111998e+01  1.8196555792345748e+02 1.3859424264701235e+02 -8.8261224178243978e+01  1.5095085925832322e+02 1.1061204299965554e+02 -1.6236130392367784e+02  1.6059926507523744e+02 1.0561125109937993e+02 -1.6832998525098546e+02  1.3546558909722967e+02 1.3032226390889861e+02 -1.5323684270331910e+02  1.4207069376569788e+02 9.9230432312297623e+01 -1.9096395367567811e+02  1.7383712069817128e+02 7.7584307082242390e+01 -2.1527057857261508e+02  1.8836868377652695e+02 9.1167552627401491e+01 -1.7443925127485872e+02  1.6157498752529915e+02 1.1759200123998754e+02 -1.3969002584976712e+02  1.9261943247520077e+02 1.0023520546958352e+02 -1.4274898337536686e+02  3.0914637173858672e+01 1.7057510210376290e+02 -3.8364307583033572e+01  2.4302305031829430e+01 1.5343961813096544e+02 -5.3179853978476743e+01  4.5522111302191213e+01 1.5380623739117422e+02 -7.7158345915291690e+01  4.3075319530714488e+01 1.7031298143539624e+02 -3.9274210607815775e+01  4.8193309715605999e+01 1.7220385777146353e+02 -2.6751775297857169e+01  4.7789382586472144e+01 1.4572057109394629e+02 -8.9935803030502655e+01  3.8561680942978931e+01 1.7041895371956781e+02 -8.3990332436852398e+01  1.1948056864769003e+02 1.5876451525710831e+02 -1.5026581017193055e+02  1.1416076926605990e+02 1.4182408099824303e+02 -1.5383969975429449e+02  1.1819448141954520e+02 1.4087265691148576e+02 -1.9062307813421566e+02  8.4029708759358115e+01 1.4920672233217965e+02 -1.7522625085964137e+02  1.6892307650009343e+02 1.6136299883889390e+02 -2.0561125347367411e+02  1.3635021915861432e+02 1.8908847136478204e+02 -1.9033551451884949e+02  1.4822624443256302e+02 1.5262649831018561e+02 -1.5266750079481341e+02  1.1397159821297299e+02 1.7170738158337133e+02 -1.6382101360700975e+02  1.3655607365679867e+02 1.5199120508744301e+02 -1.2349674888732440e+02  1.2389695369165317e+02 1.7998541349911767e+02 -1.2741501206866045e+02  1.1677606506608042e+02 1.6953823899546711e+02 -1.2865665883519947e+02  9.2101732179582299e+01 1.8308775991352127e+02 -1.5722450447970309e+02  1.1238538432118075e+02 1.6742060579770705e+02 -1.4619929803810678e+02  8.3527307631833665e+01 1.8697379205568089e+02 -1.4897023805938792e+02  1.0152794581573210e+02 1.8731803402342257e+02 -1.3563796113279778e+02  8.9664303433688858e+01 1.9063840506683570e+02 -1.1144893533523909e+02  1.2303417093717398e+02 1.7884254706448453e+02 -1.1006576128586359e+02  1.4613937134345659e+02 1.6869440905421280e+02 -1.1003366641098252e+02  1.1835444532270671e+02 1.4586215675299508e+02 -9.4099114823253913e+01  1.2997924469549184e+02 1.4780589760812947e+02 -8.9004448624691278e+01  1.2419526478401957e+02 1.5343374133410046e+02 -1.0550804899077087e+02  1.0744373251465417e+02 1.6161933283154568e+02 -8.5269224691831553e+01  1.3880067405546552e+02 1.3503903172084264e+02 -1.1114484730382073e+02  1.1197445812517292e+02 1.4832933667230549e+02 -1.1357905012318645e+02  9.3036089370359775e+01 1.5830437406787320e+02 -9.4947742332548714e+01  1.2196335824928471e+02 1.7171861443736279e+02 1.5263754538032265e+01  1.2410332929042276e+02 1.4203310305446706e+02 -3.8110817726473073e+01  1.1925793790894004e+02 1.3700653079710452e+02 -2.7526300576099970e+01  1.3305720515582667e+02 1.4318000707519764e+02 -1.5367324705854331e+01  1.0385545908899182e+02 1.6100428504962207e+02 -1.6430045012499825e+01  9.5461221765540017e+01 1.5888170883284840e+02 -3.3863265337990422e+00  1.8901546269704323e+02 9.0864640150401328e+01 -1.9669750174239726e+02  2.2159003941530986e+02 8.0110179731393615e+01 -1.7833774600399749e+02  1.8253571542486316e+02 9.1410125125681148e+01 -1.6284458619505892e+02  1.6608836311585668e+02 7.4629375210077555e+01 -2.2924328810385376e+02  2.4135134247834267e+02 9.9804164674801356e+01 -1.9968334248775477e+02  2.0426578261841985e+02 7.6345987624865984e+01 -2.3990498098340260e+02  1.1992664080874118e+02 1.5966495850779526e+02 8.3077422497032458e+00  1.1413529961120605e+02 1.6475029343700612e+02 8.9911558962017999e+00  1.3738218236981496e+02 1.4946260501826183e+02 -1.7695996057480460e+01  1.0750147026937202e+02 1.6429721877910779e+02 -2.0375561151832127e+01  1.5835972708023269e+02 1.0389129492850864e+02 -1.9316506468515078e+02  1.4572022877062952e+02 1.4008397182177950e+02 -1.4766317712761060e+02  1.7797264339490809e+02 1.4701517774451216e+02 -2.0852968932324907e+02  2.0475558753291276e+02 1.4693444045458918e+02 -1.3999480744577968e+02  1.9961430157971290e+02 1.5959353287504209e+02 -1.0060414233675982e+02  1.6178178330541630e+02 1.5507536576127154e+02 -1.1960597190066828e+02  2.0077743324841913e+02 1.5536590586483078e+02 -1.4797368725488491e+02  1.0733578373274405e+02 1.5103796657190486e+02 -1.3970200656968663e+02  7.7875779629053454e+01 1.6039762334368683e+02 -1.5677178509882600e+02  1.6124811301202834e+02 1.2863480770696165e+02 -9.9097449591373746e+01  1.5238419116225788e+02 1.1877569117080851e+02 -8.3422218350100707e+01  1.8001619325268240e+02 1.2184906437438431e+02 -8.7698160733483135e+01  1.5636393679884276e+02 1.1671558031897018e+02 -8.9432435404364000e+01  1.4042929604177402e+02 1.4505731064676900e+02 -5.5096142733325799e+01  1.2317188517145668e+02 1.4890433240073554e+02 -7.4597760913144313e+01  1.3133194464513193e+02 1.3880028957859082e+02 -7.4052131475365357e+01  1.2981842598472826e+02 1.5190224508299079e+02 -6.8582176577637142e+01  1.2894514524006078e+02 1.5652826782240277e+02 -4.9903018450505421e+01  1.1777157794185968e+02 1.6101103287543822e+02 -6.4497883992832300e+01  1.1598722155734882e+02 1.6521091412815693e+02 -4.9670948403239827e+01  1.5983818807884211e+02 1.5135767542673148e+02 -1.2372312568129661e+02  1.8644870097341169e+02 1.1789961428481639e+02 -1.4921370232741958e+02  1.7510454261240221e+02 1.2645434006027335e+02 -1.3010671269369297e+02  1.5092131217721746e+02 1.4458940565584675e+02 -1.3060622777651921e+02  2.0106610531704371e+02 1.2863218204212947e+02 -1.3370007529171576e+02  2.2141347911070176e+02 1.0031595079401851e+02 -1.4466905413687252e+02  1.6364174443760012e+02 1.6274962425549708e+02 -1.2300241956843436e+02  1.9970463754811004e+02 1.6452163622370875e+02 -1.4326168697136978e+02  2.0075961065773373e+02 1.6968862992713164e+02 -1.0289952854472381e+02  1.9866386188469440e+02 1.7197021856468584e+02 -1.0798419242643831e+02  1.0652373884464726e+02 1.2793270998843110e+02 -6.7423515560641206e+01  1.1606390491893964e+02 1.2822598072583386e+02 -4.5493460599078318e+01  1.3380377717857837e+02 1.1771325136870206e+02 -7.8062833513344486e+01  1.0765715243120972e+02 1.3469405119022628e+02 -7.7613214193287149e+01  1.2031761479498290e+02 1.3444937549056672e+02 -5.6976290971120299e+01  1.3419496215857126e+02 1.1335330216078189e+02 -1.0883222907101698e+02  9.4250148517781184e+01 1.1973015672545188e+02 -1.1051566128938093e+02  2.8468958777392118e+02 1.2670599152186572e+01 -1.3863176877641359e+02  2.8309884183160278e+02 2.3178316235084811e+01 -1.3278996616116956e+02  2.6548327798768429e+02 -1.3294428950152517e+01 -1.2052548427476654e+02  3.2007615551775979e+02 -3.3047502510479556e+00 -1.5771339269440256e+02  2.9850138666580176e+02 5.6459839092174704e+01 -1.3819191886426282e+02  2.8997629439574490e+02 2.2278360474899984e+01 -1.1966097490693794e+02  2.9721953088581591e+02 5.0144163432235302e+01 -1.4022348617694800e+02  1.8956759580728354e+02 -7.9545260576838203e+01 -5.4873992404207257e+01  2.3706635057403506e+02 -6.6377318085578949e+01 -6.2952767636837635e+01  2.4343374694084613e+02 -6.0240722654003442e+01 -9.5555885156828396e+01  2.1942185805985585e+02 -8.1259571418805351e+01 -5.5657051293312691e+01  2.2172957886768546e+02 -7.1318155626693198e+01 -8.4102408670297748e+01  2.3494179366052714e+02 -7.9467943574779810e+01 -6.8817535852231842e+01  2.0305252414079121e+02 -8.0768042319852626e+01 -7.8240921658305709e+01  2.2538808303070152e+02 -8.2973319907665342e+01 -5.2296140071290246e+01  1.8581106124024427e+02 1.2522834047481689e+02 -1.7268855567203664e+02  1.6272134640023225e+02 1.4286659832410089e+02 -1.7903055169712226e+02  1.5669654025360745e+02 1.4666264440486356e+02 -1.5550416845639737e+02  2.1978711146327112e+02 1.3172502385880227e+02 -1.8803059177622657e+02  1.7954606868590898e+02 1.5538247194171731e+02 -1.7957642934316340e+02  1.1634243172142129e+02 1.0311291016261204e+02 -7.8083539584297668e+01  1.0987709655788599e+02 9.5958303514440246e+01 -6.1559309317429857e+01  1.0986175902869637e+02 1.0993252025654570e+02 -4.6508050471222298e+01  1.2383690759106182e+02 1.3596213179302705e+02 -2.7367719015097663e+01  1.4259888384226093e+02 1.1098863156484802e+02 -4.5276080991631538e+01  1.6038948538365028e+02 1.3320404344534697e+02 -4.6151088108546347e+01  1.3990032518131522e+02 1.2954745609638292e+02 -3.5905218541213110e+01  1.2987180530525711e+02 1.4569471657855655e+02 -4.6293980227230115e+01  1.7543813866458672e+02 1.6101005315198253e+02 -4.6087016779308669e+01  6.1342458992568162e+01 1.7047647790920703e+02 -9.6595582564662621e+01  6.5141907490555383e+01 1.9467151817217780e+02 -9.5870612482691371e+01  7.8383626199979886e+01 1.9066168662901842e+02 -1.0560031743479800e+02  6.9864531643265295e+01 1.7657580368073141e+02 -1.0864678413738204e+02  6.6462466285502344e+01 1.8526544059619619e+02 -8.8573531014045187e+01  4.8861192591443228e+01 1.9586779855840368e+02 -7.6207840087257168e+01  8.3294645335795494e+01 1.9711229949539455e+02 -1.2188092341727540e+02  6.8913396838124370e+01 2.0373463844464482e+02 -9.8458773862455629e+01  9.1063102696312868e+01 1.9876490744543551e+02 -1.2205278864525725e+02  1.8417684414404553e+02 1.9423109427739377e+02 1.3646970051125265e+00  1.4987773993927524e+02 1.5786350019448284e+02 -4.2770090643716784e+01  1.4247675473422979e+02 1.7639144078077118e+02 -3.0920782817647218e+01  1.9262722055315658e+02 1.7821872259152835e+02 -1.8283570157974193e+01  2.0063468150383392e+02 1.6205684161115872e+02 -3.6578873297310551e+01  1.6953156178315959e+02 1.4212782987756512e+02 3.7497003831389662e+01  1.3469969629796685e+02 1.6106635007508444e+02 -2.4563334834684472e+01  1.9936556220942728e+02 1.6154191797417903e+02 -1.3651016937980977e+01  1.9801422394078887e+02 1.5258236067785549e+02 -5.5126418863125416e