<?xml version="1.0"?>
<VTKFile type="UnstructuredGrid"  version="0.1"  >
<UnstructuredGrid>
<Piece  NumberOfPoints="7072" NumberOfCells="32789">
<Points>
<DataArray  type="Float64"  NumberOfComponents="3"  format="ascii">16.74827003479004 4.840473175048828 20.75761985778809  17.43222242876674 4.926981007484798 20.41166659457586  17.32608229204799 4.824377095131283 20.7693869696369  17.10721171596489 5.202659757426494 20.3557213656188  16.85441017150879 4.943077087402344 20.39989948272705  16.96055030822754 5.045680999755859 20.04217910766602  17.21335185268364 5.305263669780009 19.99800099055776  17.46615339713974 5.564846339804158 19.95382287344951  17.68502397322284 5.186563677508948 20.36748847746761  17.90389454930594 4.808281015213738 20.78115408148571  19.81497001647949 6.920251846313477 21.7101001739502  19.10137507392938 6.416256676682231 21.42326938578547  19.4981712201047 6.098677257329054 21.11113013392094  19.67696629208508 6.275271221026986 21.72970885538683  19.63617494449911 6.743657882615546 21.09152145248431  19.23937879832379 7.061237301968722 21.40366070434884  19.45737987251874 6.567063918917614 20.47294273101842  19.06058372634341 6.884643338270791 20.78508198288295  18.66378758016809 7.202222757623967 21.09722123474748  19.53896256769067 5.630290595740496 21.74931753682346  17.59563064575195 3.991295099258423 21.23245048522949  18.24548294628964 4.036104041349529 21.34473441775857  18.07149028778076 3.728705048561096 21.05258560180664  18.07214069366455 3.676526069641113 21.42012500762939  18.54865074157715 3.361757040023804 21.6077995300293  18.72134258831845 3.773513990652202 21.16486953433571  18.72199299420224 3.721335011732219 21.53240894015847  18.54800033569336 3.413936018943787 21.24026012420654  18.54734992980957 3.46611499786377 20.87272071838379  18.89533524682733 4.080912983440635 21.45701835028764  18.29148922933938 4.796559647618361 21.74417247378408  19.217148907259 4.855601789590565 21.60316794355555  19.04813235083904 4.630509979902935 21.65200002750191  18.59341223808335 4.438736315529498 21.60059541203586  18.91522589851503 5.213425121679428 21.74674500530377  19.67186902001469 5.047375453964002 21.6545725590216  19.35005535958302 4.272686647814072 21.50842296575369  19.8047754723387 4.464460312187509 21.55982758121974  18.51371225765653 5.819806499829319 20.57172812565178  18.31862145398636 5.699054028700075 21.90054845415877  18.42973296814493 6.210677454805554 21.31432628009262  19.0263374126736 5.725048547784907 21.16052283123762  18.40260074349796 5.30818307372384 21.15795029971793  18.942358123162 6.115919502761142 21.90312098567846  18.34575367863333 6.601548409781788 22.05692443453346  19.80496978759766 4.15175199508667 22.36602973937988  19.40533390281096 4.515428463602754 22.03378801089235  19.35015251721249 4.116332489263653 21.91152404483376  19.40543106044043 4.359074305052334 22.43688908997242  19.00589233328321 4.566396615017998 22.50774844056496  18.95061379005527 4.323654799229317 21.9823833954263  18.91913986206055 3.646481990814209 22.18806076049805  18.90723755444394 3.863697487127422 21.82253955539284  18.60531454569996 4.221520819216285 21.96611661714106  18.96251609767188 4.106439302916104 22.3479046005315  18.64869078131129 4.68147813131818 22.12596045717451  19.72625459625845 4.740229263510038 22.15826269700679  19.27242745048694 5.098343605379247 22.12853298869421  19.3268130267307 4.791197414925284 22.6322231266794  19.64773372017819 5.015998214832568 22.75669781279384  19.47441358109593 4.126089061560677 21.24415498070528  19.52286075599265 4.593218471901446 20.9665108965705  19.01969346834025 3.93431539718724 21.19275036523923  19.06814064323697 4.401444807528009 20.91510628110446  19.14405168985316 3.787717810933844 20.92848238019083  16.7082691192627 4.548534870147705 21.55678939819336  17.30608183428431 4.678407942680721 21.16897173983953  17.49987917430104 4.672547258883033 21.65048093598872  17.15194988250732 4.269914984703064 21.39461994171143  17.74976259752894 4.39978805723608 21.0068022833576  17.94355993754566 4.393927373438392 21.48831147950678  18.09769188932266 4.80242033141605 21.26266327763489  18.79486083984375 7.841044902801514 22.29561996459961  18.93456221071559 6.805387604396509 22.34571723740833  18.57030725923854 7.221296656291651 22.17627219956653  19.00270080566406 7.632900476455688 22.04026985168457  19.1591157913208 7.425135850906372 22.46506500244141  19.52337074279785 7.00922679901123 22.6345100402832  19.36695575714111 7.216991424560547 22.20971488952637  19.21054077148438 7.424756050109863 21.78491973876953  18.77814722505885 7.013152229945826 21.92092208665149  18.19259481913746 4.188684381990943 21.95355100434809  17.84466552734375 3.786052107810974 21.6976900100708  18.09370040893555 3.580809116363525 22.16292953491211  18.49451782788144 3.83086104990208 21.80997394259987  18.96092459514244 6.368073703422176 22.55842505438689  19.53116665524426 6.319758697375863 22.19191378855333  17.37575209835014 5.048292787364238 20.16942680995474  17.12295055389404 4.788710117340088 20.21360492706299  17.28535079956055 4.531739234924316 20.38503074645996  17.59462267443324 4.670010125069027 20.58309241397284  17.68268013000488 4.67463207244873 19.62780952453613  18.13212009432766 4.903301640309486 20.14082051338471  18.17678822952577 4.527985700497418 19.92308359105006  18.02151288467714 4.836477168926983 19.56414823490992  17.83795547485352 4.366140604019165 19.98674488067627  17.79328733965541 4.741456543831234 20.20448180301092  17.99323081970215 4.0576491355896 20.34568023681641  17.94856268450404 4.432965075401668 20.56341715915106  18.36034563934939 4.998322265405235 19.5004869452837  19.38995430366864 5.176133613677939 21.06125587437237  19.34916295608267 5.644520275266498 20.42306847146985  18.87732914865157 5.270891565722351 20.47246116878653  18.98554606508763 6.193435209373467 20.5223354283351  19.2409460396466 4.721976631615383 20.37319421192127  18.44428303326474 4.069281059515117 20.90134929355202  18.61708842967438 4.389812883602492 20.35943722436884  18.39961489806663 4.444596999327187 21.11908621588668  18.57242029447627 4.76512882341456 20.57717414670349  17.14522933959961 5.38868522644043 19.41658973693848  17.57441676357231 5.119739206126445 19.79081619899282  17.7527874894745 5.193503745922833 19.45853834111109  17.30569136836968 5.476765783122294 19.68520630519399  17.41395473480225 5.03165864944458 19.5221996307373  17.91324951824457 5.281584302604697 19.72715490936661  18.43180368228375 5.508551111615803 22.99148200005504  19.03976870123097 5.262274663224186 22.87408990642444  19.00394959696765 5.821575054339184 23.02570383714768  18.98538312498721 5.56942085367815 22.37039976843925  19.57609551165156 6.134598997062565 23.05992567424031  19.61191461591487 5.575298605947566 22.90831174351708  18.58874991891231 6.511014628726643 20.83447468019963  18.50477062940071 6.901885583702878 21.57707283464047  18.800645839498 4.86014944851031 19.93684057860249  17.86323823410341 5.358832248577862 19.15355806309595  17.41614211299858 5.642094285777324 19.38022602717886  17.25568008422852 5.554013729095459 19.11160945892334  17.36613082885742 5.719342231750488 18.8066291809082  18.15044329043314 5.587954451332363 18.85040195914411  17.8933489071934 5.911273171196255 18.90391167136335  17.62322521209717 5.396023511886597 18.75311946868896  17.88031959533691 5.072704792022705 18.69960975646973  18.39045631243938 5.550763188023629 19.2508405535511  18.12033261734315 5.03551352871397 19.10004835087672  18.42056698552937 6.103204110642023 19.0011941618185  17.94336019133456 5.83402522522309 19.47750851763401  19.08036184755641 6.760900128047632 21.88351230424183  19.66917037963867 6.964739322662354 22.1723051071167  18.43702894850296 5.409064382617277 20.03610753546774  18.46713962159295 5.96150530523567 19.78646114373515  17.98993282739814 5.692326419816739 20.26277549955065  18.38877868045854 6.055049760698796 22.52420321729425  18.36164645581157 5.152555379617082 22.36782723691956  19.09065055847168 3.119808912277222 21.18004989624023  19.46909577595686 3.482960935267337 20.991101427217  19.27834088551496 3.452996845873721 20.68933121695088  19.11735112416242 3.453763361605533 21.05426613821553  18.20880340348123 5.314043757521528 20.67644110356875  16.95297908782959 4.196062922477722 21.7958345413208  17.19768905639648 3.843590974807739 22.03487968444824  17.74458914286793 4.32007531121305 21.88952607911616  17.39665985107422 3.917443037033081 21.63366508483887  17.79443073272705 4.024472117424011 20.78906536102295  18.32117557525635 3.471283078193665 21.8853645324707  18.50642013549805 3.613645553588867 22.17549514770508  18.73389530181885 3.504119515419006 21.89793014526367  19.10036011212481 5.614368012093069 20.02765732306907  18.26469619224451 4.848726073416053 22.82189046778104  18.71884800778349 5.037473863316901 22.74961522031  18.19453896577232 4.492730341417332 22.19823570464555  18.55174051774424 4.37764882511715 22.580023688036  18.09758870220527 4.188901035216302 22.65229893550704  19.21762084960938 8.337586402893066 20.50494003295898  19.31032554747801 8.210520902318876 19.71719311609902  19.13638584258299 8.063897767705839 20.15007351771035  19.5330753326416 8.126409769058228 20.32425975799561  19.39156055450439 8.484209537506104 20.07205963134766  19.56550025939941 8.630832672119141 19.63917922973633  19.70701503753662 8.273032903671265 19.89137935638428  19.84852981567383 7.915233135223389 20.14357948303223  19.45184032561522 7.852721133871 19.96939324274697  19.05515083555661 7.790209132518613 19.79520700246171  19.26638023497801 7.686982074422758 20.39734314814248  19.66306972503662 7.749494075775146 20.57152938842773  19.34761524200439 7.960670709609985 20.75220966339111  19.47760963439941 7.583755016326904 20.99947929382324  18.9929929026495 3.600360947858928 21.31853412326394  18.84635121571516 3.574737425478824 21.26814095511006  18.81965065002441 3.240782976150513 21.39392471313477  17.3
[...]
<PointData  Vectors="u"> 
<DataArray  type="Float64"  Name="u"  NumberOfComponents="3" format="ascii">1.8314099645602730e+02 -8.1830955690583025e+01 -1.2542491910805786e+02  1.7494253697653889e+02 -8.2278254702250919e+01 -9.9342412380648867e+01  1.7896608810275825e+02 -7.5556728627870427e+01 -1.1380220288364895e+02  1.7558126265026257e+02 -8.2988603826439444e+01 -9.1029498651014052e+01  1.7348349378238788e+02 -9.7310744380437512e+01 -1.0429325683335227e+02  1.7674602734699951e+02 -1.0092410246931082e+02 -8.2627484553133769e+01  1.8256536683003094e+02 -9.4303345844664150e+01 -7.7025355396408500e+01  1.8479040584551890e+02 -9.1361783746336457e+01 -6.8769320620743841e+01  1.8314488625237416e+02 -7.8898075387778221e+01 -8.8946273579101586e+01  1.8697214221359894e+02 -6.7373575843269037e+01 -1.0404216490536966e+02  3.2926887813816109e+02 -1.1194296794919099e+02 -6.5517560695197588e+01  2.2382371173688017e+02 -7.7031998264528667e+01 -6.0659036471801706e+01  2.3327639039688191e+02 -5.3867833441790808e+01 -5.1902015481192691e+01  2.6266124345510377e+02 -5.3228684515661612e+01 -5.0296643212256932e+01  2.6447219284127897e+02 -8.5798574912585494e+01 -5.3643631147759173e+01  2.2722979293790257e+02 -1.2579902372763614e+02 -7.5439350623997328e+01  2.3131014851018213e+02 -7.2807534935465370e+01 -4.9101313646383382e+01  2.1965371375472728e+02 -9.2556170514827159e+01 -6.1416588335121709e+01  1.8983121517012430e+02 -1.0198949154473620e+02 -6.7463902302700177e+01  2.3831770547797365e+02 -3.3744460961676452e+01 -5.8830476757067458e+01  1.9148259338438260e+02 -6.6230523416168111e+01 -1.5996469925058588e+02  1.8914910260092157e+02 -6.7471475117244907e+01 -1.2977590985627438e+02  1.7941110779442960e+02 -8.2087287172122345e+01 -1.2429656713421366e+02  1.7604073949936952e+02 -1.0730462856991430e+02 -1.4376532065490034e+02  1.7547991626087500e+02 -7.5410615613628323e+01 -1.4557538379831570e+02  1.7681002065181553e+02 -5.9905121050880915e+01 -1.1955281065089584e+02  1.8599792305188166e+02 -5.7046441726878804e+01 -1.3060578672045958e+02  1.6449717624236169e+02 -7.7682793569150931e+01 -1.2652908000533601e+02  1.6212526383758734e+02 -7.0247880589202168e+01 -1.1711564855072841e+02  1.9260622016952405e+02 -4.1783126643208753e+01 -1.1728060972983151e+02  2.0712600866911222e+02 -2.9777186786332297e+01 -1.0527753080698584e+02  2.1290909661673976e+02 -2.6553103306517549e+01 -8.6419200152236783e+01  2.0790101528970180e+02 -2.6654541874892754e+01 -9.8673907084138477e+01  2.0242675992960937e+02 -3.6160591168482021e+01 -1.1368932107646781e+02  2.1553907545663540e+02 -3.2897355796949711e+01 -7.9538703626841269e+01  2.2755255920084952e+02 -1.9305223860272335e+01 -7.0218767175441684e+01  1.9978091622422102e+02 -2.5731519294456142e+01 -1.0417450132354482e+02  2.1983910734563702e+02 -1.3805771484044813e+01 -8.7905240198055409e+01  1.9713819744163598e+02 -7.0816859517777232e+01 -6.8625603986935431e+01  2.0939869128160191e+02 -4.1026591850036048e+01 -7.6196142178289037e+01  2.0233485119800298e+02 -6.6111227303196401e+01 -6.6979978701587655e+01  2.1280919644880819e+02 -5.5375735260208103e+01 -6.6586846862070132e+01  1.9933723279810411e+02 -5.3686944805823558e+01 -8.4792153549415019e+01  2.2030007498492742e+02 -6.1200003544138731e+01 -5.9064355560025447e+01  1.9750660552352170e+02 -7.1592806994204281e+01 -5.8352343109037299e+01  1.9633086477376952e+02 2.8826376862834245e+01 -1.3018789825336728e+02  2.1685697246913620e+02 -1.5162649800341155e+00 -1.0128079021526203e+02  2.0413029052288880e+02 -1.5704065266272005e+01 -1.1805944880676886e+02  2.1639603086098597e+02 2.6175074696852960e+01 -1.1237568891830726e+02  2.2111092201786377e+02 1.5309264845662835e+01 -1.0088443790432532e+02  2.0920535502050228e+02 -1.5349314107451491e+01 -1.1755257475956023e+02  1.9873444550643649e+02 -4.7947588140366726e+01 -1.6439817794759244e+02  1.9769149232271491e+02 -4.0634908444392707e+01 -1.3220384079526389e+02  2.0900378336487287e+02 -2.3733116885854177e+01 -1.2991878505401968e+02  2.0422271460169338e+02 8.6452884257628124e+00 -1.3684173396845364e+02  2.1410761564400181e+02 -9.4265455330806436e+00 -1.0281559059240833e+02  2.2923099896092643e+02 1.1535836523307230e+01 -8.5144198892001754e+01  2.2721344120355002e+02 -1.1355454802911963e+01 -7.6028070670293914e+01  2.3187174669712843e+02 2.2371170021984440e+01 -8.1608432320241675e+01  2.5177979059767304e+02 2.2078667124965918e+01 -6.2494408478805092e+01  1.9477736899517103e+02 -3.2170425527776942e+01 -1.0198938359675513e+02  2.0070919421119211e+02 -4.0045937563482902e+01 -8.2760748126578164e+01  1.8372677872710872e+02 -4.5697524096509838e+01 -1.1344549203181788e+02  1.9035570548287032e+02 -5.0148093159203938e+01 -9.7559181971184330e+01  1.7664200957148387e+02 -4.8815509223899994e+01 -1.1321020122556583e+02  2.3154697294920652e+02 -4.1706291983403055e+01 -1.7789121996240391e+02  1.8329044000999698e+02 -6.4656193849619370e+01 -1.2998393065995728e+02  2.0273974300910686e+02 -3.7712005751181991e+01 -1.3107864628081199e+02  1.7941552746661571e+02 -6.7447179654368639e+01 -1.7302230878172253e+02  1.8314168721638379e+02 -6.6834226915986847e+01 -1.2247037667551257e+02  2.0058739110320610e+02 -4.4581400771510737e+01 -1.3135718174074094e+02  1.9577072897418614e+02 -5.1119641364501504e+01 -1.0701593435258759e+02  1.3035386648355069e+02 -1.4603163268125152e+02 -5.5608446842483644e+01  2.1286643695206055e+02 -1.0776925273908870e+02 -4.4696307526831440e+01  1.7525860469212373e+02 -1.0800537458752063e+02 -5.3494290761403903e+01  1.4060737392959268e+02 -1.6633414363249122e+02 -5.8951046858781474e+01  1.5474628823584564e+02 -1.7374464681067218e+02 -3.9709702023208983e+01  2.4876842631024468e+02 -1.6138773015769038e+02 -1.6765915382681567e+00  1.9331605378310334e+02 -1.8318618247196184e+02 -6.6503055577349841e+01  1.8557978021208444e+02 -1.7164906739181387e+02 -8.0707037417836574e+01  1.9599343445448648e+02 -1.0673509696967626e+02 -5.9947457003410236e+01  2.1319647074027102e+02 -2.6141144291058843e+01 -1.4288634362430111e+02  2.3885991446159102e+02 -5.6292298519001605e+01 -1.9047384872341536e+02  2.5713771673707873e+02 -9.3655756915320385e+00 -2.3835825629957978e+02  1.9956200405801198e+02 -5.2480165172311509e+01 -1.4699637790060936e+02  2.3334489776345924e+02 -6.5025076996774118e+01 -4.2692967888756478e+01  2.5497319478509976e+02 -7.3199460299322496e+01 -4.8699477057871711e+01  1.7786683327776521e+02 -8.7954355671089061e+01 -8.9973907994674136e+01  1.6221852178658537e+02 -9.3982163631470840e+01 -9.5187394509658688e+01  1.6386401223189802e+02 -8.0770806859097164e+01 -1.0050163187780873e+02  1.7805403224384222e+02 -7.5628183573895811e+01 -1.0542542117930091e+02  1.8273685589524908e+02 -1.0728669681054662e+02 -1.1792108878804339e+02  1.8105171628175145e+02 -8.3423389746164261e+01 -9.4015408377681482e+01  1.7398858302463734e+02 -9.2563068171999774e+01 -1.0971307781602238e+02  1.6905363484970718e+02 -1.1198811984450090e+02 -1.0519497720112840e+02  1.9212168136161984e+02 -8.9306320846387351e+01 -1.1847956009767142e+02  1.8394660908373794e+02 -8.0125770148974780e+01 -9.9654779403678305e+01  1.7907931612339240e+02 -8.2916104159273573e+01 -1.1922645762333687e+02  1.8363955994735312e+02 -7.5163953425994578e+01 -1.1026836344541353e+02  1.6909788082442699e+02 -1.0341838485225875e+02 -8.6880580073477290e+01  2.1005900943624366e+02 -4.4179486898473918e+01 -7.0086515050034635e+01  2.0503352017008928e+02 -6.0004334919252827e+01 -5.8388490601176649e+01  1.9374493711174966e+02 -6.5842836379919760e+01 -7.4137315795010196e+01  2.0823286388140980e+02 -7.1592757555302640e+01 -5.7904289959818747e+01  1.8601428693137657e+02 -6.2189910891193598e+01 -7.9722491601773555e+01  1.8189873975689582e+02 -6.5899354973759898e+01 -1.1587208472163820e+02  1.7868373041864319e+02 -7.2869983536721790e+01 -1.0177721650061476e+02  1.9180724238815569e+02 -5.5441559350120528e+01 -1.1064867593950557e+02  1.8712918548917705e+02 -6.5892869245156788e+01 -9.3451479752940557e+01  2.1403793227151411e+02 -1.3379360419612269e+02 -5.9060750044180431e+01  1.8177095376661569e+02 -1.0054121850075389e+02 -9.1121587817688777e+01  1.8324360562175579e+02 -1.1577224703897463e+02 -8.7479901109822507e+01  1.9325069564832930e+02 -1.0944068385800249e+02 -6.6452161629792414e+01  1.8327785385690896e+02 -1.1548426243973780e+02 -1.0230062178940504e+02  1.8360106077970298e+02 -1.0154490935332886e+02 -8.2022055849613366e+01  2.2595257438553358e+02 -6.6691944290424123e+00 -5.7838019022227243e+01  2.3580638339725994e+02 7.1072929925624129e+00 -6.0809153222471771e+01  2.4129473679805338e+02 -2.0020124640280283e+01 -4.1302727459479414e+01  2.3130467774601306e+02 -2.3872995967805032e+01 -6.2016158437796484e+01  2.6841991301227404e+02 -3.3078864086989512e+01 -2.3269310896916259e+01  2.5876579685414191e+02 -1.4310571620308221e+00 -4.2644552751672833e+01  2.0143120887746790e+02 -7.6993724502187192e+01 -6.1587826236331416e+01  1.9226492878561928e+02 -8.9073046737153291e+01 -6.2804504791305511e+01  1.7620385302137805e+02 -8.1130033095426072e+01 -8.2771283727458254e+01  1.7819452110424393e+02 -1.3143996144009529e+02 -8.4655196127407578e+01  2.0060700447680796e+02 -1.2010902365543710e+02 -5.6238999301603620e+01  2.3819845984670724e+02 -1.6362661377286480e+02 -5.1545238415062471e+01  2.4365714372640434e+02 -1.5860534773762922e+02 -2.8909350683597989e+01  1.7414399393611376e+02 -1.3216851313975596e+02 -6.7607576571335358e+01  1.9761004546486396e+02 -1.2659940617457644e+02 -4.7546869859368918e+01  1.7960174766438377e+02 -1.8414595587926223e+02 -9.6222809425363764e+01  1.5100321840029380e+02 -1.7297930308709672e+02 -1.1827555238756790e+02  1.8039869029202475e+02 -1.0534519771347894e+02 -6.3120696145297920e+01  1.6522575143857281e+02 -1.2953862323625680e+02 -9.6640003318362162e+01  1.9339122435844951e+02 -1.0347902064821281e+02 -4.7059619416443688e+01  1.8935888076476681e+02 -1.0333560861115971e+02 -5.8706525384529222e+01  2.1597798116860653e+02 -1.0445193920844750e+02 -6.0805974765392094e+01  2.4704669314272923e+02 -1.9643701806833243e+02 -7.6952798549696638e+01  1.8591300954406393e+02 -8.2503816045420749e+01 -7.4545896362073023e+01  1.9188064201267755e+02 -8.6896850950465875e+01 -5.8361253353611950e+01  1.8711447127433414e+02 -7.9410722172307402e+01 -7.2213358143094993e+01  2.1440079457994645e+02 -4.2154106920677002e+01 -5.6640465920958547e+01  2.1780936969546536e+02 -1.2813162828156507e+01 -8.2968957063798229e+01  1.3301509571171749e+02 -3.6842648931529276e+01 -1.1160736163289320e+02  1.7397637897185194e+02 -2.3960098176878571e+01 -1.1779151922979699e+02  1.6832365916297348e+02 -4.4700756798163383e+01 -1.2546493370787343e+02  1.6107415700498285e+02 -4.3394109538360880e+01 -1.1714937054446274e+02  1.9135097896679966e+02 -6.7205963345364395e+01 -8.4035685073795790e+01  2.2731774380375990e+02 -3.8627225406485202e+01 -1.9306701940720052e+02  2.0953864341372113e+02 1.2672220438568214e+01 -1.8582041927811051e+02  2.1117695621103678e+02 -1.7923832558421172e+01 -1.4172597672844554e+02  1.9052803329672770e+02 -1.1716091939176415e+01 -1.8744359490529169e+02  1.7829423143153045e+02 -7.7501095539921636e+01 -1.1850568694945126e+02  1.8821272742523058e+02 -9.2116250252745644e+01 -1.8841789018739095e+02  2.3705596847999874e+02 -5.8245749377934118e+01 -1.7716549134039772e+02  2.0584069172649598e+02 -7.2293455253251182e+01 -1.4503931527689974e+02  1.9368794715636727e+02 -7.0162947085618498e+01 -5.9873026766083704e+01  2.2001550966069851e+02 1.5225205979737165e+01 -8.5220897303494013e+01  2.2560182601344084e+02 8.6282041966235088e+00 -7.5864801784258859e+01  2.1476338433686286e+02 -3.8463294510354609e+00 -1.1980968083176349e+02  2.1751625724007434e+02 2.1879387343368133e+01 -1.1636000296999264e+02  2.1613814188463056e+02 3.2995058685491536e+01 -1.2476944711456196e+02  1.7613937290489719e+02 -1.4331108819251887e+02 -1.0491327259491986e+02  2.2237726683899197e+02 -1.2235721853871135e+02 -7.6854366496124825e+01  2.0002498832191654e+02 -1.2561851797739601e+02 -7.8482370685814359e+01  2.0919907520201809e+02 -1.6333232480866076e+02 -1.1019430248930823e+02  1.8969504788552834e+02 -1.4688924963543775e+02 -1.0196572993781579e+02  2.4644330953365608e+02 -1.3728912093477771e+02 -9.6553087003375069e+01  2.6840591188151024e+02 -1.4712422094823893e+02 -1.1229346156871814e+02  2.9607072766637168e+02 -1.3830665548062569e+02 -8.1912644129852168e+01  2.3832618975072896e+02 -1.2382118245039092e+02 -7.5361437121923444e+01  2.1346409690909658e+02 -1.0548555342379333e+02 -5.7994870184650807e+01  2.1682149568015140e+02 -1.2876436991686069e+02 -7.9086380203417249e+01  2.7493020016045233e+02 -1.5928338914636007e+02 -8.1396962031388696e+01  1.9116493517437510e+02 -1.6560962259851476e+02 -1.1645448691732381e+02  2.4990914128038949e+02 -1.6085000709145115e+02 -9.2754373929634397e+01  1.7343988511702051e+02 -5.2314936184676029e+01 -1.1823226389704149e+02  1.7037754115696453e+02 -6.0302202903601007e+01 -1.1905056529730041e+02  1.5884495416578756e+02 -7.1303193810270145e+01 -1.1840288836582103e+02  1.8106903830461752e+02 -9.5236058942536573e+01 -9.5015491106486039e+01  1.7805883347699097e+02 -7.9349951263120658e+01 -1.0266009433451718e+02  2.5366525954463532e+02 1.0351471019292462e+02 -5.1799198242065607e+01  2.3284155867137022e+02 5.1542020113690910e+01 -8.5169362369513223e+01  2.1253500774181396e+02 7.8598301853532575e+01 -8.9088854783859674e+01  2.2785135611823802e+02 8.1976685921405320e+01 -1.0728644865271612e+02  2.2475930068027770e+02 6.8157338373779879e+01 -1.5346917637286478e+02  2.1819049943080859e+02 3.1313768791506206e+01 -1.2111840494381660e+02  2.0465516190570611e+02 4.7548155776492862e+01 -1.3300928365005583e+02  2.5528382687049606e+02 -1.9340144739343961e+02 -2.8004178552214135e+01  2.4012966844175085e+02 -2.0685275490916001e+02 -4.5707920445857106e+01  1.9687953627389629e+02 -1.3571985837177809e+02 -4.7224416026539366e+01  1.5683951798731985e+02 -2.1463327592566210e+02 -1.0908302196179527e+02  1.6577161817020283e+02 -7.5275076676747076e+01 -1.2000599758524415e+02  1.8507347847183527e+02 -7.5407646024964507e+01 -9.9559487875186164e+01  1.6900103003381264e+02 -3.8812244626929456e+01 -1.1612788054405087e+02  1.8037351679606653e+02 -4.5554760616415130e+01 -1.1695064348073944e+02  1.7865335224166390e+02 -6.0330431282852132e+01 -1.2972485013732813e+02  1.4763563828666028e+02 -3.3991882255115840e+01 -1.1878603258132244e+02  1.8701477868574497e+02 -8.7078818125471301e+01 -5.4166105823430563e+01  2.0291973583253406e+02 -8.5137523564683789e+01 -5.2320616347877248e+01  1.9181016306699823e+02 -8.1021770835708736e+01 -5.5934551085299042e+01  1.8797797551711238e+02 -8.7249230503004441e+01 -4.0986945086120166e+01  2.3032123403230074e+02 3.9016372630635267e+01 -7.5539941753827662e+01  2.2199979853582323e+02 7.1766040521257409e+01 -8.4614724080316691e+01  2.4737354460328604e+02 7.4159241446032198e+01 -5.1062838138706859e+01  2.4069918636724390e+02 4.9328630784986011e+01 -4.3407657378372441e+01  1.6879849169682203e+02 -5.8538964141994086e+01 -1.1617672298430057e+02  1.5282655248966947e+02 -6.4668817879374913e+01 -1.1080038008191845e+02  1.6647559288084850e+02 -8.7216861513879678e+01 -1.2393543727575634e+02  1.5505656551191026e+02 -1.1113886604446093e+02 -1.2782995049861228e+02  1.6225177756098788e+02 -1.0416233936882638e+02 -1.0545654858438203e+02  1.9684033050822904e+02 -5.1225320859615010e+01 -9.4247112350693413e+01  2.2849643223705351e+02 4.0223757168203250e+01 -8.9331810210780503e+01  1.4995966646306547e+02 -1.2179164572341226e+02 -1.2577831825927406e+02  1.6491492954244808e+02 -1.0824100997296118e+02 -1.3011926442803113e+02  1.7576285977027359e+02 -1.4349691993153766e+02 -1.1196015634646702e+02  1.7546446108356741e+02 -1.4432934901812470e+02 -1.0025898243913019e+02  1.2890383490807540e+02 -1.3093327914757157e+02 -8.8248869688543380e+01  1.7580869207282953e+02 -1.2834884517700903e+02 -8.3934391073209198e+01  1.4853451754023271e+02 -1.6524458159067891e+02 -1.0809267501207046e+02  1.5996399930571718e+02 -1.2491820345817126e+02 -8.0063247607203692e+01  1.3496183601783167e+02 -1.4095117733726860e+02 -9.8181274437041651e+01  2.0479695034607963e+02 -1.3275100545091681e+02 -8.0501346859120233e+01  1.6882829576270763e+02 -8.5733142567543766e+01 -1.4147221327580860e+02  1.9279083762763071e+02 -7.7795530728145053e+01 -1.5618408281374948e+02  2.4530926251715997e+02 -1.0206791441631258e+02 -6.2085919245737642e+01  2.8740947274139194e+02 -1.6128686322670575e+02 -9.9114865071009916e+01  1.2755545152657530e+02 -1.6103798379080573e+02 -1.0228311088444556e+02  1.8942702771229153e+02 -1.2953483824177277e+02 -7.4959021839324890e+01  2.0616576094731178e+02 -1.8892839093740417e+02 -1.0233386011858347e+02  1.6051944480731626e+02 -1.2781825587171521e+02 -7.1208347924535019e+01  1.1085953548061154e+02 -1.3322229634821187e+02 -8.0702690085211813e+01  1.4019765689963802e+02 -4.3271225390034893e+01 -1.0484218958074828e+02  1.7290357177750283e+02 -7.6883674750309382e+01 -1.1994838047270582e+02  1.9354197944054911e+02 -3.3128380553688046e+01 -1.6111171303093315e+02  2.0925109852601577e+02 -1.6195800792289179e+00 -1.6019166338471109e+02  1.7364860753386316e+02 -6.8287625028738304e+01 -1.1446191899026860e+02  1.7571287367079520e+02 -7.6416596576104595e+01 -1.1977803667421603e+02  1.7279359193633147e+02 -6.0024369426608587e+01 -1.1597204134614999e+02  1.6444044236854322e+02 -5.8919048179816031e+01 -1.2232186246624268e+02  1.5729808311839335e+02 -8.9621299841957907e+01 -1.3296532493493638e+02  1.6478646701493915e+02 -4.9178529805207447e+01 -1.2235607836941431e+02  2.0062150869064189e+02 -1.0732607360474620e+02 -6.5090916366465223e+01  2.2557984335939801e+02 -9.1027111908011150e+01 -5.2221406520522521e+01  2.1539113838528860e+02 -8.9695900473514982e+01 -3.3260310585928259e+01  2.0657154299081873e+02 -8.5589003290106504e+01 -4.5386119548856023e+01  2.0305835549221067e+02 -9.0170734105332173e+01 -3.4799026172608102e+01  2.1535470417829620e+02 -9.3012930440269372e+01 -4.0946507974796688e+01  1.9697023762251192e+02 -9.3053056560446777e+01 -4.6726798140688409e+01  1.9337752563366914e+02 -1.4046461641958343e+01 -1.1481021808986952e+02  2.3111812640007599e+02 -1.7678194410010093e+02 -9.8049870449781821e+01  2.3370776384311850e+02 1.9440009384008253e+01 -5.1495249952215921e+01  2.4694598191331218e+02 3.9094910395815234e+01 -5.6173101351192166e+01  2.3919957679163622e+02 7.0572991879581863e+01 -6.2740643930723643e+01  1.7390573597703676e+02 -7.6332778575407346e+01 -1.1222280576956967e+02  2.0177001517147448e+02 -8.1918757517741355e+01 -5.0396547596183048e+01  1.8661988871516419e+02 -8.7319320741495872e+01 -5.0516449414275492e+01  1.9541283037389508e+02 -9.2794199575629705e+01 -4.2287052633474431e+01  2.3467568953887536e+02 -9.7783746330598065e-01 -1.6429718302888119e+02  2.2431292126587172e+02 4.7908635246344360e+01 -1.6512777754882603e+02  1.8705464602300844e+02 -2.3698687131887812e+01 -1.1487284509366557e+02  2.1805823309567728e+02 6.0242081865092203e+01 -1.3726649103614852e+02  1.6497342960273048e+02 -9.7907186725762628e+01 -1.1885672031473480e+02  2.5261163389530597e+02 8.7214393730030331e+00 -3.6157882679666869e+01  1.9834829041445175e+02 -9.6320069815719677e+01 -3.2857564154509603e+01  1.8879304086398167e+02 -1.1231654419880699e+02 -7.3219571587738017e+01  2.4913295144638985e+02 8.6043663138015241e+00 -2.4723796925990886e+01  2.3776319662875753e+02 -1.6777981799789906e+01 -3.0943602778646529e+01  2.6203779969381026e+02 -3.1355955798567102e+01 -1.3148335183804893e+01  2.5524109850279859e+02 -2.9794461043898920e+01 -6.1065807554049147e+00  2.0369953322879294e+02 -9.4444186221457613e+01 -3.6637564323478777e+01  2.1702934224361374e+02 3.3557158842437460e+01 -1.4153600409481581e+02  2.3641513805540183e+02 6.7658840518137580e+01 -1.9414735942755479e+02  2.6362268566523403e+02 8.2938653306703955e+01 -2.2163112247135228e+02  1.9533865876759248e+02 1.1656858566104358e+02 -1.2611578649271731e+02  1.6543688994693278e+02 8.9673752796952783e+01 -1.2135106631209149e+02  1.9429217254636194e+02 7.4049339631682699e+01 -1.28886570757009