<?xml version="1.0"?>
<VTKFile type="UnstructuredGrid"  version="0.1"  >
<UnstructuredGrid>
<Piece  NumberOfPoints="7096" NumberOfCells="33174">
<Points>
<DataArray  type="Float64"  NumberOfComponents="3"  format="ascii">36.97725296020508 7.657073974609375 16.62412071228027  36.27681054841196 7.243386293977848 16.59957587740569  36.5541803699241 7.655425316427521 16.29996618401393  36.63018438068379 7.169638752987604 16.42580012640725  36.62387912793325 7.73082151559962 16.79789646327871  36.27050529566142 7.804569056589864 16.97167221427714  36.20080653765227 7.729172857417765 16.47374193501237  36.28311580116251 6.682203531365832 16.22747954053423  36.20711179040282 7.167990094805749 16.10164559814091  36.13110777964312 7.653776658245667 15.9758116557476  31.91144943237305 2.339658975601196 19.53720092773438  32.14377215062935 1.626757479422876 19.09780506099942  31.87154772435981 1.910113490336725 18.94653514827969  32.12172224675972 2.198017454856225 19.14185527767422  31.66127490997314 2.051755011081696 19.34188079833984  31.93349933624268 1.768399000167847 19.49315071105957  31.41110038757324 1.763851046562195 19.14656066894531  31.68332481384277 1.480495035648346 19.29783058166504  31.9555492401123 1.197139024734497 19.44910049438477  32.33199506114638 2.056375934111254 18.74650962761408  33.66269113524577 10.41941581896145 16.1872750518054  34.51257216519637 9.147500162689679 16.29123360399012  34.00158963525544 9.87421264297954 16.71904418482102  34.77062048619443 10.14674117197533 16.18802862693577  34.17367366518671 9.692703338671594 15.7594644709745  35.8785498371431 9.874066524989214 16.18878220206615  35.1095189862041 9.60153799599342 16.7197977599514  35.28160301613538 9.420028691685474 15.76021804610487  34.68465619512765 8.965990858381733 15.3316538901436  34.3404881352651 9.329009466997626 17.25081331783665  37.27751922607422 9.205104827880859 18.16254997253418  36.85466759299714 9.123039818994888 17.69136974408658  37.19546890258789 8.865790367126465 17.9483003616333  37.39109420776367 9.17716121673584 17.74263954162598  37.50466918945312 9.14921760559082 17.32272911071777  36.96824257468659 9.095096207849869 17.27145931317838  37.30904388427734 8.837846755981445 17.5283899307251  37.11341857910156 8.52647590637207 17.73405075073242  36.77261726951081 8.783725358240494 17.4771201331857  36.43181595992006 9.040974810108917 17.22018951563899  34.51340866088867 3.277384042739868 14.99810028076172  33.8783575288502 3.233252016496486 15.52547317807127  34.2833800240256 3.664624876341021 15.69439231439641  34.18493186015249 3.482285919812686 15.04981825509018  34.20683432958639 3.028350139423668 15.4737552037428  34.61185682476178 3.459722999268203 15.64267434006794  34.71030498863489 3.642061955796538 16.28724839937417  34.30528249345949 3.210689095952003 16.11832926304903  33.90025999828409 2.779316236107468 15.94941012672389  33.85645505941631 3.687187796885504 15.10153622941865  37.49355393418582 8.694311736430642 13.56569335215885  37.19718498733004 9.748635178439923 13.02958198924343  37.07866654850179 9.068821394103121 12.93184316774045  37.05281122668889 9.165615739453727 13.74493161715184  37.61207237301407 9.374125520767443 13.66343217366182  37.73059081184231 10.05393930510424 13.7611709951648  37.17132966551713 9.845429523790528 13.84267043865482  36.61206851919196 9.636919742476813 13.92416988214483  36.63792384100486 9.540125397126207 13.11108143273344  36.66377916281777 9.443331051775603 12.29799298332205  35.67391967773438 3.380683898925781 19.82760047912598  35.44046315683921 3.533854694540253 19.3815694661331  35.27791318430504 3.366345138723603 19.76765497638701  35.37808015381758 3.369618946724517 19.12660268024216  35.83646965026855 3.548193454742432 19.44151496887207  35.99901962280273 3.715703010559082 19.05542945861816  35.54063012635176 3.537128502541167 18.74051716998825  35.08224062990078 3.358553994523253 18.42560488135834  34.98207366038824 3.355280186522339 19.06665717750319  34.8819066908757 3.352006378521424 19.70770947364804  31.52791023254395 7.211616039276123 20.71873092651367  31.92432940981179 7.127704837250585 20.40471769526662  32.23176611289701 7.038676061591074 20.94732847654986  32.0805695323259 7.562911130737655 20.86428172805127  32.93562199325006 6.865736083906026 21.17592602658605  32.62818529016485 6.954764859565536 20.63331524530281  32.47698870959374 7.478999928712117 20.55026849680422  32.32074858707963 7.043793635225046 20.09070446401957  33.90008163452148 2.941236019134521 13.32433032989502  33.73697284916356 3.208347721874546 12.78340508969913  33.21595274138139 3.453222188754244 13.1610219640355  33.97345542907715 3.218916535377502 13.08137035369873  34.04682922363281 3.496597051620483 12.83841037750244  33.81034664371922 3.486028238117527 12.54044511350284  33.28932653593705 3.730902704997225 12.91806198783921  32.53182384824128 3.965208358373967 12.99771359817598  33.05284395602345 3.720333891494269 12.62009672383962  33.57386406380563 3.47545942461457 12.24247984950325  38.3503303527832 4.727511882781982 14.96438026428223  38.03745368120162 4.503419384742695 14.57787021089347  38.39645853131793 4.137308760747183 14.50635909877805  38.25900939104049 4.850331768775898 14.54678042817862  38.12877464294434 4.380599498748779 14.99547004699707  37.90721893310547 4.033687114715576 15.02655982971191  38.30513756957522 4.2601286467411 14.08875926267444  38.17490282147907 3.790396376713981 14.53744888149289  38.16768842929777 4.973151654769813 14.12918059207502  38.44258670985266 3.547105638712385 14.04833793327386  32.90398403149221 1.784010470900937 15.89392857301546  33.54490755121533 1.252511221176217 16.48966263196193  33.0234222396339 1.264440655673128 16.16427845708778  32.8591464087304 1.541400194240084 16.65299780783963  33.42546934307364 1.772081036404027 16.21931274788962  32.81430878596858 1.298789917579232 17.41206704266379  32.97858461687208 1.021830379012275 16.92334769191194  33.38063172031183 1.529470759743174 16.97838198271378  33.94695465465507 1.760151601907116 16.54469692276377  33.14286044777559 0.7448708404453184 16.43462834116009  34.12150955200195 1.489326953887939 20.56991004943848  33.77911009654568 1.206561398209465 20.16980093390138  34.20191383361816 1.144775480031967 20.35787963867188  33.88576507568359 1.190454989671707 20.55138969421387  33.65002059936523 0.8915830254554749 20.53286933898926  33.85951437816189 0.8620099243534929 19.95777052313478  33.54336562022732 0.9076894339932329 20.15128057867677  33.9661693572998 0.8459035158157349 20.33935928344727  34.28231811523438 0.8002240061759949 20.14584922790527  33.43671064108941 0.9237958425309908 19.76969181836429  34.78466919935867 10.24858483594734 18.76773251966437  35.37194613861854 10.22220844106866 18.76800550248151  35.25193207358659 9.747670949115552 19.05106649584127  35.09930462432104 9.672244980089108 18.47379272727166  35.4139400492834 9.095905124230871 18.17985293487896  35.6865815635809 9.645868585210424 18.47406571008881  35.56656749854895 9.171331093257315 18.75712670344856  35.71919494781451 9.246757062283759 19.33440047201817  35.83920901284645 9.721294554236868 19.05133947865841  35.95922307787841 10.19583204618998 18.76827848529866  33.83620071411133 12.92197036743164 17.81080055236816  34.0362260699582 12.4669194919372 17.11230253008289  34.07211636087267 12.92737182203221 17.00667000281663  33.70745228311388 12.86102183881688 17.35418034064622  34.20086479187012 12.98832035064697 17.46329021453857  34.16497450095566 12.52786802055196 17.56892274180483  34.56552886962891 13.0546703338623 17.11577987670898  34.52963857871445 12.5942180037673 17.22141240397524  34.49374828779999 12.13376567367229 17.32704493124148  33.57870385211643 12.80007331020212 16.89756012892429  34.58317947387695 5.443515777587891 21.03793907165527  34.38995309031073 6.008193853389183 21.14341508185526  34.45715281373424 5.864186480426875 20.63380218324925  34.08575953626344 5.658461705181836 20.97312730529667  33.58833959864993 5.87340763277578 20.90831553893807  33.89253315269721 6.223139780983127 21.07860331549666  33.95973287612073 6.07913240802082 20.56899041689065  34.33112615359153 6.284857183265861 20.22966529484322  34.26392643016801 6.428864556228168 20.73927819344924  34.1967267067445 6.572871929190475 21.24889109205525  39.89416122436523 4.834065914154053 13.47035026550293  39.4738245831236 4.554010577191837 12.86175796898517  39.4738245831236 4.43225259303046 13.26854822548541  39.89416122436523 4.447533845901489 13.09535026550293  39.89416122436523 4.95582389831543 13.06356000900269  39.89416122436523 5.077581882476807 12.65676975250244  39.89416122436523 4.569291830062866 12.68856000900269  39.89416122436523 4.061001777648926 12.72035026550293  39.4738245831236 4.045720524777897 12.89354822548541  39.05348794188198 4.030439271906868 13.06674618546789  36.85497661167574 10.48732404138466 14.25053600424812  37.17761266356202 10.45274216394713 13.63023167460457  37.40795475995603 10.08852118254177 14.38147532480835  36.61835151723685 10.24423238263341 13.71173111809458  36.84869361363086 9.880011401228055 14.46297476829837  37.08531870806975 10.1231030599793 15.00177965445191  36.62463451528173 10.85154502279001 13.49929235404433  36.81914901733398 11.73414993286133 18.13504028320312  37.14221996901183 11.35594924115305 17.63533880136722  37.20230484008789 11.8973650932312 17.81439018249512  36.78578948974609 11.91236972808838 17.71553039550781  36.7524299621582 12.09058952331543 17.2960205078125  37.10886044142394 11.5341690363801 17.21582891367191  37.1689453125 12.07558488845825 17.3948802947998  37.5854606628418 12.06058025360107 17.49374008178711  37.52537579176574 11.51916440152293 17.31468870065921  37.46529092068969 10.97774854944477 17.13563731953131  36.06954956054688 3.743776082992554 17.27526092529297  35.7067231112635 3.505027707549532 16.6137870129947  35.81257714568733 3.334923799964388 17.12604745000642  36.14493942260742 3.459238529205322 16.7961
[...]
<PointData  Vectors="u"> 
<DataArray  type="Float64"  Name="u"  NumberOfComponents="3" format="ascii">2.4352857092308479e+01 5.6393280256756924e+01 -2.0358932648473305e+02  7.9373480318001626e+01 3.9563093485453585e+01 -1.8035691630643032e+02  7.3059007720454389e+01 4.6339551324166905e+01 -2.0199767087120486e+02  5.8482534818741755e+01 3.5929045372825158e+01 -2.1095557307548390e+02  5.1510756884864030e+01 5.0942767612163763e+01 -1.8037388449301056e+02  6.9133463867986208e+01 4.8008187684514382e+01 -1.6040848497010833e+02  9.1350119390596987e+01 4.4682896272422795e+01 -1.7993565389825548e+02  1.1421973623283931e+02 3.0777175101823566e+01 -2.0452481077107495e+02  1.1832098979911773e+02 3.5150308746432472e+01 -1.9894456178931051e+02  1.2505950023252190e+02 4.0290186917953356e+01 -1.9061256498654384e+02  5.2497116360238778e+01 2.5195049956819052e+01 7.1231600398467336e+01  8.0671266748198192e+01 1.2836520994835045e+01 4.3021928663447589e+01  9.9682145760817207e+01 2.1313228586678736e+01 4.7720912660497540e+01  7.6075005365236109e+01 2.1673473788931741e+01 4.3396572353727535e+01  9.2387713720041390e+01 3.1491803058322176e+01 7.3528032196736888e+01  7.0993508478633615e+01 1.4544448909456614e+01 7.5312706144324082e+01  1.4770983746420069e+02 2.4888048113247965e+01 6.7039245806176353e+01  1.0051868838061027e+02 8.1873157744585896e+00 6.9289428226463670e+01  7.9354012841713683e+01 1.0807338467089759e+01 6.3545808833902676e+01  8.0689003826814684e+01 1.8918901628608104e+01 2.6977946564007528e+01  1.5941411566020508e+02 6.5823939184991445e+01 -1.3028859852239168e+02  1.4453081133276848e+02 5.1050637232438518e+01 -1.2731599591530360e+02  1.4342407293973687e+02 4.9595764724313646e+01 -1.2120925395225710e+02  1.3944592719397835e+02 5.7948311658215061e+01 -1.4840854499022146e+02  1.6201756798738722e+02 6.3773855303630903e+01 -1.3082648859310183e+02  1.2072099401913688e+02 5.2312605214700291e+01 -1.7294456361165035e+02  1.2284158489925397e+02 4.8849002365404928e+01 -1.4131368437219746e+02  1.4503837223820821e+02 5.6997235394343541e+01 -1.5678294198196761e+02  1.6873346342009214e+02 6.1519500004512125e+01 -1.3698536593790595e+02  1.2439010937786526e+02 3.9289908268324254e+01 -1.1416969457436537e+02  6.1724918387923815e+01 1.0845838032193207e+02 -1.7963113784814684e+02  7.0737930306965580e+01 7.0146657734773399e+01 -1.5430059645100121e+02  4.4469354431674127e+01 1.0349844131974052e+02 -1.9133697428983416e+02  9.5922189532759162e+01 8.2935109828429788e+01 -1.5662702488150629e+02  7.6070551524682912e+01 7.9107148750720128e+01 -1.5261659389065912e+02  7.3814067871196002e+01 6.8670274684434574e+01 -1.6116034950330655e+02  7.3628193824431648e+01 8.9954606112001088e+01 -1.5625374398916992e+02  3.1066635895604524e+01 8.8941841368363313e+01 -1.7044820097598034e+02  6.2586097706844804e+01 6.8087209764500344e+01 -1.5704329840773633e+02  7.8468951715050537e+01 5.7148643434430859e+01 -1.5691748342830803e+02  7.5632380914857023e+01 1.6366526326580993e+02 -1.5587575851754931e+01  8.6744614318038401e+01 7.9185263847723320e+01 -2.7711447035417923e+01  1.0429668259558386e+02 9.8646451491806346e+01 -5.3051316935002866e+01  1.0693294882963168e+02 1.2762289364708536e+02 -3.3194483366636362e+01  7.1491399303050954e+01 9.1721052701973008e+01 -1.5147735194488703e+01  8.2854507336897086e+01 1.1919151382829216e+02 -4.1956640265347673e+01  8.2191834081380946e+01 8.5900568025674787e+01 -6.4598693810801890e+01  7.9335598743061553e+01 7.1465380119708897e+01 -3.3339960922765435e+01  7.5250150666796785e+01 5.7908759711227361e+01 -1.9476555010213819e+01  1.1405392707144040e+02 9.7235206314674201e+01 -4.0002968722121928e+01  2.8980171472863640e+02 3.4044030436619771e+01 -1.7688973350105269e+02  2.5480327922177440e+02 4.9056614994625200e+01 -1.5590756758879496e+02  2.6533115956675329e+02 5.2211692055624816e+01 -1.4024735890354020e+02  2.4798665682962030e+02 4.3154130689797917e+01 -1.8456214407083650e+02  2.7783137432224663e+02 3.0708739909062775e+01 -1.9486140047045555e+02  2.6485509339613287e+02 2.7922969473830356e+01 -2.1593188456218721e+02  2.3295812051480684e+02 4.2013263824339155e+01 -2.0109385029242625e+02  2.1309737737014814e+02 5.3751897659324818e+01 -1.8644073625526798e+02  2.3110992598654292e+02 6.1017678896315999e+01 -1.5068810852933413e+02  2.3616936899090010e+02 7.1254891070033594e+01 -1.1447405305301666e+02  1.4375240891362063e+01 1.3570178521040562e+01 -2.0611252891110961e+01  1.8915259588009548e+01 1.8060104023216496e+01 -2.5977897298172874e+01  2.0678758733392467e+01 1.4373112082641226e+01 -2.0362257609074931e+01  2.1531047812013483e+01 1.8755261070293180e+01 -2.7067250581847535e+01  1.0622525781924701e+01 1.8067599661239939e+01 -2.7434126572270799e+01  6.3803631408931958e+00 2.0927195690637912e+01 -3.0762461444908560e+01  1.8675178717576031e+01 2.2981519578833684e+01 -3.3699819401952027e+01  3.2481013765358071e+01 2.5957576722444959e+01 -3.3671219154495915e+01  2.9002125717005189e+01 1.9593103435977397e+01 -2.4843462859746786e+01  2.5441207215226608e+01 1.4354630564753512e+01 -1.8555277270443195e+01  1.3983837195974067e+01 -4.4403889739070458e+01 -1.6670074817198916e+01  3.3190663356024295e+01 -3.3274316219406785e+01 -1.7376449532663052e+01  2.7387146881398660e+01 -3.0410507423354613e+01 -3.8458758713316286e+01  3.6341402650990474e+01 -3.1815473325229615e+01 -3.5783509350983827e+01  3.7247007913532777e+01 -1.6828281366059684e+01 -5.1585861632198387e+01  3.9664016911318910e+01 -2.0266818698821929e+01 -3.7176664364483877e+01  4.8699957042558680e+01 -2.1960407603401499e+01 -3.6428663553906674e+01  4.8023815151140845e+01 -2.2202117139610806e+01 -2.0843251603447715e+01  2.0840145930541162e+01 1.0922603188138758e+02 -4.7727134329268360e+01  6.8732672285967254e+01 1.1479111764417306e+02 -6.5101333488767111e+01  9.7964665129675282e+01 8.5101186861988580e+01 -4.1036833379914846e+01  3.7900896463300178e+01 1.3136157961780540e+02 -6.7201442683309935e+01  1.0436194349806065e+02 1.6884811045011884e+02 -7.7964955251833828e+01  1.1470817296573195e+02 1.2955538807407174e+02 -5.7129000963072279e+01  1.1936425234514314e+02 9.3366429809719193e+01 -4.1971062968681899e+01  1.2955256943825972e+02 5.5714814568686535e+01 -3.2287284185312281e+01  1.2318069350490551e+02 7.8572083490522118e+01 -3.6615202152022064e+01  1.1763339473482654e+02 1.0101928670566812e+02 -4.3635992881536723e+01  2.8293987221236199e+02 8.8081200833264290e+00 -7.8086602555950563e+01  2.9172311032287217e+02 2.0553313238659001e+01 -9.0522329575742461e+01  2.8669832012948615e+02 7.3857674557943966e+01 -1.1330759554610620e+02  3.1598569843771600e+02 7.1848177179133377e-01 -1.1254653467516306e+02  2.6187450489317797e+02 3.9606502334136813e+01 -6.2111857990407159e+01  2.3019180929958844e+02 5.2337042426445421e+01 -4.3704445230480992e+01  3.0602671145136048e+02 5.9937738772768604e+01 -1.2790866442934043e+02  2.4366604124115716e+02 8.1435927394086022e+01 -1.0418304659573784e+02  3.3446658773644543e+02 1.6175416470624191e+00 -1.2662370208511675e+02  2.4405957617791168e+02 1.1658565291083636e+02 -1.3376237757969534e+02  7.7269024558867585e+01 2.6883666810722129e+01 -1.4757714773412697e+01  6.7794148532173764e+01 1.8797250197333707e+01 -6.9485531646771177e+00  7.3987643946015154e+01 1.7727359533813114e+01 -1.1049681261445446e+01  8.0902318755976125e+01 1.9242463356996623e+01 -1.0728865931994562e+01  7.1300066372089020e+01 2.8597283248084938e+01 -1.0541616651759217e+01  8.2030707617573498e+01 1.3488841673075020e+01 -2.4265048717745969e+00  7.8067753458994630e+01 1.2015701531568375e+01 -6.3713332474871160e+00  7.2261789353035610e+01 2.0019945336339141e+01 -7.8923355251875043e+00  6.5936015694577122e+01 2.9407465418904586e+01 -9.1369829888379090e+00  7.2097032245702991e+01 9.8494195307115948e+00 -7.8907893173478483e+00  2.3187786199166847e+01 8.8457726393443625e+00 -4.6302445647389749e+00  2.5850442993215246e+01 7.5759864407217830e+00 -1.0335929304991438e-01  2.7917753906962812e+01 1.0254886909874063e+01 -7.7522614529205649e+00  2.0650691515148402e+01 1.1090349708539186e+01 -4.4127278311754647e+00  1.5515284133453738e+01 5.2760628106224825e+00 1.1396649945650472e-01  2.8482633969955671e+01 6.5718214850223680e+00 -3.7163583606433592e-01  2.4930785624584541e+01 4.8588153805607677e+00 4.8356334818872408e+00  2.3226391750317703e+01 8.6935346441566050e+00 -7.1050655513751044e+00  3.0583715366390638e+01 7.8564464536455558e+00 -6.8258942784092662e+00  3.2907442603116522e+01 4.2142793668557941e+00 9.4400212282645199e+00  9.7877000242041319e+01 2.1622966638912601e+01 -1.1298011944307865e+02  9.0030525494209328e+01 2.8126447969324012e+01 -1.2048548940732951e+02  8.1594699185880117e+01 2.2406422004563620e+01 -1.0758674951606345e+02  9.1683370379362373e+01 2.9031274269007557e+01 -1.1325683043516204e+02  8.4698398573289751e+01 3.6180641819980536e+01 -1.1653114116108635e+02  8.3054332506203053e+01 3.6236121801960685e+01 -1.2229036290035083e+02  7.4063418729417393e+01 2.9946827547653527e+01 -1.0821536014426519e+02  6.4219873357877233e+01 2.1825510337015832e+01 -9.9792672027109418e+01  7.1774567403689474e+01 3.0335968938025129e+01 -1.1647691960671236e+02  8.4427917282603218e+01 3.7325003670071446e+01 -1.2971026083820152e+02  1.4066321684416801e+02 4.8793602409268281e+01 -1.7974257641424452e+02  1.2414642788864180e+02 5.9269590885612736e+01 -1.7345602581538205e+02  1.1000764296909868e+02 5.8022774161200601e+01 -1.8364969854615077e+02  1.2783106624437336e+02 6.7606005177937348e+01 -1.8069347070848707e+02  1.1488910655786155e+02 5.0742584360846188e+01 -1.7051529027007246e+02  1.2584310714612688e+02 5.0533907078348136e+01 -1.6093628198519178e+02  9.4122936808131797e+01 3.8511725516235828e+01 -1.7730705794666360e+02  1.0770574754480674e+02 4.7349898135603013e+01 -1.7057072047341481e+02  1.1745914121498051e+02 4.7449110603214244e+01 -1.6083195011664549e+02  1.2658893138096434e+02 7.5577968594845274e+01 -1.8864377085670046e+02  2.9021304766791967e+01 -1.8759090442736525e+01 -4.3654644067307906e+01  3.0107119319000471e+01 -8.5496586831437860e+00 -5.6735151163911048e+01  3.7882823459090758e+01 -1.2983178653355012e+00 -4.9515126820170977e+01  3.0975407537048813e+01 -1.4551412701988365e+01 -4.3877913033300544e+01  3.1063574323368481e+01 -1.5892526508520838e+01 -4.2504605476394396e+01  3.5401558112963123e+01 -8.9646533722328137e+00 -5.3836811042891171e+01  3.9353206077971890e+01 -4.4791223839541443e+00 -4.5743082819615111e+01  4.6388623313160444e+01 5.7638893604301602e+00 -5.0592003052444134e+01  4.1749004031983254e+01 1.3994464161701494e+00 -5.5105725361042872e+01  3.7526385498104659e+01 8.4249180325176337e-02 -6.0137213293393636e+01  9.0005497258367825e+02 -9.4084216537512134e+01 -1.3103492977074649e+02  6.0375982908858816e+02 9.9546945902481923e+01 -3.8610517114084494e+01  6.4597876041812754e+02 8.3559504306052872e+01 -8.1846722018313940e+01  7.6196997756787471e+02 -7.3022154252858215e+01 1.8384922701413520e+00  7.0424363924489694e+02 1.2836327805777067e+01 5.6482505316552789e+01  6.3350731859599352e+02 9.0509031990078164e+00 -1.7414369178238353e+01  6.8943341365488743e+02 -7.7914732520755777e+01 -1.5004927461861985e+01  1.0092934756435133e+03 3.2736045645968915e+02 3.0949600924398137e+01  5.7975333697203200e+02 2.9483308054867808e+02 -4.0895343932194578e+01  4.2809220066020367e+02 1.6113335148243414e+02 -1.0488946507098166e+02  1.8991028894400378e+02 5.2853466607543645e+01 -2.1102454578082586e+02  2.2406393037312583e+02 4.7293971135330466e+01 -1.9392566755731471e+02  2.1595138914864970e+02 3.5786306509495198e+01 -2.4251135729396179e+02  2.0546788628080577e+02 5.8437948280110035e+01 -1.8219285292951622e+02  1.9242400299608431e+02 4.7612936487665365e+01 -2.1680628396900789e+02  1.5876144676820687e+02 4.3995949168554603e+01 -2.4427160477587589e+02  1.9764853532151932e+02 6.3739958043067233e+01 -1.7657560781280134e+02  1.5479229508922862e+02 2.6980943064059179e+01 -1.2441987889471615e+02  9.2147213261588945e+01 3.5499481752620149e+01 -9.8675240274468365e+01  9.3502505154179588e+01 4.9639363991260510e+01 -7.7619278793177742e+01  1.2363306166606884e+02 2.2467772423779142e+01 -1.2376038561746465e+02  8.4735035946203155e+01 7.9973886296407635e+00 -1.3135823482627924e+02  5.9943837125789877e+01 2.0544607241813061e+01 -1.3155407461117633e+02  6.0110792934977738e+01 1.8181559971503329e+01 -8.4341458307831431e+01  4.2462829723495588e+01 1.4162119863202367e+01 -4.1536822468579444e+01  4.5288075172886629e+01 1.6571087811596733e+01 -9.5031640177049695e+01  4.7327262058172373e+01 2.8540911088390637e+01 -1.2651195437544325e+02  -1.1018016181061146e+01 4.1607263209268105e+01 -6.4589635348443664e+01  8.7903520974766085e+00 5.6815217289326171e+01 -5.2276564191430111e+01  2.0139213572049943e+01 2.7493049185445244e+01 -6.3319846903244482e+01  -1.4355417923294047e+01 1.1781222220260206e+00 -5.9522985500239635e+01  -4.5072613610069610e+01 8.4255565796987199e+01 -7.0122307652599034e+01  4.1932554026069369e+01 1.7809392387699705e+02 -1.7770841198981569e+02  -6.0629950585650590e+01 5.4979735476140590e+01 1.7835330448787182e+01  1.3795647619540566e+02 -9.1265451084149447e+01 -1.2452627150131276e+02  5.3482078877754070e+01 5.4680511147034387e+00 -6.8574860751525605e+01  4.9942417840461196e+01 3.0320874255938101e+01 -5.5592688949495624e+01  2.5195219448541027e+02 2.9088566088207660e+01 -2.3411249905500455e+02  2.6691699559786923e+02 2.8363761565176876e+01 -2.1446478903871559e+02  2.3059921431083254e+02 2.6842498798143339e+01 -2.4714522262724680e+02  2.2260062803067746e+02 4.0440969279627161e+01 -2.1051493904793224e+02  7.0749618758922272e-01 1.3013846911474598e+01 -3.7842054785173531e+01  1.7443409104097789e+01 1.4068349018336233e+01 -4.0355471891276089e+01  1.7051030529303077e+01 1.2544680351551543e+01 -3.1961619416507002e+01  1.7941167965771015e+01 1.6019573246201542e+01 -3.7861086898350500e+01  2.9079167764040368e+00 5.8740267030856614e+00 -3.8434719815843088e+01  7.9474383146703653e+00 8.9375208504198405e+00 -3.2771027175586447e+01  6.2039824377798141e+00 7.0838144442678841e+00 -2.5300418114550716e+01  4.7640327013559824e+00 8.7540619140638398e+00 -3.4694974818549973e+01  1.8829658195270960e+00 6.0029316908438997e+00 -4.2965439543286706e+01  3.0761475045481223e+01 1.8285848177316829e+01 -3.1931612045764858e+01  2.1803212858288703e+02 1.8861068911639106e+02 -1.0947395235749661e+02  2.4739650799869119e+02 1.2410364670128391e+02 -7.2075552277820933e+01  2.3165527702697713e+02 1.2031558180793978e+02 -7.3346755704630183e+01  2.6322826491015155e+02 1.4331788808681424e+02 -1.0224447897362940e+02  2.2169752480373103e+02 1.6128232817343803e+02 -6.8402543524716251e+01  2.1944689519008409e+02 1.3510984157796349e+02 -9.5737103191859859e+01  2.2626626848494303e+02 9.9112567804264742e+01 -1.0153552867594139e+02  2.3887571056814537e+02 1.1083139424798482e+02 -9.9063252896796698e+01  2.2654020907245697e+02 1.4193345202611891e+02 -3.6638671220187184e+01  2.6228546943563163e+02 1.0093888714107980e+02 -7.5086461573605817e+01  1.0170856054391872e+02 1.2641765623791329e+01 -7.7779621573733863e+01  1.1274569262567056e+02 2.6453827371152837e+01 -9.5419818165741489e+01  1.0069742470657583e+02 2.3044351787590458e+01 -8.3974089038593704e+01  9.5273542705376357e+01 2.3936445834005298e+01 -9.6865776715507778e+01  1.0458439923601577e+02 3.6540201347374271e+01 -1.1634294432303165e+02  9.2169879875656704e+01 3.3086045607304406e+01 -1.0559463219764834e+02  1.0000949698974426e+02 3.2019769437489103e+01 -9.4068627937561388e+01  1.1269408410424616e+02 3.4331693819879980e+01 -1.0361750257707499e+02  3.6286641281064050e+02 1.4490542436793513e+02 -7.2117496154275287e+01  2.6773251554627797e+02 9.7545719255583890e+01 -5.5661546934029126e+01  2.6638302517076670e+02 7.0115643128683402e+01 -3.2609051643566588e+01  3.0154550347251023e+02 1.0493020114024078e+02 -4.6220449185188947e+01  3.0761554081959332e+02 7.5690721948441194e+01 -2.1219944338095818e+01  2.9730670292701728e+02 1.1572293563637949e+02 -7.3423636329991837e+01  2.6847857929483285e+02 5.1408907843281355e+01 -2.0976038712914757e+01  2.7673391185623706e+02 7.9312150896785980e+01 -4.4658275722327254e+01  2.6141991462035753e+02 9.3658015248983276e+01 -3.9326693962488989e+01  2.2672922505744819e+02 4.9078839814191070e+01 -4.5073446470928566e+01  2.0841081575727776e+02 2.1554725274942498e+01 -2.0998018447881311e+01  1.9053203639986691e+02 3.3090088734316396e+01 -4.9399475056044771e+01  2.1466943540833816e+02 3.1221186081646984e+01 -3.0625100586069625e+01  2.2150976240816931e+02 4.1789774733793962e+01 -3.2544778541789171e+01  2.1908071693432007e+02 3.5164916649398165e+01 -2.5298663189607254e+01  1.8196274510934305e+02 1.9981012874963216e+01 -4.0045601919041594e+01  1.9244969576298843e+02 2.5357343835507791e+01 -4.3212713583732743e+01  1.9873161083000971e+02 1.6520529089064155e+01 -2.1701315803511246e+01  1.7086064787659387e+02 1.7521161682984772e+01 -4.5586030211558246e+01  -3.1240600734302770e-01 9.5678605819085688e-02 -1.8477779107568100e+01  1.6688719507447630e+01 1.8420733860987202e+01 -5.8205019263737590e+01  9.7442256401102885e+00 1.0599952937150148e+01 -4.4153258812917827e+01  -1.0400007005399932e+01 1.4976836274858824e+01 -3.5931117579772661e+01  4.6998335560809643e+00 6.2388409444660287e+00 -2.9935340007036395e+01  -2.0942304394945161e+01 2.1047680465641381e+01 -5.2237185135419843e+01  1.4668950011469388e+00 2.0903135746778723e+01 -6.2882416780557975e+01  -5.1241015229695259e+00 2.4153481431019213e+01 -5.0770220227191132e+01  8.8262909755502683e+00 1.6016114575490896e+01 -4.7552467960554488e+01  2.4281500487458263e+01 1.9220365249762526e+01 -6.8170380011949604e+01  4.3642996325666346e+01 -3.4170327291324845e+01 1.2770912413918162e-01  4.8184656278821940e+01 -3.4910337985925203e+01 -1.3228630105172613e+01  2.1697020298982402e+01 -4.4057966612883085e+01 7.1512800746211020e+00  3.8194377878734144e+01 -4.9871004512497670e+01 2.9753013228906763e+01  6.5340375358585618e+01 -3.4384113505889815e+01 7.2729348853533775e+00  8.1783554714408666e+01 -2.2019333777891955e+01 -1.7139350738713205e+01  6.3889194698225374e+01 -2.3068428414263487e+01 -1.9291755378351858e+01  5.7488936291488663e+01 -4.7141902408836769e+00 -1.0742224900724403e+02  1.1873946348488941e+02 1.0363795476353172e+01 -1.3068899954184801e+02  1.2969481125602209e+02 -6.2574334019431554e+01 -2.5115225660165635e+02  3.8644624887326401e+01 -3.1293821749145407e+00 -2.4149225186954692e+02  9.3798868578813497e+01 3.8805379163762581e+01 -1.6401144976120844e+02  7.4719826045544195e+01 2.9579261023170176e+01 -7.3565418299530890e+01  8.3782674916664320e+01 5.2726165498337103e+01 -8.8499512373139567e+01  2.8728544949498604e+02 2.8222681796545597e+01 -1.3094668794697637e+02  2.6844685484370342e+02 2.1713584739831532e+01 -1.1914266541559734e+02  2.9272844491830534e+02 6.3927507409078634e+00 -1.1607851228585939e+02  2.7788451531257402e+02 5.3869405237507424e+00 -1.4389837158987140e+02  2.9368795172772343e+02 5.8794796385380712e+00 -9.0830415460728133e+01  2.7087385945392538e+02 3.6187124043395215e+01 -9.6147064430138983e+01  3.0627557408812106e+02 2.3714093697849250e+01 -5.9791045495044742e+01  2.8347336396833941e+02 3.1017704617536161e+01 -6.6690142251667837e+01  2.8185777661586349e+02 -4.6663982338284393e+00 -1.7589911958971823e+02  2.5981297536205801e+02 5.0638863531729285e+01 -7.1250312413692455e+01  6.0999583156537874e+01 2.5247895367836808e+01 -2.1437989250379879e+01  5.1169097621653322e+01 3.2952442308948420e+01 -9.4379129517168519e+00  4.8616080943130207e+01 3.1167433154741214e+01 -1.8217102746283306e+01  5.1619601201058117e+01 2.2086978676035770e+01 -1.0602865060861568e+01  4.6889192145945394e+01 1.8675225074285482e+01 1.0641082061775338e+00  4.7134036193341544e+01 2.8526992515209223e+01 3.4768240906605818e+00  3.7659899042951849e+01 2.5433740088312760e+01 -2.3142957651259803e+00  2.9381581714163268e+01 3.6649352268559973e+01 -1.3854894576851295e+01  3.4145113407078647e+01 4.0261544414569187e+01 1.1536583628502985e+00  4.8461501910497482e+01 4.2307934185135153e+01 4.1393909753411151e+00  1.538