<?xml version="1.0"?>
<VTKFile type="UnstructuredGrid"  version="0.1"  >
<UnstructuredGrid>
<Piece  NumberOfPoints="6812" NumberOfCells="30570">
<Points>
<DataArray  type="Float64"  NumberOfComponents="3"  format="ascii">22.67933234638663 10.08755740002254 1.590970188871872  21.96209017258312 9.563075926926402 1.320191836728527  22.05064928981427 9.890474274292117 1.663188077767443  22.16068142473114 10.11407582434421 1.253936357885627  22.5907732291555 9.760159052656823 1.247973947832956  21.64203050307565 10.14059424866588 0.9169025268993827  21.53199836815877 9.916992698613788 1.326154246781199  22.0721223075 9.786677476978493 0.9109401168467113  22.50221411192436 9.432760705291107 0.90497770679404  21.4219662332419 9.693391148561698 1.735405966663015  22.73111915588379 11.07773971557617 0.1048400029540062  23.06685553916849 10.7352380808966 0.4564903008032642  22.63951503166116 10.83704805938171 0.4564903008032642  22.83515930175781 10.68427991867065 0.1048400029540062  23.15845966339111 10.97592973709106 0.1048400029540062  23.58580017089844 10.87411975860596 0.1048400029540062  23.26249980926514 10.58246994018555 0.1048400029540062  22.93919944763184 10.29082012176514 0.1048400029540062  22.74355517753519 10.44358826247619 0.4564903008032642  22.54791090743854 10.59635640318724 0.8081405986525223  22.34967041015625 10.5523796081543 3.336554050445557  22.09082858491615 10.19524274545737 2.712335518375027  21.70418787157546 10.41811571481144 2.87738287128853  22.28956112638132 10.17053156791575 3.221090542037405  22.15093786869109 10.57709078569591 2.827799026783179  21.90292041304062 10.39340453726983 3.386137894950908  21.45617041592499 10.23442946638536 3.435721739456259  21.84281112926568 10.01155649703128 3.270674386542756  21.95220532722593 10.60180196323753 2.3190440031208  22.22945184260638 9.788683527677206 3.105627033629253  23.08970848181958 11.05923438790862 0.9061357753020726  23.52729467144838 10.66726521080264 0.7619836402295239  23.60865311354953 11.19811606561798 0.5544854774528145  23.00835003971844 10.52838353309328 1.113633938078782  23.63150605620061 11.52211237263001 1.004130951951623  23.55014761409947 10.99126151781467 1.211629114728332  23.46878917199833 10.46041066299933 1.419127277505042  21.06745910644531 8.184585571289062 0.7288209795951843  21.78508665148703 8.238416675240241 0.6518925706082476  21.36269666735618 8.40801000943824 0.9638830589288366  21.43653964996338 8.527589321136475 0.4168304912745953  21.48984909057617 8.014992237091064 0.4168304912745953  21.80562019348145 8.870593070983887 0.1048400029540062  21.73177721087424 8.751013759285652 0.6518925706082476  21.85892963409424 8.357995986938477 0.1048400029540062  21.91223907470703 7.845398902893066 0.1048400029540062  21.65793422826704 8.631434447587417 1.198945138262489  22.36598459742153 8.36046168664512 1.088087502159866  21.86573699454608 7.603869544147653 0.4796188591738173  21.81923491438514 7.362340185402239 0.8543977153936284  21.73858457132609 7.996887316494828 1.026671426828059  24.49678993225098 11.96261024475098 1.554126977920532  24.2054129096921 11.70382619058747 0.9439734778755307  24.0641479942258 11.74236130869049 1.279128964936078  24.44676891700686 11.4763038982222 1.328995016270065  24.63805484771729 11.92407512664795 1.218971490859985  24.77931976318359 11.88554000854492 0.8838160037994385  24.58803383247317 11.43776878011917 0.9938395292095181  24.39674790176274 10.98999755169342 1.103863054619598  24.01412697898168 11.25605496216171 1.05399700328561  26.67263031005859 12.99295997619629 0.1048400029540062  27.10969051689938 12.52594418585612 0.5551347064010875  26.89104649091971 13.02066662626035 0.6719581724003353  26.7346504625781 12.6282643801005 0.5551347064010875  27.04767036437988 12.8906397819519 0.1048400029540062  27.42271041870117 12.78831958770752 0.1048400029540062  27.266086545241 12.91834643201596 0.6719581724003353  26.7966706150976 12.26356878400471 1.005429409848169  26.95306664343921 12.65597103016456 1.122252875847417  27.10946267178083 13.0483732763244 1.239076341846664  24.74427653191047 10.32114946721364 1.531818110696397  24.55422166915723 10.50528004269532 0.9406406981439779  24.81953744258556 10.80947662800451 1.254627262506909  24.32148699108764 10.50167039090254 1.381053902809086  24.24622608041254 10.01334323011167 1.658244750998574  24.47896075848212 10.01695288190444 1.217831546333466  25.24232698340839 10.62895570431561 1.40539147039422  24.97701120998005 10.32475911900641 1.091404906031289  24.71169543655171 10.02056253369722 0.7774183416683581  27.24799919128418 12.15701961517334 1.966920971870422  27.62697196235251 12.20879925409027 1.494530303129572  27.33398673380919 11.74948064982654 1.475567384118369  27.63616943359375 12.05626964569092 1.842435479164124  28.02433967590332 11.9555196762085 1.717949986457825  28.01514220466208 12.10804928460784 1.370044810423273  27.72215697611876 11.64873068034412 1.35108189141207  27.41997427633419 11.34194168447975 0.9842137963663158  27.71295950487752 11.80126028874347 1.003176715377518  28.00594473342084 12.26057889300719 1.022139634388721  30.46594047546387 11.83211040496826 0.88577800989151  30.09799368685548 11.95548960439608 0.4953090064227581  30.40384440404534 12.08386834020923 0.8956403864581575  30.06966018676758 11.88723516464233 1.001816004514694  29.67337989807129 11.94235992431641 1.117853999137878  30.03589761543695 12.20724753963705 0.5051713829894056  29.70171339815919 12.01061436407015 0.6113470010459423  30.00756411534905 12.1389930998833 1.011678381081342  30.34174833262681 12.3356262754502 0.905502763024805  29.73004689824709 12.0788688038239 0.1048400029540062  29.07864952087402 11.47432994842529 0.1048400029540062  29.4082959452759 11.64221172186227 0.3491252978666203  29.38355934292347 11.4723929088553 0.1048400029540062  29.40434820956056 11.77659937612459 0.1048400029540062  29.10338612322645 11.64414876143226 0.3491252978666203  29.70925803161 11.7746623365546 0.1048400029540062  29.42908481191299 11.94641818913156 0.3491252978666203  29.12812272557888 11.81396757443922 0.5934105927792345  29.68846916497291 11.47045586928531 0.1048400029540062  21.95974922180176 11.23447036743164 0.1048400029540062  21.8008898624387 10.68753230804876 0.5108712649266944  22.08391952514648 10.82211017608643 0.1048400029540062  21.64608478546143 10.88423013687134 0.1048400029540062  21.33242034912109 10.53398990631104 0.1048400029540062  21.92506016578343 10.27517211670354 0.5108712649266944  21.48722542609837 10.33729207748846 0.5108712649266944  21.77025508880615 10.47186994552612 0.1048400029540062  22.20808982849121 10.40974998474121 0.1048400029540062  21.21995738486591 7.47048197853486 0.8214123553355166  21.44334701041522 7.773462878345651 0.7916093474944064  20.95895957946777 7.624287366867065 0.4168304912745953  20.844069480896 7.881604671478271 0.7586239874362946  20.62067985534668 7.57862377166748 0.7884269952774048  21.33484748343768 7.213164673923654 0.4796188591738173  28.78799057006836 11.91139984130859 1.345672011375427  29.36983438668947 12.25510359326021 0.9645408506302947  28.927139722688 12.23962355175631 1.078449856749069  28.95805664782362 11.86268370787391 0.9695413020773309  29.23068523406982 11.9268798828125 1.231763005256653  29.40075131182508 11.87816374937782 0.8556322959585565  29.09720580044326 12.19090741832162 0.7023191474509727  29.06628887530764 12.56784726220402 0.811227702122711  21.03836059570312 7.314041137695312 5.317885875701904  21.80532605954003 7.253988930623979 5.0904312935972  21.47232806988693 7.50961784030292 4.78394002436734  21.47684371777512 7.576658998979068 5.228391356459626  21.36684293746803 6.991371069340223 5.179925812839479  21.36232728957985 6.924329910664076 4.735474480747194  21.03384494781494 7.246999979019165 4.873434543609619  21.02932929992676 7.179958820343018 4.428983211517334  21.69532527923294 6.668701000985135 5.041965749977054  21.91532683984711 7.839276860262823 5.138896837217347  23.1678295135498 8.546794891357422 3.619563102722168  23.34671831150063 8.135072192292391 3.424487152140062  23.23801279087075 8.334454497437655 3.194665231745165  23.17076290542941 7.844266752670432 3.442859228292112  23.27653503417969 8.347412586212158 3.849385023117065  23.38524055480957 8.148030281066895 4.079206943511963  23.27946842605929 7.644884447525168 3.672681148687009  23.17369629730901 7.141738613983442 3.266155353862056  23.24094618275036 7.631926358750664 3.017961357315109  23.3081960681917 8.122114103517886 2.769767360768162  23.27265930175781 11.81881999969482 0.1048400029540062  23.16087768217734 12.09024436718782 0.7167077273216017  23.45208267897921 11.67046618616242 0.5544854774528145  22.87042354822459 11.60321466266953 0.6690585341319218  22.46818779469138 11.38760932564424 1.233277065309837  22.75864192864413 11.87463903016253 1.280926258499517  23.049846925446 11.45486084913713 1.11870400863073  23.34030105939875 11.94189055365541 1.16635320182041  23.04909606259688 12.36166873468081 1.328575451689197  25.45027459785913 11.55105922893231 1.051711585118954  25.01082337329599 11.25724785643026 1.144603737096829  25.04469013214111 11.4941349029541 0.4943280033767223  25.31006050109863 11.10272979736328 0.1048400029540062  25.71564496681665 11.15965412334149 0.6622235846962381  25.27619374225351 10.86584275083944 0.7551157366741132  26.12122943253468 11.21657844931969 1.21960716643847  22.40899085998535 9.210818290710449 5.438249111175537  22.23551784080212 8.922392498854022 4.746086593407437  22.05128799003307 9.195404183271746 5.194001193779751  22.16215884991623 8.525047575486635 5.288572974196442  22.59322071075439 8.937806606292725 4.990334510803223  22.77745056152344 8.664794921875 4.542419910430908  21.80445597996395 8.509633468047934 5.044325056800656  22.34638870068527 8.25203589106891 4.840658373824128  21.6935851200808 9.179990075833043 4.949753276383966  22.29517936706543 9.87458324432373 3.920594930648804  22.05289112101816 9.47466408
[...]
<PointData  Vectors="u"> 
<DataArray  type="Float64"  Name="u"  NumberOfComponents="3" format="ascii">9.4044219831240554e+01 -4.0658698385596658e+01 -2.5407443393604115e+01  6.2209134300815116e+01 -3.4766741230360815e+01 -2.1884839489204161e+01  6.9696260416258824e+01 -4.1431842053705701e+01 -2.8848228070207156e+01  7.3219801837373410e+01 -4.1991118355210489e+01 -2.2569451883877715e+01  8.6039220459762788e+01 -3.2465636965798957e+01 -1.8356775898281281e+01  5.5996541431268966e+01 -4.5297592832430425e+01 -1.8913112544029271e+01  5.2710216448814222e+01 -4.4329882809241013e+01 -2.4986946201104249e+01  6.6042036418217009e+01 -3.5969464332980991e+01 -1.6036240510148836e+01  7.8559154567064184e+01 -2.5147781367737942e+01 -1.2535746295698575e+01  4.6964680900609736e+01 -4.6194479265808738e+01 -3.0240714483555113e+01  9.2562441959486975e+01 -5.0794955646982132e+01 -7.4867040421344067e-02  1.0433321064820983e+02 -4.5294002146181050e+01 -5.9718631292692193e+00  8.9493111832345235e+01 -4.8068363824995828e+01 -7.4726306454121607e+00  9.5568076588860720e+01 -4.5189249818558011e+01 -2.9559818279524856e-02  1.0779036255105433e+02 -4.8755163448916591e+01 2.9971773323415646e-01  1.2208229053134723e+02 -4.5228672323311351e+01 -2.5967581188180050e-01  1.0981529835684340e+02 -4.1309420802442531e+01 -2.6722834031121051e-01  9.7102482937289906e+01 -3.7697872218555844e+01 -5.4165664069418140e-01  9.1767111273949709e+01 -4.1592045169708356e+01 -6.4898478468401466e+00  8.6860423372245535e+01 -4.5996239917075670e+01 -1.4308953832573980e+01  1.0384088002593255e+02 -7.0201895673282436e+01 -7.8748383795117860e+01  7.7131123013489329e+01 -5.5715834569751088e+01 -5.4323789970913403e+01  6.0546066778241254e+01 -6.4108036306456412e+01 -6.2761966467720519e+01  9.3319035909604622e+01 -5.6441319050876288e+01 -6.7715604245325210e+01  8.4014119928410693e+01 -6.4229613262519280e+01 -6.1372001365267096e+01  7.0510886610225754e+01 -6.7418451813552537e+01 -7.9778732884758710e+01  4.4386305587066367e+01 -6.6314233819603032e+01 -7.7900108682161687e+01  6.6395481962673742e+01 -6.1825564096882474e+01 -7.1694836888586607e+01  7.2003533421764743e+01 -5.9730886520855258e+01 -5.0128049672090093e+01  8.0730802229625610e+01 -5.1599830680624748e+01 -6.2471005298897715e+01  1.0769226068149102e+02 -5.3140840302356871e+01 -1.5957910758329399e+01  1.2139468127278634e+02 -4.2868332127971271e+01 -8.5213240279709890e+00  1.2717434746941545e+02 -5.4516443899519331e+01 -6.2348343379138740e+00  1.0467790221511383e+02 -4.4470273046717764e+01 -1.7386940110704582e+01  1.3129791981055783e+02 -6.7326671563738813e+01 -1.7119570701341647e+01  1.2983449177673043e+02 -5.2850055268457240e+01 -1.6181714238159032e+01  1.2533543959094634e+02 -4.1878488123508752e+01 -1.6748720160030278e+01  2.3370894914048716e+01 3.4743025031453627e+01 -7.1289815288128624e+00  4.5490658995750252e+01 1.3365657140273816e+01 -1.4209653747398843e+01  2.7471138252365950e+01 6.2879300690010238e+00 -1.4939302061343646e+01  2.5802811071140535e+01 3.7313130994823749e+00 -2.5730156439611871e+01  4.7318625544303835e+01 4.0934956711369885e+01 -1.5407519067664166e+01  2.9008191724559996e+01 -1.5835316412640244e+01 -1.0068604341560352e+01  4.0575196170968859e+01 -9.0529416935548177e+00 -1.6567931332990739e+01  2.9786577566351671e+01 6.6297731801794049e+00 -9.7594298295113866e+00  5.0079946147555454e+01 3.2348452048460750e+01 -6.1610238601690535e+00  4.3090299368711023e+01 -7.5880333435056855e+00 -1.5372823195521116e+01  6.9673861205241849e+01 1.1928323151129812e+00 -1.0238012387403897e+01  5.9491766581695089e+01 3.3036761516967530e+01 -3.3176240654304125e+00  6.1982966803782055e+01 3.6221359502555259e+01 -2.8826655693270578e+00  4.9791172707859964e+01 1.7765637219597817e+01 -8.9199267336007235e+00  2.3316909009522348e+02 -8.8945900199008818e+01 6.5772463346778380e+00  1.6216773133716100e+02 -7.4396770649349989e+01 -2.4129721369150303e+00  1.7009178848912097e+02 -7.3997834873594130e+01 -1.3585334654224008e+01  1.8488988365152210e+02 -5.2713278378015509e+01 -4.7215533645220881e-01  2.4103835987794039e+02 -8.6744545172988282e+01 1.6872891092486821e+01  2.4524854973533868e+02 -3.9020098653153397e+01 6.1596884647414418e+00  1.8215945610779221e+02 -4.7129672191675532e+01 5.3750946281566758e+00  1.6131643388293628e+02 -3.8298678102989058e+01 -2.1126807716350906e+00  1.5121754307233780e+02 -5.5473834063691712e+01 -8.9946493147686901e+00  3.1370950586915310e+01 -6.4203648821749255e+01 -1.8550026164153451e+01  6.4775450394017824e+01 -6.2409072564797313e+01 -3.9338811218064014e+00  5.5321397114458222e+01 -7.2261353403844694e+01 -7.7621282925393924e+00  5.2141495420538554e+01 -5.8594646422188113e+01 -9.9058529599506340e+00  5.0674865372247965e+01 -6.8160917489573194e+01 -1.8211591160031833e+00  6.4725759876864672e+01 -7.2500407614065381e+01 -4.0423744023122715e-01  6.0837282040051797e+01 -7.1240303826876087e+01 -6.3874124190103343e+00  6.6612231711773759e+01 -4.5818266875573848e+01 -4.1552884213354488e+00  6.0130738082918818e+01 -6.2527090235355296e+01 -3.4261885265763925e+00  5.7723287953214665e+01 -7.0287044283211543e+01 -3.5539973712843409e+00  1.5377560518878005e+02 -1.8659177900115495e+01 4.1188077507794381e+00  1.5080274213011546e+02 -2.4993020713803130e+01 4.3223836021662750e-02  1.6295905559345883e+02 -2.3376642466729962e+01 3.3995588856545318e+00  1.5067748127226460e+02 -3.0424427316187078e+01 -2.8876037332088784e+00  1.4732146049835470e+02 -2.2859834737179096e+01 -3.8735952011426931e+00  1.4421923199254672e+02 -1.8980317504800610e+01 -8.8593279487067772e-02  1.5530527889306461e+02 -1.3585411374619625e+01 8.9832550394451207e+00  1.5122805817917998e+02 -1.5739093381210939e+01 3.3437611445410473e+00  1.4383692735891361e+02 -1.5778414261784592e+01 6.8520023282547604e-01  5.1587380692779199e+01 -5.9459383808713440e+01 -5.2011061155622054e+00  6.7976308305531120e+01 -7.2574915239427796e+01 -1.6891284343439189e+01  8.7500686613044223e+01 -6.4003441981754264e+01 -7.6281546991921658e+00  6.3445620374992458e+01 -8.4402758868360920e+01 -2.1210595968929141e+01  5.9428355835545766e+01 -8.4647111382170777e+01 -3.6177237766009874e+01  7.5673574497445770e+01 -8.8738155430527783e+01 -2.9820503605669494e+01  9.1416424812075050e+01 -8.0194125294512475e+01 -1.9929465885597200e+01  1.1498042864131683e+02 -6.0897821582660221e+01 -4.7617516290464801e+00  9.6105000931152304e+01 -7.7007874370028347e+01 -1.3437606820081532e+01  8.2302374454500693e+01 -8.8835509597838936e+01 -1.9590134940266211e+01  3.6351695038966221e+02 -4.0357991469270695e+02 5.4485293321587520e+01  1.0597461646264053e+02 -3.1289559364666832e+02 1.8476811860881071e+01  6.7429621727325838e+01 -3.9684309242889941e+02 1.2628672122970599e+01  2.0219907487052885e+02 -3.5552793649164983e+02 -1.3149240368599688e+00  1.6873224104401015e+02 -2.7405137622347797e+02 -5.0700375161887472e+01  1.1129047475740994e+02 -2.4310315043882505e+02 -7.1560906880603739e+00  1.4966015686644340e+02 -2.2692372165278775e+02 -1.5345837600761312e+01  1.5681895331558681e+02 -2.8226643308471176e+02 -3.7810731783327135e+01  8.0114388202307623e+01 -2.5348070670869916e+02 -2.4936780219293873e+01  1.3325127742421969e+02 -2.1366196726881520e+02 1.6272088156294262e+00  1.6869627628676272e+02 -1.4350915398169766e+02 -1.0343688928735947e-01  1.7238113602055523e+02 -1.7752494690073939e+02 -1.0489022200309024e+00  1.8380438787037710e+02 -1.6395836471881324e+02 4.9204606787588273e-01  1.6000936464962180e+02 -1.8080366636392591e+02 1.5828995744619294e+00  1.5804919937084176e+02 -1.5259738099026904e+02 -3.3169732319673790e+00  1.7029064529566455e+02 -2.1325486311231913e+02 -3.5786962031160618e-01  1.4253349682952296e+02 -1.8881114223612514e+02 -7.2902410578837600e+00  1.4663035928977953e+02 -1.6223879754083015e+02 -1.2066375435050917e+01  2.0623454063580627e+02 -1.9101926674178895e+02 -1.0293271275172633e+00  6.6032180978019198e+01 -5.1024984570191990e+01 -2.4037821369312595e-01  6.1464587898527682e+01 -4.8404415378355367e+01 -1.0581363072683375e+01  7.0073201441465926e+01 -4.8526569334033113e+01 -3.9635264413510321e-04  5.5635857918023113e+01 -5.0191746755909321e+01 6.5008346869640665e-01  4.2213197744572774e+01 -5.1283434164862072e+01 -6.2967567689249488e+00  6.3568017518435532e+01 -4.3468388263651953e+01 -9.1098022513480412e+00  5.0757834039939112e+01 -4.8102866241558750e+01 -1.3946111436190234e+01  5.7028048876753097e+01 -4.7387088756708607e+01 7.6963584300401913e-02  7.2684707077242152e+01 -4.3725723341824398e+01 -3.7543350763503675e-01  4.5866785823304362e+01 4.4123667647666743e+01 -1.8937771282014082e+00  4.9026056919423844e+01 3.4361700770450220e+01 -3.6877980582767540e+00  3.7013993918711485e+01 4.3945455055610786e+01 4.8818661416348492e+00  3.2503557000948945e+01 4.5707006530284126e+01 -8.2787439695287501e-01  2.6852802610827201e+01 5.0641291813048660e+01 -4.7478629983608300e+00  5.4404331612067082e+01 4.8358196483363265e+01 8.8570242196645874e-02  1.1746663619149010e+02 -1.5915241054999257e+02 -7.3247218807912702e+01  1.0522302417627405e+02 -1.8497034375097078e+02 -5.5920250203176728e+01  9.7442147109578329e+01 -1.4384872359053048e+02 -5.0222358816538851e+01  1.3841785756720722e+02 -1.6363938295035047e+02 -2.7989728887691790e+01  1.3852196452644591e+02 -2.1925195312416605e+02 -6.7221821810507350e+01  1.5664516995845401e+02 -2.0376560457278973e+02 -2.1944647998401361e+01  1.1461355894219452e+02 -1.5965351177757023e+02 -2.5318972584782390e+01  8.0405655429779500e+01 -1.3742886365752724e+02 -2.9659126900143214e+01  1.5486092985820583e+00 -5.9942476280298152e+01 -3.1073748611329556e+01  4.3885765006306357e+01 -4.6099921118107417e+01 -2.5322830901758401e+01  2.5540524960321239e+01 -4.7246392888050217e+01 -3.1453720843845108e+01  2.8444413662389273e+01 -6.6484880326215929e+01 -3.8050737741087040e+01  1.9497158883143211e+01 -3.6853934570672934e+01 -1.6960680618460113e+01  2.1009193947546219e+01 -1.7929571541989954e+01 -9.8101112183917483e+00  -7.8568478955098175e-01 -3.8748573544702346e+01 -2.2816696123632763e+01  4.1623421803356542e-01 -1.6777408018169076e+01 -1.4239628149671832e+01  3.9614983068475276e+01 -1.8972355905164189e+01 -6.2291232808645747e+00  5.0891547926055992e+01 -7.3432383353935151e+01 -4.5234922440846013e+01  1.0826260415577794e+02 -5.3057586319634758e+01 -6.7868455896773540e+01  1.2248408114514287e+02 -2.6087240143703387e+01 -3.8424402497470943e+01  1.1553376875657418e+02 -2.5717851949596099e+01 -3.9558155582394889e+01  1.0953744339321311e+02 -1.6745645191510551e+01 -2.6676325025953709e+01  1.1992116004363237e+02 -6.1497659162502394e+01 -6.0557605200303684e+01  1.3029304465998106e+02 -6.1704274566336814e+01 -4.8638956166279527e+01  1.1271450372318733e+02 -1.6777030842796425e+01 -2.5536523992171045e+01  1.0334906927953831e+02 5.9106772672866503e+00 -1.0731322578517267e+01  1.0768245991613919e+02 -1.7464617942513854e+00 -1.7153666186608600e+01  1.1266179840080108e+02 -8.0225155568008031e+00 -2.2318210405516620e+01  1.1506701468717583e+02 -6.5610881950241122e+01 -6.7959497534556892e+00  9.7351620975356653e+01 -8.3591379326546132e+01 -1.7299924796043204e+01  1.2478681904054757e+02 -6.1469140838394608e+01 -1.8193498653142377e+01  9.5602051832495619e+01 -6.1324342928479112e+01 -1.5388013169545724e+01  8.3745753604830867e+01 -5.7821970390367909e+01 -2.9164536794339877e+01  8.8782969449395907e+01 -6.5044517458843217e+01 -3.1807411976020084e+01  1.0661059900615652e+02 -6.4367614010480239e+01 -2.3936106158762620e+01  1.1246228582964230e+02 -7.8390175276474338e+01 -2.8052517908611822e+01  8.2840646275797027e+01 -7.3274597595285812e+01 -3.3898230344430324e+01  1.6806556589640022e+02 1.2904517759763918e+01 -5.3234735577863272e+00  1.7584264273775608e+02 -1.7033106748920122e+01 1.9597640961932272e+00  2.0821462693487291e+02 1.1789250869941625e+01 -7.3155138479801378e+00  1.6510554397949565e+02 4.8403213746340725e+00 -3.8392651860098197e+00  1.5094734969405079e+02 8.5305714387492237e-01 -1.1029802226283203e+00  1.5895982286285226e+02 -9.4161690257600199e+00 1.4650897036177646e+00  1.2967679330878593e+02 -6.1097846596651513e+00 4.4938887777687579e+00  6.0813787773163632e+01 -1.5002928133846845e+02 -9.7082535866448751e+01  6.5930673481695536e+01 -9.5829306598362322e+01 -8.5095824104176813e+01  5.7623992535395914e+01 -1.2885279746259999e+02 -9.5208047286603303e+01  6.3826895255540769e+01 -1.0593512040818881e+02 -6.8950740577702476e+01  7.2219445324745649e+01 -1.0608371347130365e+02 -8.2336707924628243e+01  8.1909679672973283e+01 -8.2080454771918838e+01 -6.8523354301200200e+01  4.9701754969791658e+01 -9.8398446001235385e+01 -7.0156148437725051e+01  6.9654805670136454e+01 -7.8791645006829484e+01 -5.6412401334411832e+01  4.8843116471404358e+01 -1.1632256238167341e+02 -9.8922114695691192e+01  9.2635206168073921e+01 -6.7365065350370330e+01 -1.0621155882273342e+02  6.8021169990989193e+01 -5.4500863966545985e+01 -6.7318594591597247e+01  5.1243717826463062e+01 -6.4691511469110580e+01 -7.7387740187681274e+01  8.7647421105935635e+01 -5.4412852480751539e+01 -7.6360416831971122e+01  7.0245869124399078e+01 -6.5913994161601877e+01 -8.5686752173867220e+01  6.5235085092272456e+01 -6.6807234474063790e+01 -9.3188557126031910e+01  5.4784585451856380e+01 -6.1285084224041668e+01 -7.0072700300276992e+01  2.2358403985006072e+02 -8.6684934430886855e+01 -6.7519186075529447e+01  1.4643667658809983e+02 -5.4797239296315929e+01 -3.1317751417515037e+01  1.5388319876288503e+02 -2.3890836492007299e+01 -2.1674402703795536e+01  1.6269860313079147e+02 -6.4529262224913097e+01 -4.1012948760639730e+01  1.3173805867258110e+02 -4.6852765490078774e+01 -2.5639357716979344e+01  6.5267080712190932e+01 -5.0826450044991176e+01 -2.3186609302652837e+01  6.3665770471932149e+01 -5.4441678454241163e+01 -3.0713418941762907e+01  7.1736300791009029e+01 -4.9442150775739599e+01 -2.2438212396839361e+01  8.6456740672963093e+01 -5.2488375726447252e+01 -2.1050776431489609e+01  5.2585305169498021e+01 -5.0743349929270941e+01 -2.4590624438619656e+01  7.0705576613515376e+01 -4.4690078972562070e+01 -1.6506725533535857e+01  4.6907961011220181e+01 -5.3163325582026829e+01 -3.0537651804382012e+01  7.1396267603302206e+01 -2.6403486894088942e+01 -3.3140850964026285e+01  8.3510357406527504e+01 1.0002416767443789e+00 -1.6999273795067595e+01  9.2129215024755965e+01 -1.7691399116707629e+01 -2.9874690957253499e+01  8.3565166353514826e+01 -6.0424261756939206e+00 -1.5738330385022097e+01  6.3819556131854696e+01 -6.8258822622878732e+00 -2.0603552889618911e+01  6.2700323979311499e+01 1.7148159688619803e+01 -8.6983548878375299e+00  1.9673686414950498e+02 -3.3136996190539570e+01 -2.6371965470693315e-02  1.6949368437805168e+02 -1.9227205667570828e+01 1.4635313364549932e+01  1.7073981306217797e+02 -3.5805164201615867e+01 -6.1941140221709556e-01  2.1012319901190961e+02 -3.4024712241023323e+01 2.5127699216686651e+01  1.9749592095588551e+02 -2.4053609648209715e+01 1.9543203061236156e+01  1.7191699093329555e+02 -1.6841968042701541e+01 1.2970957096272477e+01  1.8294711398750775e+02 -3.6949640310309476e+01 1.8709339289010400e+00  -1.6261385242251123e+00 -2.3751691886725563e+01 -9.0777916257565856e+00  5.9006870878107179e+01 -6.9904322728024670e-01 -1.3846852343903864e+01  8.0885748095404679e+01 -1.5580181352624136e+01 -2.4157250946746320e+01  5.7303701942572296e+01 -8.1491925108280494e+00 -2.2188411578915392e+01  5.2938400544149296e+01 -3.8608285508907265e+01 -4.0813909992517793e+01  4.1645614006010618e+01 -4.9928424715887793e+01 -1.7265545053545154e+01  4.4746426745245536e+01 -4.1112043475600139e+01 -1.8582246152404633e+01  3.9769048515580998e+01 -4.1586286810178031e+01 -2.2889189362694193e+01  4.2563235643219556e+01 -4.4025416545471849e+01 -1.8353948159868157e+01  4.5007032942792691e+01 -4.7045615471960275e+01 -1.8853743089651456e+01  2.9926527240858455e+01 -4.9820620881360121e+01 -1.2051747077928123e+01  2.1560430616954168e+01 -3.8489507660069009e+01 -1.8467044131661648e+01  3.9365373370834185e+01 -4.3459917081211458e+01 -8.6114548235360697e+00  4.9550293450248425e+01 -4.3186319390323177e+01 -1.3353160415497053e+01  1.4572364698179203e+02 -1.3825833188140570e+02 -3.1663015044176095e+01  1.8506203073265576e+02 -1.0686594642911574e+02 7.3726981696558127e+00  1.8002684551255149e+02 -1.6777660354465939e+02 3.1344761070857885e+00  1.9682789206287282e+02 -1.1525237292496897e+02 -4.4695476476392582e+00  2.2110253132371614e+02 -9.7357462446652931e+01 -4.8811599974234410e-01  2.1818999003381176e+01 -5.3671103570682980e+01 -2.1626552127714501e+01  -9.1345651265361172e-01 -4.1465147007746509e+01 -1.6037721351348392e+01  1.5816952263659704e+02 5.1832577282314816e+01 6.7274987300895832e+00  1.2599494568690915e+02 1.7977544414575249e+01 -1.2962515070035425e+00  4.7744767937227621e+01 1.5491745112205962e+01 5.7705428751755772e+00  1.3368371837244138e+02 1.4694690376201002e+01 7.0326951212877287e+00  1.4421180195505821e+02 9.2221279964611810e+01 1.2107637196539857e+01  9.4297197173187683e+01 -4.4619058395117737e+00 1.1055126763073678e+01  6.3156060588119402e+01 2.3029739676475149e+01 1.8871091365567317e+01  4.8402994517833726e+01 -2.8392269963441461e+01 1.9612495985321917e+01  1.0432812210631427e+02 5.9355813340058795e+01 -1.3358448623362566e+01  7.0320157334858479e+01 -8.1462322418008270e+01 -1.3227352402333511e+02  5.8784277208016299e+01 -6.8423048328052460e+01 -9.9021846378122802e+01  8.2798496094222429e+01 -6.7072344467623680e+01 -9.9819399517120473e+01  1.1156138241950735e+02 -6.5457319646651939e+01 -9.0524833547404512e+01  7.9285984891222242e+01 -7.2802086560695841e+01 -1.2432559345309188e+02  1.6425346172501096e+02 -2.9839977415042796e+01 -2.3577870257632001e+00  1.5348258909912101e+02 -4.1710404768654499e+01 -1.3723206024643000e+01  1.4218228155542553e+02 -4.2326996960878915e+01 -9.6283252412937816e+00  1.3757162950481268e+02 -3.2868092489722088e+01 -1.0907334573576721e+01  1.5707997681073658e+02 -5.9974902836382519e+01 -3.6839767380918964e+01  1.1448552358480576e+02 -3.9171896177434640e+01 -2.6974380509790986e+01  1.2625016441099713e+02 -4.6841736383445038e+01 -4.0613145050101537e+01  1.1867617942206755e+02 -4.7673829524465233e+01 -3.2615945644829104e+01  1.3816707935574902e+02 -4.9110497964263217e+01 -2.5492203287885495e+01  9.8454105675533285e+01 -3.9702481935019094e+01 -3.1682088734875119e+01  1.0983879035177799e+02 -4.1772319550131876e+01 -2.1491387772643670e+01  1.0247184767186253e+02 -3.8295711186823951e+01 -3.9591629367812715e+01  1.1643942162220857e+02 -4.4300698124539082e+01 -5.9828404566781160e+01  9.1960615981635016e+01 -4.4206977020944535e+01 -5.0629909042567562e+01  1.0917165001968547e+02 -4.3425529775246879e+01 -5.0045127156662595e+01  9.5587624063560085e+01 -5.6016644593127687e+01 -5.2649909932536822e+01  9.7363669336426213e+01 -4.7852078169145280e+01 -6.3907904720698063e+01  8.7879645827543627e+01 -5.0167839768277773e+01 -4.4287073178158252e+01  3.6181061236907954e+00 -5.4393133334611669e+01 -4.9464823635420444e+01  3.0249778763514211e+01 -3.9162773479853271e+01 -4.2432884027615614e+01  3.3997392453305721e+01 -5.3293552889380955e+01 -5.3405757248851700e+01  3.1006488204294733e+01 -5.8700071017314258e+01 -5.9136051050846760e+01  2.9462145438452605e+01 -4.4943048692226505e+01 -4.5384807382160510e+01  6.0536291753957565e+00 -5.3432068396664683e+01 -4.6875109290243323e+01  8.6766899987336732e+00 -4.8254976916559627e+01 -4.0836192501325627e+01  5.2995447506719216e+01 -5.2665267757626843e+01 -5.5801498464707471e+01  1.0862941071808453e+02 -5.5327109169795300e+01 -9.7878634928477410e+00  8.8318776657904209e+01 -5.3925099841406272e+01 -1.3298490562777324e+01  1.4887722803751011e+00 -8.4364760555697149e+00 -2.1055676533216072e+01  2.9150191936133464e+01 -2.4489087325283808e+01 -3.1633642114088190e+01  3.8298213207715854e+01 -2.1724144918348166e+01 -3.0394493411022644e+01  3.5980648840896805e+01 8.0019269132156960e+00 -1.2898461482172847e+01  6.2209910736752768e+01 -2.9490947426927498e+01 -3.9232385811958757e+01  9.1502607473713354e+01 -4.0922237774056860e+01 -8.1043285943222912e+01  9.0158590455346115e+0