<?xml version="1.0"?>
<VTKFile type="UnstructuredGrid"  version="0.1"  >
<UnstructuredGrid>
<Piece  NumberOfPoints="7104" NumberOfCells="32461">
<Points>
<DataArray  type="Float64"  NumberOfComponents="3"  format="ascii">37.49216068403028 12.21648981040125 8.095694586986866  38.32857882343121 12.76088951826553 7.662516863849856  37.72596752893017 12.2500195962564 7.546906245750904  37.67538188048195 12.78230404265796 7.710752303809349  38.09477197853133 12.72735973241038 8.211305205085818  37.85860307693361 13.34811827491466 7.325810020631831  37.90918872538183 12.8158338285131 7.161963962573386  37.95977437383005 12.28354938211154 6.998117904514942  36.79878997802734 9.262807846069336 1.688738942146301  37.32069326716318 9.333729389357142 1.294572145291262  37.25862847739209 9.61936321761161 1.665707308905719  36.86208273249521 9.471778038191371 1.401003093071871  37.25740051269531 9.124759197235107 1.582307994365692  37.71601104736328 8.986710548400879 1.475877046585083  37.71723901206006 9.481314568777382 1.55927636112511  36.92537548696308 9.680748230313407 1.11326724399744  37.32192123185995 9.828333409733647 1.377971459831289  37.71846697675683 9.975918589153887 1.642675675665137  39.01948928833008 10.41880989074707 4.076076984405518  39.12393159979191 10.71591591793173 3.516412914395175  38.81026210352705 10.41138852638027 3.623369851082657  39.45682525634766 10.48663473129272 3.584073543548584  39.89416122436523 10.55445957183838 3.09207010269165  39.56126756780949 10.78374075847739 3.024409473538242  39.24759807154463 10.47921336692593 3.131366410225723  38.60103491872403 10.40396716201348 3.170662717759796  38.91470441498889 10.70849455356493 3.063705781072314  39.22837391125374 11.01302194511639 2.956748844384833  36.74039077758789 10.16604995727539 0.1048400029540062  36.84578209468074 10.03015680125121 0.8070672540779583  36.63945054382354 9.819691187879625 0.6458232473078618  36.51377057403594 10.07819677068907 0.5009334958586344  36.86607074737549 9.907544374465942 0.2497297544032335  37.0724022982327 10.11800998783753 0.4109737611733301  36.99175071716309 9.649038791656494 0.3946195058524609  37.19808226802029 9.859504405028078 0.5558635126225574  36.28715037048399 9.990343584102757 0.8970269887632627  37.4044138188775 10.06997001839966 0.7171075193926539  34.21928829129851 12.64002394638204 1.355772822332426  34.6433209036302 13.02752186071445 2.375452396717719  34.02509089041567 13.17507725383906 2.421098060884977  34.13534608042709 13.22252349583151 1.712030072888084  34.75357609364163 13.0749681027069 1.666384408720825  34.10903310128708 12.59257770438958 2.06484081032932  33.99877791127566 12.54513146239713 2.773908798326214  34.05140386955567 13.80502304528099 2.06828732344374  34.6696338827702 13.65746765215637 2.022641659276482  35.28786389598474 13.50991225903176 1.976995995109223  38.59587860107422 9.887117385864258 7.719407081604004  37.95599753934775 10.23163860221262 8.072740517776943  38.17576293870272 9.752457963769956 7.998655237335422  38.10858005983224 10.1625982174695 7.686196974237862  38.44329608058973 9.956157770607378 8.105950625143084  38.29071356010524 10.0251981553505 8.492494168682166  38.02318041821823 9.821498348513078 8.385198780874504  37.62128151859026 10.43807904907475 7.65298686687172  37.68846439746074 10.0279387953752 7.96544512996928  37.75564727633122 9.617798541675656 8.27790339306684  38.49338912963867 12.95320987701416 5.418471813201904  38.66875169905117 12.54496232300814 5.847685287167121  38.41373537214687 12.90735713273104 5.784030149151373  38.8133487701416 12.95629501342773 5.69372034072876  38.74840545654297 12.59081506729126 5.482126951217651  39.13330841064453 12.95938014984131 5.968968868255615  39.0683650970459 12.59390020370483 5.757375478744507  38.7336950126498 12.91044226914462 6.059278676678229  39.00342178344727 12.22842025756836 5.545782089233398  38.33408161465507 12.86150438844792 6.149588485100842  36.33905029296875 9.754186630249023 2.356865882873535  36.59864377632354 10.29588838310869 2.089588760314625  36.14187007741198 9.955249658266652 2.11031547066369  36.33813827211476 10.31319352739227 2.43404297534956  36.79582399188031 10.09482535509106 2.33613917252447  37.25259769079187 10.4354640799331 2.315412462175406  36.79491197102632 10.65383225223431 2.413316265000495  36.33722625126077 10.87220042453551 2.511220067825584  36.14095805655799 10.5142565554099 2.187492563139715  35.94468986185522 10.15631268628428 1.863765058453845  33.66947937011719 3.937901020050049 4.193717002868652  33.77516909647022 4.354825682761933 3.934709744620258  33.9167823305244 4.473236940648135 4.372771139583444  34.0707893371582 4.022398471832275 4.1573805809021  34.47209930419922 4.106895923614502 4.121044158935547  34.17647906351124 4.43932313454416 3.898373322653705  34.31809229756541 4.557734392430362 4.336434717616891  34.16408529093161 5.008572861246223 4.551825276298236  34.02247205687743 4.890161603360021 4.11376388133505  33.88085882282325 4.771750345473817 3.675702486371863  33.97947702030058 4.590762946449053 5.48299349233029  34.18348638471975 5.107494064129266 5.546789237308527  34.37347879443728 5.252881901816442 6.17143760464862  34.72836243755774 5.053163549538163 5.735248450463451  34.38749574913892 5.62422518180948 5.610584982286765  32.71181704407387 6.344657647902548 6.532548241273835  32.39512116785005 5.394968810150809 6.373814841063145  32.62921731967133 5.627597506798914 6.052610282237682  32.92790556339239 5.744581206717172 6.516634053258328  32.17903264853153 5.995045251336187 6.389729029078651  31.6462482529892 5.645432854769825 6.246909816883468  32.09643292412899 5.277985110232552 5.909791070042498  33.14399408271091 5.144504765531794 6.500719865242822  32.84530583898985 5.027521065613536 6.036696094222176  32.54661759526879 4.910537365695279 5.572672323201529  34.95782089233398 4.765946865081787 4.135313987731934  34.43845912027393 5.056424088599946 3.606681780981952  34.89792442321777 4.878175497055054 3.429216027259827  34.87880516052246 4.59060001373291 3.728042483329773  34.41933985757862 4.768848605277802 3.905508237051898  34.9769401550293 5.053522348403931 3.836487531661987  34.99605941772461 5.341097831726074 3.537661075592041  34.79978942871094 4.415253162384033 3.320770978927612  34.3403241257671 4.593501753928925 3.498236732649738  30.50325965881348 5.991970062255859 2.06486701965332  30.96790045048543 6.23331049704208 1.512488975484493  30.58660231224792 6.424719173367992 1.455935463030506  30.77675437927246 5.947262525558472 1.563378512859344  31.05024909973145 5.902554988861084 1.061890006065369  31.24139517094441 6.188602960344692 1.011000468690517  30.8600970327069 6.380011636670604 0.9544469562365305  30.66994496568236 6.857468284480124 0.8470039064076924  31.05124310391987 6.666059608154212 0.9035574188616791  31.43254124215738 6.474650931828301 0.9601109313156658  30.9451904296875 9.143291473388672 5.195538997650146  31.72497939661002 8.788094532150861 4.87512704054405  31.64769079979368 8.87584150047233 5.309204817805899  31.22131636436887 8.664808633040689 5.227877379451407  31.3715648651123 9.354324340820312 5.276866436004639  31.44885346192865 9.266577372498844 4.84278865874279  31.79793930053711 9.565357208251953 5.358193874359131  31.87522789735345 9.477610239930485 4.924116097097282  31.49744229905025 8.186325792692704 5.260215761252667  31.95251649416979 9.389863271609016 4.490038319835433  39.06002044677734 9.802163124084473 3.143800973892212  38.59235157295286 9.893638936746255 2.355922727570507  38.54782261177122 10.09583172010197 2.7011422204828  38.8761269025427 10.156677095163 2.709166674599621  38.73171615600586 9.741317749023438 3.135776519775391  38.7762451171875 9.539124965667725 2.790557026863098  38.40341186523438 9.680472373962402 3.127752065658569  38.44794082641602 9.478279590606689 2.782532572746277  38.49246978759766 9.276086807250977 2.437313079833984  38.69223335830806 10.51119106624153 2.27453237530703  32.74834060668945 8.58505916595459 0.1048400029540062  32.86914757825922 7.651222159315899 0.5391427223050318  32.98717812635492 8.253707339217023 0.5391427223050318  32.97561454772949 8.08257007598877 0.1048400029540062  32.63031005859375 7.982573986053467 0.1048400029540062  32.51227951049805 7.380088806152344 0.1048400029540062  32.85758399963379 7.480084896087646 0.1048400029540062  33.20288848876953 7.580080986022949 0.1048400029540062  33.21445206739496 7.751218249251202 0.5391427223050318  33.22601564602039 7.922355512479454 0.9734454416560575  35.76331263781154 12.22741456114685 2.174857605397884  34.61942606913628 11.96277946187316 1.881286932905605  35.39143824239279 11.75647476925557 2.290829324438334  34.8810452745436 12.38627301177199 2.474383201862049  34.99130046455502 12.43371925376444 1.765315213865155  34.50917087912486 11.91533321988071 2.5903549209025  35.01956384697406 11.28553497736429 2.406801043478785  32.17095947265625 8.187406539916992 7.709639072418213  32.45269847441681 8.420286321775933 7.229455242753158  32.19728100607807 8.087290976393158 7.018703779009225  32.15106964111328 8.533780097961426 7.425783634185791  32.13117980957031 8.880153656005859 7.141928195953369  32.43280864287384 8.766659879820367 6.945599804520736  32.1773911745351 8.433664534437591 6.734848340776803  32.22360253949989 7.987175412869323 6.327768485600236  32.47902000783863 8.320170758252099 6.53851994934417  32.73443747617738 8.653166103634874 6.749271413088104  30.96115052006461 7.591584176529498 1.706874621745873  30.90309729863621 7.76726371853602 1.177361139347142  31.44374808234245 7.962648084163276 1.266168747999382  31.3955741008597 7.565766516112799 1.300653925241827  31.8299976816548 7.539948855696099 0.8944332287377796  31.38569486091405 8.138327626169797 0.7366552656006506  31.33752087943131 7.741446058119321 0.771140442843095  31.87817166313754 7.936830423746576 0.8599480514953354  31.92634564462029 8.333711991797054 0.8254628742528911  30.84504407720781 7.9429432
[...]
<PointData  Vectors="u"> 
<DataArray  type="Float64"  Name="u"  NumberOfComponents="3" format="ascii">1.5743382244973120e+02 7.7478668019535988e+01 3.8913440407811592e+01  1.9515853946761669e+02 4.9052236397560030e+01 5.4057369294442076e+01  1.6535916594717983e+02 7.5434180019190052e+01 5.3835742322748771e+01  1.5514389150362894e+02 5.9304468873711706e+01 4.7287009767328144e+01  1.8479065861586506e+02 5.1359575862856694e+01 3.5067298276852448e+01  1.5073980372932292e+02 4.0600343183412093e+01 5.8361428708014330e+01  1.6195741692845559e+02 5.5585713818669817e+01 6.3865237804328586e+01  1.6671719498679963e+02 7.2778284290753646e+01 6.9131311914049633e+01  2.0856147868698667e+02 -2.1614739130906539e+01 6.3175855336698206e+00  1.7324175915112866e+02 -4.8011221905160752e+00 1.1072246084940897e+01  1.8269946355848757e+02 -1.5709323741339700e+00 1.0862134670004648e+01  2.0023572626484162e+02 -8.3170397902017541e+00 7.2473667364396901e+00  1.7678793213287176e+02 -1.8366239916012734e+01 1.5684874041127763e+01  1.4562132744717792e+02 -2.2511189139731460e+01 1.8746270274849845e+01  1.5545023936998186e+02 -3.5459122956477152e+00 2.1618723488743679e+01  1.9518871730088014e+02 7.2699615482197544e+00 4.0444059544198678e+00  1.7483282614156462e+02 8.3454420431047822e+00 7.2759536950709514e+00  1.6403013416983509e+02 1.3198621037079830e+01 1.3864720928307195e+01  1.0280727289676369e+02 1.3927295677090796e+00 -1.3789835903384233e+02  2.0399799269407390e+02 1.1508967187619339e+01 -1.6318385287216668e+02  1.6187757085409811e+02 1.3899881993006279e+01 -1.0244991936139837e+02  2.0236664888134055e+02 5.3742247741724462e+01 -2.3546486565038461e+02  1.0345345808732861e+03 1.0597300843390970e+02 -3.3935599171697675e+02  5.0657109199572028e+02 -4.9127364673989682e+01 -3.1771386444242768e+02  2.5061657853310084e+02 8.6928441335746726e+01 -1.4000136741002513e+02  1.9161577302744783e+02 2.4182612373900852e+01 -6.5857420075514995e+01  2.5310232412050195e+02 2.7662161025637992e+01 -9.8575292367704179e+01  3.2355086469126155e+02 1.7702055323453441e+00 -1.3912888111318378e+02  1.9821810029109997e+02 4.4594402386186204e+01 2.7274570390679589e+00  1.9139829943125733e+02 2.5690435836594915e+01 2.6352985408334515e+00  2.0024829679053673e+02 2.8805776018402963e+01 1.6440495647218150e+01  1.9932121346806821e+02 4.4765139160430387e+01 6.7164628515071012e+00  2.3992596783254578e+02 4.3045507509754430e+01 1.4542520990777941e+00  1.8388620740259259e+02 1.4300033544063881e+01 -8.3350646091463911e+00  2.3252233987759234e+02 2.2888018948907771e+01 -7.0402220766711023e+00  1.8029602957086928e+02 3.9653914054453288e+00 -1.2662353912781935e+01  2.1255965565234271e+02 4.0569023125374819e+01 -5.6476833283968109e-01  1.6410349488347126e+02 1.5915853762078868e+01 -1.0106170583892882e-01  1.0198662912626301e+02 1.4388553981478776e+02 6.5304001111861965e+00  8.9263689585718154e+01 1.1440348994790394e+02 8.9876108632471166e+00  6.4528589454801022e+01 1.2727391691346226e+02 1.5542115095447461e+01  7.6062747053762664e+01 1.2550246607870912e+02 9.6268500602778460e+00  9.6372539709844133e+01 1.1158939036953863e+02 4.3820894883148798e+00  9.4670343623090886e+01 1.5097875772685401e+02 1.3028188297223966e+01  8.4320709286447723e+01 1.5772736724503631e+02 1.8302649338407527e+01  5.6435762321016078e+01 1.0039142705694084e+02 1.0403292507574028e+01  7.8904249440738809e+01 9.5445674437800221e+01 4.7401386960566354e+00  9.4570129039366364e+01 8.7310686658000606e+01 8.4540796665523388e-01  1.9721676710350457e+02 1.1371698163360075e+02 8.7875705455885139e+01  2.0851399960769345e+02 1.1501681972892619e+02 6.8801107911588034e+01  2.1752120817346636e+02 1.1680722659355975e+02 8.0637485654422093e+01  2.0492283627219274e+02 1.1540788563399825e+02 7.3443198284299214e+01  2.1766693779903241e+02 1.1306687736479776e+02 8.4917359219976689e+01  2.2937004822846572e+02 1.0677603196175451e+02 7.6734141902983012e+01  2.2177417447678550e+02 1.1347216511058393e+02 7.3678607429512525e+01  1.8707035805400955e+02 1.2154862753583257e+02 6.4960119492113975e+01  2.0105142162579938e+02 1.2384472084634687e+02 6.7782995335268936e+01  2.1820875497688857e+02 1.2498530008785822e+02 7.4319501535598661e+01  9.5595659946182735e+01 3.5901070520873695e+01 1.3962979654395724e+02  1.5750293003706906e+02 5.0425140667385875e+01 1.3331245982106697e+02  1.2939814499037419e+02 4.1842177842077618e+01 1.1541940964110998e+02  1.5004801224936801e+02 3.8660023136694967e+01 1.3936687825363535e+02  1.1109552280808354e+02 4.9258081106664470e+01 1.7018044959682746e+02  1.8603205410620382e+02 1.3075453073878512e+01 1.6453896134825189e+02  1.8311870358361062e+02 5.8075338471958609e+01 1.6006593700456182e+02  1.6981598966934163e+02 3.0282062730536069e+01 1.3277313692807530e+02  1.5322647375463896e+02 6.6267549310083112e+01 1.8610481718046884e+02  1.4922636534326210e+02 4.3941611855660298e+01 1.0228016078104500e+02  2.5681203326399623e+02 1.5849247121273308e+01 -3.1208795354890416e+01  2.0330513821246208e+02 3.8185295135175323e+01 -1.2755674656365487e+01  2.3858533523898828e+02 4.4586000348824072e+01 -2.2963440343693367e+01  2.1445029946020907e+02 5.8808700706806100e+01 -2.8832673471190731e+01  2.1020475222027545e+02 9.8898699885417454e+00 -1.3694298095729584e+01  1.8485033769573047e+02 2.4966025538056893e+01 -1.1569110790058218e+01  1.8982361922157889e+02 4.7327598127630793e+01 -1.8044296419119050e+01  1.8211059579130858e+02 7.4245560156755644e+01 -1.6543452106612683e+01  2.0182478914190673e+02 7.0140635969459382e+01 -1.6819882123830666e+01  2.2441668934020183e+02 6.7347587962488646e+01 -1.5851436440117672e+01  3.1538966752082899e+01 3.3759417718576823e+00 -1.9257040579746885e+01  3.3092330135952999e+01 7.8556121085796207e+00 -1.1615784429057676e+01  3.8704465882265197e+01 1.9267155617734979e+01 -8.2564621827196039e+00  2.8977700530628539e+01 8.5585368543895299e+00 -1.3068914085882245e+01  1.7481530907017312e+01 1.2152401842297873e+01 -5.6922850408290104e+00  2.5925037572342863e+01 1.4653812733922363e+01 -3.9144084288175356e+00  3.0721700176635345e+01 2.6702455509882071e+01 -6.2876924262383538e-01  4.4737569140990296e+01 4.0941598041297283e+01 4.4596600189488766e+00  3.8940906282778151e+01 2.7680750731440305e+01 5.2760799059920915e-01  3.3026500943482063e+01 1.5169248146870151e+01 -3.5119544603498190e+00  5.6840263875982068e+01 4.0450274367272804e+01 -6.9923069294510078e+00  6.5176130995703559e+01 5.9923024370540496e+01 3.7398231097064984e+00  7.6258686008396225e+01 7.7131828388078063e+01 6.5529534407866059e+00  5.4195922732736982e+01 7.4223495007220819e+01 1.3024952961365207e+01  7.4998235191925104e+01 8.2274220367138881e+01 1.4222685009441619e+01  1.5342991209907342e+02 6.9193854677848279e+01 -1.2558942292441154e+01  1.3387360387208599e+02 2.8090569773043885e+01 -2.6512617828003609e+01  1.2898248894294963e+02 3.8937281246614191e+01 -1.8444595594004799e+01  1.3164898133056681e+02 5.6224637914110545e+01 -1.4455909601174920e+01  1.5640866245824475e+02 4.3555027628022330e+01 -2.3102984238327419e+01  1.6272000137508761e+02 1.6833715656464960e+01 -3.1494919121144559e+01  1.3374730737117414e+02 8.4111008947806631e+00 -2.9461468260933838e+01  1.0852719446967076e+02 4.4834017902462634e+01 -1.7818362839064712e+01  1.0426927653462580e+02 2.6087926216729802e+01 -2.2531800921444312e+01  1.0059539523616914e+02 4.7693328207795984e+00 -2.6798762126396166e+01  8.9683460088062805e+00 3.0499562380911502e+01 1.1893463872876985e+01  2.0951153182460466e+01 2.9127052331428782e+01 1.0512911851121530e+01  5.6850127127791685e+00 2.3661282079754038e+01 1.2938835640592773e+01  7.3926963095673441e+00 1.9488477068650919e+01 9.1090224618883529e+00  2.3104462277975149e+01 2.5581142990016613e+01 5.1082606143441964e+00  6.8645631730844077e+00 3.6883806296648721e+01 1.5537012094764156e+01  7.7729892138970869e-01 3.7750358008388133e+01 2.6725558035549579e+01  3.6922352264746880e+00 9.3020136839210856e+00 6.2876803896120661e+00  1.7760826548817409e+01 1.4108156743130159e+01 2.0870864698895444e+00  1.9688936095917191e+02 -9.5801943426222025e-01 -4.7913469242245469e+01  1.6334766499535334e+02 -1.7515908668445544e+01 -2.8759908710494447e+01  1.8035075968389657e+02 -1.7374736660963976e+01 -3.2308303021241194e+01  1.5708649981839673e+02 -4.8020695528220415e+01 -4.2732477786328246e+01  1.5472635995749437e+02 -4.5545044403612692e+01 -3.5091892700335620e+01  1.4851840432274699e+02 -3.3877172404963304e+01 -2.3226879400864767e+01  1.5580359885343969e+02 -2.6271503272120835e+01 -2.4418773450957080e+01  1.6959808801814302e+02 -1.3663964515263416e+01 -1.8249764133953295e+01  1.5620709984296019e+02 -1.4566749139590483e+01 -1.6934790134056453e+01  1.4035068709257234e+02 -1.5152441629632683e+01 -1.5576365498216175e+01  2.5070703652776473e+02 1.1862794269953932e+02 -5.9617721655010527e+00  2.0182412815166569e+02 1.1563584417473899e+02 5.6859556192360508e+00  2.0879807627801080e+02 1.2006449939305973e+02 2.1993263614882674e+00  2.2140471829113903e+02 1.0400813542091485e+02 -2.2783191032840664e+00  2.2266208297308862e+02 1.3126863333142330e+02 -1.7608368224903004e+00  2.1433934875483800e+02 1.3133698235814623e+02 6.0961272958048340e+00  2.1283055218471625e+02 1.5706010029541562e+02 9.6972669665157554e+00  2.0476129752700746e+02 1.4368458818580370e+02 1.3912083048047903e+01  2.0181218059852068e+02 9.3897098705446112e+01 -4.1673294453116734e+00  2.0035511115605135e+02 1.3325382058090608e+02 1.7172018743939123e+01  1.3302193057532887e+02 6.6617206219628400e+01 -5.7155958835335866e+01  1.7006629935346822e+02 4.5770733640293678e+01 1.3733793833662855e+01  1.8702561831031377e+02 3.3071564716203724e+01 -2.1775580639059008e+01  2.0848486330468046e+02 5.9218404479338673e+01 -2.4044766955393253e+01  1.5037769795677400e+02 5.4442743031422891e+00 -3.6571195744015100e+01  1.5152698030685045e+02 2.6356255615670449e+01 2.8388996416475071e-01  1.2662453201177989e+02 -2.1532893961994027e+01 -2.6100499786526751e+01  1.1233398551470280e+02 -9.9557614820675138e+00 4.3842201268347694e+00  1.0974870958264663e+02 -2.6662023780013668e+00 3.1110413830014885e+01  2.2671249621965620e+02 4.4969969980685860e+01 1.4203792596245835e+01  1.6744653941216001e+02 1.0232022196519441e+02 1.6051369063953599e-01  1.1544133550454886e+02 8.1146711673949696e+01 1.6665298029971150e+00  1.4318849884112328e+02 1.0847532882359513e+02 3.5922736180901755e+00  1.3292698152790018e+02 1.0180536930988323e+02 1.7033668403699179e-01  1.4109784778875124e+02 8.0886995118627098e+01 6.5533045817077445e-02  1.1933183681992034e+02 5.3895210836320523e+01 -3.9649784869913013e-01  1.0873987290329421e+02 7.2634230288147648e+01 -1.4559541067335482e-01  9.5488248933356047e+01 9.2927807697981805e+01 -9.6662083713686519e-03  1.0442930486753498e+02 1.0211809922791380e+02 2.3948589501795627e+00  1.1493177533958745e+02 1.1258238238718982e+02 5.1344720079499870e+00  1.3414439567413604e+02 9.4292911739805575e+01 -2.1955619798782329e+00  1.3619275288663377e+02 1.4074707057118738e+02 6.4164066453055959e+00  1.4689448647188706e+02 1.1086226257954503e+02 -5.0576995314234863e-01  1.1623868298103481e+02 1.2272830064474604e+02 7.0859164220933755e+00  1.2168605579528202e+02 1.1718003393627848e+02 3.5855910672694224e+00  1.2936283347969018e+02 1.4879427749368347e+02 1.0107667815915320e+01  1.6303657602416436e+02 1.3047000345207854e+02 -1.9459668367009905e-02  2.2883044980969873e+02 1.3715612030011650e+02 -1.0215538321035968e+01  2.0214361644786715e+02 1.2775841397665279e+02 -7.7385330954436959e-01  2.0635059663508437e+02 1.2077122728818470e+02 -1.0132033745578067e+01  2.0298412256514146e+02 1.3842356385371849e+02 4.4435725792695707e-01  1.9421666530838326e+02 1.3325931592126594e+02 -1.5905675913718735e+00  1.9948258913169113e+02 1.2872416888618594e+02 -2.3726780656442705e+00  2.0030047566119396e+02 1.2579331381199671e+02 -5.5361644136557562e+00  1.9316504893281791e+02 1.0807497157828548e+02 -6.4243293894222164e+00  1.9431315487475572e+02 1.2119168218839563e+02 -1.0709406593906421e+00  1.9550640865982993e+02 1.2912937865396819e+02 1.9060233334470087e+00  1.8174770430183057e+02 2.5719851037056127e+01 -3.6557274507223543e+00  1.8416913197826844e+02 2.0728916940000772e+01 -2.4374206374692080e+00  1.7712037958705008e+02 3.9185840331217548e+01 2.6478353578816631e+00  1.6773241225369125e+02 2.9181763773742002e+01 -2.1360052449121358e+00  1.5178850672668315e+02 3.7126942568835908e+01 -4.2371966936793970e-01  1.8298471767938130e+02 3.6507049054585366e+01 2.1322205585590486e+00  1.7216049416549967e+02 2.7157322444771435e+01 -1.0964953423165797e+00  1.6444708698000517e+02 5.0438760015609283e+01 2.1076388610604337e+00  1.7811943655212784e+02 6.0268307888036979e+01 4.2710970060604465e+00  1.8708307659124577e+02 1.6373496687613155e+01 -8.7813215750188656e-01  2.3451013081126121e+02 1.6594834191721895e+02 2.4893714878309389e+01  1.8110958736367118e+02 1.3899392070503933e+02 1.6978184451452645e+01  1.7105000706364635e+02 1.5488677043140686e+02 3.0858967777441013e+01  1.9968832981530608e+02 1.5665101616742692e+02 2.3394105665587411e+01  1.9070218703362036e+02 1.6148473257139372e+02 3.6450753170503120e+01  2.0016302424299698e+02 1.3691315457019894e+02 1.6256215698929370e+01  1.6501427686690766e+02 1.5863343889642115e+02 4.0639422045384180e+01  1.7497008316190585e+02 1.4255814004356967e+02 2.6747434511404713e+01  1.8406330031652809e+02 1.2666683480768077e+02 1.2432752765174170e+01  1.8023664719810998e+02 1.5514649467971512e+02 2.1390338380506808e+01  1.0874012407748296e+01 -7.4796548565349985e+00 6.4513272926380800e+00  1.1203241689186680e+01 1.8998051750023153e+00 4.3285622197242004e+00  1.6399670840818239e+01 1.0118035027929075e+00 5.3118346050238037e+00  7.7402418112947462e+00 2.3786059476233662e-01 3.9539604819493448e+00  5.2438767488019815e+00 -3.7598156432355152e+00 5.1987367263389848e+00  2.6709869028818338e+00 -1.7812489251586077e+00 3.4383284304341126e+00  4.7530867529026226e+00 2.2423802983273902e+00 3.7042948231536981e+00  2.1787155891820293e+00 3.0904738299559416e+00 3.2681926289018923e+00  6.6309152719827997e+00 6.7011654962478513e+00 4.7423200091787088e+00  1.5843359834065875e+01 1.4345356685087927e+01 5.7880105308374530e+00  2.0749249774377662e+02 1.8016715468379570e+02 1.2893407180277805e+01  1.7623185725767974e+02 1.7369552409831758e+02 1.9401869483672851e+01  1.8946537233816881e+02 1.7831096384848618e+02 1.8540324696513434e+01  1.9188244187116788e+02 1.6374271922903515e+02 1.4716862368604929e+01  1.8836366903733119e+02 1.7953468393069821e+02 1.9093556371057996e+01  1.7995418585241714e+02 1.7731366800689648e+02 1.7647254483820916e+01  1.8517430154068364e+02 1.6441556815482221e+02 1.7610914206319681e+01  1.8318662922805785e+02 1.5185667339364568e+02 1.6191668253074127e+01  1.8131634050981560e+02 1.6323656847585619e+02 1.7044704797588494e+01  1.7729350561463528e+02 1.7366494348149686e+02 2.2512123542336099e+01  1.4813852028047262e+02 5.8121547815013940e+01 -7.0477301527097964e+01  1.5458648597464637e+02 4.0038570508767961e+01 -5.4265416527057283e+01  1.2509907361855345e+02 4.4435045580007106e+01 -4.9258856027461114e+01  1.4846669061104916e+02 2.5379726722237464e+01 -6.7685758978526351e+01  2.0443919983932079e+02 2.9893471002575538e+01 -8.8614211530868289e+01  2.1466875793187390e+02 2.5901284793769285e+01 -9.4003942774228918e+01  1.7320116454927978e+02 1.8880009563304320e+01 -5.6536613569938389e+01  1.6905864764847925e+02 2.7011639319361404e+01 -5.6421354948115244e+01  1.3754980471703152e+02 3.0750594073528223e+01 -6.1109257228393403e+01  1.0838790428550280e+02 3.6350425663862517e+01 -4.3659849855102657e+01  9.0885635202574838e+02 5.3759868472508504e+02 2.9830110690753497e+02  1.5140384107380703e+02 1.6163590456409969e+02 1.7374893443957623e+02  1.3748185989276817e+02 1.5610297736655801e+02 1.2011234844753568e+02  1.6833098066032989e+01 2.5939099232850714e+02 4.2555081701973990e+02  9.8297503972899813e+02 2.6785194784692720e+02 6.4097958326288460e+02  9.3096438402941672e+01 9.1083704009499300e+01 1.5979685064274696e+02  1.1029239303364214e+02 7.8373666363940956e+01 1.0790768532044849e+02  1.8598811879916508e+02 1.8656731577244148e+02 3.2478341405878029e+02  7.8797894168485618e+02 2.3818770682049330e+02 4.5894756390696836e+02  1.1887060649652612e+02 5.4283534039123190e+01 5.8636576745811574e+01  9.7689861160131287e+01 1.8587013374769290e+02 -2.6745602707278135e+01  1.6397316840567419e+02 1.7927278686740527e+02 -3.9495692149231776e-01  1.3987897598711513e+02 1.9272977617693604e+02 -1.9609080946493784e+00  1.3926970402678654e+02 2.0506150449201897e+02 -1.9274827093877892e+01  1.4353409519920760e+02 1.6950018715571906e+02 2.3831752215790472e+00  1.5613355557106973e+02 1.8324612472075162e+02 3.3601798595574250e-01  1.3412851497779582e+02 1.8370565855137767e+02 9.6060968767111110e-01  1.1057058814965073e+02 1.8706562983138483e+02 -5.7047578782261983e+00  1.6604955308662841e+02 1.5826084737956447e+02 -1.0878640861637754e+00  1.7157257273288715e+02 2.0889696526201303e+02 8.1044340270907913e+00  1.2868878521308076e+02 2.3358756065450555e+02 1.4839560317615652e+01  1.3985977106780828e+02 1.8896819807706908e+02 2.1321096125624724e+01  1.1049176431303675e+02 2.0543827850736949e+02 3.1499570457560427e+01  1.2375575176804414e+02 2.0550296247646131e+02 2.6862310976652335e+01  1.4606465229441025e+02 2.0591190494978358e+02 1.4782737550492682e+01  1.4993976709431536e+02 1.9069989215590172e+02 1.6993631405240013e+01  1.3241840820077681e+02 1.9092299159871885e+02 2.6694506770075314e+01  1.3009277208300634e+02 1.8137667909008246e+02 2.6165233924222754e+01  1.2200542108389023e+02 1.8106185102318170e+02 2.8742265165255695e+01  1.1370908664224447e+02 1.8224240796125505e+02 3.4031505341363228e+01  1.8106584930296222e+02 1.2182829017216851e+02 7.6179721672368260e+01  1.6917005732859798e+02 1.0482293415482745e+02 8.1349667629368525e+01  1.7021038699608343e+02 1.1327421086856455e+02 8.5513059479208295e+01  1.9097015253403862e+02 9.8050437630469290e+01 8.5573855809753312e+01  1.6636773584191860e+02 1.0256070715820549e+02 9.6444793548793101e+01  1.7330390108034638e+02 1.1005425466071006e+02 9.6623072835345141e+01  1.6342742288237946e+02 9.4291212254317315e+01 9.8104709373340185e+01  1.3165316352968975e+02 1.0425023744957959e+02 9.8608901691177493e+01  1.5652725731788453e+02 1.0335589520849651e+02 9.8057405083998646e+01  1.7336887813098392e+02 9.7908817228643372e+01 9.4491264882061884e+01  1.9664343936980680e+02 3.8124150999904309e+01 -6.6313609896040002e-02  1.7804815954763575e+02 3.0853060071902608e+01 4.0676539807435652e-01  1.9071843655730171e+02 2.6620441475035449e+01 8.3056992722738254e-01  1.8213613491584755e+02 4.4095007313396913e+01 1.0824607425995150e-01  1.8791916063950737e+02 4.9276786327582471e+01 2.5422520178619608e+00  1.6680166800034192e+02 4.8459323137243246e+01 -3.3591898036729947e-02  1.7210020292335537e+02 5.4297605521454678e+01 1.6098829245828985e+00  1.5307901796905287e+02 1.7157409218408330e+02 4.6855104963475824e+01  1.4405905825632510e+02 1.7695016594440540e+02 3.5270236536180818e+01  1.5200388878266975e+02 1.7048108853213370e+02 3.7737711028350454e+01  1.5054939285685117e+02 1.7278209820083976e+02 3.8427514132967517e+01  1.4581507732149169e+02 1.7701751106692609e+02 4.3520788069502359e+01  1.5200162197030284e+02 1.7398844356251308e+02 2.7141169015286273e+01  1.5121216789310586e+02 1.7243885272757819e+02 2.9577844608919609e+01  1.4623025565660825e+02 1.8409705108776168e+02 3.4006413877052594e+01  1.3594583044403743e+02 1.9043160197316993e+02 4.3475161206554240e+01  1.5237182640614492e+02 1.6893739188204296e+02 2.9916987468640219e+01  3.7307303608430159e-01 1.3848710957946768e+01 5.7071189861879823e+00  6.5753488475788169e+00 5.6766057164703208e+00 3.4694572434384030e+00  1.7265311976290039e+00 3.2190061150227836e+00 4.1206228078902036e+00  4.1418695009197641e+00 9.2326953646059717e+00 6.0559206528957770e+00  9.1473362712092250e+00 2.6577182017508063e+00 1.4285733083912635e+00  4.8704080670689125e+00 1.6579738372626813e+00 1.4480500944287749e+00  9.0913874265379437e+00 1.44352522