<?xml version="1.0"?>
<VTKFile type="UnstructuredGrid"  version="0.1"  >
<UnstructuredGrid>
<Piece  NumberOfPoints="6917" NumberOfCells="32303">
<Points>
<DataArray  type="Float64"  NumberOfComponents="3"  format="ascii">34.1336094513023 16.89097872139353 11.19120143834085  34.3419174907946 17.18435518402251 11.91491138563277  34.96113154420455 16.80528051941585 11.47829265332795  34.54202679677115 16.6105741605675 11.97284529159211  34.55022553028689 17.4777316466515 12.6386213329247  35.16943958369684 17.09865698204483 12.20200260061988  34.75033483626345 16.90395062319648 12.69655523888404  35.00621032714844 17.05244064331055 13.49431037902832  34.77821792871767 17.26508614498103 13.06646585597651  34.39548363001161 17.15845105129206 13.27300071849482  35.10973228723817 17.38399121242487 12.7718658460583  35.33772468566895 17.17134571075439 13.19971036911011  35.30984159321473 16.81021018896985 12.82979975201764  35.66923904418945 17.29025077819824 12.90511035919189  35.6552848815918 16.86851024627686 13.10870027542114  33.34792469435042 16.64783655851795 12.64313915376752  33.94907511231865 17.06278410258473 12.64088024334611  33.74076707282636 16.76940763995574 11.91717029605418  34.14918441829521 16.48900307912971 12.69881414930545  34.24074172973633 16.83917045593262 13.90738010406494  33.79433321204337 16.74350350722528 13.27525962891623  35.25138808158302 30.07150340470067 12.59620594869435  34.89238125895885 29.06741541771967 12.26432223913866  35.35784458595266 29.2489553562284 12.92260549766298  35.44687484882026 29.7112567275909 12.21439461412238  34.69689449172162 29.42766209482944 12.64613357371064  34.14240090186022 28.78382078495821 12.69606119872692  34.80335099609125 28.60511404635717 12.97253312267926  35.64236161605749 29.35101005048114 11.8325832795504  35.55333135318989 28.88870867911863 12.540794163091  35.46430109032229 28.42640730775613 13.24900504663161  38.76052093505859 26.80814933776855 12.03619003295898  38.98243588440654 27.3141790762371 11.73602675321344  39.01438140869141 26.90515422821045 11.59179019927979  39.07607078552246 26.80226993560791 11.98429012298584  39.39162063598633 26.79639053344727 11.9323902130127  39.29798573487041 27.30829967407645 11.68412684324029  39.32993125915527 26.8992748260498 11.53989028930664  39.26824188232422 27.00215911865234 11.14739036560059  39.23629635803935 27.41118396667899 11.29162691953424  39.20435083375449 27.82020881470564 11.43586347346789  38.75320816040039 30.04793930053711 12.79024028778076  38.63437449512948 29.56143902368441 12.10730632159266  38.52260386524667 29.63092850274935 12.55890639636073  38.45193862915039 30.08612442016602 12.34917020797729  38.8649787902832 29.97844982147217 12.3386402130127  38.15066909790039 30.12430953979492 11.90810012817383  38.22133433399667 29.66911362237826 12.11783631655726  38.5637092590332 30.01663494110107 11.89757013320923  38.97674942016602 29.90896034240723 11.88704013824463  38.29199957009293 29.2139177049616 12.32757250494069  39.89416122436523 28.28779029846191 12.58753967285156  39.89416122436523 28.29653549194336 11.63536977767944  39.54925602905986 28.05399955658378 12.01170157315972  39.89416122436523 27.97473049163818 12.1540846824646  39.89416122436523 28.60959529876709 12.06882476806641  39.89416122436523 28.93140029907227 11.55010986328125  39.54925602905986 28.37580455688895 11.49298666837457  39.89416122436523 27.66167068481445 11.72062969207764  39.54925602905986 27.74093974976005 11.57824658277276  38.82566058216561 29.39138363428011 12.75495131823573  38.95637079880264 29.53861217417371 12.52247026681993  39.05626487731934 29.80839443206787 12.98628520965576  39.35932159423828 29.56884956359863 13.18233013153076  39.25942751572158 29.29906730570448 12.71851518869493  38.72576650364891 29.12160137638595 12.29113637539989  39.15953343720489 29.02928504781032 12.25470024585909  39.32372566847828 27.72356920464049 12.07386745004726  39.32372566847828 27.40313844902526 12.55943263559414  39.32372566847828 28.03662901146422 12.50732244043423  39.89416122436523 27.65429973602295 12.63964986801147  39.89416122436523 27.34123992919922 12.20619487762451  38.75329011259133 27.78546772446653 12.42710520801689  39.38520812988281 29.65237998962402 11.46842002868652  38.992786048499 28.84121286621352 11.65610927365877  39.27237078354385 29.34083251871717 11.86156013727281  39.63968467712402 29.29189014434814 11.50926494598389  39.10562339483796 29.15276033712038 11.26296916507249  39.52684733078506 28.98034267344129 11.90240505457017  39.36009994207917 28.7922704918445 11.30381408236985  38.82603865979311 28.65314068461673 11.05751830145845  37.63124847412109 29.6363697052002 11.17263984680176  38.17868834743718 29.24791032364934 11.28324893649219  37.96162402210702 29.4251437050809 11.75010617587122  37.6496775747321 29.24337560227483 11.33785871203541  38.16025924682617 29.64090442657471 11.11803007125854  38.68927001953125 29.64543914794922 11.06342029571533  38.4906347948121 29.42967842645541 11.69549640032801  37.66810667534311 28.85038149934947 11.50307757726906  37.98005312271802 29.03214960215553 11.91532504110487  38.55901911494303 28.93352919478917 11.69254540319957  38.78966438619222 28.21930420454163 11.74231175473767  38.95641177489811 28.40737638613842 12.34090272693799  38.52264484134213 28.49969271471407 12.37733885647879  38.92440172836807 29.33736209787977 11.65906027078721  38.75765433966218 29.14928991628297 11.06046929858689  39.03723907470703 29.64890956878662 11.26592016220093  39.18194213547969 28.42474693125798 11.84528185966349  39.0151947467738 28.23667474966119 11.24669088746317  37.16365051269531 30.18515014648438 11.71724033355713  37.72782504139413 29.69953392572299 12.02240641924891  37.41587859401921 29.51776582291692 11.61015895541309  37.65715980529785 30.15472984313965 11.81267023086548  37.90938788662175 29.48734551957219 11.70558885272144  35.07986831665039 31.27112007141113 11.54263019561768  34.61045001646774 30.73844130954694 12.30088386872528  34.78276667006293 30.78775985511094 11.54738165127713  35.16562819911671 30.6713117380559 12.06941807215602  34.86852655252925 30.18795152175571 12.07416952781547  34.48566502347548 30.30439963881075 11.55213310693658  38.97882047317291 27.80283826958609 11.93148434074239  35.47288131713867 30.14431953430176 11.35744953155518  35.93970535942034 29.79978500113168 11.77783148047344  35.74421859218312 30.16003167824145 12.15964281504542  35.55762146659808 29.74766479239145 11.59501640555279  35.85496520996094 30.19643974304199 11.54026460647583  35.36213469936085 30.10791146950121 11.97682774012477  36.2370491027832 30.24855995178223 11.72307968139648  38.92117952192768 28.22165883863473 12.96943635417093  39.49161507781464 28.47282012563242 13.04965358658827  39.32372566847828 27.71396856529723 12.98515761880947  39.49161507781464 28.15015967946543 13.52748876496351  39.08906893126404 28.65784995280293 13.51176750032498  35.71291712899462 30.26926413377678 12.44415130942762  35.67326775775007 30.58390191923517 12.84430832928778  35.4707047982378 30.49421632484789 12.23773300593287  36.17444617640622 30.4670248628529 12.29209667016088  39.07245537428883 27.2909291289569 12.17974771051479  38.75690552382496 27.29680853111754 12.23164762048794  39.12430118423447 28.84356750030662 12.88323387309203  39.52684733078506 28.9150121680702 12.74583032846544  39.62674140930176 29.18479442596436 13.20964527130127  39.22419526275117 29.11334975820078 13.34704881592787  39.89416122436523 28.80073928833008 13.23696041107178  39.49161507781464 28.7292946205665 13.37436395569838  34.73387852094962 28.55853094565119 13.88699433508996  34.72686646551348 29.26113668882853 13.41645639259974  34.07292842671859 28.73723768425223 13.61052241113761  33.01351165771484 27.94026947021484 14.57896041870117  33.68871381502672 27.67531224741725 14.11665847869  33.95456307457179 27.99631561667144 14.50241160244846  33.24263454510083 27.99445865762636 14.16621889736628  33.45959092764074 27.62112306000574 14.52940000002489  33.90567019756664 27.30197664979663 14.47983958134861  33.4717574324868 28.04864784503787 13.75347737603138  39.64289093017578 27.22903060913086 11.82650995254517  36.18446679814414 25.84258007732059 13.8614079822903  35.09046416672971 26.65175165226752 14.43070428402525  35.54719343695285 26.39145196242766 13.69382180749512  35.97362778534631 26.8376154165646 14.35532048562186  34.90992007576155 26.94032384753473 13.52623563269994  35.33635442415502 27.38648730167166 14.18773431082668  38.05134963989258 30.45207023620605 12.70151996612549  37.63126634544849 29.3606437908104 12.65146496974562  37.56060110935222 29.81583970822707 12.44172878136219  38.17167460499276 29.83299397058382 12.51454623553309  38.10100936889648 30.28818988800049 12.30481004714966  36.60510687914999 27.40667371943938 13.36088143353422  35.75751347745577 27.17349878348706 13.44355853311708  36.39478683864706 26.62462689837999 13.61114470791226  39.06814142868545 29.46912269510877 12.07087019205186  39.18097877502441 29.78067016601562 11.67773008346558  38.83300971984863 29.77719974517822 11.47523021697998  35.69002151489258 30.91692924499512 11.87926006317139  35.82366374677245 30.30567219857733 11.82477310085803  35.9322338456494 30.69197705392401 12.08567836666614  35.96353530883789 30.58274459838867 11.80116987228394  35.58145141601562 30.53062438964844 11.61835479736328  36.20574763959471 30.35779240731756 12.00758817577868  39.32368469238281 29.74440956115723 12.58505535125732  39.62674140930176 29.50486469268799 12.78110027313232  39.89416122436523 29.44087982177734 12.37987041473389  39.52684733078506 29.23508243479383 12.31728533029649  36.97053312080406 29.50736987665921 12.97535743455055  37.79202559380993 28.52783003172665 12.95105841243682  37.13521485161172 28.65704204100589 12.74609501910882  37.79594807625617 28.51031595515708 12.42220255430389  38.2880770876467 29.23143178153116 12.85642836307362  38.28415460520047 29.248945858100
[...]
<PointData  Vectors="u"> 
<DataArray  type="Float64"  Name="u"  NumberOfComponents="3" format="ascii">4.6690371474778701e+01 3.2299930499148445e+01 -5.7609042521118681e+01  4.5125064156319780e+01 3.7098038714067904e+01 -5.1353260068832306e+01  6.0526100372328955e+01 3.0196321478513681e+01 -6.1207557804107054e+01  5.4908725939709690e+01 4.7424037681302785e+01 -6.2121834457084226e+01  4.1185945020461034e+01 4.0465401570736113e+01 -4.1867789431654643e+01  5.5227121376980804e+01 3.3598434939380091e+01 -5.5576835883178234e+01  5.0053027084641705e+01 5.3264878092407827e+01 -5.3387872767632594e+01  4.0635547286008503e+01 6.3910916933113207e+01 -3.7547327530574911e+01  4.2241538788566373e+01 5.1543406958078137e+01 -4.0171801365235069e+01  3.8089812456941871e+01 6.4293542036676385e+01 -3.4467752664246724e+01  4.7141167541258838e+01 3.9034768952898709e+01 -4.5595593313098590e+01  4.5865840895591653e+01 5.1863208435511545e+01 -4.9036518840229391e+01  5.6784345346592296e+01 4.7865345395485875e+01 -5.9676816995347245e+01  5.0976868858905618e+01 3.6331319580948083e+01 -5.0210763170368800e+01  5.7531376821108225e+01 4.5044434320872554e+01 -6.3368740786236998e+01  3.0089308771112005e+01 7.6480677657579591e+01 -5.1107346225636320e+01  3.6603270075215235e+01 5.7283673684776190e+01 -4.5073230372762346e+01  4.0183364404086078e+01 5.1733321860099345e+01 -5.6343101894897750e+01  4.6571267257669561e+01 7.1348433542622899e+01 -6.0106424235215783e+01  3.4192401904518157e+01 1.0078280961903882e+02 -2.9074613096074721e+01  3.2795707014402296e+01 8.5309177892010396e+01 -4.2363631229445538e+01  1.3419180998235700e+02 -1.0930325101260442e+02 1.3837606222570653e+01  1.3599174373417546e+02 -8.4767118054883056e+01 1.8450722660861917e+01  1.3449012585943078e+02 -9.0038480542192175e+01 1.5657030370084650e+01  1.4803606508792174e+02 -1.0179170768454811e+02 8.2960163628532797e+00  1.2838107693400997e+02 -9.2296681116683430e+01 2.2709744422075985e+01  1.2295306654997141e+02 -8.0884557437564723e+01 3.3603439384937005e+01  1.2348126612405947e+02 -7.5898887933118516e+01 2.6808498910500283e+01  1.6177434727837127e+02 -9.0151965961001650e+01 3.1192685758021481e+00  1.4392997537258196e+02 -7.7918316273231127e+01 1.0291797295795899e+01  1.2900424166217178e+02 -6.8784157620808770e+01 2.1371205649027456e+01  1.9410378971125522e+02 -2.2574259282685812e+01 4.5450180400478857e+01  1.9818219041949146e+02 2.3426908776533171e+01 2.3048531582981141e+01  1.7251547912228705e+02 -2.4012442591228575e+00 3.2487157585705297e+01  1.4819541152662154e+02 -2.1788195464314562e+01 4.1533496094866877e+01  6.9264621235940169e+01 4.9051528728293270e+01 6.8592952751033764e+01  1.6423995553200504e+02 7.9952378311527539e+01 3.9753217007076934e+01  6.3092892399233932e+01 1.0815627798419888e+01 4.7241523485244777e+01  1.1712732210109287e+02 6.4195749691439204e+01 1.8874469171852304e+01  1.9146627524825703e+02 7.0052681897699514e+01 1.5140617619778695e+01  2.3865208384764964e+02 3.2123191944532444e+01 6.3386968418148095e+00  2.1257447264590533e+02 -1.2659286131630570e+02 -6.2966587155656001e+01  2.1737237756357879e+02 -7.6372493371595993e+01 -4.1946760289361883e+01  2.1999163325372598e+02 -1.0051350377679557e+02 -4.3157407380707660e+01  2.4692470392907526e+02 -1.1022741314929286e+02 -7.0754713953646828e+01  2.0643000207842445e+02 -7.8720562858679514e+01 -6.0646881762475331e+01  2.3064178500293494e+02 -1.1100660163908903e+02 -8.8437115707690381e+01  2.1551676350220885e+02 -8.8629710419046930e+01 -5.1022465988986127e+01  2.2161642871407622e+02 -6.7910841610274531e+01 -5.5554343926998939e+01  1.9298843368801079e+02 -7.9341683418272865e+01 -4.1655087400877314e+01  2.1764117292553954e+02 -7.7111325842740015e+01 -3.2014883822912623e+01  3.0921376848420084e+02 -6.3904892594540010e+00 8.9816093914838357e-01  2.9102676615377692e+02 2.3437088466271292e+00 -6.5204530394132805e+00  2.7436312336702201e+02 3.8648717363983534e+00 3.5352132829292162e+00  3.0673201506421458e+02 -7.7665734767776584e+00 -2.7344669499066883e+00  3.2391958599488817e+02 2.0087308621103009e+01 -1.1332922452062382e+01  3.8583339458843790e+02 -1.2098748245292198e+02 2.8654666572751228e+01  2.8260556913687867e+02 -8.4662051319420257e+00 -5.4151050602561597e+00  3.8222383650616200e+02 8.7038994897719746e+01 3.2204899500003002e+01  2.8311573957198527e+02 7.8010245588915851e+01 1.6924511942942189e+01  2.3414927523222772e+02 -1.0508209006130198e+02 -3.5204564072833939e+01  2.4025488068601902e+02 -1.0695051752393546e+02 -3.8437413826072756e+01  2.1936824434876175e+02 -1.3975462176099546e+02 -6.4646569445502820e+01  1.8947434132836656e+02 -1.5688834218597702e+02 -5.1612280216990513e+01  2.5240503726357070e+02 -1.2254657420102566e+02 -4.9964120235274052e+01  2.3059452092883910e+02 -7.6435917087265480e+01 -2.5494305352043270e+01  2.7409921580722249e+02 -8.0412254218622408e+01 -1.7398850817187185e+01  2.5786645882056115e+02 2.9914476078632433e+01 1.8350412858084159e+01  2.4206735785547400e+02 2.4691036542849400e+01 2.6350556141675561e+01  2.6865798464256943e+02 -1.4729379038488844e+01 1.4952862214795566e+00  2.8555816911659412e+02 -2.1375320464370898e+01 -1.1803105397423428e+01  4.3245447247997589e+02 1.3004540023116834e+02 8.8159643446788138e+01  2.3219190458303868e+02 -1.4008161715589281e+01 4.5910339794802608e+00  1.1752723411990529e+02 -7.2823334397347168e+01 -1.2912135767489591e+01  2.3290517912864362e+02 -5.3821520729280934e+01 -1.4879916254390571e+01  2.2302871757440519e+02 -1.0808504538377176e+02 8.0535598944215092e+00  1.8787452900219174e+02 -2.0557606877447918e+02 4.5786373876354418e+01  1.9094446300399628e+02 -7.0460733590996185e+01 -2.6507978351082276e+01  3.0336773534492426e+02 -1.0032404508261980e+02 2.3763322225431548e+01  2.5585382528273689e+02 -8.0276675367058346e+01 -1.6865405864622649e+00  2.2118241397276162e+02 -2.4058291342079759e+01 -2.3221658528619805e+01  2.1842827043839344e+02 -5.1122843815074305e+01 -7.6028236739839102e+01  2.0801593787544641e+02 -3.9086017051832272e+01 -5.2006272064280445e+01  2.1416846104394898e+02 -6.1335880910503271e+01 -5.3631780863782232e+01  2.0624909305000526e+02 -4.7378698290360617e+01 -5.0709902885123448e+01  2.1079470137765634e+02 -3.3787500489010341e+01 -6.9624809729425834e+01  1.8425619468302273e+02 -3.8285685241666592e+01 -7.6356407031136257e+01  2.1054643977403430e+02 -6.2928929528642115e+01 -4.4793903567835429e+01  2.0320131111159816e+02 -3.9680879689748679e+01 -3.4430431526493557e+01  2.0885917215666598e+02 -5.7411463169463161e+01 -3.3317470603894563e+01  2.1926301867856171e+02 -4.9575654710949827e+01 -2.6773166170577465e+01  2.3268180136522562e+02 -1.7158168678741649e+01 -5.8717352654488808e+00  2.5202326966046414e+02 -3.6444731387697153e+01 -7.7854753987453309e+00  2.2866599609350541e+02 -4.5326801187005586e+01 -1.2985378725445630e+01  2.1810321609353474e+02 -7.6368492513256626e+01 -2.9103807088767951e+01  2.0020249060433406e+02 -3.6687394668871633e+01 -4.3399454280667037e+01  1.8529101914154708e+02 -5.4682184335331620e+01 -5.4295495473075199e+01  2.6126136955762928e+02 -2.2382606655406725e+01 -3.3523758792552942e+00  2.3799335778109057e+02 -7.8488730816216830e+00 -6.7472238659456369e+00  1.9692112413015582e+02 -1.2023598288638412e+02 -7.0805625608198866e+01  2.0624735220953824e+02 -9.2677635213517348e+01 -5.0116683161313837e+01  2.0051241528083327e+02 -6.9674385610312669e+01 -5.3629613401830909e+01  2.0956001363267745e+02 -1.1690791328521219e+02 -7.0150602312571820e+01  2.1027139759405057e+02 -6.5491756807386210e+01 -5.3701609751815731e+01  8.0166293975384292e+01 -1.2616460922744287e+02 5.3960237885859065e+01  1.1997663948329233e+02 -1.0796102108443836e+02 1.9147587451478230e+01  1.0618397321389048e+02 -1.1376757573248786e+02 2.7960471047131161e+01  1.2793688678298730e+02 -1.2113185975951816e+02 2.4208700486666906e+01  1.2953445909231604e+02 -1.0735510658189118e+02 1.9810597264711966e+01  1.1933473255297109e+02 -1.0360458529920598e+02 1.6442999460655614e+01  2.3099415763947582e+02 8.4706278328818598e+00 9.0469931164817208e+00  1.7687954671544853e+02 -1.4733011210777573e+02 4.5333899857114822e+01  1.7989879542124194e+02 -9.9410219454047848e+01 -1.3967146640496097e+01  1.5648163772363310e+02 -1.1703594225886974e+02 7.4487370453750223e-01  1.7660729192910111e+02 -1.0281036473435231e+02 2.4638442106822822e-01  2.0214434923330114e+02 -1.2686675863969739e+02 -2.5097992590435297e+01  1.5117728620886751e+02 -1.1459890972130638e+02 1.3556031684590662e+01  1.9492549591733956e+02 -1.2181394151113494e+02 -3.5934588012856700e+01  2.5003033381262759e+02 -4.0619482182584797e+01 -6.5590838416654931e+00  2.9719223024183276e+02 -4.2242117022413993e+01 -9.8036425445400326e+00  2.5794228879671778e+02 -6.5304649335237146e+00 4.3040509421988613e+00  2.8190037298616636e+02 -2.5031399963360823e+01 -4.4213310557929608e+00  2.6770094203342012e+02 -7.9293866857917052e+01 -1.1802629404273389e+01  1.4461030723485217e+02 -1.2073518312210763e+02 4.9530166240513243e+00  1.2879560509782493e+02 -1.2612086582705302e+02 8.3042930110246047e+00  1.4180424438021609e+02 -1.2319598876605832e+02 1.3176637803684098e+01  1.5944569206065736e+02 -1.3758372103055132e+02 -1.3028576828741171e+01  2.1186707317890307e+02 1.5665085192468299e+01 2.8925203432038654e+01  2.1189639780036597e+02 -8.7037569679754512e+00 2.0350182513951214e+01  2.7219954397560554e+02 -8.4369635254471234e+01 -2.5138938360549858e+01  3.2986838592316388e+02 -9.6792525101423806e+01 -5.2496811878531453e+01  2.1474828139086236e+02 -2.5939145240052625e+02 -5.5586464534091007e+01  2.4234185606515206e+02 -1.3788845406712213e+02 -1.7972387094540895e+01  4.2306770867926656e+02 -1.0576274344292160e+02 -5.8977997394489003e+00  3.0833763683558124e+02 -9.1760609673970677e+01 -9.5431594154486064e+00  1.0897488587563926e+02 -7.9685400883233072e+01 3.7545539070548067e+01  1.1863932490525661e+02 -9.2324684782646059e+01 2.9366153796111650e+01  1.0605134157187771e+02 -8.5235361975814342e+01 4.5589395676457691e+01  6.1678127010124385e+01 -8.0466929448696419e+01 1.0081122361600501e+02  8.5504917054039680e+01 -6.7359100091710232e+01 6.7922519829198407e+01  7.8155635426389281e+01 -7.5622268649205438e+01 6.1945417212283431e+01  8.2641167934696028e+01 -7.6431026541772937e+01 8.1016563417166111e+01  6.8130974242213838e+01 -7.0012081882154376e+01 8.1569317102773624e+01  7.2543269000885473e+01 -5.8785747826478122e+01 6.7166310062822220e+01  9.5827259665918533e+01 -7.4271645091412992e+01 6.6119145627264515e+01  1.7464070012488287e+02 1.8751686728945455e+02 1.0813193385751990e+02  8.4734175139064675e+01 9.9583036779564118e+00 4.1058817054305415e+01  8.9019639136546459e+01 -3.1948281993517025e+01 4.4294176476920484e+01  9.5648840009171877e+01 -1.6603467633753059e+01 3.4769917887436932e+01  1.0717938965731739e+02 -2.2147734054556789e+01 3.7880977463756651e+01  1.0095793928169618e+02 -3.8751035747800586e+01 3.7628520801148582e+01  1.0438760627674304e+02 -4.6586569814783331e+01 3.7620188898125491e+01  2.0955821952043826e+02 -1.5507473437754112e+02 -4.1376761906500342e+01  1.9535170280515064e+02 -9.0783002154199323e+01 -2.5726349447536890e+01  1.9559333518595031e+02 -1.1124926592434792e+02 -3.8084565784489179e+01  2.1341481502749738e+02 -1.1598532121392618e+02 -4.3665683207493082e+01  2.0984479524277268e+02 -1.5637450898035846e+02 -5.2162351964333489e+01  1.4059015948055813e+02 -1.7188439438107487e+01 2.0333866686445642e+01  1.1566639485749656e+02 -2.9108242472255217e+01 2.7551792173422225e+01  1.1107816471391281e+02 3.9215125760831366e+00 3.3973730473007272e+01  2.3331408341424654e+02 -9.8852398185402436e+01 -2.0737599479151875e+01  1.7515787825660317e+02 -8.0791346737958918e+01 -3.9261098764100275e+01  2.0022306532056399e+02 -6.8171353246930195e+01 -5.3842589765237570e+01  1.5070459126903518e+02 -1.4606486902721286e+02 2.1754008501598900e+01  1.7737575379585826e+02 -1.2792974303221887e+02 -5.6265409302280682e+00  1.5677932344053724e+02 -1.4076881084723428e+02 -4.7519812451851910e+00  1.7889776050058228e+02 -1.3508310019350284e+02 -1.5462273682150094e+01  1.8331741636275993e+02 -1.4319478954951657e+02 3.8001865602395149e+01  1.7714288401084718e+02 -1.3235236532531272e+02 -2.1808175346498995e+01  2.3514558052423757e+02 -1.4019466512433735e+02 -5.5442576777928643e+01  2.2675938970128678e+02 -2.2323679430246929e+02 -1.7677098044086850e+02  5.8496484502604699e+02 -1.2191996783738864e+02 -3.1285334902148940e+00  3.4815953924098676e+02 -1.2336805898324042e+02 -6.0873644479013516e+00  1.7186732028805909e+02 -1.0156070513046859e+02 -1.1992933792056448e+01  1.9891527307976099e+02 -5.7421511521897209e+01 -8.1072955270019271e+00  1.7873046088870177e+02 -6.1956644095805743e+01 -7.4827790072105058e+00  2.0189856824825225e+02 -4.8438739505585197e+01 -1.3304012482593318e+01  2.1410317952575258e+02 -9.1370885080275187e+01 -2.4894955312483329e+01  2.0982683384918639e+02 -9.9813339463443242e+01 -1.8814621502761536e+01  1.8051052756544809e+02 -1.7585025648647484e+01 -7.0026251800398698e-01  2.3982630448588927e+02 -1.3899382298217296e+02 5.4820764220623417e+00  3.0650593922147073e+02 -4.8506886107989288e+01 -3.2380553070735605e+00  1.9145642583705438e+02 -3.4386757877082403e+01 -1.4435734394791098e+01  1.9190543880419716e+02 -7.4752470375179669e+01 -2.6315311263807608e+01  1.3509042369974998e+02 -4.7917887386205848e+01 1.8222271914803230e+01  1.1618735553831331e+02 -5.2261563509202176e+01 2.9812627666891533e+01  1.4957227646283442e+02 -8.1434458109741172e+01 5.2196998441800915e+00  1.6528211243037504e+02 -9.0805508871758079e+01 -9.0023843865666482e+00  1.5280058730130597e+02 -1.0967244789695965e+02 -2.7589948709700494e+00  2.3725708931036360e+02 -8.0328916540069471e+01 -8.1395833453597859e+01  2.1446957715205738e+02 -2.9134926864947154e+01 -1.2986038504189047e+01  2.0885033337903457e+02 -2.0640712650367259e+01 -1.1479049509877723e-01  2.2493055338257406e+02 5.9426927161772824e+01 -3.6230286577921720e+00  2.2189485495840034e+02 -1.3185755021793231e+01 7.3155832711566662e+00  2.3247778454513212e+02 -3.0736428130775202e+01 1.8920771002057489e+01  2.5286577861658657e+02 -6.3919316461145144e+01 3.3507492600018338e+01  2.2464762694724268e+02 -2.3422240750594764e+01 7.6293428190690058e+00  2.1538106880633148e+02 -1.4133394111444704e+02 -3.6454710595144725e+01  1.8587876881132630e+02 -1.1191120780197279e+02 -3.3387371093808824e+01  1.2438483528214880e+02 -1.2212293038330347e+02 3.5268255173723453e+01  1.1159354500637215e+02 -1.3837214180083947e+02 7.1709607619460343e+01  1.2699191548908198e+02 -1.3570382503190595e+02 4.5751416380156179e+01  1.1826751383891720e+02 -1.2247716173631062e+02 3.4034764994817962e+01  2.0993337656133090e+02 -1.3093407461104849e+01 1.5642141789638956e+01  1.8082569996759747e+02 -7.2641995539191981e+01 4.0407475863854884e+01  1.3720822900805257e+02 -9.3928856071030946e+00 3.4999543140799325e+01  1.5434252776131527e+02 -5.3955390981960036e+01 1.8734034609356659e+01  1.0332575201418007e+02 -1.0590324151986343e+02 1.9951765990109706e+01  2.3454707529772043e+02 -8.2378190690283887e+01 -2.1377265592383509e+01  2.1619755204657972e+02 -5.7037950338946771e+01 -1.0732049038533670e+01  9.9753278290145175e+01 -5.8276117154179339e+01 4.9673867756591740e+01  9.1095908804002605e+01 -4.8922987509165253e+01 5.0584655211695534e+01  9.6724781480096198e+01 -6.4488464580765623e+01 4.7152944186021593e+01  1.2204097892063878e+02 -9.5534375131662813e+01 3.1234015688437083e+01  1.2855052758698315e+02 -9.2877605568543501e+01 2.2389249968313599e+01  1.2141549147875068e+02 -1.0395574547722993e+02 2.2788804530331333e+01  1.2292619048741659e+02 -9.9260675437600057e+01 1.8396036576369855e+01  1.2430545490237327e+02 -1.0382394976803639e+02 2.7009771983047681e+01  2.0655952887676352e+02 -1.1968693536605568e+02 -3.1388107635094229e+01  2.3917165556128774e+02 -8.9605504790593685e+01 -2.6551791154545192e+01  2.2502066904767059e+02 -1.2496523514733836e+02 -2.6038214352043674e+01  2.3107476360922652e+02 -9.3153753636102877e+01 -1.7060754424585980e+01  2.1072485535016301e+02 -1.1882928391869031e+02 -3.2287281818773714e+01  1.1469688733691966e+02 -9.4707060697077793e+01 8.0109935125378904e+00  1.1783744547501124e+02 -1.0017485447439725e+02 1.4902546915376092e+01  6.0370572269194656e+02 -1.5642515110831474e+02 1.0726653192515367e+02  3.7479909486381445e+02 2.7631881724753509e+01 1.8922019892409615e+01  5.8644193403612974e+02 -1.6496644361489143e+02 -1.4020223313646341e+02  2.2967438497882455e+02 -5.8017450996102312e+01 -1.1803929686585143e+01  9.9662793626169005e+01 -8.7518212174605239e+01 6.6227417543033553e+01  9.2684129562700889e+01 -9.7788566980985451e+01 6.1481048012421859e+01  8.5723670126010646e+01 -8.9231066676930737e+01 7.8802130674789808e+01  1.0368723853607761e+02 -1.0062307358963972e+02 6.3685975072264270e+01  9.6914299214045712e+01 -9.5898487920005493e+01 2.8644250806559390e+00  9.0621115331018871e+01 -7.6069141249402804e+01 -2.5021138611797934e+01  8.2337450801257830e+01 -8.7746541674631771e+01 6.3439426449898606e-01  1.8923348879522769e+02 -2.2061961673489651e+02 1.2492350288344224e+02  1.9581729638855623e+02 -4.8991194931428723e+01 -8.0242280549129475e+01  2.0838467023569075e+02 -2.7707153704389256e+01 -3.0743683061617467e+01  8.9917663520869326e+01 -5.7962770501823492e+01 4.7483323585947240e+01  1.1586363118765371e+02 -1.0619143888980301e+02 2.7968912519127390e+01  1.1128581549893497e+02 -9.7838376220616851e+01 4.1483525227634459e+01  1.3763077281325002e+02 1.9940941227176612e+02 1.2772720504695060e+01  3.4043432690174933e+02 1.0926917500554781e+01 3.3985130695826524e+00  2.9644166672054877e+02 3.9863125387405076e+00 1.2139981712077921e+00  5.4602650011652209e+01 -9.3622784589903532e+01 3.5871030185934547e+00  1.2816752074644481e+02 -7.6129162433533949e+01 2.8354603416000003e+01  1.6472775896603724e+02 -1.1873211096205925e+02 -1.7293177775429214e+01  1.7328056559788200e+02 -1.1201217083796489e+02 -2.2009234329899400e+01  1.6582702824845495e+02 -1.0890446689763445e+02 -4.5422865523779574e+00  1.0988507136594099e+02 -7.2052265276375806e+01 4.0051081680799356e+01  1.1071679721483848e+02 -7.7441261164389644e+01 4.7152359178613068e+01  2.0350750688338033e+02 -1.2704931709056906e+02 -3.2861661874870627e+01  1.1442073058505605e+02 -8.9564920751694814e+01 4.6702354364118733e+01  1.1733390935690886e+02 -1.0420184605346714e+02 4.3171802247761605e+01  1.4495333786014061e+02 -1.0689175478080669e+02 1.9700710250110909e+01  2.1355948611253982e+02 -7.3179698181647353e+01 -4.5374193282360423e+01  2.0024504547075551e+02 -5.4104547547316983e+01 -4.3574451075620523e+01  2.0242578502337562e+02 -5.0773613726337402e+01 -6.7265580346516515e+01  2.0515949140214406e+02 -8.1203961084582446e+01 -7.2648943676107180e+01  1.8742130184062347e+02 -9.3157608669288933e+01 -7.1341447982111177e+01  1.8339843732008003e+02 -9.2102068339577272e+01 -3.0288070493544403e+01  1.9275933131952186e+02 -1.1410184777298799e+02 -6.8022292239490611e+01  2.1105907169290720e+02 -8.6938762518323102e+01 -4.0213033727902435e+01  2.0462070450512601e+02 -9.0026970604682148e+01 -2.1650558800941972e+01  1.8607479189871739e+02 -8.5591376247856971e+01 -1.4709310376105552e+01  1.5077945407956895e+02 -4.6185890084299245e+01 8.1388790859294051e+00  1.6209329764635288e+02 -5.9696949803049115e+01 3.9388861687531733e+00  1.6015143344176690e+02 -1.5135650993282233e+01 8.8249899879766271e+00  4.2396156560999810e+02 -2.6988816774606601e+01 7.9912291489658898e+01  3.3581395555317357e+02 -6.1347235448032144e+01 8.4718500307056573e+01  3.3606994027018141e+02 -1.0141491760428497e+02 1.5204234551119649e+02  2.9705708636350175e+02 -7.7538567270530692e+01 8.3022345907846557e+01  2.8101783307538574e+02 -1.2113163304079985e+02 1.6210913318094671e+02  2.7735210635810324e+02 -1.0094571601286684e+02 1.2553048291236550e+02  2.9506667405824106e+02 -8.5545313638109377e+01 8.2095794851660102e+01  3.0215992171503763e+02 -7.0363556427370710e+01 4.5848992889947759e+01  4.1996933401428873e+02 8.5094924059270966e+01 -8.2972983449634938e+01  3.6983084729430112e+02 -2.2385326693530474e+00 2.526887622110