<?xml version="1.0"?>
<VTKFile type="UnstructuredGrid"  version="0.1"  >
<UnstructuredGrid>
<Piece  NumberOfPoints="852" NumberOfCells="2890">
<Points>
<DataArray  type="Float64"  NumberOfComponents="3"  format="ascii">27.27349734869854 23.50033885540123 35.66452755765501  27.63057694311821 24.49719673356375 37.1434365587057  26.310349 24.047176 37.794735  27.0543614174192 22.98478599504704 37.25089597550202  25.50474926658383 22.40531879374142 36.20192395830863  26.24121185103339 23.42717977536159 34.02394262800055  26.83130684443953 21.83978544084195 35.97183649719994  26.01870860464278 21.01607144239694 34.2206792758689  33.732788 18.695942 37.220341  33.35540552401056 20.74781699009997 36.87973407110198  32.24308519422645 19.11029030149711 36.22461644124984  33.694054 19.832645 37.892502  26.315817 3.982372 39.332775  27.599375 4.383019 39.990357  27.58300390867939 2.795118367817658 38.30617708128289  28.87458468448428 4.307851879040236 38.4435994241211  25.478008 20.15727 38.265163  26.76165 20.279181 39.277157  25.927156 18.888727 39.164341  27.30516756196691 19.51752031014398 38.00478663026325  23.727428 8.835241 39.990357  24.795902 7.25046 38.957478  23.162247 7.105966 39.014565  23.57434325475165 9.000645388631202 38.07843194146434  24.4331032782854 19.10334070084133 32.84325518244611  26.11516882444566 21.34532548574294 32.51288702110441  25.83888365107529 19.02745405254516 31.99768249309716  21.235252 1.307153 39.990357  22.538738 0.695649 38.940804  20.639017 0.6159210000000001 38.206322  20.48744366509122 2.629695698920639 38.59326174240199  28.28807373383377 13.49579096673875 32.84474124294095  27.290699 12.759163 31.179472  28.298815 12.903837 30.984324  28.13751973518968 11.71026010806883 31.73371741403241  32.03872703268765 17.75815326480091 32.73820068203824  31.56958963959172 17.71920107760321 34.95177624414119  32.36760443688479 19.37041740524739 33.76845498604773  30.56175945217675 18.9971915808008 33.43469838985521  28.705898 10.335938 35.168785  29.816177 10.938348 34.575485  28.673845 10.173727 33.999218  28.05134429106204 11.67204946717867 34.87214406759188  26.614618 10.881027 39.990357  27.409657 9.263548999999999 39.398373  27.24327126892229 9.817335996067126 37.70662796560374  27.98234874397778 11.27788221252549 38.70361233348778  20.856035 17.42239 32.275009  22.17009456140849 18.80845296123536 33.58611903216813  21.35108141854242 17.08093916846398 34.19362378749199  23.12940742595719 17.19336480911176 33.02110421049332  28.142374 21.712305 32.750404  27.46694112722539 19.42035891135189 33.08406016016179  27.19951742215371 20.01639510277997 31.40231246690643  28.154829 5.388969 33.965862  25.86339869709138 6.149819401226686 33.59340898363622  26.52290276609117 5.077670477286738 35.39756701259837  26.41130585203724 7.493997705671475 34.70529868406999  27.17363707100178 13.80598071958275 34.73124428154895  28.66374631921208 13.45480856006256 35.502294338688  26.32867622651415 12.55819146253374 35.75869553804386  33.62254529472886 14.92865752345665 32.80806568508215  34.38660377831111 14.94995717686327 31.07821058419421  34.17658941579657 13.56169451682123 31.90395438525047  32.69573522357092 14.60460425539633 31.93325867970119  37.546574 8.048283 27.769197  37.402382 7.583887 29.032631  38.803787 7.976573 28.510002  37.05855570888922 9.143239546835588 28.7957531040404  26.24228520852094 4.086211330696111 37.47597715613198  25.81251735132692 1.76798991749219 37.23946213247029  25.99394432742299 2.389771660531963 38.73969209196266  37.190998 14.242632 31.223286  35.943092 14.502272 31.92523  35.86669466877547 14.72731496707851 29.85278068024012  35.31308313036062 13.15751189396104 30.39798971878442  38.56933054512754 6.800926044310161 30.72389955311796  38.188908 5.282902 29.523901  38.58383858008845 5.131501725264576 30.81235851566306  37.407551 6.230077 30.130457  24.83487035174265 17.56021583377044 34.7217280553391  23.7099660556728 19.97927737385927 35.20769262576109  23.39544214042581 17.85948277720794 35.93919434523834  25.3834063110964 19.76313623795006 36.46011334611342  33.481281 15.794911 35.848255  34.052612 15.386894 34.300491  32.6019832158516 14.05910567574976 35.88978301144692  31.92142654770662 15.86163673369643 35.26788520504912  28.81151 7.50783 38.290119  27.51997600103251 7.503177070046945 37.89107867154952  29.109997 6.358413 38.503403  27.88378 7.329907 39.072365  26.32226275152001 21.14607929652852 37.08435692330384  25.844419 22.170111 37.629883  26.1031810289768 18.76243982064992 34.3963357761382  29.309536 4.606772 36.029114  29.72506 3.25594 36.232712  28.31757182815704 3.131416595107289 36.50977775725433  23.959417 5.847709 38.612427  22.627432 5.821682 39.122414  22.62880125732515 5.241752043228775 37.67335728015745  24.642944 7.800531 34.115471  25.463104 7.360107 32.804066  23.03240651743376 16.32770428090043 34.86373560689457  23.697451 15.208926 33.915539  24.57257204883424 16.10968674445513 33.88075067199931  24.65361393046063 15.83398197335988 35.83647825868346  31.69956254248148 14.44667297204943 33.33556807518377  33.22960131290565 12.95845390158515 33.56011460732299  19.331896 6.950016 37.73209  20.25189488448597 6.610723253897681 35.95933933273123  20.48039668878346 7.746026545857105 37.74818777504506  21.28659668259365 6.939187716109648 36.67906938352133  23.641129 11.802317 35.702709  24.882618 12.017656 35.162289  24.349495 13.12237 35.126312  24.62371026401215 12.69674720141139 36.81772324188206  37.50816 9.499226999999999 36.304531  39.04343 8.941055 36.435223  38.657623 10.319695 36.326557  38.4780181254022 9.002724445734884 38.18861174115882  29.084326 22.619463 34.170704  27.90889 24.022921 33.531563  27.741316 22.810972 33.70536  24.654318 13.307939 39.990357  26.602053 12.905472 39.990357  25.17588 11.523697 39.990357  26.06220343740465 11.56999229659889 38.33814953467988  27.719633 12.439368 29.612696  38.150952703833 14.40805456160015 29.30626151592014  37.0888530462326 12.75019107777044 30.6257153914126  31.461531 17.526348 37.073097  30.440329 16.725859 36.451443  29.966129 17.58527 37.267197  30.0255123392935 18.03472492356367 35.88091271144472  38.418999 4.211218 30.137329  37.454517 4.540942 30.460093  24.07073930966418 3.185145961031509 36.97704842628961  24.237766 2.941509 39.990357  22.40567515800198 2.802789300076973 38.2939741976155  24.31765871711879 1.696046253826013 38.26660409839959  25.63331665228358 14.17031921870796 35.77781542031118  25.555899 13.00423 34.467579  23.111506 12.083866 39.990357  22.885418 14.037459 39.371601  23.84113903654725 11.42296054006373 38.19635701998983  37.40773 11.205506 36.081978  37.2876825395178 11.11069479593951 37.94425001250352  24.17359 10.501925 39.990357  25.55307147290346 9.0988376821748 37.62659447015477  25.495432 9.607146 39.990357  20.006428 11.479836 38.02507  20.426605 10.778785 36.826153  21.58349692070729 11.39019385471427 38.1730445068747  21.07027014138507 10.04314049541114 38.78387108963221  34.40633066874845 11.54410089534149 34.25809750386013  34.6918933916285 11.76548813708003 32.95650092066118  36.11747 10.430202 33.999577  34.53487 10.339671 33.924484  26.330366 5.081942 39.082741  27.79437920088307 5.275840197493826 37.08058457606105  29.203716 8.238950000000001 30.560162  26.074305 8.233489000000001 30.527079  26.663094 9.7049 30.935398  27.74711474016451 7.65424882069424 29.14628555630502  23.02018 10.351408 35.916107  21.836966 11.694723 36.130104  21.4445 9.763583000000001 36.049961  21.981249 16.406065 32.135944  27.32922130176719 6.998683173699101 30.86555557914869  33.28256721978099 16.22195454144551 31.69057718371057  31.30102861790414 15.58417098167122 32.18141396003062  32.54723558361061 16.30108011187064 33.17847532761584  34.388557 14.229102 35.336952  38.464802 12.259798 32.017288  37.82328624984481 11.33242262433563 31.42104483038538  37.856758 13.30654 31.483194  31.893021 15.627348 30.880547  31.734411 14.390552 31.226053  28.96721638074632 22.52983374009249 37.69639011416766  29.20818199093826 25.12720633605618 38.03374130977213  29.54046004020515 23.19422676175816 35.99114336209987  28.3380532840869 11.92359002608114 33.48771275646504  27.82553833939153 10.51600318618027 33.73630204582852  20.124662 10.768286 39.110733  36.479931 7.477303 39.066631  35.922504 8.521523999999999 39.167107  37.054192 8.039289 39.990357  37.55135533938321 8.17301880329455 39.00329609757745  39.127426 7.45883 32.717857  37.85006 7.030653 32.392895  38.19706 8.554944000000001 33.121403  38.30555906764393 8.064575209213743 31.62779639367779  39.378353 9.377862 28.474737  39.95923699999999 10.883289 28.743399  39.181179 10.434602 27.624483  37.95213620316356 10.79783600267351 28.14353815245956  38.02075007800698 10.79419348992309 29.91636710103581  39.95923699999999 9.831414000000001 29.859922  22.903563 13.121776 35.65173  23.561548 14.2127 34.896442  22.202835 14.148332 35.406429  22.18577837697593 15.03346112271108 36.62021929876742  26.280455 0.8462809999999999 35.897881  27.786783 1.25885 35.575603  26.577959 2.12204 34.333088  26.88943507574615 2.953853778705445 35.88461282320058  23.291092 16.579592 38.433357  24.175785 15.882723 39.202152  23.97990488288451 14.38252635370706 37.65315186144396  23.44517707117031 16.44017235609584 37.24675035679699  22.835718 1.995106 39.990357  24.010715 1.188285 39.304119  34.825932 15.40916 32.652832  33.057865 14.365431 30.323959  22.338072 4.389543 34.172195  22.695881 3.18992 35.031429  23.525188 3.41809 33.809746  24.60598505353484 3.754623089177691 35.25786457172264  38.49618994958684 8.565050101553609 30.12900667545662  39.95923699999999 6.932814 29.47644  39.95923699999999 7.28196 30.75757  32.715019 18.501949 37.659309  32.096046 19.76766 38.174511  20.739187 16.295254 33.394512  19.814198 15.611908 34.782574  21.186386 15.472649 34.271637  28.993055 11.403643 29.955736  29.101955 11.912559 31.71752  21.695993 5.887272 34.288208  21.788589 7.384339 34.95879  22.385321 14.998472 34.610416  21.505327 7.039671 39.990357  2
[...]
<PointData  Scalars="c_HbCO2"> 
<DataArray  type="Float64"  Name="c_HbCO2"  format="ascii">-5.2816858603307036e-37  4.7945729315468574e-37  8.5889182408446858e-37  8.0632966849938051e-39  -2.8566991454623011e-36  2.2437085428027272e-36  4.9191983860473993e-38  8.1352197773046489e-37  3.0770336313093005e-41  4.8750287537930359e-40  -8.4704441302935843e-40  1.2290712733945348e-42  -4.7575990988534243e-35  1.6278029160672565e-35  -3.4894623663906662e-35  -4.3626374805373587e-37  -1.5380434277908033e-37  1.1442531006390826e-38  1.2992538586403538e-37  6.2085657766772239e-38  1.4120591761579350e-34  2.9991471903143871e-35  1.4808608395855234e-36  -3.2769173269268705e-34  -4.3190136164199209e-36  -8.2148261120429367e-38  -3.9397925962266958e-37  -2.3908421051528869e-33  -4.6888839962604487e-33  2.5265786219696419e-32  3.1249019724746235e-32  7.8754695027394016e-39  -1.7099366860930247e-37  -5.2513264175233025e-39  2.3635523405570213e-37  7.5891305772745700e-40  -2.9687407284327219e-39  5.8363798381879043e-40  -8.9067577966839108e-40  -1.1978738220480206e-36  1.8458049558112777e-37  -1.3083601830245819e-36  1.0320580437594995e-36  8.1177903859531746e-36  4.1140118740812581e-36  -1.8413285462069581e-35  4.4191828531039382e-36  3.5742692852093035e-35  -1.5960791204352967e-35  -4.4782417511328736e-36  -4.9984413694929832e-36  3.4757281580460118e-37  -1.5913495883973177e-37  1.1135908516992977e-37  -6.4433211831721711e-35  5.3933659136651878e-35  1.6807549465650313e-34  8.8243668174074176e-35  2.0120113885571995e-37  -2.8373451870272452e-37  -1.0548392258251228e-36  1.0098292290560142e-39  -1.1633697306674659e-40  -2.6208552610780057e-40  1.5085114751460619e-39  -3.8516079164279195e-40  -2.9582931723183849e-40  -5.0282129421810054e-41  7.6232906193729625e-40  1.9018539172656417e-34  1.2213484731345816e-34  8.2998292647834411e-36  -3.1345351232571988e-41  9.8281317738556348e-41  -7.8766565712807560e-42  8.9054038869586739e-41  3.6466767655895197e-41  -2.8943944631200262e-41  -3.9575252859189776e-42  4.3540760772509523e-41  2.0715706392672525e-36  8.4006144736266117e-37  2.4218004236238764e-36  -2.5632471932055098e-37  -1.6348947069727781e-39  1.5001357872732750e-39  3.5569983057210821e-39  8.8323418002517049e-40  -4.7770003530272499e-36  -1.5845513776152693e-35  9.7452980474664588e-36  2.1487408148581638e-35  3.7817632591739835e-37  2.1927378557678952e-37  1.5195397867982906e-37  2.4714419733531743e-35  -2.1943292902332980e-36  -1.1739320999908181e-35  -2.2042950279613768e-34  -3.3901636123509359e-34  -6.8573544056056351e-34  -4.1708335323774457e-35  -5.8828080398112751e-35  1.4577457183947310e-36  1.0333991770752969e-36  4.4101105857810574e-37  -8.5391003725187056e-37  -1.0170744931447106e-38  1.1275522040871509e-40  -3.3817817632962294e-32  -2.7450070030879865e-32  3.1032101086001245e-33  4.1159826811457840e-33  -6.9975488405688673e-35  8.8933857452444101e-36  2.9319510685375370e-36  1.1363823647449079e-35  1.8518013503959384e-42  2.0944597008477333e-44  -4.0960810997074065e-43  7.7086822431540853e-44  2.2281370347662909e-37  -2.3984760390290121e-36  -7.3223827404190861e-38  1.4797205247830395e-36  3.4946695404848891e-36  7.7156133683666176e-37  -1.7183296067642212e-35  8.9135337575305335e-38  -6.1714580092026499e-42  3.5108088038913345e-41  -1.5464085654428946e-39  5.9662440029032462e-39  2.3197388814697943e-39  5.8903411715310396e-39  9.9132694111529702e-42  -1.4324409410597457e-42  -5.9497311776557373e-34  1.7259355340766938e-34  -3.2029924966533619e-33  3.1020204966248033e-34  -1.1673334087809632e-36  9.3769318006735498e-38  -4.7943570812850569e-35  1.2516552162354355e-35  4.4356884484788057e-36  1.2353416939144662e-41  -6.3473989818677640e-42  5.8122854863939630e-35  9.6712848582253246e-35  2.0967451357622434e-36  -7.8729039441044689e-35  6.8886055468127276e-34  1.0735292680644108e-34  -5.5758129647563917e-34  -7.4491325395360965e-40  3.0451855292972274e-40  7.8037529411055548e-41  -2.7673072379459431e-41  -5.2284810897326188e-35  -4.8527964655480265e-35  9.3102836713872305e-37  -1.3573684382913119e-36  3.6703935433051258e-37  -6.2458420552196635e-37  9.0111697003756180e-35  3.9449207827880518e-34  -4.9741457047584085e-33  2.1727792566813065e-35  -3.1377569104140065e-36  -2.4220311693098991e-40  -1.9840979475185361e-39  1.0643274872146884e-39  -9.8772214587366982e-40  2.0327131382653808e-42  -1.4039062151363067e-41  -3.9795999855940403e-42  -6.9159840604946468e-40  1.9556092714425252e-39  -5.0128247244202097e-38  3.2376063655659159e-39  4.4734392524420644e-39  -3.2797023356668964e-37  1.2547586412337897e-36  1.4491329458211934e-34  8.1111250663622650e-43  -1.1347628402229767e-42  -1.0341806176968034e-42  -3.5986193639262050e-43  -1.4592152916998401e-41  -1.3877017489420275e-41  -1.4688304750484085e-41  4.1853083197099625e-41  -1.1938913296767478e-40  3.9876731384665336e-41  9.9537244757632518e-41  -1.2102719841957090e-40  5.9037559708541119e-42  2.2359697994613346e-41  -1.3789399292129028e-35  -2.3717118371629497e-37  4.9715293301445015e-36  4.9208077865810817e-36  -1.3492621574949212e-35  6.9967371349181632e-36  -4.6527416300794115e-35  9.1087483739470295e-36  1.0790895304256448e-36  -6.2842032807544063e-37  1.1196326020748116e-36  -8.6097521033046523e-37  2.5748117274372850e-33  1.1621983475595705e-33  -1.4033242997402089e-40  -4.2722427243513137e-40  1.3506302402716965e-33  -2.4219423642810235e-33  2.2943415752681223e-34  -4.1995859720559483e-34  -5.1526177417568176e-41  -1.0232899581219933e-42  -4.9782997664816104e-42  6.8510551069481238e-40  -9.8786073276992043e-41  -5.0053292334702295e-36  1.1112020865915659e-36  1.8666209068328781e-36  -5.0898343428698100e-37  5.3316120525165204e-38  8.7545464499333182e-33  -2.1324732210560385e-32  -2.1940002592281544e-36  -1.0917667228045759e-33  1.4758104580125252e-34  -2.7796922970010748e-34  8.4603157235104020e-34  3.6605278971582229e-38  6.6719457595718937e-37  4.8850585178288188e-39  8.4408309143451935e-40  -2.2122767386498445e-40  7.4041396427777617e-41  3.9747283095051337e-40  -4.7313569275127243e-40  1.0013133523335115e-39  1.7937642666865677e-38  -1.7692203447848695e-39  -2.0416793658081325e-39  2.0008216605644147e-37  -6.7961212067512632e-38  8.7690379395649408e-38  2.0391763283797488e-36  -8.3413336106000783e-36  -5.8989268862075580e-36  -4.9477007175134421e-34  5.1247927334221386e-33  -6.4962631136561738e-34  -7.3635935688942993e-41  -3.4452809570503707e-40  1.3624641802538410e-33  2.3090771888715223e-35  -1.1778220581382205e-41  2.7197073990887509e-37  3.7692495845981201e-37  -3.0909559819474292e-37  1.0024797869193391e-37  -3.2776302008437292e-37  5.6815159893779427e-39  2.1771300467827119e-39  1.3067973620714762e-40  -4.1166912842838334e-34  -2.6195181714559039e-33  -4.6615685370752579e-34  -8.4402470603434181e-40  6.3082107979485660e-39  6.2865179596832353e-40  4.6371665997400587e-39  3.5629046832396286e-36  -1.7628804321084374e-42  -3.8961891381459623e-42  2.0863445383229642e-41  1.5331693036625935e-40  -2.6184058666288686e-40  -2.5494257519169247e-36  9.4232520459632417e-36  -4.5701930887569107e-37  2.4288578725196310e-38  -6.3421348796367306e-38  -1.9125845877989233e-39  9.5230093563284455e-41  -8.6386051310253976e-41  2.4822888033100841e-35  2.2163196076634244e-36  -2.4542648326669236e-36  -1.9477020781369511e-35  1.3428066012529796e-35  8.2705840518912108e-37  -5.9582486712144348e-38  5.4171760696728247e-35  1.4783933290943846e-34  1.3484216003768398e-39  1.6506621024421217e-39  -6.3157113578237480e-39  3.0616488347648766e-39  1.6744615335298873e-36  -9.9688917143612292e-37  1.1787951523025705e-37  5.9488684630292984e-38  -1.2472762921195375e-40  1.2813777896884478e-40  -4.6449995930194757e-40  1.1516285237362497e-36  1.5479638581939508e-35  -3.7745259161834182e-35  -2.5462553067633710e-35  1.9478509558743808e-35  6.1229914175463101e-35  -3.6731740868234030e-35  1.5380375147407745e-38  -1.5214989142090734e-37  -9.8715062477469385e-38  -6.6022461960882562e-37  -6.0646440549215624e-37  5.2865571593432978e-36  3.3715700231784752e-36  -2.9948613185144921e-36  6.5165275679030040e-36  -2.4236978807207540e-44  4.1323903570920982e-43  3.0420256317555766e-44  -5.8138365710731579e-37  -3.5296831690878363e-37  -9.4758888501253391e-36  -3.3016169920139359e-33  6.0702571501177105e-32  -1.9598909027024092e-32  -2.4491058187485529e-35  -2.6181986920851001e-35  7.8265691521742864e-35  1.1483034222453328e-35  -3.2987778817354302e-36  4.8541728971642829e-42  -2.1664444751020526e-41  -2.7369409353175006e-42  -1.0389442877305549e-42  3.4844030279033755e-36  -5.4211456903170585e-37  -6.2097130102150266e-37  -4.6206056512700285e-39  7.2884821072472933e-37  -4.4792802785212131e-35  2.9182761905856930e-35  3.6944825328960009e-38  -3.2390636266002145e-38  -1.5461011668510459e-39  1.0497002626592289e-38  3.0956063787469059e-38  -3.6036346658548266e-38  1.0426860858849318e-38  -1.0535164845328377e-37  -7.5322092052051254e-42  -3.8550655932749945e-42  -3.9708485465062531e-43  2.1509629518644330e-41  1.8143466125052381e-40  -8.2380767860729311e-40  4.1624635401134425e-40  2.2275969824995623e-40  4.7107103040768317e-39  1.8921672531589384e-39  2.0225351739493123e-41  1.1457796942688938e-40  1.0434010896550881e-36  -2.1787289768146622e-36  -2.7789902542263581e-35  -7.1142313802181265e-35  -4.8123592784855596e-36  4.2686779311744620e-36  -6.2817908520715441e-40  1.7233236085707734e-34  -7.3682647791668756e-35  -8.4497080114291366e-37  -1.8045045613989502e-37  -9.3675779166306146e-37  -3.6455019563528076e-40  2.3075575336267291e-41  1.5414894836945291e-33  -7.6769814057080719e-34  -1.7683006082670448e-33  -2.0715973055416789e-33  -6.7626023362319271e-37  -1.8481613546881452e-39  1.1264272561108700e-38  2.0937275997137497e-33  3.1480213910989446e-39  -2.4455364158695303e-38  2.3453752494769615e-38  -1.2707876010878285e-38  -4.4063530594995689e-38  2.0245600910883410e-41  -6.2558309573491088e-40  3.4608081165084606e-36  1.1503618771079573e-36  -1.9362793768524085e-39  5.4719995957732055e-40  8.3209767147210361e-41  7.7616686538665144e-33  2.5245616555101260e-32  -1.1193886709697740e-33  -2.9286999024202832e-33  -3.4051104932670320e-40  5.9667785717961250e-41  1.5536651712531108e-34  -3.1688613895563728e-38  -6.7921525803092443e-37  -5.4718084059036791e-37  1.7455363138804902e-36  -2.3399863072182040e-36  1.1448875077619251e-37  8.6629187649954878e-39  -3.7772841300860549e-38  -1.4968331150963789e-38  3.8069834901522698e-38  -1.6353328292553185e-38  7.4113380113188943e-39  -7.5307192025371794e-40  1.9597419703946345e-40  8.7564526380460408e-44  -6.0039060965938694e-43  7.9349371370492144e-44  7.2358955800032704e-38  -6.4414838172206441e-35  7.1160756103001613e-42  -2.2940421979975161e-42  1.8809994611287653e-42  -1.4824253799928302e-41  6.5463321487362820e-33  -3.5711247477579693e-37  -1.3865022461166805e-37  -2.3245267638960849e-40  3.9406970485982605e-42  1.7021318002652664e-39  3.7545685136588363e-42  2.3548535413843327e-38  -1.1737794909884652e-37  1.2447024079880064e-37  -4.8121161257316985e-39  -2.3653110320601837e-42  -2.8808392487354845e-41  -3.8198736242254465e-42  2.7744708729610812e-41  -4.1676567460708600e-33  1.9656330756926819e-35  7.3996813348831149e-37  -1.2157898867145294e-36  3.7245405122820848e-36  -9.9445074875354771e-36  2.9713321886937942e-36  -1.1263707734591915e-37  1.4110373574224277e-41  -8.9452242227437958e-35  2.6529820319974400e-34  5.5364614681307728e-36  -1.3773208304715262e-35  2.1780864098463418e-38  -1.0251497694148160e-40  3.0871337616456110e-41  3.6462546368332806e-41  2.1848145071675231e-43  7.8033861925094315e-38  -2.1621583132637077e-37  9.9407696324846747e-38  -8.2191569165985949e-41  -2.9693681194307562e-41  -7.1467242089903039e-43  8.5590011079188270e-42  -5.1749108085611247e-40  -1.8449803078208443e-32  7.8225882915738795e-39  -4.2025125377913520e-36  2.2208327887783069e-35  6.5628680876530993e-36  6.0183631022418449e-36  -5.0102219436821106e-39  7.7583975030398255e-35  -1.1074414319236066e-38  1.9253670366901806e-38  2.2833998493457402e-38  -8.2212787768548744e-39  -1.0539558123991880e-36  -9.1238750259769399e-37  -1.3366332841158402e-36  -1.3658299905382491e-36  -8.8824027533644766e-39  -5.9621254573970482e-38  -8.0035858053751607e-40  3.3534109372400920e-39  -1.0586763081360023e-38  1.4209244881325169e-40  3.3008407708793552e-36  -1.4754730102197863e-37  -4.3627690652237120e-38  2.8074026681882401e-42  1.5405435301055706e-40  -7.3258505554787920e-41  -4.8994695063875636e-36  4.7988515048551677e-37  2.2670018630002603e-38  2.1462856420689312e-34  6.3876483431311366e-40  -1.6096979421592656e-39  2.0746993884716274e-41  7.3608628232198627e-36  -5.9200045079972237e-38  -4.6709786598503461e-38  6.2623863440335245e-40  4.3557573976882670e-34  -1.6734806305869205e-37  6.7221523336724611e-38  2.1079644998934288e-36  -4.1149050710763377e-37  -3.8508553103718785e-37  2.3796911353382468e-33  6.1622764586374641e-41  2.7612354633353245e-41  2.5600525131374093e-33  3.2318256843546626e-36  -1.4360263904470433e-41  -2.3765935512837404e-41  2.4020998977507797e-40  -1.6159470889944076e-41  8.9937235233926647e-41  1.0404664101196008e-41  -5.3733239599188472e-41  1.3168185371632532e-33  -3.8379248236108032e-34  -1.8710573650706247e-37  -7.0643995064629015e-43  -9.5412693229705833e-36  4.0301184687533499e-36  1.4489760151928773e-36  -6.4285422154434362e-36  2.1501348459874141e-36  1.8232107649667019e-35  -1.2147736137873200e-41  -1.9325709748659049e-41  1.1125435434788355e-39  -7.8768201311847544e-33  3.1070211261694249e-42  -1.5355611524449928e-37  -4.0974141955427678e-42  -6.6403365989323762e-37  1.1168900642885837e-37  6.1030329192881199e-41  -2.1085683600039326e-39  3.6101642261424108e-40  -7.4816733549150424e-37  -4.0542717089094985e-35  4.8623492023535721e-38  -3.6687705704596791e-38  4.5045303382266035e-43  1.3715964570156230e-43  7.0503515953922985e-44  -6.6062292578351517e-43  1.8365254548256122e-40  -8.9852795096204320e-40  5.0754676072186999e-41  1.3434357992175177e-40  1.2231691449334198e-35  2.7439298498743925e-35  -2.8813257845024401e-38  1.0602828009058732e-35  -1.9949184420025803e-42  -5.3193774244230421e-43  -3.4118725866337344e-38  -1.0879339775338534e-41  -9.3994680101849671e-42  1.4120881315133542e-42  5.9813971368544819e-42  -5.0316714858515471e-37  1.3135170399306075e-37  -2.4656720165143348e-37  -2.2107359558275142e-34  4.0434137210201529e-35  8.6576418490500309e-36  -4.9837969147272189e-35  1.2588049683830498e-35  -3.9269476674983708e-35  -2.1969448353923766e-36  -1.4759152273040825e-38  1.3461639033781058e-38  -2.4893114106829276e-37  -1.6186878247033116e-40  1.9905459191994608e-41  1.0965112791385372e-41  3.1306067987526276e-42  2.3154367005778585e-42  9.6954045310148578e-39  6.4172517259810554e-32  2.4844431762159180e-35  -1.5513358542340886e-40  2.8307756168819811e-41  3.9231450053760221e-41  2.1268474803548919e-39  4.8650445512859660e-39  -7.9895171299687163e-39  -8.5428373443526082e-44  -5.9163205876315132e-34  8.3953223643638971e-35  -1.8941028377350355e-40  -2.5296478464267809e-40  -1.8360677015998232e-41  -8.2755929865748654e-38  9.5472200533993453e-40  6.8309815804739139e-40  -9.7583076408720634e-41  -7.8069860938238879e-38  5.3785577678344198e-39  -3.8128907405003075e-35  2.2276295944279485e-34  -1.4953142578104664e-40  -7.2543530697994799e-43  -1.5506647725599790e-40  -1.6369619239880607e-38  2.8248082034033992e-39  3.6831142957346276e-36  -3.3628852635973775e-36  -6.7085435947975077e-36  2.3574027170176817e-42  -2.0109386727745088e-41  -1.4441922745771966e-34  1.0963229905980324e-39  -2.0040596098300066e-36  8.4473614313823994e-37  9.4031247026317653e-40  7.1841491123593452e-42  -3.8411298408679178e-42  2.4195399157406017e-42  1.3856603796705620e-34  7.1167809302406745e-35  3.9469241426993680e-43  -1.0530345540420598e-39  -1.4765134073682715e-36  -2.5225881665516912e-41  -2.4389316957076450e-41  1.0081406837885889e-40  -1.3833157316311140e-37  2.3274418306518707e-34  1.2356576068467955e-36  -5.2278162695509000e-37  1.9894890187122750e-37  -6.4352403349432471e-38  -5.3005038186132872e-36  -1.1784152570093480e-36  -2.2193382466931062e-37  1.7993463737611237e-39  -1.4503166996955068e-37  1.3675426084314567e-42  2.5160378401646738e-42  1.1137150591328695e-39  9.1836913028575974e-42  -8.0975313550939031e-36  3.4284502124425976e-35  -2.2227870556411893e-34  2.6416122959975377e-36  3.3183038973675653e-34  -4.0089344733195647e-36  5.1142543524801564e-37  1.7731327589833335e-34  5.9092819749397408e-36  -2.1560551402932733e-35  -9.3387931538234469e-38  -2.8738722690427217e-40  6.7107503139337655e-41  3.6591475897900793e-33  7.1401877434245578e-43  -3.6008163580731950e-42  1.8699863798376982e-42  -1.1933576430323671e-41  -4.9862141951316782e-33  7.0415037475447033e-37  -1.0680507156609970e-36  -1.2731547292752200e-42  -5.0942713761248172e-38  9.5735436280178440e-37  4.8246238282569485e-40  1.0935142776499404e-40  2.4798091280691033e-40  4.9345966872734406e-42  -7.7664490129031617e-43  2.8615407272330537e-40  -5.1334674987343979e-41  -2.2781889948540931e-41  1.5206866939979129e-39  -1.6779406069324090e-39  2.7253419368513622e-40  1.3587295965041704e-41  -1.9264871284065116e-35  1.4376949621661308e-31  1.3579106611348478e-40  4.0090729976282978e-41  -1.8389378024331645e-42  -1.3026160928168530e-40  -1.6088122942452355e-40  -1.1867269556130976e-35  -1.1568058445248868e-42  -1.1397554993052345e-40  1.5467481492148429e-36  -4.0436755656874539e-40  1.0936398226164267e-38  -6.9702172524285830e-42  4.1204507410662515e-38  -7.6958956087974571e-39  -3.3439410104191845e-40  -2.3771778830718494e-40  1.1634363579372331e-37  1.2027734440673931e-37  -3.9594890940768684e-40  1.0730839296808874e-36  5.3242378643935025e-41  1.0950648400615215e-41  1.9956796175232516e-40  -6.1760872520355769e-35  -1.5778001256648073e-41  1.1737071777044636e-37  -1.3301180877544198e-36  1.9581030689827488e-42  6.0150885871716450e-41  1.7905690469870569e-42  -5.1223181574029569e-32  -2.2836813204576562e-40  6.3035527125256235e-35  -2.5378103254511002e-33  -1.7467019858645828e-41  2.3740005594752970e-41  4.3901839484284061e-40  1.6973176902616430e-42  8.3544187010152779e-40  1.4039670668830293e-36  4.7808533359851266e-41  -1.6122814091447368e-41  -2.1131854398379735e-43  -2.1975778378156993e-36  1.8818641274308758e-38  2.3889932133749064e-39  1.1523139427172579e-39  -3.5531203137827248e-41  7.8134426306892609e-42  -2.0627393351696254e-42  -9.1537722610529670e-43  1.8034412413773829e-43  5.8207283894589240e-44  -3.9549030040739188e-38  5.2569002769041436e-35  -2.5477501658793623e-36  -4.7874983863064716e-41  -7.2550080588510432e-35  2.6213861689661317e-36  -4.6269378221823017e-37  4.0681800376633748e-38  1.2083750984683713e-37  8.0704765367061967e-44  7.2929087834268935e-43  -3.6640750677064720e-43  1.8555830067223781e-35  2.1752979626386223e-34  -3.8984857358978822e-36  -7.7826448025990136e-44  2.1774234264184647e-43  -1.6077535435804609e-36  -1.0250747899172648e-36  1.2791152621486437e-39  1.5732109442140413e-37  1.1915972839708981e-42  -1.9570148718029042e-36  -4.7473188315940093e-36  1.6047955903282800e-35  9.7833307008404485e-37  2.1989253191068341e-41  3.1220749292926865e-35  3.3182182884717324e-36  9.5599652336762656e-37  -5.6029229347560434e-36  -7.2199574866075356e-36  6.9229356041807530e-36  -6.1750079406756403e-36  -2.9735519074432788e-42  1.7935896423344952e-36  -1.1295572887832055e-38  -1.2132605013221519e-35  5.2410857595083482e-42  -2.1755109374030969e-36  -2.2247529401165053e-36  -1.4699173793610956e-36  9.0981887947660041e-41  -2.7106527676868942e-39  3.6115393993294328e-37  7.2031584823665291e-36  2.4653278191976292e-36  -3.4182883199957993e-39  -2.1752850296219656e-38  3.7540617687874862e-37  4.3804994174063323e-33  -3.1532643291144022e-39  -5.1305410932335865e-42  -2.7010138304224953e-34  -1.8836880719557658e-34  9.5731953428186011e-32  -1.2849216447706925e-36  1.1311103095543825e-37  -2.9143640947623247e-36  -1.5301152639071074e-44  -4.0793869980466405e-39  4.