<?xml version="1.0"?>
<VTKFile type="UnstructuredGrid"  version="0.1"  >
<UnstructuredGrid>
<Piece  NumberOfPoints="871" NumberOfCells="2837">
<Points>
<DataArray  type="Float64"  NumberOfComponents="3"  format="ascii">16.809328 -0.01335700000000001 4.290929  17.893618 -0.01335700000000001 3.426736  16.887096 -0.01335700000000001 2.665009  17.19005962777042 0.9865154810395201 3.468847324527784  28.44947532506188 19.97578980697011 2.771330124666097  28.81391 19.862478 1.206187  27.41230703368459 19.30353272607462 1.433204144484342  28.02411280415201 20.66322277099767 2.023723280165352  20.76408 7.311708 2.439075  20.896225 8.802512999999999 2.861443  21.037191 7.79706 3.814613  22.29990796458043 8.348893107145134 2.879757774698256  25.323948 7.836603 6.169925  24.01925713352778 6.28123624442375 7.503542182038773  25.3873248984183 6.222060445297412 5.713050343394928  25.61437613994522 6.855351154894088 7.442355451602913  17.084988 2.840739 3.323675  17.688803 2.113634 4.364354  18.16325909322191 1.665831259172509 2.190629801551494  25.955263 22.939219 2.888069  25.48851 24.547083 2.786266  26.706257 24.535597 2.642296  25.81141670688831 23.93695557629064 1.555956866094582  36.373177 9.606377 2.273764  36.262905 9.206118999999999 1.077623  35.32806 9.288929 1.813319  35.60919431792103 10.25793698080031 1.305113405851828  20.175013 6.199462 1.567203  20.284212 5.892829 2.777529  19.562344 4.752868 1.996961  21.54985099458173 4.330333068847397 1.912878772279063  25.703373 4.952629 0.9225640000000001  26.441959 6.438513 0.69259  25.26546893250623 7.294513778663734 1.968650285222336  25.42174618775987 5.598554759123193 2.66027614459052  23.651155 9.615437999999999 0.03180900000000003  25.86310131965605 9.434483510941302 1.537524981993732  24.366489 11.168557 2.01503  24.346287 9.857745 2.713108  23.118298 10.231222 2.898875  22.37149 9.673155 4.378044  22.170292 13.040499 7.289567  22.971844 13.954695 8.181945000000001  20.68172796892375 14.46033727858538 8.629234506524112  22.05110365491535 13.56090306307788 9.30285759357152  20.995047 4.80344 6.456675  20.89485 4.036228 7.906526  22.24102055391836 3.610180706052513 5.730000987917365  23.01087933275009 4.297542140655896 7.955847766906648  35.86335 14.743967 0.03180900000000003  35.027061 13.234049 0.03180900000000003  37.05069 13.351755 0.03180900000000003  35.92211011768444 13.42680037003208 1.125692114702213  24.970671 17.243484 4.22919  25.634613 16.906595 3.379239  24.016993 16.802717 3.32941  24.09446861273442 17.91847682742779 2.620841973758472  20.278311 2.755863 7.734007  20.601351 3.338219 6.567168  22.35651076319918 2.088230699872792 7.432879184004477  21.56194547632735 6.198007474179751 1.574599962678183  27.723421 1.452638 8.784215  27.202991 1.816506 7.697396  27.275824 0.7548550000000001 8.404992999999999  26.22806381435569 1.132649924422045 8.41002428015333  33.518349 19.214472 7.269745  35.95296488285735 18.91229442006089 5.073159226309348  35.1364803863777 17.50713905269505 7.49853625377026  34.57471212672811 16.88261986221835 6.082982073252245  34.852684 12.468493 6.657904  34.233505 13.80504 6.283744  34.975746 14.110637 7.423448  36.02626378290078 13.41540593226919 5.749085437318049  28.476978 15.800415 2.039324  27.647249 14.112927 1.988805  26.935184 15.257313 2.185978  26.8614620681676 16.02975962595324 1.415462846592458  24.00145 5.031047 0.03180900000000003  23.410521 3.518879 0.03180900000000003  24.77733 3.801096 0.03180900000000003  24.30895425531581 4.151600945710541 1.735334345900422  33.808357 17.498457 2.70333  33.5353982077402 17.58152731970218 4.769079321830566  32.58396108641409 16.70781553720084 3.878981093912758  33.67191329457509 15.83759668816388 3.302101311175961  20.218065 11.65398 3.026939  21.775484 11.504457 4.239906  22.118135 12.481122 3.499643  20.26207 12.750249 4.456417  20.563757 10.220699 3.569449  18.497854 -0.01335700000000001 4.531456  19.109287 0.775329 5.733486  19.05727 1.995144 5.026016  17.645977 1.036734 5.007983  24.84233314262383 25.90155901559168 1.57038782502973  26.133881 24.505461 0.03180900000000003  24.652531 24.694885 0.03180900000000003  26.40012136054056 25.75539111624172 1.294851272476892  16.91690851810002 1.423660653576979 1.468502657243572  19.821999 13.926612 4.606795  19.50694599619843 15.10775900470122 5.702345065056686  19.579639 12.963383 5.481237  20.75507231650841 14.04796343007658 6.077600639439207  20.850313 8.619751000000001 1.416296  20.936666 9.809708000000001 0.729368  20.550852 9.944241999999999 1.947997  22.55428195699658 9.451799072351081 1.603181255314754  25.975105 17.765808 4.327852  25.48942801927428 18.5780475429667 3.357529477158949  39.045494 10.069818 3.075721  37.869385 9.675609 2.868666  37.5586772180867 11.35823947001052 3.266179856145174  37.7171543739741 10.47243950097341 1.469991047828097  29.731218 10.038726 2.873748  29.42813627519032 8.702846805249871 1.546174039771821  29.838552 10.797934 1.556685  30.7414342144218 9.369241086604079 1.62625137700024  35.317528 2.564067 0.779415  36.384819 2.796992 1.164871  35.443748 3.601854 1.854967  35.49931 2.425316 1.40374  30.082388 13.280383 0.632143  30.359232 12.944481 0.932959  30.127121 13.583051 1.345778  29.657284 12.961717 1.127946  23.748905 14.283957 0.703887  22.60103481907004 12.84477475492169 1.431456537888246  23.718647 13.011046 1.599547  22.748169 14.602684 2.596738  24.332651 7.784599 5.020685  25.798424 8.040647 4.8933  39.090248 13.500648 2.913805  39.366375 13.021732 0.806956  38.71946198707353 12.08984611128799 1.736648956801448  37.81055933137018 14.01839863026157 2.097920574395856  23.801632 18.598383 8.566207  23.985405 17.159016 8.689969  23.098766 17.741072 9.516605999999999  22.64523018475896 17.97806598647053 7.79227531078106  24.093866 11.840395 0.854064  23.038046 11.804169 2.498424  22.2580019037117 11.08407981214682 1.365355546469298  30.758852 9.886315 3.675044  30.69225545755546 8.572624037112154 3.245659822450889  32.00152131538654 9.417270748143251 3.026551462904916  19.363947 0.699231 3.303506  20.881857 2.950533 9.047829999999999  20.574907 1.317208 9.059314000000001  20.897154747472 1.255765367454622 7.858551360185909  27.746357 19.811232 3.999814  28.42800495619781 18.89238279639824 3.244341935762162  26.91331639669881 19.46530344248805 2.808665806923226  33.820904 16.20108 1.880707  35.086548 16.999722 1.746978  34.95034840733805 15.77508135514333 2.236335284653653  26.63432249978735 4.744287249846321 6.623712191803263  25.58108265156245 5.533481436582005 8.019850914400662  23.122534 8.357752 5.583769  21.055372 7.441794 5.144985  22.86482799283407 6.480875483855963 5.142244340621275  22.42149538644355 7.562117358593766 7.100759172788679  22.899424 12.499574 8.331502  24.066252 13.173302 9.107924000000001  23.4794365344404 5.873896771700125 1.455625102886748  33.100658 16.382524 6.600626  33.611755 14.991608 6.458076  34.25757869092907 15.73588301612896 5.049486111773797  28.757181 5.914578 2.129594  28.687407 6.966165 0.7773  27.642759 6.415171 1.055261  28.18997098843379 7.682128417105586 2.212819651320543  34.1236 14.798654 1.075203  33.089977 15.202509 2.188452  33.170036 13.977596 1.953035  34.79208870403635 13.77364867003594 2.244762912889382  22.305073 15.562874 0.03180900000000003  22.391829 14.082232 0.03180900000000003  28.502094 10.49684 2.369139  28.96925844787232 8.749496643691614 3.101487619603312  27.7203155576911 9.368515260502523 1.851546803170936  27.959827 24.679432 2.805178  27.291712 25.644104 2.186163  27.58101195843822 24.53246579187364 1.336580782465817  23.098213 8.044909000000001 0.03180900000000003  24.402637 8.176868000000001 0.03180900000000003  23.91138727863338 8.661426386763582 1.89120744191234  25.985134 14.148208 1.597938  26.927578 13.774155 0.03180900000000003  26.854818 15.02271 0.03180900000000003  36.127399 12.349361 0.03180900000000003  35.80975001242335 11.747724420826 1.703169560867142  37.41876041778538 12.71946846567378 1.964627908073157  25.635126 18.995255 4.95416  23.96228247638771 18.58254860562164 4.367040784990282  20.959641 14.69242 0.03180900000000003  20.89909 15.707347 1.219603  19.723749 14.941512 0.869881  20.44670335334206 13.89124727024987 1.121501830816712  20.393381 14.708741 12.698272  19.525961 14.04355 11.207565  21.42123464615937 14.48977455321212 11.06109435974706  20.83612097146757 13.30548385874959 10.79089213277073  28.276112 14.89914 0.03180900000000003  28.508846 13.094235 0.7172460000000001  29.073206 14.329733 1.909893  39.372799 12.331864 2.750795  39.95923699999999 12.180956 1.260697  39.95923699999999 10.80794 1.957433  23.37693 8.718394999999999 7.395732  22.35057922282553 7.408876543168095 8.669176605462528  23.28389575470231 6.981821673963123 8.582078076796053  25.938894 10.413218 2.679543  20.074871 0.656399 4.963898  20.300116 14.973181 3.766496  21.262274 15.549756 4.625999  25.211905 11.04637 0.03180900000000003  25.546518 9.602563999999999 0.03180900000000003  22.68928642051452 17.21567423879245 6.112712654289078  21.1138232830129 18.96594509682848 6.631198041658768  20.44308031463959 17.37343849742046 6.481110950774484  23.752388 16.421392 6.134096  21.48045663889135 16.0360725317714 6.89831174436111  23.643583 16.105309 7.644427  32.38261 15.507024 5.174025  33.361515 14.132536 5.307387  23.998281 0.640531 1.053849  24.226486 1.291925 0.710168  23.153196 1.134281 0.759613  23.377434 0.906061 2.217416  35.210613 15.901191 0.907512  20.875784 9.007773 4.342227  23.390984 8.18441 4.222922  36.20139867551309 16.64672115157533 6.109235855757549  34.16116 15.699978 7.646983  35.56167310103248 15.20045441868246 6.049316656047761  18.085484 2.015302 0.03180900000000003  17.725058 3.162051 0.992178  19.847559 2.435605 1.032194  19.014679 3.641712 0.805836  21.74880147919727 13.03782109483492 12.40333712932949  23.130915 18.376059 0.910191  22.143888 16.843657 0.843911  22.981615 16.985748 0.03180900000000003  22.700596 17.543783 1.762939  28.656635 13.116485 1.715777  26.958637 12.699095 1.825399  27.476
[...]
<PointData  Scalars="c_HbO2"> 
<DataArray  type="Float64"  Name="c_HbO2"  format="ascii">1.0856626114127082e-26  1.1880282230421139e-26  -2.3913413014063113e-26  -3.9404264909644724e-26  -1.3231128781182168e-31  6.4717326557301768e-33  7.1444189650779850e-33  -4.9285689062894720e-32  7.5939241832215233e-31  3.3295559078677796e-30  1.4151331148464425e-30  3.7174484833865157e-31  -3.0287050274503427e-31  -7.2405690594822072e-32  1.4862971014274892e-31  -2.1993924152090398e-31  -1.2382163128474579e-26  4.1588905083009141e-27  6.3349618761262596e-27  6.3320374771280725e-31  2.9491430772053694e-30  -3.1184966941798071e-31  -4.8103313241899494e-31  1.8571579335237241e-37  -9.0335986330457557e-38  -2.4241438217920319e-37  -5.3827110032364905e-37  -2.0345731081575151e-29  -1.4220092876641359e-29  1.4081488964378911e-28  2.4659339879718229e-29  1.0398738260880308e-30  -2.9146363382043298e-31  3.5151973355276518e-32  8.2835406440642839e-31  8.6041176500215357e-32  5.9756733065730492e-33  1.0186085910945811e-31  -9.1025583949409311e-32  1.7924573328461683e-30  -2.6977008648814798e-30  -8.7372104013385855e-28  1.2311944875321312e-28  7.4950513675658235e-28  -3.7981831829337301e-28  5.2311054063046882e-30  3.5829597212512866e-30  -4.3589562853197143e-30  -2.5258067368903113e-31  -1.6896655619393031e-37  3.1832202818910316e-37  -5.7440951023452840e-38  -2.9887391250707139e-38  6.0272365121132897e-30  -2.7341675620832722e-30  4.3523294582268787e-30  7.8365984339505857e-30  -1.6874376249508996e-29  -2.3876866684889032e-29  7.8707005779259932e-31  6.2911051776283665e-30  -5.2543530216876084e-33  4.1149738565974568e-32  1.9351706437559774e-32  -1.9893485143457970e-32  1.3009734995284173e-35  6.3518116603153482e-36  -3.7834228174156908e-36  -3.8254687271821604e-36  3.5325273154726467e-37  -8.7001577749567044e-37  -3.1104304437165880e-38  1.5611371384242619e-37  -1.4252038652495538e-32  1.5919762141232782e-32  -9.6641737767373543e-32  2.7120822663022887e-32  2.9370984226712570e-31  1.0848309266068042e-29  -2.6960554790394763e-30  -1.9790134704714253e-30  7.3001236525091739e-36  -2.5902271874478046e-35  -5.5258243601190238e-35  6.2627973679115346e-36  3.2314102984712957e-30  1.2637128438983474e-29  5.7708517092897800e-29  -2.3902213338478450e-28  -1.9201256725408068e-29  4.9274736071426870e-27  -6.6827040392349517e-29  -7.6690632986814290e-28  -5.9313157053063777e-27  -5.1771291623365557e-30  4.3359299563484921e-31  -6.1401135616714444e-31  2.4959493697791002e-30  6.3518247453955612e-28  -2.9528763573693319e-29  -1.0761648744158761e-27  -1.2761328904228537e-27  1.8126900357580892e-27  -8.9166329559944805e-31  -6.4364186649809830e-31  2.0167806501474719e-30  -4.2499873323226256e-31  -4.4781884142965506e-30  1.1072704372727278e-30  -2.3169265553964710e-38  -8.8354080499143645e-38  2.7502710227185766e-38  8.4560456922515375e-38  -5.3115813070323111e-34  1.7290594203367199e-33  -4.6323667285278424e-34  -1.6094920554111198e-34  1.8514965323467685e-37  -1.2336206078414242e-37  -3.3479290624684798e-37  1.8087169974756684e-37  9.0277863457018927e-34  -1.1066178967338864e-34  -2.2017231948003647e-33  1.8275702662257091e-33  -1.0413920506494028e-30  8.7414478609931804e-31  -1.5860599780270542e-30  5.1333885925422352e-30  -5.1002310568920211e-31  7.9237919745833725e-32  -8.2375606848845328e-39  2.6685743474777044e-39  -2.7632772586874307e-38  2.1527849872800229e-38  1.7084078613577375e-28  1.3306702624145863e-28  1.7452889799818240e-28  -5.4994854449884974e-28  6.9460546845657329e-31  -5.2922980349334626e-30  1.0580058109453834e-30  1.0741283310323580e-34  -4.4494687913665681e-35  7.5767735137469393e-36  2.8507975804410292e-27  3.4813481864754011e-30  9.6197038463431118e-30  -2.2506575937779364e-29  4.1562479070782223e-31  -1.6282769061402721e-31  4.8640433934677291e-31  1.8896586681375436e-36  -1.4199007677442211e-36  -1.4359721918568762e-36  1.2382273315753836e-32  -1.0605796225931111e-32  -2.0666347154290174e-31  -1.8618158192378578e-30  -2.2719995451580139e-31  -1.7466451879700739e-30  -2.0073882577890780e-28  7.4271653387067018e-29  -3.4353715276047590e-30  9.7334623087871169e-36  -1.5250013326421262e-36  5.9503193080618874e-36  1.7920965082822968e-32  -1.0117556280527104e-32  5.5178745024537412e-32  -4.8883505965263168e-33  3.3697236822178041e-37  -3.2965300151285559e-36  7.9231842713881994e-37  2.9231557245687552e-37  -6.3111454286006533e-31  -3.8944709424096601e-31  -8.2459906446693960e-34  1.0316862201936417e-33  -1.2645308880132921e-33  5.6651723869794132e-32  -5.2249291456881593e-31  -1.3347663183831029e-31  4.6036932606063612e-31  -3.1301994611242383e-31  -2.5712069796120852e-32  -6.7739273993801484e-32  -5.7623789836306967e-34  -1.3377565281052004e-32  2.0218707229287714e-37  -3.6540581519968924e-37  5.0046003115296325e-38  -3.5523649508449602e-30  -3.5706078206786961e-29  -3.6215802748962916e-31  3.3354422201709159e-30  -4.1604869146545461e-31  4.4745853622459025e-30  4.4645675731865082e-28  -1.0787117866634808e-28  -1.4610389994120074e-28  -3.0527638234243199e-28  -5.2793214328493640e-33  -4.4466920088170730e-33  2.9488550912506260e-33  9.9057231001849994e-40  2.6550740993710487e-38  -7.2335877848723129e-39  -2.0251779342489777e-29  5.2472693079786269e-30  1.9446266829436443e-30  -7.9811810433639876e-33  -5.5843766356978247e-28  7.8792919112380446e-29  -2.1628487338346160e-28  -6.7208978553184786e-32  2.0773180452685368e-32  -3.8300779454601068e-28  1.7652512973556792e-27  4.5897154741523851e-27  7.3876470464282798e-29  -3.1554656216928338e-28  3.8553335439038633e-28  -7.4291125189516304e-36  1.9217842394704965e-37  -4.0571282850161785e-31  6.0264192743669021e-30  -1.3566020464027959e-29  1.8053438027370450e-30  1.9001949363781498e-37  -8.7657611649802957e-30  1.9027845669914248e-30  -2.4618019744730931e-39  1.4535405368206244e-36  -2.6196320588982912e-37  1.1318205823786943e-27  3.3677064043761823e-27  -1.2412019497717460e-27  -5.3120662947394595e-28  7.6387475026975017e-29  -1.7547312973149769e-30  -3.6652574384469400e-31  -1.8632797916372731e-31  2.2750659913338397e-30  -3.6625529120592655e-33  4.2006971386475307e-34  1.8374367221902288e-32  3.8851117920867229e-32  -9.2471594242375522e-33  5.9007961917957227e-29  5.2847957921604715e-29  -1.8448100236890918e-28  1.7865648081270968e-29  -5.9490503075512736e-33  3.2351436991326021e-33  -1.0102277270978703e-33  -5.9927160420827006e-33  -2.1558543228169145e-29  1.0417714437695586e-28  -7.2290764491529419e-29  7.7986503028256745e-29  -1.2698819730445781e-29  1.2133321412458156e-31  -1.0799711432325441e-30  1.7454329513364082e-28  9.6117654102807798e-29  2.3369351101607308e-29  -1.7595549608003964e-30  -1.1457500621267876e-30  5.9854321449801888e-31  6.6946755146422767e-30  -5.7472015555615004e-30  2.3691362352101928e-30  6.3159981178196783e-31  -2.4955131238274194e-27  -1.2677235232762300e-28  3.0503696214876540e-29  7.7921836368724499e-29  -8.3335272857912711e-30  -2.1839629178058085e-35  -3.5697002770336402e-31  1.3726432960357920e-29  1.4088015743192725e-30  -5.2615803455496661e-30  -3.8631431659647410e-35  4.3130260667034432e-36  2.1304208639169663e-36  7.1367085968661895e-36  -8.4123122091339193e-31  -9.0510082608215360e-31  3.2977483643453705e-31  2.2450483581042110e-31  8.7199316787782704e-32  -1.7065400834935872e-31  -1.0823012253086372e-32  1.0225828047920088e-29  6.5839599659007849e-29  -7.3735032185144977e-27  7.0163494825050907e-27  2.5031161931732480e-29  -2.2050415940231775e-30  -5.1522084421184648e-30  -4.6763935403390450e-32  -2.1585153593492218e-28  -1.8675862414691245e-27  1.4464401623754839e-27  1.1711175791260791e-27  2.8315816222201526e-28  -1.7794413465425361e-27  -6.3874201599316871e-29  -1.7536611465959120e-30  4.3415762642528416e-30  4.9797375607765478e-31  3.8794276776919524e-29  -1.0528544103795443e-35  2.2082111468418311e-36  1.2525306196156027e-36  7.4964001578570694e-36  -2.6271497354838439e-32  -1.2157757792620209e-32  -2.7415040775951379e-32  2.8558444407475541e-30  6.9569906524064750e-30  -4.6642735790522918e-30  6.3226976818433977e-33  -1.2095701763648859e-32  -2.7941155277965789e-32  -2.4320174073618926e-26  -2.5443103134383390e-32  -2.8197268504956529e-31  -1.0228096201966028e-33  1.9788236043008050e-32  8.9680306681748486e-34  -3.1859471201260631e-33  7.1029079893730827e-27  -2.2350657982432681e-27  -7.0394620155449020e-36  6.7814031476097135e-26  3.5302892175875223e-32  1.7547351359249859e-31  -4.3217998282848822e-32  -1.6909510411053032e-31  -1.2324606010014637e-37  2.2208173115347196e-36  2.1894162088762650e-34  -8.0812878466827802e-34  1.9604283504034892e-33  1.7536053274086810e-27  -1.8767540159781535e-27  -1.2072679995065235e-29  -8.9712826484963931e-31  2.0713515731866232e-31  1.3983693265659001e-31  4.0311243441328248e-31  8.7908602657191036e-30  2.7646473877140541e-30  2.5796197860961655e-30  -7.8450870228846701e-27  -2.5440948949603944e-26  -1.1324168750984010e-26  -2.6113646791386527e-35  -2.0979159317663758e-34  6.6086052528382034e-34  -1.5235240544570227e-34  2.1655709180119173e-37  4.3818384733174498e-37  5.8606079811687926e-37  -6.3255761613688322e-33  -2.5422255968853217e-32  -1.1525208271676077e-29  1.8193880448417648e-31  1.4572958930794614e-30  4.5029176622250496e-29  3.2248861641437216e-33  -3.0177493642706155e-33  1.1824101414075610e-32  -2.8732639836223229e-33  -5.8708955249430054e-38  2.6234555113417501e-37  -4.2744558955770997e-28  -2.7354136904939828e-28  8.6446655472439348e-30  -5.8768027774946334e-30  -1.4408469153963348e-27  3.0702603345958551e-31  4.6530880159309352e-31  1.8741557514023919e-31  -2.7168521618853996e-31  -1.9093236265788403e-28  1.0507652483750352e-27  -5.2258960944580987e-28  1.3686894317997077e-38  -2.3718414546077161e-32  3.4263495512173529e-32  1.3172028080305312e-25  -7.2062551893498042e-35  1.0555677143661708e-34  -1.1785069901649735e-33  -6.5177601991372140e-31  -7.1834061423187664e-35  4.5413620052047717e-34  6.5762989119845998e-32  -1.1474308003235456e-29  6.6471350512824935e-29  3.6926681567802686e-31  -1.5378782418285374e-30  -2.0667976572164051e-30  1.5734147933435814e-26  -1.0208326597703465e-26  -3.4561669459280338e-27  -1.8306341842706718e-37  1.3628970229720226e-37  1.5089542005252021e-37  -1.1228446861408308e-37  -1.2133354602829639e-37  -2.6985468353462709e-30  -5.9598599812033831e-30  -4.7467465839194372e-31  -2.6534164566084716e-29  3.7564090867297560e-28  -7.0021424038392144e-37  7.1706920925883789e-37  9.4769069498428791e-32  -3.9420912128984193e-32  4.2200747832201284e-32  6.2832052117514574e-32  -1.5186192787919563e-26  -2.6147946541852841e-27  9.3397083746764667e-27  -9.5186370013255931e-29  -1.7678032794738468e-35  2.0645389158070415e-30  1.3942778881760649e-32  3.1858807888895005e-32  -1.8889247562956470e-35  3.8523582914935425e-35  4.9850535239771593e-30  -3.9010882729675974e-31  -1.5768722935706069e-30  -1.1168440322611924e-33  4.1638619073179936e-33  7.2903996324434808e-32  2.7028839115679774e-32  5.0095118280656550e-28  2.0022814575905935e-28  -3.8328920304632186e-29  5.9506114462719205e-32  1.2954023387634753e-31  -1.0290906689468460e-30  3.0717740281661668e-31  1.2313752945280542e-31  1.0020374634229446e-27  1.5040952661494333e-28  -1.0919100082473826e-28  -1.6933881710739561e-27  7.0035835195070914e-36  -1.7388312792547254e-36  3.9512834480729468e-36  -8.9297378167579417e-36  -2.4900210419435939e-30  2.7378468012849819e-30  1.9306340896205599e-30  -4.0930235372853251e-28  6.9987111247393232e-28  2.3027932196987275e-27  -4.1138448002592186e-28  5.8975455023517607e-37  -5.1353361448002618e-29  -3.4870384438808700e-36  4.8675824447845030e-37  -1.1169705444371934e-36  2.0889241815651095e-36  2.6346866681799580e-30  6.9652071244450087e-38  3.4824670481182424e-37  3.1823917257743125e-36  -1.6644426068480492e-36  4.0226023799912882e-30  -5.1889501667529348e-30  9.6568616102162527e-29  -3.0025998747419459e-28  -4.2019941230424382e-37  1.0579079142140290e-37  2.0626222671114741e-30  -1.2299766552104470e-31  -1.1566914908730728e-31  -4.8145881874558620e-32  7.6473192299278308e-29  -2.3064569350746195e-31  3.7939449406136325e-30  -2.9289781937554154e-30  4.3568169278171450e-31  1.6601942928702239e-34  -2.7747013193761279e-33  -8.2486957817418339e-34  9.5965797895998908e-35  1.1785622609767596e-34  -3.6424230794206810e-37  1.0836880698215094e-30  2.7631889173589281e-31  -5.1974963361893292e-31  2.1380500628939447e-31  6.5233912988897356e-35  1.1387678926892434e-30  2.8379192942386882e-28  3.7084919258044338e-28  -1.0129640093052129e-27  -3.3697251101702269e-29  7.9686108646262196e-29  -1.5516750004526509e-29  1.2118369278198730e-34  2.0504593593055881e-34  -3.0402315527642635e-29  -6.2997555459158351e-29  3.5327578659830245e-32  -2.8887816232456280e-31  1.0622673334327700e-29  -4.2857379427375736e-27  3.1370151471948872e-27  -3.2098014746843495e-27  2.2743558374356166e-36  3.7541758042886448e-37  -1.2015530942007814e-35  9.9172225217928232e-37  1.1706122935618899e-37  7.4794233625261970e-37  3.2023633406237787e-30  -5.7568688203838300e-29  6.7029179558322195e-32  3.3406773475412482e-32  2.1580547143013754e-31  -1.2259418877405932e-30  5.8516171949591787e-31  8.0574295378381775e-31  -2.5364491830850103e-38  8.1438201325557158e-38  -3.0230436399839620e-38  4.3418699519044477e-31  -2.2537543798317806e-29  -7.5824040828753711e-29  3.7623700374035844e-31  1.3023998465013202e-30  -8.9118221582506367e-35  -1.3612722469948717e-35  -5.6160680186745191e-32  -7.8021199423129616e-32  -1.5854944018516202e-31  -7.5713469706511832e-33  -5.0530587300363661e-38  1.0010506899733648e-31  -3.9334764131918681e-32  -6.4577601436831898e-32  -2.9455871329023896e-32  -1.0138431459815384e-36  1.2928338086237836e-29  -7.3614713158257197e-31  3.5235533398126760e-29  4.9370152408480090e-32  2.6152158412961623e-32  -4.2048705111076369e-27  2.3225806690392546e-27  -4.1605222529376025e-33  -1.5297764707163990e-32  -1.8562733325490395e-29  1.4559274868479517e-28  8.4649211741273767e-29  1.4373300258200641e-30  6.3808769025003587e-32  1.5017244083537714e-32  -2.1522545876801320e-28  -5.7610596226711974e-29  3.9809102224039400e-28  -3.4424731486801028e-33  6.1447301901529420e-32  -9.9582723892935128e-31  -3.7526277602637728e-31  -5.6888526794019691e-32  2.2155355801479255e-31  -7.7759115685996158e-38  -1.4441356342205453e-35  -6.7003953733293750e-37  -3.4199148092800605e-35  -2.0971986436448222e-32  -2.0895978876910471e-30  -4.7181570465957744e-30  5.4594152125777775e-34  -7.3248927436438233e-34  4.2548658475302757e-36  -1.8874674384365763e-38  -4.6652180822164716e-28  -5.7756126894355735e-32  5.2377449458303514e-32  4.8726756537244539e-38  1.1984964300623035e-37  1.3451821320604775e-37  6.5219560457421518e-32  -6.9768533900737854e-37  -2.4614939502315554e-38  -1.6910257297370013e-28  8.2321560153313778e-31  -1.1003687470809456e-29  -1.4520878529144169e-30  5.5618485915824514e-33  -2.4772124189848165e-32  -2.1632711429956335e-31  -2.8595047895962107e-33  -5.0192007157463560e-30  1.1818988776012464e-37  9.5253600219710808e-38  -5.6564449794818938e-38  9.5679436043635621e-38  -4.5287288817692586e-38  -9.3732298239281077e-37  1.2993201322671045e-33  3.4268661671788706e-33  -6.4097192687329182e-36  2.4313502655369822e-40  -4.5920228360447004e-30  4.2217986775850989e-38  2.5011017075086988e-31  1.8601906313497475e-33  -2.1576500601223673e-31  1.2019070012910728e-32  -2.1458576580473366e-37  3.3451407859136699e-33  5.0075210673183643e-34  -2.4695338585318027e-32  4.6180422752133214e-29  5.3565374905439883e-28  7.6561505618200957e-30  -1.0883703267548174e-30  2.1146506920604237e-38  -1.0739090501726999e-37  -2.8205490936102358e-30  6.0485802352410594e-34  7.7675362212479986e-31  -2.3560439619264295e-38  9.1733878911162148e-38  1.0733939905253999e-32  1.9954676886696415e-33  -8.4672016225950305e-34  -5.2572309322298837e-30  6.9875298087971457e-29  7.3931323066814076e-30  -1.1952450382626330e-32  2.7308826507374805e-28  2.1734914604530694e-28  3.0494419315434353e-31  -6.3036367025046023e-34  -2.9021520260023222e-31  5.5397644041217567e-29  1.6382801752141278e-27  4.7293944191459859e-33  -1.4393918814436012e-35  1.0324105476022515e-34  1.2085654162874007e-28  5.1483088264836325e-31  -1.4075413252667711e-37  4.3378321104963715e-39  2.9282911642933856e-30  -2.9418019359201968e-35  9.8388000892872622e-36  -2.1682547491957369e-28  -3.4067607072363300e-27  -1.2084806346681312e-25  1.4619167202745570e-36  -2.1160933014945299e-37  -5.9496157545375599e-32  -9.7495923611404053e-31  1.9882704310594086e-26  3.6235053727406075e-37  -2.0548526140331338e-37  -5.3018187260160901e-31  2.3455658483945600e-30  3.9607678942332019e-37  4.4147375403187470e-36  -4.2253015634510086e-33  -2.8229307535221090e-34  4.4360372417479739e-34  7.3500307244496849e-31  -1.1643486286992572e-30  1.9618107986032029e-31  -3.3285518576085843e-34  2.6461460751624183e-34  -1.0516956221761875e-33  -1.5732354938840322e-32  1.1504375015467734e-34  -1.9439502802787500e-31  -6.3347610136397920e-29  -1.7523403586131835e-29  8.9214029818210331e-30  -1.0003249589144005e-30  -8.8067931045954145e-31  5.7440398505339636e-31  9.6825675854255004e-31  2.4787677558804038e-33  -1.1260216681197689e-31  -8.1753809132245688e-39  -2.4824055628582435e-38  -1.3474868132161247e-30  1.4062996007044724e-31  -1.5543718493721671e-30  -2.7467249165283991e-26  6.5644543154923016e-32  -2.5807224614210523e-29  -1.5176687244986582e-24  2.0211146774356667e-25  1.1211561036592038e-28  1.2043443685765296e-30  -3.7624175251785012e-28  8.0355091724206118e-32  -1.3814467759073432e-34  -1.1469209167619351e-38  -2.6974888623524226e-37  -3.3624506732949047e-38  -8.1936714802665696e-38  1.7916966047484793e-26  -1.8366223086108429e-38  8.1256001816140629e-38  1.1912134547782923e-37  5.6324802348115528e-33  2.5112347933259523e-36  1.8034982270830621e-35  1.0507628686504614e-28  -3.3311425087149723e-30  -4.5707892958708672e-38  -2.8862014674837718e-36  3.4169553716570351e-37  -2.6226514141310174e-36  -7.0289006700817389e-33  6.6264794559277945e-32  8.5909820318357470e-26  5.7855049821235833e-29  9.9848723186941814e-32  -7.2000660780834974e-31  -2.2587169012240850e-33  2.1729846840950758e-29  2.2501943439103794e-28  -1.4734863112798248e-36  -1.5391910533488070e-27  -1.3708444920254049e-28  1.5059222924761016e-27  7.2724844817651089e-26  -2.9942263770308217e-26  1.2815566583024989e-26  -2.0525842587027642e-25  6.7359151209309762e-26  1.9082260313242839e-35  -4.2252228438297992e-28  2.3427622411086597e-37  -2.6382754474502908e-36  -1.2491076563662346e-35  -1.2109675933795398e-31  -1.4977947586332145e-39  -1.8323114756186343e-29  -2.0066098631811825e-30  -2.3528720049874092e-30  2.8684998557919391e-28  2.4466366337543044e-31  4.9918068164165752e-31  2.8692089288344632e-31  -1.0010899502458877e-27  5.5191048059974947e-37  -1.4199673767735875e-36  -5.4991738819815224e-37  6.7089506972259717e-38  -9.2126241174495886e-36  5.7139658344590929e-31  -2.1459128695037263e-30  -6.5187667252765650e-29  9.0629261715609620e-36  2.7324670748676336e-34  1.6151158229970187e-34  9.5558447154356169e-30  -8.7703983515888006e-33  2.5248783037144329e-33  2.7509084230399757e-37  -3.9535829938220030e-31  6.9982557564884963e-33  2.2518447541995689e-33  5.0412740745777906e-29  -3.6529769851038589e-31  1.0772167374197404e-36  2.4654225808221929e-32  4.6090217464241319e-38  -1.0397976693600698e-36  -5.5551885179639960e-38  -3.3177330842843029e-38  2.3054741855813805e-38  1.3709120326760946e-26  -2.1653408747322548e-29  -5.4397752202711756e-30  -1.4742703145973297e-31  -1.9061601447348492e-35  -3.4131043262901379e-30  -2.7026891990893203e-35  -1.0928066079600262e-36  1.2683467835282151e-35  -2.9784650532459021e-32  -6.0694984890771276e-29  -7.0592142480312449e-26  -5.9223953690542937e-31  -1.5967984149122235e-31  -2.0846963155175449e-33  -4.2215374674913396e-37  -5.5145544889696955e-27  -2.8404616084773732e-25  8.3238288238709428e-35  -2.3237583386168726e-30  -7.9151810538515316e-29  1.5242244352327674e-29  -9.6814690206430703e-29  2.19859078