<?xml version="1.0"?>
<VTKFile type="UnstructuredGrid"  version="0.1"  >
<UnstructuredGrid>
<Piece  NumberOfPoints="850" NumberOfCells="2980">
<Points>
<DataArray  type="Float64"  NumberOfComponents="3"  format="ascii">35.019825 35.509727 6.708842  36.092964 35.28476 5.975733  35.989189 34.621014 7.430953  34.15499280279905 34.0534500365502 6.497917091016387  31.647417 34.678417 4.722976  30.987957 35.943874 4.446743  32.30655553956512 36.55415889589077 5.451758228389459  32.51538653934396 35.74664726058705 3.678431763241696  34.925972 14.823627 8.919129999999999  34.16116 15.699978 7.646983  36.78437218094574 16.80920092228991 8.668988283442175  36.96738427178317 15.67141315784969 7.44600553584724  35.274319 30.225479 9.871983  35.114864 31.107714 10.758139  35.8997 31.153934 9.544501  33.58059571873815 32.20922836638618 9.353823280268672  38.409668 35.62355 3.534725  39.045589 35.3615 2.768748  38.425472 35.700558 2.309649  38.79645801129972 36.72856922647767 2.800950907912739  37.631493 34.306919 13.07506  37.264107 33.280937 13.851418  36.703823 34.460148 13.793514  37.112896 34.3311 12.464367  34.44493899460467 26.9058937973461 14.13960418041887  32.575871 26.975361 14.094378  33.72354818365801 28.35407501110664 12.99858190767494  33.71155427756356 25.83551539363597 12.75910498616414  35.37968632871078 18.75529572769489 10.81447660136447  37.253395 18.29011 10.900098  35.14705274517575 17.09666895625377 10.19562289108383  36.20922993703215 18.52646159130537 8.955563760108895  32.657158 34.416611 9.554452  32.573257 34.181324 10.741862  32.10854791826489 33.65448700710482 9.270663226504617  32.53770858522817 31.64001140171058 1.93738314706581  30.738018 31.462175 2.155515  31.99506853625383 30.87987966050646 1.231882743104286  31.83088266457505 30.58170082468695 2.84644408702718  39.95923699999999 23.751343 9.502115  39.95923699999999 22.313261 8.22038  39.286686 22.103052 9.58005  38.57562331150096 24.1077628585069 8.68805286846932  38.082989 21.331476 10.345569  38.342354 22.964693 10.635325  36.94529783108348 22.78958679639232 8.671627194051613  34.19994 24.264839 8.526251  34.82075508880989 25.30697892660874 9.68443242707804  35.76999022009703 24.1207998932295 8.531660846683211  35.07292805065683 25.00892182982742 7.386393722596573  35.593857 34.444691 15.248612  35.447247 34.770561 13.869275  34.24826043454374 33.49640356285511 13.73058101022651  34.63744 34.947651 14.502328  32.296036 31.374489 7.359776  31.905575 32.928005 7.863296  31.162989 31.858873 9.088481  32.699245 20.494833 15.48994  31.580404 21.256811 14.826095  32.88599 21.744513 16.143555  33.6699431425881 21.37991669306913 14.37512726662963  32.79985 20.289167 6.367303  34.159519 20.7885 7.540285  33.518349 19.214472 7.269745  34.25404183168612 20.78606122182913 6.064719555135569  33.22531096201951 21.07120949511605 12.04563379495439  31.431259 20.236984 12.190152  30.975815 21.533703 13.16698  31.573133 21.625513 11.708783  33.896721 18.057539 8.062870999999999  35.1364803863777 17.50713905269505 7.49853625377026  33.23620606541256 21.74404125196931 4.44953438516409  33.68323295978014 23.16724941082143 2.498774355638873  34.13979185275024 23.18717423107914 4.317442873814834  34.6681874310862 21.93026978052065 2.835351764198591  37.07745671219089 25.14268489050336 8.107362996607389  36.72073881327252 23.77751661789184 7.444019122386522  38.58388604296999 28.03786196081811 11.73263827320705  37.15325702724597 27.33043487050511 12.89050351474692  37.09853093293298 29.11728572150489 12.64049977812011  37.36213656463291 27.92596710435822 11.35745261953426  31.637781 40.003617 4.12709  30.638256 39.369396 3.439399  31.249969 40.003617 2.262346  31.87102466345231 38.79332527123101 3.100517177550898  30.363667 23.39966 11.771059  30.28607 24.501541 11.042825  29.61895 24.459162 12.199818  31.30579273995334 25.19138644615594 11.63027517256306  37.96512441230712 18.96127392203792 6.407072222673764  38.041595 17.123211 5.224794  37.98227180431896 18.90555593682664 4.391045697035501  38.719055 18.385902 5.249419  35.672417 40.003617 2.094389  36.261822 39.259109 0.963677  37.70721007554933 38.14656100336292 2.764779059347041  34.59681078874483 37.46384660156862 3.048605857051362  37.211235 31.597263 14.478554  35.04717141346108 31.6927030357441 13.23835619065036  36.13294637041835 30.48346666525149 13.63537315577716  35.28927933125637 32.43172630500777 15.2497185599977  31.349188 30.437149 8.582007000000001  30.368242 29.606213 7.744674  32.73958513562391 29.93196640640533 7.793323019067112  31.55718279735721 28.59111271330592 8.81077644083183  32.04241544775449 32.61949941412743 12.95294804217781  33.04507499365585 33.69775890172875 14.84220524952983  33.06778133766131 31.6484364449358 13.35772339856069  33.178772 21.550097 6.469158  37.063202 33.259964 12.418341  37.673489 34.027977 12.63865  31.426573 22.762415 1.330631  32.376961 23.150793 0.81781  32.68768787344062 24.78942777476198 2.005033206797598  32.09387167564546 22.57404514615938 3.094849308004562  28.688763 37.79422 7.528098  29.302568 38.73864 9.606325  27.841599 38.646812 8.444352  28.88481361874772 36.8146575222373 8.947358228979347  35.062977 18.632616 13.648388  35.638252 19.833145 13.698142  36.081757 18.81348 12.807213  34.18874335893275 19.67146913448504 13.37514374749677  30.87109365367296 26.8849725698396 10.92244276351216  29.509491 25.915756 11.395493  30.519466 26.277039 12.934717  29.794325 27.084658 12.259007  31.355055 23.132683 11.150666  31.189301 24.749647 10.357394  38.49543516815565 15.35723404831595 8.425252259239432  39.95923699999999 14.774792 9.341996999999999  39.95923699999999 16.317478 9.353056  38.66782822712387 16.20755299638004 9.807116087882241  36.357586 23.273771 3.362757  35.128666 23.865057 2.627351  36.012405 23.124298 1.254603  34.9824107118849 22.60487638327822 1.66620347205701  33.97113158021872 35.18649207812116 5.222144840884883  36.505695 36.135555 4.871485  35.30541658932306 34.78954646344761 3.632827492066192  34.016747 22.569672 6.972049  35.67095092766829 21.45492927177892 6.447733729078435  35.08733121462075 23.41449577798856 6.170739333207607  35.88132380696834 22.80300676254319 7.3513442757512  37.85627926122391 32.91194970629338 6.260151505076426  37.738785 31.114697 4.984148  38.34669164558338 31.37514572790607 6.832719443844077  36.36605954178516 31.88755104085037 5.655327266431345  35.004646 27.99407 5.816846  34.14517459273151 27.18087147838083 7.045570730551598  35.34596538392422 28.50452205324395 7.669765215352161  34.05400806989501 28.9626988498375 6.558652362370568  29.102997 27.04961 4.240845  29.711945 25.946825 4.754125  30.3476245558212 26.70512169331781 3.401425727664599  30.72083754700894 26.92348160643779 4.904483654801585  31.798969 19.959963 14.689488  34.973087 39.24736 6.176987  35.918827 38.368511 6.356998  34.477497 38.171272 6.214979  36.09129300886164 38.86277186577046 4.989525051266564  37.463139 19.688679 10.595435  38.873619 19.681282 9.888266  38.310432 18.460119 10.389297  38.28335273226884 18.54815541404905 9.217269718650103  34.20486995897866 19.23461811333679 11.66113739738248  35.3703783443256 21.23776335670242 11.15875754355063  35.60395962177059 20.02635696842606 9.790179702125576  29.935051 30.093563 11.781764  29.297594 28.523289 11.5951  28.449205 29.638262 11.265944  29.38707941070366 30.406669450325 10.58458462868081  32.630962 18.082941 10.586537  33.50076704963327 17.50279018089598 12.31735151933017  38.859093 15.805743 12.054678  38.180935 17.157255 11.092117  39.235237 16.640247 11.138357  38.42750155475427 14.96188162810062 10.46017028859263  32.915276 19.519865 14.834784  32.034069 18.913986 14.035913  32.48348682772644 19.79171200094674 13.03232934156287  32.27908545241349 28.27803558127382 7.254989371805378  33.6854285820293 28.48144418510355 8.938998504701335  32.06396994777809 27.17349609094438 8.302588137750906  36.815517 20.382288 0.03180900000000003  35.532276 20.329487 1.301372  36.017555 18.529249 1.250958  37.80435478999625 19.14791451607039 1.500323363506789  34.505676 19.968157 14.753019  35.09624092599402 20.69565286944351 12.91386065711846  29.994629 22.780125 3.880782  30.40119 21.493017 4.282473  31.35042 22.124866 2.175622  32.66021001361487 26.78411468373913 9.769918890013633  31.940779 25.808481 8.475320999999999  33.74539267725853 26.46909825861078 8.205014306138223  34.03484 20.876394 16.173899  33.605762 20.103954 15.450896  30.111422 36.800362 5.664861  29.17631 37.034531 6.650057  29.6060765 36.406725 6.3725495  30.87850889471838 36.95833390447274 6.805917311563364  34.144886 19.544273 8.747612  33.270126 19.432592 9.947948999999999  33.680801 17.7101 9.507349  31.15229 33.473907 1.114638  32.43095 34.381485 0.03180900000000003  30.887251 34.665646 0.634257  31.4677203624441 34.61987038572607 1.364086300991664  36.656406 37.42128 5.372042  37.514839 36.525761 4.456401  34.27392028808118 31.39268655335822 11.41612166261224  34.41271637371948 29.42744006895548 10.72841415685623  32.75511796668447 30.49527922383253 9.909318133939216  33.45397039463018 30.18495903745463 12.30840288700823  32.718121 29.292521 14.372196  32.027798 28.638292 13.369752  36.59519569887315 21.60803218462361 1.623952039713563  29.562263 28.386034 7.781563  29.705112 28.878401 6.621784  30.95026032825376 28.05960104677485 7.246151046189673  39.219265 29.39115 14.454054  39.95923699999999 28.53154 14.125939  39.337559 28.433311 15.667714  38.09041982508845 28.09430564118597 14.30416873529892  36.17322502783335 21.18518004371854 8.112671049599923  37.44179427753664 22.19003624408415 6.818103576600338  32.866444 24.962643 7.403517  31.796257 25.045465 6.16874  31.458775 26.025341 7.007673  33.41180676082478 25.62540446468846 6.15120939933902  34.239914 24.464321 1.977763  33.777805 23.906139 0.799058  33.61982975396021 34.53816500777147 2.034649613616282  34.906219 32.473385 2.26955  33.85259446596493 33.10788127491428 3.804895083902452  32.79291652797375 33.04429573074476 1.923140629381029  37.35
[...]
<PointData  Scalars="p_O2"> 
<DataArray  type="Float64"  Name="p_O2"  format="ascii">1.0001167416461074e+02  1.0005774951805904e+02  9.9938035289063436e+01  1.0000719589076776e+02  9.9983184918333976e+01  9.9976102721960544e+01  9.9997683251068835e+01  1.0002429504366360e+02  1.0003447330096981e+02  1.0002495414651216e+02  1.0019791040836431e+02  1.0016950514928493e+02  1.0017348655664003e+02  1.0010410521191864e+02  1.0002803053562619e+02  1.0001185373153650e+02  9.9939191500077541e+01  1.0019739947629799e+02  9.9991364541271153e+01  1.0056005366681057e+02  9.9990406034739294e+01  1.0001960274428249e+02  9.9996202808504862e+01  1.0002813180773495e+02  1.0006310799497116e+02  9.9986229760162118e+01  9.9964289283332604e+01  9.9962203399713488e+01  1.0001542725984976e+02  1.0005227617427443e+02  1.0006695657431054e+02  1.0022751427990401e+02  9.9911851715586181e+01  9.9995451422052938e+01  9.9995156632335039e+01  9.9990632397512144e+01  1.0001591165519586e+02  1.0000993563115468e+02  9.9957366612592722e+01  1.0239016657290101e+02  1.0357259746882333e+02  1.0082515158287549e+02  1.0036516704924657e+02  1.0010727243156886e+02  1.0012945133240078e+02  1.0034264731536848e+02  1.0001707465945647e+02  1.0004240917498137e+02  1.0018219416611745e+02  1.0002175272042955e+02  9.9978625421694090e+01  9.9989553156509160e+01  1.0003823053651554e+02  9.9991006742526153e+01  1.0003454920527564e+02  1.0002141107070946e+02  9.9931239035855313e+01  9.9996627925760833e+01  1.0001185691801462e+02  9.9992572148448602e+01  9.9963736571778384e+01  1.0000672583686523e+02  1.0005463362877975e+02  1.0003447645031156e+02  1.0006795269140571e+02  9.9991778357151475e+01  1.0001109215834951e+02  1.0000015805508633e+02  9.9981755578054106e+01  1.0001195940580686e+02  1.0006556479610227e+02  9.9986361235877538e+01  1.0005474997773608e+02  1.0002485751732453e+02  1.0006690239369563e+02  1.0021090878131000e+02  1.0016860071502344e+02  1.0069122560822542e+02  1.0002243640053565e+02  1.0024953853840670e+02  1.0039968921154762e+02  9.9966181831385882e+01  9.9994220605818484e+01  1.0000018600915911e+02  1.0004315874382425e+02  1.0005470917829034e+02  1.0005989925495761e+02  1.0070567263189490e+02  9.9916492004961057e+01  1.0021204091469689e+02  1.0010968157326559e+02  1.0025653359509090e+02  1.0002648733770370e+02  9.9943968852137246e+01  1.0007563094164813e+02  1.0020166230184466e+02  9.9963748817059141e+01  1.0003326847473943e+02  1.0000452147128648e+02  1.0002852033117451e+02  9.9959016850149879e+01  9.9755989484993137e+01  9.9903723358699466e+01  1.0003389592082505e+02  9.9924508848719924e+01  9.9992498260704707e+01  1.0002484834752926e+02  9.9975514035198842e+01  1.0002672132702888e+02  1.0003183918704541e+02  1.0001247056939857e+02  1.0002361921092539e+02  1.0000905763269071e+02  9.9926694517152072e+01  1.0007904058891880e+02  1.0003381724012570e+02  9.9892278186575325e+01  1.0003015134380280e+02  9.9988705358581811e+01  9.9976698349981319e+01  1.0000296145900130e+02  1.0000617895923183e+02  1.0000896879758803e+02  9.9891132165028012e+01  1.0022100110533434e+02  1.0098277200801701e+02  9.9970840519413215e+01  9.9939346265131874e+01  9.9995421736541161e+01  1.0037628051440973e+02  1.0055158011354867e+02  1.0161283791193773e+02  1.0036863923976047e+02  1.0002634653113590e+02  9.9988136254989428e+01  9.9983313104501534e+01  9.9994938136375438e+01  9.9939413177932678e+01  1.0002554866458252e+02  9.9805699640256037e+01  1.0002300230686734e+02  1.0010790789828590e+02  1.0004885393610773e+02  1.0011847743247725e+02  9.9917238480113696e+01  1.0025005542056030e+02  1.0033854007923055e+02  9.9980128616436645e+01  1.0002824918619103e+02  1.0003449304322272e+02  1.0002670621828827e+02  1.0004159805157413e+02  1.0001822948470004e+02  1.0003875159662323e+02  1.0006859202147157e+02  9.9975394200031246e+01  9.9998222031927355e+01  9.9946989376119959e+01  9.9962091411664844e+01  1.0001398973904968e+02  1.0005375721293115e+02  1.0007329162235673e+02  1.0009386105960112e+02  9.9988260728277680e+01  1.0018770421364880e+02  1.0000941851700395e+02  1.0004987530153738e+02  1.0002189225769112e+02  9.9887649440661193e+01  9.9872560272918122e+01  9.9883366114847306e+01  1.0006638176762397e+02  1.0000127197772750e+02  1.0005380718977653e+02  1.0008146061990675e+02  1.0010975638292153e+02  1.0016238906340479e+02  1.0031726922991493e+02  1.0000704444594282e+02  9.9997086700191801e+01  9.9994895296345533e+01  1.0003432190852006e+02  1.0002074515479332e+02  9.9998742606673673e+01  1.0005284381497675e+02  1.0005179886827734e+02  9.9998458967733157e+01  1.0012530166767340e+02  1.0001048544441082e+02  1.0002433265976323e+02  9.9950339683320507e+01  9.9904861722350049e+01  9.9940825050452133e+01  9.9967260597890558e+01  9.9977389560730842e+01  1.0002544501515858e+02  1.0000335137059697e+02  9.9998326487913687e+01  1.0000425813086483e+02  1.0006927202043435e+02  1.0008453108793464e+02  9.9907379441744922e+01  9.9967409273791318e+01  1.0003397632444468e+02  9.9997328891541159e+01  9.9995175294573542e+01  9.9991814115614943e+01  1.0000744454324510e+02  1.0000177278813887e+02  9.9955087440990269e+01  9.9970967440364930e+01  9.9900595992195861e+01  1.0001979851127179e+02  1.0010477292648528e+02  9.9991331924509410e+01  1.0000683325527095e+02  1.0001030404402164e+02  1.0001259377606021e+02  9.9954304842800184e+01  9.9813833893937428e+01  1.0018386483062906e+02  1.0057127062941773e+02  1.0323933434006479e+02  1.0029042433009651e+02  1.0014906079173370e+02  1.0016061414731963e+02  1.0023271644541282e+02  1.0000985219373713e+02  9.9986812577504452e+01  1.0000322788753168e+02  9.9982024804365821e+01  1.0003785064275905e+02  1.0004111166110140e+02  1.0001078263318034e+02  9.9991344352393341e+01  9.9953753888539239e+01  1.0001008541695816e+02  1.0032567332745988e+02  1.0046236087203378e+02  1.0075891522905066e+02  1.0050458505553674e+02  1.0000472201956100e+02  1.0014061972932640e+02  1.0006572627887891e+02  1.0003866229836095e+02  9.9984686312938138e+01  1.0002974411370580e+02  1.0000722045557322e+02  1.0005649053124822e+02  1.0343184151815156e+02  1.0070373668625803e+02  1.0438549200395917e+02  1.0021254370525682e+02  1.0004820861222908e+02  9.9971766197476995e+01  1.0002187689735784e+02  9.9979612309553474e+01  1.0058203214495818e+02  9.9962168095170171e+01  1.0007001438780043e+02  1.0001627517676873e+02  1.0001820212295938e+02  1.0007400210443851e+02  1.0007741370036278e+02  1.0013920963999854e+02  1.0019673091106921e+02  1.0005061593877720e+02  1.0004628196271231e+02  1.0000373364894932e+02  9.9997840844112531e+01  1.0001850359310939e+02  1.0008517399176689e+02  1.0001427084140052e+02  1.0009296447000429e+02  1.0000187600530137e+02  9.9953323506720807e+01  9.9956413894216823e+01  9.9973276321136936e+01  1.0001007585348971e+02  9.9990917379477779e+01  1.0005759192435947e+02  9.9964531233059091e+01  9.9985497635685803e+01  1.0002741044690556e+02  9.9937654584485486e+01  9.9933717713466194e+01  1.0002087909310274e+02  1.0000273897809538e+02  1.0006621947181492e+02  1.0004817950760766e+02  9.9974600179068233e+01  9.9960537379186562e+01  9.9964677445277303e+01  9.9996279661132689e+01  1.0006835948491307e+02  9.9959663813194666e+01  1.0001028530947131e+02  1.0033417181817559e+02  1.0182567162379785e+02  1.0006804266696847e+02  1.0001720580937676e+02  1.0002522863448728e+02  1.0013630843461745e+02  1.0000868357493971e+02  1.0171879039772166e+02  1.0050614991041621e+02  1.0006610184691002e+02  1.0015502212141287e+02  1.0012983174903940e+02  1.0001779450552247e+02  9.9989708203665131e+01  1.0000859188067371e+02  9.9987191531433794e+01  1.0000354854449159e+02  1.0051988178845366e+02  1.0022489428997739e+02  9.9949373437094081e+01  1.0000065386885885e+02  1.0004751683591580e+02  1.0006806176121832e+02  9.9879543139693823e+01  9.9992661118394579e+01  1.0010087911367461e+02  9.9994364612947294e+01  9.9987704720888289e+01  9.9992650394589361e+01  9.9974363811622439e+01  1.0007447846382780e+02  9.9917745485324005e+01  1.0000941065550427e+02  9.9900338855651199e+01  1.0003250278198793e+02  9.9755947024113539e+01  1.0000678286909437e+02  9.9976306979990127e+01  1.0001514228021108e+02  9.9984445327265547e+01  9.9994176237258841e+01  9.9986701480272458e+01  1.0001426241236373e+02  9.9994370828945662e+01  9.9998286018111529e+01  1.0001608022243255e+02  1.0016923694226793e+02  9.9940684895526914e+01  1.0001344670140354e+02  1.0006272587132588e+02  1.0001363924764824e+02  1.0015445225888055e+02  9.9983611870839098e+01  9.9998268090584403e+01  1.0003733938167800e+02  9.9992307497500192e+01  9.9829222268335116e+01  1.0009043328052348e+02  9.9992958794200518e+01  9.9984323692640103e+01  1.0002605367608204e+02  1.0004948279883267e+02  1.0003806010759794e+02  9.9996975678191816e+01  9.9996259474831149e+01  9.9966952219958955e+01  1.0004062381954034e+02  1.0000629062611991e+02  9.9983524249779080e+01  1.0002394703987446e+02  1.0001370535752584e+02  1.0000554219624087e+02  1.0013649518079930e+02  1.0002308951583235e+02  9.9992874676321151e+01  1.0026412151578029e+02  1.0000507460441935e+02  9.9995520034244677e+01  1.0004436353200144e+02  1.0000096129882792e+02  9.9797484224921050e+01  9.9880725598659737e+01  1.0002707803527763e+02  1.0000867685952136e+02  1.0007531020395542e+02  9.9862630911146837e+01  9.9999822688460640e+01  9.9978419445211159e+01  1.0004117777201721e+02  9.9973109416100073e+01  9.9997436943423580e+01  1.0006510710241329e+02  1.0225343199300707e+02  1.0064454585922654e+02  1.0000208698018261e+02  9.9998255467125702e+01  9.9971038101424128e+01  9.9964439669776070e+01  9.9914265665975606e+01  9.9932758199547550e+01  1.0380722946580333e+02  1.0016268797461603e+02  1.0050885713385298e+02  1.0024925218867745e+02  1.0003527164446254e+02  9.9993061023246867e+01  1.0050657951300254e+02  9.9976546594682546e+01  9.9942453083969127e+01  1.0001237640690572e+02  9.9985856063608850e+01  9.9961747272828461e+01  1.0003409807085761e+02  9.9991794040742946e+01  1.0000456608415726e+02  9.9967807751999317e+01  1.0000160894041356e+02  9.9953210457966009e+01  1.0008117826963900e+02  1.0010788712153345e+02  1.0077392516132286e+02  1.0358683597105245e+02  1.0055181658510786e+02  9.9962447610721782e+01  1.0002789710598921e+02  9.9984758629924528e+01  1.0003330813235864e+02  1.0000259918436198e+02  1.0002301282995376e+02  1.0005082179220841e+02  1.0002026406175047e+02  1.0014763496371580e+02  9.9722958970024195e+01  1.0017336458117265e+02  1.0018992951976881e+02  1.0002666633830864e+02  9.9981779576561067e+01  1.0009262445413759e+02  1.0000374885877241e+02  9.9950849544172257e+01  9.9902847384801476e+01  9.9997008003280683e+01  9.9975483890915811e+01  9.9992711879282481e+01  9.9906641511212158e+01  1.0005800019101510e+02  1.0040811877095206e+02  9.9986521440554426e+01  1.0000997441287070e+02  1.0005786428387657e+02  9.9977206204186572e+01  1.0000262753337510e+02  1.0001284290797000e+02  1.0003231389471125e+02  1.0160325266679835e+02  1.0001227169791473e+02  1.0004099325237691e+02  9.9962841643076075e+01  9.9906555335108123e+01  1.0009977526851812e+02  9.9987686232693804e+01  1.0000611800707347e+02  1.0002358315671290e+02  9.9998432481102796e+01  9.9993961431225330e+01  9.9985049089591897e+01  9.9989585990838734e+01  9.9994474996349524e+01  1.0021974038516875e+02  1.0038151543281265e+02  9.9949463369632170e+01  1.0004406720475508e+02  1.0000652818615353e+02  9.9985500549416457e+01  9.9966382003581870e+01  1.0026848815352129e+02  1.0014826694957308e+02  1.0005763015119315e+02  1.0001609738819859e+02  9.9954338288832091e+01  1.0003026063921924e+02  1.0001024685962466e+02  1.0186308450764072e+02  1.0000272678304088e+02  9.9965215622189120e+01  1.0000455163156657e+02  1.0001485613724226e+02  9.9992710702836504e+01  1.0000839373677907e+02  1.0000076775842049e+02  1.0000099638750265e+02  9.9970495530861029e+01  1.0017804756757835e+02  1.0007075136641330e+02  9.9987542072281414e+01  1.0004350022856703e+02  9.9993574436320316e+01  9.9978456570309874e+01  9.9985768178108970e+01  1.0007639715139335e+02  9.9967396621556290e+01  9.9977005234857529e+01  1.0002285953584364e+02  9.9933212884898367e+01  1.0001864134094572e+02  1.0000099117207120e+02  1.0002249429292759e+02  1.0004207598671644e+02  9.9966585388492035e+01  1.0000559673852644e+02  1.0001036052870576e+02  9.9949490478551212e+01  9.9973759601261534e+01  9.9988927258514025e+01  1.0003904137316248e+02  1.0004589251242312e+02  9.9946057436988525e+01  9.9985735560663556e+01  1.0004885618071341e+02  9.9987627537426462e+01  1.0000909547797686e+02  1.0000142998089011e+02  9.9972434991524423e+01  9.9974856637159050e+01  9.9820187244251429e+01  1.0003556312733264e+02  1.0037552608073952e+02  1.0002095909575439e+02  1.0008006314976426e+02  9.9997603000769928e+01  9.9994975016544743e+01  1.0377021544926417e+02  1.0083623858546378e+02  1.0008086962162699e+02  1.0001900864772109e+02  1.0004132428103443e+02  1.0519629982412681e+02  1.0504954534440965e+02  1.0010044625402666e+02  9.9638827694770995e+01  1.0005490961312044e+02  9.9987804735267417e+01  1.0009154061932765e+02  1.0031524291021852e+02  1.0048808957873430e+02  1.0000577347193207e+02  9.9946890489434040e+01  1.0006709492031089e+02  9.9962883334733306e+01  1.0391535618638659e+02  1.0416781737785557e+02  1.0385643510481682e+02  9.9992548458706352e+01  1.0002762516290994e+02  1.0079736352205843e+02  1.0142639448124388e+02  1.0009100285861840e+02  9.9990268260365070e+01  9.9963764463905264e+01  9.9989010018619538e+01  1.0004442465800506e+02  9.9996487247015452e+01  9.9989268927140685e+01  9.9966912721853348e+01  1.0002837238819841e+02  1.0000296020666920e+02  9.9983368890398836e+01  9.9986594620796239e+01  1.0025236779987227e+02  9.9668293848669762e+01  1.0031287978015415e+02  1.0001112104006474e+02  9.9981812348108406e+01  1.0002601524753175e+02  1.0001866559768303e+02  9.9965573497359998e+01  9.9976223183688617e+01  1.0030320675834884e+02  1.0021150804959160e+02  9.9947302166995357e+01  1.0002312340222002e+02  1.0004354369290967e+02  1.0000312938189484e+02  1.0000162975717615e+02  9.9962046779971672e+01  1.0000795964254795e+02  9.9997737445589479e+01  9.9988097726498339e+01  9.9987750023844924e+01  1.0003746154244142e+02  9.9961989081533190e+01  1.0202899138435036e+02  1.0000696423032298e+02  1.0031291279175309e+02  1.0002229284054772e+02  9.9869536975879129e+01  9.9992754659286859e+01  9.9845692008067644e+01  9.9984911468356870e+01  9.9961409216020400e+01  1.0177253046128780e+02  1.0006390123256129e+02  1.0004751689871775e+02  9.9995538271774805e+01  1.0000400886048824e+02  9.9908136164488369e+01  1.0009609350507637e+02  1.0002412522784657e+02  9.9996460409389954e+01  1.0011097533267554e+02  1.0000629797811276e+02  9.9979311206060942e+01  9.9977289376411846e+01  1.0268199557642413e+02  1.0001270735811214e+02  1.0002264375250687e+02  1.0000700672748231e+02  1.0315226234370887e+02  1.0269486275069517e+02  1.0021599203159052e+02  9.9997983558730581e+01  9.9878745355156425e+01  9.9992970953394249e+01  1.0002751591745438e+02  9.9983178662634174e+01  9.9970357331135659e+01  9.9994928170477380e+01  1.0000087750927226e+02  1.0002185516657536e+02  9.9970811550549598e+01  9.9989550910814003e+01  1.0000300389165646e+02  9.9981516622326808e+01  1.0017732941822142e+02  9.9968513283249706e+01  9.9885840931563791e+01  9.9990845192736856e+01  1.0000181584406448e+02  9.9994889163240146e+01  9.9993176623378815e+01  9.9937077416736457e+01  1.0008320497995361e+02  1.0002842620409909e+02  9.9999623701810961e+01  1.0222832713480420e+02  1.0020807953910223e+02  1.0011339074067604e+02  1.0001289194350007e+02  9.9999973174820454e+01  1.0003019827380989e+02  9.9988257299282481e+01  9.9982456043058605e+01  1.0009115803117851e+02  1.0004278165684993e+02  1.0002737197140110e+02  1.0003700789922082e+02  1.0002553584470154e+02  1.0002408980087135e+02  9.9995203749599909e+01  1.0000708988056503e+02  1.0000754191595787e+02  1.0003335492158132e+02  1.0006174117558072e+02  9.9997391215066955e+01  1.0001987321827549e+02  1.0009898699967252e+02  9.9685914424953623e+01  9.9975285621730876e+01  1.0005093798973954e+02  1.0033601609351332e+02  1.0403014225363913e+02  1.0037995171053024e+02  1.0009013131329662e+02  9.9986885814727842e+01  9.9974155222569763e+01  1.0005534689974192e+02  1.0003178185163002e+02  1.0249253297514315e+02  1.0022927648310420e+02  1.0007653575824000e+02  9.9993285685071527e+01  9.9920510456601946e+01  9.9843384435944117e+01  1.0000437781559550e+02  1.0076440585445248e+02  1.0001883793651146e+02  1.0002816276440574e+02  1.0000572371421629e+02  9.9973950426075277e+01  1.0001442287023160e+02  9.9941738799739397e+01  9.9992087115865289e+01  9.9997880571110116e+01  9.9710162877236286e+01  9.9851929727994147e+01  1.0003505834952242e+02  9.9998310849164696e+01  1.0001228878669298e+02  9.9991188674370505e+01  1.0113975055072025e+02  9.9998046257347681e+01  1.0004393994799459e+02  1.0002769588072226e+02  9.9962597199374898e+01  1.0002227866038868e+02  1.0000545562455657e+02  9.9956089392580466e+01  1.0009551782857369e+02  1.0113995079250674e+02  1.0000200341207797e+02  1.0008224222558498e+02  1.0006996340952901e+02  9.9848824165984510e+01  9.9974964571082040e+01  1.0001765926573773e+02  1.0011948041115825e+02  1.0002450371585370e+02  1.0002224848454597e+02  1.0004183729522333e+02  9.9999043231827514e+01  1.0000016965249623e+02  9.9930917416263753e+01  9.9979512460200041e+01  9.9986055579597888e+01  1.0000901056722040e+02  9.9972530759892564e+01  9.9969370375296307e+01  1.0001511490566187e+02  9.9973955200121935e+01  1.0005975120904534e+02  9.9946844396599545e+01  1.0000593605802425e+02  1.0009297705775582e+02  1.0007076008945532e+02  9.9855009319908163e+01  9.9989854359448927e+01  1.0101409220333744e+02  9.9980325052711706e+01  1.0002216758035257e+02  1.0146014261486837e+02  1.0349136858295367e+02  1.0006167688663778e+02  1.0002029747463233e+02  1.0010380418607288e+02  9.9965044486592731e+01  1.0007333559211011e+02  1.0015064924677341e+02  9.9995864356602198e+01  1.0001354351221099e+02  1.0001819024783589e+02  9.9997891617831897e+01  1.0005721192121537e+02  1.0001049377921916e+02  1.0028614174256150e+02  1.0000851973098720e+02  1.0016922242344225e+02  9.9955167912014673e+01  9.9997946803547165e+01  9.9988051285819495e+01  9.9994980480153913e+01  9.9915004381136455e+01  1.0006524867328368e+02  1.0007463321772647e+02  9.8953327443812483e+01  9.9882946808072433e+01  9.9998866399735348e+01  1.0017742235064208e+02  9.9808613658243559e+01  1.0057287854577588e+02  1.0003599816360088e+02  9.9828440006640903e+01  1.0331085206511354e+02  1.0069405497766205e+02  1.0001835295469378e+02  1.0002435373359299e+02  1.0000992566802552e+02  1.0000359815276241e+02  1.0242457594853239e+02  9.9996578845384960e+01  1.0001289168533489e+02  9.9987224265297456e+01  1.0046386654839522e+02  9.9877434116573085e+01  1.0002239720510835e+02  1.0027170386309975e+02  9.9994667326751909e+01  1.0012168223122836e+02  1.0353843962786091e+02  9.9817547443172387e+01  9.9961991312322738e+01  9.9999728188651943e+01  1.0002022104282942e+02  9.9998589772471846e+01  9.9986467452081271e+01  1.0002559327899581e+02  1.0007485203429475e+02  1.0485701558802336e+02  1.0028415478880054e+02  1.0006219335022998e+02  1.0000729236570010e+02  1.0000780128942534e+02  1.0000160519400188e+02  1.0002603964466373e+02  1.0000305439823886e+02  1.0004347323338757e+02  1.0000078532396941e+02  1.0008449607918010e+02  1.0002013762717648e+02  9.9964943301296657e+01  1.0011954417105576e+02  9.9982239828365010e+01  9.9949373409328928e+01  9.9970145694369663e+01  1.0002237892216871e+02  9.9961053410187859e+01  1.0013917856100565e+02  1.0109774104302734e+02  1.0366755128273094e+02  9.9997031467995541e+01  1.0007626668981855e+02  1.0042522477933275e+02  1.0008741827567808e+02  1.0180760849039670e+02  1.0028208046827147e+02  1.0005001986807594e+02  1.0002071991900790e+02  9.9996698789278369e+01  9.9990228272555754e+01  1.0000254104652586e+02  1.0176343726980218e+02  9.9989285513216700e+01  1.0006676887975019e+02  1.0015725607474393e