<?xml version="1.0"?>
<VTKFile type="UnstructuredGrid"  version="0.1"  >
<UnstructuredGrid>
<Piece  NumberOfPoints="11504" NumberOfCells="52722">
<Points>
<DataArray  type="Float64"  NumberOfComponents="3"  format="ascii">15.094069 22.088192 38.365135  14.80522341115 22.1106472808 37.5550298877  15.540741 21.835644 37.698595  15.5450465 22.31279 37.7764435  15.996024 22.537388 37.187752  15.25620091115 22.3352452808 36.96633838770001  15.9917185 22.060242 37.1099035  15.987413 21.583096 37.032055  15.25189541115 21.8580992808 36.8884898877  14.5163778223 22.1331025616 36.7449247754  13.713079 20.631607 34.864666  14.0343742255 20.0690337268 35.88747531875  14.4890064362 20.02658316635 35.56305282465  14.2018947255 20.5626957268 35.78717931875  13.5455585 20.137945 34.964962  13.378038 19.644283 35.065258  14.3214859362 19.53292116635 35.66334882465  14.690710451 20.4937844536 36.7096926375  14.9778221617 19.95767189315 36.4855661434  15.2649338724 19.4215593327 36.2614396493  15.88429700875 20.9760797728 36.46875968705  16.1536815 20.7610715 36.92037  16.176627 21.4545435 36.560215  16.365841 21.325991 36.088375  16.07351100875 20.8475272728 35.99691968705  16.3428955 20.632519 36.44853  16.31995 19.939047 36.808685  16.05056550875 20.1540552728 36.35707468705  15.7811810175 20.3690635456 35.9054643741  15.40847391115 22.3191062808 36.4415158877  15.5210378158 22.9913813986 36.50121069035001  16.148297 22.521249 36.6629295  16.30057 22.50511 36.138107  15.6733108158 22.9752423986 35.97638819035  14.78121472695 22.7892386794 36.27979707805  15.0460516316 23.4453747972 35.8146693807  13.9647210393 19.1657847254 38.5354801558  14.2329017894 19.91183471475 38.0502941731  14.2307136702 19.81995020405 38.75268961725  14.98587613885 19.4480968734 37.75500363375  13.9669091585 19.2576692361 37.83308471165  13.9690972777 19.3495537468 37.1306892675  14.4967063011 20.4741156827 38.9698990787  13.99401 18.815359 34.349991  14.86346956575 18.54851232095 33.5797142518  14.86016506575 18.95270632095 33.98727275180001  14.134093 18.944926 33.7515545  13.9973145 18.411165 33.9424325  14.274176 19.074493 33.153118  15.00024806575 19.08227332095 33.3888362518  14.1373975 18.540732 33.343996  14.000619 18.006971 33.534874  15.7263201315 19.0900536419 33.6245545036  16.03808117 21.7856849654 35.26298873145  15.6834717824 21.7871002289 35.7525244882  16.00544567 22.3752444654 35.28785473145  16.3332055 21.9155505 36.113241  15.7161072824 21.1975407289 35.7276584882  15.71032134 22.2453789308 34.4376024629  15.3883474524 21.6572346943 34.90227221965  15.0663735648 21.0690904578 35.3669419764  12.795118 22.312206 37.790268  14.15583184185 22.1989042668 37.7890189377  13.50680717575 22.7367859455 37.79181107575  13.65574791115 22.2226542808 37.2675963877  13.4441426661 21.7743243213 37.78747586195  14.3674370869 22.6472342263 37.26913946345  14.30477257725 21.6847726021 37.26480424965  14.0931673322 21.2364426426 37.7846837239  14.2184963515 23.161365891 37.7933541515  12.990229 24.459089 38.749397  14.2856000403 24.0405906209 38.58810594415  13.60436267575 23.8102274455 38.27137557575  13.8324694679 24.5201179719 38.19831065645  14.6747099358 24.5811469438 37.6472243129  14.44660314365 23.8712564174 37.7202892322  14.05749324815 23.3307000945 38.66117086345  13.005143 24.146751 37.755249  12.939628 22.9935425 37.5987585  13.61181967575 23.6540584455 37.77430157575  13.010739 23.443813 37.2632885  12.934032 23.6964805 38.090719  12.862921 23.24621 38.426189  13.54070867575 23.2037879455 38.10977157575  13.016335 22.740875 36.771328  13.61741567575 22.9511204455 37.28234107575  16.3046289362 19.14218966635 36.17661432465  16.1647744362 19.62966016635 36.19404382465  15.7924419362 19.68030316635 36.53506232465  16.6922825 19.888404 36.4676665  16.832137 19.4009335 36.450237  17.064615 19.837761 36.126648  17.2044695 19.3502905 36.1092185  17.344324 18.86282 36.091789  13.89146492645 22.3714487715 38.5299129183  14.8011058998 22.97995499845 36.81855789355  15.54092898865 23.18209771765 37.03997150585  15.10726017575 22.8493769455 37.49055307575  14.6521651644 23.49408666315 37.3427725816  15.0858339773 23.8268074353 36.8921910117  12.901398 21.963082 37.2959215  12.9057265 22.5265405 37.280798  13.76635641115 22.4369887808 36.7581263877  13.0120065 22.1774165 36.7864515  13.007678 21.613958 36.801575  13.76202791115 21.8735302808 36.7732498877  16.1439915 22.044103 36.585081  12.999294 20.640171 35.650627  14.0328337824 20.8546307289 35.5087844882  13.8450022255 20.5669777268 36.18015981875  13.3561865 20.635889 35.2576465  14.3897262824 20.8503487289 35.1158039882  14.8785420079 20.7814374557 36.03831730695  15.893682 20.973694 37.847454  14.59370837605 20.48395006815 37.8397958581  14.9934246661 21.1050683213 37.81606886195  15.19519415055 20.72390484135 38.40867653935  15.2921962255 20.7337392268 37.27857331875  14.3919388916 20.8651135481 37.2471881807  14.29493681665 20.85527916265 38.3772914013  12.066651 19.977427 38.288136  12.4852545 19.676854 37.1496145  13.01787413885 19.6634903734 37.70941263375001  12.5208385 20.181739 37.5636735  12.975026 20.386051 36.839211  16.42289800875 20.1034122728 36.01605618705  15.52305744495 19.89531143915 36.0834520117  13.5340966661 20.8112468213 37.31194736195  13.5504226661 21.4252003213 37.29312936195  12.841266 21.3267125 37.3518505  12.991352 21.0000045 36.820393  12.674854 21.039467 37.902126  13.3840106661 21.1379548213 37.84340486195001  12.82494 20.712759 37.3706685  13.67356763885 19.4969183734 36.09797363375  14.61701557505 19.38555653975 36.6960644584  14.32990386435 19.9216691002 36.9201909525  13.564554 22.853134 35.684509  14.32519398865 23.33997071765 36.28835000585  13.89152517575 23.0072499455 36.73893157575  14.04046591115 22.4931182808 36.2147168877  13.93027 22.027477 34.740101  15.0562125982 22.2572326275 35.59080567855  14.4983217824 21.5482837289 35.0535214882  14.22332391115 22.0802897808 35.7425128877  14.4881608158 22.7364258986 35.27738519035  14.79137569355 21.6010965097 36.0559333759  13.22421 21.834251 35.61211  14.1452917824 21.4516707289 35.4895259882  13.4686445 21.232929 35.238388  13.111752 21.237211 35.6313685  16.54106900875 20.3445287728 35.58548918705  16.49009000875 20.9567992728 35.55890468705  16.833399 20.8229925 35.6769445  16.78242 21.435263 35.65036  17.198999 21.544535 35.212345  17.249978 20.9322645 35.2389295  17.300957 20.319994 35.265514  14.65628267575 22.6247789455 38.07924457575  14.5936181661 21.6623173213 38.07490936195001  14.3053028158 23.1492543986 35.74958919035  13.747412 22.4403055 35.212305  15.44110941115 21.7295467808 36.4166498877  14.82029567 22.1364279654 34.58885173145001  15.3781864858 22.845376864 35.1261359218  15.5379614158 19.6788536284 35.0206392644  15.1656537186 20.24532489525 35.81419081285  15.65957121665 20.023958587 35.46305181925  15.3021674903 20.3739720431 35.1937906204  15.4014476441 19.55020648055 35.64103945685  15.42377729115 20.7190770017 35.63620317525  14.5368607824 21.1186782289 34.6820139882  14.85883467 21.7068224654 34.21734423145  13.968809 21.5978715 34.3685935  14.007348 21.168266 33.997086  13.57724 21.930864 35.17610550000001  13.8216745 21.329542 34.8023835  16.061049 23.571329 37.432388  15.43263898865 23.46759721765 37.58860300585  15.2270769679 23.8447669719 37.96611965645  15.57344148865 23.69906821765 37.16228950585  15.9202465 23.339858 37.8587015  15.3678794679 24.0762379719 37.53980615645  15.779444 23.108387 38.285015  14.88027195655 24.20397718955 37.2697076623  14.6255202079 20.1552303142 34.9426526322  14.009189 19.956951 33.941429  14.86775456575 19.52350232095 33.7829917518  14.1416825 19.515722 33.5472735  14.0015995 19.386155 34.14571  14.99897017575 23.1348764455 38.03918457575  15.887734 22.8228875 37.7363835  16.002655 19.54664 38.379318  15.24968065055 20.01037784135 38.67460853935  15.3466827255 20.0202122268 37.54450531875  16.9724163511 19.50879493465 35.0215659335  17.3226405 19.591407 35.6786515  17.182786 20.0788775 35.69608100000001  16.8542453511 19.26767843465 35.4521329335  16.9940998511 18.78020793465 35.4347034335  16.6438757022 18.6975958693 34.777617867  13.9574602255 21.1640177268 36.16090131875  15.952774 20.5933955 38.563469  15.9481685 20.260167 38.113386  15.73006636415 20.57993413925 34.94833793765  15.3726626378 20.92994759535 34.6790767388  15.6084565633 20.23482918065 34.5059253828  15.6789517108 20.7908047329 33.9912115012  13.87029391115 21.9836767808 36.1785173877  13.115944 21.7241045 36.2068425  13.8491942255 21.0538712268 36.75563381875  14.60354413665 21.3134435076 36.72730870645  15.22765336405 19.07358645435 35.18011332035  14.7659857079 19.2471063142 34.6853151322  14.4579997079 19.6615683142 35.0429486322  14.9173453123 18.4683192803 35.3395873763  15.4938755 21.530943 38.1062945  16.3012882079 19.7583073142 35.5736436322  16.4899543554 20.55539936645 34.6283627506  16.4194592079 19.9994238142 35.14307663220001  15.0402901661 21.4097693213 37.40836936195  13.8035752255 19.9080582268 36.44627131875  12.957867 19.9812515 35.9167385  13.188666 20.142227 35.3579425  12.91644 19.322332 36.18285  13.147239 19.4833075 35.624054  16.1614137065 19.7442003011 34.38441468409999  15.70263592115 19.9404291874 33.8078830024  15.63214077365 19.38445363515 34.32259688400001  16.090918559 19.18822474885 34.8991285657  16.18509791685 18.8938247556 34.2010861853  15.72031357705 19.20694281925 37.4521370623  15.6337944362 19.48409966635 37.32037882465  16.1613025 19.7428435 37.5940015  13.003486 21.1270645 36.226101  16.4389753554 21.16766986645 34.6017782506  16.0223963554 21.05839786645 35.0397932506  15.3390617255 21.0384402268 36.87087381875  15.5053302255 20.2164157268 36.75918881875  15.23594573425 20.4314239996 36.3075785058  15.9544047873 19.059577601 35.51952875815  15.78061050725 18.5829575748 35.05860262165  15.09113959235 18.9449393065 35.8005135128  12.8290195 22.779208 38.1082285  16.1326862824 21.3068127289 35.2896434882  16.45466017 21.8949569
[...]
<PointData  Scalars="p"> 
<DataArray  type="Float64"  Name="p"  format="ascii">0.0000000000000000e+00  0.0000000000000000e+00  0.0000000000000000e+00  0.0000000000000000e+00  0.0000000000000000e+00  0.0000000000000000e+00  0.0000000000000000e+00  0.0000000000000000e+00  0.0000000000000000e+00  0.0000000000000000e+00  0.0000000000000000e+00  0.0000000000000000e+00  0.0000000000000000e+00  0.0000000000000000e+00  0.0000000000000000e+00  0.0000000000000000e+00  0.0000000000000000e+00  0.0000000000000000e+00  0.0000000000000000e+00  0.0000000000000000e+00  0.0000000000000000e+00  0.0000000000000000e+00  0.0000000000000000e+00  0.0000000000000000e+00  0.0000000000000000e+00  0.0000000000000000e+00  0.0000000000000000e+00  0.0000000000000000e+00  0.0000000000000000e+00  0.0000000000000000e+00  0.0000000000000000e+00  0.0000000000000000e+00  0.0000000000000000e+00  0.0000000000000000e+00  0.0000000000000000e+00  0.0000000000000000e+00  0.0000000000000000e+00  0.0000000000000000e+00  0.0000000000000000e+00  0.0000000000000000e+00  0.0000000000000000e+00  0.0000000000000000e+00  0.0000000000000000e+00  0.0000000000000000e+00  0.0000000000000000e+00  0.0000000000000000e+00  0.0000000000000000e+00  0.0000000000000000e+00  0.0000000000000000e+00  0.0000000000000000e+00  0.0000000000000000e+00  0.0000000000000000e+00  0.0000000000000000e+00  0.0000000000000000e+00  0.0000000000000000e+00  0.0000000000000000e+00  0.0000000000000000e+00  0.0000000000000000e+00  0.0000000000000000e+00  0.0000000000000000e+00  0.0000000000000000e+00  0.0000000000000000e+00  0.0000000000000000e+00  0.0000000000000000e+00  0.0000000000000000e+00  0.0000000000000000e+00  0.0000000000000000e+00  0.0000000000000000e+00  0.0000000000000000e+00  0.0000000000000000e+00  0.0000000000000000e+00  0.0000000000000000e+00  0.0000000000000000e+00  0.0000000000000000e+00  0.0000000000000000e+00  0.0000000000000000e+00  0.0000000000000000e+00  0.0000000000000000e+00  0.0000000000000000e+00  0.0000000000000000e+00  0.0000000000000000e+00  0.0000000000000000e+00  0.0000000000000000e+00  0.0000000000000000e+00  0.0000000000000000e+00  0.0000000000000000e+00  0.0000000000000000e+00  0.0000000000000000e+00  0.0000000000000000e+00  0.0000000000000000e+00  0.0000000000000000e+00  0.0000000000000000e+00  0.0000000000000000e+00  0.0000000000000000e+00  0.0000000000000000e+00  0.0000000000000000e+00  0.0000000000000000e+00  0.0000000000000000e+00  0.0000000000000000e+00  0.0000000000000000e+00  0.0000000000000000e+00  0.0000000000000000e+00  0.0000000000000000e+00  0.0000000000000000e+00  0.0000000000000000e+00  0.0000000000000000e+00  0.0000000000000000e+00  0.0000000000000000e+00  0.0000000000000000e+00  0.0000000000000000e+00  0.0000000000000000e+00  0.0000000000000000e+00  0.0000000000000000e+00  0.0000000000000000e+00  0.0000000000000000e+00  0.0000000000000000e+00  0.0000000000000000e+00  0.0000000000000000e+00  0.0000000000000000e+00  0.0000000000000000e+00  0.0000000000000000e+00  0.0000000000000000e+00  0.0000000000000000e+00  0.0000000000000000e+00  0.0000000000000000e+00  0.0000000000000000e+00  0.0000000000000000e+00  0.0000000000000000e+00  0.0000000000000000e+00  0.0000000000000000e+00  0.0000000000000000e+00  0.0000000000000000e+00  0.0000000000000000e+00  0.0000000000000000e+00  0.0000000000000000e+00  0.0000000000000000e+00  0.0000000000000000e+00  0.0000000000000000e+00  0.0000000000000000e+00  0.0000000000000000e+00  0.0000000000000000e+00  0.0000000000000000e+00  0.0000000000000000e+00  0.0000000000000000e+00  0.0000000000000000e+00  0.0000000000000000e+00  0.0000000000000000e+00  0.0000000000000000e+00  0.0000000000000000e+00  0.0000000000000000e+00  0.0000000000000000e+00  0.0000000000000000e+00  0.0000000000000000e+00  0.0000000000000000e+00  0.0000000000000000e+00  0.0000000000000000e+00  0.0000000000000000e+00  0.0000000000000000e+00  0.0000000000000000e+00  0.0000000000000000e+00  0.0000000000000000e+00  0.0000000000000000e+00  0.0000000000000000e+00  0.0000000000000000e+00  0.0000000000000000e+00  0.0000000000000000e+00  0.0000000000000000e+00  0.0000000000000000e+00  0.0000000000000000e+00  0.0000000000000000e+00  0.0000000000000000e+00  0.0000000000000000e+00  0.0000000000000000e+00  0.0000000000000000e+00  0.0000000000000000e+00  0.0000000000000000e+00  0.0000000000000000e+00  0.0000000000000000e+00  0.0000000000000000e+00  0.0000000000000000e+00  0.0000000000000000e+00  0.0000000000000000e+00  0.0000000000000000e+00  0.0000000000000000e+00  0.0000000000000000e+00  0.0000000000000000e+00  0.0000000000000000e+00  0.0000000000000000e+00  0.0000000000000000e+00  0.0000000000000000e+00  0.0000000000000000e+00  0.0000000000000000e+00  0.0000000000000000e+00  0.0000000000000000e+00  0.0000000000000000e+00  0.0000000000000000e+00  0.0000000000000000e+00  0.0000000000000000e+00  0.0000000000000000e+00  0.0000000000000000e+00  0.0000000000000000e+00  0.0000000000000000e+00  0.0000000000000000e+00  0.0000000000000000e+00  0.0000000000000000e+00  0.0000000000000000e+00  0.0000000000000000e+00  0.0000000000000000e+00  0.0000000000000000e+00  0.0000000000000000e+00  0.0000000000000000e+00  0.0000000000000000e+00  0.0000000000000000e+00  0.0000000000000000e+00  0.0000000000000000e+00  0.0000000000000000e+00  0.0000000000000000e+00  0.0000000000000000e+00  0.0000000000000000e+00  0.0000000000000000e+00  0.0000000000000000e+00  0.0000000000000000e+00  0.0000000000000000e+00  0.0000000000000000e+00  0.0000000000000000e+00  0.0000000000000000e+00  0.0000000000000000e+00  0.0000000000000000e+00  0.0000000000000000e+00  0.0000000000000000e+00  0.0000000000000000e+00  0.0000000000000000e+00  0.0000000000000000e+00  0.0000000000000000e+00  0.0000000000000000e+00  0.0000000000000000e+00  0.0000000000000000e+00  0.0000000000000000e+00  0.0000000000000000e+00  0.0000000000000000e+00  0.0000000000000000e+00  0.0000000000000000e+00  0.0000000000000000e+00  0.0000000000000000e+00  0.0000000000000000e+00  0.0000000000000000e+00  0.0000000000000000e+00  0.0000000000000000e+00  0.0000000000000000e+00  0.0000000000000000e+00  0.0000000000000000e+00  0.0000000000000000e+00  0.0000000000000000e+00  0.0000000000000000e+00  0.0000000000000000e+00  0.0000000000000000e+00  0.0000000000000000e+00  0.0000000000000000e+00  0.0000000000000000e+00  0.0000000000000000e+00  0.0000000000000000e+00  0.0000000000000000e+00  0.0000000000000000e+00  0.0000000000000000e+00  0.0000000000000000e+00  0.0000000000000000e+00  0.0000000000000000e+00  0.0000000000000000e+00  0.0000000000000000e+00  0.0000000000000000e+00  0.0000000000000000e+00  0.0000000000000000e+00  0.0000000000000000e+00  0.0000000000000000e+00  0.0000000000000000e+00  0.0000000000000000e+00  0.0000000000000000e+00  0.0000000000000000e+00  0.0000000000000000e+00  0.0000000000000000e+00  0.0000000000000000e+00  0.0000000000000000e+00  0.0000000000000000e+00  0.0000000000000000e+00  0.0000000000000000e+00  0.0000000000000000e+00  0.0000000000000000e+00  0.0000000000000000e+00  0.0000000000000000e+00  0.0000000000000000e+00  0.0000000000000000e+00  0.0000000000000000e+00  0.0000000000000000e+00  0.0000000000000000e+00  0.0000000000000000e+00  0.0000000000000000e+00  0.0000000000000000e+00  0.0000000000000000e+00  0.0000000000000000e+00  0.0000000000000000e+00  0.0000000000000000e+00  0.0000000000000000e+00  0.0000000000000000e+00  0.0000000000000000e+00  0.0000000000000000e+00  0.0000000000000000e+00  0.0000000000000000e+00  0.0000000000000000e+00  0.0000000000000000e+00  0.0000000000000000e+00  0.0000000000000000e+00  0.0000000000000000e+00  0.0000000000000000e+00  0.0000000000000000e+00  0.0000000000000000e+00  0.0000000000000000e+00  0.0000000000000000e+00  0.0000000000000000e+00  0.0000000000000000e+00  0.0000000000000000e+00  0.0000000000000000e+00  0.0000000000000000e+00  0.0000000000000000e+00  0.0000000000000000e+00  0.0000000000000000e+00  0.0000000000000000e+00  0.0000000000000000e+00  0.0000000000000000e+00  0.0000000000000000e+00  0.0000000000000000e+00  0.0000000000000000e+00  0.0000000000000000e+00  0.0000000000000000e+00  0.0000000000000000e+00  0.0000000000000000e+00  0.0000000000000000e+00  0.0000000000000000e+00  0.0000000000000000e+00  0.0000000000000000e+00  0.0000000000000000e+00  0.0000000000000000e+00  0.0000000000000000e+00  0.0000000000000000e+00  0.0000000000000000e+00  0.0000000000000000e+00  0.0000000000000000e+00  0.0000000000000000e+00  0.0000000000000000e+00  0.0000000000000000e+00  0.0000000000000000e+00  0.0000000000000000e+00  0.0000000000000000e+00  0.0000000000000000e+00  0.0000000000000000e+00  0.0000000000000000e+00  0.0000000000000000e+00  0.0000000000000000e+00  0.0000000000000000e+00  0.0000000000000000e+00  0.0000000000000000e+00  0.0000000000000000e+00  0.0000000000000000e+00  0.0000000000000000e+00  0.0000000000000000e+00  0.0000000000000000e+00  0.0000000000000000e+00  0.0000000000000000e+00  0.0000000000000000e+00  0.0000000000000000e+00  0.0000000000000000e+00  0.0000000000000000e+00  0.0000000000000000e+00  0.0000000000000000e+00  0.0000000000000000e+00  0.0000000000000000e+00  0.0000000000000000e+00  0.0000000000000000e+00  0.0000000000000000e+00  0.0000000000000000e+00  0.0000000000000000e+00  0.0000000000000000e+00  0.0000000000000000e+00  0.0000000000000000e+00  0.0000000000000000e+00  0.0000000000000000e+00  0.0000000000000000e+00  0.0000000000000000e+00  0.0000000000000000e+00  0.0000000000000000e+00  0.0000000000000000e+00  0.0000000000000000e+00  0.0000000000000000e+00  0.0000000000000000e+00  0.0000000000000000e+00  0.0000000000000000e+00  0.0000000000000000e+00  0.0000000000000000e+00  0.0000000000000000e+00  0.0000000000000000e+00  0.0000000000000000e+00  0.0000000000000000e+00  0.0000000000000000e+00  0.0000000000000000e+00  0.0000000000000000e+00  0.0000000000000000e+00  0.0000000000000000e+00  0.0000000000000000e+00  0.0000000000000000e+00  0.0000000000000000e+00  0.0000000000000000e+00  0.0000000000000000e+00  0.0000000000000000e+00  0.0000000000000000e+00  0.0000000000000000e+00  0.0000000000000000e+00  0.0000000000000000e+00  0.0000000000000000e+00  0.0000000000000000e+00  0.0000000000000000e+00  0.0000000000000000e+00  0.0000000000000000e+00  0.0000000000000000e+00  0.0000000000000000e+00  0.0000000000000000e+00  0.0000000000000000e+00  0.0000000000000000e+00  0.0000000000000000e+00  0.0000000000000000e+00  0.0000000000000000e+00  0.0000000000000000e+00  0.0000000000000000e+00  0.0000000000000000e+00  0.0000000000000000e+00  0.0000000000000000e+00  0.0000000000000000e+00  0.0000000000000000e+00  0.0000000000000000e+00  0.0000000000000000e+00  0.0000000000000000e+00  0.0000000000000000e+00  0.0000000000000000e+00  0.0000000000000000e+00  0.0000000000000000e+00  0.0000000000000000e+00  0.0000000000000000e+00  0.0000000000000000e+00  0.0000000000000000e+00  0.0000000000000000e+00  0.0000000000000000e+00  0.0000000000000000e+00  0.0000000000000000e+00  0.0000000000000000e+00  0.0000000000000000e+00  0.0000000000000000e+00  0.0000000000000000e+00  0.0000000000000000e+00  0.0000000000000000e+00  0.0000000000000000e+00  0.0000000000000000e+00  0.0000000000000000e+00  0.0000000000000000e+00  0.0000000000000000e+00  0.0000000000000000e+00  0.0000000000000000e+00  0.0000000000000000e+00  0.0000000000000000e+00  0.0000000000000000e+00  0.0000000000000000e+00  0.0000000000000000e+00  0.0000000000000000e+00  0.0000000000000000e+00  0.0000000000000000e+00  0.0000000000000000e+00  0.0000000000000000e+00  0.0000000000000000e+00  0.0000000000000000e+00  0.0000000000000000e+00  0.0000000000000000e+00  0.0000000000000000e+00  0.0000000000000000e+00  0.0000000000000000e+00  0.0000000000000000e+00  0.0000000000000000e+00  0.0000000000000000e+00  0.0000000000000000e+00  0.0000000000000000e+00  0.0000000000000000e+00  0.0000000000000000e+00  0.0000000000000000e+00  0.0000000000000000e+00  0.0000000000000000e+00  0.0000000000000000e+00  0.0000000000000000e+00  0.0000000000000000e+00  0.0000000000000000e+00  0.0000000000000000e+00  0.0000000000000000e+00  0.0000000000000000e+00  0.0000000000000000e+00  0.0000000000000000e+00  0.0000000000000000e+00  0.0000000000000000e+00  0.0000000000000000e+00  0.0000000000000000e+00  0.0000000000000000e+00  0.0000000000000000e+00  0.0000000000000000e+00  0.0000000000000000e+00  0.0000000000000000e+00  0.0000000000000000e+00  0.0000000000000000e+00  0.0000000000000000e+00  0.0000000000000000e+00  0.0000000000000000e+00  0.0000000000000000e+00  0.0000000000000000e+00  0.0000000000000000e+00  0.0000000000000000e+00  0.0000000000000000e+00  0.0000000000000000e+00  0.0000000000000000e+00  0.0000000000000000e+00  0.0000000000000000e+00  0.0000000000000000e+00  0.0000000000000000e+00  0.0000000000000000e+00  0.0000000000000000e+00  0.0000000000000000e+00  0.0000000000000000e+00  0.0000000000000000e+00  0.0000000000000000e+00  0.0000000000000000e+00  0.0000000000000000e+00  0.0000000000000000e+00  0.0000000000000000e+00  0.0000000000000000e+00  0.0000000000000000e+00  0.0000000000000000e+00  0.0000000000000000e+00  0.0000000000000000e+00  0.0000000000000000e+00  0.0000000000000000e+00  0.0000000000000000e+00  0.0000000000000000e+00  0.0000000000000000e+00  0.0000000000000000e+00  0.0000000000000000e+00  0.0000000000000000e+00  0.0000000000000000e+00  0.0000000000000000e+00  0.0000000000000000e+00  0.0000000000000000e+00  0.0000000000000000e+00  0.0000000000000000e+00  0.0000000000000000e+00  0.0000000000000000e+00  0.0000000000000000e+00  0.0000000000000000e+00  0.0000000000000000e+00  0.0000000000000000e+00  0.0000000000000000e+00  0.0000000000000000e+00  0.0000000000000000e+00  0.0000000000000000e+00  0.0000000000000000e+00  0.0000000000000000e+00  0.0000000000000000e+00  0.0000000000000000e+00  0.0000000000000000e+00  0.0000000000000000e+00  0.0000000000000000e+00  0.0000000000000000e+00  0.0000000000000000e+00  0.0000000000000000e+00  0.0000000000000000e+00  0.0000000000000000e+00  0.0000000000000000e+00  0.0000000000000000e+00  0.0000000000000000e+00  0.0000000000000000e+00  0.0000000000000000e+00  0.0000000000000000e+00  0.0000000000000000e+00  0.0000000000000000e+00  0.0000000000000000e+00  0.0000000000000000e+00  0.0000000000000000e+00  0.0000000000000000e+00  0.0000000000000000e+00  0.0000000000000000e+00  0.0000000000000000e+00  0.0000000000000000e+00  0.0000000000000000e+00  0.0000000000000000e+00  0.0000000000000000e+00  0.0000000000000000e+00  0.0000000000000000e+00  0.0000000000000000e+00  0.0000000000000000e+00  0.0000000000000000e+00  0.0000000000000000e+00  0.0000000000000000e+00  0.0000000000000000e+00  0.0000000000000000e+00  0.0000000000000000e+00  0.0000000000000000e+00  0.0000000000000000e+00  0.0000000000000000e+00  0.0000000000000000e+00  0.0000000000000000e+00  0.0000000000000000e+00  0.0000000000000000e+00  0.0000000000000000e+00  0.0000000000000000e+00  0.0000000000000000e+00  0.0000000000000000e+00  0.0000000000000000e+00  0.0000000000000000e+00  0.0000000000000000e+00  0.0000000000000000e+00  0.0000000000000000e+00  0.0000000000000000e+00  0.0000000000000000e+00  0.0000000000000000e+00  0.0000000000000000e+00  0.0000000000000000e+00  0.0000000000000000e+00  0.0000000000000000e+00  0.0000000000000000e+00  0.0000000000000000e+00  0.0000000000000000e+00  0.0000000000000000e+00  0.0000000000000000e+00  0.0000000000000000e+00  0.0000000000000000e+00  0.0000000000000000e+00  0.0000000000000000e+00  0.0000000000000000e+00  0.0000000000000000e+00  0.0000000000000000e+00  0.0000000000000000e+00  0.0000000000000000e+00  0.0000000000000000e+00  0.0000000000000000e+00  0.0000000000000000e+00  0.0000000000000000e+00  0.0000000000000000e+00  0.0000000000000000e+00  0.0000000000000000e+00  0.0000000000000000e+00  0.0000000000000000e+00  0.0000000000000000e+00  0.0000000000000000e+00  0.0000000000000000e+00  0.0000000000000000e+00  0.0000000000000000e+00  0.0000000000000000e+00  0.0000000000000000e+00  0.0000000000000000e+00  0.0000000000000000e+00  0.0000000000000000e+00  0.0000000000000000e+00  0.0000000000000000e+00  0.0000000000000000e+00  0.0000000000000000e+00  0.0000000000000000e+00  0.0000000000000000e+00  0.0000000000000000e+00  0.0000000000000000e+00  0.0000000000000000e+00  0.0000000000000000e+00  0.0000000000000000e+00  0.0000000000000000e+00  0.0000000000000000e+00  0.0000000000000000e+00  0.0000000000000000e+00  0.0000000000000000e+00  0.0000000000000000e+00  0.0000000000000000e+00  0.0000000000000000e+00  0.0000000000000000e+00  0.0000000000000000e+00  0.0000000000000000e+00  0.0000000000000000e+00  0.0000000000000000e+00  0.0000000000000000e+00  0.0000000000000000e+00  0.0000000000000000e+00  0.0000000000000000e+00  0.0000000000000000e+00  0.0000000000000000e+00  0.0000000000000000e+00  0.0000000000000000e+00  0.0000000000000000e+00  0.0000000000000000e+00  0.0000000000000000e+00  0.0000000000000000e+00  0.0000000000000000e+00  0.0000000000000000e+00  0.0000000000000000e+00  0.0000000000000000e+00  0.0000000000000000e+00  0.0000000000000000e+00  0.0000000000000000e+00  0.0000000000000000e+00  0.0000000000000000e+00  0.0000000000000000e+00  0.0000000000000000e+00  0.0000000000000000e+00  0.0000000000000000e+00  0.0000000000000000e+00  0.0000000000000000e+00  0.0000000000000000e+00  0.0000000000000000e+00  0.0000000000000000e+00  0.0000000000000000e+00  0.0000000000000000e+00  0.0000000000000000e+00  0.0000000000000000e+00  0.0000000000000000e+00  0.0000000000000000e+00  0.0000000000000000e+00  0.0000000000000000e+00  0.0000000000000000e+00  0.0000000000000000e+00  0.0000000000000000e+00  0.0000000000000000e+00  0.0000000000000000e+00  0.0000000000000000e+00  0.0000000000000000e+00  0.0000000000000000e+00  0.0000000000000000e+00  0.0000000000000000e+00  0.0000000000000000e+00  0.0000000000000000e+00  0.0000000000000000e+00  0.0000000000000000e+00  0.0000000000000000e+00  0.0000000000000000e+00  0.0000000000000000e+00  0.0000000000000000e+00  0.0000000000000000e+00  0.0000000000000000e+00  0.0000000000000000e+00  0.0000000000000000e+00  0.0000000000000000e+00  0.0000000000000000e+00  0.0000000000000000e+00  0.0000000000000000e+00  0.0000000000000000e+00  0.0000000000000000e+00  0.0000000000000000e+00  0.0000000000000000e+00  0.0000000000000000e+00  0.0000000000000000e+00  0.0000000000000000e+00  0.0000000000000000e+00  0.0000000000000000e+00  0.0000000000000000e+00  0.0000000000000000e+00  0.0000000000000000e+00  0.0000000000000000e+00  0.0000000000000000e+00  0.0000000000000000e+00  0.0000000000000000e+00  0.0000000000000000e+00  0.0000000000000000e+00  0.0000000000000000e+00  0.0000000000000000e+00  0.0000000000000000e+00  0.0000000000000000e+00  0.0000000000000000e+00  0.0000000000000000e+00  0.0000000000000000e+00  0.0000000000000000e+00  0.0000000000000000e+00  0.0000000000000000e+00  0.0000000000000000e+00  0.0000000000000000e+00  0.0000000000000000e+00  0.0000000000000000e+00  0.0000000000000000e+00  0.0000000000000000e+00  0.0000000000000000e+00  0.0000000000000000e+00  0.0000000000000000e+00  0.0000000000000000e+00  0.0000000000000000e+00  0.0000000000000000e+00  0.0000000000000000e+00  0.0000000000000000e+00  0.0000000000000000e+00  0.0000000000000000e+00  0.0000000000000000e+00  0.0000000000000000e+00  0.0000000000000000e+00  0.0000000000000000e+00  0.0000000000000000e+00  0.0000000000000000e+00  0.0000000000000000e+00  0.0000000000000000e+00  0.0000000000000000e+00  0.0000000000000000e+00  0.0000000000000000e+00  0.0000000000000000e+00  0.0000000000000000e+00  0.0000000000000000e+00  0.0000000000000000e+00  0.0000000000000000e+00  0.0000000000000000e+00  0.0000000000000000e+00  0.0000000000000000e+00  0.0000000000000000e+00  0.0000000000000000e+00  0.0000000000000000e+00  0.0000000000000000e+00  0.0000000000000000e+00  0.0000000000000000e+00  0.0000000000000000e+00  0.0000000000000000e+00  0.0000000000000000e+00  0.0000000000000000e+00  0.0000000000000000e+00  0.0000000000000000e+00  0.0000000000000000e+00  0.0000000000000000e+00  0.0000000000000000e+00  0.0000000000000000e+00  0.0000000000000000e+00  0.0000000000000000e+00  0