<?xml version="1.0"?>
<VTKFile type="UnstructuredGrid"  version="0.1"  >
<UnstructuredGrid>
<Piece  NumberOfPoints="11798" NumberOfCells="53466">
<Points>
<DataArray  type="Float64"  NumberOfComponents="3"  format="ascii">17.823757 27.869518 6.997659  17.68378704805 28.59009496505 5.93728503695  18.05212954805 28.66079746505 6.36145153695  17.6482125 28.1756885 6.0130145  17.4554145 27.7988155 6.5734925  17.087072 27.728113 6.149326  17.27987 28.104986 5.588848  17.472668 28.481859 5.02837  17.87658504805 28.96696796505 5.37680703695  18.2805020961 29.4520769301 5.7252440739  33.997932 29.58742 11.007756  34.55768560385 29.6993067519 10.6471200852  34.55704660385 30.2093232519 10.6597945852  34.55079410385 29.8685737519 11.2049425852  34.0041845 29.9281695 10.462608  34.0048235 29.418153 10.4499335  34.010437 30.268919 9.91746  34.011076 29.7589025 9.904785499999999  34.011715 29.248886 9.892111  35.1036562077 30.1497275038 11.4021291704  32.661598 28.783892 7.358831  33.1202580312 29.54995840175 6.09296685805  32.9772220312 29.70957990175 7.04407885805  33.483011 28.8404855 6.9260625  32.804634 28.6242705 6.407719  34.304424 28.897079 6.493294  33.7986350312 29.76617340175 6.61131035805  33.626047 28.680864 5.9749505  32.94767 28.464649 5.456607  33.2928460624 30.6352678035 6.7293267161  31.5640513747 28.872810676 18.1279690259  32.60913117565001 28.96566523695 17.3185065019  32.3333539036 28.26092603565 16.75844335  32.23115435205 28.7409932605 18.14137481765  31.9420281983 29.09748265245 17.30510071015  31.95537708 28.0362540592 17.58131166575  32.3467027853 27.1996974424 17.0346543056  32.62248005735 27.9044366437 17.5947174575  32.3200050219 29.3221546289 16.4822323944  32.8982573294 28.609175845 18.1547806094  26.033043 28.426735 4.687345  26.91778185115 29.2063324349 4.56234091395  26.04892158495 29.10104040455 4.35115687635  26.9422215 29.1339675 4.265183  26.9019032662 28.53202703035 4.898529037599999  27.8514 29.8412 3.843021  26.95810008495 29.80827290455 3.92899487635  27.8110817662 29.23925953035 4.4763670376  27.7707635324 28.6373190607 5.1097130752  26.0648001699 29.7753458091 4.0149687527  30.524757 31.588312 4.995134  30.2823172649 30.2853915057 5.1778009465  30.0327892649 30.6769165057 5.4559214465  30.2729435 30.662647 4.8403885  30.774285 31.196787 4.7170135  30.02113 29.736982 4.685643  29.7809757649 29.7512515057 5.3011759465  30.5224715 30.271122 4.562268  31.023813 30.805262 4.438893  29.5408215298 29.7655210114 5.916708893  29.87278 30.460655 7.700213  29.9328690751 30.6740786895 6.7171706541  29.6919625751 31.2167221895 6.7873156541  29.4733545751 30.6789926895 7.0730906541  30.091388 30.9983845 7.414438000000001  30.3322945 30.455741 7.344293  30.309996 31.536114 7.128663  30.5509025 30.9934705 7.058518  30.791809 30.450827 6.988373  29.0739291502 30.897330379 6.4459683082  33.780037 29.986666 8.914426000000001  33.5610883569 29.35590446565 7.96960817155  33.009678 29.480671 8.396362  33.46137450000001 29.3945935 8.817106500000001  34.0127848569 29.26982696565 8.390352671550001  33.3283405 30.0727435 8.493681500000001  32.876644 30.158821 8.072937  33.142712 28.802521 8.719787  33.6941223569 28.67775446565 8.29303317155  34.2455327138 28.5529879313 7.8662793431  30.080427 29.766321 18.091398  31.5415251265 29.8057784583 17.58782825395  30.97295818735 29.241665838 17.56344551295  30.82223918735 29.319565838 18.10968351295  30.231146 29.688421 17.54516  30.381865 29.610521 16.998922  35.936882 30.431955 16.580183  35.4276631289 31.0654943692 15.9105983693  35.3906356289 30.6501253692 16.3307158693  35.4125016289 31.4594638692 16.3158278693  35.9739095 30.847324 16.1600655  35.958748 31.2412935 16.565295  36.010937 31.262693 15.739948  34.8443892578 30.8682957384 16.0812487386  34.984665 30.492437 18.555183  34.44238313435 30.5724930313 17.21736432335  35.0585595 30.568476 17.4152975  35.0327075 30.103506 17.9625345  34.41653113435 30.1075230313 17.76460132335  35.010517 30.957407 18.007946  35.036369 31.422377 17.460709  35.08075 29.714575 17.369886  34.46457363435 29.7185920313 17.17195282335  33.8483972687 29.7226090626 16.9740196467  31.829126 29.984665 7.22939  32.5609860312 30.30996640175 6.97935835805  32.4363360312 30.96963890175 6.88400685805  32.064353 30.547244 7.557371  31.704476 30.6443375 7.134038500000001  34.6601892387 30.48880834 8.71343534455  34.56088250000001 29.652532 7.913722  34.3534165 30.151519 7.6580085  34.926796 30.316372 6.401591  35.4410347387 30.15467434 7.712731344550001  35.2335687387 30.65366134 7.45701784455  35.13426200000001 29.817385 6.6573045  35.341728 29.318398 6.913018  35.5403414774 30.99095068 8.512444689100001  28.619499 29.642069 8.06006  29.0801602649 29.7037950057 6.9883844465  29.3488275 29.4274685 7.702221  29.2461395 30.051362 7.8801365  29.7068007649 30.1130880057 6.8084609465  29.975468 29.8367615 7.522297500000001  30.078156 29.212868 7.344382  29.8094887649 29.4891945057 6.6305454465  36.380142 28.778435 7.15759  35.8460417592 28.1986246873 7.744326560999999  36.46391988005 27.8831837461 7.676128361049999  36.56492318345 28.3987540118 8.091913570599999  36.7497043669 28.0190730236 9.026237141199999  36.03082294265 27.8189436991 8.6786501316  36.6487010635 27.5035027579 8.610451931649999  36.5476977601 26.9879324922 8.194666722099999  35.92981963925 27.3033734334 8.262864922049999  35.3119415184 27.6188143746 8.331063122  36.108021 27.695677 14.605353  36.890064 28.031313 14.1703355  36.503727 27.5286065 14.137884  36.547514 28.2645495 13.851432  36.49435800000001 28.1983835 14.6378045  36.880695 28.70109 14.670256  36.933851 28.767256 13.8838835  36.987007 28.833422 13.097511  36.94322 28.097479 13.383963  36.899433 27.361536 13.670415  35.817627 27.136467 16.92758  34.66027474825 27.40832770185 16.3988010413  35.1538748206 27.6350658077 16.02041827915  34.8240020425 26.8873212805 16.77292721895  33.830377085 26.638175561 16.6182744379  33.66664979075 27.15918198235 16.24414826025  34.16024986310001 27.3859200882 15.8657654981  34.4901226412 28.1336646154 15.1132565583  33.99652256885 27.90692650955 15.49163932045  33.5029224965 27.6801884037 15.8700220826  34.5370815668 29.47060499125 8.822255489700002  34.7936303569 28.93569296565 7.389648671550001  35.3179270668 29.13647099125 7.821551489700001  35.2941261336 28.9545439825 8.730084979400001  34.7698294237 28.7537659569 8.298182161250001  34.993355 28.81237 18.118153  33.9458061647 28.7107729225 18.1364668047  34.42087613435 29.2674895313 17.54608632335  34.21122017405 28.65610313795 17.5126490854  33.4290853481 28.4998362759 16.9071451708  33.37332729905 29.1658924538 17.56440012805  33.16367133875001 28.55450606045 17.5309628901  33.6387413084 29.11122266925 16.94058240875  34.1305822173 31.51023433165 18.03825321595  34.39041947875 30.826522203 17.65312914255  34.1047302173 31.04526433165 18.58549021595  34.41627147875001 31.291492203 17.10589214255  33.2247954346 31.5980916633 18.6157974319  33.51048469605 31.37934953465 17.6834363585  33.7961739575 31.160607406 16.7510752851  34.003445 26.943947 10.228177  35.56576851040001 26.00199487965 10.05251131185  35.12611034435 26.99576711175 10.24102578185  34.7441646862 26.32050702295 10.7087424522  34.8250488242 26.6254348567 9.57194585965  35.6466526484 26.3069227134 8.9157147193  35.94771416855 26.67725496845 9.5847946415  35.4848843724 25.6970670459 11.1893079044  35.86683003055001 26.3723271347 10.72159123405  36.2487756887 27.0475872235 10.2538745637  34.000629 28.031935 13.434733  35.04376309085 27.65130729115 14.0259617822  34.30767306715001 27.3948025444 14.01216399725  34.6519737874 27.5027990817 13.36751657305  34.7367190237 28.28843974675 13.44853078495  35.3033185748 26.9736631634 13.3003001461  34.95901785455 26.8656666261 13.9449475703  35.3880638111 27.75930382845 13.381314358  35.4728090474 28.5449444935 13.4623285699  34.6147171343 26.7576700888 14.5895949945  34.00375 28.156078 10.469242  34.70746455475 27.5945996412 10.12563197475  35.09296455475 27.7792786412 10.68185497475  34.70761705475 28.2006651412 10.24616447475  34.3890975 27.7346915 10.9049325  34.0035975 27.5500125 10.3487095  34.774445 27.313305 11.340623  34.388945 27.128626 10.7844  35.4114841095 28.2452522824 10.0230869495  36.1533402187 29.7584051212 10.0328046103  35.7824121641 29.0018287018 10.0279457799  35.72373317615001 29.35647455185 9.381444794850001  36.4515222928 28.8887390724 9.529520875749999  36.0805942382 28.132162653 9.524662045349999  36.02191525025 28.48680850305 8.8781610603  35.35280512155001 28.59989813245 9.376585964450001  33.528957 24.577915 11.001426  34.22062854665 24.4347125156 9.921242512100001  33.80366704665001 24.7794475156 9.835803012100001  34.02742154665 24.9039125156 10.6744225121  33.722164 24.108715 10.248246  33.3052025 24.45345 10.1628065  33.081448 24.328985 9.324187  33.4984095 23.98425 9.4096265  33.915371 23.639515 9.495066  34.5258860933 25.2299100312 10.3474190242  32.9248126409 27.43994292305 16.4523381941  33.62973121655 27.56900591845 16.76270980435  33.08853993515 26.9189365017 16.82646437175  33.4660039223 28.0900123398 16.3885836267  32.8878940667 27.84976685915 16.9708997382  30.48377351455 29.5328658656 6.381835307899999  31.028571 29.6125385 6.9903195  30.6717445 28.993559 7.168324  30.12694701455 28.9138863656 6.5598398079  30.4349825 29.8318475 7.1663775  31.265333 28.77425 6.992266  30.72053551455 28.6945773656 6.3837818079  30.1757380291 28.6149047312 5.7752976158  36.63588 29.70311 7.881047  35.8371340668 28.86648949125 7.9438374897  35.9650030668 29.32882699125 8.3055659897  36.508011 29.2407725 7.5193185  36.69279218345 28.8610915118 8.453642070599999  32.032387 29.176455 15.07409  32.60739601095 29.02431931445 15.5910661972  33.18038064155 29.41967780945 15.2502495526  32.74918064155 29.64466330945 15.4373445526  32.463587 28.9514695 14.886995  32.894787 28.726484 14.6999  33.4659742831 30.1128716189 15.8005991052  32.13269 27.676811 5.523073  31.08712901455 28.3899268656 5.1409978079  31
[...]
<PointData  Scalars="p"> 
<DataArray  type="Float64"  Name="p"  format="ascii">0.0000000000000000e+00  0.0000000000000000e+00  0.0000000000000000e+00  0.0000000000000000e+00  0.0000000000000000e+00  0.0000000000000000e+00  0.0000000000000000e+00  0.0000000000000000e+00  0.0000000000000000e+00  0.0000000000000000e+00  0.0000000000000000e+00  0.0000000000000000e+00  0.0000000000000000e+00  0.0000000000000000e+00  0.0000000000000000e+00  0.0000000000000000e+00  0.0000000000000000e+00  0.0000000000000000e+00  0.0000000000000000e+00  0.0000000000000000e+00  0.0000000000000000e+00  0.0000000000000000e+00  0.0000000000000000e+00  0.0000000000000000e+00  0.0000000000000000e+00  0.0000000000000000e+00  0.0000000000000000e+00  0.0000000000000000e+00  0.0000000000000000e+00  0.0000000000000000e+00  0.0000000000000000e+00  0.0000000000000000e+00  0.0000000000000000e+00  0.0000000000000000e+00  0.0000000000000000e+00  0.0000000000000000e+00  0.0000000000000000e+00  0.0000000000000000e+00  0.0000000000000000e+00  0.0000000000000000e+00  0.0000000000000000e+00  0.0000000000000000e+00  0.0000000000000000e+00  0.0000000000000000e+00  0.0000000000000000e+00  0.0000000000000000e+00  0.0000000000000000e+00  0.0000000000000000e+00  0.0000000000000000e+00  0.0000000000000000e+00  0.0000000000000000e+00  0.0000000000000000e+00  0.0000000000000000e+00  0.0000000000000000e+00  0.0000000000000000e+00  0.0000000000000000e+00  0.0000000000000000e+00  0.0000000000000000e+00  0.0000000000000000e+00  0.0000000000000000e+00  0.0000000000000000e+00  0.0000000000000000e+00  0.0000000000000000e+00  0.0000000000000000e+00  0.0000000000000000e+00  0.0000000000000000e+00  0.0000000000000000e+00  0.0000000000000000e+00  0.0000000000000000e+00  0.0000000000000000e+00  0.0000000000000000e+00  0.0000000000000000e+00  0.0000000000000000e+00  0.0000000000000000e+00  0.0000000000000000e+00  0.0000000000000000e+00  0.0000000000000000e+00  0.0000000000000000e+00  0.0000000000000000e+00  0.0000000000000000e+00  0.0000000000000000e+00  0.0000000000000000e+00  0.0000000000000000e+00  0.0000000000000000e+00  0.0000000000000000e+00  0.0000000000000000e+00  0.0000000000000000e+00  0.0000000000000000e+00  0.0000000000000000e+00  0.0000000000000000e+00  0.0000000000000000e+00  0.0000000000000000e+00  0.0000000000000000e+00  0.0000000000000000e+00  0.0000000000000000e+00  0.0000000000000000e+00  0.0000000000000000e+00  0.0000000000000000e+00  0.0000000000000000e+00  0.0000000000000000e+00  0.0000000000000000e+00  0.0000000000000000e+00  0.0000000000000000e+00  0.0000000000000000e+00  0.0000000000000000e+00  0.0000000000000000e+00  0.0000000000000000e+00  0.0000000000000000e+00  0.0000000000000000e+00  0.0000000000000000e+00  0.0000000000000000e+00  0.0000000000000000e+00  0.0000000000000000e+00  0.0000000000000000e+00  0.0000000000000000e+00  0.0000000000000000e+00  0.0000000000000000e+00  0.0000000000000000e+00  0.0000000000000000e+00  0.0000000000000000e+00  0.0000000000000000e+00  0.0000000000000000e+00  0.0000000000000000e+00  0.0000000000000000e+00  0.0000000000000000e+00  0.0000000000000000e+00  0.0000000000000000e+00  0.0000000000000000e+00  0.0000000000000000e+00  0.0000000000000000e+00  0.0000000000000000e+00  0.0000000000000000e+00  0.0000000000000000e+00  0.0000000000000000e+00  0.0000000000000000e+00  0.0000000000000000e+00  0.0000000000000000e+00  0.0000000000000000e+00  0.0000000000000000e+00  0.0000000000000000e+00  0.0000000000000000e+00  0.0000000000000000e+00  0.0000000000000000e+00  0.0000000000000000e+00  0.0000000000000000e+00  0.0000000000000000e+00  0.0000000000000000e+00  0.0000000000000000e+00  0.0000000000000000e+00  0.0000000000000000e+00  0.0000000000000000e+00  0.0000000000000000e+00  0.0000000000000000e+00  0.0000000000000000e+00  0.0000000000000000e+00  0.0000000000000000e+00  0.0000000000000000e+00  0.0000000000000000e+00  0.0000000000000000e+00  0.0000000000000000e+00  0.0000000000000000e+00  0.0000000000000000e+00  0.0000000000000000e+00  0.0000000000000000e+00  0.0000000000000000e+00  0.0000000000000000e+00  0.0000000000000000e+00  0.0000000000000000e+00  0.0000000000000000e+00  0.0000000000000000e+00  0.0000000000000000e+00  0.0000000000000000e+00  0.0000000000000000e+00  0.0000000000000000e+00  0.0000000000000000e+00  0.0000000000000000e+00  0.0000000000000000e+00  0.0000000000000000e+00  0.0000000000000000e+00  0.0000000000000000e+00  0.0000000000000000e+00  0.0000000000000000e+00  0.0000000000000000e+00  0.0000000000000000e+00  0.0000000000000000e+00  0.0000000000000000e+00  0.0000000000000000e+00  0.0000000000000000e+00  0.0000000000000000e+00  0.0000000000000000e+00  0.0000000000000000e+00  0.0000000000000000e+00  0.0000000000000000e+00  0.0000000000000000e+00  0.0000000000000000e+00  0.0000000000000000e+00  0.0000000000000000e+00  0.0000000000000000e+00  0.0000000000000000e+00  0.0000000000000000e+00  0.0000000000000000e+00  0.0000000000000000e+00  0.0000000000000000e+00  0.0000000000000000e+00  0.0000000000000000e+00  0.0000000000000000e+00  0.0000000000000000e+00  0.0000000000000000e+00  0.0000000000000000e+00  0.0000000000000000e+00  0.0000000000000000e+00  0.0000000000000000e+00  0.0000000000000000e+00  0.0000000000000000e+00  0.0000000000000000e+00  0.0000000000000000e+00  0.0000000000000000e+00  0.0000000000000000e+00  0.0000000000000000e+00  0.0000000000000000e+00  0.0000000000000000e+00  0.0000000000000000e+00  0.0000000000000000e+00  0.0000000000000000e+00  0.0000000000000000e+00  0.0000000000000000e+00  0.0000000000000000e+00  0.0000000000000000e+00  0.0000000000000000e+00  0.0000000000000000e+00  0.0000000000000000e+00  0.0000000000000000e+00  0.0000000000000000e+00  0.0000000000000000e+00  0.0000000000000000e+00  0.0000000000000000e+00  0.0000000000000000e+00  0.0000000000000000e+00  0.0000000000000000e+00  0.0000000000000000e+00  0.0000000000000000e+00  0.0000000000000000e+00  0.0000000000000000e+00  0.0000000000000000e+00  0.0000000000000000e+00  0.0000000000000000e+00  0.0000000000000000e+00  0.0000000000000000e+00  0.0000000000000000e+00  0.0000000000000000e+00  0.0000000000000000e+00  0.0000000000000000e+00  0.0000000000000000e+00  0.0000000000000000e+00  0.0000000000000000e+00  0.0000000000000000e+00  0.0000000000000000e+00  0.0000000000000000e+00  0.0000000000000000e+00  0.0000000000000000e+00  0.0000000000000000e+00  0.0000000000000000e+00  0.0000000000000000e+00  0.0000000000000000e+00  0.0000000000000000e+00  0.0000000000000000e+00  0.0000000000000000e+00  0.0000000000000000e+00  0.0000000000000000e+00  0.0000000000000000e+00  0.0000000000000000e+00  0.0000000000000000e+00  0.0000000000000000e+00  0.0000000000000000e+00  0.0000000000000000e+00  0.0000000000000000e+00  0.0000000000000000e+00  0.0000000000000000e+00  0.0000000000000000e+00  0.0000000000000000e+00  0.0000000000000000e+00  0.0000000000000000e+00  0.0000000000000000e+00  0.0000000000000000e+00  0.0000000000000000e+00  0.0000000000000000e+00  0.0000000000000000e+00  0.0000000000000000e+00  0.0000000000000000e+00  0.0000000000000000e+00  0.0000000000000000e+00  0.0000000000000000e+00  0.0000000000000000e+00  0.0000000000000000e+00  0.0000000000000000e+00  0.0000000000000000e+00  0.0000000000000000e+00  0.0000000000000000e+00  0.0000000000000000e+00  0.0000000000000000e+00  0.0000000000000000e+00  0.0000000000000000e+00  0.0000000000000000e+00  0.0000000000000000e+00  0.0000000000000000e+00  0.0000000000000000e+00  0.0000000000000000e+00  0.0000000000000000e+00  0.0000000000000000e+00  0.0000000000000000e+00  0.0000000000000000e+00  0.0000000000000000e+00  0.0000000000000000e+00  0.0000000000000000e+00  0.0000000000000000e+00  0.0000000000000000e+00  0.0000000000000000e+00  0.0000000000000000e+00  0.0000000000000000e+00  0.0000000000000000e+00  0.0000000000000000e+00  0.0000000000000000e+00  0.0000000000000000e+00  0.0000000000000000e+00  0.0000000000000000e+00  0.0000000000000000e+00  0.0000000000000000e+00  0.0000000000000000e+00  0.0000000000000000e+00  0.0000000000000000e+00  0.0000000000000000e+00  0.0000000000000000e+00  0.0000000000000000e+00  0.0000000000000000e+00  0.0000000000000000e+00  0.0000000000000000e+00  0.0000000000000000e+00  0.0000000000000000e+00  0.0000000000000000e+00  0.0000000000000000e+00  0.0000000000000000e+00  0.0000000000000000e+00  0.0000000000000000e+00  0.0000000000000000e+00  0.0000000000000000e+00  0.0000000000000000e+00  0.0000000000000000e+00  0.0000000000000000e+00  0.0000000000000000e+00  0.0000000000000000e+00  0.0000000000000000e+00  0.0000000000000000e+00  0.0000000000000000e+00  0.0000000000000000e+00  0.0000000000000000e+00  0.0000000000000000e+00  0.0000000000000000e+00  0.0000000000000000e+00  0.0000000000000000e+00  0.0000000000000000e+00  0.0000000000000000e+00  0.0000000000000000e+00  0.0000000000000000e+00  0.0000000000000000e+00  0.0000000000000000e+00  0.0000000000000000e+00  0.0000000000000000e+00  0.0000000000000000e+00  0.0000000000000000e+00  0.0000000000000000e+00  0.0000000000000000e+00  0.0000000000000000e+00  0.0000000000000000e+00  0.0000000000000000e+00  0.0000000000000000e+00  0.0000000000000000e+00  0.0000000000000000e+00  0.0000000000000000e+00  0.0000000000000000e+00  0.0000000000000000e+00  0.0000000000000000e+00  0.0000000000000000e+00  0.0000000000000000e+00  0.0000000000000000e+00  0.0000000000000000e+00  0.0000000000000000e+00  0.0000000000000000e+00  0.0000000000000000e+00  0.0000000000000000e+00  0.0000000000000000e+00  0.0000000000000000e+00  0.0000000000000000e+00  0.0000000000000000e+00  0.0000000000000000e+00  0.0000000000000000e+00  0.0000000000000000e+00  0.0000000000000000e+00  0.0000000000000000e+00  0.0000000000000000e+00  0.0000000000000000e+00  0.0000000000000000e+00  0.0000000000000000e+00  0.0000000000000000e+00  0.0000000000000000e+00  0.0000000000000000e+00  0.0000000000000000e+00  0.0000000000000000e+00  0.0000000000000000e+00  0.0000000000000000e+00  0.0000000000000000e+00  0.0000000000000000e+00  0.0000000000000000e+00  0.0000000000000000e+00  0.0000000000000000e+00  0.0000000000000000e+00  0.0000000000000000e+00  0.0000000000000000e+00  0.0000000000000000e+00  0.0000000000000000e+00  0.0000000000000000e+00  0.0000000000000000e+00  0.0000000000000000e+00  0.0000000000000000e+00  0.0000000000000000e+00  0.0000000000000000e+00  0.0000000000000000e+00  0.0000000000000000e+00  0.0000000000000000e+00  0.0000000000000000e+00  0.0000000000000000e+00  0.0000000000000000e+00  0.0000000000000000e+00  0.0000000000000000e+00  0.0000000000000000e+00  0.0000000000000000e+00  0.0000000000000000e+00  0.0000000000000000e+00  0.0000000000000000e+00  0.0000000000000000e+00  0.0000000000000000e+00  0.0000000000000000e+00  0.0000000000000000e+00  0.0000000000000000e+00  0.0000000000000000e+00  0.0000000000000000e+00  0.0000000000000000e+00  0.0000000000000000e+00  0.0000000000000000e+00  0.0000000000000000e+00  0.0000000000000000e+00  0.0000000000000000e+00  0.0000000000000000e+00  0.0000000000000000e+00  0.0000000000000000e+00  0.0000000000000000e+00  0.0000000000000000e+00  0.0000000000000000e+00  0.0000000000000000e+00  0.0000000000000000e+00  0.0000000000000000e+00  0.0000000000000000e+00  0.0000000000000000e+00  0.0000000000000000e+00  0.0000000000000000e+00  0.0000000000000000e+00  0.0000000000000000e+00  0.0000000000000000e+00  0.0000000000000000e+00  0.0000000000000000e+00  0.0000000000000000e+00  0.0000000000000000e+00  0.0000000000000000e+00  0.0000000000000000e+00  0.0000000000000000e+00  0.0000000000000000e+00  0.0000000000000000e+00  0.0000000000000000e+00  0.0000000000000000e+00  0.0000000000000000e+00  0.0000000000000000e+00  0.0000000000000000e+00  0.0000000000000000e+00  0.0000000000000000e+00  0.0000000000000000e+00  0.0000000000000000e+00  0.0000000000000000e+00  0.0000000000000000e+00  0.0000000000000000e+00  0.0000000000000000e+00  0.0000000000000000e+00  0.0000000000000000e+00  0.0000000000000000e+00  0.0000000000000000e+00  0.0000000000000000e+00  0.0000000000000000e+00  0.0000000000000000e+00  0.0000000000000000e+00  0.0000000000000000e+00  0.0000000000000000e+00  0.0000000000000000e+00  0.0000000000000000e+00  0.0000000000000000e+00  0.0000000000000000e+00  0.0000000000000000e+00  0.0000000000000000e+00  0.0000000000000000e+00  0.0000000000000000e+00  0.0000000000000000e+00  0.0000000000000000e+00  0.0000000000000000e+00  0.0000000000000000e+00  0.0000000000000000e+00  0.0000000000000000e+00  0.0000000000000000e+00  0.0000000000000000e+00  0.0000000000000000e+00  0.0000000000000000e+00  0.0000000000000000e+00  0.0000000000000000e+00  0.0000000000000000e+00  0.0000000000000000e+00  0.0000000000000000e+00  0.0000000000000000e+00  0.0000000000000000e+00  0.0000000000000000e+00  0.0000000000000000e+00  0.0000000000000000e+00  0.0000000000000000e+00  0.0000000000000000e+00  0.0000000000000000e+00  0.0000000000000000e+00  0.0000000000000000e+00  0.0000000000000000e+00  0.0000000000000000e+00  0.0000000000000000e+00  0.0000000000000000e+00  0.0000000000000000e+00  0.0000000000000000e+00  0.0000000000000000e+00  0.0000000000000000e+00  0.0000000000000000e+00  0.0000000000000000e+00  0.0000000000000000e+00  0.0000000000000000e+00  0.0000000000000000e+00  0.0000000000000000e+00  0.0000000000000000e+00  0.0000000000000000e+00  0.0000000000000000e+00  0.0000000000000000e+00  0.0000000000000000e+00  0.0000000000000000e+00  0.0000000000000000e+00  0.0000000000000000e+00  0.0000000000000000e+00  0.0000000000000000e+00  0.0000000000000000e+00  0.0000000000000000e+00  0.0000000000000000e+00  0.0000000000000000e+00  0.0000000000000000e+00  0.0000000000000000e+00  0.0000000000000000e+00  0.0000000000000000e+00  0.0000000000000000e+00  0.0000000000000000e+00  0.0000000000000000e+00  0.0000000000000000e+00  0.0000000000000000e+00  0.0000000000000000e+00  0.0000000000000000e+00  0.0000000000000000e+00  0.0000000000000000e+00  0.0000000000000000e+00  0.0000000000000000e+00  0.0000000000000000e+00  0.0000000000000000e+00  0.0000000000000000e+00  0.0000000000000000e+00  0.0000000000000000e+00  0.0000000000000000e+00  0.0000000000000000e+00  0.0000000000000000e+00  0.0000000000000000e+00  0.0000000000000000e+00  0.0000000000000000e+00  0.0000000000000000e+00  0.0000000000000000e+00  0.0000000000000000e+00  0.0000000000000000e+00  0.0000000000000000e+00  0.0000000000000000e+00  0.0000000000000000e+00  0.0000000000000000e+00  0.0000000000000000e+00  0.0000000000000000e+00  0.0000000000000000e+00  0.0000000000000000e+00  0.0000000000000000e+00  0.0000000000000000e+00  0.0000000000000000e+00  0.0000000000000000e+00  0.0000000000000000e+00  0.0000000000000000e+00  0.0000000000000000e+00  0.0000000000000000e+00  0.0000000000000000e+00  0.0000000000000000e+00  0.0000000000000000e+00  0.0000000000000000e+00  0.0000000000000000e+00  0.0000000000000000e+00  0.0000000000000000e+00  0.0000000000000000e+00  0.0000000000000000e+00  0.0000000000000000e+00  0.0000000000000000e+00  0.0000000000000000e+00  0.0000000000000000e+00  0.0000000000000000e+00  0.0000000000000000e+00  0.0000000000000000e+00  0.0000000000000000e+00  0.0000000000000000e+00  0.0000000000000000e+00  0.0000000000000000e+00  0.0000000000000000e+00  0.0000000000000000e+00  0.0000000000000000e+00  0.0000000000000000e+00  0.0000000000000000e+00  0.0000000000000000e+00  0.0000000000000000e+00  0.0000000000000000e+00  0.0000000000000000e+00  0.0000000000000000e+00  0.0000000000000000e+00  0.0000000000000000e+00  0.0000000000000000e+00  0.0000000000000000e+00  0.0000000000000000e+00  0.0000000000000000e+00  0.0000000000000000e+00  0.0000000000000000e+00  0.0000000000000000e+00  0.0000000000000000e+00  0.0000000000000000e+00  0.0000000000000000e+00  0.0000000000000000e+00  0.0000000000000000e+00  0.0000000000000000e+00  0.0000000000000000e+00  0.0000000000000000e+00  0.0000000000000000e+00  0.0000000000000000e+00  0.0000000000000000e+00  0.0000000000000000e+00  0.0000000000000000e+00  0.0000000000000000e+00  0.0000000000000000e+00  0.0000000000000000e+00  0.0000000000000000e+00  0.0000000000000000e+00  0.0000000000000000e+00  0.0000000000000000e+00  0.0000000000000000e+00  0.0000000000000000e+00  0.0000000000000000e+00  0.0000000000000000e+00  0.0000000000000000e+00  0.0000000000000000e+00  0.0000000000000000e+00  0.0000000000000000e+00  0.0000000000000000e+00  0.0000000000000000e+00  0.0000000000000000e+00  0.0000000000000000e+00  0.0000000000000000e+00  0.0000000000000000e+00  0.0000000000000000e+00  0.0000000000000000e+00  0.0000000000000000e+00  0.0000000000000000e+00  0.0000000000000000e+00  0.0000000000000000e+00  0.0000000000000000e+00  0.0000000000000000e+00  0.0000000000000000e+00  0.0000000000000000e+00  0.0000000000000000e+00  0.0000000000000000e+00  0.0000000000000000e+00  0.0000000000000000e+00  0.0000000000000000e+00  0.0000000000000000e+00  0.0000000000000000e+00  0.0000000000000000e+00  0.0000000000000000e+00  0.0000000000000000e+00  0.0000000000000000e+00  0.0000000000000000e+00  0.0000000000000000e+00  0.0000000000000000e+00  0.0000000000000000e+00  0.0000000000000000e+00  0.0000000000000000e+00  0.0000000000000000e+00  0.0000000000000000e+00  0.0000000000000000e+00  0.0000000000000000e+00  0.0000000000000000e+00  0.0000000000000000e+00  0.0000000000000000e+00  0.0000000000000000e+00  0.0000000000000000e+00  0.0000000000000000e+00  0.0000000000000000e+00  0.0000000000000000e+00  0.0000000000000000e+00  0.0000000000000000e+00  0.0000000000000000e+00  0.0000000000000000e+00  0.0000000000000000e+00  0.0000000000000000e+00  0.0000000000000000e+00  0.0000000000000000e+00  0.0000000000000000e+00  0.0000000000000000e+00  0.0000000000000000e+00  0.0000000000000000e+00  0.0000000000000000e+00  0.0000000000000000e+00  0.0000000000000000e+00  0.0000000000000000e+00  0.0000000000000000e+00  0.0000000000000000e+00  0.0000000000000000e+00  0.0000000000000000e+00  0.0000000000000000e+00  0.0000000000000000e+00  0.0000000000000000e+00  0.0000000000000000e+00  0.0000000000000000e+00  0.0000000000000000e+00  0.0000000000000000e+00  0.0000000000000000e+00  0.0000000000000000e+00  0.0000000000000000e+00  0.0000000000000000e+00  0.0000000000000000e+00  0.0000000000000000e+00  0.0000000000000000e+00  0.0000000000000000e+00  0.0000000000000000e+00  0.0000000000000000e+00  0.0000000000000000e+00  0.0000000000000000e+00  0.0000000000000000e+00  0.0000000000000000e+00  0.0000000000000000e+00  0.0000000000000000e+00  0.0000000000000000e+00  0.0000000000000000e+00  0.0000000000000000e+00  0.0000000000000000e+00  0.0000000000000000e+00  0.0000000000000000e+00  0.0000000000000000e+00  0.0000000000000000e+00  0.0000000000000000e+00  0.0000000000000000e+00  0.0000000000000000e+00  0.0000000000000000e+00  0.0000000000000000e+00  0.0000000000000000e+00  0.0000000000000000e+00  0.0000000000000000e+00  0.0000000000000000e+00  0.0000000000000000e+00  0.0000000000000000e+00  0.0000000000000000e+00  0.0000000000000000e+00  0.0000000000000000e+00  0.0000000000000000e+00  0.0000000000000000e+00  0.0000000000000000e+00  0.0000000000000000e+00  0.0000000000000000e+00  0.0000000000000000e+00  0.0000000000000000e+00  0.0000000000000000e+00  0.0000000000000000e+00  0.0000000000000000e+00  0.0000000000000000e+00  0.0000000000000000e+00  0.0000000000000000e+00  0.0000000000000000e+00  0.0000000000000000e+00  0.0000000000000000e+00  0.0000000000000000e+00  0.0000000000000000e+00  0.0000000000000000e+00  0.0000000000000000e+00  0.0000000000000000e+00  0.0000000000000000e+00  0.0000000000000000e+00  0.0000000000000000e+00  0.0000000000000000e+00  0.0000000000000000e+00  0.0000000000000000e+00  0.0000000000000000e+00  0.0000000000000000e+00  0.0000000000000000e+00  0.0000000000000000e+00  0.0000000000000000e+00  0.0000000000000000e+00  0.0000000000000000e+00  0.0000000000000000e+00  0.0000000000000000e+00  0.0000000000000000e+00  0.0000000000000000e+00  0.0000000000000000e+00  0.0000000000000000e+00  0.0000000000000000e+00  0.0000000000000000e+00  0.0000000000000000e+00  0.0000000000000000e+00  0.0000000000000000e+00  0.0000000000000000e+00  0.0000000000000000e+00  0