<?xml version="1.0"?>
<VTKFile type="UnstructuredGrid"  version="0.1"  >
<UnstructuredGrid>
<Piece  NumberOfPoints="11395" NumberOfCells="51717">
<Points>
<DataArray  type="Float64"  NumberOfComponents="3"  format="ascii">33.5092271107 25.0462713071 21.1705936184  33.2325937597 26.17670284735 21.35833963775  32.6304048091 26.1307297706 20.85837829535  33.16250907555001 25.4252989502 21.68917004115  33.57931179485 25.79767520425 20.839763215  32.56032012495 25.37932587345 21.18920869875  31.6114131392 25.7123804398 21.2078237791  32.2136020898 25.75835351655 21.7077851215  33.649396479 26.5490791014 20.5089328116  32.8157910404 25.8043265933 22.2077464639  41.005688 25.221531 25.268181  40.36511252765 25.0594929324 23.8406703578  40.46336260265 24.4906703891 24.70524694775  40.30476602765 25.5164449324 24.6504438578  41.0660345 24.764579 24.4584075  41.126381 24.307627 23.648634  40.52370910265 24.0337183891 23.89547344775  39.6038440553 25.8113588648 24.0327067156  39.76244063030001 24.7855843215 24.08750980555  39.9210372053 23.7598097782 24.1423128955  38.42551 22.466333 26.992935  37.8216771352 23.3848276606 26.044561603  38.6210072334 23.0761704594 26.64333476855  38.3597343472 22.5723876909 26.2229395957  37.6261799018 22.7749902012 26.39416183445  36.8268498036 23.0836474024 25.7953886689  37.560404249 22.8810448921 25.62416643015  38.2939586944 22.6784423818 25.4529441914  38.55523158059999 23.1822251503 25.87333936425  38.8165044668 23.6860079188 26.2937345371  40.211964 29.610788 27.006643  40.6215617264 28.63413711665 25.65951335085  39.90628351540001 28.9903439871 26.3408908864  40.328686714 29.3997595329 25.99159632585  40.927242211 29.25458112955 26.32526546445  40.445409428 29.1887310658 24.9765496517  41.043964925 29.04355266245 25.3102187903  40.0230062294 28.77931552 25.32584421225  41.642520422 28.8983742591 25.6438879289  39.6006030308 28.3698999742 25.6751387728  39.992664 22.032681 27.171635  40.89131969410001 22.5750730896 26.8462902631  40.6113341941 22.9447350896 27.1910932631  40.0855201941 22.6760500896 26.7716987631  40.518478 22.301366 27.5910295  40.7984635 21.931704 27.2462265  41.044292 22.570051 28.010424  41.3242775 22.200389 27.665621  41.604263 21.830727 27.320818  40.1783763882 23.3194191792 26.3717625262  27.186415 23.777983 22.419775  27.503508 23.0012065 22.500066  26.984464 22.8376085 22.5874655  27.3500265 22.8803035 22.9874125  27.513638 21.982624 23.55505  27.301557 22.060832 22.6677565  27.6671195 22.103527 23.0677035  27.1480755 21.939929 23.155103  26.782513 21.897234 22.755156  27.820601 22.22443 22.580357  28.876053 25.104685 23.010033  29.56245567795 24.60221201775 23.4386969917  29.59376317795 25.08129301775 23.4580334917  29.19568317795 24.96411701775 23.5055399917  29.2428255 24.74278 22.94319  29.274133 25.221861 22.9625265  29.672213 25.339037 22.91502  29.6409055 24.859956 22.8956835  29.609598 24.380875 22.876347  29.5153133559 24.8235490355 24.0010469834  34.998882 21.20153 29.847792  34.28069501885 20.19981086675 30.1943451132  34.28604901885 20.95343736675 30.1947181132  34.990591 20.5606285 30.3931125  34.993528 20.4479035 29.847419  34.9823 19.919727 30.938433  34.27775801885 20.31253586675 30.7400386132  34.985237 19.807002 30.3927395  34.988174 19.694277 29.847046  33.5732160377 20.7053447335 30.5416442264  35.086048 30.712826 27.210665  35.93160570595001 30.3357234793 26.55021609465  35.172102892 29.88124648485 26.58485908495  35.53192670595 30.7560459793 26.50606959465  35.485727 30.2925035 27.2548115  35.885406 29.872181 27.298958  35.61798159795 29.92446646415 25.8802636796  35.571781892 29.46092398485 26.62900558495  35.9778054119 30.7992659586 25.8014741893  35.258157784 29.0496669697 25.9590531699  35.3201701183 27.6320607961 24.8053905125  34.2679829586 27.58037384655 25.22714330185  34.90995894135 27.3966604008 25.38235801  34.30892026635 27.3203112443 24.9470404634  34.67819413555 27.81577424185 24.65017580435  33.2976704144 27.0085616925 25.0886904143  33.8987090894 27.084910849 25.5240079609  33.6669442836 27.50402469005 24.79182575525  34.0362181528 27.9994876876 24.4949610962  34.4997477644 27.1612600055 25.9593255075  35.638103 28.012779 28.319014  35.92494872899999 27.8600322085 27.24533363115  35.419586729 27.9737977085 27.57554263115  35.923147 28.385083 27.7686825  36.143465 27.8990135 27.988805  36.208191 28.757387 27.218351  35.704630729 28.3461017085 27.02521113115  36.428509 28.2713175 27.4384735  36.648827 27.785248 27.658596  35.201070458 27.934816417 26.8320712623  40.827381 31.443853 26.01403  40.7645737796 30.9805727964 25.48173930875  40.08793603155 30.9787343887 25.47539327005  40.326128 31.580444 25.0017995  39.824875 31.717035 23.989569  40.2633207796 31.1171637964 24.46950880875  39.58668303155 31.1153253887 24.46316277005  39.3484910631 30.5136157774 24.9367565401  40.02512881115 30.5154541851 24.9431025788  40.7017665592 30.5172925928 24.9494486175  28.388029 27.067354 23.299433  27.65656631935 26.4022353224 24.5021579042  27.0048920429 26.74449141785 23.7560521188  28.33600877645 26.36133490455 23.7290922854  27.7085865429 27.10825441785 24.0724986188  27.63231427645 25.99757190455 23.4126457854  27.0291440858 27.1491548357 24.8455642376  28.2839885529 25.6553158091 24.1587515708  40.313805 28.943839 27.068546  40.415646 28.27689 27.130449  40.0081245154 28.3233949871 26.4027938864  41.029083211 28.58763212955 26.38716846445  38.266319 28.641237 26.743923  39.1004570154 29.0420789871 25.9431268864  38.9334610154 28.5055684871 26.2095308864  38.41324181675 28.7797042285 25.8598541472  38.433315 29.1777475 26.477519  38.600311 29.714258 26.211115  38.58023781675 29.3162147285 25.5934501472  38.5601646335 28.918171457 24.9757852944  39.08038383215001 28.6440357156 25.3254620336  41.679504 28.865301 22.90303  42.00239532175 27.84659206315 22.5402813086  42.15823882175 28.36924656315 22.8836428086  41.6538765437 27.9431408247 23.08285497985  41.52366050000001 28.3426465 22.5596685  41.367817 27.819992 22.216307  41.4980330437 27.4204863247 22.73949347985  41.6282490874 27.0209806494 23.2626799597  42.13261136545 27.44708638785 23.06346778845  42.6369736435 27.8731921263 22.8642556172  31.902395 21.46195 34.371841  33.1716593638 21.14294000965 33.56325878815  32.6327486494 20.8766010249 34.0174058862  32.8596587144 21.61731098475 34.30461140195  32.2143956494 20.9875790249 33.6304883862  32.32074799999999 21.350972 34.7587585  32.739101 21.239994 35.145676  33.27801171439999 21.50633298475 34.69152890195  32.5263962988 20.5132080498 32.8891357724  33.8169224288 21.7726719695 34.2373818039  39.243893 19.041611 26.565125  39.8064601803 18.52622525975 25.60893702855  39.1299156803 18.72247525975 25.61757352855  39.5225341803 19.09510825975 25.88870052855  39.527819 18.472728 26.2853615  39.1352005 18.100095 26.0142345  38.8512745 18.668978 26.293998  38.458656 18.296345 26.022871  39.811745 17.903845 26.005598  39.8011753606 19.1486055195 25.2122760571  29.841787 22.959688 32.251938  29.7721312124 22.8129560808 30.7184859451  29.4997789576 22.94326495415 31.50184483045  29.6290044576 23.41446845415 31.60851333045  29.7125615 22.4884845 32.1452695  29.9849137548 22.35817562665 31.36191061465  29.583336 22.017281 32.038601  29.8556882548 21.88697212665 31.25524211465  30.1280405096 21.7566632533 30.4718832293  29.4162219152 23.8692489083 30.9650886609  42.878845 22.224911 24.09906  42.13727576185 21.28420355555 24.37737054405  42.02715126184999 22.03151055555 24.24858804405  42.410341 21.470561 23.3455285  42.9889695 21.477604 24.2278425  43.099094 20.730297 24.356625  41.55864726185 21.27716055555 23.49505654405  42.5204655 20.723254 23.474311  41.941837 20.716211 22.591997  41.1754575237 21.8381101111 24.3981160881  27.615765 28.944897 25.295843  27.1428761508 28.49073364195 24.76628930895  26.9947896508 28.64881114195 25.19164030895  27.3224545429 28.04702591785 25.0707036188  27.7638515 28.7868195 24.870492  27.911938 28.628742 24.445141  27.4705410429 27.88894841785 24.6453526188  26.7014791937 27.7509400598 24.96650092775  26.3738143016 28.3527252839 25.0874376179  27.424023 28.002886 22.844931  27.2265835429 27.57602041785 23.8452476188  27.906026 27.53512 23.072182  27.2023315 27.171357 22.7557355  38.8962472769 27.5689436064 24.4982524052  37.6175399675 27.17321803125 24.5313364566  37.81001401045 27.35851071965 24.1352085772  38.59349846025 26.93142729065 24.4008018914  37.92028878415 27.810734347 24.6287869704  36.9443302914 28.0525250876 24.7593215356  36.8340555177 27.60030146025 24.2657431424  38.2907496436 26.2939109749 24.3033513776  37.5072651938 26.7209944039 24.0377580634  36.723780744 27.1480778329 23.7721647492  27.059929 28.915117 23.962383  26.7168716508 28.63392114195 24.52491030895  27.0445365429 28.03213591785 24.4039736188  27.4859335 28.7719295 24.203762  30.175154 27.378466 32.735279  31.15593040635 27.0221188008 32.69934823965  30.76319690635 27.6208318008 32.35273323965  30.6978020921 26.72002468285 32.38310684925  30.5678875 26.779753 33.081894  30.960621 26.18104 33.428509  31.0905355921 26.12131168285 32.72972184925  31.2204501842 26.0615833657 32.0309346985  31.28584499845 26.96239048365 32.0005610889  31.3512398127 27.8631976016 31.9701874793  30.096422 28.000084 25.222816  30.25459089195 27.0438713092 24.553828354  30.73155843805 27.1469822385 25.1227436409  30.2547805 27.756565 24.6202865  30.413139 27.513046 24.017757  30.41294939195 26.8003523092 23.951298854  30.88991693805 26.9034632385 24.5202141409  31.3666948761 26.293880477 25.0226712818  30.88972733 26.1907695477 24.4537559949  30.4127597839 26.0876586184 23.884840708  35.9753021518 29.8163142583 24.745884753  35.3086044641 28.9173941517 24.89653461245  35.274188606 29.48956459215 24.7884726009  35.6167299679 29.432990614 25.35246896145  35.667176648 29.300717796 24.289950404  35.3590511442 28.7851213337 23.834016055  34.9660631022 28.97396812985 24.3325382519  34.9156164221 29.10624094785 25.39505680935  34.5730750602 29.1628
[...]
<PointData  Scalars="p"> 
<DataArray  type="Float64"  Name="p"  format="ascii">0.0000000000000000e+00  0.0000000000000000e+00  0.0000000000000000e+00  0.0000000000000000e+00  0.0000000000000000e+00  0.0000000000000000e+00  0.0000000000000000e+00  0.0000000000000000e+00  0.0000000000000000e+00  0.0000000000000000e+00  0.0000000000000000e+00  0.0000000000000000e+00  0.0000000000000000e+00  0.0000000000000000e+00  0.0000000000000000e+00  0.0000000000000000e+00  0.0000000000000000e+00  0.0000000000000000e+00  0.0000000000000000e+00  0.0000000000000000e+00  0.0000000000000000e+00  0.0000000000000000e+00  0.0000000000000000e+00  0.0000000000000000e+00  0.0000000000000000e+00  0.0000000000000000e+00  0.0000000000000000e+00  0.0000000000000000e+00  0.0000000000000000e+00  0.0000000000000000e+00  0.0000000000000000e+00  0.0000000000000000e+00  0.0000000000000000e+00  0.0000000000000000e+00  0.0000000000000000e+00  0.0000000000000000e+00  0.0000000000000000e+00  0.0000000000000000e+00  0.0000000000000000e+00  0.0000000000000000e+00  0.0000000000000000e+00  0.0000000000000000e+00  0.0000000000000000e+00  0.0000000000000000e+00  0.0000000000000000e+00  0.0000000000000000e+00  0.0000000000000000e+00  0.0000000000000000e+00  0.0000000000000000e+00  0.0000000000000000e+00  0.0000000000000000e+00  0.0000000000000000e+00  0.0000000000000000e+00  0.0000000000000000e+00  0.0000000000000000e+00  0.0000000000000000e+00  0.0000000000000000e+00  0.0000000000000000e+00  0.0000000000000000e+00  0.0000000000000000e+00  0.0000000000000000e+00  0.0000000000000000e+00  0.0000000000000000e+00  0.0000000000000000e+00  0.0000000000000000e+00  0.0000000000000000e+00  0.0000000000000000e+00  0.0000000000000000e+00  0.0000000000000000e+00  0.0000000000000000e+00  0.0000000000000000e+00  0.0000000000000000e+00  0.0000000000000000e+00  0.0000000000000000e+00  0.0000000000000000e+00  0.0000000000000000e+00  0.0000000000000000e+00  0.0000000000000000e+00  0.0000000000000000e+00  0.0000000000000000e+00  0.0000000000000000e+00  0.0000000000000000e+00  0.0000000000000000e+00  0.0000000000000000e+00  0.0000000000000000e+00  0.0000000000000000e+00  0.0000000000000000e+00  0.0000000000000000e+00  0.0000000000000000e+00  0.0000000000000000e+00  0.0000000000000000e+00  0.0000000000000000e+00  0.0000000000000000e+00  0.0000000000000000e+00  0.0000000000000000e+00  0.0000000000000000e+00  0.0000000000000000e+00  0.0000000000000000e+00  0.0000000000000000e+00  0.0000000000000000e+00  0.0000000000000000e+00  0.0000000000000000e+00  0.0000000000000000e+00  0.0000000000000000e+00  0.0000000000000000e+00  0.0000000000000000e+00  0.0000000000000000e+00  0.0000000000000000e+00  0.0000000000000000e+00  0.0000000000000000e+00  0.0000000000000000e+00  0.0000000000000000e+00  0.0000000000000000e+00  0.0000000000000000e+00  0.0000000000000000e+00  0.0000000000000000e+00  0.0000000000000000e+00  0.0000000000000000e+00  0.0000000000000000e+00  0.0000000000000000e+00  0.0000000000000000e+00  0.0000000000000000e+00  0.0000000000000000e+00  0.0000000000000000e+00  0.0000000000000000e+00  0.0000000000000000e+00  0.0000000000000000e+00  0.0000000000000000e+00  0.0000000000000000e+00  0.0000000000000000e+00  0.0000000000000000e+00  0.0000000000000000e+00  0.0000000000000000e+00  0.0000000000000000e+00  0.0000000000000000e+00  0.0000000000000000e+00  0.0000000000000000e+00  0.0000000000000000e+00  0.0000000000000000e+00  0.0000000000000000e+00  0.0000000000000000e+00  0.0000000000000000e+00  0.0000000000000000e+00  0.0000000000000000e+00  0.0000000000000000e+00  0.0000000000000000e+00  0.0000000000000000e+00  0.0000000000000000e+00  0.0000000000000000e+00  0.0000000000000000e+00  0.0000000000000000e+00  0.0000000000000000e+00  0.0000000000000000e+00  0.0000000000000000e+00  0.0000000000000000e+00  0.0000000000000000e+00  0.0000000000000000e+00  0.0000000000000000e+00  0.0000000000000000e+00  0.0000000000000000e+00  0.0000000000000000e+00  0.0000000000000000e+00  0.0000000000000000e+00  0.0000000000000000e+00  0.0000000000000000e+00  0.0000000000000000e+00  0.0000000000000000e+00  0.0000000000000000e+00  0.0000000000000000e+00  0.0000000000000000e+00  0.0000000000000000e+00  0.0000000000000000e+00  0.0000000000000000e+00  0.0000000000000000e+00  0.0000000000000000e+00  0.0000000000000000e+00  0.0000000000000000e+00  0.0000000000000000e+00  0.0000000000000000e+00  0.0000000000000000e+00  0.0000000000000000e+00  0.0000000000000000e+00  0.0000000000000000e+00  0.0000000000000000e+00  0.0000000000000000e+00  0.0000000000000000e+00  0.0000000000000000e+00  0.0000000000000000e+00  0.0000000000000000e+00  0.0000000000000000e+00  0.0000000000000000e+00  0.0000000000000000e+00  0.0000000000000000e+00  0.0000000000000000e+00  0.0000000000000000e+00  0.0000000000000000e+00  0.0000000000000000e+00  0.0000000000000000e+00  0.0000000000000000e+00  0.0000000000000000e+00  0.0000000000000000e+00  0.0000000000000000e+00  0.0000000000000000e+00  0.0000000000000000e+00  0.0000000000000000e+00  0.0000000000000000e+00  0.0000000000000000e+00  0.0000000000000000e+00  0.0000000000000000e+00  0.0000000000000000e+00  0.0000000000000000e+00  0.0000000000000000e+00  0.0000000000000000e+00  0.0000000000000000e+00  0.0000000000000000e+00  0.0000000000000000e+00  0.0000000000000000e+00  0.0000000000000000e+00  0.0000000000000000e+00  0.0000000000000000e+00  0.0000000000000000e+00  0.0000000000000000e+00  0.0000000000000000e+00  0.0000000000000000e+00  0.0000000000000000e+00  0.0000000000000000e+00  0.0000000000000000e+00  0.0000000000000000e+00  0.0000000000000000e+00  0.0000000000000000e+00  0.0000000000000000e+00  0.0000000000000000e+00  0.0000000000000000e+00  0.0000000000000000e+00  0.0000000000000000e+00  0.0000000000000000e+00  0.0000000000000000e+00  0.0000000000000000e+00  0.0000000000000000e+00  0.0000000000000000e+00  0.0000000000000000e+00  0.0000000000000000e+00  0.0000000000000000e+00  0.0000000000000000e+00  0.0000000000000000e+00  0.0000000000000000e+00  0.0000000000000000e+00  0.0000000000000000e+00  0.0000000000000000e+00  0.0000000000000000e+00  0.0000000000000000e+00  0.0000000000000000e+00  0.0000000000000000e+00  0.0000000000000000e+00  0.0000000000000000e+00  0.0000000000000000e+00  0.0000000000000000e+00  0.0000000000000000e+00  0.0000000000000000e+00  0.0000000000000000e+00  0.0000000000000000e+00  0.0000000000000000e+00  0.0000000000000000e+00  0.0000000000000000e+00  0.0000000000000000e+00  0.0000000000000000e+00  0.0000000000000000e+00  0.0000000000000000e+00  0.0000000000000000e+00  0.0000000000000000e+00  0.0000000000000000e+00  0.0000000000000000e+00  0.0000000000000000e+00  0.0000000000000000e+00  0.0000000000000000e+00  0.0000000000000000e+00  0.0000000000000000e+00  0.0000000000000000e+00  0.0000000000000000e+00  0.0000000000000000e+00  0.0000000000000000e+00  0.0000000000000000e+00  0.0000000000000000e+00  0.0000000000000000e+00  0.0000000000000000e+00  0.0000000000000000e+00  0.0000000000000000e+00  0.0000000000000000e+00  0.0000000000000000e+00  0.0000000000000000e+00  0.0000000000000000e+00  0.0000000000000000e+00  0.0000000000000000e+00  0.0000000000000000e+00  0.0000000000000000e+00  0.0000000000000000e+00  0.0000000000000000e+00  0.0000000000000000e+00  0.0000000000000000e+00  0.0000000000000000e+00  0.0000000000000000e+00  0.0000000000000000e+00  0.0000000000000000e+00  0.0000000000000000e+00  0.0000000000000000e+00  0.0000000000000000e+00  0.0000000000000000e+00  0.0000000000000000e+00  0.0000000000000000e+00  0.0000000000000000e+00  0.0000000000000000e+00  0.0000000000000000e+00  0.0000000000000000e+00  0.0000000000000000e+00  0.0000000000000000e+00  0.0000000000000000e+00  0.0000000000000000e+00  0.0000000000000000e+00  0.0000000000000000e+00  0.0000000000000000e+00  0.0000000000000000e+00  0.0000000000000000e+00  0.0000000000000000e+00  0.0000000000000000e+00  0.0000000000000000e+00  0.0000000000000000e+00  0.0000000000000000e+00  0.0000000000000000e+00  0.0000000000000000e+00  0.0000000000000000e+00  0.0000000000000000e+00  0.0000000000000000e+00  0.0000000000000000e+00  0.0000000000000000e+00  0.0000000000000000e+00  0.0000000000000000e+00  0.0000000000000000e+00  0.0000000000000000e+00  0.0000000000000000e+00  0.0000000000000000e+00  0.0000000000000000e+00  0.0000000000000000e+00  0.0000000000000000e+00  0.0000000000000000e+00  0.0000000000000000e+00  0.0000000000000000e+00  0.0000000000000000e+00  0.0000000000000000e+00  0.0000000000000000e+00  0.0000000000000000e+00  0.0000000000000000e+00  0.0000000000000000e+00  0.0000000000000000e+00  0.0000000000000000e+00  0.0000000000000000e+00  0.0000000000000000e+00  0.0000000000000000e+00  0.0000000000000000e+00  0.0000000000000000e+00  0.0000000000000000e+00  0.0000000000000000e+00  0.0000000000000000e+00  0.0000000000000000e+00  0.0000000000000000e+00  0.0000000000000000e+00  0.0000000000000000e+00  0.0000000000000000e+00  0.0000000000000000e+00  0.0000000000000000e+00  0.0000000000000000e+00  0.0000000000000000e+00  0.0000000000000000e+00  0.0000000000000000e+00  0.0000000000000000e+00  0.0000000000000000e+00  0.0000000000000000e+00  0.0000000000000000e+00  0.0000000000000000e+00  0.0000000000000000e+00  0.0000000000000000e+00  0.0000000000000000e+00  0.0000000000000000e+00  0.0000000000000000e+00  0.0000000000000000e+00  0.0000000000000000e+00  0.0000000000000000e+00  0.0000000000000000e+00  0.0000000000000000e+00  0.0000000000000000e+00  0.0000000000000000e+00  0.0000000000000000e+00  0.0000000000000000e+00  0.0000000000000000e+00  0.0000000000000000e+00  0.0000000000000000e+00  0.0000000000000000e+00  0.0000000000000000e+00  0.0000000000000000e+00  0.0000000000000000e+00  0.0000000000000000e+00  0.0000000000000000e+00  0.0000000000000000e+00  0.0000000000000000e+00  0.0000000000000000e+00  0.0000000000000000e+00  0.0000000000000000e+00  0.0000000000000000e+00  0.0000000000000000e+00  0.0000000000000000e+00  0.0000000000000000e+00  0.0000000000000000e+00  0.0000000000000000e+00  0.0000000000000000e+00  0.0000000000000000e+00  0.0000000000000000e+00  0.0000000000000000e+00  0.0000000000000000e+00  0.0000000000000000e+00  0.0000000000000000e+00  0.0000000000000000e+00  0.0000000000000000e+00  0.0000000000000000e+00  0.0000000000000000e+00  0.0000000000000000e+00  0.0000000000000000e+00  0.0000000000000000e+00  0.0000000000000000e+00  0.0000000000000000e+00  0.0000000000000000e+00  0.0000000000000000e+00  0.0000000000000000e+00  0.0000000000000000e+00  0.0000000000000000e+00  0.0000000000000000e+00  0.0000000000000000e+00  0.0000000000000000e+00  0.0000000000000000e+00  0.0000000000000000e+00  0.0000000000000000e+00  0.0000000000000000e+00  0.0000000000000000e+00  0.0000000000000000e+00  0.0000000000000000e+00  0.0000000000000000e+00  0.0000000000000000e+00  0.0000000000000000e+00  0.0000000000000000e+00  0.0000000000000000e+00  0.0000000000000000e+00  0.0000000000000000e+00  0.0000000000000000e+00  0.0000000000000000e+00  0.0000000000000000e+00  0.0000000000000000e+00  0.0000000000000000e+00  0.0000000000000000e+00  0.0000000000000000e+00  0.0000000000000000e+00  0.0000000000000000e+00  0.0000000000000000e+00  0.0000000000000000e+00  0.0000000000000000e+00  0.0000000000000000e+00  0.0000000000000000e+00  0.0000000000000000e+00  0.0000000000000000e+00  0.0000000000000000e+00  0.0000000000000000e+00  0.0000000000000000e+00  0.0000000000000000e+00  0.0000000000000000e+00  0.0000000000000000e+00  0.0000000000000000e+00  0.0000000000000000e+00  0.0000000000000000e+00  0.0000000000000000e+00  0.0000000000000000e+00  0.0000000000000000e+00  0.0000000000000000e+00  0.0000000000000000e+00  0.0000000000000000e+00  0.0000000000000000e+00  0.0000000000000000e+00  0.0000000000000000e+00  0.0000000000000000e+00  0.0000000000000000e+00  0.0000000000000000e+00  0.0000000000000000e+00  0.0000000000000000e+00  0.0000000000000000e+00  0.0000000000000000e+00  0.0000000000000000e+00  0.0000000000000000e+00  0.0000000000000000e+00  0.0000000000000000e+00  0.0000000000000000e+00  0.0000000000000000e+00  0.0000000000000000e+00  0.0000000000000000e+00  0.0000000000000000e+00  0.0000000000000000e+00  0.0000000000000000e+00  0.0000000000000000e+00  0.0000000000000000e+00  0.0000000000000000e+00  0.0000000000000000e+00  0.0000000000000000e+00  0.0000000000000000e+00  0.0000000000000000e+00  0.0000000000000000e+00  0.0000000000000000e+00  0.0000000000000000e+00  0.0000000000000000e+00  0.0000000000000000e+00  0.0000000000000000e+00  0.0000000000000000e+00  0.0000000000000000e+00  0.0000000000000000e+00  0.0000000000000000e+00  0.0000000000000000e+00  0.0000000000000000e+00  0.0000000000000000e+00  0.0000000000000000e+00  0.0000000000000000e+00  0.0000000000000000e+00  0.0000000000000000e+00  0.0000000000000000e+00  0.0000000000000000e+00  0.0000000000000000e+00  0.0000000000000000e+00  0.0000000000000000e+00  0.0000000000000000e+00  0.0000000000000000e+00  0.0000000000000000e+00  0.0000000000000000e+00  0.0000000000000000e+00  0.0000000000000000e+00  0.0000000000000000e+00  0.0000000000000000e+00  0.0000000000000000e+00  0.0000000000000000e+00  0.0000000000000000e+00  0.0000000000000000e+00  0.0000000000000000e+00  0.0000000000000000e+00  0.0000000000000000e+00  0.0000000000000000e+00  0.0000000000000000e+00  0.0000000000000000e+00  0.0000000000000000e+00  0.0000000000000000e+00  0.0000000000000000e+00  0.0000000000000000e+00  0.0000000000000000e+00  0.0000000000000000e+00  0.0000000000000000e+00  0.0000000000000000e+00  0.0000000000000000e+00  0.0000000000000000e+00  0.0000000000000000e+00  0.0000000000000000e+00  0.0000000000000000e+00  0.0000000000000000e+00  0.0000000000000000e+00  0.0000000000000000e+00  0.0000000000000000e+00  0.0000000000000000e+00  0.0000000000000000e+00  0.0000000000000000e+00  0.0000000000000000e+00  0.0000000000000000e+00  0.0000000000000000e+00  0.0000000000000000e+00  0.0000000000000000e+00  0.0000000000000000e+00  0.0000000000000000e+00  0.0000000000000000e+00  0.0000000000000000e+00  0.0000000000000000e+00  0.0000000000000000e+00  0.0000000000000000e+00  0.0000000000000000e+00  0.0000000000000000e+00  0.0000000000000000e+00  0.0000000000000000e+00  0.0000000000000000e+00  0.0000000000000000e+00  0.0000000000000000e+00  0.0000000000000000e+00  0.0000000000000000e+00  0.0000000000000000e+00  0.0000000000000000e+00  0.0000000000000000e+00  0.0000000000000000e+00  0.0000000000000000e+00  0.0000000000000000e+00  0.0000000000000000e+00  0.0000000000000000e+00  0.0000000000000000e+00  0.0000000000000000e+00  0.0000000000000000e+00  0.0000000000000000e+00  0.0000000000000000e+00  0.0000000000000000e+00  0.0000000000000000e+00  0.0000000000000000e+00  0.0000000000000000e+00  0.0000000000000000e+00  0.0000000000000000e+00  0.0000000000000000e+00  0.0000000000000000e+00  0.0000000000000000e+00  0.0000000000000000e+00  0.0000000000000000e+00  0.0000000000000000e+00  0.0000000000000000e+00  0.0000000000000000e+00  0.0000000000000000e+00  0.0000000000000000e+00  0.0000000000000000e+00  0.0000000000000000e+00  0.0000000000000000e+00  0.0000000000000000e+00  0.0000000000000000e+00  0.0000000000000000e+00  0.0000000000000000e+00  0.0000000000000000e+00  0.0000000000000000e+00  0.0000000000000000e+00  0.0000000000000000e+00  0.0000000000000000e+00  0.0000000000000000e+00  0.0000000000000000e+00  0.0000000000000000e+00  0.0000000000000000e+00  0.0000000000000000e+00  0.0000000000000000e+00  0.0000000000000000e+00  0.0000000000000000e+00  0.0000000000000000e+00  0.0000000000000000e+00  0.0000000000000000e+00  0.0000000000000000e+00  0.0000000000000000e+00  0.0000000000000000e+00  0.0000000000000000e+00  0.0000000000000000e+00  0.0000000000000000e+00  0.0000000000000000e+00  0.0000000000000000e+00  0.0000000000000000e+00  0.0000000000000000e+00  0.0000000000000000e+00  0.0000000000000000e+00  0.0000000000000000e+00  0.0000000000000000e+00  0.0000000000000000e+00  0.0000000000000000e+00  0.0000000000000000e+00  0.0000000000000000e+00  0.0000000000000000e+00  0.0000000000000000e+00  0.0000000000000000e+00  0.0000000000000000e+00  0.0000000000000000e+00  0.0000000000000000e+00  0.0000000000000000e+00  0.0000000000000000e+00  0.0000000000000000e+00  0.0000000000000000e+00  0.0000000000000000e+00  0.0000000000000000e+00  0.0000000000000000e+00  0.0000000000000000e+00  0.0000000000000000e+00  0.0000000000000000e+00  0.0000000000000000e+00  0.0000000000000000e+00  0.0000000000000000e+00  0.0000000000000000e+00  0.0000000000000000e+00  0.0000000000000000e+00  0.0000000000000000e+00  0.0000000000000000e+00  0.0000000000000000e+00  0.0000000000000000e+00  0.0000000000000000e+00  0.0000000000000000e+00  0.0000000000000000e+00  0.0000000000000000e+00  0.0000000000000000e+00  0.0000000000000000e+00  0.0000000000000000e+00  0.0000000000000000e+00  0.0000000000000000e+00  0.0000000000000000e+00  0.0000000000000000e+00  0.0000000000000000e+00  0.0000000000000000e+00  0.0000000000000000e+00  0.0000000000000000e+00  0.0000000000000000e+00  0.0000000000000000e+00  0.0000000000000000e+00  0.0000000000000000e+00  0.0000000000000000e+00  0.0000000000000000e+00  0.0000000000000000e+00  0.0000000000000000e+00  0.0000000000000000e+00  0.0000000000000000e+00  0.0000000000000000e+00  0.0000000000000000e+00  0.0000000000000000e+00  0.0000000000000000e+00  0.0000000000000000e+00  0.0000000000000000e+00  0.0000000000000000e+00  0.0000000000000000e+00  0.0000000000000000e+00  0.0000000000000000e+00  0.0000000000000000e+00  0.0000000000000000e+00  0.0000000000000000e+00  0.0000000000000000e+00  0.0000000000000000e+00  0.0000000000000000e+00  0.0000000000000000e+00  0.0000000000000000e+00  0.0000000000000000e+00  0.0000000000000000e+00  0.0000000000000000e+00  0.0000000000000000e+00  0.0000000000000000e+00  0.0000000000000000e+00  0.0000000000000000e+00  0.0000000000000000e+00  0.0000000000000000e+00  0.0000000000000000e+00  0.0000000000000000e+00  0.0000000000000000e+00  0.0000000000000000e+00  0.0000000000000000e+00  0.0000000000000000e+00  0.0000000000000000e+00  0.0000000000000000e+00  0.0000000000000000e+00  0.0000000000000000e+00  0.0000000000000000e+00  0.0000000000000000e+00  0.0000000000000000e+00  0.0000000000000000e+00  0.0000000000000000e+00  0.0000000000000000e+00  0.0000000000000000e+00  0.0000000000000000e+00  0.0000000000000000e+00  0.0000000000000000e+00  0.0000000000000000e+00  0.0000000000000000e+00  0.0000000000000000e+00  0.0000000000000000e+00  0.0000000000000000e+00  0.0000000000000000e+00  0.0000000000000000e+00  0.0000000000000000e+00  0.0000000000000000e+00  0.0000000000000000e+00  0.0000000000000000e+00  0.0000000000000000e+00  0.0000000000000000e+00  0.0000000000000000e+00  0.0000000000000000e+00  0.0000000000000000e+00  0.0000000000000000e+00  0.0000000000000000e+00  0.0000000000000000e+00  0.0000000000000000e+00  0.0000000000000000e+00  0.0000000000000000e+00  0.0000000000000000e+00  0.0000000000000000e+00  0.0000000000000000e+00  0.0000000000000000e+00  0.0000000000000000e+00  0.0000000000000000e+00  0.0000000000000000e+00  0.0000000000000000e+00  0.0000000000000000e+00  0.0000000000000000e+00  0.0000000000000000e+00  0.0000000000000000e+00  0.0000000000000000e+00  0.0000000000000000e+00  0.0000000000000000e+00  0.0000000000000000e+00  0.0000000000000000e+00  0.0000000000000000e+00  0.0000000000000000e+00  0.0000000000000000e+00  0.0000000000000000e+00  0.0000000000000000e+00  0.0000000000000000e+00  0.0000000000000000e+00  0.0000000000000000e+00  0.0000000000000000e+00  0.0000000000000000e+00  0.0000000000000000e+00  0.0000000000000000e+00  0.0000000000000000e+00  0.0000000000000000e+00  0.0000000000000000e+00  0.0000000000000000e+00  0.0000000000000000e+00  0.0000000000000000e+00  0.0000000000000000e+00  0.0000000000000000e+00  0.0000000000000000e+00  0.0000000000000000e+00  0.0000000000000000e+00  0.0000000000000000e+00  0.0000000000000000e+00  0.0000000000000000e+00  0.0000000000000000e+00  0.0000000000000000e+00  0.0000000000000000e+00  0.0000000000000000e+00  0.0000000000000000e+00  0.0000000000000000e+00  0.0000000000000000e+00  0