<?xml version="1.0"?>
<VTKFile type="UnstructuredGrid"  version="0.1"  >
<UnstructuredGrid>
<Piece  NumberOfPoints="11669" NumberOfCells="52944">
<Points>
<DataArray  type="Float64"  NumberOfComponents="3"  format="ascii">43.278587 21.355694 25.849079  43.5427498206 20.82030836185 27.06915735055  43.8720815 20.5847805 26.4191455  43.8162495 21.350173 25.965637  43.4869178206 21.58570086185 26.61564885055  43.334419 20.5903015 26.3025875  43.390251 19.824909 26.756096  44.353912 21.344652 26.082195  44.0245803206 21.58017986185 26.73220685055  43.6952486412 21.8157077237 27.3822187011  41.604263 21.830727 27.320818  42.64975582060001 21.82321736185 27.35151835055  42.441425 21.5932105 26.5849485  41.9295845 21.3260345 27.566289  42.254906 20.821342 27.81176  42.9750773206 21.31852486185 27.59698935055  42.7667465 21.088518 26.8304195  42.8225785 20.3231255 27.283928  42.6378005 20.546948 26.8083535  43.149641 20.814124 25.827013  43.020695 20.272554 25.804947  43.205473 20.0487315 26.2805215  42.275656 20.293846 27.3732195  42.296406 19.76635 26.934679  42.8433285 19.7956295 26.8453875  42.6585505 20.019452 26.369813  41.418652 20.739756 26.98757  41.836779 20.780549 27.399665  42.064053 23.739555 28.298262  42.324684 22.967596 27.7554455  41.9654025 22.921631 27.3051845  42.1934395 22.831106 28.259801  42.1952975 23.876045 27.7939065  42.326542 24.012535 27.289551  42.322826 21.922657 28.22134  42.5628795 22.7376225 27.2407405  42.203598 22.6916575 26.7904795  42.56473750000001 23.7825615 26.774846  41.9635445 21.876692 27.771079  42.802933 23.552588 26.260141  43.0090373206 21.86918236185 27.80177935055  43.2490908206 22.68414786185 26.82117985055  43.6873035 20.808603 25.943571  42.288866 21.3719995 28.01655  43.356312 22.53253 26.000807  43.52578032060001 22.17411886185 26.69151285055  43.85511200000001 21.938591 26.041501  43.3174495 21.944112 25.924943  42.4802875 22.1816285 26.6608125  43.0796225 23.042559 26.130474  47.216167 27.845825 28.326736  47.3976553463 27.255261062 29.6841858987  47.3649078463 27.966901562 29.3187518987  47.5973735 27.510988 28.7030865  47.2489145 27.1341845 28.69217  47.281662 26.422544 29.057604  47.630121 26.7993475 29.0685205  47.97858 27.176151 29.079437  47.7461143463 27.632064562 29.6951023987  47.5136486926 28.087978124 30.3107677974  44.791782 26.650537 30.312611  46.15264759085 26.729797334 30.17971676435  45.9662129834 27.01546379935 29.55061959115  45.3121674834 27.39791179935 30.09687609115  45.49860209085 27.112245334 30.72597326435  45.4458275 26.268089 29.7663545  46.099873 25.885641 29.220098  45.8325529668 28.1452865987 29.8811411823  46.01898757425 27.85962013335 30.5102383555  46.2054221817 27.573953668 31.1393355287  48.966587 28.726242 30.097801  48.5087853463 27.737360062 30.3430438987  48.2081718463 27.738467062 29.8918368987  48.2401178463 28.407110062 30.2042843987  48.934641 28.057599 29.7853535  49.2352545 28.056492 30.2365605  48.902695 27.388956 29.472906  49.20330850000001 27.387849 29.924113  49.503922 27.386742 30.37532  49.509068 27.355188 33.132759  48.7441123023 26.74220145955 32.97305922575  49.5008645 26.6991555 32.457238  49.509373 26.436091 32.9378335  49.509678 25.516994 32.742908  48.7359088023 26.08616895955 32.29753822575  48.7444173023 25.82310445955 32.77813372575  49.5011695 25.7800585 32.2623125  49.492661 26.043123 31.781717  47.9791566046 26.1292149191 32.8133594515  46.6518627695 28.9125091769 31.3790556439  47.6173768529 28.57283960635 31.29136414345  47.68162891775 27.8907851784 31.4365643915  47.08275573105 28.50024365045 30.84491172065  45.14381 26.51383 32.703186  46.50772024405 25.8902708927 32.6683728346  45.5507205 25.567297 32.8328895  45.6224175 25.9204025 33.1807765  45.072113 26.1607245 32.355299  46.02911274405 26.4836983927 32.1907823346  45.000416 25.807619 32.007412  45.95741574405 26.1305928927 31.8428953346  46.101025 25.326975 33.658367  46.9144154881 26.4535667854 31.6783786692  47.9706078463 27.308664062 30.1215968987  48.4406375 27.2825535 29.2761715  48.2030735 26.8527505 29.5059315  48.427567 26.52935 29.932426  48.665131 26.959153 29.702666  45.013412 27.195498 31.835316  45.7450206013 27.31316610525 32.20618663395  45.96391374405 26.8245323927 31.7568473346  45.078611 26.854664 32.269251  45.81021960130001 26.97233210525 32.64012163395  46.69552234535 26.94220049795 32.12771796855  46.4766292026 27.4308342105 32.5770572679  46.18408643465 25.56342784245 30.2472052265  46.50714424405 26.1696038927 30.4492383346  46.8142265 25.678054 29.605849  47.52858 25.470467 29.9916  46.89843993465 25.35584084245 30.6329562265  47.22149774405 25.9620168927 30.8349893346  46.5913576787 25.84739073515 31.4763455611  46.2682998693 25.2412146849 31.274312453  46.349564 24.804504 29.912985  46.30893193465 25.02285934245 30.5936487265  47.35440544215 24.6271586101 30.48491596345  46.939072 25.1374855 29.9522925  47.3137733768 24.84551395255 31.16557968995  47.94391344215 24.9601401101 30.52422346345  48.3592468843 24.4498132202 31.0568469269  45.60941709085 27.384725834 31.48732576435  46.34102569215 27.50239393925 31.8581963983  46.5599188349 27.0137602267 31.40885709895  48.070358 25.070915 33.996044  48.8146786666 24.7344256541 32.5854666091  48.0950186666 24.5113861541 33.2120346091  48.7824685 24.740197 33.358421  48.790018 25.2939545 33.369476  49.5021285 24.9632365 32.731853  49.494579 24.409479 32.720798  48.8071291666 24.1806681541 32.5744116091  48.1196793332 23.9518573082 32.4280252182  48.157001 29.663054 29.755066  47.23921861745 29.0278648533 30.39230808775  47.10891279795 28.7522981879 29.7482597795  47.43058895165 29.5398361259 29.4704088808  47.8353248463 28.875516062 30.0329168987  46.7041769033 29.4166182518 29.1857517616  48.006947 29.006353 28.392014  47.35556195165 29.2114856259 28.7888828808  47.34837495165 29.7441586259 28.8669838808  46.74354209085 26.998248834 30.09846976435  47.09803874405 26.4380553927 30.3679913346  47.21403209035 27.2707724547 30.9945732333  46.85953543715 27.830965896 30.72505166305  47.8546145 26.475947 29.495015  47.67099124405 26.4914583927 30.8054023346  45.01556 25.914513 31.011551  46.2368610255 26.40758417645 31.20682399085  45.61049109085 26.744233334 31.07544326435  45.64192993465 25.57786384245 31.1429317265  45.5577165 25.900077 30.1158245  45.06469 24.996719 32.591972  46.52903643785 24.84143943735 32.06147871945  46.18466243465 25.28409484245 32.4663397265  45.66649493465 25.11896684245 31.9331422265  45.9272315032 24.7191915949 32.72030849295  45.5828575 25.161847 33.1251695  46.4453990032 24.8843195949 33.25350599295  46.7897730064 24.4416641898 32.8486449859  48.8049626666 24.0410331541 31.8152261091  48.92691294215 24.4296461101 31.88882246345  49.4924125 24.269844 31.9616125  49.490246 24.130209 31.202427  48.92474644215 24.2900111101 31.12963696345  48.23946310875 24.2008352642 31.74243607255  43.990398 28.964148 30.80689  45.37940862215 28.91295739015 30.55138617065  44.7713927952 28.7177405916 31.2121451548  44.9114754834 28.55471729935 30.34401559115  44.59841382695 29.15936479855 30.14613101585  45.6924702786 28.30830989095 30.74927074595  45.51949131035001 28.7499340979 29.683256607  45.2064296539 29.3545815971 29.4853720317  45.5523875904 28.4713331832 31.6174003096  48.0494179689 25.04053611365 32.62069233485  47.79264201775 25.1225099483 32.94995586485  48.0247573023 25.60006495955 33.40470172575  47.74704132005 25.65165990785 32.3586135906  47.81730268435 24.5629811024 32.16594647395  47.5149260355 25.1741048966 31.9038677297  43.992073 27.485472 30.007809  44.8848545986 27.0472355113 29.63779735985  44.5087425986 27.0029375113 29.28190585985  44.4850000986 27.4647030113 29.48539635985  44.0158155 27.0237065 29.8043185  44.39192749999999 27.0680045 30.16021  44.039558 26.561941 29.600828  44.41567 26.606239 29.9567195  44.9779271972 27.4439340226 28.9629837197  48.260345 26.018288 34.539291  48.7432978023 25.98743045955 33.30086172575  48.7888985 25.4582805 33.892204  48.883892 25.931967 34.1638275  48.1653515 25.5446015 34.2676675  48.1197508023 26.07375145955 33.67632522575  49.507439 25.845646 33.788364  46.160648 27.174988 27.987598  46.17707668935 28.26120673045 28.2842222778  45.64931718935 27.92578823045 28.1146532778  45.9966004834 27.66013729935 28.93436959115  46.6884075 27.5104065 28.157167  46.5243599834 27.99555579935 29.10393859115  45.48526967275 28.4109375298 29.06142486895  45.1379863787 28.6765884609 28.2417085556  48.89103264705 26.45439158345 30.95786526045  48.90025114705 27.06297608345 30.86682526045  48.36207364705 26.63428008345 30.64537826045  48.956526 26.3494615 30.244913  48.9657445 26.958046 30.153873  49.4947035 26.7781575 30.46636  49.485485 26.169573 30.5574  48.2965802941 26.7392101669 31.3583305209  46.10212517995 28.69192118005 31.49822797675  46.56424598605 28.1716716937 31.9780564559  46.4286424756 28.24323142245 31.2591955863  46.01450839650001 27.95108369685 32.09722878875  45.87890488605 28.0226434256 31.37836791915  48.561794 29.194648 29.9264335  48.581882 29.1336185 30.65238  49.006763 28.604183 31.549694  48.2602058463 28.346080562 30.9302308987  48.986675 28.6652125 30.8237475  47.4300655032 24.7562895949 33.42234449295  47.15234952095 24.8078845432 32.3762563578  47.4547261698 24.196760749 32.63833510205  45.682562 25.3595085 30.462268  45.0062275 25.2491945 31.1207505  44.770857 25.426631 30.5143035  44.526154 24.938749 30.017056  45.67322950000001 24.69419 30.5714675  45.437859 24.8716265 29.9650205  44.7615245 24.7613125 30.623503  44.996895 24.583876 31.22995  46.193562 27.882822 27.067411  46.44886945165 28.6497201259 28.1265813808  45.66577418935 28.27970523045 27.6545597778  46.7048645 27.8643235 27.6970735  46.96017195165 28.6312216259 28.7562438808  45.921081641 29.04660335635 28.7137301586  48.6276555 25.852889 30.0899635  47.91258014705 26.10483858345 30.67496526045  48.178162 25.3234475 30.1195505  47.9780735 25.9999085 29.962013  48.56216214705 25.95781908345 30.80291576045  48.827744 25.1
[...]
<PointData  Scalars="p"> 
<DataArray  type="Float64"  Name="p"  format="ascii">0.0000000000000000e+00  0.0000000000000000e+00  0.0000000000000000e+00  0.0000000000000000e+00  0.0000000000000000e+00  0.0000000000000000e+00  0.0000000000000000e+00  0.0000000000000000e+00  0.0000000000000000e+00  0.0000000000000000e+00  0.0000000000000000e+00  0.0000000000000000e+00  0.0000000000000000e+00  0.0000000000000000e+00  0.0000000000000000e+00  0.0000000000000000e+00  0.0000000000000000e+00  0.0000000000000000e+00  0.0000000000000000e+00  0.0000000000000000e+00  0.0000000000000000e+00  0.0000000000000000e+00  0.0000000000000000e+00  0.0000000000000000e+00  0.0000000000000000e+00  0.0000000000000000e+00  0.0000000000000000e+00  0.0000000000000000e+00  0.0000000000000000e+00  0.0000000000000000e+00  0.0000000000000000e+00  0.0000000000000000e+00  0.0000000000000000e+00  0.0000000000000000e+00  0.0000000000000000e+00  0.0000000000000000e+00  0.0000000000000000e+00  0.0000000000000000e+00  0.0000000000000000e+00  0.0000000000000000e+00  0.0000000000000000e+00  0.0000000000000000e+00  0.0000000000000000e+00  0.0000000000000000e+00  0.0000000000000000e+00  0.0000000000000000e+00  0.0000000000000000e+00  0.0000000000000000e+00  0.0000000000000000e+00  0.0000000000000000e+00  0.0000000000000000e+00  0.0000000000000000e+00  0.0000000000000000e+00  0.0000000000000000e+00  0.0000000000000000e+00  0.0000000000000000e+00  0.0000000000000000e+00  0.0000000000000000e+00  0.0000000000000000e+00  0.0000000000000000e+00  0.0000000000000000e+00  0.0000000000000000e+00  0.0000000000000000e+00  0.0000000000000000e+00  0.0000000000000000e+00  0.0000000000000000e+00  0.0000000000000000e+00  0.0000000000000000e+00  0.0000000000000000e+00  0.0000000000000000e+00  0.0000000000000000e+00  0.0000000000000000e+00  0.0000000000000000e+00  0.0000000000000000e+00  0.0000000000000000e+00  0.0000000000000000e+00  0.0000000000000000e+00  0.0000000000000000e+00  0.0000000000000000e+00  0.0000000000000000e+00  0.0000000000000000e+00  0.0000000000000000e+00  0.0000000000000000e+00  0.0000000000000000e+00  0.0000000000000000e+00  0.0000000000000000e+00  0.0000000000000000e+00  0.0000000000000000e+00  0.0000000000000000e+00  0.0000000000000000e+00  0.0000000000000000e+00  0.0000000000000000e+00  0.0000000000000000e+00  0.0000000000000000e+00  0.0000000000000000e+00  0.0000000000000000e+00  0.0000000000000000e+00  0.0000000000000000e+00  0.0000000000000000e+00  0.0000000000000000e+00  0.0000000000000000e+00  0.0000000000000000e+00  0.0000000000000000e+00  0.0000000000000000e+00  0.0000000000000000e+00  0.0000000000000000e+00  0.0000000000000000e+00  0.0000000000000000e+00  0.0000000000000000e+00  0.0000000000000000e+00  0.0000000000000000e+00  0.0000000000000000e+00  0.0000000000000000e+00  0.0000000000000000e+00  0.0000000000000000e+00  0.0000000000000000e+00  0.0000000000000000e+00  0.0000000000000000e+00  0.0000000000000000e+00  0.0000000000000000e+00  0.0000000000000000e+00  0.0000000000000000e+00  0.0000000000000000e+00  0.0000000000000000e+00  0.0000000000000000e+00  0.0000000000000000e+00  0.0000000000000000e+00  0.0000000000000000e+00  0.0000000000000000e+00  0.0000000000000000e+00  0.0000000000000000e+00  0.0000000000000000e+00  0.0000000000000000e+00  0.0000000000000000e+00  0.0000000000000000e+00  0.0000000000000000e+00  0.0000000000000000e+00  0.0000000000000000e+00  0.0000000000000000e+00  0.0000000000000000e+00  0.0000000000000000e+00  0.0000000000000000e+00  0.0000000000000000e+00  0.0000000000000000e+00  0.0000000000000000e+00  0.0000000000000000e+00  0.0000000000000000e+00  0.0000000000000000e+00  0.0000000000000000e+00  0.0000000000000000e+00  0.0000000000000000e+00  0.0000000000000000e+00  0.0000000000000000e+00  0.0000000000000000e+00  0.0000000000000000e+00  0.0000000000000000e+00  0.0000000000000000e+00  0.0000000000000000e+00  0.0000000000000000e+00  0.0000000000000000e+00  0.0000000000000000e+00  0.0000000000000000e+00  0.0000000000000000e+00  0.0000000000000000e+00  0.0000000000000000e+00  0.0000000000000000e+00  0.0000000000000000e+00  0.0000000000000000e+00  0.0000000000000000e+00  0.0000000000000000e+00  0.0000000000000000e+00  0.0000000000000000e+00  0.0000000000000000e+00  0.0000000000000000e+00  0.0000000000000000e+00  0.0000000000000000e+00  0.0000000000000000e+00  0.0000000000000000e+00  0.0000000000000000e+00  0.0000000000000000e+00  0.0000000000000000e+00  0.0000000000000000e+00  0.0000000000000000e+00  0.0000000000000000e+00  0.0000000000000000e+00  0.0000000000000000e+00  0.0000000000000000e+00  0.0000000000000000e+00  0.0000000000000000e+00  0.0000000000000000e+00  0.0000000000000000e+00  0.0000000000000000e+00  0.0000000000000000e+00  0.0000000000000000e+00  0.0000000000000000e+00  0.0000000000000000e+00  0.0000000000000000e+00  0.0000000000000000e+00  0.0000000000000000e+00  0.0000000000000000e+00  0.0000000000000000e+00  0.0000000000000000e+00  0.0000000000000000e+00  0.0000000000000000e+00  0.0000000000000000e+00  0.0000000000000000e+00  0.0000000000000000e+00  0.0000000000000000e+00  0.0000000000000000e+00  0.0000000000000000e+00  0.0000000000000000e+00  0.0000000000000000e+00  0.0000000000000000e+00  0.0000000000000000e+00  0.0000000000000000e+00  0.0000000000000000e+00  0.0000000000000000e+00  0.0000000000000000e+00  0.0000000000000000e+00  0.0000000000000000e+00  0.0000000000000000e+00  0.0000000000000000e+00  0.0000000000000000e+00  0.0000000000000000e+00  0.0000000000000000e+00  0.0000000000000000e+00  0.0000000000000000e+00  0.0000000000000000e+00  0.0000000000000000e+00  0.0000000000000000e+00  0.0000000000000000e+00  0.0000000000000000e+00  0.0000000000000000e+00  0.0000000000000000e+00  0.0000000000000000e+00  0.0000000000000000e+00  0.0000000000000000e+00  0.0000000000000000e+00  0.0000000000000000e+00  0.0000000000000000e+00  0.0000000000000000e+00  0.0000000000000000e+00  0.0000000000000000e+00  0.0000000000000000e+00  0.0000000000000000e+00  0.0000000000000000e+00  0.0000000000000000e+00  0.0000000000000000e+00  0.0000000000000000e+00  0.0000000000000000e+00  0.0000000000000000e+00  0.0000000000000000e+00  0.0000000000000000e+00  0.0000000000000000e+00  0.0000000000000000e+00  0.0000000000000000e+00  0.0000000000000000e+00  0.0000000000000000e+00  0.0000000000000000e+00  0.0000000000000000e+00  0.0000000000000000e+00  0.0000000000000000e+00  0.0000000000000000e+00  0.0000000000000000e+00  0.0000000000000000e+00  0.0000000000000000e+00  0.0000000000000000e+00  0.0000000000000000e+00  0.0000000000000000e+00  0.0000000000000000e+00  0.0000000000000000e+00  0.0000000000000000e+00  0.0000000000000000e+00  0.0000000000000000e+00  0.0000000000000000e+00  0.0000000000000000e+00  0.0000000000000000e+00  0.0000000000000000e+00  0.0000000000000000e+00  0.0000000000000000e+00  0.0000000000000000e+00  0.0000000000000000e+00  0.0000000000000000e+00  0.0000000000000000e+00  0.0000000000000000e+00  0.0000000000000000e+00  0.0000000000000000e+00  0.0000000000000000e+00  0.0000000000000000e+00  0.0000000000000000e+00  0.0000000000000000e+00  0.0000000000000000e+00  0.0000000000000000e+00  0.0000000000000000e+00  0.0000000000000000e+00  0.0000000000000000e+00  0.0000000000000000e+00  0.0000000000000000e+00  0.0000000000000000e+00  0.0000000000000000e+00  0.0000000000000000e+00  0.0000000000000000e+00  0.0000000000000000e+00  0.0000000000000000e+00  0.0000000000000000e+00  0.0000000000000000e+00  0.0000000000000000e+00  0.0000000000000000e+00  0.0000000000000000e+00  0.0000000000000000e+00  0.0000000000000000e+00  0.0000000000000000e+00  0.0000000000000000e+00  0.0000000000000000e+00  0.0000000000000000e+00  0.0000000000000000e+00  0.0000000000000000e+00  0.0000000000000000e+00  0.0000000000000000e+00  0.0000000000000000e+00  0.0000000000000000e+00  0.0000000000000000e+00  0.0000000000000000e+00  0.0000000000000000e+00  0.0000000000000000e+00  0.0000000000000000e+00  0.0000000000000000e+00  0.0000000000000000e+00  0.0000000000000000e+00  0.0000000000000000e+00  0.0000000000000000e+00  0.0000000000000000e+00  0.0000000000000000e+00  0.0000000000000000e+00  0.0000000000000000e+00  0.0000000000000000e+00  0.0000000000000000e+00  0.0000000000000000e+00  0.0000000000000000e+00  0.0000000000000000e+00  0.0000000000000000e+00  0.0000000000000000e+00  0.0000000000000000e+00  0.0000000000000000e+00  0.0000000000000000e+00  0.0000000000000000e+00  0.0000000000000000e+00  0.0000000000000000e+00  0.0000000000000000e+00  0.0000000000000000e+00  0.0000000000000000e+00  0.0000000000000000e+00  0.0000000000000000e+00  0.0000000000000000e+00  0.0000000000000000e+00  0.0000000000000000e+00  0.0000000000000000e+00  0.0000000000000000e+00  0.0000000000000000e+00  0.0000000000000000e+00  0.0000000000000000e+00  0.0000000000000000e+00  0.0000000000000000e+00  0.0000000000000000e+00  0.0000000000000000e+00  0.0000000000000000e+00  0.0000000000000000e+00  0.0000000000000000e+00  0.0000000000000000e+00  0.0000000000000000e+00  0.0000000000000000e+00  0.0000000000000000e+00  0.0000000000000000e+00  0.0000000000000000e+00  0.0000000000000000e+00  0.0000000000000000e+00  0.0000000000000000e+00  0.0000000000000000e+00  0.0000000000000000e+00  0.0000000000000000e+00  0.0000000000000000e+00  0.0000000000000000e+00  0.0000000000000000e+00  0.0000000000000000e+00  0.0000000000000000e+00  0.0000000000000000e+00  0.0000000000000000e+00  0.0000000000000000e+00  0.0000000000000000e+00  0.0000000000000000e+00  0.0000000000000000e+00  0.0000000000000000e+00  0.0000000000000000e+00  0.0000000000000000e+00  0.0000000000000000e+00  0.0000000000000000e+00  0.0000000000000000e+00  0.0000000000000000e+00  0.0000000000000000e+00  0.0000000000000000e+00  0.0000000000000000e+00  0.0000000000000000e+00  0.0000000000000000e+00  0.0000000000000000e+00  0.0000000000000000e+00  0.0000000000000000e+00  0.0000000000000000e+00  0.0000000000000000e+00  0.0000000000000000e+00  0.0000000000000000e+00  0.0000000000000000e+00  0.0000000000000000e+00  0.0000000000000000e+00  0.0000000000000000e+00  0.0000000000000000e+00  0.0000000000000000e+00  0.0000000000000000e+00  0.0000000000000000e+00  0.0000000000000000e+00  0.0000000000000000e+00  0.0000000000000000e+00  0.0000000000000000e+00  0.0000000000000000e+00  0.0000000000000000e+00  0.0000000000000000e+00  0.0000000000000000e+00  0.0000000000000000e+00  0.0000000000000000e+00  0.0000000000000000e+00  0.0000000000000000e+00  0.0000000000000000e+00  0.0000000000000000e+00  0.0000000000000000e+00  0.0000000000000000e+00  0.0000000000000000e+00  0.0000000000000000e+00  0.0000000000000000e+00  0.0000000000000000e+00  0.0000000000000000e+00  0.0000000000000000e+00  0.0000000000000000e+00  0.0000000000000000e+00  0.0000000000000000e+00  0.0000000000000000e+00  0.0000000000000000e+00  0.0000000000000000e+00  0.0000000000000000e+00  0.0000000000000000e+00  0.0000000000000000e+00  0.0000000000000000e+00  0.0000000000000000e+00  0.0000000000000000e+00  0.0000000000000000e+00  0.0000000000000000e+00  0.0000000000000000e+00  0.0000000000000000e+00  0.0000000000000000e+00  0.0000000000000000e+00  0.0000000000000000e+00  0.0000000000000000e+00  0.0000000000000000e+00  0.0000000000000000e+00  0.0000000000000000e+00  0.0000000000000000e+00  0.0000000000000000e+00  0.0000000000000000e+00  0.0000000000000000e+00  0.0000000000000000e+00  0.0000000000000000e+00  0.0000000000000000e+00  0.0000000000000000e+00  0.0000000000000000e+00  0.0000000000000000e+00  0.0000000000000000e+00  0.0000000000000000e+00  0.0000000000000000e+00  0.0000000000000000e+00  0.0000000000000000e+00  0.0000000000000000e+00  0.0000000000000000e+00  0.0000000000000000e+00  0.0000000000000000e+00  0.0000000000000000e+00  0.0000000000000000e+00  0.0000000000000000e+00  0.0000000000000000e+00  0.0000000000000000e+00  0.0000000000000000e+00  0.0000000000000000e+00  0.0000000000000000e+00  0.0000000000000000e+00  0.0000000000000000e+00  0.0000000000000000e+00  0.0000000000000000e+00  0.0000000000000000e+00  0.0000000000000000e+00  0.0000000000000000e+00  0.0000000000000000e+00  0.0000000000000000e+00  0.0000000000000000e+00  0.0000000000000000e+00  0.0000000000000000e+00  0.0000000000000000e+00  0.0000000000000000e+00  0.0000000000000000e+00  0.0000000000000000e+00  0.0000000000000000e+00  0.0000000000000000e+00  0.0000000000000000e+00  0.0000000000000000e+00  0.0000000000000000e+00  0.0000000000000000e+00  0.0000000000000000e+00  0.0000000000000000e+00  0.0000000000000000e+00  0.0000000000000000e+00  0.0000000000000000e+00  0.0000000000000000e+00  0.0000000000000000e+00  0.0000000000000000e+00  0.0000000000000000e+00  0.0000000000000000e+00  0.0000000000000000e+00  0.0000000000000000e+00  0.0000000000000000e+00  0.0000000000000000e+00  0.0000000000000000e+00  0.0000000000000000e+00  0.0000000000000000e+00  0.0000000000000000e+00  0.0000000000000000e+00  0.0000000000000000e+00  0.0000000000000000e+00  0.0000000000000000e+00  0.0000000000000000e+00  0.0000000000000000e+00  0.0000000000000000e+00  0.0000000000000000e+00  0.0000000000000000e+00  0.0000000000000000e+00  0.0000000000000000e+00  0.0000000000000000e+00  0.0000000000000000e+00  0.0000000000000000e+00  0.0000000000000000e+00  0.0000000000000000e+00  0.0000000000000000e+00  0.0000000000000000e+00  0.0000000000000000e+00  0.0000000000000000e+00  0.0000000000000000e+00  0.0000000000000000e+00  0.0000000000000000e+00  0.0000000000000000e+00  0.0000000000000000e+00  0.0000000000000000e+00  0.0000000000000000e+00  0.0000000000000000e+00  0.0000000000000000e+00  0.0000000000000000e+00  0.0000000000000000e+00  0.0000000000000000e+00  0.0000000000000000e+00  0.0000000000000000e+00  0.0000000000000000e+00  0.0000000000000000e+00  0.0000000000000000e+00  0.0000000000000000e+00  0.0000000000000000e+00  0.0000000000000000e+00  0.0000000000000000e+00  0.0000000000000000e+00  0.0000000000000000e+00  0.0000000000000000e+00  0.0000000000000000e+00  0.0000000000000000e+00  0.0000000000000000e+00  0.0000000000000000e+00  0.0000000000000000e+00  0.0000000000000000e+00  0.0000000000000000e+00  0.0000000000000000e+00  0.0000000000000000e+00  0.0000000000000000e+00  0.0000000000000000e+00  0.0000000000000000e+00  0.0000000000000000e+00  0.0000000000000000e+00  0.0000000000000000e+00  0.0000000000000000e+00  0.0000000000000000e+00  0.0000000000000000e+00  0.0000000000000000e+00  0.0000000000000000e+00  0.0000000000000000e+00  0.0000000000000000e+00  0.0000000000000000e+00  0.0000000000000000e+00  0.0000000000000000e+00  0.0000000000000000e+00  0.0000000000000000e+00  0.0000000000000000e+00  0.0000000000000000e+00  0.0000000000000000e+00  0.0000000000000000e+00  0.0000000000000000e+00  0.0000000000000000e+00  0.0000000000000000e+00  0.0000000000000000e+00  0.0000000000000000e+00  0.0000000000000000e+00  0.0000000000000000e+00  0.0000000000000000e+00  0.0000000000000000e+00  0.0000000000000000e+00  0.0000000000000000e+00  0.0000000000000000e+00  0.0000000000000000e+00  0.0000000000000000e+00  0.0000000000000000e+00  0.0000000000000000e+00  0.0000000000000000e+00  0.0000000000000000e+00  0.0000000000000000e+00  0.0000000000000000e+00  0.0000000000000000e+00  0.0000000000000000e+00  0.0000000000000000e+00  0.0000000000000000e+00  0.0000000000000000e+00  0.0000000000000000e+00  0.0000000000000000e+00  0.0000000000000000e+00  0.0000000000000000e+00  0.0000000000000000e+00  0.0000000000000000e+00  0.0000000000000000e+00  0.0000000000000000e+00  0.0000000000000000e+00  0.0000000000000000e+00  0.0000000000000000e+00  0.0000000000000000e+00  0.0000000000000000e+00  0.0000000000000000e+00  0.0000000000000000e+00  0.0000000000000000e+00  0.0000000000000000e+00  0.0000000000000000e+00  0.0000000000000000e+00  0.0000000000000000e+00  0.0000000000000000e+00  0.0000000000000000e+00  0.0000000000000000e+00  0.0000000000000000e+00  0.0000000000000000e+00  0.0000000000000000e+00  0.0000000000000000e+00  0.0000000000000000e+00  0.0000000000000000e+00  0.0000000000000000e+00  0.0000000000000000e+00  0.0000000000000000e+00  0.0000000000000000e+00  0.0000000000000000e+00  0.0000000000000000e+00  0.0000000000000000e+00  0.0000000000000000e+00  0.0000000000000000e+00  0.0000000000000000e+00  0.0000000000000000e+00  0.0000000000000000e+00  0.0000000000000000e+00  0.0000000000000000e+00  0.0000000000000000e+00  0.0000000000000000e+00  0.0000000000000000e+00  0.0000000000000000e+00  0.0000000000000000e+00  0.0000000000000000e+00  0.0000000000000000e+00  0.0000000000000000e+00  0.0000000000000000e+00  0.0000000000000000e+00  0.0000000000000000e+00  0.0000000000000000e+00  0.0000000000000000e+00  0.0000000000000000e+00  0.0000000000000000e+00  0.0000000000000000e+00  0.0000000000000000e+00  0.0000000000000000e+00  0.0000000000000000e+00  0.0000000000000000e+00  0.0000000000000000e+00  0.0000000000000000e+00  0.0000000000000000e+00  0.0000000000000000e+00  0.0000000000000000e+00  0.0000000000000000e+00  0.0000000000000000e+00  0.0000000000000000e+00  0.0000000000000000e+00  0.0000000000000000e+00  0.0000000000000000e+00  0.0000000000000000e+00  0.0000000000000000e+00  0.0000000000000000e+00  0.0000000000000000e+00  0.0000000000000000e+00  0.0000000000000000e+00  0.0000000000000000e+00  0.0000000000000000e+00  0.0000000000000000e+00  0.0000000000000000e+00  0.0000000000000000e+00  0.0000000000000000e+00  0.0000000000000000e+00  0.0000000000000000e+00  0.0000000000000000e+00  0.0000000000000000e+00  0.0000000000000000e+00  0.0000000000000000e+00  0.0000000000000000e+00  0.0000000000000000e+00  0.0000000000000000e+00  0.0000000000000000e+00  0.0000000000000000e+00  0.0000000000000000e+00  0.0000000000000000e+00  0.0000000000000000e+00  0.0000000000000000e+00  0.0000000000000000e+00  0.0000000000000000e+00  0.0000000000000000e+00  0.0000000000000000e+00  0.0000000000000000e+00  0.0000000000000000e+00  0.0000000000000000e+00  0.0000000000000000e+00  0.0000000000000000e+00  0.0000000000000000e+00  0.0000000000000000e+00  0.0000000000000000e+00  0.0000000000000000e+00  0.0000000000000000e+00  0.0000000000000000e+00  0.0000000000000000e+00  0.0000000000000000e+00  0.0000000000000000e+00  0.0000000000000000e+00  0.0000000000000000e+00  0.0000000000000000e+00  0.0000000000000000e+00  0.0000000000000000e+00  0.0000000000000000e+00  0.0000000000000000e+00  0.0000000000000000e+00  0.0000000000000000e+00  0.0000000000000000e+00  0.0000000000000000e+00  0.0000000000000000e+00  0.0000000000000000e+00  0.0000000000000000e+00  0.0000000000000000e+00  0.0000000000000000e+00  0.0000000000000000e+00  0.0000000000000000e+00  0.0000000000000000e+00  0.0000000000000000e+00  0.0000000000000000e+00  0.0000000000000000e+00  0.0000000000000000e+00  0.0000000000000000e+00  0.0000000000000000e+00  0.0000000000000000e+00  0.0000000000000000e+00  0.0000000000000000e+00  0.0000000000000000e+00  0.0000000000000000e+00  0.0000000000000000e+00  0.0000000000000000e+00  0.0000000000000000e+00  0.0000000000000000e+00  0.0000000000000000e+00  0.0000000000000000e+00  0.0000000000000000e+00  0.0000000000000000e+00  0.0000000000000000e+00  0.0000000000000000e+00  0.0000000000000000e+00  0.0000000000000000e+00  0.0000000000000000e+00  0.0000000000000000e+00  0.0000000000000000e+00  0.0000000000000000e+00  0.0000000000000000e+00  0.0000000000000000e+00  0.0000000000000000e+00  0.0000000000000000e+00  0.0000000000000000e+00  0.0000000000000000e+00  0.0000000000000000e+00  0.0000000000000000e+00  0.0000000000000000e+00  0.0000000000000000e+00  0.0000000000000000e+00  0.0000000000000000e+00  0.0000000000000000e+00  0.0000000000000000e+00  0.0000000000000000e+00  0.0000000000000000e+00  0.0000000000000000e+00  0.0000000000000000e+00  0.0000000000000000e+00  0.0000000000000000e+00  0.0000000000000000e+00  0.0000000000000000e+00  0.0000000000000000e+00  0.0000000000000000e+00  0.0000000000000000e+00  0.0000000000000000e+00  0.0000000000000000e+00  0.0000000000000000e+00  0.0000000000000000e+00  0.0000000000000000e+00  0.0000000000000000e+00  0.0000000000000000e+00  0.0000000000000000e+00  0.0000000000000000e+00  0.0000000000000000e+00  0