<?xml version="1.0"?>
<VTKFile type="UnstructuredGrid"  version="0.1"  >
<UnstructuredGrid>
<Piece  NumberOfPoints="11414" NumberOfCells="53086">
<Points>
<DataArray  type="Float64"  NumberOfComponents="3"  format="ascii">17.672802 13.762259 5.805455  18.2778999426 14.42133623775 6.038965539399999  18.25564871185 13.76656584745 6.75467574665  17.77358035595 14.3112511357 6.6618617402  17.8743587119 14.8602432714 7.5182684804  18.86074665445 14.4256430852 6.98818628605  18.37867829855 14.97032837345 6.8953722796  18.3564270678 14.31555798315 7.61108248685  18.8384954237 13.7708726949 7.7038964933  18.8829978852 15.0804134755 6.2724760788  17.6307475496 14.8550921213 5.582009080600001  17.3736615496 14.3787111213 6.0555815806  17.929888 14.23864 5.331882500000001  18.186974 14.715021 4.85831  18.5349859426 14.89771723775 5.5653930394  17.9787594922 15.03778835905 6.289092119999999  17.0745210992 14.9951632426 6.3057081612  17.08103 15.219552 4.181521  17.0777755496 15.1073576213 5.2436145806  17.64977887415 15.82376709695 4.7579496101  17.01662099505 15.8310780313 5.17615776575  16.9522119901 16.4426040626 6.1707945315  17.64652442375 15.71157271825 5.8200431907  17.01336654465 15.7188836526 6.23825134635  17.5853698692 16.43529312825 5.75258637585  18.2185277483 16.4279821939 5.3343782202  17.80532691535 15.7833145981 6.5509478442  17.47443990555 14.927703257 6.9119883208  16.002409 19.476889 5.434842  16.24407053315 18.9908940873 6.11583431735  16.1583649092 18.5665661767 5.3002091658  16.91922383625 18.87367822315 5.5267189873  17.8360386725 18.2704674463 5.6185959746  16.40002644235 18.080571264 5.98120148315  17.1608853694 18.38768331045 6.20771130465  17.07517974545 17.96335539985 5.392086153099999  16.3143208184 17.6562433534 5.1655763316  16.4857320663 18.5048991746 6.7968266347  17.7899665 15.4965355 4.0962445  18.3429385 15.24427 4.434639000000001  18.20275087415 15.57150159695 5.0963441101  17.634002 14.9672865 4.5199155  18.498903 15.773519 4.010968  18.35871537415 16.10075059695 4.6726731101  17.832571 16.770557 9.392063  17.77546852665 15.89434869795 9.12874498795  18.419037 16.518689 9.276351500000001  18.0781575 16.236624 9.644721499999999  18.323744 15.702691 9.89738  18.506147 13.680674 9.129433000000001  18.16335971185 13.39235634745 8.00529674665  18.2175025 12.6580185 8.353681  17.9971855 13.347257 8.718064999999999  17.488224 13.01384 8.306697  18.574295 12.973911 6.501484  18.90816021185 13.73261034745 6.54018024665  18.7286464426 14.02716223775 6.386980039399999  18.70639521185 13.37239184745 7.10269024665  18.77606 13.3341295 5.938974  18.977825 13.694348 5.376464  18.9304114426 14.38738073775 5.8244700394  19.23124975925 15.6854325447 5.875960977749999  19.6956726317 15.19592119595 6.0091613353  19.3038044426 14.96077023775 5.3917520394  19.5795016333 16.2904516139 5.4794458767  17.133575 14.402352 9.970865999999999  17.42597052665 14.71024619795 9.418146487950001  17.819861 14.041513 9.5501495  17.2691925 14.0611305 9.5599025  17.40481 13.719909 9.148939  18.11225652665 14.34940719795 8.997429987949999  17.56158802665 14.36902469795 9.007182987949999  17.9554785 13.7002915 9.139186  17.7183660533 15.0181403959 8.8654269759  17.812504 17.203201 8.208207  17.56443921315 16.6201480344 7.1883087794  17.5116608474 17.4391715576 7.4239920158  17.2026248474 16.9360155576 7.8943185158  18.17431836575 16.8873334768 7.502197263599999  18.12154 17.706357 7.737880499999999  18.430576 18.209513 7.267554  18.48335436575 17.3904894768 7.0318707636  18.5361327315 16.5714659536 6.7961875272  16.5927456948 16.6688301152 7.5804300316  16.543835 19.749187 4.154721  17.3963823516 19.2498629027 4.1349434821  17.0331338516 19.5413989027 4.5374714821  16.965188 18.934054 4.042378  16.9070835 19.457651 3.752193  17.270332 19.166115 3.349665  17.3284365 18.642518 3.63985  17.386541 18.118921 3.930035  17.4544868516 18.7262659027 4.4251284821  17.5224327032 19.3336108054 4.9202219642  15.647303 18.908598 4.229102  16.2956264092 18.2161716767 4.2713921658  15.9808119092 18.2824206767 4.6973391658  16.516922 18.5137595 4.079568500000001  15.9621175 18.842349 3.803155  16.276932 18.7761 3.377208  16.8317365 18.4475105 3.6536215  16.8504309092 17.8875821767 4.5478056658  18.55076281675 15.7541978347 5.803427149499999  19.0578171824 16.43095878375 6.137816701949999  18.70956530835 15.82593971455 6.534331803  18.3773302399 16.49972407375 6.065282873699999  18.8990146908 16.3592169039 5.40691204845  17.0127339092 17.2965636767 4.5900661658  17.77359283625 17.60367572315 4.8165759873  17.548844 17.5279025 3.9722955  17.61128983625 18.19469422315 4.7743154873  17.711147 16.936884 4.014556  17.786802 21.212042 7.123651  18.1870043708 20.45036407855 6.4250759418  18.43379799465 20.92215739835 6.3508522839  17.7299558708 20.73287957855 6.482112941800001  18.2438505 20.9295265 7.066614  18.700899 20.647011 7.009577  17.6731097416 20.2537171571 5.8405748836  18.37695186545 20.4429949769 5.7093142257  19.0807939893 20.6322727967 5.5780535678  17.7441723608 16.5070350081 6.483491029350001  17.226257 13.002412 6.86137  18.03237621185 13.38664234745 7.282633246650001  17.900276 12.9881615 6.681426999999999  17.66588 12.6855135 7.1619785  18.105503 12.368615 7.462587  18.47199921185 13.06974384745 7.58324174665  18.339899 12.671263 6.9820355  18.70429 17.047285 4.054204  19.03920231665 16.03198530695 4.74520693835  19.078166 16.276774 4.1036365  18.6015965 16.410402 4.032586  19.1808595 16.913657 4.1252545  19.14189581665 16.66886830695 4.76682493835  19.657429 16.780029 4.196305  19.330153 19.030462 4.882313  18.30161334625 19.98294180105 5.249137766  18.75184849465 19.99055189835 4.7734092839  19.20547349465 19.83136739835 5.2301832839  18.4262928516 19.1820364027 4.9012674821  18.876528 19.1896465 4.425539  18.422903 19.348831 3.968765  17.9726678516 19.3412209027 4.4444934821  18.88323781665 15.50273630695 5.168877938350001  18.9557925 14.778074 4.684669  19.724611 14.841127 4.511028  16.9183767608 18.4949270794 5.0428991479  16.5848678516 19.1211044027 4.5746619821  16.7624208516 19.4052499027 5.1775319821  15.824856 19.1927435 4.831972  16.095569 19.3288925 4.1919115  17.5882795 21.4854005 6.19308  18.65435049465 21.41106039835 6.2853452839  18.0073545 21.700945 7.058144  17.389757 21.758759 5.262509  18.23527549465 21.19551589835 5.4202812839  19.784687 19.806717 7.17995  18.75252849465 20.03299989835 6.3100067839  19.55742 19.4185895 6.0311315  19.104475 19.620222 7.110955000000001  18.424263 19.433727 7.04196  18.877208 19.2320945 5.9621365  20.0868779685 19.07225613835 5.6447831415  19.8297095 18.4761485 4.937589  20.2102445 18.8466975 4.949483499999999  20.329266 17.921835 4.992865  20.102888 19.788673 4.916646  19.7165205 19.4095675 4.8994795  16.202082 20.835463 5.566265  16.32171445385 19.87033253035 6.1488401119  16.8377593708 19.86530307855 5.6377084418  16.42155095385 20.54961953035 6.214551611899999  16.1022455 20.156176 5.5005535  16.9375958708 20.54459007855 5.7034199418  17.15706482465 20.2587466089 6.3517065537  16.6410199077 20.2637760607 6.8628382238  16.273122 19.613038 4.7947815  16.66068599505 16.4925260313 5.02655826575  17.33167949505 16.6897440313 5.09267526575  17.0401535 16.739666 3.948439  16.36916 16.542448 3.882322  16.3417404092 17.0993456767 4.5239491658  16.63326640425 17.049423708 5.66818543155  16.724066 22.0919 6.415385  17.1985878708 21.17280857855 6.1279799418  16.463074 21.4636815 5.990824999999999  17.0569115 21.9253295 5.838946999999999  17.5314333708 21.00623807855 5.5515419418  16.7959195 21.297111 5.414387  17.00408238475 18.91925499 5.85852429945  17.67923568785 18.80203912585 5.2694089694  19.261021 17.615021 4.833696  19.4406019819 16.97688986725 5.8732166118  18.7601150394 17.04565515725 5.80068278355  19.42026131665 16.95273630695 5.15657093835  19.28136166525 17.6391745603 5.550341673449999  18.73977437415 17.02150159695 5.0840371101  19.3017023305 17.6633281206 6.2669873469  19.111757 15.307323 4.260998  19.293558 15.7694725 4.000838  19.31592766525 18.3468950603 5.574650173449999  19.81548416525 17.7925815603 5.62992617345  17.45499753315 18.9693130873 6.91939331735  18.13015083625 18.85209722315 6.330277987300001  18.4274195 18.82162 7.154757  17.45815403315 18.3572060873 7.03219031735  18.13330733625 18.23999022315 6.443074987299999  17.1617695 17.3749255 3.53812  16.9994665 17.965944 3.4958595  16.8778505 17.3306845 3.9061785  16.490776 17.1777075 3.472003  16.612392 17.812967 3.061684  17.84343135595 16.0317221357 7.8632377402  17.23355220335 15.7645366933 7.549349255999999  17.96483737415 16.68243309695 4.6744671101  18.105025 16.3552015 4.012762  18.2077185 16.9920845 4.034380000000001  18.46140887415 16.73763359695 4.6942911101  17.26642428335 17.04211277365 5.249977275899999  18.0272832104 17.3492248201 5.4764870974  18.27016433625 17.65887622315 4.8363999873  16.8622573516 20.0845369027 5.2432434821  16.3729585 20.292325 4.860493  17.258583 20.729542 4.364311  17.1194305 19.8983945 3.9314785  17.3905078516 20.0315764027 4.6422664821  17.4768045 20.388572 4.0362735  16.901209 20.2393645 4.259516  17.6087293516 19.6906064027 4.314228982099999  17.695026 20.047602 3.708236  17.55030785595 13.9313276357 7.1898192402  17.4495295 13.3823355 6.3334125  18.19025285595 14.2704586357 8.323850740200001  18.12165271185 13.74539084745 8.426417746649999  17.63958435595 14.2900761357 8.333603740200001  19.25552266525 17.7387255603 7.010940673449999  18.87273786575 17.1927944768 7.2755407636  18.86613916525 17.9364205603 6.76727067345  18.8199595 18.011818 7.511224  19.209343 17.814123 7.754894  18.918917531 17.1173970371 6.53158743705  18.0517398516 18.6866494027 4.4839224821  17.904722 18.733876 3.9494  18.501975 18.6942595 4.008194  17.983794 18.0793045 3.988829  18.581047 18.039688 4.047623  17.29384387415 16.48521509695 4.6083501101  19.351218 14.2677375 4.943746  18.5823995 14.2046845 5.117387000000001  18.22940702665 14.75152969795 9.50027998795  17.9370115 14.4436355 10.05
[...]
<PointData  Scalars="p"> 
<DataArray  type="Float64"  Name="p"  format="ascii">0.0000000000000000e+00  0.0000000000000000e+00  0.0000000000000000e+00  0.0000000000000000e+00  0.0000000000000000e+00  0.0000000000000000e+00  0.0000000000000000e+00  0.0000000000000000e+00  0.0000000000000000e+00  0.0000000000000000e+00  0.0000000000000000e+00  0.0000000000000000e+00  0.0000000000000000e+00  0.0000000000000000e+00  0.0000000000000000e+00  0.0000000000000000e+00  0.0000000000000000e+00  0.0000000000000000e+00  0.0000000000000000e+00  0.0000000000000000e+00  0.0000000000000000e+00  0.0000000000000000e+00  0.0000000000000000e+00  0.0000000000000000e+00  0.0000000000000000e+00  0.0000000000000000e+00  0.0000000000000000e+00  0.0000000000000000e+00  0.0000000000000000e+00  0.0000000000000000e+00  0.0000000000000000e+00  0.0000000000000000e+00  0.0000000000000000e+00  0.0000000000000000e+00  0.0000000000000000e+00  0.0000000000000000e+00  0.0000000000000000e+00  0.0000000000000000e+00  0.0000000000000000e+00  0.0000000000000000e+00  0.0000000000000000e+00  0.0000000000000000e+00  0.0000000000000000e+00  0.0000000000000000e+00  0.0000000000000000e+00  0.0000000000000000e+00  0.0000000000000000e+00  0.0000000000000000e+00  0.0000000000000000e+00  0.0000000000000000e+00  0.0000000000000000e+00  0.0000000000000000e+00  0.0000000000000000e+00  0.0000000000000000e+00  0.0000000000000000e+00  0.0000000000000000e+00  0.0000000000000000e+00  0.0000000000000000e+00  0.0000000000000000e+00  0.0000000000000000e+00  0.0000000000000000e+00  0.0000000000000000e+00  0.0000000000000000e+00  0.0000000000000000e+00  0.0000000000000000e+00  0.0000000000000000e+00  0.0000000000000000e+00  0.0000000000000000e+00  0.0000000000000000e+00  0.0000000000000000e+00  0.0000000000000000e+00  0.0000000000000000e+00  0.0000000000000000e+00  0.0000000000000000e+00  0.0000000000000000e+00  0.0000000000000000e+00  0.0000000000000000e+00  0.0000000000000000e+00  0.0000000000000000e+00  0.0000000000000000e+00  0.0000000000000000e+00  0.0000000000000000e+00  0.0000000000000000e+00  0.0000000000000000e+00  0.0000000000000000e+00  0.0000000000000000e+00  0.0000000000000000e+00  0.0000000000000000e+00  0.0000000000000000e+00  0.0000000000000000e+00  0.0000000000000000e+00  0.0000000000000000e+00  0.0000000000000000e+00  0.0000000000000000e+00  0.0000000000000000e+00  0.0000000000000000e+00  0.0000000000000000e+00  0.0000000000000000e+00  0.0000000000000000e+00  0.0000000000000000e+00  0.0000000000000000e+00  0.0000000000000000e+00  0.0000000000000000e+00  0.0000000000000000e+00  0.0000000000000000e+00  0.0000000000000000e+00  0.0000000000000000e+00  0.0000000000000000e+00  0.0000000000000000e+00  0.0000000000000000e+00  0.0000000000000000e+00  0.0000000000000000e+00  0.0000000000000000e+00  0.0000000000000000e+00  0.0000000000000000e+00  0.0000000000000000e+00  0.0000000000000000e+00  0.0000000000000000e+00  0.0000000000000000e+00  0.0000000000000000e+00  0.0000000000000000e+00  0.0000000000000000e+00  0.0000000000000000e+00  0.0000000000000000e+00  0.0000000000000000e+00  0.0000000000000000e+00  0.0000000000000000e+00  0.0000000000000000e+00  0.0000000000000000e+00  0.0000000000000000e+00  0.0000000000000000e+00  0.0000000000000000e+00  0.0000000000000000e+00  0.0000000000000000e+00  0.0000000000000000e+00  0.0000000000000000e+00  0.0000000000000000e+00  0.0000000000000000e+00  0.0000000000000000e+00  0.0000000000000000e+00  0.0000000000000000e+00  0.0000000000000000e+00  0.0000000000000000e+00  0.0000000000000000e+00  0.0000000000000000e+00  0.0000000000000000e+00  0.0000000000000000e+00  0.0000000000000000e+00  0.0000000000000000e+00  0.0000000000000000e+00  0.0000000000000000e+00  0.0000000000000000e+00  0.0000000000000000e+00  0.0000000000000000e+00  0.0000000000000000e+00  0.0000000000000000e+00  0.0000000000000000e+00  0.0000000000000000e+00  0.0000000000000000e+00  0.0000000000000000e+00  0.0000000000000000e+00  0.0000000000000000e+00  0.0000000000000000e+00  0.0000000000000000e+00  0.0000000000000000e+00  0.0000000000000000e+00  0.0000000000000000e+00  0.0000000000000000e+00  0.0000000000000000e+00  0.0000000000000000e+00  0.0000000000000000e+00  0.0000000000000000e+00  0.0000000000000000e+00  0.0000000000000000e+00  0.0000000000000000e+00  0.0000000000000000e+00  0.0000000000000000e+00  0.0000000000000000e+00  0.0000000000000000e+00  0.0000000000000000e+00  0.0000000000000000e+00  0.0000000000000000e+00  0.0000000000000000e+00  0.0000000000000000e+00  0.0000000000000000e+00  0.0000000000000000e+00  0.0000000000000000e+00  0.0000000000000000e+00  0.0000000000000000e+00  0.0000000000000000e+00  0.0000000000000000e+00  0.0000000000000000e+00  0.0000000000000000e+00  0.0000000000000000e+00  0.0000000000000000e+00  0.0000000000000000e+00  0.0000000000000000e+00  0.0000000000000000e+00  0.0000000000000000e+00  0.0000000000000000e+00  0.0000000000000000e+00  0.0000000000000000e+00  0.0000000000000000e+00  0.0000000000000000e+00  0.0000000000000000e+00  0.0000000000000000e+00  0.0000000000000000e+00  0.0000000000000000e+00  0.0000000000000000e+00  0.0000000000000000e+00  0.0000000000000000e+00  0.0000000000000000e+00  0.0000000000000000e+00  0.0000000000000000e+00  0.0000000000000000e+00  0.0000000000000000e+00  0.0000000000000000e+00  0.0000000000000000e+00  0.0000000000000000e+00  0.0000000000000000e+00  0.0000000000000000e+00  0.0000000000000000e+00  0.0000000000000000e+00  0.0000000000000000e+00  0.0000000000000000e+00  0.0000000000000000e+00  0.0000000000000000e+00  0.0000000000000000e+00  0.0000000000000000e+00  0.0000000000000000e+00  0.0000000000000000e+00  0.0000000000000000e+00  0.0000000000000000e+00  0.0000000000000000e+00  0.0000000000000000e+00  0.0000000000000000e+00  0.0000000000000000e+00  0.0000000000000000e+00  0.0000000000000000e+00  0.0000000000000000e+00  0.0000000000000000e+00  0.0000000000000000e+00  0.0000000000000000e+00  0.0000000000000000e+00  0.0000000000000000e+00  0.0000000000000000e+00  0.0000000000000000e+00  0.0000000000000000e+00  0.0000000000000000e+00  0.0000000000000000e+00  0.0000000000000000e+00  0.0000000000000000e+00  0.0000000000000000e+00  0.0000000000000000e+00  0.0000000000000000e+00  0.0000000000000000e+00  0.0000000000000000e+00  0.0000000000000000e+00  0.0000000000000000e+00  0.0000000000000000e+00  0.0000000000000000e+00  0.0000000000000000e+00  0.0000000000000000e+00  0.0000000000000000e+00  0.0000000000000000e+00  0.0000000000000000e+00  0.0000000000000000e+00  0.0000000000000000e+00  0.0000000000000000e+00  0.0000000000000000e+00  0.0000000000000000e+00  0.0000000000000000e+00  0.0000000000000000e+00  0.0000000000000000e+00  0.0000000000000000e+00  0.0000000000000000e+00  0.0000000000000000e+00  0.0000000000000000e+00  0.0000000000000000e+00  0.0000000000000000e+00  0.0000000000000000e+00  0.0000000000000000e+00  0.0000000000000000e+00  0.0000000000000000e+00  0.0000000000000000e+00  0.0000000000000000e+00  0.0000000000000000e+00  0.0000000000000000e+00  0.0000000000000000e+00  0.0000000000000000e+00  0.0000000000000000e+00  0.0000000000000000e+00  0.0000000000000000e+00  0.0000000000000000e+00  0.0000000000000000e+00  0.0000000000000000e+00  0.0000000000000000e+00  0.0000000000000000e+00  0.0000000000000000e+00  0.0000000000000000e+00  0.0000000000000000e+00  0.0000000000000000e+00  0.0000000000000000e+00  0.0000000000000000e+00  0.0000000000000000e+00  0.0000000000000000e+00  0.0000000000000000e+00  0.0000000000000000e+00  0.0000000000000000e+00  0.0000000000000000e+00  0.0000000000000000e+00  0.0000000000000000e+00  0.0000000000000000e+00  0.0000000000000000e+00  0.0000000000000000e+00  0.0000000000000000e+00  0.0000000000000000e+00  0.0000000000000000e+00  0.0000000000000000e+00  0.0000000000000000e+00  0.0000000000000000e+00  0.0000000000000000e+00  0.0000000000000000e+00  0.0000000000000000e+00  0.0000000000000000e+00  0.0000000000000000e+00  0.0000000000000000e+00  0.0000000000000000e+00  0.0000000000000000e+00  0.0000000000000000e+00  0.0000000000000000e+00  0.0000000000000000e+00  0.0000000000000000e+00  0.0000000000000000e+00  0.0000000000000000e+00  0.0000000000000000e+00  0.0000000000000000e+00  0.0000000000000000e+00  0.0000000000000000e+00  0.0000000000000000e+00  0.0000000000000000e+00  0.0000000000000000e+00  0.0000000000000000e+00  0.0000000000000000e+00  0.0000000000000000e+00  0.0000000000000000e+00  0.0000000000000000e+00  0.0000000000000000e+00  0.0000000000000000e+00  0.0000000000000000e+00  0.0000000000000000e+00  0.0000000000000000e+00  0.0000000000000000e+00  0.0000000000000000e+00  0.0000000000000000e+00  0.0000000000000000e+00  0.0000000000000000e+00  0.0000000000000000e+00  0.0000000000000000e+00  0.0000000000000000e+00  0.0000000000000000e+00  0.0000000000000000e+00  0.0000000000000000e+00  0.0000000000000000e+00  0.0000000000000000e+00  0.0000000000000000e+00  0.0000000000000000e+00  0.0000000000000000e+00  0.0000000000000000e+00  0.0000000000000000e+00  0.0000000000000000e+00  0.0000000000000000e+00  0.0000000000000000e+00  0.0000000000000000e+00  0.0000000000000000e+00  0.0000000000000000e+00  0.0000000000000000e+00  0.0000000000000000e+00  0.0000000000000000e+00  0.0000000000000000e+00  0.0000000000000000e+00  0.0000000000000000e+00  0.0000000000000000e+00  0.0000000000000000e+00  0.0000000000000000e+00  0.0000000000000000e+00  0.0000000000000000e+00  0.0000000000000000e+00  0.0000000000000000e+00  0.0000000000000000e+00  0.0000000000000000e+00  0.0000000000000000e+00  0.0000000000000000e+00  0.0000000000000000e+00  0.0000000000000000e+00  0.0000000000000000e+00  0.0000000000000000e+00  0.0000000000000000e+00  0.0000000000000000e+00  0.0000000000000000e+00  0.0000000000000000e+00  0.0000000000000000e+00  0.0000000000000000e+00  0.0000000000000000e+00  0.0000000000000000e+00  0.0000000000000000e+00  0.0000000000000000e+00  0.0000000000000000e+00  0.0000000000000000e+00  0.0000000000000000e+00  0.0000000000000000e+00  0.0000000000000000e+00  0.0000000000000000e+00  0.0000000000000000e+00  0.0000000000000000e+00  0.0000000000000000e+00  0.0000000000000000e+00  0.0000000000000000e+00  0.0000000000000000e+00  0.0000000000000000e+00  0.0000000000000000e+00  0.0000000000000000e+00  0.0000000000000000e+00  0.0000000000000000e+00  0.0000000000000000e+00  0.0000000000000000e+00  0.0000000000000000e+00  0.0000000000000000e+00  0.0000000000000000e+00  0.0000000000000000e+00  0.0000000000000000e+00  0.0000000000000000e+00  0.0000000000000000e+00  0.0000000000000000e+00  0.0000000000000000e+00  0.0000000000000000e+00  0.0000000000000000e+00  0.0000000000000000e+00  0.0000000000000000e+00  0.0000000000000000e+00  0.0000000000000000e+00  0.0000000000000000e+00  0.0000000000000000e+00  0.0000000000000000e+00  0.0000000000000000e+00  0.0000000000000000e+00  0.0000000000000000e+00  0.0000000000000000e+00  0.0000000000000000e+00  0.0000000000000000e+00  0.0000000000000000e+00  0.0000000000000000e+00  0.0000000000000000e+00  0.0000000000000000e+00  0.0000000000000000e+00  0.0000000000000000e+00  0.0000000000000000e+00  0.0000000000000000e+00  0.0000000000000000e+00  0.0000000000000000e+00  0.0000000000000000e+00  0.0000000000000000e+00  0.0000000000000000e+00  0.0000000000000000e+00  0.0000000000000000e+00  0.0000000000000000e+00  0.0000000000000000e+00  0.0000000000000000e+00  0.0000000000000000e+00  0.0000000000000000e+00  0.0000000000000000e+00  0.0000000000000000e+00  0.0000000000000000e+00  0.0000000000000000e+00  0.0000000000000000e+00  0.0000000000000000e+00  0.0000000000000000e+00  0.0000000000000000e+00  0.0000000000000000e+00  0.0000000000000000e+00  0.0000000000000000e+00  0.0000000000000000e+00  0.0000000000000000e+00  0.0000000000000000e+00  0.0000000000000000e+00  0.0000000000000000e+00  0.0000000000000000e+00  0.0000000000000000e+00  0.0000000000000000e+00  0.0000000000000000e+00  0.0000000000000000e+00  0.0000000000000000e+00  0.0000000000000000e+00  0.0000000000000000e+00  0.0000000000000000e+00  0.0000000000000000e+00  0.0000000000000000e+00  0.0000000000000000e+00  0.0000000000000000e+00  0.0000000000000000e+00  0.0000000000000000e+00  0.0000000000000000e+00  0.0000000000000000e+00  0.0000000000000000e+00  0.0000000000000000e+00  0.0000000000000000e+00  0.0000000000000000e+00  0.0000000000000000e+00  0.0000000000000000e+00  0.0000000000000000e+00  0.0000000000000000e+00  0.0000000000000000e+00  0.0000000000000000e+00  0.0000000000000000e+00  0.0000000000000000e+00  0.0000000000000000e+00  0.0000000000000000e+00  0.0000000000000000e+00  0.0000000000000000e+00  0.0000000000000000e+00  0.0000000000000000e+00  0.0000000000000000e+00  0.0000000000000000e+00  0.0000000000000000e+00  0.0000000000000000e+00  0.0000000000000000e+00  0.0000000000000000e+00  0.0000000000000000e+00  0.0000000000000000e+00  0.0000000000000000e+00  0.0000000000000000e+00  0.0000000000000000e+00  0.0000000000000000e+00  0.0000000000000000e+00  0.0000000000000000e+00  0.0000000000000000e+00  0.0000000000000000e+00  0.0000000000000000e+00  0.0000000000000000e+00  0.0000000000000000e+00  0.0000000000000000e+00  0.0000000000000000e+00  0.0000000000000000e+00  0.0000000000000000e+00  0.0000000000000000e+00  0.0000000000000000e+00  0.0000000000000000e+00  0.0000000000000000e+00  0.0000000000000000e+00  0.0000000000000000e+00  0.0000000000000000e+00  0.0000000000000000e+00  0.0000000000000000e+00  0.0000000000000000e+00  0.0000000000000000e+00  0.0000000000000000e+00  0.0000000000000000e+00  0.0000000000000000e+00  0.0000000000000000e+00  0.0000000000000000e+00  0.0000000000000000e+00  0.0000000000000000e+00  0.0000000000000000e+00  0.0000000000000000e+00  0.0000000000000000e+00  0.0000000000000000e+00  0.0000000000000000e+00  0.0000000000000000e+00  0.0000000000000000e+00  0.0000000000000000e+00  0.0000000000000000e+00  0.0000000000000000e+00  0.0000000000000000e+00  0.0000000000000000e+00  0.0000000000000000e+00  0.0000000000000000e+00  0.0000000000000000e+00  0.0000000000000000e+00  0.0000000000000000e+00  0.0000000000000000e+00  0.0000000000000000e+00  0.0000000000000000e+00  0.0000000000000000e+00  0.0000000000000000e+00  0.0000000000000000e+00  0.0000000000000000e+00  0.0000000000000000e+00  0.0000000000000000e+00  0.0000000000000000e+00  0.0000000000000000e+00  0.0000000000000000e+00  0.0000000000000000e+00  0.0000000000000000e+00  0.0000000000000000e+00  0.0000000000000000e+00  0.0000000000000000e+00  0.0000000000000000e+00  0.0000000000000000e+00  0.0000000000000000e+00  0.0000000000000000e+00  0.0000000000000000e+00  0.0000000000000000e+00  0.0000000000000000e+00  0.0000000000000000e+00  0.0000000000000000e+00  0.0000000000000000e+00  0.0000000000000000e+00  0.0000000000000000e+00  0.0000000000000000e+00  0.0000000000000000e+00  0.0000000000000000e+00  0.0000000000000000e+00  0.0000000000000000e+00  0.0000000000000000e+00  0.0000000000000000e+00  0.0000000000000000e+00  0.0000000000000000e+00  0.0000000000000000e+00  0.0000000000000000e+00  0.0000000000000000e+00  0.0000000000000000e+00  0.0000000000000000e+00  0.0000000000000000e+00  0.0000000000000000e+00  0.0000000000000000e+00  0.0000000000000000e+00  0.0000000000000000e+00  0.0000000000000000e+00  0.0000000000000000e+00  0.0000000000000000e+00  0.0000000000000000e+00  0.0000000000000000e+00  0.0000000000000000e+00  0.0000000000000000e+00  0.0000000000000000e+00  0.0000000000000000e+00  0.0000000000000000e+00  0.0000000000000000e+00  0.0000000000000000e+00  0.0000000000000000e+00  0.0000000000000000e+00  0.0000000000000000e+00  0.0000000000000000e+00  0.0000000000000000e+00  0.0000000000000000e+00  0.0000000000000000e+00  0.0000000000000000e+00  0.0000000000000000e+00  0.0000000000000000e+00  0.0000000000000000e+00  0.0000000000000000e+00  0.0000000000000000e+00  0.0000000000000000e+00  0.0000000000000000e+00  0.0000000000000000e+00  0.0000000000000000e+00  0.0000000000000000e+00  0.0000000000000000e+00  0.0000000000000000e+00  0.0000000000000000e+00  0.0000000000000000e+00  0.0000000000000000e+00  0.0000000000000000e+00  0.0000000000000000e+00  0.0000000000000000e+00  0.0000000000000000e+00  0.0000000000000000e+00  0.0000000000000000e+00  0.0000000000000000e+00  0.0000000000000000e+00  0.0000000000000000e+00  0.0000000000000000e+00  0.0000000000000000e+00  0.0000000000000000e+00  0.0000000000000000e+00  0.0000000000000000e+00  0.0000000000000000e+00  0.0000000000000000e+00  0.0000000000000000e+00  0.0000000000000000e+00  0.0000000000000000e+00  0.0000000000000000e+00  0.0000000000000000e+00  0.0000000000000000e+00  0.0000000000000000e+00  0.0000000000000000e+00  0.0000000000000000e+00  0.0000000000000000e+00  0.0000000000000000e+00  0.0000000000000000e+00  0.0000000000000000e+00  0.0000000000000000e+00  0.0000000000000000e+00  0.0000000000000000e+00  0.0000000000000000e+00  0.0000000000000000e+00  0.0000000000000000e+00  0.0000000000000000e+00  0.0000000000000000e+00  0.0000000000000000e+00  0.0000000000000000e+00  0.0000000000000000e+00  0.0000000000000000e+00  0.0000000000000000e+00  0.0000000000000000e+00  0.0000000000000000e+00  0.0000000000000000e+00  0.0000000000000000e+00  0.0000000000000000e+00  0.0000000000000000e+00  0.0000000000000000e+00  0.0000000000000000e+00  0.0000000000000000e+00  0.0000000000000000e+00  0.0000000000000000e+00  0.0000000000000000e+00  0.0000000000000000e+00  0.0000000000000000e+00  0.0000000000000000e+00  0.0000000000000000e+00  0.0000000000000000e+00  0.0000000000000000e+00  0.0000000000000000e+00  0.0000000000000000e+00  0.0000000000000000e+00  0.0000000000000000e+00  0.0000000000000000e+00  0.0000000000000000e+00  0.0000000000000000e+00  0.0000000000000000e+00  0.0000000000000000e+00  0.0000000000000000e+00  0.0000000000000000e+00  0.0000000000000000e+00  0.0000000000000000e+00  0.0000000000000000e+00  0.0000000000000000e+00  0.0000000000000000e+00  0.0000000000000000e+00  0.0000000000000000e+00  0.0000000000000000e+00  0.0000000000000000e+00  0.0000000000000000e+00  0.0000000000000000e+00  0.0000000000000000e+00  0.0000000000000000e+00  0.0000000000000000e+00  0.0000000000000000e+00  0.0000000000000000e+00  0.0000000000000000e+00  0.0000000000000000e+00  0.0000000000000000e+00  0.0000000000000000e+00  0.0000000000000000e+00  0.0000000000000000e+00  0.0000000000000000e+00  0.0000000000000000e+00  0.0000000000000000e+00  0.0000000000000000e+00  0.0000000000000000e+00  0.0000000000000000e+00  0.0000000000000000e+00  0.0000000000000000e+00  0.0000000000000000e+00  0.0000000000000000e+00  0.0000000000000000e+00  0.0000000000000000e+00  0.0000000000000000e+00  0.0000000000000000e+00  0.0000000000000000e+00  0.0000000000000000e+00  0.0000000000000000e+00  0.0000000000000000e+00  0.0000000000000000e+00  0.0000000000000000e+00  0.0000000000000000e+00  0.0000000000000000e+00  0.0000000000000000e+00  0.0000000000000000e+00  0.0000000000000000e+00  0.0000000000000000e+00  0.0000000000000000e+00  0.0000000000000000e+00  0.0000000000000000e+00  0.0000000000000000e+00  0.0000000000000000e+00  0.0000000000000000e+00  0.0000000000000000e+00  0.0000000000000000e+00  0.0000000000000000e+00  0.0000000000000000e+00  0.0000000000000000e+00  0.0000000000000000e+00  0.0000000000000000e+00  0.0000000000000000e+00  0.0000000000000000e+00  0.0000000000000000e+00  0.0000000000000000e+00  0.0000000000000000e+00  0.0000000000000000e+00  0.0000000000000000e+00  0.0000000000000000e+00  0.0000000000000000e+00  0.0000000000000000e+00  0.0000000000000000e+00  0.0000000000000000e+00  0.0000000000000000e+00  0.0000000000000000e+00  0.0000000000000000e+00  0.0000000000000000e+00  0.0000000000000000e+00  0.0000000000000000e+00  0.0000000000000000e+00  0.0000000000000000e+00  0.0000000000000000e+00  0.0000000000000000e+00  0.0000000000000000e+00  0.0000000000000000e+00  0.0000000000000000e+00  0.0000000000000000e+00  0.0000000000000000e+00  0.0000000000000000e+00  0.0000000000000000e+00  0.0000000000000000e+00  0.0000000000000000e+00  0.0000000000000000e+00  0.0000000000000000e+00  0.0000000000000000e+00  0.0000000000000000e+00  0.0000000000000000e+00  0