<?xml version="1.0"?>
<VTKFile type="UnstructuredGrid"  version="0.1"  >
<UnstructuredGrid>
<Piece  NumberOfPoints="11251" NumberOfCells="51292">
<Points>
<DataArray  type="Float64"  NumberOfComponents="3"  format="ascii">20.990917 6.476635 4.171974  22.23059824115 6.405654134200001 3.60312013315  21.37549154665 6.2320973882 3.3937273192  21.54060404665 5.9972983882 4.095322319199999  21.6809111945 6.884990746 3.67977181395  20.8258045 6.711434000000001 3.470379  20.660692 6.946233 2.768784  21.5157986945 7.119789746 2.97817681395  22.370905389 7.293346492 3.1875696279  22.0902910933 5.5179617764 4.0186706384  23.96537 16.460629 7.49121  23.01836259805 16.6526603445 6.8220015105  23.1460663474 17.303779328 7.03952754155  23.973754 16.4634775 6.7122885  23.982138 16.466326 5.933367  23.02674659805 16.6555088445 6.0430800105  23.1544503474 17.306627828 6.26060604155  22.3267626948 18.146929656 6.5878450831  22.19905894545 17.4958106725 6.37031905205  22.0713551961 16.844691689 6.152793021  30.06222 13.641476 2.803063  29.8062595575 13.2354987225 1.780465849  29.3524050575 13.3949982225 2.400102849  30.077651 13.1004405 2.5801495  30.5160745 13.4819765 2.183426  30.093082 12.559405 2.357236  29.3678360575 12.8539627225 2.177189349  30.5315055 12.940941 1.9605125  30.969929 13.322477 1.563789  28.642590115 13.148520445 1.997142698  20.898994 8.651683999999999 6.495248  21.5585985 8.925049999999999 5.7303955  21.860771 8.753052 6.1334355  21.4475875 9.367528999999999 6.0046615  21.996181 10.083374 5.514075  22.107192 9.640895 5.239809  22.4093645 9.468896999999998 5.642849  22.822548 8.854419999999999 5.771623  22.5203755 9.026418 5.368583  22.218203 9.198416 4.965543  20.033081 6.40117 0.497437  20.550355 5.75646 0.5036005  19.7690135 5.9673335 0.4981965  20.019574 5.602929 1.1760025  20.006067 4.804688 1.854568  20.536848 4.958219 1.182166  19.7555065 5.1690925 1.176762  19.504946 5.533497 0.498956  20.2862875 5.3226235 0.50436  21.067629 5.11175 0.509764  19.461794 2.240963 4.99554  19.317484 1.870279 3.952169  19.2708445 1.366854 4.338918  19.7898485 1.887917 4.3247665  18.9894295 2.223325 4.622942500000001  18.517065 2.205687 4.250345  18.79848 1.349216 3.9663205  20.117903 1.534871 3.653993  19.598899 1.013808 3.6681445  19.079895 0.492745 3.682296  24.266714 7.522339 5.135428  24.7419156906 7.2470534164 4.03537694005  25.21242832765 6.87395483865 4.53565891415  24.2253446906 7.018805416399999 4.33743394005  24.783285 7.750586999999999 4.833371  24.69585732765 6.64570683865 4.837715914149999  25.299856 7.978835 4.531314  25.1250006553 5.7690746773 4.5400038283  24.65448801825 6.14217325505 4.0397218542  24.1839753812 6.5152718328 3.5394398801  21.998087 11.55681 6.911819  21.1801392375 12.14459196385 7.14028559765  20.8564855 11.2231435 6.6849425  20.9865655 11.906742 6.2417935  19.975044 12.256674 5.571768  20.0385377375 11.81092546385 6.91340909765  20.1686177375 12.49452396385 6.47026009765  19.844964 11.5730755 6.014917  19.714884 10.889477 6.458066  20.362191475 12.7323739277 7.3687521953  24.060396 0.500559 5.206952  24.02685621015 1.28171307145 4.427536198749999  24.4373287748 1.1566286974 4.63967542705  23.86308171015 1.28582057145 5.00705819875  24.2241705 0.4964515 4.62743  24.387945 0.492344 4.047908  24.6011032748 1.1525211974 4.06015342705  23.6657674203 2.0710821429 4.8071643975  24.24001448495 1.94189026885 4.4397816258  24.8142615496 1.8126983948 4.0723988541  19.99828 10.37074 9.518350999999999  20.79536909175 10.1451912455 8.812578587849998  19.853819 10.120469 8.934191999999999  20.1356805 9.761410999999999 9.3828295  20.273081 9.152082 9.247308  20.93276959175 9.535862245499999 8.677057087849999  19.9912195 9.511140000000001 8.7986705  19.709358 9.870198 8.350033  20.65090809175 9.8949202455 8.228419587849999  21.5924581835 9.919642490999999 8.106806175699999  24.138561 14.586592 12.228344  24.8119588889 13.9708244765 11.62662276275  24.680415 14.6319165 12.071376  24.7805785 14.292631 12.5131355  25.422596 13.99867 12.797927  25.4539763889 13.6768634765 11.91141426275  25.3224325 14.3379555 12.3561675  25.222269 14.677241 11.914408  25.3538128889 14.0161489765 11.46965476275  25.4853567778 13.355056953 11.0249015255  19.9147388241 14.7395517664 7.4712882154  19.83239547355 13.9419914216 7.1148541565  19.3766171239 14.25521223065 7.587592354350001  20.13846514955 13.73596284705 7.42002020535  20.37051717375 14.42633095735 6.99855001755  19.60034344935 13.2516233113 7.536324344300001  20.5942434992 13.422742038 6.9472820075  20.8262955234 14.1131101483 6.5258118197  18.8384954237 13.7708726949 7.7038964933  20.180296 12.240932 12.249715  21.0919782407 12.5002263213 11.6041578422  20.6987222407 12.8299363213 11.8638248422  20.25161 12.1823095 11.681267  20.573552 11.911222 11.990048  20.322924 12.123687 11.112819  20.7700362407 12.7713138213 11.2953768422  20.644866 11.8525995 11.4216  20.966808 11.581512 11.730381  21.2171484814 13.4189406426 11.4779346844  20.989985 7.86077 3.822083  21.6894006945 7.896990746 2.62942231395  21.6804451945 7.577058246 3.50482631395  20.8253385 7.4035015 3.2954335  20.9989405 8.180702500000001 2.946679  21.007896 8.500635000000001 2.071275  20.834294 7.723434000000001 2.4200295  29.011021 4.363795 6.675045  28.43777829405 3.6389819986 5.973064851  28.54138429405 3.3847289986 6.527431351000001  28.41415779405 3.9844609986 6.610111351  29.1382475 3.764063 6.592365  29.0346415 4.018316 6.0379985  29.265474 3.164331 6.509685  29.161868 3.418584 5.955318500000001  29.058262 3.672837 5.400952  27.8172945881 3.6051269972 6.545177702  26.426413 16.331333 10.969459  26.6234565 15.2382625 10.4084805  26.49812 15.17811 11.0555495  26.856163 15.8073355 11.053836  26.06837 15.7021075 10.9711725  26.1937065 15.76226 10.3241035  25.710327 15.072882 10.972886  25.8356635 15.1330345 10.325817  27.285913 15.283338 11.138213  25.961 15.193187 9.678748000000001  23.2177883776 5.4852783759 6.4964259813  23.4791297588 4.3016769033 6.910530618899999  23.5278623905 4.5206123706 7.6713892051  23.8304644279 4.9862314112 6.9566510408  22.9151863402 5.0196593353 7.2111641456  22.8664537085 4.800723868 6.4503055594  22.6125843028 4.5540402947 7.9259023099  22.5638516711 4.3351048274 7.1650437237  24.4431404782 4.4871844465 7.4168761003  22.5151190394 4.1161693601 6.4041851375  27.272652 6.546624 9.865202  27.4270655 6.5971795 9.10267  27.48606149585 6.06863802985 9.11688319165  27.766387 6.5750295 9.506675000000001  26.9333305 6.568774 9.461197  26.594009 6.590924 9.057192000000001  27.14673999585 6.09078802985 8.712878191650001  28.260122 6.603435 9.148148000000001  27.97979649585 6.09704352985 8.758356191650002  27.6994709917 5.5906520597 8.368564383300001  18.8305094201 14.7778534245 7.795159663350001  19.3686311203 15.26219296025 7.6788555244  18.894548768 14.7998975189 7.494778347900001  17.8743587119 14.8602432714 7.5182684804  18.3484410642 15.32253871275 7.7023456569  18.3564270678 14.31555798315 7.61108248685  18.8225234165 15.7848341541 7.8864228334  21.389673 17.225798 4.995039  20.9490101891 16.2686134582 5.370442795900001  21.1992055 16.6670335 4.763224  21.691079 16.387669 5.211664499999999  21.992485 15.54954 5.42829  20.7585426891 15.7098489582 5.1386277959  21.2504161891 15.4304844582 5.5870682959  21.5006115 15.8289045 4.9798495  21.008738 16.108269 4.531409  20.5083473782 15.3114289164 5.7458465918  21.025713 12.824786 0.496738  21.7405015055 11.97696382995 1.65791450065  21.8839875055 12.47796132995 1.64888950065  21.0475455055 12.62282382995 1.65157500065  21.718669 12.178926 0.5030775000000001  21.862155 12.6799235 0.4940525  22.698597 12.535061 0.491367  22.555111 12.0340635 0.5003919999999999  22.411625 11.533066 0.509417  21.069378011 12.4208616599 2.8064120013  24.1200954013 4.0390135562 4.9427142209  24.415772314 5.002414814650001 6.0297016131  24.86692582585 4.2792824048 5.2528457329  24.28161793975 4.26309900135 6.179795160599999  23.66894188945 4.762145966049999 5.7195701011  25.0284483643 4.50336784995 6.489926672599999  25.6137562504 4.5195512534 5.5629772449  19.942503 4.416635 3.142215  20.0343095 3.553749 2.5854755  20.732938 3.6806365 2.79754  20.291129 3.345787 3.143071  20.639755 2.274939 3.143927  20.8247445 2.8177505 2.2408005  20.3829355 2.482901 2.5863315  21.081564 2.6097885 2.798396  21.523373 2.944638 2.452865  20.126116 2.690863 2.028736  23.732224 0.865067 2.560352  24.164912 0.495906 1.590512  23.993425 0.4978655 2.0911845  23.5186425 0.6786765 2.141947  24.2070065 0.684256 2.5095895  24.3784935 0.6822965000000001 2.008917  24.681789 0.503445 2.458827  24.853276 0.5014855 1.9581545  23.305061 0.492286 1.723542  25.024763 0.499526 1.457482  24.4020592526 12.2162508855 11.3966471561  25.40457116595 11.34083529255 12.1151000397  25.21657727045 11.74860498115 11.5319920069  24.8782874368 11.26502042335 11.49188488745  24.92834298175 12.2920657547 12.01986230835  24.6902935413 11.67279011195 10.90877685465  24.97852783 11.1293293384 10.4209065532  25.1665217255 10.7215596498 11.004014586  25.4546267109 12.3678806239 12.6430774606  25.354515621 10.3137899612 11.5871226188  26.9160609126 12.6794959859 11.3494175649  27.92354187195 11.7013051924 11.42488292345  27.73444389725 11.34410665745 10.4520291964  27.14406219765 11.6847195431 11.3063824999  27.5064426122 12.33888310025 10.4950642614  27.6955405869 12.6960816352 11.46791798845  28.0968243118 11.9982702146 9.6407109579  28.2859222865 12.35546874955 10.61356468495  27.3720634827 10.6899431003 11.2633474349  28.4750202612 12.7126672845 11.586418412  25.336254 6.296642 8.997460999999999  26.33056323335 6.079500077600001 7.9309156316  25.70168573335 5.9323590776 7.9010501316  25.913925 5.7997755 9.001623500000001  25.9651315 6.443783 9.027326500000001  26.5428025 5.9469165 9.031489000000001  26.491596 5.302909 9.005786000000001  26.27935673335 5.4354925776 7.9052126316  26.0671174667 5.5680761552 6.8046392632  21.32798 1.782535 4.667095  21.40325107625 1.34197818035 5.8627713718  21.53833807625 
[...]
<PointData  Scalars="p"> 
<DataArray  type="Float64"  Name="p"  format="ascii">0.0000000000000000e+00  0.0000000000000000e+00  0.0000000000000000e+00  0.0000000000000000e+00  0.0000000000000000e+00  0.0000000000000000e+00  0.0000000000000000e+00  0.0000000000000000e+00  0.0000000000000000e+00  0.0000000000000000e+00  0.0000000000000000e+00  0.0000000000000000e+00  0.0000000000000000e+00  0.0000000000000000e+00  0.0000000000000000e+00  0.0000000000000000e+00  0.0000000000000000e+00  0.0000000000000000e+00  0.0000000000000000e+00  0.0000000000000000e+00  0.0000000000000000e+00  0.0000000000000000e+00  0.0000000000000000e+00  0.0000000000000000e+00  0.0000000000000000e+00  0.0000000000000000e+00  0.0000000000000000e+00  0.0000000000000000e+00  0.0000000000000000e+00  0.0000000000000000e+00  0.0000000000000000e+00  0.0000000000000000e+00  0.0000000000000000e+00  0.0000000000000000e+00  0.0000000000000000e+00  0.0000000000000000e+00  0.0000000000000000e+00  0.0000000000000000e+00  0.0000000000000000e+00  0.0000000000000000e+00  0.0000000000000000e+00  0.0000000000000000e+00  0.0000000000000000e+00  0.0000000000000000e+00  0.0000000000000000e+00  0.0000000000000000e+00  0.0000000000000000e+00  0.0000000000000000e+00  0.0000000000000000e+00  0.0000000000000000e+00  0.0000000000000000e+00  0.0000000000000000e+00  0.0000000000000000e+00  0.0000000000000000e+00  0.0000000000000000e+00  0.0000000000000000e+00  0.0000000000000000e+00  0.0000000000000000e+00  0.0000000000000000e+00  0.0000000000000000e+00  0.0000000000000000e+00  0.0000000000000000e+00  0.0000000000000000e+00  0.0000000000000000e+00  0.0000000000000000e+00  0.0000000000000000e+00  0.0000000000000000e+00  0.0000000000000000e+00  0.0000000000000000e+00  0.0000000000000000e+00  0.0000000000000000e+00  0.0000000000000000e+00  0.0000000000000000e+00  0.0000000000000000e+00  0.0000000000000000e+00  0.0000000000000000e+00  0.0000000000000000e+00  0.0000000000000000e+00  0.0000000000000000e+00  0.0000000000000000e+00  0.0000000000000000e+00  0.0000000000000000e+00  0.0000000000000000e+00  0.0000000000000000e+00  0.0000000000000000e+00  0.0000000000000000e+00  0.0000000000000000e+00  0.0000000000000000e+00  0.0000000000000000e+00  0.0000000000000000e+00  0.0000000000000000e+00  0.0000000000000000e+00  0.0000000000000000e+00  0.0000000000000000e+00  0.0000000000000000e+00  0.0000000000000000e+00  0.0000000000000000e+00  0.0000000000000000e+00  0.0000000000000000e+00  0.0000000000000000e+00  0.0000000000000000e+00  0.0000000000000000e+00  0.0000000000000000e+00  0.0000000000000000e+00  0.0000000000000000e+00  0.0000000000000000e+00  0.0000000000000000e+00  0.0000000000000000e+00  0.0000000000000000e+00  0.0000000000000000e+00  0.0000000000000000e+00  0.0000000000000000e+00  0.0000000000000000e+00  0.0000000000000000e+00  0.0000000000000000e+00  0.0000000000000000e+00  0.0000000000000000e+00  0.0000000000000000e+00  0.0000000000000000e+00  0.0000000000000000e+00  0.0000000000000000e+00  0.0000000000000000e+00  0.0000000000000000e+00  0.0000000000000000e+00  0.0000000000000000e+00  0.0000000000000000e+00  0.0000000000000000e+00  0.0000000000000000e+00  0.0000000000000000e+00  0.0000000000000000e+00  0.0000000000000000e+00  0.0000000000000000e+00  0.0000000000000000e+00  0.0000000000000000e+00  0.0000000000000000e+00  0.0000000000000000e+00  0.0000000000000000e+00  0.0000000000000000e+00  0.0000000000000000e+00  0.0000000000000000e+00  0.0000000000000000e+00  0.0000000000000000e+00  0.0000000000000000e+00  0.0000000000000000e+00  0.0000000000000000e+00  0.0000000000000000e+00  0.0000000000000000e+00  0.0000000000000000e+00  0.0000000000000000e+00  0.0000000000000000e+00  0.0000000000000000e+00  0.0000000000000000e+00  0.0000000000000000e+00  0.0000000000000000e+00  0.0000000000000000e+00  0.0000000000000000e+00  0.0000000000000000e+00  0.0000000000000000e+00  0.0000000000000000e+00  0.0000000000000000e+00  0.0000000000000000e+00  0.0000000000000000e+00  0.0000000000000000e+00  0.0000000000000000e+00  0.0000000000000000e+00  0.0000000000000000e+00  0.0000000000000000e+00  0.0000000000000000e+00  0.0000000000000000e+00  0.0000000000000000e+00  0.0000000000000000e+00  0.0000000000000000e+00  0.0000000000000000e+00  0.0000000000000000e+00  0.0000000000000000e+00  0.0000000000000000e+00  0.0000000000000000e+00  0.0000000000000000e+00  0.0000000000000000e+00  0.0000000000000000e+00  0.0000000000000000e+00  0.0000000000000000e+00  0.0000000000000000e+00  0.0000000000000000e+00  0.0000000000000000e+00  0.0000000000000000e+00  0.0000000000000000e+00  0.0000000000000000e+00  0.0000000000000000e+00  0.0000000000000000e+00  0.0000000000000000e+00  0.0000000000000000e+00  0.0000000000000000e+00  0.0000000000000000e+00  0.0000000000000000e+00  0.0000000000000000e+00  0.0000000000000000e+00  0.0000000000000000e+00  0.0000000000000000e+00  0.0000000000000000e+00  0.0000000000000000e+00  0.0000000000000000e+00  0.0000000000000000e+00  0.0000000000000000e+00  0.0000000000000000e+00  0.0000000000000000e+00  0.0000000000000000e+00  0.0000000000000000e+00  0.0000000000000000e+00  0.0000000000000000e+00  0.0000000000000000e+00  0.0000000000000000e+00  0.0000000000000000e+00  0.0000000000000000e+00  0.0000000000000000e+00  0.0000000000000000e+00  0.0000000000000000e+00  0.0000000000000000e+00  0.0000000000000000e+00  0.0000000000000000e+00  0.0000000000000000e+00  0.0000000000000000e+00  0.0000000000000000e+00  0.0000000000000000e+00  0.0000000000000000e+00  0.0000000000000000e+00  0.0000000000000000e+00  0.0000000000000000e+00  0.0000000000000000e+00  0.0000000000000000e+00  0.0000000000000000e+00  0.0000000000000000e+00  0.0000000000000000e+00  0.0000000000000000e+00  0.0000000000000000e+00  0.0000000000000000e+00  0.0000000000000000e+00  0.0000000000000000e+00  0.0000000000000000e+00  0.0000000000000000e+00  0.0000000000000000e+00  0.0000000000000000e+00  0.0000000000000000e+00  0.0000000000000000e+00  0.0000000000000000e+00  0.0000000000000000e+00  0.0000000000000000e+00  0.0000000000000000e+00  0.0000000000000000e+00  0.0000000000000000e+00  0.0000000000000000e+00  0.0000000000000000e+00  0.0000000000000000e+00  0.0000000000000000e+00  0.0000000000000000e+00  0.0000000000000000e+00  0.0000000000000000e+00  0.0000000000000000e+00  0.0000000000000000e+00  0.0000000000000000e+00  0.0000000000000000e+00  0.0000000000000000e+00  0.0000000000000000e+00  0.0000000000000000e+00  0.0000000000000000e+00  0.0000000000000000e+00  0.0000000000000000e+00  0.0000000000000000e+00  0.0000000000000000e+00  0.0000000000000000e+00  0.0000000000000000e+00  0.0000000000000000e+00  0.0000000000000000e+00  0.0000000000000000e+00  0.0000000000000000e+00  0.0000000000000000e+00  0.0000000000000000e+00  0.0000000000000000e+00  0.0000000000000000e+00  0.0000000000000000e+00  0.0000000000000000e+00  0.0000000000000000e+00  0.0000000000000000e+00  0.0000000000000000e+00  0.0000000000000000e+00  0.0000000000000000e+00  0.0000000000000000e+00  0.0000000000000000e+00  0.0000000000000000e+00  0.0000000000000000e+00  0.0000000000000000e+00  0.0000000000000000e+00  0.0000000000000000e+00  0.0000000000000000e+00  0.0000000000000000e+00  0.0000000000000000e+00  0.0000000000000000e+00  0.0000000000000000e+00  0.0000000000000000e+00  0.0000000000000000e+00  0.0000000000000000e+00  0.0000000000000000e+00  0.0000000000000000e+00  0.0000000000000000e+00  0.0000000000000000e+00  0.0000000000000000e+00  0.0000000000000000e+00  0.0000000000000000e+00  0.0000000000000000e+00  0.0000000000000000e+00  0.0000000000000000e+00  0.0000000000000000e+00  0.0000000000000000e+00  0.0000000000000000e+00  0.0000000000000000e+00  0.0000000000000000e+00  0.0000000000000000e+00  0.0000000000000000e+00  0.0000000000000000e+00  0.0000000000000000e+00  0.0000000000000000e+00  0.0000000000000000e+00  0.0000000000000000e+00  0.0000000000000000e+00  0.0000000000000000e+00  0.0000000000000000e+00  0.0000000000000000e+00  0.0000000000000000e+00  0.0000000000000000e+00  0.0000000000000000e+00  0.0000000000000000e+00  0.0000000000000000e+00  0.0000000000000000e+00  0.0000000000000000e+00  0.0000000000000000e+00  0.0000000000000000e+00  0.0000000000000000e+00  0.0000000000000000e+00  0.0000000000000000e+00  0.0000000000000000e+00  0.0000000000000000e+00  0.0000000000000000e+00  0.0000000000000000e+00  0.0000000000000000e+00  0.0000000000000000e+00  0.0000000000000000e+00  0.0000000000000000e+00  0.0000000000000000e+00  0.0000000000000000e+00  0.0000000000000000e+00  0.0000000000000000e+00  0.0000000000000000e+00  0.0000000000000000e+00  0.0000000000000000e+00  0.0000000000000000e+00  0.0000000000000000e+00  0.0000000000000000e+00  0.0000000000000000e+00  0.0000000000000000e+00  0.0000000000000000e+00  0.0000000000000000e+00  0.0000000000000000e+00  0.0000000000000000e+00  0.0000000000000000e+00  0.0000000000000000e+00  0.0000000000000000e+00  0.0000000000000000e+00  0.0000000000000000e+00  0.0000000000000000e+00  0.0000000000000000e+00  0.0000000000000000e+00  0.0000000000000000e+00  0.0000000000000000e+00  0.0000000000000000e+00  0.0000000000000000e+00  0.0000000000000000e+00  0.0000000000000000e+00  0.0000000000000000e+00  0.0000000000000000e+00  0.0000000000000000e+00  0.0000000000000000e+00  0.0000000000000000e+00  0.0000000000000000e+00  0.0000000000000000e+00  0.0000000000000000e+00  0.0000000000000000e+00  0.0000000000000000e+00  0.0000000000000000e+00  0.0000000000000000e+00  0.0000000000000000e+00  0.0000000000000000e+00  0.0000000000000000e+00  0.0000000000000000e+00  0.0000000000000000e+00  0.0000000000000000e+00  0.0000000000000000e+00  0.0000000000000000e+00  0.0000000000000000e+00  0.0000000000000000e+00  0.0000000000000000e+00  0.0000000000000000e+00  0.0000000000000000e+00  0.0000000000000000e+00  0.0000000000000000e+00  0.0000000000000000e+00  0.0000000000000000e+00  0.0000000000000000e+00  0.0000000000000000e+00  0.0000000000000000e+00  0.0000000000000000e+00  0.0000000000000000e+00  0.0000000000000000e+00  0.0000000000000000e+00  0.0000000000000000e+00  0.0000000000000000e+00  0.0000000000000000e+00  0.0000000000000000e+00  0.0000000000000000e+00  0.0000000000000000e+00  0.0000000000000000e+00  0.0000000000000000e+00  0.0000000000000000e+00  0.0000000000000000e+00  0.0000000000000000e+00  0.0000000000000000e+00  0.0000000000000000e+00  0.0000000000000000e+00  0.0000000000000000e+00  0.0000000000000000e+00  0.0000000000000000e+00  0.0000000000000000e+00  0.0000000000000000e+00  0.0000000000000000e+00  0.0000000000000000e+00  0.0000000000000000e+00  0.0000000000000000e+00  0.0000000000000000e+00  0.0000000000000000e+00  0.0000000000000000e+00  0.0000000000000000e+00  0.0000000000000000e+00  0.0000000000000000e+00  0.0000000000000000e+00  0.0000000000000000e+00  0.0000000000000000e+00  0.0000000000000000e+00  0.0000000000000000e+00  0.0000000000000000e+00  0.0000000000000000e+00  0.0000000000000000e+00  0.0000000000000000e+00  0.0000000000000000e+00  0.0000000000000000e+00  0.0000000000000000e+00  0.0000000000000000e+00  0.0000000000000000e+00  0.0000000000000000e+00  0.0000000000000000e+00  0.0000000000000000e+00  0.0000000000000000e+00  0.0000000000000000e+00  0.0000000000000000e+00  0.0000000000000000e+00  0.0000000000000000e+00  0.0000000000000000e+00  0.0000000000000000e+00  0.0000000000000000e+00  0.0000000000000000e+00  0.0000000000000000e+00  0.0000000000000000e+00  0.0000000000000000e+00  0.0000000000000000e+00  0.0000000000000000e+00  0.0000000000000000e+00  0.0000000000000000e+00  0.0000000000000000e+00  0.0000000000000000e+00  0.0000000000000000e+00  0.0000000000000000e+00  0.0000000000000000e+00  0.0000000000000000e+00  0.0000000000000000e+00  0.0000000000000000e+00  0.0000000000000000e+00  0.0000000000000000e+00  0.0000000000000000e+00  0.0000000000000000e+00  0.0000000000000000e+00  0.0000000000000000e+00  0.0000000000000000e+00  0.0000000000000000e+00  0.0000000000000000e+00  0.0000000000000000e+00  0.0000000000000000e+00  0.0000000000000000e+00  0.0000000000000000e+00  0.0000000000000000e+00  0.0000000000000000e+00  0.0000000000000000e+00  0.0000000000000000e+00  0.0000000000000000e+00  0.0000000000000000e+00  0.0000000000000000e+00  0.0000000000000000e+00  0.0000000000000000e+00  0.0000000000000000e+00  0.0000000000000000e+00  0.0000000000000000e+00  0.0000000000000000e+00  0.0000000000000000e+00  0.0000000000000000e+00  0.0000000000000000e+00  0.0000000000000000e+00  0.0000000000000000e+00  0.0000000000000000e+00  0.0000000000000000e+00  0.0000000000000000e+00  0.0000000000000000e+00  0.0000000000000000e+00  0.0000000000000000e+00  0.0000000000000000e+00  0.0000000000000000e+00  0.0000000000000000e+00  0.0000000000000000e+00  0.0000000000000000e+00  0.0000000000000000e+00  0.0000000000000000e+00  0.0000000000000000e+00  0.0000000000000000e+00  0.0000000000000000e+00  0.0000000000000000e+00  0.0000000000000000e+00  0.0000000000000000e+00  0.0000000000000000e+00  0.0000000000000000e+00  0.0000000000000000e+00  0.0000000000000000e+00  0.0000000000000000e+00  0.0000000000000000e+00  0.0000000000000000e+00  0.0000000000000000e+00  0.0000000000000000e+00  0.0000000000000000e+00  0.0000000000000000e+00  0.0000000000000000e+00  0.0000000000000000e+00  0.0000000000000000e+00  0.0000000000000000e+00  0.0000000000000000e+00  0.0000000000000000e+00  0.0000000000000000e+00  0.0000000000000000e+00  0.0000000000000000e+00  0.0000000000000000e+00  0.0000000000000000e+00  0.0000000000000000e+00  0.0000000000000000e+00  0.0000000000000000e+00  0.0000000000000000e+00  0.0000000000000000e+00  0.0000000000000000e+00  0.0000000000000000e+00  0.0000000000000000e+00  0.0000000000000000e+00  0.0000000000000000e+00  0.0000000000000000e+00  0.0000000000000000e+00  0.0000000000000000e+00  0.0000000000000000e+00  0.0000000000000000e+00  0.0000000000000000e+00  0.0000000000000000e+00  0.0000000000000000e+00  0.0000000000000000e+00  0.0000000000000000e+00  0.0000000000000000e+00  0.0000000000000000e+00  0.0000000000000000e+00  0.0000000000000000e+00  0.0000000000000000e+00  0.0000000000000000e+00  0.0000000000000000e+00  0.0000000000000000e+00  0.0000000000000000e+00  0.0000000000000000e+00  0.0000000000000000e+00  0.0000000000000000e+00  0.0000000000000000e+00  0.0000000000000000e+00  0.0000000000000000e+00  0.0000000000000000e+00  0.0000000000000000e+00  0.0000000000000000e+00  0.0000000000000000e+00  0.0000000000000000e+00  0.0000000000000000e+00  0.0000000000000000e+00  0.0000000000000000e+00  0.0000000000000000e+00  0.0000000000000000e+00  0.0000000000000000e+00  0.0000000000000000e+00  0.0000000000000000e+00  0.0000000000000000e+00  0.0000000000000000e+00  0.0000000000000000e+00  0.0000000000000000e+00  0.0000000000000000e+00  0.0000000000000000e+00  0.0000000000000000e+00  0.0000000000000000e+00  0.0000000000000000e+00  0.0000000000000000e+00  0.0000000000000000e+00  0.0000000000000000e+00  0.0000000000000000e+00  0.0000000000000000e+00  0.0000000000000000e+00  0.0000000000000000e+00  0.0000000000000000e+00  0.0000000000000000e+00  0.0000000000000000e+00  0.0000000000000000e+00  0.0000000000000000e+00  0.0000000000000000e+00  0.0000000000000000e+00  0.0000000000000000e+00  0.0000000000000000e+00  0.0000000000000000e+00  0.0000000000000000e+00  0.0000000000000000e+00  0.0000000000000000e+00  0.0000000000000000e+00  0.0000000000000000e+00  0.0000000000000000e+00  0.0000000000000000e+00  0.0000000000000000e+00  0.0000000000000000e+00  0.0000000000000000e+00  0.0000000000000000e+00  0.0000000000000000e+00  0.0000000000000000e+00  0.0000000000000000e+00  0.0000000000000000e+00  0.0000000000000000e+00  0.0000000000000000e+00  0.0000000000000000e+00  0.0000000000000000e+00  0.0000000000000000e+00  0.0000000000000000e+00  0.0000000000000000e+00  0.0000000000000000e+00  0.0000000000000000e+00  0.0000000000000000e+00  0.0000000000000000e+00  0.0000000000000000e+00  0.0000000000000000e+00  0.0000000000000000e+00  0.0000000000000000e+00  0.0000000000000000e+00  0.0000000000000000e+00  0.0000000000000000e+00  0.0000000000000000e+00  0.0000000000000000e+00  0.0000000000000000e+00  0.0000000000000000e+00  0.0000000000000000e+00  0.0000000000000000e+00  0.0000000000000000e+00  0.0000000000000000e+00  0.0000000000000000e+00  0.0000000000000000e+00  0.0000000000000000e+00  0.0000000000000000e+00  0.0000000000000000e+00  0.0000000000000000e+00  0.0000000000000000e+00  0.0000000000000000e+00  0.0000000000000000e+00  0.0000000000000000e+00  0.0000000000000000e+00  0.0000000000000000e+00  0.0000000000000000e+00  0.0000000000000000e+00  0.0000000000000000e+00  0.0000000000000000e+00  0.0000000000000000e+00  0.0000000000000000e+00  0.0000000000000000e+00  0.0000000000000000e+00  0.0000000000000000e+00  0.0000000000000000e+00  0.0000000000000000e+00  0.0000000000000000e+00  0.0000000000000000e+00  0.0000000000000000e+00  0.0000000000000000e+00  0.0000000000000000e+00  0.0000000000000000e+00  0.0000000000000000e+00  0.0000000000000000e+00  0.0000000000000000e+00  0.0000000000000000e+00  0.0000000000000000e+00  0.0000000000000000e+00  0.0000000000000000e+00  0.0000000000000000e+00  0.0000000000000000e+00  0.0000000000000000e+00  0.0000000000000000e+00  0.0000000000000000e+00  0.0000000000000000e+00  0.0000000000000000e+00  0.0000000000000000e+00  0.0000000000000000e+00  0.0000000000000000e+00  0.0000000000000000e+00  0.0000000000000000e+00  0.0000000000000000e+00  0.0000000000000000e+00  0.0000000000000000e+00  0.0000000000000000e+00  0.0000000000000000e+00  0.0000000000000000e+00  0.0000000000000000e+00  0.0000000000000000e+00  0.0000000000000000e+00  0.0000000000000000e+00  0.0000000000000000e+00  0.0000000000000000e+00  0.0000000000000000e+00  0.0000000000000000e+00  0.0000000000000000e+00  0.0000000000000000e+00  0.0000000000000000e+00  0.0000000000000000e+00  0.0000000000000000e+00  0.0000000000000000e+00  0.0000000000000000e+00  0.0000000000000000e+00  0.0000000000000000e+00  0.0000000000000000e+00  0.0000000000000000e+00  0.0000000000000000e+00  0.0000000000000000e+00  0.0000000000000000e+00  0.0000000000000000e+00  0.0000000000000000e+00  0.0000000000000000e+00  0.0000000000000000e+00  0.0000000000000000e+00  0.0000000000000000e+00  0.0000000000000000e+00  0.0000000000000000e+00  0.0000000000000000e+00  0.0000000000000000e+00  0.0000000000000000e+00  0.0000000000000000e+00  0.0000000000000000e+00  0.0000000000000000e+00  0.0000000000000000e+00  0.0000000000000000e+00  0.0000000000000000e+00  0.0000000000000000e+00  0.0000000000000000e+00  0.0000000000000000e+00  0.0000000000000000e+00  0.0000000000000000e+00  0.0000000000000000e+00  0.0000000000000000e+00  0.0000000000000000e+00  0.0000000000000000e+00  0.0000000000000000e+00  0.0000000000000000e+00  0.0000000000000000e+00  0.0000000000000000e+00  0.0000000000000000e+00  0.0000000000000000e+00  0.0000000000000000e+00  0.0000000000000000e+00  0.0000000000000000e+00  0.0000000000000000e+00  0.0000000000000000e+00  0.0000000000000000e+00  0.0000000000000000e+00  0.0000000000000000e+00  0.0000000000000000e+00  0.0000000000000000e+00  0.0000000000000000e+00  0.0000000000000000e+00  0.0000000000000000e+00  0.0000000000000000e+00  0.0000000000000000e+00  0.0000000000000000e+00  0.0000000000000000e+00  0.0000000000000000e+00  0.0000000000000000e+00  0.0000000000000000e+00  0.0000000000000000e+00  0.0000000000000000e+00  0.0000000000000000e+00  0.0000000000000000e+00  0.0000000000000000e+00  0.0000000000000000e+00  0.0000000000000000e+00  0.0000000000000000e+00  0.0000000000000000e+00  0.0000000000000000e+00  0.0000000000000000e+00  0.0000000000000000e+00  0.0000000000000000e+00  0.0000000000000000e+00  0.0000000000000000e+00  0.0000000000000000e+00  0.0000000000000000e+00  0.0000000000000000e+00  0.0000000000000000e+00  0.0000000000000000e+00  0.0000000000000000e+00  0.0000000000000000e+00  0.0000000000000000e+00  0.0000000000000000e+00  0.0000000000000000e+00  0.0000000000000000e+00  0.0000000000000000e+00  0.0000000000000000e+00  0.0000000000000000e+00  0.0000000000000000e+00  0.0000000000000000e+00  0.0000000000000000e+00  0