<?xml version="1.0"?>
<VTKFile type="UnstructuredGrid"  version="0.1"  >
<UnstructuredGrid>
<Piece  NumberOfPoints="11339" NumberOfCells="52154">
<Points>
<DataArray  type="Float64"  NumberOfComponents="3"  format="ascii">29.0850215109 5.540474933 32.587995062  29.74169591735 5.49989695465 31.01943520505  29.75543700625 6.02807575115 31.45274614565  29.82711778855 5.1515242399 31.99987663145  28.9995996397 5.88884764775 31.6075536356  29.84085887745 5.679703036399999 32.43318757205  30.596696244 5.8189311398 32.2783800821  30.5829551551 5.290752343299999 31.8450691415  28.9141777685 6.2372203625 30.6271122092  30.5692140662 4.7625735468 31.4117582009  26.903307 9.009 25.024334  27.35979190465 8.088258315099999 24.3973096807  26.43493806215 7.95307602275 24.78312142995  27.39003690465 8.1648138151 24.9697001807  26.873062 8.932444499999999 24.4519435  26.842817 8.855888999999999 23.879553  26.40469306215 7.87652052275 24.21073092995  27.8767668093 7.3206276302 24.9150663614  26.9216679668 7.108889837850001 24.72848761065  25.9665691243 6.8971520455 24.5419088599  29.527899 4.997757 27.164846  28.4749593969 4.81564084815 27.17277199825  28.6698133969 4.84814884815 27.78389099825  28.7963078969 5.15522684815 27.38973549825  29.2065505 4.658170999999999 26.9478825  29.080056 4.351093 27.342038  29.4014045 4.690678999999999 27.5590015  29.27491 4.383601 27.953157  28.885202 4.318585 26.730919  28.0647167938 5.3126966963 27.6146249965  20.505621 3.929321 36.394806  20.69975267945 3.7743072445 35.6562114158  20.2383555 3.2799645 35.927439  20.031561 3.7779025 35.7501315  19.557501 3.626484 35.105457  20.43248717945 3.1249507445 35.1888444158  20.22569267945 3.6228887445 35.0115369158  19.7642955 3.128546 35.2827645  19.97109 2.630608 35.460072  20.8938843589 3.619293489 34.9176168316  28.824051 7.770357 26.944693  27.90060093805 7.015767498 26.1133828449  28.3742430334 7.2406321829 27.1281961642  28.8612461545 6.75706389645 26.5754918264  28.35040890465 7.5454923151 25.9298796807  28.38760405915 6.53219921155 25.5606785071  28.898441309 5.7437707929 26.2062906528  28.4114381879 6.22733907935 26.7589949906  27.9244350668 6.7109073658 27.3116993284  27.488909 2.911929 26.331562  26.63710163445 2.5576803993 25.9673964489  26.81173363445 3.1061708993 26.2611949489  27.04679603795 2.95914469585 25.52866360505  27.314277 2.3634385 26.0377635  27.139645 1.814948 25.743965  26.87216403795 2.41065419585 25.23486510505  26.6046830759 3.0063603917 24.7257652101  26.3696206724 3.15338659515 25.45829655395  26.1345582689 3.3004127986 26.1908278978  22.5009574687 6.9265723505 30.4525873366  22.93050064905 5.98470052785 29.83700604895  22.18934538165 6.26493852125 29.56630181145  22.28689223555 6.2870065888 30.2896448847  22.4034106148 6.904504282950001 29.72924426335  23.1445658822 6.62426628955 29.99994850085  22.3058637609 6.8824362154 29.0059011901  23.0470190283 6.602198222 29.2766054276  22.0728270024 5.6474408271 30.1267024328  23.7881742957 6.3219602286 29.5473096651  19.382198 7.206722 28.69113  20.18093917545 6.58617869475 29.01222466755  19.996457 7.000233 28.407837  20.1774445 7.335317 28.9145585  20.972691 7.463912 29.137987  20.79519817545 6.379689694750001 28.72893166755  20.97618567545 6.71477369475 29.23565316755  20.7917035 7.128828 28.6312655  20.610716 6.793744 28.124544  20.9796803509 5.9656353895 29.3333193351  29.027342 4.563874 24.224085  28.3019191527 4.66953813125 23.9997289038  28.0915556527 4.52759313125 24.6856439038  28.4953186527 4.91492913125 24.5071659038  28.4301795 3.931147 23.895126  28.8339425 4.318483000000001 23.716648  28.623579 4.176538 24.402563  28.219816 3.789202 24.581041  28.640543 4.073092 23.209211  27.9632953054 5.2659842625 24.7902468076  31.3162722264 8.665063289900001 33.8755566097  30.6697550699 9.609412684399999 34.69632313515  31.0956821582 8.58449594695 34.46795814785  30.534124214 8.839484414899999 34.6283458465  29.7519762016 9.0139055399 35.3811350833  30.3135341458 8.75891707195 35.22074738465  30.87509209 8.503928604 35.060359686  25.390745 8.999936999999999 29.146675  26.1395564437 8.297147164649999 29.3002973843  25.9470046737 8.6116349563 29.87548729195  25.5407604437 8.29293466465 29.2263228843  25.989541 9.0041495 29.2206495  25.3482086737 8.6074224563 29.80151279195  26.588337 9.008362 29.294624  25.3056723474 8.214907912599999 30.4563505839  25.4982241174 7.90042012095 29.88116067625  25.6907758874 7.5859323293 29.3059707686  17.834797 4.995063 34.017357  18.6244190103 4.6487585284 33.8303856167  18.62073899555 5.29017787235 34.3531098936  18.1840945 4.609045 34.4285205  18.533392 4.223027 34.839684  19.41036100585 4.94387340075 34.1661385103  18.9737165103 4.2627405284 34.2415491167  18.97003649555 4.90415987235 34.7642733936  19.4066809911 5.5852927447 34.6888627872  19.4140410206 4.3024540568 33.6434142334  21.6016615955 5.2894563911 31.3819013906  21.4045762458 6.0713693576 30.4485351123  21.02270376105 5.372306774549999 30.48846897535  21.83724429895 5.468448609099999 30.7543019117  21.16899354235 5.8923771396 31.0761345912  21.4553718142 4.76938602605 30.79423577475  21.3090820329 4.249315661 30.2065701589  21.69095451765 4.94837824405 30.16663629585  20.7363254892 6.4952978881 30.7703677918  29.1201431577 4.0954226693 33.2851805337  29.81706651555 4.89968812385 32.71038076635  29.8038531263 5.3832849664 33.28856592995  29.83462733895 4.177161992 33.0589735022  29.1025823343 4.81794880115 32.93658779785  29.8214139497 4.66075883455 33.6371586658  30.5226847417 5.2260949998 33.9891367979  30.53589813095 4.74249815725 33.41095163430001  30.5491115202 4.2589013147 32.8327664707  26.02924 4.648708 33.535641  27.0878677492 4.37436308635 32.43328833855  26.92989317175 3.69751267855 33.10996667725  26.90522767175 4.52873267855 33.37338867725  26.21188007745 4.4943384078 32.5955406613  26.23654557745 3.6631184078 32.3321186613  26.0539055 3.817488 33.272219  26.078571 2.986268 33.008797  26.3945201549 4.3399688156 31.6554403226  27.7812153435 4.4087573571 33.2111363545  25.296488 0.501616 28.158604  25.44102158965 0.9878964819 27.20375492665  24.96754608965 0.9840379819 27.80987342665  24.935629 0.50152 27.3661465  25.7699635 0.5054745 27.5524855  24.57477 0.501424 26.573689  24.60668708965 0.9839419818999999 27.01741592665  25.4091045 0.5053785 26.760028  26.243439 0.509333 26.946367  24.6386041793 1.4664599638 27.4611428533  23.9727328017 6.3082847562 28.0178132839  24.57331932165 6.1727474631 26.85295176985  24.08915588035 5.776671633299999 27.616115735  24.69003172285 6.072006404450001 27.7123101285  24.456896243 6.704360586 27.25464931875  24.9410596843 7.1004364158 26.4914853536  25.17419516415 6.46808223425 26.94914616335  25.407330644 5.8357280527 27.4068069731  24.8064548015 5.54039328155 27.3106125796  24.205578959 5.2450585104 27.2144181861  27.766409 8.992686000000001 32.439175  28.58553898005 7.67902592305 32.12920370015  28.37284768275 8.42797769715 32.8714416214  28.3387605 8.991937 32.2285805  27.9791002973 8.243734225900001 31.69693707875  28.911112 8.991187999999999 32.017986  28.94519918275 8.427228697149999 32.6608471214  28.5514517973 8.2429852259 31.48634257875  28.1917915946 7.4947824518 30.9546991575  28.9792863655 7.8632693943 33.3037082428  30.782869 4.224517 35.510777  30.73358837085 4.3273724999 34.27896339895  30.65277687085 4.7253059999 34.74995689895  31.309062 4.260237 35.0225775  30.8636805 3.8265835 35.0397835  31.835255 4.295957 34.534378  31.17896987085 4.761025999899999 34.26175739895  31.3898735 3.8623035 34.551584  30.944492 3.42865 34.56879  27.75573 1.842093 33.373455  28.58389098045 3.07179837935 33.1669691684  28.06187540615 3.512419451 33.4761003015  28.0591858624 2.7634933584 33.991317552  28.5812014367 2.32287228675 33.6821864189  27.75841954375 2.5910190926 32.8582377495  27.7611090875 3.3399451852 32.343020499  28.3626417248 3.6848937168 34.609180104  28.8846572991 3.24427264515 34.30004897089999  29.4066728734 2.8036515735 33.9909178378  27.317984 4.718702 36.023979  27.47065016085 5.2892805598 34.9055162012  28.10775489315 4.68118061445 34.9641083067  27.62888866085 5.4212260598 35.48483720119999  27.1597455 4.5867565 35.444658  28.26599339315 4.81312611445 35.5434293067  27.001507 4.454811 34.865337  29.2140027863 4.9075502289 35.0628796134  28.576898054 5.51565017425 35.0042875079  27.9397933217 6.1237501196 34.9456954024  29.4169750918 4.2194534674 30.9167369439  30.13291344875 4.067578356249999 31.8270559386  29.6252636655 4.51089233475 31.7222241692  29.55679396155 3.79601831655 31.5795453101  29.993094579 4.4910135071 31.1642475724  29.0491441783 4.23933229505 31.4747135407  28.6813132648 4.2592111227 32.0326901375  29.18896304805 3.8158971442 32.1375219069  29.6966128313 3.3725831657 32.2423536763  23.678759 9.012212999999999 23.759758  23.36784171955 7.533782476400001 23.9939763679  23.7904806743 7.61002081095 24.75466738065  23.19719214685 8.293507926349999 24.3899343842  24.27204752745 8.328725884599999 24.12449099645  23.8494085727 8.252487550049999 23.3637999837  24.8653360549 7.6452387692 24.4892239929  24.44269710015 7.56900043465 23.72853298015  22.7156252937 7.5748028527 25.0201107684  24.0200581454 7.4927621001 22.9678419674  28.071283 2.120733 29.706573  28.37597494905 2.1087801376 30.87977788235  28.41327594905 2.5336621376 30.50785238235  28.5026655 1.7457325 30.3979195  28.033982 1.695851 30.0784985  27.996681 1.270969 30.450424  28.4653645 1.3208505 30.769845  28.934048 1.370732 31.089266  28.84465844905 2.1586616376 31.19919888235  28.7552688981 2.9465912752 31.3091317647  27.685783 8.021345999999999 26.548059  27.136902231 7.230342515549999 26.7025658803  27.0501942838 7.6646673433 26.1377740096  27.6144099176 6.8943867408 26.2851137178  27.5430368352 5.7674274816 26.0221684356  27.0655291486 6.10338325635 26.4396205981  26.9788212014 6.5377080841 25.8748287274  26.4146055676 7.3079886866 25.7274890192  26.5013135148 6.87366385885 26.2922808899  26.588021462 6.4393390311 26.8570727606  22.9572
[...]
<PointData  Scalars="p"> 
<DataArray  type="Float64"  Name="p"  format="ascii">0.0000000000000000e+00  0.0000000000000000e+00  0.0000000000000000e+00  0.0000000000000000e+00  0.0000000000000000e+00  0.0000000000000000e+00  0.0000000000000000e+00  0.0000000000000000e+00  0.0000000000000000e+00  0.0000000000000000e+00  0.0000000000000000e+00  0.0000000000000000e+00  0.0000000000000000e+00  0.0000000000000000e+00  0.0000000000000000e+00  0.0000000000000000e+00  0.0000000000000000e+00  0.0000000000000000e+00  0.0000000000000000e+00  0.0000000000000000e+00  0.0000000000000000e+00  0.0000000000000000e+00  0.0000000000000000e+00  0.0000000000000000e+00  0.0000000000000000e+00  0.0000000000000000e+00  0.0000000000000000e+00  0.0000000000000000e+00  0.0000000000000000e+00  0.0000000000000000e+00  0.0000000000000000e+00  0.0000000000000000e+00  0.0000000000000000e+00  0.0000000000000000e+00  0.0000000000000000e+00  0.0000000000000000e+00  0.0000000000000000e+00  0.0000000000000000e+00  0.0000000000000000e+00  0.0000000000000000e+00  0.0000000000000000e+00  0.0000000000000000e+00  0.0000000000000000e+00  0.0000000000000000e+00  0.0000000000000000e+00  0.0000000000000000e+00  0.0000000000000000e+00  0.0000000000000000e+00  0.0000000000000000e+00  0.0000000000000000e+00  0.0000000000000000e+00  0.0000000000000000e+00  0.0000000000000000e+00  0.0000000000000000e+00  0.0000000000000000e+00  0.0000000000000000e+00  0.0000000000000000e+00  0.0000000000000000e+00  0.0000000000000000e+00  0.0000000000000000e+00  0.0000000000000000e+00  0.0000000000000000e+00  0.0000000000000000e+00  0.0000000000000000e+00  0.0000000000000000e+00  0.0000000000000000e+00  0.0000000000000000e+00  0.0000000000000000e+00  0.0000000000000000e+00  0.0000000000000000e+00  0.0000000000000000e+00  0.0000000000000000e+00  0.0000000000000000e+00  0.0000000000000000e+00  0.0000000000000000e+00  0.0000000000000000e+00  0.0000000000000000e+00  0.0000000000000000e+00  0.0000000000000000e+00  0.0000000000000000e+00  0.0000000000000000e+00  0.0000000000000000e+00  0.0000000000000000e+00  0.0000000000000000e+00  0.0000000000000000e+00  0.0000000000000000e+00  0.0000000000000000e+00  0.0000000000000000e+00  0.0000000000000000e+00  0.0000000000000000e+00  0.0000000000000000e+00  0.0000000000000000e+00  0.0000000000000000e+00  0.0000000000000000e+00  0.0000000000000000e+00  0.0000000000000000e+00  0.0000000000000000e+00  0.0000000000000000e+00  0.0000000000000000e+00  0.0000000000000000e+00  0.0000000000000000e+00  0.0000000000000000e+00  0.0000000000000000e+00  0.0000000000000000e+00  0.0000000000000000e+00  0.0000000000000000e+00  0.0000000000000000e+00  0.0000000000000000e+00  0.0000000000000000e+00  0.0000000000000000e+00  0.0000000000000000e+00  0.0000000000000000e+00  0.0000000000000000e+00  0.0000000000000000e+00  0.0000000000000000e+00  0.0000000000000000e+00  0.0000000000000000e+00  0.0000000000000000e+00  0.0000000000000000e+00  0.0000000000000000e+00  0.0000000000000000e+00  0.0000000000000000e+00  0.0000000000000000e+00  0.0000000000000000e+00  0.0000000000000000e+00  0.0000000000000000e+00  0.0000000000000000e+00  0.0000000000000000e+00  0.0000000000000000e+00  0.0000000000000000e+00  0.0000000000000000e+00  0.0000000000000000e+00  0.0000000000000000e+00  0.0000000000000000e+00  0.0000000000000000e+00  0.0000000000000000e+00  0.0000000000000000e+00  0.0000000000000000e+00  0.0000000000000000e+00  0.0000000000000000e+00  0.0000000000000000e+00  0.0000000000000000e+00  0.0000000000000000e+00  0.0000000000000000e+00  0.0000000000000000e+00  0.0000000000000000e+00  0.0000000000000000e+00  0.0000000000000000e+00  0.0000000000000000e+00  0.0000000000000000e+00  0.0000000000000000e+00  0.0000000000000000e+00  0.0000000000000000e+00  0.0000000000000000e+00  0.0000000000000000e+00  0.0000000000000000e+00  0.0000000000000000e+00  0.0000000000000000e+00  0.0000000000000000e+00  0.0000000000000000e+00  0.0000000000000000e+00  0.0000000000000000e+00  0.0000000000000000e+00  0.0000000000000000e+00  0.0000000000000000e+00  0.0000000000000000e+00  0.0000000000000000e+00  0.0000000000000000e+00  0.0000000000000000e+00  0.0000000000000000e+00  0.0000000000000000e+00  0.0000000000000000e+00  0.0000000000000000e+00  0.0000000000000000e+00  0.0000000000000000e+00  0.0000000000000000e+00  0.0000000000000000e+00  0.0000000000000000e+00  0.0000000000000000e+00  0.0000000000000000e+00  0.0000000000000000e+00  0.0000000000000000e+00  0.0000000000000000e+00  0.0000000000000000e+00  0.0000000000000000e+00  0.0000000000000000e+00  0.0000000000000000e+00  0.0000000000000000e+00  0.0000000000000000e+00  0.0000000000000000e+00  0.0000000000000000e+00  0.0000000000000000e+00  0.0000000000000000e+00  0.0000000000000000e+00  0.0000000000000000e+00  0.0000000000000000e+00  0.0000000000000000e+00  0.0000000000000000e+00  0.0000000000000000e+00  0.0000000000000000e+00  0.0000000000000000e+00  0.0000000000000000e+00  0.0000000000000000e+00  0.0000000000000000e+00  0.0000000000000000e+00  0.0000000000000000e+00  0.0000000000000000e+00  0.0000000000000000e+00  0.0000000000000000e+00  0.0000000000000000e+00  0.0000000000000000e+00  0.0000000000000000e+00  0.0000000000000000e+00  0.0000000000000000e+00  0.0000000000000000e+00  0.0000000000000000e+00  0.0000000000000000e+00  0.0000000000000000e+00  0.0000000000000000e+00  0.0000000000000000e+00  0.0000000000000000e+00  0.0000000000000000e+00  0.0000000000000000e+00  0.0000000000000000e+00  0.0000000000000000e+00  0.0000000000000000e+00  0.0000000000000000e+00  0.0000000000000000e+00  0.0000000000000000e+00  0.0000000000000000e+00  0.0000000000000000e+00  0.0000000000000000e+00  0.0000000000000000e+00  0.0000000000000000e+00  0.0000000000000000e+00  0.0000000000000000e+00  0.0000000000000000e+00  0.0000000000000000e+00  0.0000000000000000e+00  0.0000000000000000e+00  0.0000000000000000e+00  0.0000000000000000e+00  0.0000000000000000e+00  0.0000000000000000e+00  0.0000000000000000e+00  0.0000000000000000e+00  0.0000000000000000e+00  0.0000000000000000e+00  0.0000000000000000e+00  0.0000000000000000e+00  0.0000000000000000e+00  0.0000000000000000e+00  0.0000000000000000e+00  0.0000000000000000e+00  0.0000000000000000e+00  0.0000000000000000e+00  0.0000000000000000e+00  0.0000000000000000e+00  0.0000000000000000e+00  0.0000000000000000e+00  0.0000000000000000e+00  0.0000000000000000e+00  0.0000000000000000e+00  0.0000000000000000e+00  0.0000000000000000e+00  0.0000000000000000e+00  0.0000000000000000e+00  0.0000000000000000e+00  0.0000000000000000e+00  0.0000000000000000e+00  0.0000000000000000e+00  0.0000000000000000e+00  0.0000000000000000e+00  0.0000000000000000e+00  0.0000000000000000e+00  0.0000000000000000e+00  0.0000000000000000e+00  0.0000000000000000e+00  0.0000000000000000e+00  0.0000000000000000e+00  0.0000000000000000e+00  0.0000000000000000e+00  0.0000000000000000e+00  0.0000000000000000e+00  0.0000000000000000e+00  0.0000000000000000e+00  0.0000000000000000e+00  0.0000000000000000e+00  0.0000000000000000e+00  0.0000000000000000e+00  0.0000000000000000e+00  0.0000000000000000e+00  0.0000000000000000e+00  0.0000000000000000e+00  0.0000000000000000e+00  0.0000000000000000e+00  0.0000000000000000e+00  0.0000000000000000e+00  0.0000000000000000e+00  0.0000000000000000e+00  0.0000000000000000e+00  0.0000000000000000e+00  0.0000000000000000e+00  0.0000000000000000e+00  0.0000000000000000e+00  0.0000000000000000e+00  0.0000000000000000e+00  0.0000000000000000e+00  0.0000000000000000e+00  0.0000000000000000e+00  0.0000000000000000e+00  0.0000000000000000e+00  0.0000000000000000e+00  0.0000000000000000e+00  0.0000000000000000e+00  0.0000000000000000e+00  0.0000000000000000e+00  0.0000000000000000e+00  0.0000000000000000e+00  0.0000000000000000e+00  0.0000000000000000e+00  0.0000000000000000e+00  0.0000000000000000e+00  0.0000000000000000e+00  0.0000000000000000e+00  0.0000000000000000e+00  0.0000000000000000e+00  0.0000000000000000e+00  0.0000000000000000e+00  0.0000000000000000e+00  0.0000000000000000e+00  0.0000000000000000e+00  0.0000000000000000e+00  0.0000000000000000e+00  0.0000000000000000e+00  0.0000000000000000e+00  0.0000000000000000e+00  0.0000000000000000e+00  0.0000000000000000e+00  0.0000000000000000e+00  0.0000000000000000e+00  0.0000000000000000e+00  0.0000000000000000e+00  0.0000000000000000e+00  0.0000000000000000e+00  0.0000000000000000e+00  0.0000000000000000e+00  0.0000000000000000e+00  0.0000000000000000e+00  0.0000000000000000e+00  0.0000000000000000e+00  0.0000000000000000e+00  0.0000000000000000e+00  0.0000000000000000e+00  0.0000000000000000e+00  0.0000000000000000e+00  0.0000000000000000e+00  0.0000000000000000e+00  0.0000000000000000e+00  0.0000000000000000e+00  0.0000000000000000e+00  0.0000000000000000e+00  0.0000000000000000e+00  0.0000000000000000e+00  0.0000000000000000e+00  0.0000000000000000e+00  0.0000000000000000e+00  0.0000000000000000e+00  0.0000000000000000e+00  0.0000000000000000e+00  0.0000000000000000e+00  0.0000000000000000e+00  0.0000000000000000e+00  0.0000000000000000e+00  0.0000000000000000e+00  0.0000000000000000e+00  0.0000000000000000e+00  0.0000000000000000e+00  0.0000000000000000e+00  0.0000000000000000e+00  0.0000000000000000e+00  0.0000000000000000e+00  0.0000000000000000e+00  0.0000000000000000e+00  0.0000000000000000e+00  0.0000000000000000e+00  0.0000000000000000e+00  0.0000000000000000e+00  0.0000000000000000e+00  0.0000000000000000e+00  0.0000000000000000e+00  0.0000000000000000e+00  0.0000000000000000e+00  0.0000000000000000e+00  0.0000000000000000e+00  0.0000000000000000e+00  0.0000000000000000e+00  0.0000000000000000e+00  0.0000000000000000e+00  0.0000000000000000e+00  0.0000000000000000e+00  0.0000000000000000e+00  0.0000000000000000e+00  0.0000000000000000e+00  0.0000000000000000e+00  0.0000000000000000e+00  0.0000000000000000e+00  0.0000000000000000e+00  0.0000000000000000e+00  0.0000000000000000e+00  0.0000000000000000e+00  0.0000000000000000e+00  0.0000000000000000e+00  0.0000000000000000e+00  0.0000000000000000e+00  0.0000000000000000e+00  0.0000000000000000e+00  0.0000000000000000e+00  0.0000000000000000e+00  0.0000000000000000e+00  0.0000000000000000e+00  0.0000000000000000e+00  0.0000000000000000e+00  0.0000000000000000e+00  0.0000000000000000e+00  0.0000000000000000e+00  0.0000000000000000e+00  0.0000000000000000e+00  0.0000000000000000e+00  0.0000000000000000e+00  0.0000000000000000e+00  0.0000000000000000e+00  0.0000000000000000e+00  0.0000000000000000e+00  0.0000000000000000e+00  0.0000000000000000e+00  0.0000000000000000e+00  0.0000000000000000e+00  0.0000000000000000e+00  0.0000000000000000e+00  0.0000000000000000e+00  0.0000000000000000e+00  0.0000000000000000e+00  0.0000000000000000e+00  0.0000000000000000e+00  0.0000000000000000e+00  0.0000000000000000e+00  0.0000000000000000e+00  0.0000000000000000e+00  0.0000000000000000e+00  0.0000000000000000e+00  0.0000000000000000e+00  0.0000000000000000e+00  0.0000000000000000e+00  0.0000000000000000e+00  0.0000000000000000e+00  0.0000000000000000e+00  0.0000000000000000e+00  0.0000000000000000e+00  0.0000000000000000e+00  0.0000000000000000e+00  0.0000000000000000e+00  0.0000000000000000e+00  0.0000000000000000e+00  0.0000000000000000e+00  0.0000000000000000e+00  0.0000000000000000e+00  0.0000000000000000e+00  0.0000000000000000e+00  0.0000000000000000e+00  0.0000000000000000e+00  0.0000000000000000e+00  0.0000000000000000e+00  0.0000000000000000e+00  0.0000000000000000e+00  0.0000000000000000e+00  0.0000000000000000e+00  0.0000000000000000e+00  0.0000000000000000e+00  0.0000000000000000e+00  0.0000000000000000e+00  0.0000000000000000e+00  0.0000000000000000e+00  0.0000000000000000e+00  0.0000000000000000e+00  0.0000000000000000e+00  0.0000000000000000e+00  0.0000000000000000e+00  0.0000000000000000e+00  0.0000000000000000e+00  0.0000000000000000e+00  0.0000000000000000e+00  0.0000000000000000e+00  0.0000000000000000e+00  0.0000000000000000e+00  0.0000000000000000e+00  0.0000000000000000e+00  0.0000000000000000e+00  0.0000000000000000e+00  0.0000000000000000e+00  0.0000000000000000e+00  0.0000000000000000e+00  0.0000000000000000e+00  0.0000000000000000e+00  0.0000000000000000e+00  0.0000000000000000e+00  0.0000000000000000e+00  0.0000000000000000e+00  0.0000000000000000e+00  0.0000000000000000e+00  0.0000000000000000e+00  0.0000000000000000e+00  0.0000000000000000e+00  0.0000000000000000e+00  0.0000000000000000e+00  0.0000000000000000e+00  0.0000000000000000e+00  0.0000000000000000e+00  0.0000000000000000e+00  0.0000000000000000e+00  0.0000000000000000e+00  0.0000000000000000e+00  0.0000000000000000e+00  0.0000000000000000e+00  0.0000000000000000e+00  0.0000000000000000e+00  0.0000000000000000e+00  0.0000000000000000e+00  0.0000000000000000e+00  0.0000000000000000e+00  0.0000000000000000e+00  0.0000000000000000e+00  0.0000000000000000e+00  0.0000000000000000e+00  0.0000000000000000e+00  0.0000000000000000e+00  0.0000000000000000e+00  0.0000000000000000e+00  0.0000000000000000e+00  0.0000000000000000e+00  0.0000000000000000e+00  0.0000000000000000e+00  0.0000000000000000e+00  0.0000000000000000e+00  0.0000000000000000e+00  0.0000000000000000e+00  0.0000000000000000e+00  0.0000000000000000e+00  0.0000000000000000e+00  0.0000000000000000e+00  0.0000000000000000e+00  0.0000000000000000e+00  0.0000000000000000e+00  0.0000000000000000e+00  0.0000000000000000e+00  0.0000000000000000e+00  0.0000000000000000e+00  0.0000000000000000e+00  0.0000000000000000e+00  0.0000000000000000e+00  0.0000000000000000e+00  0.0000000000000000e+00  0.0000000000000000e+00  0.0000000000000000e+00  0.0000000000000000e+00  0.0000000000000000e+00  0.0000000000000000e+00  0.0000000000000000e+00  0.0000000000000000e+00  0.0000000000000000e+00  0.0000000000000000e+00  0.0000000000000000e+00  0.0000000000000000e+00  0.0000000000000000e+00  0.0000000000000000e+00  0.0000000000000000e+00  0.0000000000000000e+00  0.0000000000000000e+00  0.0000000000000000e+00  0.0000000000000000e+00  0.0000000000000000e+00  0.0000000000000000e+00  0.0000000000000000e+00  0.0000000000000000e+00  0.0000000000000000e+00  0.0000000000000000e+00  0.0000000000000000e+00  0.0000000000000000e+00  0.0000000000000000e+00  0.0000000000000000e+00  0.0000000000000000e+00  0.0000000000000000e+00  0.0000000000000000e+00  0.0000000000000000e+00  0.0000000000000000e+00  0.0000000000000000e+00  0.0000000000000000e+00  0.0000000000000000e+00  0.0000000000000000e+00  0.0000000000000000e+00  0.0000000000000000e+00  0.0000000000000000e+00  0.0000000000000000e+00  0.0000000000000000e+00  0.0000000000000000e+00  0.0000000000000000e+00  0.0000000000000000e+00  0.0000000000000000e+00  0.0000000000000000e+00  0.0000000000000000e+00  0.0000000000000000e+00  0.0000000000000000e+00  0.0000000000000000e+00  0.0000000000000000e+00  0.0000000000000000e+00  0.0000000000000000e+00  0.0000000000000000e+00  0.0000000000000000e+00  0.0000000000000000e+00  0.0000000000000000e+00  0.0000000000000000e+00  0.0000000000000000e+00  0.0000000000000000e+00  0.0000000000000000e+00  0.0000000000000000e+00  0.0000000000000000e+00  0.0000000000000000e+00  0.0000000000000000e+00  0.0000000000000000e+00  0.0000000000000000e+00  0.0000000000000000e+00  0.0000000000000000e+00  0.0000000000000000e+00  0.0000000000000000e+00  0.0000000000000000e+00  0.0000000000000000e+00  0.0000000000000000e+00  0.0000000000000000e+00  0.0000000000000000e+00  0.0000000000000000e+00  0.0000000000000000e+00  0.0000000000000000e+00  0.0000000000000000e+00  0.0000000000000000e+00  0.0000000000000000e+00  0.0000000000000000e+00  0.0000000000000000e+00  0.0000000000000000e+00  0.0000000000000000e+00  0.0000000000000000e+00  0.0000000000000000e+00  0.0000000000000000e+00  0.0000000000000000e+00  0.0000000000000000e+00  0.0000000000000000e+00  0.0000000000000000e+00  0.0000000000000000e+00  0.0000000000000000e+00  0.0000000000000000e+00  0.0000000000000000e+00  0.0000000000000000e+00  0.0000000000000000e+00  0.0000000000000000e+00  0.0000000000000000e+00  0.0000000000000000e+00  0.0000000000000000e+00  0.0000000000000000e+00  0.0000000000000000e+00  0.0000000000000000e+00  0.0000000000000000e+00  0.0000000000000000e+00  0.0000000000000000e+00  0.0000000000000000e+00  0.0000000000000000e+00  0.0000000000000000e+00  0.0000000000000000e+00  0.0000000000000000e+00  0.0000000000000000e+00  0.0000000000000000e+00  0.0000000000000000e+00  0.0000000000000000e+00  0.0000000000000000e+00  0.0000000000000000e+00  0.0000000000000000e+00  0.0000000000000000e+00  0.0000000000000000e+00  0.0000000000000000e+00  0.0000000000000000e+00  0.0000000000000000e+00  0.0000000000000000e+00  0.0000000000000000e+00  0.0000000000000000e+00  0.0000000000000000e+00  0.0000000000000000e+00  0.0000000000000000e+00  0.0000000000000000e+00  0.0000000000000000e+00  0.0000000000000000e+00  0.0000000000000000e+00  0.0000000000000000e+00  0.0000000000000000e+00  0.0000000000000000e+00  0.0000000000000000e+00  0.0000000000000000e+00  0.0000000000000000e+00  0.0000000000000000e+00  0.0000000000000000e+00  0.0000000000000000e+00  0.0000000000000000e+00  0.0000000000000000e+00  0.0000000000000000e+00  0.0000000000000000e+00  0.0000000000000000e+00  0.0000000000000000e+00  0.0000000000000000e+00  0.0000000000000000e+00  0.0000000000000000e+00  0.0000000000000000e+00  0.0000000000000000e+00  0.0000000000000000e+00  0.0000000000000000e+00  0.0000000000000000e+00  0.0000000000000000e+00  0.0000000000000000e+00  0.0000000000000000e+00  0.0000000000000000e+00  0.0000000000000000e+00  0.0000000000000000e+00  0.0000000000000000e+00  0.0000000000000000e+00  0.0000000000000000e+00  0.0000000000000000e+00  0.0000000000000000e+00  0.0000000000000000e+00  0.0000000000000000e+00  0.0000000000000000e+00  0.0000000000000000e+00  0.0000000000000000e+00  0.0000000000000000e+00  0.0000000000000000e+00  0.0000000000000000e+00  0.0000000000000000e+00  0.0000000000000000e+00  0.0000000000000000e+00  0.0000000000000000e+00  0.0000000000000000e+00  0.0000000000000000e+00  0.0000000000000000e+00  0.0000000000000000e+00  0.0000000000000000e+00  0.0000000000000000e+00  0.0000000000000000e+00  0.0000000000000000e+00  0.0000000000000000e+00  0.0000000000000000e+00  0.0000000000000000e+00  0.0000000000000000e+00  0.0000000000000000e+00  0.0000000000000000e+00  0.0000000000000000e+00  0.0000000000000000e+00  0.0000000000000000e+00  0.0000000000000000e+00  0.0000000000000000e+00  0.0000000000000000e+00  0.0000000000000000e+00  0.0000000000000000e+00  0.0000000000000000e+00  0.0000000000000000e+00  0.0000000000000000e+00  0.0000000000000000e+00  0.0000000000000000e+00  0.0000000000000000e+00  0.0000000000000000e+00  0.0000000000000000e+00  0.0000000000000000e+00  0.0000000000000000e+00  0.0000000000000000e+00  0.0000000000000000e+00  0.0000000000000000e+00  0.0000000000000000e+00  0.0000000000000000e+00  0.0000000000000000e+00  0.0000000000000000e+00  0.0000000000000000e+00  0.0000000000000000e+00  0.0000000000000000e+00  0.0000000000000000e+00  0.0000000000000000e+00  0.0000000000000000e+00  0.0000000000000000e+00  0.0000000000000000e+00  0.0000000000000000e+00  0.0000000000000000e+00  0.0000000000000000e+00  0.0000000000000000e+00  0.0000000000000000e+00  0.0000000000000000e+00  0.0000000000000000e+00  0.0000000000000000e+00  0.0000000000000000e+00  0.0000000000000000e+00  0.0000000000000000e+00  0.0000000000000000e+00  0.0000000000000000e+00  0.0000000000000000e+00  0.0000000000000000e+00  0.0000000000000000e+00  0.0000000000000000e+00  0.0000000000000000e+00  0.0000000000000000e+00  0.0000000000000000e+00  0.0000000000000000e+00  0.0000000000000000e+00  0.0000000000000000e+00  0.0000000000000000e+00  0.0000000000000000e+00  0.0000000000000000e+00  0.0000000000000000e+00  0.0000000000000000e+00  0.0000000000000000e+00  0.0000000000000000e+00  0.0000000000000000e+00  0.0000000000000000e+00  0.0000000000000000e+00  0.0000000000000000e+00  0.0000000000000000e+00  0.0000000000000000e+00  0.0000000000000000e+00  0.0000000000000000e+00  0