<?xml version="1.0"?>
<VTKFile type="UnstructuredGrid"  version="0.1"  >
<UnstructuredGrid>
<Piece  NumberOfPoints="11474" NumberOfCells="51486">
<Points>
<DataArray  type="Float64"  NumberOfComponents="3"  format="ascii">35.905167 38.713795 20.133768  35.5716306916 38.16300412575 19.42866640765  35.41566119159999 38.15869562575 19.95342740765  35.2678370845 38.7675695864 19.517215733  36.0611365 38.7181035 19.609007  36.217106 38.722412 19.084246  35.4238065845 38.7718780864 18.992454733  34.630507169 38.8213441728 18.900663466  34.7783312761 38.21247021215 19.33687514065  34.9261553832 37.6035962515 19.7730868153  35.724728 39.735493 19.627161  35.5733405845 39.0347375864 18.536095733  35.1776175845 39.2784185864 19.263912233  35.970917 39.2289525 19.3557035  36.120451 39.491812 18.8993445  36.36664 38.9852715 18.627887  36.516174 39.248131 18.171528  34.993225 34.742577 22.356882  35.357275 34.3622095 21.3824615  35.49399200000001 34.232111 21.6011285  35.60145 34.76804199999999 21.760438  34.74905 34.33674449999999 21.9789055  34.504875 33.930912 21.600929  35.249817 33.8262785 21.223152  36.209675 34.793507 21.163994  36.102217 34.257576 21.0046845  35.994759 33.721645 20.845375  32.116947 36.541229 18.683306  32.5480556062 35.69995446695 18.0676195767  32.7252071062 36.29273546695 18.3223605767  32.30466850000001 35.9979515 18.831602  31.9397955 35.948448 18.428565  32.49239 35.454674 18.979898  32.9129286062 35.74945796695 18.4706565767  32.127517 35.4051705 18.576861  31.762644 35.355667 18.173824  33.3334672124 36.0442419339 17.9614151534  33.07365 39.273403 19.635338  33.20341862115 39.2622381663 18.881289098  33.26011326335 40.134850773 19.1476687293  32.76101712115 39.5186486663 18.615167098  33.3331872423 39.2510733326 18.127240196  33.3898818845 40.1236859393 18.3936198273  34.8949495054 36.7564645323 18.5071918878  35.46504170655 36.5554526889 18.01640140165  34.8310989553 36.5706890191 17.5418107707  35.45508522555 37.21144311015 17.830722203  34.7672484052 36.3849135059 16.5764296536  35.40119115645 36.36967717570001 17.05102028455  36.0351339077 36.3544408455 17.5256109155  36.27705 34.3787325 20.470666  35.62490967935 34.55857985735 20.52330316825  36.384508 34.9146635 20.6299755  35.79974267935 34.67973635735 19.98928466825  35.51745167935 34.02264885735001 20.36399366825  36.559341 35.03582 20.095957  35.0401443587 34.3236527147 19.8826123365  34.418441599 38.6322161246 17.2432402424  34.17193536329999 38.29232079305 18.15381498125  33.87581442065 38.9416447286 17.6852402192  34.524474384 38.7267801487 18.0719518542  33.62930818495 38.60174939705 18.59581495805  34.2779681483 38.38688481715 18.98252659305  33.98184720565 39.03620875270001 18.513951831  33.9254291276 37.9524254615 19.0643897201  34.39397 34.871181 20.932247  34.29647767935 34.70932685735001 19.94932566825  34.71705717935 34.59741685735 20.40742966825  34.3121227577 35.29607568075 19.9907839453  33.9733905 34.983091 20.474143  33.552811 35.095001 20.016039  34.63520993705 35.0223115381 19.46596661355  33.8915432577 35.40798568075 19.5326799453  34.2302755154 35.7209703615 19.0493208906  36.004692 33.699863 19.094999  35.23542761245 34.11062495260001 17.93062218685  35.39688861245 34.6693104526 18.23720718685  35.24387911245 34.08352345260001 18.87886218685  36.1577015 34.28565 18.453344  35.9962405 33.7269645 18.146759  36.310711 34.871437 17.811689  34.4830662249 34.4671839052 18.6627253737  33.4995395638 38.61291423075 19.34986386005  32.804756 38.78663450000001 19.328976  32.535862 38.299866 19.022614  33.2306455638 38.12614573075 19.04350186005  32.93452462115 38.7754696663 18.574927098  33.8520785845 39.0473735864 19.268000733  33.4341085148 38.3594335688 18.12367049655  33.97673569315 38.0500049648 17.68167051975  33.5350297873 37.467793805 18.1201007971  33.73022945744999 37.71010963325 18.5922452586  34.277237 36.73605 20.977549  35.6369895 36.8892195 21.240229  35.3517035 37.385996 20.844168  35.2916315 37.434498 21.3540805  36.306026 38.132946 21.730612  36.711456 37.5391655 21.106848  36.651384 37.58766749999999 21.6167605  36.366098 38.084444 21.2206995  36.42617 38.035942 20.710787  36.996742 37.042389 21.502909  35.5994281286 35.58319675025 17.0256774884  36.34250295385 35.64372142275 16.94269795775  36.17292245385 35.61293892275 17.66864995775  34.68848 39.877144 20.506361  34.6594935845 39.34924408640001 19.703512233  35.206604 39.8063185 20.066761  34.8878345 40.113571 19.7656515  35.087189 40.349998 19.024942  34.8588480845 39.5856710864 18.962802733  35.4059585 40.0427455 19.3260515  35.32286405735 38.24388293040001 18.0274579921  35.4673077995 38.9401735623 17.7073841212  36.26569747285 38.457276344 17.6628902591  35.21683127235 38.1493189063 17.1987463803  36.0152209457 37.666421688 17.1542525182  35.426651 40.557434 18.030722  34.82528446035001 40.3272041589 17.66725530555  35.59701510995 39.94500543845 17.2097835871  34.9225462995 39.5948250623 17.6369811212  34.99564857030001 39.71477559735 16.84631689265  34.32117975985 39.3645952212 17.27351442675  35.09291040945 38.98239650075 16.8160427083  35.7673792199 39.3325768769 16.3888451742  34.2239179207 40.0969743178 17.3037886111  35.8149475 39.224644 19.8804645  36.136185 34.721237 19.204613  36.1648657079 35.76817354080001 19.44086889675  35.7871422079 35.4544720408 19.60532639675  35.5155672527 35.73885076615 18.8559024439  36.5139085 35.0349385 19.0401555  36.891632 35.34864 18.875698  35.8932907527 36.05255226615 18.6914449439  35.1665244606 36.47208580695001 19.25661584065  35.4380994158 36.1877070816 20.0060397935  34.4101893165 37.3544449969 18.78579080395  34.21498964635 37.11212916865 18.31364634245  34.6566955522 37.69434032845 17.8752160651  37.019077 36.23904 18.4627  36.76662095385 36.18168742275 17.53367845775  36.78359045385 36.67266742275 17.76809145775  36.52710545385 36.29674042275001 17.99415545775  37.25859250000001 36.123987 18.002223  37.5150775 36.499914 17.776159  37.275562 36.614967 18.236636  37.532047 36.990894 18.010572  37.498108 36.008934 17.541746  35.19436450000001 34.296413 20.888811  35.3018225 34.832344 21.0481205  35.0285790845 39.6893890864 18.465692733  35.9714125 39.9027825 18.101125  35.52241817935 34.01175785735001 19.48880566825  35.58816467935 34.52244485735 19.54361266825  35.30962561245 34.5942104526 18.93366918685  36.07043849999999 34.21055 19.149806  34.7616052918 34.39541830995 19.2726688551  33.190887 36.181808 19.751204  33.7105812577 35.95138918075 19.4002624453  33.371849 35.6384045 19.8836215  33.526159 36.108791 20.022796  33.861431 36.035774 20.294388  34.0458532577 35.87837218075001 19.6718544453  33.707121 35.5653875 20.1552135  33.952271 37.273991 23.609688  34.7044053251 37.78243821140001 22.7747479883  34.7050998251 37.9191112114 23.3104294883  34.6859083251 37.39846071140001 23.4953279883  33.9714625 37.7946415 23.4247895  33.97076800000001 37.6579685 22.889108  33.990654 38.315292 23.239891  33.9899595 38.178619 22.7042095  33.989265 38.041946 22.168528  35.4195456502 37.5229304228 23.3809679766  36.14177660995 39.29035393845 17.2801865871  36.8486408708 38.73421633365 17.1524786792  37.048441 38.7177105 18.101162  37.580708 38.18729 18.030796  34.428375 37.026566 22.011711  35.5974555 37.208746 22.219642  35.7125585 37.0344775 21.75731  35.3672005 37.579756 21.8711615  34.65863 36.655556 22.3601915  34.888885 36.284546 22.708672  35.9428135 36.6634675 22.1057905  34.7439285 38.522615 21.671717  34.86018900000001 38.4487895 22.160171  34.084177 38.4531895 21.666872  34.179089 38.864433 21.165216  34.8388405 38.9338585 21.170061  34.955101 38.860033 21.658515  35.731113 38.855633 22.151814  35.6148525 38.9294585 21.66336  35.498592 39.003284 21.174906  36.99403 36.42662 19.600119  36.37134715655 36.2761321818 18.98843181445  36.2160647079 36.3071635408 19.80307939675  36.42254615655 36.8151221818 19.35064231445  36.942831 35.88763 19.2379085  35.64458086445 36.6956657226 19.5536027112  35.8510623131 37.2036243636 19.1011656289  36.75321 38.297253 18.4434795  36.898907 38.454851 18.557521  36.603676 38.0343935 18.8998385  36.990246 37.346375 18.715431  37.285477 37.7668325 18.3731135  33.986206 37.789429 20.957594  35.206188 37.91268549999999 20.8341905  35.14611600000001 37.96118749999999 21.344103  34.74239900000001 38.3963565 21.06625  35.962381 38.519613 20.9428465  35.902309 38.568115 21.452759  36.065472 34.221441 20.024994  36.347763 34.8785285 19.650285  35.18872532509999 38.3394777114 23.0588509883  34.47427949999999 38.7356585 22.9883125  34.473585 38.5989855 22.452631  34.957905 39.156025 22.736734  34.0804195 39.8117005 19.33014  33.881065 39.5752735 20.0708495  33.641434 38.371754 20.075563  33.78343156379999 38.16208973075 19.56997636005  34.28379469159999 37.98767512575 19.92432490765  34.1359705845 38.5965490864 19.488113233  34.4257922554 37.7780108565 19.4187382677  34.5782154493 36.6622833065 19.41120385295  34.3937931916 36.81968512575 20.03373740765  34.6497652079 36.1117405408 20.15021389675  35.1821273995 36.89565166655 19.8895633044  34.8341874656 35.95433872155 19.52768034205  33.8352472237 40.5466364319 17.98189403485  33.96492876725 41.20549008819999 17.67229737865  33.4358927576 40.8646058433 17.2402501518  34.0503578088 36.2145777199 17.2689224035  34.950080777 36.1287324328 18.1491582966  34.1142083589 36.4003532331 18.2343035206  34.8862302269 35.9429569196 17.1837771795  34.16933963050001 35.7726211336 17.8762699294  35.0052120486 35.5010003333 17.7911247054  36.664894 35.5552385 18.1371945  36.46338295385 35.85154042275001 18.20065445775  36.6011715 35.1100385 18.3436935  36.9553545 35.79384 18.669199  33.0805576062 35.19741596695 18.6104065767  33.48772811245 34.9609289526 18.82131168685  32.66001900000001 34.902632 19.119648  32.827648 34.35059 19.259398  33.65535711245001 34.4088869526 18.96106168685  33.90826671865 35.25571291955 18.31207026355  35.24078474105 38.0124842682 19.00091454745  36.03408415655 37.9630181818 19.09270581445  36.11616347285 38.194
[...]
<PointData  Vectors="u"> 
<DataArray  type="Float64"  Name="u"  NumberOfComponents="3" format="ascii">0.0000000000000000e+00 0.0000000000000000e+00 0.0000000000000000e+00  0.0000000000000000e+00 0.0000000000000000e+00 0.0000000000000000e+00  0.0000000000000000e+00 0.0000000000000000e+00 0.0000000000000000e+00  0.0000000000000000e+00 0.0000000000000000e+00 0.0000000000000000e+00  0.0000000000000000e+00 0.0000000000000000e+00 0.0000000000000000e+00  0.0000000000000000e+00 0.0000000000000000e+00 0.0000000000000000e+00  0.0000000000000000e+00 0.0000000000000000e+00 0.0000000000000000e+00  0.0000000000000000e+00 0.0000000000000000e+00 0.0000000000000000e+00  0.0000000000000000e+00 0.0000000000000000e+00 0.0000000000000000e+00  0.0000000000000000e+00 0.0000000000000000e+00 0.0000000000000000e+00  0.0000000000000000e+00 0.0000000000000000e+00 0.0000000000000000e+00  0.0000000000000000e+00 0.0000000000000000e+00 0.0000000000000000e+00  0.0000000000000000e+00 0.0000000000000000e+00 0.0000000000000000e+00  0.0000000000000000e+00 0.0000000000000000e+00 0.0000000000000000e+00  0.0000000000000000e+00 0.0000000000000000e+00 0.0000000000000000e+00  0.0000000000000000e+00 0.0000000000000000e+00 0.0000000000000000e+00  0.0000000000000000e+00 0.0000000000000000e+00 0.0000000000000000e+00  0.0000000000000000e+00 0.0000000000000000e+00 0.0000000000000000e+00  0.0000000000000000e+00 0.0000000000000000e+00 0.0000000000000000e+00  0.0000000000000000e+00 0.0000000000000000e+00 0.0000000000000000e+00  0.0000000000000000e+00 0.0000000000000000e+00 0.0000000000000000e+00  0.0000000000000000e+00 0.0000000000000000e+00 0.0000000000000000e+00  0.0000000000000000e+00 0.0000000000000000e+00 0.0000000000000000e+00  0.0000000000000000e+00 0.0000000000000000e+00 0.0000000000000000e+00  0.0000000000000000e+00 0.0000000000000000e+00 0.0000000000000000e+00  0.0000000000000000e+00 0.0000000000000000e+00 0.0000000000000000e+00  0.0000000000000000e+00 0.0000000000000000e+00 0.0000000000000000e+00  0.0000000000000000e+00 0.0000000000000000e+00 0.0000000000000000e+00  0.0000000000000000e+00 0.0000000000000000e+00 0.0000000000000000e+00  0.0000000000000000e+00 0.0000000000000000e+00 0.0000000000000000e+00  0.0000000000000000e+00 0.0000000000000000e+00 0.0000000000000000e+00  0.0000000000000000e+00 0.0000000000000000e+00 0.0000000000000000e+00  0.0000000000000000e+00 0.0000000000000000e+00 0.0000000000000000e+00  0.0000000000000000e+00 0.0000000000000000e+00 0.0000000000000000e+00  0.0000000000000000e+00 0.0000000000000000e+00 0.0000000000000000e+00  0.0000000000000000e+00 0.0000000000000000e+00 0.0000000000000000e+00  0.0000000000000000e+00 0.0000000000000000e+00 0.0000000000000000e+00  0.0000000000000000e+00 0.0000000000000000e+00 0.0000000000000000e+00  0.0000000000000000e+00 0.0000000000000000e+00 0.0000000000000000e+00  0.0000000000000000e+00 0.0000000000000000e+00 0.0000000000000000e+00  0.0000000000000000e+00 0.0000000000000000e+00 0.0000000000000000e+00  0.0000000000000000e+00 0.0000000000000000e+00 0.0000000000000000e+00  0.0000000000000000e+00 0.0000000000000000e+00 0.0000000000000000e+00  0.0000000000000000e+00 0.0000000000000000e+00 0.0000000000000000e+00  0.0000000000000000e+00 0.0000000000000000e+00 0.0000000000000000e+00  0.0000000000000000e+00 0.0000000000000000e+00 0.0000000000000000e+00  0.0000000000000000e+00 0.0000000000000000e+00 0.0000000000000000e+00  0.0000000000000000e+00 0.0000000000000000e+00 0.0000000000000000e+00  0.0000000000000000e+00 0.0000000000000000e+00 0.0000000000000000e+00  0.0000000000000000e+00 0.0000000000000000e+00 0.0000000000000000e+00  0.0000000000000000e+00 0.0000000000000000e+00 0.0000000000000000e+00  0.0000000000000000e+00 0.0000000000000000e+00 0.0000000000000000e+00  0.0000000000000000e+00 0.0000000000000000e+00 0.0000000000000000e+00  0.0000000000000000e+00 0.0000000000000000e+00 0.0000000000000000e+00  0.0000000000000000e+00 0.0000000000000000e+00 0.0000000000000000e+00  0.0000000000000000e+00 0.0000000000000000e+00 0.0000000000000000e+00  0.0000000000000000e+00 0.0000000000000000e+00 0.0000000000000000e+00  0.0000000000000000e+00 0.0000000000000000e+00 0.0000000000000000e+00  0.0000000000000000e+00 0.0000000000000000e+00 0.0000000000000000e+00  0.0000000000000000e+00 0.0000000000000000e+00 0.0000000000000000e+00  0.0000000000000000e+00 0.0000000000000000e+00 0.0000000000000000e+00  0.0000000000000000e+00 0.0000000000000000e+00 0.0000000000000000e+00  0.0000000000000000e+00 0.0000000000000000e+00 0.0000000000000000e+00  0.0000000000000000e+00 0.0000000000000000e+00 0.0000000000000000e+00  0.0000000000000000e+00 0.0000000000000000e+00 0.0000000000000000e+00  0.0000000000000000e+00 0.0000000000000000e+00 0.0000000000000000e+00  0.0000000000000000e+00 0.0000000000000000e+00 0.0000000000000000e+00  0.0000000000000000e+00 0.0000000000000000e+00 0.0000000000000000e+00  0.0000000000000000e+00 0.0000000000000000e+00 0.0000000000000000e+00  0.0000000000000000e+00 0.0000000000000000e+00 0.0000000000000000e+00  0.0000000000000000e+00 0.0000000000000000e+00 0.0000000000000000e+00  0.0000000000000000e+00 0.0000000000000000e+00 0.0000000000000000e+00  0.0000000000000000e+00 0.0000000000000000e+00 0.0000000000000000e+00  0.0000000000000000e+00 0.0000000000000000e+00 0.0000000000000000e+00  0.0000000000000000e+00 0.0000000000000000e+00 0.0000000000000000e+00  0.0000000000000000e+00 0.0000000000000000e+00 0.0000000000000000e+00  0.0000000000000000e+00 0.0000000000000000e+00 0.0000000000000000e+00  0.0000000000000000e+00 0.0000000000000000e+00 0.0000000000000000e+00  0.0000000000000000e+00 0.0000000000000000e+00 0.0000000000000000e+00  0.0000000000000000e+00 0.0000000000000000e+00 0.0000000000000000e+00  0.0000000000000000e+00 0.0000000000000000e+00 0.0000000000000000e+00  0.0000000000000000e+00 0.0000000000000000e+00 0.0000000000000000e+00  0.0000000000000000e+00 0.0000000000000000e+00 0.0000000000000000e+00  0.0000000000000000e+00 0.0000000000000000e+00 0.0000000000000000e+00  0.0000000000000000e+00 0.0000000000000000e+00 0.0000000000000000e+00  0.0000000000000000e+00 0.0000000000000000e+00 0.0000000000000000e+00  0.0000000000000000e+00 0.0000000000000000e+00 0.0000000000000000e+00  0.0000000000000000e+00 0.0000000000000000e+00 0.0000000000000000e+00  0.0000000000000000e+00 0.0000000000000000e+00 0.0000000000000000e+00  0.0000000000000000e+00 0.0000000000000000e+00 0.0000000000000000e+00  0.0000000000000000e+00 0.0000000000000000e+00 0.0000000000000000e+00  0.0000000000000000e+00 0.0000000000000000e+00 0.0000000000000000e+00  0.0000000000000000e+00 0.0000000000000000e+00 0.0000000000000000e+00  0.0000000000000000e+00 0.0000000000000000e+00 0.0000000000000000e+00  0.0000000000000000e+00 0.0000000000000000e+00 0.0000000000000000e+00  0.0000000000000000e+00 0.0000000000000000e+00 0.0000000000000000e+00  0.0000000000000000e+00 0.0000000000000000e+00 0.0000000000000000e+00  0.0000000000000000e+00 0.0000000000000000e+00 0.0000000000000000e+00  0.0000000000000000e+00 0.0000000000000000e+00 0.0000000000000000e+00  0.0000000000000000e+00 0.0000000000000000e+00 0.0000000000000000e+00  0.0000000000000000e+00 0.0000000000000000e+00 0.0000000000000000e+00  0.0000000000000000e+00 0.0000000000000000e+00 0.0000000000000000e+00  0.0000000000000000e+00 0.0000000000000000e+00 0.0000000000000000e+00  0.0000000000000000e+00 0.0000000000000000e+00 0.0000000000000000e+00  0.0000000000000000e+00 0.0000000000000000e+00 0.0000000000000000e+00  0.0000000000000000e+00 0.0000000000000000e+00 0.0000000000000000e+00  0.0000000000000000e+00 0.0000000000000000e+00 0.0000000000000000e+00  0.0000000000000000e+00 0.0000000000000000e+00 0.0000000000000000e+00  0.0000000000000000e+00 0.0000000000000000e+00 0.0000000000000000e+00  0.0000000000000000e+00 0.0000000000000000e+00 0.0000000000000000e+00  0.0000000000000000e+00 0.0000000000000000e+00 0.0000000000000000e+00  0.0000000000000000e+00 0.0000000000000000e+00 0.0000000000000000e+00  0.0000000000000000e+00 0.0000000000000000e+00 0.0000000000000000e+00  0.0000000000000000e+00 0.0000000000000000e+00 0.0000000000000000e+00  0.0000000000000000e+00 0.0000000000000000e+00 0.0000000000000000e+00  0.0000000000000000e+00 0.0000000000000000e+00 0.0000000000000000e+00  0.0000000000000000e+00 0.0000000000000000e+00 0.0000000000000000e+00  0.0000000000000000e+00 0.0000000000000000e+00 0.0000000000000000e+00  0.0000000000000000e+00 0.0000000000000000e+00 0.0000000000000000e+00  0.0000000000000000e+00 0.0000000000000000e+00 0.0000000000000000e+00  0.0000000000000000e+00 0.0000000000000000e+00 0.0000000000000000e+00  0.0000000000000000e+00 0.0000000000000000e+00 0.0000000000000000e+00  0.0000000000000000e+00 0.0000000000000000e+00 0.0000000000000000e+00  0.0000000000000000e+00 0.0000000000000000e+00 0.0000000000000000e+00  0.0000000000000000e+00 0.0000000000000000e+00 0.0000000000000000e+00  0.0000000000000000e+00 0.0000000000000000e+00 0.0000000000000000e+00  0.0000000000000000e+00 0.0000000000000000e+00 0.0000000000000000e+00  0.0000000000000000e+00 0.0000000000000000e+00 0.0000000000000000e+00  0.0000000000000000e+00 0.0000000000000000e+00 0.0000000000000000e+00  0.0000000000000000e+00 0.0000000000000000e+00 0.0000000000000000e+00  0.0000000000000000e+00 0.0000000000000000e+00 0.0000000000000000e+00  0.0000000000000000e+00 0.0000000000000000e+00 0.0000000000000000e+00  0.0000000000000000e+00 0.0000000000000000e+00 0.0000000000000000e+00  0.0000000000000000e+00 0.0000000000000000e+00 0.0000000000000000e+00  0.0000000000000000e+00 0.0000000000000000e+00 0.0000000000000000e+00  0.0000000000000000e+00 0.0000000000000000e+00 0.0000000000000000e+00  0.0000000000000000e+00 0.0000000000000000e+00 0.0000000000000000e+00  0.0000000000000000e+00 0.0000000000000000e+00 0.0000000000000000e+00  0.0000000000000000e+00 0.0000000000000000e+00 0.0000000000000000e+00  0.0000000000000000e+00 0.0000000000000000e+00 0.0000000000000000e+00  0.0000000000000000e+00 0.0000000000000000e+00 0.0000000000000000e+00  0.0000000000000000e+00 0.0000000000000000e+00 0.0000000000000000e+00  0.0000000000000000e+00 0.0000000000000000e+00 0.0000000000000000e+00  0.0000000000000000e+00 0.0000000000000000e+00 0.0000000000000000e+00  0.0000000000000000e+00 0.0000000000000000e+00 0.0000000000000000e+00  0.0000000000000000e+00 0.0000000000000000e+00 0.0000000000000000e+00  0.0000000000000000e+00 0.0000000000000000e+00 0.0000000000000000e+00  0.0000000000000000e+00 0.0000000000000000e+00 0.0000000000000000e+00  0.0000000000000000e+00 0.0000000000000000e+00 0.0000000000000000e+00  0.0000000000000000e+00 0.0000000000000000e+00 0.0000000000000000e+00  0.0000000000000000e+00 0.0000000000000000e+00 0.0000000000000000e+00  0.0000000000000000e+00 0.0000000000000000e+00 0.0000000000000000e+00  0.0000000000000000e+00 0.0000000000000000e+00 0.0000000000000000e+00  0.0000000000000000e+00 0.0000000000000000e+00 0.0000000000000000e+00  0.0000000000000000e+00 0.0000000000000000e+00 0.0000000000000000e+00  0.0000000000000000e+00 0.0000000000000000e+00 0.0000000000000000e+00  0.0000000000000000e+00 0.0000000000000000e+00 0.0000000000000000e+00  0.0000000000000000e+00 0.0000000000000000e+00 0.0000000000000000e+00  0.0000000000000000e+00 0.0000000000000000e+00 0.0000000000000000e+00  0.0000000000000000e+00 0.0000000000000000e+00 0.0000000000000000e+00  0.0000000000000000e+00 0.0000000000000000e+00 0.0000000000000000e+00  0.0000000000000000e+00 0.0000000000000000e+00 0.0000000000000000e+00  0.0000000000000000e+00 0.0000000000000000e+00 0.0000000000000000e+00  0.0000000000000000e+00 0.0000000000000000e+00 0.0000000000000000e+00  0.0000000000000000e+00 0.0000000000000000e+00 0.0000000000000000e+00  0.0000000000000000e+00 0.0000000000000000e+00 0.0000000000000000e+00  0.0000000000000000e+00 0.0000000000000000e+00 0.0000000000000000e+00  0.0000000000000000e+00 0.0000000000000000e+00 0.0000000000000000e+00  0.0000000000000000e+00 0.0000000000000000e+00 0.0000000000000000e+00  0.0000000000000000e+00 0.0000000000000000e+00 0.0000000000000000e+00  0.0000000000000000e+00 0.0000000000000000e+00 0.0000000000000000e+00  0.0000000000000000e+00 0.0000000000000000e+00 0.0000000000000000e+00  0.0000000000000000e+00 0.0000000000000000e+00 0.0000000000000000e+00  0.0000000000000000e+00 0.0000000000000000e+00 0.0000000000000000e+00  0.0000000000000000e+00 0.0000000000000000e+00 0.0000000000000000e+00  0.0000000000000000e+00 0.0000000000000000e+00 0.0000000000000000e+00  0.0000000000000000e+00 0.0000000000000000e+00 0.0000000000000000e+00  0.0000000000000000e+00 0.0000000000000000e+00 0.0000000000000000e+00  0.0000000000000000e+00 0.0000000000000000e+00 0.0000000000000000e+00  0.0000000000000000e+00 0.0000000000000000e+00 0.0000000000000000e+00  0.0000000000000000e+00 0.0000000000000000e+00 0.0000000000000000e+00  0.0000000000000000e+00 0.0000000000000000e+00 0.0000000000000000e+00  0.0000000000000000e+00 0.0000000000000000e+00 0.0000000000000000e+00  0.0000000000000000e+00 0.0000000000000000e+00 0.0000000000000000e+00  0.0000000000000000e+00 0.0000000000000000e+00 0.0000000000000000e+00  0.0000000000000000e+00 0.0000000000000000e+00 0.0000000000000000e+00  0.0000000000000000e+00 0.0000000000000000e+00 0.0000000000000000e+00  0.0000000000000000e+00 0.0000000000000000e+00 0.0000000000000000e+00  0.0000000000000000e+00 0.0000000000000000e+00 0.0000000000000000e+00  0.0000000000000000e+00 0.0000000000000000e+00 0.0000000000000000e+00  0.0000000000000000e+00 0.0000000000000000e+00 0.0000000000000000e+00  0.0000000000000000e+00 0.0000000000000000e+00 0.0000000000000000e+00  0.0000000000000000e+00 0.0000000000000000e+00 0.0000000000000000e+00  0.0000000000000000e+00 0.0000000000000000e+00 0.0000000000000000e+00  0.0000000000000000e+00 0.0000000000000000e+00 0.0000000000000000e+00  0.0000000000000000e+00 0.0000000000000000e+00 0.0000000000000000e+00  0.0000000000000000e+00 0.0000000000000000e+00 0.0000000000000000e+00  0.0000000000000000e+00 0.0000000000000000e+00 0.0000000000000000e+00  0.0000000000000000e+00 0.0000000000000000e+00 0.0000000000000000e+00  0.0000000000000000e+00 0.0000000000000000e+00 0.0000000000000000e+00  0.0000000000000000e+00 0.0000000000000000e+00 0.0000000000000000e+00  0.0000000000000000e+00 0.0000000000000000e+00 0.0000000000000000e+00  0.0000000000000000e+00 0.0000000000000000e+00 0.0000000000000000e+00  0.0000000000000000e+00 0.0000000000000000e+00 0.0000000000000000e+00  0.0000000000000000e+00 0.0000000000000000e+00 0.0000000000000000e+00  0.0000000000000000e+00 0.0000000000000000e+00 0.0000000000000000e+00  0.0000000000000000e+00 0.0000000000000000e+00 0.0000000000000000e+00  0.0000000000000000e+00 0.0000000000000000e+00 0.0000000000000000e+00  0.0000000000000000e+00 0.0000000000000000e+00 0.0000000000000000e+00  0.0000000000000000e+00 0.0000000000000000e+00 0.0000000000000000e+00  0.0000000000000000e+00 0.0000000000000000e+00 0.0000000000000000e+00  0.0000000000000000e+00 0.0000000000000000e+00 0.0000000000000000e+00  0.0000000000000000e+00 0.0000000000000000e+00 0.0000000000000000e+00  0.0000000000000000e+00 0.0000000000000000e+00 0.0000000000000000e+00  0.0000000000000000e+00 0.0000000000000000e+00 0.0000000000000000e+00  0.0000000000000000e+00 0.0000000000000000e+00 0.0000000000000000e+00  0.0000000000000000e+00 0.0000000000000000e+00 0.0000000000000000e+00  0.0000000000000000e+00 0.0000000000000000e+00 0.0000000000000000e+00  0.0000000000000000e+00 0.0000000000000000e+00 0.0000000000000000e+00  0.0000000000000000e+00 0.0000000000000000e+00 0.0000000000000000e+00  0.0000000000000000e+00 0.0000000000000000e+00 0.0000000000000000e+00  0.0000000000000000e+00 0.0000000000000000e+00 0.0000000000000000e+00  0.0000000000000000e+00 0.0000000000000000e+00 0.0000000000000000e+00  0.0000000000000000e+00 0.0000000000000000e+00 0.0000000000000000e+00  0.0000000000000000e+00 0.0000000000000000e+00 0.0000000000000000e+00  0.0000000000000000e+00 0.0000000000000000e+00 0.0000000000000000e+00  0.0000000000000000e+00 0.0000000000000000e+00 0.0000000000000000e+00  0.0000000000000000e+00 0.0000000000000000e+00 0.0000000000000000e+00  0.0000000000000000e+00 0.0000000000000000e+00 0.0000000000000000e+00  0.0000000000000000e+00 0.0000000000000000e+00 0.0000000000000000e+00  0.0000000000000000e+00 0.0000000000000000e+00 0.0000000000000000e+00  0.0000000000000000e+00 0.0000000000000000e+00 0.0000000000000000e+00  0.0000000000000000e+00 0.0000000000000000e+00 0.0000000000000000e+00  0.0000000000000000e+00 0.0000000000000000e+00 0.0000000000000000e+00  0.0000000000000000e+00 0.0000000000000000e+00 0.0000000000000000e+00  0.0000000000000000e+00 0.0000000000000000e+00 0.0000000000000000e+00  0.0000000000000000e+00 0.0000000000000000e+00 0.0000000000000000e+00  0.0000000000000000e+00 0.0000000000000000e+00 0.0000000000000000e+00  0.0000000000000000e+00 0.0000000000000000e+00 0.0000000000000000e+00  0.0000000000000000e+00 0.0000000000000000e+00 0.0000000000000000e+00  0.0000000000000000e+00 0.0000000000000000e+00 0.0000000000000000e+00  0.0000000000000000e+00 0.0000000000000000e+00 0.0000000000000000e+00  0.0000000000000000e+00 0.0000000000000000e+00 0.0000000000000000e+00  0.0000000000000000e+00 0.0000000000000000e+00 0.0000000000000000e+00  0.0000000000000000e+00 0.0000000000000000e+00 0.0000000000000000e+00  0.0000000000000000e+00 0.0000000000000000e+00 0.0000000000000000e+00  0.0000000000000000e+00 0.0000000000000000e+00 0.0000000000000000e+00  0.0000000000000000e+00 0.0000000000000000e+00 0.0000000000000000e+00  0.0000000000000000e+00 0.0000000000000000e+00 0.0000000000000000e+00  0.0000000000000000e+00 0.0000000000000000e+00 0.0000000000000000e+00  0.0000000000000000e+00 0.0000000000000000e+00 0.0000000000000000e+00  0.0000000000000000e+00 0.0000000000000000e+00 0.0000000000000000e+00  0.0000000000000000e+00 0.0000000000000000e+00 0.0000000000000000e+00  0.0000000000000000e+00 0.0000000000000000e+00 0.0000000000000000e+00  0.0000000000000000e+00 0.0000000000000000e+00 0.0000000000000000e+00  0.0000000000000000e+00 0.0000000000000000e+00 0.0000000000000000e+00  0.0000000000000000e+00 0.0000000000000000e+00 0.0000000000000000e+00  0.0000000000000000e+00 0.0000000000000000e+00 0.0000000000000000e+00  0.0000000000000000e+00 0.0000000000000000e+00 0.0000000000000000e+00  0.0000000000000000e+00 0.0000000000000000e+00 0.0000000000000000e+00  0.0000000000000000e+00 0.0000000000000000e+00 0.0000000000000000e+00  0.0000000000000000e+00 0.0000000000000000e+00 0.0000000000000000e+00  0.0000000000000000e+00 0.0000000000000000e+00 0.0000000000000000e+00  0.0000000000000000e+00 0.0000000000000000e+00 0.0000000000000000e+00  0.0000000000000000e+00 0.0000000000000000e+00 0.0000000000000000e+00  0.0000000000000000e+00 0.0000000000000000e+00 0.0000000000000000e+00  0.0000000000000000e+00 0.0000000000000000e+00 0.0000000000000000e+00  0.0000000000000000e+00 0.0000000000000000e+00 0.0000000000000000e+00  0.0000000000000000e+00 0.0000000000000000e+00 0.0000000000000000e+00  0.0000000000000000e+00 0.0000000000000000e+00 0.0000000000000000e+00  0.0000000000000000e+00 0.0000000000000000e+00 0.0000000000000000e+00  0.0000000000000000e+00 0.0000000000000000e+00 0.0000000000000000e+00  0.0000000000000000e+00 0.0000000000000000e+00 0.0000000000000000e+00  0.0000000000000000e+00 0.0000000000000000e+00 0.0000000000000000e+00  0.0000000000000000e+00 0.0000000000000000e+00 0.0000000000000000e+00  0.0000000000000000e+00 0.0000000000000000e+00 0.0000000000000000e+00  0.0000000000000000e+00 0.0000000000000000e+00 0.0000000000000000e+00  0.0000000000000000e+00 0.0000000000000000e+00 0.0000000000000000e+00  0.0000000000000000e+00 0.0000000000000000e+00 0.0000000000000000e+00  0.0000000000000000e+00 0.0000000000000000e+00 0.0000000000000000e+00  0.0000000000000000e+00 0.0000000000000000e+00 0.0000000000000000e+00  0.0000000000000000e+00 0.0000000000000000e+00 0.0000000000000000e+00  0.0000000000000000e+00 0.0000000000000000e+00 0.0000000000000000e+00  0.0000000000000000e+00 0.0000000000000000e+00 0.0000000000000000e+00  0.0000000000000000