<?xml version="1.0"?>
<VTKFile type="UnstructuredGrid"  version="0.1"  >
<UnstructuredGrid>
<Piece  NumberOfPoints="11240" NumberOfCells="51447">
<Points>
<DataArray  type="Float64"  NumberOfComponents="3"  format="ascii">32.63205 44.004162 32.016983  33.0783987592 43.35916451715 31.3080550741  32.927248 44.0755235 31.3434725  33.183941 43.99858500000001 31.8986475  33.735832 43.993008 31.780312  33.6302897592 43.35358751715 31.1897195741  33.479139 44.0699465 31.225137  33.222446 44.146885 30.669962  33.3735967592 43.43052601715 30.6345445741  33.5247475184 42.7141670343 30.5991271482  29.606594 39.161343 34.224117  30.34830909445 40.15008095045 33.9957488718  30.10223509445 40.67100295045 33.7321078718  29.87387209445 40.15505945045 34.4893898718  29.834957 39.6772865 33.466835  30.081031 39.1563645 33.730476  30.06332 40.19323 32.709553  30.309394 39.672308 32.973194  30.555468 39.151386 33.236835  30.1411501889 41.1487759009 34.7546627436  30.594971 38.967922 34.952667  31.2218933967 39.19485467445 34.560109352  30.794838 38.6834925 34.4835645  30.5752195 39.059654 34.094751  31.2021418967 39.28658667445 33.70219335199999  30.7750865 38.7752245 33.6256485  30.994705 38.399063 34.014462  31.4217603967 38.91042517445 34.091006852  31.8488157934 39.4217873489 34.167551704  29.077311 40.00782 33.483559  29.60923059445 40.57829795045 34.1191108718  29.5703155 40.100525 33.096556  29.3419525 39.5845815 33.853838  31.006403 40.68412 36.510986  31.18814926785 40.616049422 35.78007380205  31.778636 40.4854755 36.159319  31.337469 41.101423 36.2612095  31.668535 41.518726 36.011433  31.51921526785 41.033352422 35.53029730205  32.109702 40.9027785 35.9095425  32.550869 40.286831 35.807652  31.96038226785 40.417404922 35.42840680205  31.3698955357 40.547978844 35.0491616041  33.186123 44.083988 32.895111  33.05295279335 42.4858160183 32.8504183356  33.5040266257 43.20279594365 33.21972076345  33.63397513875 43.2501815971 32.4085695098  32.73504916765 43.36700807465 32.52580857215  34.0818272775 42.4163751942 31.9220280196  33.95187876445 42.36898954075 32.73317927325  33.1829013064 42.53320167175 32.03926708195  32.2839753353 42.6500281493 32.1565061443  33.8219302514 42.3216038873 33.5443305269  31.46364 40.006874 30.657288  32.152194 40.1803115 30.262805  31.9757617247 40.61702396325001 30.8729599996  32.1087885 39.826706 30.6760655  31.5070455 40.3604795 30.2440275  31.550451 40.714085 29.830767  32.0191672247 40.97062946325 30.4596994996  32.753937 39.646538 30.694843  32.6209102247 40.43685596325 30.8917374996  32.4878834494 41.2271739265 31.0886319992  34.996326 41.402874 31.063047  34.53572963875 42.5562270971 31.2337875098  34.2605367592 42.05852051715 30.8310870741  34.53907663875 41.9096245971 31.4925375098  34.99297900000001 42.0494765 30.804297  34.989632 42.696079 30.545547  34.2571897592 42.70512301715 30.5723370741  33.80328739795 42.56527111425 31.2605775839  32.249477 42.395016 35.231583  31.6671794657 43.20286634155 34.3501451592  31.5980379657 42.34190434155 34.7580166592  32.27522400795 42.39201227055 34.4729207526  32.3186185 43.255978 34.8237115  32.38776 44.11694 34.41584  32.34436550795 43.25297427055 34.06504925260001  32.3009710159 42.3890085411 33.7142585052  31.62378497365 42.3389006121 33.9993544118  30.9465989314 42.2887926831 34.2844503184  33.00990366765 43.32151807465 31.96840907215  33.90882963875 43.2046915971 31.8511700098  32.90436142685 42.6820975918 31.37781664625  33.00628050795 43.06437927055 33.8259612526  32.652727 43.7094025 34.5873775  33.049675 43.928345 34.176752  32.917694 43.301865 34.758915  32.60933250795 42.84543677054999 34.2365867526  33.314642 43.5208075 34.3482895  33.71159 43.73975 33.937664  32.7869415 44.100464 33.6554755  32.58963749999999 44.3951515 34.0317  32.791515 44.673363 33.64756  32.988819 44.3786755 33.2713355  33.2515525 44.2065565 33.792612  33.44885650000001 43.911869 33.4163875  31.93519 43.58886 35.601837  31.49378579765 43.06798105305 34.82370920655  31.4408944657 42.93882634155 34.9431436592  31.33664229765 43.66490305305 35.00883620655  32.0923335 42.991938 35.41671  30.7380945953 43.7409461061 34.4158354131  30.84234676335 43.0148693946 34.35014286575  32.74354700795 43.23649827055 33.3046847526  32.22413000795 43.50098077055 33.2369892526  32.2675245 44.3649465 33.58778  32.147289 44.612953 32.75972  32.666706 44.3484705 32.8274155  32.002617 44.817848 31.669876  31.73967074015 44.1684461163 30.64469254415  32.6125315 44.4823665 31.169919  32.092001 45.0088825 31.169671  32.181385 45.199917 30.669466  32.34958524015 43.8329646163 30.14473554415  31.82905474015 44.3594806163 30.14448754415  32.7019155 44.673401 30.669714  31.4767244803 43.5190442326 29.6195090883  31.0728586076 42.6742531887 32.8684826783  31.91294330145 42.01663981875 32.29981788535  31.3073849376 42.02875233845 32.65580615235  31.2096113576 42.54631372595 32.0022192825  31.67841697145 42.662140669 32.5124944113  31.3463641076 42.4183742632 31.1359558867  31.4441376876 41.9008128757 31.78954275655  31.81516972145 42.53420120625 31.6462310155  31.5419112676 41.3832514882 32.4431296264  32.6473433629 41.49525903845 34.4812811792  31.80968626785 41.471497422 35.14037230205  31.9370092349 41.52243821175 34.45439172615  31.6245414698 40.6498604235 33.6772004523  32.20755263075 40.57174046045 34.39007048125  32.3348755978 40.6226812502 33.70408990535  31.49721850275 40.59891963375 34.3631810282  33.0452097258 40.5955020769 33.7309793584  30.797897 40.769867 30.784479  31.3922100869 41.3054066291 30.38875052305  31.174174 40.74197599999999 30.307623  30.822931 41.15281299999999 30.2331485  30.847965 41.535759 29.681818  31.4172440869 41.6883526291 29.83742002305  31.199208 41.124922 29.7562925  31.7684870869 41.27751562909999 29.91189452305  31.9865231738 41.8409462582 29.9930220461  33.239933 39.994793 28.424419  34.01159485045 40.96353010815 28.1009450187  33.26799785045 40.74645460815 28.4063750187  33.8437175 40.48629 28.72984  33.98353 40.2118685 28.118989  34.447502 40.977787 29.035261  33.87178235045 41.23795160815 28.7117960187  34.58731450000001 40.7033655 28.42441  34.727127 40.428944 27.813559  33.2960627009 41.4981162163 28.3883310374  31.088057 41.43483 28.437733  32.0812740869 41.03635812909999 29.53544552305  31.5372900869 41.6378881291 29.21537752305  32.19205985045 41.46647310815 28.4130320187  31.632041 40.83329999999999 28.757801  32.176025 40.23177 29.077869  32.64129293735 41.66953123725 29.19067654175  32.73604385045 40.86494310815 28.7331000187  32.21563216765 43.63149057465 32.45811307215  31.6100738038 43.64360309435 32.81410133915  32.29247317559999 42.5195183452 32.93538232475  31.68691481175 42.5316308649 33.29137059175  31.023947 39.92445 32.035454  31.1699041338 41.0765592441 31.6138043132  31.2829291338 40.6538507441 32.2392918132  31.7559152247 40.57581196325 31.5620429996  30.910922 40.3471585 31.4099665  31.6428902247 40.99852046325 30.9365554996  32.0148973585 41.30521270735 31.7658808128  31.4855904043 43.333867948 32.1258806407  32.45801266765 43.32709507465 32.08674457215  31.9892070538 43.2112681316 31.57646944335  31.65962773665 44.01093487335 32.05611906855  31.01678479045 43.21804100495 31.6156055119  30.6872054733 44.0177077467 32.0952551371  32.9320513629 41.02710803845 34.7511896792  32.09439426785 41.003346422 35.41028080205  32.7980393629 40.44116653845 34.7693156792  32.684881 40.8727725 35.789526  32.818893 41.458714 35.7714  30.812508 41.8554 36.754345  30.76986609445 41.90573445045 35.4104428718  30.47682909445 41.50208795045 35.7545038718  31.2405215 41.687063 36.382889  31.105545 42.2590465 36.410284  31.398582 42.662693 36.066223  31.5335585 42.0907095 36.038828  30.90484259445 41.33375095045 35.3830478718  31.4549660869 42.2279606291 29.03737802305  31.16234474015 42.5274016163 29.65066354415  30.885687 42.075367 28.881776  30.923409 42.614975 28.081734  31.20006674015 43.0670096163 28.85062154415  31.73162382705 42.6799952454 29.8062655672  32.00452 38.005562 34.998161  32.2531892829 38.7012261407 33.98361815375  32.7770043862 38.72103596625 34.40189080175  31.9266678967 38.71367467445 34.582856352  32.450483 38.7334845 35.00112900000001  32.896446 39.461407 35.004097  32.3726308967 39.44159717445 34.585824352  32.50073599935 43.11660563345 30.10931811825  31.6664436407 42.1296602607 30.5644889664  32.435555813 42.56627064875 30.86754151745  31.41154429395 42.9687092479 30.3777324875  32.7556353461 42.27755664625 30.29607459715  32.9573797147 41.5219831228 32.6548455121  32.38592939235 41.9386010379 31.62256907175  32.24964549115 41.4526173055 32.54898756925  32.620677525 42.08600563605 32.4056758282  32.72263158205 41.37457852465 31.87173875565  34.994839 41.676922 29.873281  34.7247525 41.973652 29.107524  33.9098117995 42.05814360385 29.6069941685  34.998421 42.3232195 29.526534  34.7211705 41.3273545 29.454271  33.9133937995 42.70444110385 29.2602471685  33.6361432995 41.70857610385 29.1879841685  35.002003 42.969517 29.179787  32.824784599 42.4393652077 29.340707337  31.1725904657 42.47574284155 35.1753366592  31.06833829765 43.20181955305 35.24102920655  31.666886 43.1257765 35.83403  29.68557300335 42.3959010133 32.4240210972  30.18238769425 42.80569132645 32.8233590527  30.45414836265 42.2715412173 33.1322028247  30.3042832483 42.7986129847 32.1603009508  29.535707889 42.9229727807 31.4521192233  29.41381233495 42.93005112245 32.1151773252  29.8354381177 41.8688292459 33.3959229711  29.5636774493 42.40297935505 33.0870791991  29.2919167809 42.9371294642 32.7782354271  31.1307685 40.3883705 30.7208835  32.75321066765 43.39845657465 31.41323407215  32.2844050538 43.2826296316 30.90295894335  32.243714 41.48872 35.8914165  31.959006 41.956871 35.621508  32.534185 41.926865 35.5014915  29.925102 40.750099 37.087387  30.0558101129 40.5945830129 36.1350611011  29.5307476129 39.9403015129 36.1114366011  29.5151596129 40.6275725129 36.42326160109999  30.4813405 40.0298385 36.48736150000001  30.4657525 40.7171095 36.7991865 
[...]
<PointData  Vectors="u"> 
<DataArray  type="Float64"  Name="u"  NumberOfComponents="3" format="ascii">0.0000000000000000e+00 0.0000000000000000e+00 0.0000000000000000e+00  0.0000000000000000e+00 0.0000000000000000e+00 0.0000000000000000e+00  0.0000000000000000e+00 0.0000000000000000e+00 0.0000000000000000e+00  0.0000000000000000e+00 0.0000000000000000e+00 0.0000000000000000e+00  0.0000000000000000e+00 0.0000000000000000e+00 0.0000000000000000e+00  0.0000000000000000e+00 0.0000000000000000e+00 0.0000000000000000e+00  0.0000000000000000e+00 0.0000000000000000e+00 0.0000000000000000e+00  0.0000000000000000e+00 0.0000000000000000e+00 0.0000000000000000e+00  0.0000000000000000e+00 0.0000000000000000e+00 0.0000000000000000e+00  0.0000000000000000e+00 0.0000000000000000e+00 0.0000000000000000e+00  0.0000000000000000e+00 0.0000000000000000e+00 0.0000000000000000e+00  0.0000000000000000e+00 0.0000000000000000e+00 0.0000000000000000e+00  0.0000000000000000e+00 0.0000000000000000e+00 0.0000000000000000e+00  0.0000000000000000e+00 0.0000000000000000e+00 0.0000000000000000e+00  0.0000000000000000e+00 0.0000000000000000e+00 0.0000000000000000e+00  0.0000000000000000e+00 0.0000000000000000e+00 0.0000000000000000e+00  0.0000000000000000e+00 0.0000000000000000e+00 0.0000000000000000e+00  0.0000000000000000e+00 0.0000000000000000e+00 0.0000000000000000e+00  0.0000000000000000e+00 0.0000000000000000e+00 0.0000000000000000e+00  0.0000000000000000e+00 0.0000000000000000e+00 0.0000000000000000e+00  0.0000000000000000e+00 0.0000000000000000e+00 0.0000000000000000e+00  0.0000000000000000e+00 0.0000000000000000e+00 0.0000000000000000e+00  0.0000000000000000e+00 0.0000000000000000e+00 0.0000000000000000e+00  0.0000000000000000e+00 0.0000000000000000e+00 0.0000000000000000e+00  0.0000000000000000e+00 0.0000000000000000e+00 0.0000000000000000e+00  0.0000000000000000e+00 0.0000000000000000e+00 0.0000000000000000e+00  0.0000000000000000e+00 0.0000000000000000e+00 0.0000000000000000e+00  0.0000000000000000e+00 0.0000000000000000e+00 0.0000000000000000e+00  0.0000000000000000e+00 0.0000000000000000e+00 0.0000000000000000e+00  0.0000000000000000e+00 0.0000000000000000e+00 0.0000000000000000e+00  0.0000000000000000e+00 0.0000000000000000e+00 0.0000000000000000e+00  0.0000000000000000e+00 0.0000000000000000e+00 0.0000000000000000e+00  0.0000000000000000e+00 0.0000000000000000e+00 0.0000000000000000e+00  0.0000000000000000e+00 0.0000000000000000e+00 0.0000000000000000e+00  0.0000000000000000e+00 0.0000000000000000e+00 0.0000000000000000e+00  0.0000000000000000e+00 0.0000000000000000e+00 0.0000000000000000e+00  0.0000000000000000e+00 0.0000000000000000e+00 0.0000000000000000e+00  0.0000000000000000e+00 0.0000000000000000e+00 0.0000000000000000e+00  0.0000000000000000e+00 0.0000000000000000e+00 0.0000000000000000e+00  0.0000000000000000e+00 0.0000000000000000e+00 0.0000000000000000e+00  0.0000000000000000e+00 0.0000000000000000e+00 0.0000000000000000e+00  0.0000000000000000e+00 0.0000000000000000e+00 0.0000000000000000e+00  0.0000000000000000e+00 0.0000000000000000e+00 0.0000000000000000e+00  0.0000000000000000e+00 0.0000000000000000e+00 0.0000000000000000e+00  0.0000000000000000e+00 0.0000000000000000e+00 0.0000000000000000e+00  0.0000000000000000e+00 0.0000000000000000e+00 0.0000000000000000e+00  0.0000000000000000e+00 0.0000000000000000e+00 0.0000000000000000e+00  0.0000000000000000e+00 0.0000000000000000e+00 0.0000000000000000e+00  0.0000000000000000e+00 0.0000000000000000e+00 0.0000000000000000e+00  0.0000000000000000e+00 0.0000000000000000e+00 0.0000000000000000e+00  0.0000000000000000e+00 0.0000000000000000e+00 0.0000000000000000e+00  0.0000000000000000e+00 0.0000000000000000e+00 0.0000000000000000e+00  0.0000000000000000e+00 0.0000000000000000e+00 0.0000000000000000e+00  0.0000000000000000e+00 0.0000000000000000e+00 0.0000000000000000e+00  0.0000000000000000e+00 0.0000000000000000e+00 0.0000000000000000e+00  0.0000000000000000e+00 0.0000000000000000e+00 0.0000000000000000e+00  0.0000000000000000e+00 0.0000000000000000e+00 0.0000000000000000e+00  0.0000000000000000e+00 0.0000000000000000e+00 0.0000000000000000e+00  0.0000000000000000e+00 0.0000000000000000e+00 0.0000000000000000e+00  0.0000000000000000e+00 0.0000000000000000e+00 0.0000000000000000e+00  0.0000000000000000e+00 0.0000000000000000e+00 0.0000000000000000e+00  0.0000000000000000e+00 0.0000000000000000e+00 0.0000000000000000e+00  0.0000000000000000e+00 0.0000000000000000e+00 0.0000000000000000e+00  0.0000000000000000e+00 0.0000000000000000e+00 0.0000000000000000e+00  0.0000000000000000e+00 0.0000000000000000e+00 0.0000000000000000e+00  0.0000000000000000e+00 0.0000000000000000e+00 0.0000000000000000e+00  0.0000000000000000e+00 0.0000000000000000e+00 0.0000000000000000e+00  0.0000000000000000e+00 0.0000000000000000e+00 0.0000000000000000e+00  0.0000000000000000e+00 0.0000000000000000e+00 0.0000000000000000e+00  0.0000000000000000e+00 0.0000000000000000e+00 0.0000000000000000e+00  0.0000000000000000e+00 0.0000000000000000e+00 0.0000000000000000e+00  0.0000000000000000e+00 0.0000000000000000e+00 0.0000000000000000e+00  0.0000000000000000e+00 0.0000000000000000e+00 0.0000000000000000e+00  0.0000000000000000e+00 0.0000000000000000e+00 0.0000000000000000e+00  0.0000000000000000e+00 0.0000000000000000e+00 0.0000000000000000e+00  0.0000000000000000e+00 0.0000000000000000e+00 0.0000000000000000e+00  0.0000000000000000e+00 0.0000000000000000e+00 0.0000000000000000e+00  0.0000000000000000e+00 0.0000000000000000e+00 0.0000000000000000e+00  0.0000000000000000e+00 0.0000000000000000e+00 0.0000000000000000e+00  0.0000000000000000e+00 0.0000000000000000e+00 0.0000000000000000e+00  0.0000000000000000e+00 0.0000000000000000e+00 0.0000000000000000e+00  0.0000000000000000e+00 0.0000000000000000e+00 0.0000000000000000e+00  0.0000000000000000e+00 0.0000000000000000e+00 0.0000000000000000e+00  0.0000000000000000e+00 0.0000000000000000e+00 0.0000000000000000e+00  0.0000000000000000e+00 0.0000000000000000e+00 0.0000000000000000e+00  0.0000000000000000e+00 0.0000000000000000e+00 0.0000000000000000e+00  0.0000000000000000e+00 0.0000000000000000e+00 0.0000000000000000e+00  0.0000000000000000e+00 0.0000000000000000e+00 0.0000000000000000e+00  0.0000000000000000e+00 0.0000000000000000e+00 0.0000000000000000e+00  0.0000000000000000e+00 0.0000000000000000e+00 0.0000000000000000e+00  0.0000000000000000e+00 0.0000000000000000e+00 0.0000000000000000e+00  0.0000000000000000e+00 0.0000000000000000e+00 0.0000000000000000e+00  0.0000000000000000e+00 0.0000000000000000e+00 0.0000000000000000e+00  0.0000000000000000e+00 0.0000000000000000e+00 0.0000000000000000e+00  0.0000000000000000e+00 0.0000000000000000e+00 0.0000000000000000e+00  0.0000000000000000e+00 0.0000000000000000e+00 0.0000000000000000e+00  0.0000000000000000e+00 0.0000000000000000e+00 0.0000000000000000e+00  0.0000000000000000e+00 0.0000000000000000e+00 0.0000000000000000e+00  0.0000000000000000e+00 0.0000000000000000e+00 0.0000000000000000e+00  0.0000000000000000e+00 0.0000000000000000e+00 0.0000000000000000e+00  0.0000000000000000e+00 0.0000000000000000e+00 0.0000000000000000e+00  0.0000000000000000e+00 0.0000000000000000e+00 0.0000000000000000e+00  0.0000000000000000e+00 0.0000000000000000e+00 0.0000000000000000e+00  0.0000000000000000e+00 0.0000000000000000e+00 0.0000000000000000e+00  0.0000000000000000e+00 0.0000000000000000e+00 0.0000000000000000e+00  0.0000000000000000e+00 0.0000000000000000e+00 0.0000000000000000e+00  0.0000000000000000e+00 0.0000000000000000e+00 0.0000000000000000e+00  0.0000000000000000e+00 0.0000000000000000e+00 0.0000000000000000e+00  0.0000000000000000e+00 0.0000000000000000e+00 0.0000000000000000e+00  0.0000000000000000e+00 0.0000000000000000e+00 0.0000000000000000e+00  0.0000000000000000e+00 0.0000000000000000e+00 0.0000000000000000e+00  0.0000000000000000e+00 0.0000000000000000e+00 0.0000000000000000e+00  0.0000000000000000e+00 0.0000000000000000e+00 0.0000000000000000e+00  0.0000000000000000e+00 0.0000000000000000e+00 0.0000000000000000e+00  0.0000000000000000e+00 0.0000000000000000e+00 0.0000000000000000e+00  0.0000000000000000e+00 0.0000000000000000e+00 0.0000000000000000e+00  0.0000000000000000e+00 0.0000000000000000e+00 0.0000000000000000e+00  0.0000000000000000e+00 0.0000000000000000e+00 0.0000000000000000e+00  0.0000000000000000e+00 0.0000000000000000e+00 0.0000000000000000e+00  0.0000000000000000e+00 0.0000000000000000e+00 0.0000000000000000e+00  0.0000000000000000e+00 0.0000000000000000e+00 0.0000000000000000e+00  0.0000000000000000e+00 0.0000000000000000e+00 0.0000000000000000e+00  0.0000000000000000e+00 0.0000000000000000e+00 0.0000000000000000e+00  0.0000000000000000e+00 0.0000000000000000e+00 0.0000000000000000e+00  0.0000000000000000e+00 0.0000000000000000e+00 0.0000000000000000e+00  0.0000000000000000e+00 0.0000000000000000e+00 0.0000000000000000e+00  0.0000000000000000e+00 0.0000000000000000e+00 0.0000000000000000e+00  0.0000000000000000e+00 0.0000000000000000e+00 0.0000000000000000e+00  0.0000000000000000e+00 0.0000000000000000e+00 0.0000000000000000e+00  0.0000000000000000e+00 0.0000000000000000e+00 0.0000000000000000e+00  0.0000000000000000e+00 0.0000000000000000e+00 0.0000000000000000e+00  0.0000000000000000e+00 0.0000000000000000e+00 0.0000000000000000e+00  0.0000000000000000e+00 0.0000000000000000e+00 0.0000000000000000e+00  0.0000000000000000e+00 0.0000000000000000e+00 0.0000000000000000e+00  0.0000000000000000e+00 0.0000000000000000e+00 0.0000000000000000e+00  0.0000000000000000e+00 0.0000000000000000e+00 0.0000000000000000e+00  0.0000000000000000e+00 0.0000000000000000e+00 0.0000000000000000e+00  0.0000000000000000e+00 0.0000000000000000e+00 0.0000000000000000e+00  0.0000000000000000e+00 0.0000000000000000e+00 0.0000000000000000e+00  0.0000000000000000e+00 0.0000000000000000e+00 0.0000000000000000e+00  0.0000000000000000e+00 0.0000000000000000e+00 0.0000000000000000e+00  0.0000000000000000e+00 0.0000000000000000e+00 0.0000000000000000e+00  0.0000000000000000e+00 0.0000000000000000e+00 0.0000000000000000e+00  0.0000000000000000e+00 0.0000000000000000e+00 0.0000000000000000e+00  0.0000000000000000e+00 0.0000000000000000e+00 0.0000000000000000e+00  0.0000000000000000e+00 0.0000000000000000e+00 0.0000000000000000e+00  0.0000000000000000e+00 0.0000000000000000e+00 0.0000000000000000e+00  0.0000000000000000e+00 0.0000000000000000e+00 0.0000000000000000e+00  0.0000000000000000e+00 0.0000000000000000e+00 0.0000000000000000e+00  0.0000000000000000e+00 0.0000000000000000e+00 0.0000000000000000e+00  0.0000000000000000e+00 0.0000000000000000e+00 0.0000000000000000e+00  0.0000000000000000e+00 0.0000000000000000e+00 0.0000000000000000e+00  0.0000000000000000e+00 0.0000000000000000e+00 0.0000000000000000e+00  0.0000000000000000e+00 0.0000000000000000e+00 0.0000000000000000e+00  0.0000000000000000e+00 0.0000000000000000e+00 0.0000000000000000e+00  0.0000000000000000e+00 0.0000000000000000e+00 0.0000000000000000e+00  0.0000000000000000e+00 0.0000000000000000e+00 0.0000000000000000e+00  0.0000000000000000e+00 0.0000000000000000e+00 0.0000000000000000e+00  0.0000000000000000e+00 0.0000000000000000e+00 0.0000000000000000e+00  0.0000000000000000e+00 0.0000000000000000e+00 0.0000000000000000e+00  0.0000000000000000e+00 0.0000000000000000e+00 0.0000000000000000e+00  0.0000000000000000e+00 0.0000000000000000e+00 0.0000000000000000e+00  0.0000000000000000e+00 0.0000000000000000e+00 0.0000000000000000e+00  0.0000000000000000e+00 0.0000000000000000e+00 0.0000000000000000e+00  0.0000000000000000e+00 0.0000000000000000e+00 0.0000000000000000e+00  0.0000000000000000e+00 0.0000000000000000e+00 0.0000000000000000e+00  0.0000000000000000e+00 0.0000000000000000e+00 0.0000000000000000e+00  0.0000000000000000e+00 0.0000000000000000e+00 0.0000000000000000e+00  0.0000000000000000e+00 0.0000000000000000e+00 0.0000000000000000e+00  0.0000000000000000e+00 0.0000000000000000e+00 0.0000000000000000e+00  0.0000000000000000e+00 0.0000000000000000e+00 0.0000000000000000e+00  0.0000000000000000e+00 0.0000000000000000e+00 0.0000000000000000e+00  0.0000000000000000e+00 0.0000000000000000e+00 0.0000000000000000e+00  0.0000000000000000e+00 0.0000000000000000e+00 0.0000000000000000e+00  0.0000000000000000e+00 0.0000000000000000e+00 0.0000000000000000e+00  0.0000000000000000e+00 0.0000000000000000e+00 0.0000000000000000e+00  0.0000000000000000e+00 0.0000000000000000e+00 0.0000000000000000e+00  0.0000000000000000e+00 0.0000000000000000e+00 0.0000000000000000e+00  0.0000000000000000e+00 0.0000000000000000e+00 0.0000000000000000e+00  0.0000000000000000e+00 0.0000000000000000e+00 0.0000000000000000e+00  0.0000000000000000e+00 0.0000000000000000e+00 0.0000000000000000e+00  0.0000000000000000e+00 0.0000000000000000e+00 0.0000000000000000e+00  0.0000000000000000e+00 0.0000000000000000e+00 0.0000000000000000e+00  0.0000000000000000e+00 0.0000000000000000e+00 0.0000000000000000e+00  0.0000000000000000e+00 0.0000000000000000e+00 0.0000000000000000e+00  0.0000000000000000e+00 0.0000000000000000e+00 0.0000000000000000e+00  0.0000000000000000e+00 0.0000000000000000e+00 0.0000000000000000e+00  0.0000000000000000e+00 0.0000000000000000e+00 0.0000000000000000e+00  0.0000000000000000e+00 0.0000000000000000e+00 0.0000000000000000e+00  0.0000000000000000e+00 0.0000000000000000e+00 0.0000000000000000e+00  0.0000000000000000e+00 0.0000000000000000e+00 0.0000000000000000e+00  0.0000000000000000e+00 0.0000000000000000e+00 0.0000000000000000e+00  0.0000000000000000e+00 0.0000000000000000e+00 0.0000000000000000e+00  0.0000000000000000e+00 0.0000000000000000e+00 0.0000000000000000e+00  0.0000000000000000e+00 0.0000000000000000e+00 0.0000000000000000e+00  0.0000000000000000e+00 0.0000000000000000e+00 0.0000000000000000e+00  0.0000000000000000e+00 0.0000000000000000e+00 0.0000000000000000e+00  0.0000000000000000e+00 0.0000000000000000e+00 0.0000000000000000e+00  0.0000000000000000e+00 0.0000000000000000e+00 0.0000000000000000e+00  0.0000000000000000e+00 0.0000000000000000e+00 0.0000000000000000e+00  0.0000000000000000e+00 0.0000000000000000e+00 0.0000000000000000e+00  0.0000000000000000e+00 0.0000000000000000e+00 0.0000000000000000e+00  0.0000000000000000e+00 0.0000000000000000e+00 0.0000000000000000e+00  0.0000000000000000e+00 0.0000000000000000e+00 0.0000000000000000e+00  0.0000000000000000e+00 0.0000000000000000e+00 0.0000000000000000e+00  0.0000000000000000e+00 0.0000000000000000e+00 0.0000000000000000e+00  0.0000000000000000e+00 0.0000000000000000e+00 0.0000000000000000e+00  0.0000000000000000e+00 0.0000000000000000e+00 0.0000000000000000e+00  0.0000000000000000e+00 0.0000000000000000e+00 0.0000000000000000e+00  0.0000000000000000e+00 0.0000000000000000e+00 0.0000000000000000e+00  0.0000000000000000e+00 0.0000000000000000e+00 0.0000000000000000e+00  0.0000000000000000e+00 0.0000000000000000e+00 0.0000000000000000e+00  0.0000000000000000e+00 0.0000000000000000e+00 0.0000000000000000e+00  0.0000000000000000e+00 0.0000000000000000e+00 0.0000000000000000e+00  0.0000000000000000e+00 0.0000000000000000e+00 0.0000000000000000e+00  0.0000000000000000e+00 0.0000000000000000e+00 0.0000000000000000e+00  0.0000000000000000e+00 0.0000000000000000e+00 0.0000000000000000e+00  0.0000000000000000e+00 0.0000000000000000e+00 0.0000000000000000e+00  0.0000000000000000e+00 0.0000000000000000e+00 0.0000000000000000e+00  0.0000000000000000e+00 0.0000000000000000e+00 0.0000000000000000e+00  0.0000000000000000e+00 0.0000000000000000e+00 0.0000000000000000e+00  0.0000000000000000e+00 0.0000000000000000e+00 0.0000000000000000e+00  0.0000000000000000e+00 0.0000000000000000e+00 0.0000000000000000e+00  0.0000000000000000e+00 0.0000000000000000e+00 0.0000000000000000e+00  0.0000000000000000e+00 0.0000000000000000e+00 0.0000000000000000e+00  0.0000000000000000e+00 0.0000000000000000e+00 0.0000000000000000e+00  0.0000000000000000e+00 0.0000000000000000e+00 0.0000000000000000e+00  0.0000000000000000e+00 0.0000000000000000e+00 0.0000000000000000e+00  0.0000000000000000e+00 0.0000000000000000e+00 0.0000000000000000e+00  0.0000000000000000e+00 0.0000000000000000e+00 0.0000000000000000e+00  0.0000000000000000e+00 0.0000000000000000e+00 0.0000000000000000e+00  0.0000000000000000e+00 0.0000000000000000e+00 0.0000000000000000e+00  0.0000000000000000e+00 0.0000000000000000e+00 0.0000000000000000e+00  0.0000000000000000e+00 0.0000000000000000e+00 0.0000000000000000e+00  0.0000000000000000e+00 0.0000000000000000e+00 0.0000000000000000e+00  0.0000000000000000e+00 0.0000000000000000e+00 0.0000000000000000e+00  0.0000000000000000e+00 0.0000000000000000e+00 0.0000000000000000e+00  0.0000000000000000e+00 0.0000000000000000e+00 0.0000000000000000e+00  0.0000000000000000e+00 0.0000000000000000e+00 0.0000000000000000e+00  0.0000000000000000e+00 0.0000000000000000e+00 0.0000000000000000e+00  0.0000000000000000e+00 0.0000000000000000e+00 0.0000000000000000e+00  0.0000000000000000e+00 0.0000000000000000e+00 0.0000000000000000e+00  0.0000000000000000e+00 0.0000000000000000e+00 0.0000000000000000e+00  0.0000000000000000e+00 0.0000000000000000e+00 0.0000000000000000e+00  0.0000000000000000e+00 0.0000000000000000e+00 0.0000000000000000e+00  0.0000000000000000e+00 0.0000000000000000e+00 0.0000000000000000e+00  0.0000000000000000e+00 0.0000000000000000e+00 0.0000000000000000e+00  0.0000000000000000e+00 0.0000000000000000e+00 0.0000000000000000e+00  0.0000000000000000e+00 0.0000000000000000e+00 0.0000000000000000e+00  0.0000000000000000e+00 0.0000000000000000e+00 0.0000000000000000e+00  0.0000000000000000e+00 0.0000000000000000e+00 0.0000000000000000e+00  0.0000000000000000e+00 0.0000000000000000e+00 0.0000000000000000e+00  0.0000000000000000e+00 0.0000000000000000e+00 0.0000000000000000e+00  0.0000000000000000e+00 0.0000000000000000e+00 0.0000000000000000e+00  0.0000000000000000e+00 0.0000000000000000e+00 0.0000000000000000e+00  0.0000000000000000e+00 0.0000000000000000e+00 0.0000000000000000e+00  0.0000000000000000e+00 0.0000000000000000e+00 0.0000000000000000e+00  0.0000000000000000e+00 0.0000000000000000e+00 0.0000000000000000e+00  0.0000000000000000e+00 0.0000000000000000e+00 0.0000000000000000e+00  0.0000000000000000e+00 0.0000000000000000e+00 0.0000000000000000e+00  0.0000000000000000e+00 0.0000000000000000e+00 0.0000000000000000e+00  0.0000000000000000e+00 0.0000000000000000e+00 0.0000000000000000e+00  0.0000000000000000e+00 0.0000000000000000e+00 0.0000000000000000e+00  0.0000000000000000e+00 0.0000000000000000e+00 0.0000000000000000e+00  0.0000000000000000e+00 0.0000000000000000e+00 0.0000000000000000e+00  0.0000000000000000e+00 0.0000000000000000e+00 0.0000000000000000e+00  0.0000000000000000e+00 0.0000000000000000e+00 0.0000000000000000e+00  0.0000000000000000e+00 0.0000000000000000e+00 0.0000000000000000e+00  0.0000000000000000e+00 0.0000000000000000e+00 0.0000000000000000e+00  0.0000000000000000e+00 0.0000000000000000e+00 0.0000000000000000e+00  0.0000000000000000e+00 0.0000000000000000e+00 0.0000000000000000e+00  0.0000000000000000e+00 0.0000000000000000e+00 0.0000000000000000e+00  0.0000000000000000e+00 0.0000000000000000e+00 0.0000000000000000e+00  0.0000000000000000e+00 0.0000000000000000e+00 0.0000000000000000e+00  0.0000000000000000e+00 0.0000000000000000e+00 0.0000000000000000e+00  0.0000000000000000e+00 0.0000000000000000e+00 0.0000000000000000e+00  0.0000000000000000e+00 0.0000000000000000e+00 0.0000000000000000e+00  0.0000000000000000e+00 0.0000000000000000e+00 0.0000000000000000e+00  0.0000000000000000e+00 0.0000000000000000e+00 0.0000000000000000e+00  0.0000000000000000e+00 0.0000000000000000e+00 0.0000000000000000e+00  0.0000000000000000e+00 0.0000000000000000e+00 0.0000000000000000e+00  0.0000000000000000e+00 0.0000000000000000e+00 0.0000000000000000e+00  0.0000000000000000e+00 0.0000000000000000e+00 0.0000000000000000e+00  0.0000000000000000e+00 0.0000000000000000e+00 0.0000000000000000e+00  0.0000000000000000