<?xml version="1.0"?>
<VTKFile type="UnstructuredGrid"  version="0.1"  >
<UnstructuredGrid>
<Piece  NumberOfPoints="11598" NumberOfCells="52380">
<Points>
<DataArray  type="Float64"  NumberOfComponents="3"  format="ascii">12.706896 30.536581 26.134775  13.34077127935 30.1733607487 25.56616724545  13.19483227935 30.6750317487 25.55266674545  13.77557427935 30.7422342487 25.98436274545  13.6827685587 30.8134824974 24.9705584909  4.715004 24.159513 32.84391  4.33356127735 23.94200513985 31.91232276515  4.18964327735 24.43804313985 32.16770126515  4.8622255 23.963762 32.096799  4.858922 23.663475 32.5885315  5.00284 23.167437 32.333153  5.0061435 23.467724 31.8414205  5.009447 23.768011 31.349688  4.33686477735 24.24229213985 31.42059026515  3.6642825547 24.7165732797 31.4914925303  6.399561 25.268614 29.069775  5.657121500000001 24.381897 28.955672  6.062943000000001 24.821912 28.509697  6.382054500000001 24.405265 29.0789815  5.9937395 24.828599 29.51575  5.587918 24.388584 29.961725  5.726325 24.37521 27.949619  3.87347188615 24.3235174469 32.76336258155  3.6926634476 23.8591687529 32.2947673556  2.6703228952 23.5588245058 31.7456247112  2.85113133375 24.0231731998 32.21421993715001  3.16730272495 24.13769889275 31.61855862075  3.3481111635 24.60204758675 32.08715384670001  3.0319397723 24.4875218938 32.6828151631  4.26925 26.665411 33.130932  3.4727777844 26.7522327556 33.09545403985  3.41041744695 26.18048211135 32.53281065225  4.050068 26.313757 33.4384405  3.830886 25.962103 33.745949  3.2535957844 26.4005787556 33.40296253985  3.19123544695 25.82882811135 32.84031915225  2.5515848939 25.6955532227 31.9346893045  2.61394523135 26.26730386695 32.4973326921  2.6763055688 26.8390545112 33.0599760797  3.491018 24.459089 29.976038  4.08902784455 24.17205441125 30.80926321595  3.5573917666 23.6221778292 30.97315629185  3.57765027735 24.58783113985 30.73376526515  4.292102 25.156191 33.116638  4.860572 24.706637 32.553888  4.503553 24.657852 32.980274  4.649121 25.204976 32.690252  3.97819227735 24.93638213985 32.30406526515  5.00614 25.253761 32.263866  4.33521127735 24.98516713985 31.87767926515  3.43141288615 25.2248124469 33.21438208155  4.061494 25.559147 33.4312935  3.66202088615 24.8218564469 32.89972658155  3.42184344695 25.42587211135 32.52566365225  2.7917623331 25.09153755825 32.3087522338  5.007498 25.299364 30.992445  4.7606355672 24.4634497714 30.5597394508  4.33589027735 25.00796863985 31.24196876515  4.249258 24.8792265 30.4842415  4.994251 26.444267 32.394276  4.32926677735 25.58042013985 31.94288426515  5.0001955 25.849014 32.329071  4.6431765 25.800229 32.755457  5.01196 26.59631 31.105066  4.33812127735 25.65644163985 31.29827926515  5.009729 25.947837 31.0487555  5.00905 25.9250355 31.684466  5.006819 25.2765625 31.6281555  0.497961 23.699034 31.173857  1.5566582891 23.7527800186 30.8565697373  0.9943182891 23.5291900186 31.4613022373  1.1861647712 24.16707439955 31.2309208173  1.060301 23.922624 30.5691245  1.622641 24.146214 29.964392  1.7485047712 24.39066439955 30.6261883173  1.8743685424 24.6351147991 31.2879846346  1.6825220603 23.99723041815 31.5183660546  1.4906755782 23.3593460372 31.7487474746  3.8365814476 23.3631307529 32.0393888556  4.369755 23.494441 33.1464135  4.024506 22.829369 33.448917  3.3474144476 23.1940967529 32.5972708556  4.513673 22.998403 32.891035  2.6359034509 26.90038612255 31.3025351431  3.0474269982 26.847933532 31.88550591755  2.20242168405 26.3197564575 31.91436191765  2.98506666075 26.27618288775 31.32286252995  2.2647820215 26.89150710175 32.47700530525  3.4185484276 26.8568125528 30.7110357554  1.8532584742 26.9439596923 31.8940345308  0.500929 26.472939 33.538822  0.5061875 25.324689 33.0553475  1.17587232465 25.7695164033 33.29908162555  0.504494 25.6074985 33.6283205  0.5026225 26.1901295 32.96584900000001  0.504316 25.90732 32.392876  1.17756582465 25.4867069033 32.72610862555  0.508059 24.742058 33.717819  1.17943732465 24.9040759033 33.38858012555  1.8508156493 25.0660938066 33.0593412511  2.055654 25.856461 34.278152  2.26356060905 25.9525741589 33.0596586654  2.41384532465 25.1903814033 33.53247462555  1.95323482465 25.4612774033 33.66874662555  2.8265902844 26.0768617556 33.53279203985  2.3659797844 26.3477577556 33.66906403985  2.5162645 25.585565 34.14188  2.976875 25.314669 34.005608  2.469864 24.820198 30.018139  3.06707327735 24.76838563985 30.75481576515  2.1721162712 24.72765639955 30.6530618173  2.5700934476 24.1895112529 30.8818818556  2.76932554855 24.6758440394 31.38973858245  2.2723457188 24.09696965245 31.5168046729  1.0769107891 23.5761250186 30.9502987373  1.3103930279 23.1621658616 30.4972045278  0.5805534999999999 23.745969 30.6628535  0.663146 23.792904 30.15185  1.84245397225 24.15250803455 32.0734813096  2.0804992367 23.4590852715 31.7471860929  2.24043114865 23.6143628879 32.3023013479  1.8105394021 23.66990127 32.8589779846  1.65060749015 23.5146236536 32.3038627296  0.502379 25.79673 31.448265  1.74853494695 25.64147661135 31.22756215225  1.1883737712 25.21592239955 31.3681248173  1.52698194695 25.74614161135 31.69147715225  0.723932 25.692065 30.98435  0.945485 25.5874 30.520435  1.4099267712 25.11125739955 30.9042098173  2.21297671815 25.1653340109 31.61133696955  3.8398849476 23.6634177529 31.5476563556  2.3135070789 22.9462657004 32.05892750805  2.91752270105 23.249635135 33.15394749230001  1.1893422712 25.27121739955 31.8404303173  1.52795044695 25.80143661135 32.16378265225  0.5033475000000001 25.852025 31.9205705  3.77291794695 26.06991011135 32.16448265225  3.1079337243 25.2060632512 31.7130909174  0.493935 24.863991 31.079664  1.2687572712 24.21400939955 30.7199173173  1.1841517712 24.74955289955 31.1838243173  0.495948 24.2815125 31.1267605  0.5785405 24.3284475 30.615757  1.1859607712 24.14971189955 31.8150453173  0.495744 24.26415 31.710885  0.497553 23.664309 32.342106  0.497757 23.6816715 31.7579815  1.86259209585 24.85060430285 32.17366294285  2.2012002716 25.38082351465 32.4970152778  3.787354 25.516932 29.799562  2.9442062138 25.8385052764 30.3645873777  3.6029512138 26.1868722764 30.2552988777  3.16946944695 25.60624261135 30.86712565225  3.128609 25.168565 29.9088505  2.51072444695 25.25787561135 30.97641415225  3.6344885 25.23543 33.561123  3.4038805 25.638386 33.8757785  3.00440738615 24.9010954469 33.34421158155  3.72581827735 25.11675263985 30.64552726515  4.397426 25.408148 30.3960035  3.639186 24.9880105 29.8878  2.76422994695 25.50511111135 32.97014865225  2.4413777108 24.7768078502 32.8710782071  2.45315415735 24.56131834645 31.98539989885  4.1630515 24.2879435 33.3820475  3.9516005 24.7862825 33.5184115  3.611099 24.416374 33.920185  3.32151938615 24.4519479469 33.30150008155  3.293987 24.8655215 33.9628965  2.980441 24.6396435 29.9970885  3.7209925 25.1892385 33.833067  5.2986825 24.0782975 30.6557065  5.297708 24.843974 30.477085  5.0084725 24.5336875 31.1710665  1.100953 25.392414 34.33984  0.8045060000000001 25.067236 34.0288295  1.0911585 24.8689775 34.4324035  0.7991685000000001 25.142582 34.4219225  0.497384 24.89275 34.504005  0.7947115 24.5437995 34.121393  0.5027215 24.817404 34.110912  0.789374 24.6191455 34.514486  1.081364 24.345541 34.524967  3.54141549115 25.78669291625 31.10126414285  2.0462525 24.483206 29.9912655  2.1464819476 23.8525192529 30.8550083556  1.797378 25.668697 29.965796  1.8358732712 25.15190589955 30.6268903173  2.17448144695 25.68212511135 30.95024265225  2.133621 25.2444475 29.9919675  5.0077935 24.510886 31.806777  2.56205788615 24.3433769469 33.45039558155  2.8516375 24.307803 34.0690805  2.5345255 24.7569505 34.111792  2.092176 24.199232 34.217976  0.500414 25.354266 32.477192  0.496512 24.801212 32.561508  1.1854402712 24.71816339955 31.9247463173  1.17366382465 24.9336529033 32.81042462555  0.498157 25.3303605 31.2639645  0.4994455 25.298971 32.0048865  0.4952235 24.8326015 31.820586  1.5886172844 26.6559967556 33.29939903985  1.2782915 26.1647 33.908487  1.8253182371 26.30632834615 30.9299152654  2.6079632138 26.2627547764 30.3384158777  0.800941 25.9326765 33.939331  1.47588432465 25.2292539033 33.69959062555  1.3001175 24.470645 33.9678975  1.46608982465 24.7058174033 33.79215412555  1.58677 24.2723865 34.3714715  1.97149582465 24.6326629033 33.63865862555  3.52822288615 23.6584454469 33.06586608155  3.04599788615 23.9546849469 33.58447258155  3.8178025 23.6228715 33.684551  1.15929920105 24.205979635 33.2883984923  0.5022855000000001 24.771635 33.1396635  1.15352570105 24.235556635 32.7102429923  1.8306775257 24.3679975383 32.95915961785001  4.2063997138 26.6505397764 31.5526558777  1.5965645 24.795823 34.278908  1.5903107844 26.3731872556 32.72642603985  0.5028060000000001 24.2031835 33.0299625  0.4970325 24.2327605 32.451807  1.15404620105 23.667105135 32.6005419923  1.1428935 23.969559 30.058121  4.280676 25.910801 33.123785  3.0806704476 24.0089567529 30.8608313556  0.9935937891000001 24.0802790186 32.1551277373  0.9941142891000001 23.5118275186 32.0454267373  0.7197100000000001 25.2256955 30.8000495  2.4212395872 24.0787115819 32.77089657385  1.5783035 25.6244375 34.308996  4.2130232138 26.0780882764 30.8517403777  1.3714315 25.6280485 30.2431155  1.44595170105 24.007721135 33.6919724923  0.792665 23.838104 34.11923  0.5060125 24.0363625 33.715656  4.2152542138 26.7265612764 30.9080508777  5.0031055 26.5202885 31.749671  1.95135770105 23.934566635 33.53847699230001  3.8438992138 26.7611117764 31.9209838777  4.631750500000001 26.554839 32.762604  4.6477375 25.0464305 30.055414  3.8894975 24.626293 29.5472105  4.0376655 25.1552145 29.4589725  4.287977 24.793497 29.118383  1.85203706175 26.00502674945 32.47668789095  1.1787872371 26.42563984615 32.1434552654  1.058288 24.5051025 30.522028  1.3993717371 26.26567984615 31.2072347654  1.284063 24.866807 30.2424135  1.7100095 24.9074555 29.965094  2.073915 25.0278465 34.248064  1.1778187371 26.37034484615 31.6711497654  10.999126 40.486637 28.443371  11.007547 40.031286 27.755063  10.35103654135 40.3067640
[...]
<PointData  Vectors="u"> 
<DataArray  type="Float64"  Name="u"  NumberOfComponents="3" format="ascii">0.0000000000000000e+00 0.0000000000000000e+00 0.0000000000000000e+00  0.0000000000000000e+00 0.0000000000000000e+00 0.0000000000000000e+00  0.0000000000000000e+00 0.0000000000000000e+00 0.0000000000000000e+00  0.0000000000000000e+00 0.0000000000000000e+00 0.0000000000000000e+00  0.0000000000000000e+00 0.0000000000000000e+00 0.0000000000000000e+00  0.0000000000000000e+00 0.0000000000000000e+00 0.0000000000000000e+00  0.0000000000000000e+00 0.0000000000000000e+00 0.0000000000000000e+00  0.0000000000000000e+00 0.0000000000000000e+00 0.0000000000000000e+00  0.0000000000000000e+00 0.0000000000000000e+00 0.0000000000000000e+00  0.0000000000000000e+00 0.0000000000000000e+00 0.0000000000000000e+00  0.0000000000000000e+00 0.0000000000000000e+00 0.0000000000000000e+00  0.0000000000000000e+00 0.0000000000000000e+00 0.0000000000000000e+00  0.0000000000000000e+00 0.0000000000000000e+00 0.0000000000000000e+00  0.0000000000000000e+00 0.0000000000000000e+00 0.0000000000000000e+00  0.0000000000000000e+00 0.0000000000000000e+00 0.0000000000000000e+00  0.0000000000000000e+00 0.0000000000000000e+00 0.0000000000000000e+00  0.0000000000000000e+00 0.0000000000000000e+00 0.0000000000000000e+00  0.0000000000000000e+00 0.0000000000000000e+00 0.0000000000000000e+00  0.0000000000000000e+00 0.0000000000000000e+00 0.0000000000000000e+00  0.0000000000000000e+00 0.0000000000000000e+00 0.0000000000000000e+00  0.0000000000000000e+00 0.0000000000000000e+00 0.0000000000000000e+00  0.0000000000000000e+00 0.0000000000000000e+00 0.0000000000000000e+00  0.0000000000000000e+00 0.0000000000000000e+00 0.0000000000000000e+00  0.0000000000000000e+00 0.0000000000000000e+00 0.0000000000000000e+00  0.0000000000000000e+00 0.0000000000000000e+00 0.0000000000000000e+00  0.0000000000000000e+00 0.0000000000000000e+00 0.0000000000000000e+00  0.0000000000000000e+00 0.0000000000000000e+00 0.0000000000000000e+00  0.0000000000000000e+00 0.0000000000000000e+00 0.0000000000000000e+00  0.0000000000000000e+00 0.0000000000000000e+00 0.0000000000000000e+00  0.0000000000000000e+00 0.0000000000000000e+00 0.0000000000000000e+00  0.0000000000000000e+00 0.0000000000000000e+00 0.0000000000000000e+00  0.0000000000000000e+00 0.0000000000000000e+00 0.0000000000000000e+00  0.0000000000000000e+00 0.0000000000000000e+00 0.0000000000000000e+00  0.0000000000000000e+00 0.0000000000000000e+00 0.0000000000000000e+00  0.0000000000000000e+00 0.0000000000000000e+00 0.0000000000000000e+00  0.0000000000000000e+00 0.0000000000000000e+00 0.0000000000000000e+00  0.0000000000000000e+00 0.0000000000000000e+00 0.0000000000000000e+00  0.0000000000000000e+00 0.0000000000000000e+00 0.0000000000000000e+00  0.0000000000000000e+00 0.0000000000000000e+00 0.0000000000000000e+00  0.0000000000000000e+00 0.0000000000000000e+00 0.0000000000000000e+00  0.0000000000000000e+00 0.0000000000000000e+00 0.0000000000000000e+00  0.0000000000000000e+00 0.0000000000000000e+00 0.0000000000000000e+00  0.0000000000000000e+00 0.0000000000000000e+00 0.0000000000000000e+00  0.0000000000000000e+00 0.0000000000000000e+00 0.0000000000000000e+00  0.0000000000000000e+00 0.0000000000000000e+00 0.0000000000000000e+00  0.0000000000000000e+00 0.0000000000000000e+00 0.0000000000000000e+00  0.0000000000000000e+00 0.0000000000000000e+00 0.0000000000000000e+00  0.0000000000000000e+00 0.0000000000000000e+00 0.0000000000000000e+00  0.0000000000000000e+00 0.0000000000000000e+00 0.0000000000000000e+00  0.0000000000000000e+00 0.0000000000000000e+00 0.0000000000000000e+00  0.0000000000000000e+00 0.0000000000000000e+00 0.0000000000000000e+00  0.0000000000000000e+00 0.0000000000000000e+00 0.0000000000000000e+00  0.0000000000000000e+00 0.0000000000000000e+00 0.0000000000000000e+00  0.0000000000000000e+00 0.0000000000000000e+00 0.0000000000000000e+00  0.0000000000000000e+00 0.0000000000000000e+00 0.0000000000000000e+00  0.0000000000000000e+00 0.0000000000000000e+00 0.0000000000000000e+00  0.0000000000000000e+00 0.0000000000000000e+00 0.0000000000000000e+00  0.0000000000000000e+00 0.0000000000000000e+00 0.0000000000000000e+00  0.0000000000000000e+00 0.0000000000000000e+00 0.0000000000000000e+00  0.0000000000000000e+00 0.0000000000000000e+00 0.0000000000000000e+00  0.0000000000000000e+00 0.0000000000000000e+00 0.0000000000000000e+00  0.0000000000000000e+00 0.0000000000000000e+00 0.0000000000000000e+00  0.0000000000000000e+00 0.0000000000000000e+00 0.0000000000000000e+00  0.0000000000000000e+00 0.0000000000000000e+00 0.0000000000000000e+00  0.0000000000000000e+00 0.0000000000000000e+00 0.0000000000000000e+00  0.0000000000000000e+00 0.0000000000000000e+00 0.0000000000000000e+00  0.0000000000000000e+00 0.0000000000000000e+00 0.0000000000000000e+00  0.0000000000000000e+00 0.0000000000000000e+00 0.0000000000000000e+00  0.0000000000000000e+00 0.0000000000000000e+00 0.0000000000000000e+00  0.0000000000000000e+00 0.0000000000000000e+00 0.0000000000000000e+00  0.0000000000000000e+00 0.0000000000000000e+00 0.0000000000000000e+00  0.0000000000000000e+00 0.0000000000000000e+00 0.0000000000000000e+00  0.0000000000000000e+00 0.0000000000000000e+00 0.0000000000000000e+00  0.0000000000000000e+00 0.0000000000000000e+00 0.0000000000000000e+00  0.0000000000000000e+00 0.0000000000000000e+00 0.0000000000000000e+00  0.0000000000000000e+00 0.0000000000000000e+00 0.0000000000000000e+00  0.0000000000000000e+00 0.0000000000000000e+00 0.0000000000000000e+00  0.0000000000000000e+00 0.0000000000000000e+00 0.0000000000000000e+00  0.0000000000000000e+00 0.0000000000000000e+00 0.0000000000000000e+00  0.0000000000000000e+00 0.0000000000000000e+00 0.0000000000000000e+00  0.0000000000000000e+00 0.0000000000000000e+00 0.0000000000000000e+00  0.0000000000000000e+00 0.0000000000000000e+00 0.0000000000000000e+00  0.0000000000000000e+00 0.0000000000000000e+00 0.0000000000000000e+00  0.0000000000000000e+00 0.0000000000000000e+00 0.0000000000000000e+00  0.0000000000000000e+00 0.0000000000000000e+00 0.0000000000000000e+00  0.0000000000000000e+00 0.0000000000000000e+00 0.0000000000000000e+00  0.0000000000000000e+00 0.0000000000000000e+00 0.0000000000000000e+00  0.0000000000000000e+00 0.0000000000000000e+00 0.0000000000000000e+00  0.0000000000000000e+00 0.0000000000000000e+00 0.0000000000000000e+00  0.0000000000000000e+00 0.0000000000000000e+00 0.0000000000000000e+00  0.0000000000000000e+00 0.0000000000000000e+00 0.0000000000000000e+00  0.0000000000000000e+00 0.0000000000000000e+00 0.0000000000000000e+00  0.0000000000000000e+00 0.0000000000000000e+00 0.0000000000000000e+00  0.0000000000000000e+00 0.0000000000000000e+00 0.0000000000000000e+00  0.0000000000000000e+00 0.0000000000000000e+00 0.0000000000000000e+00  0.0000000000000000e+00 0.0000000000000000e+00 0.0000000000000000e+00  0.0000000000000000e+00 0.0000000000000000e+00 0.0000000000000000e+00  0.0000000000000000e+00 0.0000000000000000e+00 0.0000000000000000e+00  0.0000000000000000e+00 0.0000000000000000e+00 0.0000000000000000e+00  0.0000000000000000e+00 0.0000000000000000e+00 0.0000000000000000e+00  0.0000000000000000e+00 0.0000000000000000e+00 0.0000000000000000e+00  0.0000000000000000e+00 0.0000000000000000e+00 0.0000000000000000e+00  0.0000000000000000e+00 0.0000000000000000e+00 0.0000000000000000e+00  0.0000000000000000e+00 0.0000000000000000e+00 0.0000000000000000e+00  0.0000000000000000e+00 0.0000000000000000e+00 0.0000000000000000e+00  0.0000000000000000e+00 0.0000000000000000e+00 0.0000000000000000e+00  0.0000000000000000e+00 0.0000000000000000e+00 0.0000000000000000e+00  0.0000000000000000e+00 0.0000000000000000e+00 0.0000000000000000e+00  0.0000000000000000e+00 0.0000000000000000e+00 0.0000000000000000e+00  0.0000000000000000e+00 0.0000000000000000e+00 0.0000000000000000e+00  0.0000000000000000e+00 0.0000000000000000e+00 0.0000000000000000e+00  0.0000000000000000e+00 0.0000000000000000e+00 0.0000000000000000e+00  0.0000000000000000e+00 0.0000000000000000e+00 0.0000000000000000e+00  0.0000000000000000e+00 0.0000000000000000e+00 0.0000000000000000e+00  0.0000000000000000e+00 0.0000000000000000e+00 0.0000000000000000e+00  0.0000000000000000e+00 0.0000000000000000e+00 0.0000000000000000e+00  0.0000000000000000e+00 0.0000000000000000e+00 0.0000000000000000e+00  0.0000000000000000e+00 0.0000000000000000e+00 0.0000000000000000e+00  0.0000000000000000e+00 0.0000000000000000e+00 0.0000000000000000e+00  0.0000000000000000e+00 0.0000000000000000e+00 0.0000000000000000e+00  0.0000000000000000e+00 0.0000000000000000e+00 0.0000000000000000e+00  0.0000000000000000e+00 0.0000000000000000e+00 0.0000000000000000e+00  0.0000000000000000e+00 0.0000000000000000e+00 0.0000000000000000e+00  0.0000000000000000e+00 0.0000000000000000e+00 0.0000000000000000e+00  0.0000000000000000e+00 0.0000000000000000e+00 0.0000000000000000e+00  0.0000000000000000e+00 0.0000000000000000e+00 0.0000000000000000e+00  0.0000000000000000e+00 0.0000000000000000e+00 0.0000000000000000e+00  0.0000000000000000e+00 0.0000000000000000e+00 0.0000000000000000e+00  0.0000000000000000e+00 0.0000000000000000e+00 0.0000000000000000e+00  0.0000000000000000e+00 0.0000000000000000e+00 0.0000000000000000e+00  0.0000000000000000e+00 0.0000000000000000e+00 0.0000000000000000e+00  0.0000000000000000e+00 0.0000000000000000e+00 0.0000000000000000e+00  0.0000000000000000e+00 0.0000000000000000e+00 0.0000000000000000e+00  0.0000000000000000e+00 0.0000000000000000e+00 0.0000000000000000e+00  0.0000000000000000e+00 0.0000000000000000e+00 0.0000000000000000e+00  0.0000000000000000e+00 0.0000000000000000e+00 0.0000000000000000e+00  0.0000000000000000e+00 0.0000000000000000e+00 0.0000000000000000e+00  0.0000000000000000e+00 0.0000000000000000e+00 0.0000000000000000e+00  0.0000000000000000e+00 0.0000000000000000e+00 0.0000000000000000e+00  0.0000000000000000e+00 0.0000000000000000e+00 0.0000000000000000e+00  0.0000000000000000e+00 0.0000000000000000e+00 0.0000000000000000e+00  0.0000000000000000e+00 0.0000000000000000e+00 0.0000000000000000e+00  0.0000000000000000e+00 0.0000000000000000e+00 0.0000000000000000e+00  0.0000000000000000e+00 0.0000000000000000e+00 0.0000000000000000e+00  0.0000000000000000e+00 0.0000000000000000e+00 0.0000000000000000e+00  0.0000000000000000e+00 0.0000000000000000e+00 0.0000000000000000e+00  0.0000000000000000e+00 0.0000000000000000e+00 0.0000000000000000e+00  0.0000000000000000e+00 0.0000000000000000e+00 0.0000000000000000e+00  0.0000000000000000e+00 0.0000000000000000e+00 0.0000000000000000e+00  0.0000000000000000e+00 0.0000000000000000e+00 0.0000000000000000e+00  0.0000000000000000e+00 0.0000000000000000e+00 0.0000000000000000e+00  0.0000000000000000e+00 0.0000000000000000e+00 0.0000000000000000e+00  0.0000000000000000e+00 0.0000000000000000e+00 0.0000000000000000e+00  0.0000000000000000e+00 0.0000000000000000e+00 0.0000000000000000e+00  0.0000000000000000e+00 0.0000000000000000e+00 0.0000000000000000e+00  0.0000000000000000e+00 0.0000000000000000e+00 0.0000000000000000e+00  0.0000000000000000e+00 0.0000000000000000e+00 0.0000000000000000e+00  0.0000000000000000e+00 0.0000000000000000e+00 0.0000000000000000e+00  0.0000000000000000e+00 0.0000000000000000e+00 0.0000000000000000e+00  0.0000000000000000e+00 0.0000000000000000e+00 0.0000000000000000e+00  0.0000000000000000e+00 0.0000000000000000e+00 0.0000000000000000e+00  0.0000000000000000e+00 0.0000000000000000e+00 0.0000000000000000e+00  0.0000000000000000e+00 0.0000000000000000e+00 0.0000000000000000e+00  0.0000000000000000e+00 0.0000000000000000e+00 0.0000000000000000e+00  0.0000000000000000e+00 0.0000000000000000e+00 0.0000000000000000e+00  0.0000000000000000e+00 0.0000000000000000e+00 0.0000000000000000e+00  0.0000000000000000e+00 0.0000000000000000e+00 0.0000000000000000e+00  0.0000000000000000e+00 0.0000000000000000e+00 0.0000000000000000e+00  0.0000000000000000e+00 0.0000000000000000e+00 0.0000000000000000e+00  0.0000000000000000e+00 0.0000000000000000e+00 0.0000000000000000e+00  0.0000000000000000e+00 0.0000000000000000e+00 0.0000000000000000e+00  0.0000000000000000e+00 0.0000000000000000e+00 0.0000000000000000e+00  0.0000000000000000e+00 0.0000000000000000e+00 0.0000000000000000e+00  0.0000000000000000e+00 0.0000000000000000e+00 0.0000000000000000e+00  0.0000000000000000e+00 0.0000000000000000e+00 0.0000000000000000e+00  0.0000000000000000e+00 0.0000000000000000e+00 0.0000000000000000e+00  0.0000000000000000e+00 0.0000000000000000e+00 0.0000000000000000e+00  0.0000000000000000e+00 0.0000000000000000e+00 0.0000000000000000e+00  0.0000000000000000e+00 0.0000000000000000e+00 0.0000000000000000e+00  0.0000000000000000e+00 0.0000000000000000e+00 0.0000000000000000e+00  0.0000000000000000e+00 0.0000000000000000e+00 0.0000000000000000e+00  0.0000000000000000e+00 0.0000000000000000e+00 0.0000000000000000e+00  0.0000000000000000e+00 0.0000000000000000e+00 0.0000000000000000e+00  0.0000000000000000e+00 0.0000000000000000e+00 0.0000000000000000e+00  0.0000000000000000e+00 0.0000000000000000e+00 0.0000000000000000e+00  0.0000000000000000e+00 0.0000000000000000e+00 0.0000000000000000e+00  0.0000000000000000e+00 0.0000000000000000e+00 0.0000000000000000e+00  0.0000000000000000e+00 0.0000000000000000e+00 0.0000000000000000e+00  0.0000000000000000e+00 0.0000000000000000e+00 0.0000000000000000e+00  0.0000000000000000e+00 0.0000000000000000e+00 0.0000000000000000e+00  0.0000000000000000e+00 0.0000000000000000e+00 0.0000000000000000e+00  0.0000000000000000e+00 0.0000000000000000e+00 0.0000000000000000e+00  0.0000000000000000e+00 0.0000000000000000e+00 0.0000000000000000e+00  0.0000000000000000e+00 0.0000000000000000e+00 0.0000000000000000e+00  0.0000000000000000e+00 0.0000000000000000e+00 0.0000000000000000e+00  0.0000000000000000e+00 0.0000000000000000e+00 0.0000000000000000e+00  0.0000000000000000e+00 0.0000000000000000e+00 0.0000000000000000e+00  0.0000000000000000e+00 0.0000000000000000e+00 0.0000000000000000e+00  0.0000000000000000e+00 0.0000000000000000e+00 0.0000000000000000e+00  0.0000000000000000e+00 0.0000000000000000e+00 0.0000000000000000e+00  0.0000000000000000e+00 0.0000000000000000e+00 0.0000000000000000e+00  0.0000000000000000e+00 0.0000000000000000e+00 0.0000000000000000e+00  0.0000000000000000e+00 0.0000000000000000e+00 0.0000000000000000e+00  0.0000000000000000e+00 0.0000000000000000e+00 0.0000000000000000e+00  0.0000000000000000e+00 0.0000000000000000e+00 0.0000000000000000e+00  0.0000000000000000e+00 0.0000000000000000e+00 0.0000000000000000e+00  0.0000000000000000e+00 0.0000000000000000e+00 0.0000000000000000e+00  0.0000000000000000e+00 0.0000000000000000e+00 0.0000000000000000e+00  0.0000000000000000e+00 0.0000000000000000e+00 0.0000000000000000e+00  0.0000000000000000e+00 0.0000000000000000e+00 0.0000000000000000e+00  0.0000000000000000e+00 0.0000000000000000e+00 0.0000000000000000e+00  0.0000000000000000e+00 0.0000000000000000e+00 0.0000000000000000e+00  0.0000000000000000e+00 0.0000000000000000e+00 0.0000000000000000e+00  0.0000000000000000e+00 0.0000000000000000e+00 0.0000000000000000e+00  0.0000000000000000e+00 0.0000000000000000e+00 0.0000000000000000e+00  0.0000000000000000e+00 0.0000000000000000e+00 0.0000000000000000e+00  0.0000000000000000e+00 0.0000000000000000e+00 0.0000000000000000e+00  0.0000000000000000e+00 0.0000000000000000e+00 0.0000000000000000e+00  0.0000000000000000e+00 0.0000000000000000e+00 0.0000000000000000e+00  0.0000000000000000e+00 0.0000000000000000e+00 0.0000000000000000e+00  0.0000000000000000e+00 0.0000000000000000e+00 0.0000000000000000e+00  0.0000000000000000e+00 0.0000000000000000e+00 0.0000000000000000e+00  0.0000000000000000e+00 0.0000000000000000e+00 0.0000000000000000e+00  0.0000000000000000e+00 0.0000000000000000e+00 0.0000000000000000e+00  0.0000000000000000e+00 0.0000000000000000e+00 0.0000000000000000e+00  0.0000000000000000e+00 0.0000000000000000e+00 0.0000000000000000e+00  0.0000000000000000e+00 0.0000000000000000e+00 0.0000000000000000e+00  0.0000000000000000e+00 0.0000000000000000e+00 0.0000000000000000e+00  0.0000000000000000e+00 0.0000000000000000e+00 0.0000000000000000e+00  0.0000000000000000e+00 0.0000000000000000e+00 0.0000000000000000e+00  0.0000000000000000e+00 0.0000000000000000e+00 0.0000000000000000e+00  0.0000000000000000e+00 0.0000000000000000e+00 0.0000000000000000e+00  0.0000000000000000e+00 0.0000000000000000e+00 0.0000000000000000e+00  0.0000000000000000e+00 0.0000000000000000e+00 0.0000000000000000e+00  0.0000000000000000e+00 0.0000000000000000e+00 0.0000000000000000e+00  0.0000000000000000e+00 0.0000000000000000e+00 0.0000000000000000e+00  0.0000000000000000e+00 0.0000000000000000e+00 0.0000000000000000e+00  0.0000000000000000e+00 0.0000000000000000e+00 0.0000000000000000e+00  0.0000000000000000e+00 0.0000000000000000e+00 0.0000000000000000e+00  0.0000000000000000e+00 0.0000000000000000e+00 0.0000000000000000e+00  0.0000000000000000e+00 0.0000000000000000e+00 0.0000000000000000e+00  0.0000000000000000e+00 0.0000000000000000e+00 0.0000000000000000e+00  0.0000000000000000e+00 0.0000000000000000e+00 0.0000000000000000e+00  0.0000000000000000e+00 0.0000000000000000e+00 0.0000000000000000e+00  0.0000000000000000e+00 0.0000000000000000e+00 0.0000000000000000e+00  0.0000000000000000e+00 0.0000000000000000e+00 0.0000000000000000e+00  0.0000000000000000e+00 0.0000000000000000e+00 0.0000000000000000e+00  0.0000000000000000e+00 0.0000000000000000e+00 0.0000000000000000e+00  0.0000000000000000e+00 0.0000000000000000e+00 0.0000000000000000e+00  0.0000000000000000e+00 0.0000000000000000e+00 0.0000000000000000e+00  0.0000000000000000e+00 0.0000000000000000e+00 0.0000000000000000e+00  0.0000000000000000e+00 0.0000000000000000e+00 0.0000000000000000e+00  0.0000000000000000e+00 0.0000000000000000e+00 0.0000000000000000e+00  0.0000000000000000e+00 0.0000000000000000e+00 0.0000000000000000e+00  0.0000000000000000e+00 0.0000000000000000e+00 0.0000000000000000e+00  0.0000000000000000e+00 0.0000000000000000e+00 0.0000000000000000e+00  0.0000000000000000e+00 0.0000000000000000e+00 0.0000000000000000e+00  0.0000000000000000e+00 0.0000000000000000e+00 0.0000000000000000e+00  0.0000000000000000e+00 0.0000000000000000e+00 0.0000000000000000e+00  0.0000000000000000e+00 0.0000000000000000e+00 0.0000000000000000e+00  0.0000000000000000e+00 0.0000000000000000e+00 0.0000000000000000e+00  0.0000000000000000e+00 0.0000000000000000e+00 0.0000000000000000e+00  0.0000000000000000e+00 0.0000000000000000e+00 0.0000000000000000e+00  0.0000000000000000e+00 0.0000000000000000e+00 0.0000000000000000e+00  0.0000000000000000e+00 0.0000000000000000e+00 0.0000000000000000e+00  0.0000000000000000e+00 0.0000000000000000e+00 0.0000000000000000e+00  0.0000000000000000e+00 0.0000000000000000e+00 0.0000000000000000e+00  0.0000000000000000e+00 0.0000000000000000e+00 0.0000000000000000e+00  0.0000000000000000e+00 0.0000000000000000e+00 0.0000000000000000e+00  0.0000000000000000e+00 0.0000000000000000e+00 0.0000000000000000e+00  0.0000000000000000e+00 0.0000000000000000e+00 0.0000000000000000e+00  0.0000000000000000e+00 0.0000000000000000e+00 0.0000000000000000e+00  0.0000000000000000e+00 0.0000000000000000e+00 0.0000000000000000e+00  0.0000000000000000e+00 0.0000000000000000e+00 0.0000000000000000e+00  0.0000000000000000e+00 0.0000000000000000e+00 0.0000000000000000e+00  0.0000000000000000e+00 0.0000000000000000e+00 0.0000000000000000e+00  0.0000000000000000e+00 0.0000000000000000e+00 0.0000000000000000e+00  0.0000000000000000e+00 0.0000000000000000e+00 0.0000000000000000e+00  0.0000000000000000e+00 0.0000000000000000e+00 0.0000000000000000e+00  0.0000000000000000e+00 0.0000000000000000e+00 0.0000000000000000e+00  0.0000000000000000e+00 0.0000000000000000e+00 0.0000000000000000e+00  0.0000000000000000e+00 0.0000000000000000e+00 0.0000000000000000e+00  0.0000000000000000e+00 0.0000000000000000e+00 0.0000000000000000e+00  0.0000000000000000e+00 0.0000000000000000e+00 0.0000000000000000e+00  0.0000000000000000