<?xml version="1.0"?>
<VTKFile type="UnstructuredGrid"  version="0.1"  >
<UnstructuredGrid>
<Piece  NumberOfPoints="11467" NumberOfCells="52188">
<Points>
<DataArray  type="Float64"  NumberOfComponents="3"  format="ascii">5.864316 14.616017 32.807983  6.68692442085 13.81236059655 32.80969887005  6.62488592085 14.37440659655 33.19085737005  6.0217015 13.9282315 33.017107  5.9263545 14.053971 32.4268245  6.179087 13.240446 33.226231  6.78227142085 13.68662109655 33.39998137005  6.083740000000001 13.3661855 32.6359485  5.988393 13.491925 32.045666  7.3854558417 14.1327961931 33.5737317401  8.004336 9.378114 32.794037  8.635224873150001 9.086160147699999 31.87446626145  8.718001687299999 8.58096800485 32.4953717594  8.713781687299999 9.01027050485 32.8310307594  8.631004873150001 9.5154626477 32.21012526145  8.008556 8.9488115 32.458378  8.012776000000001 8.519508999999999 32.122719  9.4232273746 8.6424270097 32.8680245188  9.34045056045 9.14761915255 32.24711902085  9.2576737463 9.652811295399999 31.6262135229  12.027043 2.472914 32.388046  11.8355935 1.4836245 32.049362  12.519985 1.5732855 32.048271  12.5018545 1.9938085 32.6269875  12.976666 1.514703 32.865929  12.310405 1.004519 32.2883035  12.9947965 1.09418 32.2872125  13.012927 0.673657 31.708496  12.3285355 0.583996 31.709587  11.644144 0.494335 31.710678  9.4726 15.010572 33.044159  9.304926056399999 13.88412471935 32.7755376061  9.115614475600001 14.11129598405 32.55286483960001  9.144246556399999 14.30879771935 33.42050660610001  9.6332795 14.585899 32.39919  9.793958999999999 14.161226 31.754221  9.2762939756 13.68662298405 31.9078958396  8.8158931128 13.6070234387 33.7968542122  8.787261032 13.4095217034 32.9292124457  8.7586289512 13.2120199681 32.0615706792  9.1175365 14.594886 32.3264895  8.956856999999999 15.019559 32.9714585  8.441114000000001 15.028546 32.898758  8.599871475600001 14.12028298405 32.4801643396  12.134798 11.455095 31.724577  11.2499855221 11.87602394205 31.83624031995  11.2543615868 11.387561553 31.93571572755  11.6765425221 11.87403544205 32.26025431995  11.708241 11.4570835 31.300563  11.281684 11.459072 30.876549  10.8278045868 11.389550053 31.51170172755  11.2182870442 12.2929758841 32.7959316399  10.7961061089 11.80650199505 32.4713930475  10.3739251736 11.320028106 32.1468544551  6.07895618925 14.385487382 33.4465646652  6.87139992085 15.00222809655 33.50717437005  6.8395261101 14.14387697855 33.82943903525  6.2935963785 14.154957764 34.0851463304  9.9128095079 13.29961717015 31.52808941805  10.5061230221 13.22710094205 32.27507631995  9.6879912294 13.26312096245 32.31776467905  9.5820234588 12.3650159249 32.8813083581  10.62497353 12.3654921122 32.048944738  9.806841737300001 12.4015121326 32.0916330971  10.0316600158 12.4380083403 31.3019578361  9.637239170699999 10.2626682936 32.7950515699  9.491100670049999 9.262314896900001 33.5992950336  10.39840310095 9.61238430835 33.3464173498  9.5981065681 10.07243553885 33.56280855915  9.530233272649999 9.452547651650001 32.83153804435  10.2913972029 8.8022636664 33.38290382425  8.012748 11.157207 32.696873  8.820787585350001 9.8203911468 32.79454428495  8.81281208535 10.1537631468 32.38193878494999  8.824993585350001 10.7099376468 32.74596228495  8.008542 10.2676605 32.745455  8.0005665 10.6010325 32.33284949999999  7.988385 10.044858 31.968826  7.9963605 9.711486000000001 32.38143150000001  8.6563141873 8.248529004850001 33.2808312594  8.706441187299999 9.176931004850001 33.6640232594  7.946868500000001 8.616372500000001 33.2438375  7.939528 8.783033 34.07683  7.996995500000001 9.544774499999999 33.62702950000001  7.889401 7.854631 33.693638  10.908707 5.769351 31.922382  10.140373655 4.80256187595 32.4449960142  10.17990122355 5.63167554595 31.8261724112  10.0619318606 5.6786922205 32.50625912075  9.2151567212 5.588033441 33.0901362415  9.333126084149999 5.54101676645 32.41004953195  9.4510954471 5.4940000919 31.7299628224  6.236341689250001 13.697701882 33.6556886652  7.063933920849999 13.48435359655 34.01328537005  7.729275 11.870854 33.409107  8.62793925395 11.3666542728 33.4524667818  8.6556492294 12.11793496245 33.14520767905  7.8710115 11.5140305 33.05298999999999  8.7973857294 11.76111146245 32.78909067905  7.042433 5.633401 33.908913  8.1287782299 4.73490073005 33.5174421294  7.645678114100001 5.0902361658 34.21498891795  8.128794860599999 5.6107172205 33.49952462074999  7.5255331158 5.278065564249999 33.21136621145  8.611894976399999 5.25538178475 32.8019778322  8.008633231599999 4.9227301285 32.5138194229  11.989336 13.987348 32.441547  11.2785660221 13.12363144205 32.10758231995  11.9662815 13.250194 31.6792265  12.291527 13.2667245 32.1903835  11.6640905 13.9708175 31.93039  11.338845 13.954287 31.419233  12.593718 12.546101 31.93922  6.838493 15.072144 32.35582  7.11197442085 14.60247009655 32.96477587005  6.351404499999999 14.8440805 32.5819015  6.413443 14.2820345 32.200743  8.82219448655 13.78261689345 34.911649253  9.2713726051 13.8582111437 34.39119575380001  8.244635937849999 14.4112449691 34.3850271053  8.36671499425 13.53142918845 34.31730771140001  7.9175368757 13.4558349382 34.8377612106  9.7268520974 14.1093988487 34.9855372954  7.056347 14.037612 32.054294  6.631297 13.2475025 31.899217  7.274201 13.00308 31.752768  7.329828420849999 13.56793809655 32.66324987005  11.39670104825 1.1565657197 32.3654361197  11.46452854825 2.1389787197 32.0131391197  11.27307904825 1.1496892197 31.6744551197  11.767766 0.5012115 32.401659  10.9020140965 1.8050434394 31.6382322394  10.401567 6.699888 31.926264  9.567522337149999 6.7993396945 32.0299298327  9.95463980385 6.96189033285 32.76476661795  9.8083618606 6.1439607205 32.50820012075  8.97431719775 6.243412415 32.61186595345  9.36143466445 6.40596305335 33.3467027387  8.7334776743 6.898791389 32.1335956654  8.31143933715 7.3767111945 32.9136168327  7.5464555 7.8220285 32.9099715  7.608143 8.154467499999999 32.124512  8.37312683715 7.709150194499999 32.1281573327  7.951088500000001 8.18707 32.9081785  7.20351 7.789426 32.126305  7.96849383715 7.3441086945 32.12995033270001  7.82340593785 12.6633444691 34.1234341053  8.272584056399999 12.73893871935 33.6029806061  8.371362428099999 12.29947319765 34.33718325805  8.914671484499999 13.167557917 34.53105686415  9.3465083434 3.7037529608 32.4339180402  10.47539678485 4.26906216135 32.1590190435  9.7338250251 4.06537681175 31.7959634606  9.398801895249999 4.598876526350001 32.0819404313  10.1211417068 4.4270006627 31.158008881  9.786118576949999 4.960500377300001 31.4439858517  10.5149243534 5.09817583135 31.5401954405  10.658538 5.9041065 31.407444  10.408369 6.038862 30.892506  9.929732223550001 5.76643104595 31.3112344112  10.2647553534 5.232931331350001 31.0252574405  11.2361925 5.3709775 31.845357  11.563678 4.972604 31.768332  10.8424098534 4.69980233135 31.4631704405  7.625259 12.708561 32.789146  8.0164149756 13.10754998405 31.9071693396  8.191943975600001 12.96029048405 32.4253583396  7.8119645 12.4843395 32.043354  7.44973 12.8558205 32.270957  7.636435499999999 12.631599 31.525165  7.99867 12.260118 31.297562  8.3786494756 12.73606898405 31.6795663396  7.77139793785 13.0821979691 33.8134536053  7.50535742085 13.42067859655 33.18143887005  8.220576056399999 13.15779221935 33.2930001061  8.100674477249999 13.8699098159 33.68529297615  7.651496358699999 13.79431556565 34.20574647535  6.742412 12.835911 34.452839  7.1838355 12.772236 33.6209925  6.4607495 13.0381785 33.839535  6.902172999999999 12.9745035 33.0076885  8.07204239645 13.6724080806 32.81765120965  8.6285035564 14.31778471935 33.3478061061  7.91328492085 14.58067109655 33.23624487005  6.939131 4.776337 34.21920950000001  7.0245465 5.079187 33.728161  7.00666 4.524973 33.547409  9.02951181035 12.59156249215 34.0024573879  7.70374242085 14.65767209655 32.74179787005  7.648115 14.092814 31.831316  7.430261 15.127346 32.132842  8.022029 15.182548 31.909864  10.792581 0.494147 33.197166  10.84729754825 1.1495952197 32.4176991197  11.2183625 0.494241 32.45392200000001  7.815807 6.851296 33.756752  8.5154818606 6.2196647205 33.42344412075  7.5851955 6.584106999999999 33.386753  7.42912 6.2423485 33.83283249999999  7.354584 6.316918 33.016754  8.284870360599999 5.952475720500001 33.05344512075  7.1985085 5.9751595 33.4628335  9.62249386865 13.53665010015 33.75690524185001  9.72127224035 13.09718457845 34.49110789380001  10.4290946245 13.4662767616 33.7169562715  10.07797336095 13.78783780515 34.35124678345  11.2521617289 11.288600246 32.63890114679999  11.184764 10.187654 31.771162  10.7310780019 10.8136907844 32.72375788645  10.7793445868 10.753841053 31.95900822755  10.41100158535 10.2251611468 32.28310678495  10.00558217215 10.7913481998 32.4709530125  8.603641229400001 12.53678846245 32.83522717905  9.170326205 12.7885179465 32.47143951865  9.1989582858 12.9860196818 33.33908128515  7.581791 15.583738 33.095619  7.48362342085 14.85826709655 33.33467537005  7.210141999999999 15.327941 32.7257195  6.5979185 15.471902 32.8982185  9.593861787849999 13.33914836485 32.88926347535001  10.11152681225 13.8137513808 32.73558863575001  7.972234 10.726914 33.806553  8.78165498275 9.630158392049999 33.5623012742  7.988285 10.052514 33.30029500000001  10.5952984502 2.0892022571 32.5963649799  11.409812 1.4835305 32.79260600000001  8.3856884756 12.18461348405 32.3792218396  7.8190035 11.932884 32.7430095  9.072276 0.490833 33.148838  10.31854490195 1.4436985374 32.8706328602  9.7103915 0.5024345 32.667803  9.9324285 0.49249 33.173002  10.570544 0.5040915 32.69196700000001  10.348507 0.514036 32.186768  9.977974316200001 11.84252201545 32.5140814066  10.2027925947 11.87901822315 31.7244061456  8.27464233715 6.8750436945 32.9451738327  8.04403083715 6.6078546945 32.5751748327  5.6060675 13.685384 33.523867  11.84622354825 1.9273472197 31.4087921197  12.408738 2.2612825 31.783699  12.790433 2.049651 31.179352  12.2172885 1.271993 31.445015  11.988531 3.448869 31.638029  11.44527254825 2.6269562197 31.6381306197  12.389482 2
[...]
<PointData  Vectors="u"> 
<DataArray  type="Float64"  Name="u"  NumberOfComponents="3" format="ascii">0.0000000000000000e+00 0.0000000000000000e+00 0.0000000000000000e+00  0.0000000000000000e+00 0.0000000000000000e+00 0.0000000000000000e+00  0.0000000000000000e+00 0.0000000000000000e+00 0.0000000000000000e+00  0.0000000000000000e+00 0.0000000000000000e+00 0.0000000000000000e+00  0.0000000000000000e+00 0.0000000000000000e+00 0.0000000000000000e+00  0.0000000000000000e+00 0.0000000000000000e+00 0.0000000000000000e+00  0.0000000000000000e+00 0.0000000000000000e+00 0.0000000000000000e+00  0.0000000000000000e+00 0.0000000000000000e+00 0.0000000000000000e+00  0.0000000000000000e+00 0.0000000000000000e+00 0.0000000000000000e+00  0.0000000000000000e+00 0.0000000000000000e+00 0.0000000000000000e+00  0.0000000000000000e+00 0.0000000000000000e+00 0.0000000000000000e+00  0.0000000000000000e+00 0.0000000000000000e+00 0.0000000000000000e+00  0.0000000000000000e+00 0.0000000000000000e+00 0.0000000000000000e+00  0.0000000000000000e+00 0.0000000000000000e+00 0.0000000000000000e+00  0.0000000000000000e+00 0.0000000000000000e+00 0.0000000000000000e+00  0.0000000000000000e+00 0.0000000000000000e+00 0.0000000000000000e+00  0.0000000000000000e+00 0.0000000000000000e+00 0.0000000000000000e+00  0.0000000000000000e+00 0.0000000000000000e+00 0.0000000000000000e+00  0.0000000000000000e+00 0.0000000000000000e+00 0.0000000000000000e+00  0.0000000000000000e+00 0.0000000000000000e+00 0.0000000000000000e+00  0.0000000000000000e+00 0.0000000000000000e+00 0.0000000000000000e+00  0.0000000000000000e+00 0.0000000000000000e+00 0.0000000000000000e+00  0.0000000000000000e+00 0.0000000000000000e+00 0.0000000000000000e+00  0.0000000000000000e+00 0.0000000000000000e+00 0.0000000000000000e+00  0.0000000000000000e+00 0.0000000000000000e+00 0.0000000000000000e+00  0.0000000000000000e+00 0.0000000000000000e+00 0.0000000000000000e+00  0.0000000000000000e+00 0.0000000000000000e+00 0.0000000000000000e+00  0.0000000000000000e+00 0.0000000000000000e+00 0.0000000000000000e+00  0.0000000000000000e+00 0.0000000000000000e+00 0.0000000000000000e+00  0.0000000000000000e+00 0.0000000000000000e+00 0.0000000000000000e+00  0.0000000000000000e+00 0.0000000000000000e+00 0.0000000000000000e+00  0.0000000000000000e+00 0.0000000000000000e+00 0.0000000000000000e+00  0.0000000000000000e+00 0.0000000000000000e+00 0.0000000000000000e+00  0.0000000000000000e+00 0.0000000000000000e+00 0.0000000000000000e+00  0.0000000000000000e+00 0.0000000000000000e+00 0.0000000000000000e+00  0.0000000000000000e+00 0.0000000000000000e+00 0.0000000000000000e+00  0.0000000000000000e+00 0.0000000000000000e+00 0.0000000000000000e+00  0.0000000000000000e+00 0.0000000000000000e+00 0.0000000000000000e+00  0.0000000000000000e+00 0.0000000000000000e+00 0.0000000000000000e+00  0.0000000000000000e+00 0.0000000000000000e+00 0.0000000000000000e+00  0.0000000000000000e+00 0.0000000000000000e+00 0.0000000000000000e+00  0.0000000000000000e+00 0.0000000000000000e+00 0.0000000000000000e+00  0.0000000000000000e+00 0.0000000000000000e+00 0.0000000000000000e+00  0.0000000000000000e+00 0.0000000000000000e+00 0.0000000000000000e+00  0.0000000000000000e+00 0.0000000000000000e+00 0.0000000000000000e+00  0.0000000000000000e+00 0.0000000000000000e+00 0.0000000000000000e+00  0.0000000000000000e+00 0.0000000000000000e+00 0.0000000000000000e+00  0.0000000000000000e+00 0.0000000000000000e+00 0.0000000000000000e+00  0.0000000000000000e+00 0.0000000000000000e+00 0.0000000000000000e+00  0.0000000000000000e+00 0.0000000000000000e+00 0.0000000000000000e+00  0.0000000000000000e+00 0.0000000000000000e+00 0.0000000000000000e+00  0.0000000000000000e+00 0.0000000000000000e+00 0.0000000000000000e+00  0.0000000000000000e+00 0.0000000000000000e+00 0.0000000000000000e+00  0.0000000000000000e+00 0.0000000000000000e+00 0.0000000000000000e+00  0.0000000000000000e+00 0.0000000000000000e+00 0.0000000000000000e+00  0.0000000000000000e+00 0.0000000000000000e+00 0.0000000000000000e+00  0.0000000000000000e+00 0.0000000000000000e+00 0.0000000000000000e+00  0.0000000000000000e+00 0.0000000000000000e+00 0.0000000000000000e+00  0.0000000000000000e+00 0.0000000000000000e+00 0.0000000000000000e+00  0.0000000000000000e+00 0.0000000000000000e+00 0.0000000000000000e+00  0.0000000000000000e+00 0.0000000000000000e+00 0.0000000000000000e+00  0.0000000000000000e+00 0.0000000000000000e+00 0.0000000000000000e+00  0.0000000000000000e+00 0.0000000000000000e+00 0.0000000000000000e+00  0.0000000000000000e+00 0.0000000000000000e+00 0.0000000000000000e+00  0.0000000000000000e+00 0.0000000000000000e+00 0.0000000000000000e+00  0.0000000000000000e+00 0.0000000000000000e+00 0.0000000000000000e+00  0.0000000000000000e+00 0.0000000000000000e+00 0.0000000000000000e+00  0.0000000000000000e+00 0.0000000000000000e+00 0.0000000000000000e+00  0.0000000000000000e+00 0.0000000000000000e+00 0.0000000000000000e+00  0.0000000000000000e+00 0.0000000000000000e+00 0.0000000000000000e+00  0.0000000000000000e+00 0.0000000000000000e+00 0.0000000000000000e+00  0.0000000000000000e+00 0.0000000000000000e+00 0.0000000000000000e+00  0.0000000000000000e+00 0.0000000000000000e+00 0.0000000000000000e+00  0.0000000000000000e+00 0.0000000000000000e+00 0.0000000000000000e+00  0.0000000000000000e+00 0.0000000000000000e+00 0.0000000000000000e+00  0.0000000000000000e+00 0.0000000000000000e+00 0.0000000000000000e+00  0.0000000000000000e+00 0.0000000000000000e+00 0.0000000000000000e+00  0.0000000000000000e+00 0.0000000000000000e+00 0.0000000000000000e+00  0.0000000000000000e+00 0.0000000000000000e+00 0.0000000000000000e+00  0.0000000000000000e+00 0.0000000000000000e+00 0.0000000000000000e+00  0.0000000000000000e+00 0.0000000000000000e+00 0.0000000000000000e+00  0.0000000000000000e+00 0.0000000000000000e+00 0.0000000000000000e+00  0.0000000000000000e+00 0.0000000000000000e+00 0.0000000000000000e+00  0.0000000000000000e+00 0.0000000000000000e+00 0.0000000000000000e+00  0.0000000000000000e+00 0.0000000000000000e+00 0.0000000000000000e+00  0.0000000000000000e+00 0.0000000000000000e+00 0.0000000000000000e+00  0.0000000000000000e+00 0.0000000000000000e+00 0.0000000000000000e+00  0.0000000000000000e+00 0.0000000000000000e+00 0.0000000000000000e+00  0.0000000000000000e+00 0.0000000000000000e+00 0.0000000000000000e+00  0.0000000000000000e+00 0.0000000000000000e+00 0.0000000000000000e+00  0.0000000000000000e+00 0.0000000000000000e+00 0.0000000000000000e+00  0.0000000000000000e+00 0.0000000000000000e+00 0.0000000000000000e+00  0.0000000000000000e+00 0.0000000000000000e+00 0.0000000000000000e+00  0.0000000000000000e+00 0.0000000000000000e+00 0.0000000000000000e+00  0.0000000000000000e+00 0.0000000000000000e+00 0.0000000000000000e+00  0.0000000000000000e+00 0.0000000000000000e+00 0.0000000000000000e+00  0.0000000000000000e+00 0.0000000000000000e+00 0.0000000000000000e+00  0.0000000000000000e+00 0.0000000000000000e+00 0.0000000000000000e+00  0.0000000000000000e+00 0.0000000000000000e+00 0.0000000000000000e+00  0.0000000000000000e+00 0.0000000000000000e+00 0.0000000000000000e+00  0.0000000000000000e+00 0.0000000000000000e+00 0.0000000000000000e+00  0.0000000000000000e+00 0.0000000000000000e+00 0.0000000000000000e+00  0.0000000000000000e+00 0.0000000000000000e+00 0.0000000000000000e+00  0.0000000000000000e+00 0.0000000000000000e+00 0.0000000000000000e+00  0.0000000000000000e+00 0.0000000000000000e+00 0.0000000000000000e+00  0.0000000000000000e+00 0.0000000000000000e+00 0.0000000000000000e+00  0.0000000000000000e+00 0.0000000000000000e+00 0.0000000000000000e+00  0.0000000000000000e+00 0.0000000000000000e+00 0.0000000000000000e+00  0.0000000000000000e+00 0.0000000000000000e+00 0.0000000000000000e+00  0.0000000000000000e+00 0.0000000000000000e+00 0.0000000000000000e+00  0.0000000000000000e+00 0.0000000000000000e+00 0.0000000000000000e+00  0.0000000000000000e+00 0.0000000000000000e+00 0.0000000000000000e+00  0.0000000000000000e+00 0.0000000000000000e+00 0.0000000000000000e+00  0.0000000000000000e+00 0.0000000000000000e+00 0.0000000000000000e+00  0.0000000000000000e+00 0.0000000000000000e+00 0.0000000000000000e+00  0.0000000000000000e+00 0.0000000000000000e+00 0.0000000000000000e+00  0.0000000000000000e+00 0.0000000000000000e+00 0.0000000000000000e+00  0.0000000000000000e+00 0.0000000000000000e+00 0.0000000000000000e+00  0.0000000000000000e+00 0.0000000000000000e+00 0.0000000000000000e+00  0.0000000000000000e+00 0.0000000000000000e+00 0.0000000000000000e+00  0.0000000000000000e+00 0.0000000000000000e+00 0.0000000000000000e+00  0.0000000000000000e+00 0.0000000000000000e+00 0.0000000000000000e+00  0.0000000000000000e+00 0.0000000000000000e+00 0.0000000000000000e+00  0.0000000000000000e+00 0.0000000000000000e+00 0.0000000000000000e+00  0.0000000000000000e+00 0.0000000000000000e+00 0.0000000000000000e+00  0.0000000000000000e+00 0.0000000000000000e+00 0.0000000000000000e+00  0.0000000000000000e+00 0.0000000000000000e+00 0.0000000000000000e+00  0.0000000000000000e+00 0.0000000000000000e+00 0.0000000000000000e+00  0.0000000000000000e+00 0.0000000000000000e+00 0.0000000000000000e+00  0.0000000000000000e+00 0.0000000000000000e+00 0.0000000000000000e+00  0.0000000000000000e+00 0.0000000000000000e+00 0.0000000000000000e+00  0.0000000000000000e+00 0.0000000000000000e+00 0.0000000000000000e+00  0.0000000000000000e+00 0.0000000000000000e+00 0.0000000000000000e+00  0.0000000000000000e+00 0.0000000000000000e+00 0.0000000000000000e+00  0.0000000000000000e+00 0.0000000000000000e+00 0.0000000000000000e+00  0.0000000000000000e+00 0.0000000000000000e+00 0.0000000000000000e+00  0.0000000000000000e+00 0.0000000000000000e+00 0.0000000000000000e+00  0.0000000000000000e+00 0.0000000000000000e+00 0.0000000000000000e+00  0.0000000000000000e+00 0.0000000000000000e+00 0.0000000000000000e+00  0.0000000000000000e+00 0.0000000000000000e+00 0.0000000000000000e+00  0.0000000000000000e+00 0.0000000000000000e+00 0.0000000000000000e+00  0.0000000000000000e+00 0.0000000000000000e+00 0.0000000000000000e+00  0.0000000000000000e+00 0.0000000000000000e+00 0.0000000000000000e+00  0.0000000000000000e+00 0.0000000000000000e+00 0.0000000000000000e+00  0.0000000000000000e+00 0.0000000000000000e+00 0.0000000000000000e+00  0.0000000000000000e+00 0.0000000000000000e+00 0.0000000000000000e+00  0.0000000000000000e+00 0.0000000000000000e+00 0.0000000000000000e+00  0.0000000000000000e+00 0.0000000000000000e+00 0.0000000000000000e+00  0.0000000000000000e+00 0.0000000000000000e+00 0.0000000000000000e+00  0.0000000000000000e+00 0.0000000000000000e+00 0.0000000000000000e+00  0.0000000000000000e+00 0.0000000000000000e+00 0.0000000000000000e+00  0.0000000000000000e+00 0.0000000000000000e+00 0.0000000000000000e+00  0.0000000000000000e+00 0.0000000000000000e+00 0.0000000000000000e+00  0.0000000000000000e+00 0.0000000000000000e+00 0.0000000000000000e+00  0.0000000000000000e+00 0.0000000000000000e+00 0.0000000000000000e+00  0.0000000000000000e+00 0.0000000000000000e+00 0.0000000000000000e+00  0.0000000000000000e+00 0.0000000000000000e+00 0.0000000000000000e+00  0.0000000000000000e+00 0.0000000000000000e+00 0.0000000000000000e+00  0.0000000000000000e+00 0.0000000000000000e+00 0.0000000000000000e+00  0.0000000000000000e+00 0.0000000000000000e+00 0.0000000000000000e+00  0.0000000000000000e+00 0.0000000000000000e+00 0.0000000000000000e+00  0.0000000000000000e+00 0.0000000000000000e+00 0.0000000000000000e+00  0.0000000000000000e+00 0.0000000000000000e+00 0.0000000000000000e+00  0.0000000000000000e+00 0.0000000000000000e+00 0.0000000000000000e+00  0.0000000000000000e+00 0.0000000000000000e+00 0.0000000000000000e+00  0.0000000000000000e+00 0.0000000000000000e+00 0.0000000000000000e+00  0.0000000000000000e+00 0.0000000000000000e+00 0.0000000000000000e+00  0.0000000000000000e+00 0.0000000000000000e+00 0.0000000000000000e+00  0.0000000000000000e+00 0.0000000000000000e+00 0.0000000000000000e+00  0.0000000000000000e+00 0.0000000000000000e+00 0.0000000000000000e+00  0.0000000000000000e+00 0.0000000000000000e+00 0.0000000000000000e+00  0.0000000000000000e+00 0.0000000000000000e+00 0.0000000000000000e+00  0.0000000000000000e+00 0.0000000000000000e+00 0.0000000000000000e+00  0.0000000000000000e+00 0.0000000000000000e+00 0.0000000000000000e+00  0.0000000000000000e+00 0.0000000000000000e+00 0.0000000000000000e+00  0.0000000000000000e+00 0.0000000000000000e+00 0.0000000000000000e+00  0.0000000000000000e+00 0.0000000000000000e+00 0.0000000000000000e+00  0.0000000000000000e+00 0.0000000000000000e+00 0.0000000000000000e+00  0.0000000000000000e+00 0.0000000000000000e+00 0.0000000000000000e+00  0.0000000000000000e+00 0.0000000000000000e+00 0.0000000000000000e+00  0.0000000000000000e+00 0.0000000000000000e+00 0.0000000000000000e+00  0.0000000000000000e+00 0.0000000000000000e+00 0.0000000000000000e+00  0.0000000000000000e+00 0.0000000000000000e+00 0.0000000000000000e+00  0.0000000000000000e+00 0.0000000000000000e+00 0.0000000000000000e+00  0.0000000000000000e+00 0.0000000000000000e+00 0.0000000000000000e+00  0.0000000000000000e+00 0.0000000000000000e+00 0.0000000000000000e+00  0.0000000000000000e+00 0.0000000000000000e+00 0.0000000000000000e+00  0.0000000000000000e+00 0.0000000000000000e+00 0.0000000000000000e+00  0.0000000000000000e+00 0.0000000000000000e+00 0.0000000000000000e+00  0.0000000000000000e+00 0.0000000000000000e+00 0.0000000000000000e+00  0.0000000000000000e+00 0.0000000000000000e+00 0.0000000000000000e+00  0.0000000000000000e+00 0.0000000000000000e+00 0.0000000000000000e+00  0.0000000000000000e+00 0.0000000000000000e+00 0.0000000000000000e+00  0.0000000000000000e+00 0.0000000000000000e+00 0.0000000000000000e+00  0.0000000000000000e+00 0.0000000000000000e+00 0.0000000000000000e+00  0.0000000000000000e+00 0.0000000000000000e+00 0.0000000000000000e+00  0.0000000000000000e+00 0.0000000000000000e+00 0.0000000000000000e+00  0.0000000000000000e+00 0.0000000000000000e+00 0.0000000000000000e+00  0.0000000000000000e+00 0.0000000000000000e+00 0.0000000000000000e+00  0.0000000000000000e+00 0.0000000000000000e+00 0.0000000000000000e+00  0.0000000000000000e+00 0.0000000000000000e+00 0.0000000000000000e+00  0.0000000000000000e+00 0.0000000000000000e+00 0.0000000000000000e+00  0.0000000000000000e+00 0.0000000000000000e+00 0.0000000000000000e+00  0.0000000000000000e+00 0.0000000000000000e+00 0.0000000000000000e+00  0.0000000000000000e+00 0.0000000000000000e+00 0.0000000000000000e+00  0.0000000000000000e+00 0.0000000000000000e+00 0.0000000000000000e+00  0.0000000000000000e+00 0.0000000000000000e+00 0.0000000000000000e+00  0.0000000000000000e+00 0.0000000000000000e+00 0.0000000000000000e+00  0.0000000000000000e+00 0.0000000000000000e+00 0.0000000000000000e+00  0.0000000000000000e+00 0.0000000000000000e+00 0.0000000000000000e+00  0.0000000000000000e+00 0.0000000000000000e+00 0.0000000000000000e+00  0.0000000000000000e+00 0.0000000000000000e+00 0.0000000000000000e+00  0.0000000000000000e+00 0.0000000000000000e+00 0.0000000000000000e+00  0.0000000000000000e+00 0.0000000000000000e+00 0.0000000000000000e+00  0.0000000000000000e+00 0.0000000000000000e+00 0.0000000000000000e+00  0.0000000000000000e+00 0.0000000000000000e+00 0.0000000000000000e+00  0.0000000000000000e+00 0.0000000000000000e+00 0.0000000000000000e+00  0.0000000000000000e+00 0.0000000000000000e+00 0.0000000000000000e+00  0.0000000000000000e+00 0.0000000000000000e+00 0.0000000000000000e+00  0.0000000000000000e+00 0.0000000000000000e+00 0.0000000000000000e+00  0.0000000000000000e+00 0.0000000000000000e+00 0.0000000000000000e+00  0.0000000000000000e+00 0.0000000000000000e+00 0.0000000000000000e+00  0.0000000000000000e+00 0.0000000000000000e+00 0.0000000000000000e+00  0.0000000000000000e+00 0.0000000000000000e+00 0.0000000000000000e+00  0.0000000000000000e+00 0.0000000000000000e+00 0.0000000000000000e+00  0.0000000000000000e+00 0.0000000000000000e+00 0.0000000000000000e+00  0.0000000000000000e+00 0.0000000000000000e+00 0.0000000000000000e+00  0.0000000000000000e+00 0.0000000000000000e+00 0.0000000000000000e+00  0.0000000000000000e+00 0.0000000000000000e+00 0.0000000000000000e+00  0.0000000000000000e+00 0.0000000000000000e+00 0.0000000000000000e+00  0.0000000000000000e+00 0.0000000000000000e+00 0.0000000000000000e+00  0.0000000000000000e+00 0.0000000000000000e+00 0.0000000000000000e+00  0.0000000000000000e+00 0.0000000000000000e+00 0.0000000000000000e+00  0.0000000000000000e+00 0.0000000000000000e+00 0.0000000000000000e+00  0.0000000000000000e+00 0.0000000000000000e+00 0.0000000000000000e+00  0.0000000000000000e+00 0.0000000000000000e+00 0.0000000000000000e+00  0.0000000000000000e+00 0.0000000000000000e+00 0.0000000000000000e+00  0.0000000000000000e+00 0.0000000000000000e+00 0.0000000000000000e+00  0.0000000000000000e+00 0.0000000000000000e+00 0.0000000000000000e+00  0.0000000000000000e+00 0.0000000000000000e+00 0.0000000000000000e+00  0.0000000000000000e+00 0.0000000000000000e+00 0.0000000000000000e+00  0.0000000000000000e+00 0.0000000000000000e+00 0.0000000000000000e+00  0.0000000000000000e+00 0.0000000000000000e+00 0.0000000000000000e+00  0.0000000000000000e+00 0.0000000000000000e+00 0.0000000000000000e+00  0.0000000000000000e+00 0.0000000000000000e+00 0.0000000000000000e+00  0.0000000000000000e+00 0.0000000000000000e+00 0.0000000000000000e+00  0.0000000000000000e+00 0.0000000000000000e+00 0.0000000000000000e+00  0.0000000000000000e+00 0.0000000000000000e+00 0.0000000000000000e+00  0.0000000000000000e+00 0.0000000000000000e+00 0.0000000000000000e+00  0.0000000000000000e+00 0.0000000000000000e+00 0.0000000000000000e+00  0.0000000000000000e+00 0.0000000000000000e+00 0.0000000000000000e+00  0.0000000000000000e+00 0.0000000000000000e+00 0.0000000000000000e+00  0.0000000000000000e+00 0.0000000000000000e+00 0.0000000000000000e+00  0.0000000000000000e+00 0.0000000000000000e+00 0.0000000000000000e+00  0.0000000000000000e+00 0.0000000000000000e+00 0.0000000000000000e+00  0.0000000000000000e+00 0.0000000000000000e+00 0.0000000000000000e+00  0.0000000000000000e+00 0.0000000000000000e+00 0.0000000000000000e+00  0.0000000000000000e+00 0.0000000000000000e+00 0.0000000000000000e+00  0.0000000000000000e+00 0.0000000000000000e+00 0.0000000000000000e+00  0.0000000000000000e+00 0.0000000000000000e+00 0.0000000000000000e+00  0.0000000000000000e+00 0.0000000000000000e+00 0.0000000000000000e+00  0.0000000000000000e+00 0.0000000000000000e+00 0.0000000000000000e+00  0.0000000000000000e+00 0.0000000000000000e+00 0.0000000000000000e+00  0.0000000000000000e+00 0.0000000000000000e+00 0.0000000000000000e+00  0.0000000000000000e+00 0.0000000000000000e+00 0.0000000000000000e+00  0.0000000000000000e+00 0.0000000000000000e+00 0.0000000000000000e+00  0.0000000000000000e+00 0.0000000000000000e+00 0.0000000000000000e+00  0.0000000000000000e+00 0.0000000000000000e+00 0.0000000000000000e+00  0.0000000000000000e+00 0.0000000000000000e+00 0.0000000000000000e+00  0.0000000000000000e+00 0.0000000000000000e+00 0.0000000000000000e+00  0.0000000000000000e+00 0.0000000000000000e+00 0.0000000000000000e+00  0.0000000000000000e+00 0.0000000000000000e+00 0.0000000000000000e+00  0.0000000000000000e+00 0.0000000000000000e+00 0.0000000000000000e+00  0.0000000000000000e+00 0.0000000000000000e+00 0.0000000000000000e+00  0.0000000000000000e+00 0.0000000000000000e+00 0.0000000000000000e+00  0.0000000000000000e+00 0.0000000000000000e+00 0.0000000000000000e+00  0.0000000000000000e+00 0.0000000000000000e+00 0.0000000000000000e+00  0.0000000000000000e+00 0.0000000000000000e+00 0.0000000000000000e+00  0.0000000000000000e+00 0.0000000000000000e+00 0.0000000000000000e+00  0.0000000000000000e+00 0.0000000000000000e+00 0.0000000000000000e+00  0.0000000000000000e+00 0.0000000000000000e+00 0.0000000000000000e+00  0.0000000000000000e+00 0.0000000000000000e+00 0.0000000000000000e+00  0.0000000000000000e+00 0.0000000000000000e+00 0.0000000000000000e+00  0.0000000000000000e+00 0.0000000000000000e+00 0.0000000000000000e+00  0.0000000000000000