<?xml version="1.0"?>
<VTKFile type="UnstructuredGrid"  version="0.1"  >
<UnstructuredGrid>
<Piece  NumberOfPoints="654" NumberOfCells="4917">
<Points>
<DataArray  type="Float64"  NumberOfComponents="3"  format="ascii">16.79941424799168 24.60460649313291 23.17113876084336  17.094559 22.791235 21.863554  15.72875411876159 23.50856259587203 21.45128056831344  17.89846943049611 24.11819751425848 21.33414985808046  14.888211 22.327982 17.749741  14.325051 22.948761 16.963799  14.805433 23.389452 18.553482  15.37642328783819 23.92669186792441 17.30954848376838  19.440363 27.979034 21.159361  18.764946 26.890524 21.838816  18.569973 28.244646 21.920042  17.86448739894618 27.87351332377404 21.58437957405533  21.037849 22.780125 22.652899  21.377769 22.56448 23.650848  22.206396 22.069073 22.684021  22.337645 24.037346 22.15365  23.262056 22.408806 21.980263  23.476196 23.597576 20.498108  21.4725799779557 23.18401562022313 21.26893049229053  23.817108 29.860323 20.826481  24.31809 31.287642 21.171801  24.612476 30.668098 20.290998  23.68831072633775 31.72454897295216 19.99592107806938  23.55756466007082 28.84713978579372 12.99854272077458  22.92518495574859 25.80619327418232 12.17295565577933  21.5367893584926 27.91236228161534 13.08763801591018  22.79868776478212 28.25592764093956 11.30550568262355  22.267578 26.588278 9.118942000000001  23.746084 26.924934 8.923121999999999  23.119345 27.871275 8.328547  23.35406666595766 28.34368433992712 9.644246448766957  26.662872 27.86867 13.427084  27.076612 26.090744 11.931489  26.26364352543284 25.22968346386975 13.55817077311996  25.23628167502299 27.27724873275373 12.43193433464872  21.175573 34.964645 14.513182  21.987892 34.394817 13.916936  21.886898 35.720978 13.834386  23.48709756623823 35.10275107937528 14.58672768734634  16.384533 24.386837 11.8185  16.62348 24.39962 10.413766  14.79075975558447 24.59500689263851 10.50515902562274  15.6349369642325 25.96118925317817 11.61605052566208  16.560066 33.376274 22.544168  16.316519 31.690681 22.070921  18.149435 32.66824 21.37796  18.192041 31.904751 22.998379  24.93268577879885 28.49731049333712 10.74798749967376  25.083111 26.726202 9.316744  24.79681259850925 28.4746811391453 8.921005539341797  15.971336 20.324263 12.15306  16.09071 21.69425 13.117797  14.35868902760499 21.27862923705066 12.43353365619502  15.05715554978317 20.64336328049349 14.28297851929843  19.777901 32.470539 14.900747  18.760443 32.367157 16.031298  18.73956218759211 30.76764209706407 15.66741760870605  20.51115934519749 31.33254972703394 15.20268534067033  14.172545 26.55954 10.986966  15.98092409032749 25.94362852352788 9.891127196674079  14.2277199134795 26.27380194627695 9.683035119830341  26.815451 23.082172 16.300594  25.79751 23.059879 15.131364  26.675066 24.23983 16.305624  26.90326797504326 24.34568686241066 14.90440028124486  25.375816 28.450567 14.483363  23.82210215307251 27.48811821943538 14.69201673868975  20.839346 30.268276 20.852587  19.317657 30.639963 20.935699  20.184523 31.392111 20.4454  19.67262514388847 30.18184355090835 19.6808661896711  24.503689 29.671127 19.79038  22.16028868557598 30.72496960181221 19.07329328095754  21.701027 36.592762 18.729219  20.880112 35.496586 18.619074  22.68078892262924 35.91356995938541 17.11327383872117  22.34482622488771 34.35661446491132 18.11992624815953  20.685814 35.311611 16.452702  20.522627 34.60894 15.512043  22.29120309118123 34.06900060151195 15.81765358969537  21.1224615026361 34.05480610066116 16.91760319400065  14.17622773577413 19.37730990124699 12.30818897321017  15.02572704078022 18.5036836127989 13.24078431340267  26.917238 25.477835 15.528884  26.135536 26.443708 15.281825  25.2126664768436 24.28956200180457 14.82766980533305  24.76655347565228 25.81169594221481 15.19544255363417  18.15333930342774 29.36568837675105 20.34169734480257  17.9452869477013 31.53222717625181 20.05939842519483  17.79797171228438 30.6071606994621 18.42802425653889  24.294603 29.577444 18.016699  22.82774825702466 28.1307849369882 18.89791170841688  22.88438813369598 29.87069513456655 17.00514812271886  23.406715 23.297709 13.587803  22.695072 23.974104 12.645649  22.675808 23.862696 14.553548  24.0483825514831 24.07073859659225 13.2228800524929  12.306627 22.575726 11.274442  13.8737160586418 21.49575123560352 10.19378137082638  13.53920630298948 23.49752695535608 9.97174639218621  14.07501300079548 22.63570049203415 11.56953851272415  18.146114 22.903234 22.726053  19.765383 22.491327 21.917885  18.041477 22.404179 21.392002  19.2397300105064 23.94790921680569 22.3875312646937  18.89162395693539 22.75942399344347 19.25435292376264  19.27242455608508 25.07681416451502 19.48787584328591  19.80107042760174 24.11255374299883 20.85968609848544  20.79795779647506 22.41979073818855 19.62658038677097  19.091801 32.034481 20.458416  19.47553074602358 32.04163483918482 19.05526014622572  27.055782 31.579859 12.692536  25.82266 31.430899 13.641361  25.53974893945596 32.75695374624793 11.29173708008582  25.28620522022151 30.70217077169982 10.95071283495363  16.84927309728597 27.55725914705484 12.4776095087365  14.91932934603018 28.06750834292076 12.1024943687918  15.27601431082902 26.26407404363918 13.50779067295413  25.182192 26.165398 17.274826  23.41522158895635 28.0923108840385 16.3538057398907  25.271093 27.122564 15.878519  23.12005815271648 26.05618994589877 15.94679165441918  24.683502 24.130955 19.008112  24.369143 25.18741 20.061569  25.003458 25.892544 18.742249  23.37298043377158 25.0456693310694 18.37922226436637  25.315256 22.902212 13.738242  24.383116 22.954344 13.356781  15.74230860350442 30.44270199452194 10.9702691156995  14.66376281033778 30.99524058140157 9.257669873316644  16.10681908811068 29.17971152206982 9.277556289599641  14.65266014188558 29.25819084476709 10.57442137110322  20.632547 28.512091 20.948994  22.384241 28.891953 20.999596  20.89458935351216 29.05380992125319 18.6851541438949  19.840185 28.852007 14.030903  22.07024916939205 28.6693264005202 14.64284875883973  20.39202572849159 29.54427902788843 15.25549292744013  21.27939449165702 27.47985543693704 15.32815344445845  15.507218 21.736431 11.853848  19.287897 27.942301 15.075205  19.00297890036875 29.14923377168345 14.97085349144617  19.95616258903191 28.27964208133996 16.64573459998274  14.074533 29.766941 16.119165  14.641191 31.152214 15.963648  14.824292 30.567768 17.250765  16.38396337849583 30.10666410212848 16.84321464819364  18.378967 26.752779 24.132742  15.718931 26.516653 23.951998  17.13534204088686 26.73511921015088 22.35756483815504  21.91840037673021 32.1504212961891 17.10592004755621  20.25251 26.950922 15.43278  20.560801 26.472178 16.490202  26.672163 23.796419 12.338297  25.689411 23.634464 11.363355  25.432449 23.076647 12.408786  24.84536159181834 24.76212320802311 11.90566282979663  15.904454 23.05512 12.525486  15.786776 23.300936 11.320448  14.44249096097261 23.97004988025175 11.92204860005011  18.399874 31.159374 21.734779  16.752598 32.304539 21.071123  24.935741 31.867823 20.196133  13.20286 23.102341 13.87697  13.229829 24.79063 13.38746  15.00761698370008 24.61456262620228 12.93670217360891  16.64168 24.2118 13.117939  17.072344 25.382822 12.634309  16.679594 31.864792 11.062869  16.585564 30.971594 9.557115  17.376589 30.617594 10.994003  21.167404 26.119181 15.773881  21.90718594939155 26.80312447984939 17.24986253964492  15.059291 21.438219 19.963776  14.921523 22.837265 20.162354  16.696394 21.625389 21.52165  16.80677612830081 22.34708008908181 20.24407814337793  13.221342 20.33518 14.324739  12.806531 18.67585 14.292344  18.475975 27.417004 12.099853  17.800913 26.578098 12.213274  18.170547 27.725729 13.262355  22.405123 24.532318 21.195826  21.055136 25.409843 21.475771  22.497158 25.69994 21.083355  21.50492072930699 25.62870928467407 19.36548723844259  16.78645224415799 24.27096438572086 19.98607965068091  15.548733 22.12487 10.877986  16.058485 23.079344 9.991225  15.993431 21.557962 9.543697  13.89735717312728 28.78896822295951 8.810191314148645  12.63707156228425 29.97470164297724 9.888829971413438  20.800926 32.462708 14.152377  21.53654278441155 32.78238980911295 15.32988155987873  12.854271 23.346283 12.400272  14.73761626970401 22.70182510224673 13.37451066083537  19.54149530396407 28.48122204998332 19.96188906490535  20.24703728359623 27.2465216957536 18.82589157576836  18.19017801652204 27.38793960456544 20.0618071290381  18.74026941121796 28.56921660190303 18.15255291843599  13.905957 25.700371 12.026479  13.845547 24.157429 16.463223  15.14371131346052 24.3901150384233 15.03040871190653  15.87303019976638 25.33700810785138 16.49784262569662  27.12696779995493 31.93566955843893 10.45242779890855  27.39622393946289 33.00705539649254 11.83038177790008  17.20541136211277 27.1705877240337 10.86728843543398  17.94344103144803 28.10451286706403 11.64505417209  13.710079 26.508236 13.429887  24.222065 28.850573 16.93224  24.751575 27.765686 17.810211  12.185946 20.880117 11.390471  11.582379 21.873045 10.210773  16.799032 20.056396 13.627665  16.13155350300663 23.31480907081641 18.66459393543242  16.097395 27.823652 23.554846  16.596081 28.402351 22.057705  18.020954 28.94323 23.186998  18.108507 27.349672 22.985094  17.809519 29.932865 24.469721  16.151127 29.149233 23.356133  17.947348 28.222807 24.307121  15.98914 28.865042 24.63018  20.134285 25.445196 16.937838  21.56200184741452 29.47319478202232 16.70269184020507  19.85336641923534 31.0280765890115 17.21559286646566  26.973202 33.83617 8.908155000000001  25.74312178436032 31.52245939268735 8.862899050496207  26.758316 32.583595 8.176685000000001  17.94909349339616 25.8860895321414 21.21767114065597  18.717226 30.501625 13.17782  19.57963 29.931803 13.911192  18.180937 33.10453 20.033667  17.096289 32.746567 20.021561  17.406347 33.603001 21.304171  16.32620317309 29.34801492813706 11.95373168279023  15.71716888316388 27.89037650097602 10.83891677211791  23.112244 22.561844 18.284384  22.168648 22.028986 18.549225  23.01
[...]
<CellData  Scalars="f">
<DataArray  type="Float64"  Name="f"  format="ascii">3 3 3 3 3 3 3 3 3 3 3 3 3 3 3 3 3 3 3 3 3 3 3 3 3 3 3 3 3 3 3 3 3 3 3 3 3 3 3 3 3 3 3 3 3 3 3 3 3 3 3 3 3 3 3 3 3 3 3 3 3 3 3 3 3 3 3 3 3 3 3 3 3 3 3 3 3 3 3 3 3 3 3 3 3 3 3 3 3 3 3 3 3 3 3 3 3 3 3 3 3 3 3 3 3 3 3 3 3 3 3 3 3 3 3 3 3 3 3 3 3 3 3 3 3 3 3 3 3 3 3 3 3 3 3 3 3 3 3 3 3 3 3 3 3 3 3 3 3 3 3 3 3 3 3 3 3 3 3 3 3 3 3 3 3 3 3 3 3 3 3 3 3 3 3 3 3 3 3 3 3 3 3 3 3 3 3 3 3 3 3 3 3 3 3 3 3 3 3 3 3 3 3 3 3 3 3 3 3 3 3 3 3 3 3 3 3 3 3 3 3 3 3 3 3 3 3 3 3 3 3 3 3 3 3 3 3 3 3 3 3 3 3 3 3 3 3 3 3 3 3 3 3 3 3 3 3 3 3 3 3 3 3 3 3 3 3 3 3 3 3 3 3 3 3 3 3 3 3 3 3 3 3 3 3 3 3 3 3 3 3 3 3 3 3 3 3 3 3 3 3 3 3 3 3 3 3 3 3 3 3 3 3 3 3 3 3 3 3 3 3 3 3 3 3 3 3 3 3 3 3 3 3 3 3 3 3 3 3 3 3 3 3 3 3 3 3 3 3 3 3 3 3 3 3 3 3 3 3 3 3 3 3 3 3 3 3 3 3 3 3 3 3 3 3 3 3 3 3 3 3 3 3 3 3 3 3 3 3 3 3 3 3 3 3 3 3 3 3 3 3 3 3 3 3 3 3 3 3 3 3 3 3 3 3 3 3 3 3 3 3 3 3 3 3 3 3 3 3 3 3 3 3 3 3 3 3 3 3 3 3 3 3 3 3 3 3 3 3 3 3 3 3 3 3 3 3 3 3 3 3 3 3 3 3 3 3 3 3 3 3 3 3 3 3 3 3 3 3 3 3 3 3 3 3 3 3 3 3 3 3 3 3 3 3 3 3 3 3 3 3 3 3 3 3 3 3 3 3 3 3 3 3 3 3 3 3 3 3 3 3 3 3 3 3 3 3 3 3 3 3 3 3 3 3 3 3 3 3 3 3 3 3 3 3 3 3 3 3 3 3 3 3 3 3 3 3 3 3 3 3 3 3 3 3 3 3 3 3 3 3 3 3 3 3 3 3 3 3 3 3 3 3 3 3 3 3 3 3 3 3 3 3 3 3 3 3 3 3 3 3 3 3 3 3 3 3 3 3 3 3 3 3 3 3 3 3 3 3 3 3 3 3 3 3 3 3 3 3 3 3 3 3 3 3 3 3 3 3 3 3 3 3 3 3 3 3 3 3 3 3 3 3 3 3 3 3 3 3 3 3 3 3 3 3 3 3 3 3 3 3 3 3 3 3 3 3 3 3 3 3 3 3 3 3 3 3 3 3 3 3 3 3 3 3 3 3 3 3 3 3 3 3 3 3 3 3 3 3 3 3 3 3 3 3 3 3 3 3 3 3 3 3 3 3 3 3 3 3 3 3 3 3 3 3 3 3 3 3 3 3 3 3 3 3 3 3 3 3 3 3 3 3 3 3 3 3 3 3 3 3 3 3 3 3 3 3 3 3 3 3 3 3 3 3 3 3 3 3 3 3 3 3 3 3 3 3 3 3 3 3 3 3 3 3 3 3 3 3 3 3 3 3 3 3 3 3 3 3 3 3 3 3 3 3 3 3 3 3 3 3 3 3 3 3 3 3 3 3 3 3 3 3 3 3 3 3 3 3 3 3 3 3 3 3 3 3 3 3 3 3 3 3 3 3 3 3 3 3 3 3 3 3 3 3 3 3 3 3 3 3 3 3 3 3 3 3 3 3 3 3 3 3 3 3 3 3 3 3 3 3 3 3 3 3 3 3 3 3 3 3 3 3 3 3 3 3 3 3 3 3 3 3 3 3 3 3 3 3 3 3 3 3 3 3 3 3 3 3 3 3 3 3 3 3 3 3 3 3 3 3 3 3 3 3 3 3 3 3 3 3 3 3 3 3 3 3 3 3 3 3 3 3 3 3 3 3 3 3 3 3 3 3 3 3 3 3 3 3 3 3 3 3 3 3 3 3 3 3 3 3 3 3 3 3 3 3 3 3 3 3 3 3 3 3 3 3 3 3 3 3 3 3 3 3 3 3 3 3 3 3 3 3 3 3 3 3 3 3 3 3 3 3 3 3 3 3 3 3 3 3 3 3 3 3 3 3 3 3 3 3 3 3 3 3 3 3 3 3 3 3 3 3 3 3 3 3 3 3 3 3 3 3 3 3 3 3 3 3 3 3 3 3 3 3 3 3 3 3 3 3 3 3 3 3 3 3 3 3 3 3 3 3 3 3 3 3 3 3 3 3 3 3 3 3 3 3 3 3 3 3 3 3 3 3 3 3 3 3 3 3 3 3 3 3 3 3 3 3 3 3 3 3 3 3 3 3 3 3 3 3 3 3 3 3 3 3 3 3 3 3 3 3 3 3 3 3 3 3 3 3 3 3 3 3 3 3 3 3 3 3 3 3 3 3 3 3 3 3 3 3 3 3 3 3 3 3 3 3 3 3 3 3 3 3 3 3 3 3 3 3 3 3 3 3 3 3 3 3 3 3 3 3 3 3 3 3 3 3 3 3 3 3 3 3 3 3 3 3 3 3 3 3 3 3 3 3 3 3 3 3 3 3 3 3 3 3 3 3 3 3 3 3 3 3 3 3 3 3 3 3 3 3 3 3 3 3 3 3 3 3 3 3 3 3 3 3 3 3 3 3 3 3 3 3 3 3 3 3 3 3 3 3 3 3 3 3 3 3 3 3 3 3 3 3 3 3 3 3 3 3 3 3 3 3 3 3 3 3 3 3 3 3 3 3 3 3 3 3 3 3 3 3 3 3 3 3 3 3 3 3 3 3 3 3 3 3 3 3 3 3 3 3 3 3 3 3 3 3 3 3 3 3 3 3 3 3 3 3 3 3 3 3 3 3 3 3 3 3 3 3 3 3 3 3 3 3 3 3 3 3 3 3 3 3 3 3 3 3 3 3 3 3 3 3 3 3 3 3 3 3 3 3 3 3 3 3 3 3 3 3 3 3 3 3 3 3 3 3 3 3 3 3 3 3 3 3 3 3 3 3 3 3 3 3 3 3 3 3 3 3 3 3 3 3 3 3 3 3 3 3 3 3 3 3 3 3 3 3 3 3 3 3 3 3 3 3 3 3 3 3 3 3 3 3 3 3 3 3 3 3 3 3 3 3 3 3 3 3 3 3 3 3 3 3 3 3 3 3 3 3 3 3 3 3 3 3 3 3 3 3 3 3 3 3 3 3 3 3 3 3 3 3 3 3 3 3 3 3 3 3 3 3 3 3 3 3 3 3 3 3 3 3 3 3 3 3 3 3 3 3 3 3 3 3 3 3 3 3 3 3 3 3 3 3 3 3 3 3 3 3 3 3 3 3 3 3 3 3 3 3 3 3 3 3 3 3 3 3 3 3 3 3 3 3 3 3 3 3 3 3 3 3 3 3 3 3 3 3 3 3 3 3 3 3 3 3 3 3 3 3 3 3 3 3 3 3 3 3 3 3 3 3 3 3 3 3 3 3 3 3 3 3 3 3 3 3 3 3 3 3 3 3 3 3 3 3 3 3 3 3 3 3 3 3 3 3 3 3 3 3 3 3 3 3 3 3 3 3 3 3 3 3 3 3 3 3 3 3 3 3 3 3 3 3 3 3 3 3 3 3 3 3 3 3 3 3 3 3 3 3 3 3 3 3 3 3 3 3 3 3 3 3 3 3 3 3 3 3 3 3 3 3 3 3 3 3 3 3 3 3 3 3 3 3 3 3 3 3 3 3 3 3 3 3 3 3 3 3 3 3 3 3 3 3 3 3 3 3 3 3 3 3 3 3 3 3 3 3 3 3 3 3 3 3 3 3 3 3 3 3 3 3 3 3 3 3 3 3 3 3 3 3 3 3 3 3 3 3 3 3 3 3 3 3 3 3 3 3 3 3 3 3 3 3 3 3 3 3 3 3 3 3 3 3 3 3 3 3 3 3 3 3 3 3 3 3 3 3 3 3 3 3 3 3 3 3 3 3 3 3 3 3 3 3 3 3 3 3 3 3 3 3 3 3 3 3 3 3 3 3 3 3 3 3 3 3 3 3 3 3 3 3 3 3 3 3 3 3 3 3 3 3 3 3 3 3 3 3 3 3 3 3 3 3 3 3 3 3 3 3 3 3 3 3 3 3 3 3 3 3 3 3 3 3 3 3 3 3 3 3 3 3 3 3 3 3 3 3 3 3 3 3 3 3 3 3 3 3 3 3 3 3 3 3 3 3 3 3 3 3 3 3 3 3 3 3 3 3 3 3 3 3 3 3 3 3 3 3 3 3 3 3 3 3 3 3 3 3 3 3 3 3 3 3 3 3 3 3 3 3 3 3 3 3 3 3 3 3 3 3 3 3 3 3 3 3 3 3 3 3 3 3 3 3 3 3 3 3 3 3 3 3 3 3 3 3 3 3 3 3 3 3 3 3 3 3 3 3 3 3 3 3 3 3 3 3 3 3 3 3 3 3 3 3 3 3 3 3 3 3 3 3 3 3 3 3 3 3 3 3 3 3 3 3 3 3 3 3 3 3 3 3 3 3 3 3 3 3 3 3 3 3 3 3 3 3 3 3 3 3 3 3 3 3 3 3 3 3 3 3 3 3 3 3 3 3 3 3 3 3 3 3 3 3 3 3 3 3 3 3 3 3 3 3 3 3 3 3 3 3 3 3 3 3 3 3 3 3 3 3 3 3 3 3 3 3 3 3 3 3 3 3 3 3 3 3 3 3 3 3 3 3 3 3 3 3 3 3 3 3 3 3 3 3 3 3 3 3 3 3 3 3 3 3 3 3 3 3 3 3 3 3 3 3 3 3 3 3 3 3 3 3 3 3 3 3 3 3 3 3 3 3 3 3 3 3 3 3 3 3 3 3 3 3 3 3 3 3 3 3 3 3 3 3 3 3 3 3 3 3 3 3 3 3 3 3 3 3 3 3 3 3 3 3 3 3 3 3 3 3 3 3 3 3 3 3 3 3 3 3 3 3 3 3 3 3 3 3 3 3 3 3 3 3 3 3 3 3 3 3 3 3 3 3 3 3 3 3 3 3 3 3 3 3 3 3 3 3 3 3 3 3 3 3 3 3 3 3 3 3 3 3 3 3 3 3 3 3 3 3 3 3 3 3 3 3 3 3 3 3 3 3 3 3 3 3 3 3 3 3 3 3 3 3 3 3 3 3 3 3 3 3 3 3 3 3 3 3 3 3 3 3 3 3 3 3 3 3 3 3 3 3 3 3 3 3 3 3 3 3 3 3 3 3 3 3 3 3 3 3 3 3 3 3 3 3 3 3 3 3 3 3 3 3 3 3 3 3 3 3 3 3 3 3 3 3 3 3 3 3 3 3 3 3 3 3 3 3 3 3 3 3 3 3 3 3 3 3 3 3 3 3 3 3 3 3 3 3 3 3 3 3 3 3 3 3 3 3 3 3 3 3 3 3 3 3 3 3 3 3 3 3 3 3 3 3 3 3 3 3 3 3 3 3 3 3 3 3 3 3 3 3 3 3 3 3 3 3 3 3 3 3 3 3 3 3 3 3 3 3 3 3 3 3 3 3 3 3 3 3 3 3 3 3 3 3 3 3 3 3 3 3 3 3 3 3 3 3 3 3 3 3 3 3 3 3 3 3 3 3 3 3 3 3 3 3 3 3 3 3 3 3 3 3 3 3 3 3 3 3 3 3 3 3 3 3 3 3 3 3 3 3 3 3 3 3 3 3 3 3 3 3 3 3 3 3 3 3 3 3 3 3 3 3 3 3 3 3 3 3 3 3 3 3 3 3 3 3 3 3 3 3 3 3 3 3 3 3 3 3 3 3 3 3 3 3 3 3 3 3 3 3 3 3 3 3 3 3 3 3 3 3 3 3 3 3 3 3 3 3 3 3 3 3 3 3 3 3 3 3 3 3 3 3 3 3 3 3 3 3 3 3 3 3 3 3 3 3 3 3 3 3 3 3 3 3 3 3 3 3 3 3 3 3 3 3 3 3 3 3 3 3 3 3 3 3 3 3 3 3 3 3 3 3 3 3 3 3 3 3 3 3 3 3 3 3 3 3 3 3 3 3 3 3 3 3 3 3 3 3 3 3 3 3 3 3 3 3 3 3 3 3 3 3 3 3 3 3 3 3 3 3 3 3 3 3 3 3 3 3 3 3 3 3 3 3 3 3 3 3 3 3 3 3 3 3 3 3 3 3 3 3 3 3 3 3 3 3 3 3 3 3 3 3 3 3 3 3 3 3 3 3 3 3 3 3 3 3 3 3 3 3 3 3 3 3 3 3 3 3 3 3 3 3 3 3 3 3 3 3 3 3 3 3 3 3 3 3 3 3 3 3 3 3 3 3 3 3 3 3 3 3 3 3 3 3 3 3 3 3 3 3 3 3 3 3 3 3 3 3 3 3 3 3 3 3 3 3 3 3 3 3 3 3 3 3 3 3 3 3 3 3 3 3 3 3 3 3 3 3 3 3 3 3 3 3 3 3 3 3 3 3 3 3 3 3 3 3 3 3 3 3 3 3 3 3 3 3 3 3 3 3 3 3 3 3 3 3 3 3 3 3 3 3 3 3 3 3 3 3 3 3 3 3 3 3 3 3 3 3 3 3 3 3 3 3 3 3 3 3 3 3 3 3 3 3 3 3 3 3 3 3 3 3 3 3 3 3 3 3 3 3 3 3 3 3 3 3 3 3 3 3 3 3 3 3 3 3 3 3 3 3 3 3 3 3 3 3 3 3 3 3 3 3 3 3 3 3 3 3 3 3 3 3 3 3 3 3 3 3 3 3 3 3 3 3 3 3 3 3 3 3 3 3 3 3 3 3 3 3 3 3 3 3 3 3 3 3 3 3 3 3 3 3 3 3 3 3 3 3 3 3 3 3 3 3 3 3 3 3 3 3 3 3 3 3 3 3 3 3 3 3 3 3 3 3 3 3 3 3 3 3 3 3 3 3 3 3 3 3 3 3 3 3 3 3 3 3 3 3 3 3 3 3 3 3 3 3 3 3 3 3 3 3 3 3 3 3 3 3 3 3 3 3 3 3 3 3 3 3 3 3 3 3 3 3 3 3 3 3 3 3 3 3 3 3 3 3 3 3 3 3 3 3 3 3 3 3 3 3 3 3 3 3 3 3 3 3 3 3 3 3 3 3 3 3 3 3 3 3 3 3 3 3 3 3 3 3 3 3 3 3 3 3 3 3 3 3 3 3 3 3 3 3 3 3 3 3 3 3 3 3 3 3 3 3 3 3 3 3 3 3 3 3 3 3 3 3 3 3 3 3 3 3 3 3 3 3 3 3 3 3 3 3 3 3 3 3 3 3 3 3 3 3 3 3 3 3 3 3 3 3 3 3 3 3 3 3 3 3 3 3 3 3 3 3 3 3 3 3 3 3 3 3 3 3 3 3 3 3 3 3 3 3 3 3 3 3 3 3 3 3 3 3 3 3 3 3 3 3 3 3 3 3 3 3 3 3 3 3 3 3 3 3 3 3 3 3 3 3 3 3 3 3 3 3 3 3 3 3 3 3 3 3 3 3 3 3 3 3 3 3 3 3 3 3 3 3 3 3 3 3 3 3 3 3 3 3 3 3 3 3 3 3 3 3 3 3 3 3 3 3 3 3 3 3 3 3 3 3 3 3 3 3 3 3 3 3 3 3 3 3 3 3 3 3 3 3 3 3 3 3 3 3 3 3 3 3 3 3 3 3 3 3 3 3 3 3 3 3 3 3 3 3 3 3 3 3 3 3 3 3 3 3 3 3 3 3 3 3 3 3 3 3 3 3 3 3 3 3 3 3 3 3 3 3 3 3 3 3 3 3 3 3 3 3 3 3 3 3 3 3 3 3 3 3 3 3 3 3 3 3 3 3 3 3 3 3 3 3 3 3 3 3 3 3 3 3 3 3 3 3 3 3 3 3 3 3 3 3 3 3 3 3 3 3 3 3 3 3 3 3 3 3 3 3 3 3 3 3 3 3 3 3 3 3 3 3 3 3 3 3 3 3 3 3 3 3 3 3 3 3 3 3 3 3 3 3 3 3 3 3 3 3 3 3 3 3 3 3 3 3 3 3 3 3 3 3 3 3 3 3 3 3 3 3 3 3 3 3 3 3 3 3 3 3 3 3 3 3 3 3 3 3 3 3 3 3 3 3 3 3 3 3 3 3 3 3 3 3 3 3 3 3 3 3 3 3 3 3 3 3 3 3 3 3 3 3 3 3 3 3 3 3 3 3 3 3 3 3 3 3 3 3 3 3 3 3 3 3 3 3 3 3 3 3 3 3 3 3 3 3 3 3 3 3 3 3 3 3 3 3 3 3 3 3 3 3 3 3 3 3 3 3 3 3 3 3 3 3 3 3 3 3 3 3 3 3 3 3 3 3 3 3 3 3 3 3 3 3 3 3 3 3 3 3 3 3 3 3 3 3 3 3 3 3 3 3 3 3 3 3 3 3 3 3 3 3 3 3 3 3 3 3 3 3 3 3 3 3 3 3 3 3 3 3 3 3 3 3 3 3 3 3 3 3 3 3 3 3 3 3 3 3 3 3 3 3 3 3 3 3 3 3 3 3 3 3 3 3 3 3 3 3 3 3 3 3 3 3 3 3 3 3 3 3 3 3 3 3 3 3 3 3 3 3 3 3 3 3 3 3 3 3 3 3 3 3 3 3 3 3 3 3 3 3 3 3 3 3 3 3 3 3 3 3 3 3 3 3 3 3 3 3 3 3 3 3 3 3 3 3 3 3 3 3 3 3 3 3 3 3 3 3 3 3 3 3 3 3 3 3 3 3 3 3 3 3 3 3 3 3 3 3 3 3 3 3 3 3 3 3 3 3 3 3 3 3 3 3 3 3 3 3 3 3 3 3 3 3 3 3 3 3 3 3 3 3 3 3 3 3 3 3 3 3 3 3 3 3 3 3 3 3 3 3 3 3 3 3 3 3 3 3 3 3 3 3 3 3 3 3 3 3 3 3 3 3 3 3 3 3 3 3 3 3 3 3 3 3 3 3 3 3 3 3 3 3 3 3 3 3 3 3 3 3 3 3 3 3 3 3 3 3 3 3 3 3 3 3 3 3 3 3 3 3 3 3 3 3 3 3 3 3 3 3 3 3 3 3 3 3 3 3 3 3 3 3 3 3 3 3 3 3 3 3 3 3 3 3 3 3 3 3 3 3 3 3 3 3 3 3 3 3 3 3 3 3 3 3 3 3 3 3 3 3 3 3 3 3 3 3 3 3 3 3 3 3 3 3 3 3 3 3 3 3 3 3 3 3 3 3 3 3 3 3 3 3 3 3 3 3 3 3 3 3 3 3 3 3 3 3 3 3 3 3 3 3 3 3 3 3 3 3 3 3 3 3 3 3 3 3 3 3 3 3 3 3 3 3 3 3 3 3 3 3 3 3 3 3 3 3 3 3 3 3 3 3 3 3 3 3 3 3 3 3 3 3 3 3 3 3 3 3 3 3 3 3 3 3 3 3 3 3 3 3 3 3 3 3 3 3 3 3 3 3 3 3 3 3 3 3 3 3 3 3 3 3 3 3 3 3 3 3 3 3 3 3 3 3 3 3 3 3 3 3 3 3 3 3 3 3 3 3 3 3 3 3 3 3 3 3 3 3 3 3 3 3 3 3 3 3 3 3 3 3 3 3 3 3 3 3 3 3 3 3 3 3 3 3 3 3 3 3 3 3 3 3 3 3 3 3 3 3 3 3 3 3 3 3 3 3 3 3 3 3 3 3 3 3 3 3 3 3 3 3 3 3 3 3 3 3 3 3 3 3 3 3 3 3 3 3 3 3 3 3 3 3 3 3 3 3 3 3 3 3 3 3 3 3 3 3 3 3 3 3 3 3 3 3 3 3 3 3 3 3 3 3 3 3 3 3 3 3 3 3 3 3 3 3 3 3 3 3 3 3 3 3 3 3 3 3 3 3 3 3 3 3 3 3 3 3 3 3 3 3 3 3 3 3 3 3 3 3 3 3 3 3 3 3 3 3 3 3 3 3 3 3 3 3 3 3 3 3 3 3 3 3 3 3 3 3 3 3 3 3 3 3 3 3 3 3 3 3 3 3 3 3 3 3 3 3 3 3 3 3 3 3 3 3 3 3 3 3 3 3 3 3 3 3 3 3 3 3 3 3 3 3 3 3 3 3 3 3 3 3 3 3 3 3 3 3 3 3 3 3 3 3 3 3 3 3 3 3 3 3 3 3 3 3 3 3 3 3 3 3 3 3 3 3 3 3 3 3 3 3 3 3 3 3 3 3 3 3 3 3 3 3 3 3 3 3 3 3 3 3 3 3 3 3 3 3 3 3 3 3 3 3 3 3 3 3 3 3 3 3 3 3 3 3 3 3 3 3 3 3 3 3 3 3 3 3 3 3 3 3 3 3 3 3 3 3 3 3 3 3 3 3 3 3 3 3 3 3 3 3 3 3 3 3 3 3 3 3 3 3 3 3 3 3 3 3 3 3 3 3 3 3 3 3 3 3 3 3 3 3 3 3 3 3 3 3 3 3 3 3 3 3 3 3 3 3 3 3 3 3 3 3 3 3 3 3 3 3 3 3 3 3 3 3 3 3 3 3 3 3 3 3 3 3 3 3 3 3 3 3 3 3 3 3 3 3 3 3 3 3 3 3 3 3 3 3 3 3 3 3 3 3 3 3 3 3 3 3 3 3 3 3 3 3 3 3 3 3 3 3 3 3 3 3 3 3 3 3 3 3 3 3 3 3 3 3 3 3 3 3 3 3 3 3 3 3 3 3 3 3 3 3 3 3 3 3 3 3 3 3 3 3 3 3 3 3 3 3 3 3 </DataArray>
</CellData>
</Piece>
</UnstructuredGrid>
</VTKFile>