<?xml version="1.0"?>
<VTKFile type="UnstructuredGrid"  version="0.1"  >
<UnstructuredGrid>
<Piece  NumberOfPoints="652" NumberOfCells="4601">
<Points>
<DataArray  type="Float64"  NumberOfComponents="3"  format="ascii">2.90454 4.176408 33.002907  3.103756 5.530081 31.822014  1.872853508738427 5.428076532250634 30.75962691114437  1.593032580551337 6.516206925562702 32.61205706817097  8.108129 2.645271 39.990357  6.984982 3.542747 39.990357  8.24638 4.042 39.990357  8.63982291515892 3.266434695502355 39.05302559793218  3.830584 9.395108 22.232059  2.369615039764684 8.798508775594295 23.59068348349345  2.001508 9.569331999999999 22.30386  3.580095 8.396663 22.853495  2.948256 0.71506 35.606419  3.371563 1.591081 35.643356  2.187340417404054 0.6981458499219915 35.41513825655166  3.164067230528568 1.50156521916444 36.84247932213352  9.988780005831709 6.190788511188918 15.77902919721475  11.179282 5.873302 17.723663  9.145749075111736 5.529626875822297 17.47784288742655  11.09657596658009 4.208204617489974 16.22286704003758  2.392966 8.370703000000001 22.397139  2.761474 7.324936 23.250305  3.096877 4.382407 27.281906  3.23231 2.627664 26.953394  3.19242 3.303172 28.793196  1.570671161331452 3.151218661002469 27.45026565361989  16.827629 2.832532 38.375504  15.498169 2.828165 38.679195  16.149122 3.672678 37.782757  15.85018309259081 1.942365477292305 37.13623389180099  13.67393 6.052035 36.305897  14.30375 4.77475 37.149136  13.171934 5.289092 37.735195  12.81573730019057 4.424112893797746 36.3439561539121  2.734245 3.858826 20.164335  3.279563 3.859145 19.106361  3.759705679514101 3.986724431482681 19.5737817055754  3.397803775553687 2.784263217453935 19.34558403347455  11.082023 5.254877 19.159706  11.826626 4.477274 17.576538  9.079328560553165 3.346633638265568 18.09416463301836  0.02680700000000003 1.870593 17.696362  1.105964 3.702955 17.237652  1.272646054608914 2.784040486114587 18.88978752074323  2.631242803230095 2.478889134565614 17.74103271252647  4.085579 7.369463 28.91921  3.676081 6.343676 30.258055  3.648543 7.739446 30.132721  1.94758104424664 7.431530975670473 29.26892093871275  16.200176 1.339491 38.725456  14.57580151043068 1.750044186216355 37.58902189782517  12.27898 3.756383 35.02018  14.2052555186122 4.565702780299599 34.85205620009433  13.03377710244934 5.663912849961119 34.51516455983888  0.02680700000000003 2.977616 29.962786  0.02680700000000003 1.650057 28.917238  0.02680700000000003 2.948839 28.317541  1.439930327651919 2.169888763670889 29.26412208392532  7.334239 6.183576 16.002455  7.657056 7.591791 16.409897  7.292536 6.316513 17.388098  9.238594066135658 7.169109933510089 17.29124498210212  0.02680700000000003 12.721975 23.610186  0.02680700000000003 11.263916 23.184898  0.638636 12.617469 21.956867  1.574672196852772 12.59506526824534 23.69351216179657  1.096317 0.638 38.714272  1.543627 -0.01335700000000001 37.520416  1.497247007359883 1.999093709848091 36.79457280715016  2.61505768474394 1.456413487593162 38.58248178757136  4.059169 7.890597 27.506966  4.794579 8.495347000000001 28.34724  3.392998903453955 8.752180887031203 28.48863606678422  12.462471 6.276785 39.173805  11.19089661666494 5.690265697311433 38.19081731854173  12.073044 7.019029 38.541924  12.668952 6.010412 38.350685  5.320633 4.819111 21.66165  4.96155 3.922868 22.54925  4.640513588864506 2.970885365371612 20.56208987222173  6.140153261453117 3.626024844112363 21.94455348563365  2.836463 2.373861 39.990357  2.716544125985749 3.071931995587435 37.69678046262901  1.492678151001903 3.279133597441563 38.39964187654284  3.01800398558222 4.365355149065504 38.6716008078497  1.555053587185205 2.611930564471255 20.71090485837778  0.02680700000000003 2.664776 22.096937  0.637288 3.927063 21.346769  0.02680700000000003 2.274973 20.831421  0.02680700000000003 8.649812000000001 27.09025  0.02680700000000003 7.02902 26.386627  0.02680700000000003 8.358852000000001 25.485004  1.152928229686626 8.634970635087775 26.84906857541736  2.707785 3.529755 22.66572  1.479361730011364 2.897906920457269 22.96303270774423  2.814598869867977 1.650720911898391 22.28122893937234  2.784528579889439 1.700884328798009 24.04278141705315  6.073363896330308 3.207151848793825 20.40096815887856  5.838818 0.850534 19.913553  4.951802232987822 1.842619381698154 21.51949065549542  2.148321 8.09835 32.058502  2.652522 8.711992 30.700006  3.018001 7.213911 31.347115  1.420592537692452 7.554093391952142 30.66119768258188  13.482901 0.72478 19.173338  13.67239 1.733849 19.913219  12.791915 2.504715 19.221054  12.11834098176225 1.438854593917127 20.67862708788055  4.644227 3.130739 17.144991  3.843421 2.525573 16.10137  4.469658 1.809535 17.599207  3.474804 1.534418 16.758986  3.524227 6.600103 27.793512  2.344479773007319 7.550003786605104 27.71580452205707  2.665436351556486 5.973670381071991 28.68403463365997  10.195421 5.868438 39.990357  11.68507 5.099676 39.990357  11.0854638139882 6.764864662057776 39.07866819308566  3.037839048403492 1.152717765311809 20.68936001343406  3.473571850343899 3.001306832433909 21.24379129428972  0.02680700000000003 3.236346 33.562542  2.522309 2.986084 33.892792  2.20954 1.85301 33.257195  1.248254956617232 1.873017852807638 32.32416895121762  7.957528 1.815943 24.506544  8.609724999999999 0.64855 24.887966  7.73708169417117 0.294812099765785 24.40073580761038  7.696330321075723 1.264970565931965 23.61180822640547  3.836195 10.422439 28.070339  4.379651 10.611332 26.386246  3.839475134111804 9.380218584420255 27.50043295466276  2.897657955372081 10.00312604567317 27.78337456740331  0.02680700000000003 6.576068 33.263737  1.533466 8.121375 33.334061  0.834531 7.748026 34.373596  7.467476335346676 4.666684533839442 21.44108678891366  6.917232500000001 3.996554 22.998538  7.592638822398778 3.307426998665778 22.09468184443084  13.018875 1.380193 18.114077  0.947927 0.711089 27.930456  0.7523496806461508 0.6167503319067716 29.87504989156545  2.612752 0.893889 30.971436  2.587726 0.629078 29.503416  1.843959 -0.01335700000000001 30.415695  1.55300983648632 1.669919948023772 30.74818912507023  5.540937 3.186525 23.345285  7.409754 3.321508 23.290775  6.56496883476179 1.889881524437657 22.21575658168782  12.847975 5.07814 38.949997  1.338674 10.957911 22.166231  2.187018 12.371036 21.3752  3.246394781939962 11.9565868268149 23.39082594479408  13.082956 2.198281 14.013611  13.120306 1.019364 14.677444  12.976365 1.993554 15.488335  11.73742460021925 1.699048826205913 14.5532751942447  8.550651 1.10503 16.796988  8.775138255849614 2.180431181813743 14.68478129489693  8.873922708737167 4.056519372608232 15.28718100419623  10.50773277306155 1.866703909377889 16.17565911683996  11.990206 3.907558 19.498903  12.980768 3.18072 20.21422  3.275159585529635 10.09620199773656 28.9122717578199  10.01411505186161 1.462710162832835 23.30815227536571  3.400516 -0.01335700000000001 20.167757  2.424962 -0.01335700000000001 21.208481  3.956589 -0.01335700000000001 22.016504  10.446429 6.440118 18.708942  10.215004 7.548627 18.423058  11.063432 7.127801 17.479862  3.194216 3.376536 24.179119  7.187338 1.171043 19.172543  5.866227 1.518406 18.553928  7.56102814046451 2.223395267506302 20.05897445576552  0.02680700000000003 6.930294 36.07909  0.02680700000000003 6.404526 34.885223  1.392051 7.914228 35.998283  1.486682768784499 5.910798228764215 34.52291848092786  12.614226 4.521637 16.216867  12.846343 3.423224 15.142338  11.95144679361038 3.514745626555514 14.38026514186026  0.02680700000000003 1.601157 27.291243  9.772055999999999 -0.01335700000000001 16.18066  8.685843 1.058775 15.119533  0.02680700000000003 2.930121 25.21727  0.02680700000000003 4.01583 24.246229  1.621036503435418 3.64464054736461 24.89027148837313  1.395097659868281 2.345610071107976 24.54558255367817  4.348744 4.060191 19.23456  5.002242142632722 2.876165224166749 18.84915163099938  3.952871804660191 3.570417537217012 20.16276484912486  8.292892 7.645452 38.358482  9.200704999999999 7.37976 36.922546  8.281462733224858 5.822692469130706 38.26952501816969  7.573423 6.823565 37.083263  4.613755 4.503167 20.47183  3.634819 3.801227 21.761599  5.904327 5.523975 20.470007  5.158191 6.733023 39.322826  4.258432369445338 6.353707327201335 37.82255511688483  6.134391382885794 5.520849559002839 38.16427141412493  4.208637496903162 5.194889558001024 38.97096245782643  3.097958 3.34049 30.299126  1.667151842500998 3.413607501727899 31.50274206705967  1.531814110981524 4.307753766129337 29.16402690962944  0.02680700000000003 5.744103 27.259064  1.796427952052714 5.185436055996822 27.62886426167819  1.511971817788673 6.204217224524023 26.24251977397117  1.236971778526714 6.825624962671906 27.58250000064123  6.783083 4.94017 16.578421  6.667376 2.748777 16.570398  6.403601 3.744752 15.471591  1.215332438809271 3.590510116643971 34.98565431945552  0.02680700000000003 1.834744 34.099358  0.02680700000000003 1.650104 35.677536  0.02680700000000003 3.382682 35.361626  2.042991627703298 9.186726727078831 24.89389058366823  2.909431280748954 10.84509322275952 24.37535971356375  3.654812018982996 9.734165543511946 25.58199101073977  3.77670041307679 9.669989269833406 23.79331886443866  2.462108132095159 8.947725141376742 27.1963379458323  10.446595 -0.01335700000000001 15.007891  11.489937 -0.01335700000000001 16.319675  0.02680700000000003 3.603838 22.779114  1.648268 4.376722 22.019854  0.02680700000000003 4.999577 22.78363  1.257983158630909 4.859684521874847 23.70035790261195  9.885706000000001 5.998405 35.353916  8.893940000000001 7.212527 35.106964  9.118154000000001 6.270582 34.906351  9.539427674197992 6.367733401005842 36.64658481870528  4.590036 7.532928 36.589603  2.978626 7.951661 36.123737  3.754299 6.732141 35.59687  3.520635391920413 7.780875743745752 37.74130717203691  2.844239 -0.01335700000000001 22.404057  7.311618 2.208425 15.747955  7.231108 1.778574 17.580036  10.8732 4.413006 35.934494  11.571459 3.045808 36.322132  0.02680700000000003 6.317283 22.873096  0.80269 5.5933
[...]
<CellData  Scalars="f">
<DataArray  type="Float64"  Name="f"  format="ascii">3 3 3 3 3 3 3 3 3 3 3 3 3 3 3 3 3 3 3 3 3 3 3 3 3 3 3 3 3 3 3 3 3 3 3 3 3 3 3 3 3 3 3 3 3 3 3 3 3 3 3 3 3 3 3 3 3 3 3 3 3 3 3 3 3 3 3 3 3 3 3 3 3 3 3 3 3 3 3 3 3 3 3 3 3 3 3 3 3 3 3 3 3 3 3 3 3 3 3 3 3 3 3 3 3 3 3 3 3 3 3 3 3 3 3 3 3 3 3 3 3 3 3 3 3 3 3 3 3 3 3 3 3 3 3 3 3 3 3 3 3 3 3 3 3 3 3 3 3 3 3 3 3 3 3 3 3 3 3 3 3 3 3 3 3 3 3 3 3 3 3 3 3 3 3 3 3 3 3 3 3 3 3 3 3 3 3 3 3 3 3 3 3 3 3 3 3 3 3 3 3 3 3 3 3 3 3 3 3 3 3 3 3 3 3 3 3 3 3 3 3 3 3 3 3 3 3 3 3 3 3 3 3 3 3 3 3 3 3 3 3 3 3 3 3 3 3 3 3 3 3 3 3 3 3 3 3 3 3 3 3 3 3 3 3 3 3 3 3 3 3 3 3 3 3 3 3 3 3 3 3 3 3 3 3 3 3 3 3 3 3 3 3 3 3 3 3 3 3 3 3 3 3 3 3 3 3 3 3 3 3 3 3 3 3 3 3 3 3 3 3 3 3 3 3 3 3 3 3 3 3 3 3 3 3 3 3 3 3 3 3 3 3 3 3 3 3 3 3 3 3 3 3 3 3 3 3 3 3 3 3 3 3 3 3 3 3 3 3 3 3 3 3 3 3 3 3 3 3 3 3 3 3 3 3 3 3 3 3 3 3 3 3 3 3 3 3 3 3 3 3 3 3 3 3 3 3 3 3 3 3 3 3 3 3 3 3 3 3 3 3 3 3 3 3 3 3 3 3 3 3 3 3 3 3 3 3 3 3 3 3 3 3 3 3 3 3 3 3 3 3 3 3 3 3 3 3 3 3 3 3 3 3 3 3 3 3 3 3 3 3 3 3 3 3 3 3 3 3 3 3 3 3 3 3 3 3 3 3 3 3 3 3 3 3 3 3 3 3 3 3 3 3 3 3 3 3 3 3 3 3 3 3 3 3 3 3 3 3 3 3 3 3 3 3 3 3 3 3 3 3 3 3 3 3 3 3 3 3 3 3 3 3 3 3 3 3 3 3 3 3 3 3 3 3 3 3 3 3 3 3 3 3 3 3 3 3 3 3 3 3 3 3 3 3 3 3 3 3 3 3 3 3 3 3 3 3 3 3 3 3 3 3 3 3 3 3 3 3 3 3 3 3 3 3 3 3 3 3 3 3 3 3 3 3 3 3 3 3 3 3 3 3 3 3 3 3 3 3 3 3 3 3 3 3 3 3 3 3 3 3 3 3 3 3 3 3 3 3 3 3 3 3 3 3 3 3 3 3 3 3 3 3 3 3 3 3 3 3 3 3 3 3 3 3 3 3 3 3 3 3 3 3 3 3 3 3 3 3 3 3 3 3 3 3 3 3 3 3 3 3 3 3 3 3 3 3 3 3 3 3 3 3 3 3 3 3 3 3 3 3 3 3 3 3 3 3 3 3 3 3 3 3 3 3 3 3 3 3 3 3 3 3 3 3 3 3 3 3 3 3 3 3 3 3 3 3 3 3 3 3 3 3 3 3 3 3 3 3 3 3 3 3 3 3 3 1 3 3 3 3 3 3 3 3 3 3 3 3 3 3 3 3 3 3 3 3 3 3 3 3 3 3 3 3 3 3 3 3 3 3 3 3 3 3 3 3 3 3 3 3 3 3 3 3 3 3 3 3 3 3 3 3 3 3 3 3 3 3 3 3 3 3 3 3 3 3 3 3 3 3 3 3 3 3 3 3 3 3 3 3 3 3 3 3 3 3 3 3 3 3 3 3 3 3 3 3 3 3 3 3 3 3 3 3 3 3 3 3 3 3 3 3 3 3 3 3 3 3 3 3 3 3 3 3 3 3 3 3 3 3 3 3 3 3 3 3 3 3 3 3 3 3 3 3 3 3 3 3 3 3 3 3 3 3 3 3 3 3 3 3 3 3 3 3 3 3 3 3 3 3 3 3 3 3 3 3 3 3 3 3 3 3 3 3 3 3 3 3 3 3 3 3 3 1 3 1 3 3 1 3 3 3 3 3 3 3 3 3 3 3 3 1 1 1 3 1 3 3 3 3 3 3 3 3 3 3 3 1 3 3 1 1 3 3 3 3 3 3 3 3 3 3 3 3 3 3 3 3 3 3 3 3 3 3 3 3 3 3 3 3 3 3 3 3 3 3 3 3 3 3 3 3 3 3 3 3 3 3 3 3 3 3 3 3 3 3 3 3 3 3 3 3 3 3 3 3 3 3 3 3 3 3 3 3 3 3 1 3 3 3 3 3 3 3 3 3 3 3 3 3 3 3 3 3 3 1 3 3 3 3 3 3 3 3 3 3 3 3 3 3 3 3 3 3 3 3 3 3 3 3 3 3 3 3 3 3 3 3 3 3 3 3 3 3 3 3 3 3 3 3 3 3 3 3 3 3 3 3 3 3 3 3 3 3 3 3 3 3 3 3 3 3 3 3 3 3 3 3 3 3 3 3 3 3 3 3 3 3 3 3 3 3 3 3 3 3 3 3 3 3 3 3 3 3 3 3 3 3 3 3 3 3 3 3 3 3 3 3 3 3 3 3 3 3 3 3 3 3 3 3 3 3 3 3 3 3 3 3 3 3 3 3 3 3 3 3 3 3 3 3 3 3 3 3 3 3 3 3 3 3 3 3 3 3 3 3 3 3 3 3 3 3 3 3 3 3 3 3 3 3 3 3 3 3 3 3 3 3 3 3 3 3 3 3 3 3 3 3 3 3 3 3 3 3 3 3 3 3 3 3 3 3 3 3 3 3 3 3 3 3 3 3 3 3 3 3 3 3 3 3 3 3 3 3 3 3 3 3 3 3 3 3 3 3 3 3 3 3 3 3 3 3 3 3 3 3 3 3 3 3 3 3 3 3 3 3 3 3 3 3 3 3 3 3 3 3 3 3 3 3 3 3 3 3 3 3 3 3 3 3 3 3 3 3 3 3 3 3 3 3 3 3 3 3 3 3 3 3 3 3 3 3 3 3 3 3 3 3 3 3 3 3 3 3 3 3 3 3 3 3 3 3 3 3 3 3 3 3 3 3 3 3 3 3 3 3 3 3 3 3 3 3 3 3 3 3 3 3 3 3 3 3 3 3 3 3 3 3 3 3 3 3 3 3 3 3 3 3 3 3 3 3 3 3 3 3 3 3 3 3 3 3 3 3 3 3 3 3 3 3 3 3 3 3 3 3 3 3 3 3 3 3 3 3 3 3 3 3 3 3 3 3 3 3 3 3 3 3 3 3 3 3 3 3 3 3 3 3 1 3 3 3 3 3 3 3 3 3 3 3 3 3 3 3 3 3 1 1 3 3 1 3 3 3 3 3 3 3 3 3 3 3 3 1 3 3 3 3 3 1 1 3 3 3 3 3 3 3 1 3 3 3 3 3 3 3 3 3 3 1 3 3 3 3 1 1 3 3 3 3 3 3 3 3 3 3 3 3 3 3 3 3 3 3 3 3 3 3 3 3 3 3 3 3 3 3 3 3 3 3 3 3 3 3 3 3 3 3 3 3 3 3 3 3 3 3 3 3 3 3 3 3 3 3 3 3 3 3 3 3 3 3 3 3 3 3 3 3 3 3 3 3 3 3 3 3 3 3 3 3 3 3 3 3 3 3 3 3 3 3 3 3 3 3 3 3 3 3 3 3 3 3 3 3 3 3 3 3 3 3 3 3 3 3 3 3 3 3 3 3 3 3 3 3 3 3 3 3 3 3 3 3 3 3 3 3 3 3 3 3 3 3 3 3 3 3 3 3 3 3 3 3 3 3 3 3 3 3 3 3 3 3 3 3 3 3 3 3 3 3 3 3 3 3 3 3 3 3 3 3 3 3 3 3 3 3 3 3 3 3 3 3 3 3 3 3 3 3 3 3 3 3 3 3 3 3 3 3 3 3 3 3 3 3 3 3 3 3 3 3 3 3 3 3 3 3 3 3 3 3 3 3 3 3 3 3 3 3 3 3 3 3 3 3 3 3 3 3 3 3 3 3 3 3 3 3 3 3 3 3 3 3 3 3 3 3 3 3 3 3 3 3 3 3 3 3 3 3 3 3 3 3 3 3 3 3 3 3 3 3 3 3 3 3 3 3 3 3 3 3 3 3 3 3 3 3 3 3 3 3 3 3 3 3 3 3 3 3 3 3 3 3 3 3 3 3 3 3 3 3 3 3 3 3 3 3 3 3 3 3 3 3 3 3 3 3 3 3 3 3 3 3 3 3 3 3 3 3 3 3 3 3 3 3 3 3 3 3 3 3 3 3 3 3 3 3 3 3 3 3 3 3 3 3 3 3 3 3 3 3 3 3 3 3 3 3 3 3 3 3 3 3 3 3 3 3 3 3 3 3 3 3 3 3 3 3 3 3 3 3 3 3 3 3 3 3 3 3 3 3 3 3 3 3 3 3 3 3 3 3 3 3 3 3 3 3 3 3 3 3 3 3 3 3 3 3 3 3 3 3 3 3 3 3 3 3 3 3 3 3 3 3 3 3 3 1 1 1 1 1 1 3 3 3 3 3 3 3 3 3 3 3 3 3 3 3 3 3 3 3 3 3 3 3 3 3 3 3 3 3 3 3 3 3 3 3 3 3 3 3 3 3 3 3 3 3 3 3 3 3 3 3 3 3 3 3 3 3 3 3 3 3 3 3 3 3 3 3 3 3 3 3 3 3 3 3 3 3 3 3 3 3 3 3 3 3 3 3 3 3 3 3 3 3 3 3 3 3 3 3 3 3 3 3 3 3 3 3 3 3 3 3 3 3 3 3 3 3 3 3 3 3 3 3 3 3 3 3 3 3 3 3 3 3 3 3 3 3 3 3 3 3 3 3 3 3 3 3 3 3 3 3 3 3 3 3 3 3 3 3 3 3 3 3 3 3 3 3 3 3 3 3 3 3 3 3 3 3 3 3 3 3 3 3 3 3 3 3 3 3 3 3 3 3 1 3 3 1 1 1 1 3 3 3 3 3 3 3 3 3 3 3 3 3 3 3 3 3 3 3 3 3 3 3 3 3 3 3 3 3 3 3 3 3 3 3 3 3 3 3 3 3 3 3 3 3 3 3 3 3 3 3 3 3 3 3 3 3 3 3 3 3 3 3 3 3 3 3 3 3 3 3 3 3 3 3 3 3 3 3 3 3 3 3 3 3 3 3 3 3 3 3 3 3 3 3 3 3 3 3 3 3 3 3 3 3 3 3 3 3 3 3 3 3 3 3 3 3 3 3 3 3 3 3 3 3 3 3 3 3 3 3 3 3 3 3 3 3 3 3 3 3 3 3 3 3 3 3 3 3 3 3 3 3 3 3 3 3 3 3 3 3 3 3 3 3 3 3 3 3 3 3 3 3 3 3 3 3 3 3 3 3 3 3 3 3 3 3 3 3 3 3 3 3 3 3 3 3 3 3 3 3 3 3 3 3 3 3 3 3 3 3 3 3 3 3 3 3 3 3 3 3 3 3 3 3 3 3 3 3 3 3 3 3 3 3 3 3 3 3 3 3 3 3 3 3 3 3 3 3 3 3 3 3 3 3 3 3 3 3 3 3 3 3 3 3 3 3 3 3 3 3 3 3 3 3 3 3 3 3 3 3 3 3 3 3 3 3 3 3 3 3 3 3 3 3 3 3 3 3 3 3 3 3 3 3 3 3 3 3 3 3 3 3 3 3 3 3 3 3 3 3 3 3 3 3 3 3 3 3 3 3 3 3 3 3 3 3 3 3 3 3 3 3 3 3 3 3 3 3 3 3 3 3 3 3 3 3 3 3 3 3 3 3 3 3 3 3 3 3 3 3 3 3 3 3 3 3 3 3 3 3 3 3 3 3 3 3 3 3 3 3 3 3 3 3 3 3 3 3 3 3 3 3 3 1 3 3 3 3 3 1 3 3 3 3 3 3 3 1 3 3 3 3 3 3 3 3 3 3 3 3 3 3 3 3 3 3 3 3 3 3 3 3 3 3 3 3 3 3 3 3 3 3 3 3 3 3 3 3 1 3 3 3 3 3 3 3 3 1 1 3 3 3 3 3 3 3 3 3 3 1 1 3 3 1 3 3 3 3 3 1 3 1 3 1 3 3 3 3 3 3 3 3 1 1 3 3 3 3 3 3 3 3 3 3 3 3 3 3 3 3 3 3 3 3 3 3 3 3 3 3 3 3 3 3 3 3 3 3 3 3 3 3 3 3 3 3 3 3 3 3 3 3 3 3 3 3 3 3 3 3 3 3 3 3 3 3 3 3 3 3 3 3 3 3 3 3 3 3 3 3 3 3 3 3 3 3 3 3 3 3 3 3 3 3 3 3 3 3 3 3 3 3 3 3 3 3 3 3 3 3 3 3 3 3 3 3 3 3 3 3 3 3 3 3 3 3 3 3 3 3 3 3 3 3 3 3 3 3 3 3 3 3 3 3 3 3 3 3 3 3 3 3 3 3 3 3 3 3 3 3 3 3 3 3 3 3 3 3 3 3 3 3 3 3 3 3 3 3 3 3 3 3 3 3 3 3 3 3 3 3 3 3 3 3 3 3 3 3 3 3 3 3 3 3 3 3 3 3 3 3 3 3 3 3 3 3 3 3 3 3 3 3 3 3 3 3 3 3 3 3 3 3 3 3 3 3 3 3 3 3 3 3 3 3 3 3 3 3 3 3 3 3 3 3 3 3 3 3 3 3 3 3 3 3 3 3 3 3 3 3 3 3 3 3 3 3 3 3 3 3 3 3 1 1 3 3 1 1 1 3 3 3 3 3 3 3 3 3 3 3 3 3 3 3 3 3 3 3 3 3 3 3 3 3 3 3 3 3 3 3 3 3 3 3 3 3 3 3 3 3 3 3 3 3 3 3 3 3 3 3 3 3 3 3 3 3 3 3 3 3 3 3 3 3 3 3 3 3 3 3 3 3 3 3 3 3 3 3 3 1 3 3 3 3 3 3 3 1 3 3 3 3 1 1 1 3 3 1 3 3 3 3 3 3 3 3 3 3 3 3 3 3 3 3 3 3 3 3 3 3 3 3 3 3 3 3 3 3 3 3 3 3 3 3 3 3 3 3 3 3 3 3 3 3 3 3 3 3 3 3 3 3 3 3 3 3 3 3 3 3 3 3 3 3 3 3 3 3 3 3 3 3 3 3 3 3 3 3 3 3 3 3 3 3 3 3 3 3 3 3 3 3 3 3 3 3 3 3 3 3 3 3 3 3 3 3 3 3 3 3 3 3 3 3 3 3 3 3 3 3 3 3 3 3 3 3 3 3 3 3 3 3 3 3 1 3 3 3 3 3 3 3 3 3 3 3 3 3 3 3 3 3 3 3 3 3 3 3 3 3 3 3 3 3 3 3 3 3 3 3 3 3 3 3 3 3 3 3 3 3 3 3 3 3 3 3 3 3 3 3 3 3 3 3 3 3 3 3 3 3 3 3 3 3 3 3 3 3 3 3 3 3 3 3 3 3 3 3 3 3 3 3 3 3 3 3 3 3 3 3 3 3 3 3 3 3 3 3 3 3 3 3 3 3 3 3 3 3 3 3 3 3 3 3 3 3 3 3 3 3 3 3 3 3 3 3 3 3 3 3 3 3 3 3 3 3 3 3 3 3 3 3 3 3 3 1 3 3 3 3 3 3 3 3 3 3 3 3 3 3 3 3 3 3 3 3 3 3 3 3 1 1 1 1 1 1 3 3 3 3 3 3 3 3 3 3 3 3 3 3 3 3 3 3 3 3 3 3 3 3 3 3 3 1 3 3 3 3 3 3 3 3 3 3 3 3 3 3 3 3 3 3 3 3 3 3 3 3 3 3 3 3 3 3 3 3 3 3 3 3 3 3 3 3 3 3 3 3 3 3 3 3 3 3 1 3 3 3 3 3 3 3 3 3 3 3 3 3 3 3 3 3 3 3 3 3 3 3 3 3 3 3 3 3 3 3 1 3 3 3 3 3 3 3 3 3 3 3 3 3 3 3 3 3 3 3 3 3 3 3 3 3 3 3 1 1 3 3 3 3 3 3 3 3 3 3 3 3 3 3 3 3 3 3 3 3 3 3 3 3 3 3 3 3 3 3 3 3 3 3 3 3 3 1 1 1 3 3 3 3 3 3 3 3 3 3 3 3 3 3 3 3 3 3 3 3 3 3 3 3 3 3 3 3 3 3 3 3 3 3 3 3 3 3 3 3 3 3 3 3 3 3 3 3 3 3 3 3 3 3 3 3 3 3 3 3 3 3 3 3 3 3 3 3 3 3 3 3 3 3 3 3 3 3 3 3 3 3 3 3 3 3 3 3 3 3 3 3 3 3 3 3 3 3 3 3 3 3 3 3 3 3 3 3 3 3 3 3 3 3 3 3 3 3 3 3 3 3 3 3 3 3 3 3 3 3 3 3 3 3 3 3 3 3 3 3 3 3 3 3 3 3 3 3 3 3 3 3 3 3 3 3 3 3 3 3 3 3 3 3 3 3 3 3 3 3 3 3 3 3 3 3 3 3 3 3 3 3 3 3 3 3 3 3 3 3 3 3 3 3 3 3 3 3 3 3 3 3 3 3 3 3 3 1 3 3 3 3 3 3 3 3 3 3 3 3 3 3 3 3 3 3 3 3 3 3 3 3 3 3 3 3 3 3 3 3 3 3 3 3 3 3 3 3 3 3 3 3 3 3 3 3 3 3 3 3 3 3 3 3 3 3 3 3 3 3 3 3 3 3 3 3 3 3 3 3 3 3 3 3 3 3 3 3 3 3 3 3 3 3 3 3 3 3 3 3 3 3 3 3 3 3 3 3 3 3 1 3 3 3 3 3 3 3 3 3 3 3 3 3 3 3 3 3 3 3 3 3 3 3 3 3 3 3 3 3 3 3 3 3 3 3 3 3 3 3 3 3 3 1 3 3 3 3 3 3 3 3 3 3 3 3 3 3 3 3 3 3 3 3 3 3 3 3 3 3 3 3 3 3 3 3 3 3 3 3 3 3 3 3 3 3 3 3 3 3 3 3 3 3 3 3 3 3 3 3 3 3 3 3 3 3 3 3 3 3 3 3 3 3 3 3 3 3 3 3 3 3 3 3 3 3 3 3 3 3 3 3 3 3 3 3 3 3 3 3 3 3 3 3 3 3 3 3 3 3 3 3 3 3 3 3 3 3 3 3 1 3 1 1 3 3 3 3 3 3 3 3 3 3 3 3 3 3 3 3 3 3 3 3 3 3 3 3 3 3 3 3 3 3 3 3 3 3 3 3 3 3 3 3 3 3 3 3 3 3 3 3 3 3 3 3 3 3 3 3 3 3 3 3 3 3 3 3 3 3 3 3 3 3 3 3 3 3 3 3 3 3 3 3 3 3 3 3 3 3 3 3 3 3 3 3 3 3 3 3 3 3 3 3 3 3 3 3 3 3 3 3 3 3 3 3 3 3 3 3 3 3 3 3 3 3 3 3 3 3 3 3 3 3 3 3 3 3 3 3 3 3 3 3 3 3 3 3 3 3 3 3 3 3 3 3 3 3 3 3 3 3 3 3 3 3 3 3 3 3 3 3 3 3 3 3 3 3 3 3 3 3 3 3 3 3 1 3 1 3 1 3 3 3 3 3 3 3 3 3 3 3 3 3 3 3 3 3 3 3 3 3 3 3 3 3 3 3 3 3 3 3 3 3 3 3 3 3 3 3 3 1 3 3 3 3 3 3 3 3 3 3 3 3 3 3 3 3 3 3 3 3 3 3 3 3 3 3 3 3 3 3 3 1 3 3 3 3 3 3 3 3 3 3 3 3 3 3 3 3 3 3 3 3 3 3 3 3 3 3 3 3 3 3 3 3 3 3 3 3 3 3 3 3 3 3 3 3 3 3 3 3 3 3 3 3 3 3 3 3 3 3 3 3 3 3 3 3 3 3 3 3 3 3 3 3 3 3 3 3 3 3 3 3 3 3 3 3 3 3 3 3 3 3 3 3 3 3 3 3 3 3 3 3 3 3 3 3 3 3 3 3 3 3 3 3 3 3 3 3 3 3 3 3 3 3 3 3 3 1 3 3 3 3 3 3 3 3 3 3 3 3 3 3 3 3 3 3 3 3 3 3 3 3 3 3 3 3 3 3 3 3 3 3 3 3 3 3 3 3 3 3 3 3 3 3 3 3 3 3 3 3 3 3 3 3 3 3 3 3 3 3 </DataArray>
</CellData>
</Piece>
</UnstructuredGrid>
</VTKFile>