<?xml version="1.0"?>
<VTKFile type="UnstructuredGrid"  version="0.1"  >
<UnstructuredGrid>
<Piece  NumberOfPoints="130" NumberOfCells="909">
<Points>
<DataArray  type="Float64"  NumberOfComponents="3"  format="ascii">0 40 20  5 40 25  5 40 20  5 35 25  5 35 20  10 40 20  5 45 25  20 30 0  20 35 5  20 35 0  15 35 5  15 35 0  20 40 0  20 40 5  20 40 10  20 30 5  20 30 10  20 35 10  15 35 10  10 40 0  15 40 5  15 40 0  10 35 0  10 40 10  15 40 10  10 35 10  10 35 5  10 40 5  25 35 5  25 35 0  25 40 5  15 45 5  15 45 0  20 45 5  20 45 0  20 50 0  20 50 5  20 50 10  20 45 10  15 45 10  10 45 0  10 50 0  15 50 5  15 50 0  10 45 5  10 45 10  10 50 10  15 50 10  10 50 5  25 45 5  25 45 0  25 50 5  25 50 0  30 50 0  25 45 10  25 50 10  30 50 10  20 35 15  15 35 15  20 40 15  20 40 20  20 30 15  20 30 20  20 35 20  15 40 15  25 35 15  25 40 15  25 40 20  30 40 20  15 45 15  20 45 15  20 50 15  20 50 20  20 45 20  15 50 15  25 45 15  25 45 20  30 45 20  30 50 20  25 50 15  25 50 20  25 45 25  5 35 5  5 35 0  5 35 10  0 40 0  5 40 5  5 40 0  0 40 10  5 40 10  0 40 5  5 45 5  5 45 0  5 45 10  0 45 0  0 50 0  5 50 5  5 50 0  0 45 5  0 45 10  0 50 10  5 50 10  0 50 5  10 40 15  10 35 15  5 35 15  5 40 15  0 40 15  15 40 20  5 45 15  10 45 15  10 50 15  10 50 20  10 45 20  5 45 20  5 50 15  0 45 15  0 45 20  0 50 20  5 50 20  0 50 15  15 45 20  15 50 20  10 45 25  5 50 25  15 45 25  20 45 25  20 50 25  15 50 25  25 50 25  </DataArray>
</Points>
<Cells>
<DataArray  type="UInt32"  Name="connectivity"  format="ascii">0 2 1  0 3 1  0 1 6  0 3 2  0 4 2  0 2 6  0 2 105  0 2 106  0 2 109  0 2 114  0 4 3  0 4 105  0 6 114  0 6 117  0 105 106  0 105 107  0 106 107  0 106 109  0 107 109  0 107 116  0 109 114  0 109 116  0 109 117  0 114 117  0 116 117  3 2 1  5 2 1  2 1 6  5 3 1  5 1 6  4 3 2  5 3 2  5 4 2  4 2 105  5 2 6  5 2 105  5 2 106  5 2 109  5 2 114  2 6 114  2 105 106  2 106 109  2 109 114  5 4 3  5 4 105  5 6 113  5 6 114  5 123 6  5 58 64  5 58 103  5 58 104  5 108 58  5 64 69  5 64 103  5 108 64  5 69 103  5 108 69  5 69 110  5 69 113  5 69 121  5 104 103  5 105 103  5 103 106  5 103 109  5 103 110  5 104 105  5 105 106  5 106 109  5 108 121  5 108 125  5 110 109  5 109 113  5 109 114  5 110 113  5 113 114  5 113 121  5 123 113  5 125 113  5 125 121  5 123 125  112 6 113  112 6 114  112 6 119  112 123 6  112 6 124  6 113 114  123 6 113  6 114 117  118 6 114  6 114 119  118 6 117  118 6 119  118 6 124  6 119 124  7 9 8  7 8 10  7 15 8  7 28 8  7 9 10  7 9 11  7 28 9  7 29 9  7 11 10  7 15 10  7 15 28  7 29 28  9 8 10  12 9 8  28 9 8  12 8 10  8 10 13  14 8 10  15 8 10  16 8 10  8 17 10  12 8 13  12 28 8  14 8 13  28 8 13  14 8 17  14 28 8  16 15 8  15 28 8  16 8 17  16 28 8  28 8 17  9 11 10  12 9 10  12 9 11  12 28 9  12 29 9  29 28 9  12 11 10  19 11 10  11 10 21  11 10 22  12 10 13  12 10 20  12 10 21  14 10 13  10 13 20  14 17 10  14 10 18  14 10 20  14 10 24  16 15 10  16 17 10  16 10 18  17 10 18  23 10 18  10 18 24  10 18 25  19 10 20  19 10 21  19 10 22  19 10 26  19 10 27  10 21 20  23 10 20  10 20 24  10 20 27  10 22 26  23 10 24  23 10 25  23 10 26  23 10 27  10 26 25  10 26 27  12 11 21  19 11 21  19 11 22  12 13 20  12 28 13  12 13 30  12 13 31  12 13 33  12 13 49  12 21 20  12 20 31  12 21 31  12 21 32  12 29 28  12 28 30  12 30 49  12 32 31  12 33 31  12 34 31  12 34 32  12 34 33  12 33 49  12 34 49  12 34 50  12 50 49  14 13 20  14 28 13  14 13 30  14 13 31  14 13 33  14 13 49  13 20 31  28 13 30  13 30 49  13 33 31  13 33 49  14 17 18  14 28 17  14 17 57  14 17 58  14 65 17  14 18 24  14 18 58  14 20 24  14 20 31  14 24 31  14 24 39  14 58 24  14 24 64  14 24 69  14 28 30  14 30 49  14 33 31  14 38 31  14 31 39  14 33 38  14 33 49  14 38 39  14 49 38  14 38 54  14 38 69  14 38 70  14 38 75  14 39 69  14 49 54  14 54 75  14 57 58  14 57 59  14 65 57  14 58 59  14 58 64  14 59 64  14 65 59  14 59 66  14 59 69  14 59 70  14 59 75  14 64 69  14 65 66  14 66 75  14 70 69  14 70 75  16 15 28  16 17 18  16 28 17  16 17 57  16 17 58  16 65 17  16 18 58  16 57 58  16 61 57  16 65 57  16 61 58  16 65 61  17 18 58  17 57 58  65 17 57  23 18 24  23 18 25  23 18 58  18 58 24  18 25 58  19 21 20  19 20 27  19 20 31  19 21 31  19 21 32  19 22 26  19 22 82  19 22 83  19 26 27  19 26 82  19 27 31  19 27 44  19 27 82  19 27 86  19 27 91  19 32 31  19 31 40  19 31 44  19 32 40  19 40 44  19 40 91  19 40 92  19 44 91  19 83 82  19 82 86  19 82 87  19 83 87  19 87 86  19 86 91  19 87 91  19 87 92  19 92 91  21 20 31  23 20 24  23 20 27  23 20 31  20 24 31  20 27 31  21 32 31  22 26 82  22 83 82  23 24 31  23 24 39  23 58 24  23 24 64  23 24 69  23 26 25  23 25 58  23 25 82  23 25 84  23 25 104  23 25 105  23 26 27  23 26 82  23 27 31  23 27 44  23 27 82  23 27 86  23 27 91  23 31 39  23 31 44  23 31 45  23 39 45  23 39 69  23 44 45  23 44 91  23 45 69  23 45 91  23 45 93  23 45 109  23 45 110  23 58 64  23 58 103  23 58 104  23 64 69  23 64 103  23 69 103  23 69 110  23 82 84  23 82 86  23 82 89  23 84 89  23 84 105  23 86 89  23 86 91  23 89 91  23 89 93  23 105 89  23 89 106  23 89 109  23 91 93  23 93 109  23 104 103  23 105 103  23 103 106  23 103 109  23 103 110  23 104 105  23 105 106  23 106 109  23 110 109  24 31 39  24 39 69  58 24 64  24 64 69  26 25 82  25 58 104  25 82 84  25 84 105  25 104 105  26 27 82  27 31 44  27 44 91  27 82 86  27 86 91  34 32 31  35 32 31  32 31 40  41 32 31  32 31 43  34 33 31  35 33 31  33 31 36  37 33 31  33 38 31  35 34 31  35 31 36  35 31 42  35 31 43  37 31 36  31 36 42  37 38 31  37 31 39  37 31 42  37 31 47  38 31 39  31 39 45  46 31 39  31 39 47  41 31 40  31 40 44  41 31 42  41 31 43  41 31 44  41 31 48  31 43 42  46 31 42  31 42 47  31 42 48  31 44 45  46 31 44  31 44 48  46 31 45  46 31 47  46 31 48  35 34 32  35 32 43  41 32 40  41 32 43  35 34 33  34 33 49  35 33 36  35 33 49  37 33 36  33 49 36  37 33 38  37 33 49  33 49 38  35 34 49  35 34 50  34 50 49  35 36 42  35 49 36  35 36 51  35 43 42  35 50 49  35 49 51  35 49 52  35 50 52  35 52 51  37 36 42  37 49 36  37 36 51  49 36 51  37 38 39  37 49 38  37 38 54  37 38 69  37 38 70  37 38 75  37 39 47  37 39 69  37 42 47  37 69 47  37 47 74  37 49 51  37 49 54  37 49 55  37 51 55  37 54 55  37 54 75  37 75 55  37 55 79  37 70 69  37 69 71  37 69 74  37 70 71  37 70 75  37 71 74  37 75 71  37 71 79  37 75 79  38 39 69  49 38 54  38 54 75  38 70 69  38 70 75  46 39 45  39 45 69  46 39 47  46 39 69  39 69 47  41 40 44  41 40 91  41 40 92  40 44 91  40 92 91  41 43 42  41 42 48  41 44 48  41 44 91  41 48 91  41 48 96  41 92 91  41 91 96  41 91 97  41 92 97  41 97 96  46 42 47  46 42 48  46 44 45  44 45 91  46 44 48  46 44 91  44 48 91  46 45 69  46 45 91  46 45 93  46 45 109  46 45 110  45 69 110  45 91 93  45 93 109  45 110 109  46 69 47  46 47 74  46 48 91  46 48 96  46 69 74  46 69 110  46 69 111  46 74 111  46 91 93  46 91 96  46 91 101  46 93 101  46 93 109  46 96 101  46 109 101  46 101 115  46 110 109  46 109 111  46 109 115  46 110 111  46 111 115  69 47 74  48 91 96  50 49 52  53 50 49  49 52 51  53 49 51  49 51 55  56 49 51  53 49 52  49 54 55  56 49 54  56 49 55  53 50 52  53 52 51  56 51 55  56 54 55  54 75 55  56 54 75  56 75 55  56 55 79  75 55 79  56 75 79  57 58 59  60 57 58  61 57 58  62 57 58  63 57 58  60 57 59  65 57 59  60 63 57  60 65 57  62 61 57  65 61 57  62 63 57  62 65 57  65 63 57  60 58 59  58 59 64  60 63 58  60 58 64  60 108 58  62 61 58  62 63 58  58 64 103  108 58 64  58 104 103  60 59 64  60 65 59  60 59 66  60 59 69  60 59 70  60 59 75  59 64 69  65 59 66  59 66 75  59 70 69  59 70 75  60 65 63  60 64 69  60 108 64  60 65 66  60 65 67  60 66 67  60 66 75  60 75 67  60 67 76  60 81 67  60 70 69  60 69 73  60 108 69  60 69 121  60 70 73  60 70 75  60 75 73  60 73 76  60 81 73  60 73 121  60 125 73  60 126 73  60 75 76  60 81 76  60 126 81  60 108 121  60 108 125  60 125 121  60 125 126  62 65 61  62 65 63  64 69 103  108 64 69  65 66 67  68 65 66  68 65 67  68 66 67  66 75 67  68 66 75  68 75 67  68 67 76  68 81 67  75 67 76  81 67 76  68 75 76  68 77 75  68 77 76  68 81 76  68 77 81  70 69 71  72 70 69  70 69 73  72 69 71  69 71 74  72 69 73  72 69 74  72 69 121  72 69 122  69 73 121  69 74 111  112 69 74  69 74 122  69 103 110  108 69 121  69 110 111  112 69 110  69 110 113  112 69 111  112 69 113  112 69 121  112 69 122  69 113 121  69 121 122  72 70 71  70 75 71  72 70 73  72 70 75  70 75 73  72 71 74  72 75 71  72 71 79  75 71 79  72 75 73  72 73 76  72 81 73  72 73 121  72 125 73  72 126 73  72 74 122  72 75 76  72 75 79  72 75 80  72 76 80  72 81 76  72 79 80  72 81 80  72 80 129  72 126 81  72 81 127  72 81 129  72 121 122  72 125 121  72 125 122  72 122 128  72 125 126  72 125 127  72 125 128  72 126 127  72 128 127  72 127 129  75 73 76  81 73 76  126 81 73  125 73 121  125 126 73  112 74 111  112 74 122  77 75 76  78 75 76  75 76 80  78 77 75  78 75 79  78 75 80  75 79 80  78 77 76  77 81 76  78 76 80  78 81 76  81 76 80  78 77 81  78 79 80  78 81 80  78 80 129  78 81 129  81 80 129  126 81 127  81 127 129  85 83 82  83 82 87  88 82 84  82 84 89  85 82 86  85 82 87  85 82 90  82 87 86  88 82 86  82 86 89  82 86 90  88 82 89  88 82 90  85 83 87  88 84 89  88 84 105  84 105 89  85 87 86  85 86 90  85 86 91  85 87 91  85 87 92  85 90 91  85 90 98  85 92 91  85 91 94  85 91 98  85 92 94  85 94 98  87 86 91  88 86 89  88 86 90  88 86 91  86 89 91  86 90 91  87 92 91  88 89 91  88 89 93  88 105 89  88 89 106  88 89 109  88 90 91  88 90 98  88 91 93  88 91 98  88 91 99  88 93 99  88 93 109  88 98 99  88 99 109  88 99 116  88 105 106  88 105 107  88 106 107  88 106 109  88 107 109  88 107 116  88 109 116  89 91 93  89 93 109  105 89 106  89 106 109  90 91 98  92 91 94  95 92 91  92 91 97  91 93 99  100 91 93  91 93 101  95 91 94  91 94 98  95 91 96  95 91 97  95 91 98  95 91 102  91 97 96  100 91 96  91 96 101  91 96 102  91 98 99  100 91 98  91 98 102  100 91 99  100 91 101  100 91 102  95 92 94  95 92 97  100 93 99  93 99 109  100 93 101  100 93 109  93 109 101  95 94 98  95 97 96  95 96 102  95 98 102  100 96 101  100 96 102  100 98 99  100 98 102  100 99 109  100 99 116  99 109 116  100 109 101  100 101 115  100 109 115  100 109 116  100 109 120  100 115 120  100 116 120  109 101 115  104 105 103  105 103 106  103 106 109  103 110 109  105 106 107  106 107 109  107 109 116  108 125 121  110 109 111  112 110 109  110 109 113  112 109 111  109 111 115  112 109 113  112 109 114  112 109 115  112 109 119  109 113 114  109 114 117  118 109 114  109 114 119  118 109 115  109 115 119  109 115 120  109 116 117  118 109 116  109 116 120  118 109 117  118 109 119  118 109 120  112 110 111  112 110 113  112 111 115  112 113 114  112 113 121  112 123 113  112 125 113  112 114 119  112 115 119  112 119 124  112 121 122  112 125 121  112 125 122  112 122 128  112 123 125  112 125 128  125 113 121  123 125 113  118 114 117  118 114 119  118 115 119  118 115 120  118 116 117  118 116 120  118 119 124  125 121 122  125 122 128  125 126 127  125 128 127  </DataArray>
<DataArray  type="UInt32"  Name="offsets"  format="ascii">3 6 9 12 15 18 21 24 27 30 33 36 39 42 45 48 51 54 57 60 63 66 69 72 75 78 81 84 87 90 93 96 99 102 105 108 111 114 117 120 123 126 129 132 135 138 141 144 147 150 153 156 159 162 165 168 171 174 177 180 183 186 189 192 195 198 201 204 207 210 213 216 219 222 225 228 231 234 237 240 243 246 249 252 255 258 261 264 267 270 273 276 279 282 285 288 291 294 297 300 303 306 309 312 315 318 321 324 327 330 333 336 339 342 345 348 351 354 357 360 363 366 369 372 375 378 381 384 387 390 393 396 399 402 405 408 411 414 417 420 423 426 429 432 435 438 441 444 447 450 453 456 459 462 465 468 471 474 477 480 483 486 489 492 495 498 501 504 507 510 513 516 519 522 525 528 531 534 537 540 543 546 549 552 555 558 561 564 567 570 573 576 579 582 585 588 591 594 597 600 603 606 609 612 615 618 621 624 627 630 633 636 639 642 645 648 651 654 657 660 663 666 669 672 675 678 681 684 687 690 693 696 699 702 705 708 711 714 717 720 723 726 729 732 735 738 741 744 747 750 753 756 759 762 765 768 771 774 777 780 783 786 789 792 795 798 801 804 807 810 813 816 819 822 825 828 831 834 837 840 843 846 849 852 855 858 861 864 867 870 873 876 879 882 885 888 891 894 897 900 903 906 909 912 915 918 921 924 927 930 933 936 939 942 945 948 951 954 957 960 963 966 969 972 975 978 981 984 987 990 993 996 999 1002 1005 1008 1011 1014 1017 1020 1023 1026 1029 1032 1035 1038 1041 1044 1047 1050 1053 1056 1059 1062 1065 1068 1071 1074 1077 1080 1083 1086 1089 1092 1095 1098 1101 1104 1107 1110 1113 1116 1119 1122 1125 1128 1131 1134 1137 1140 1143 1146 1149 1152 1155 1158 1161 1164 1167 1170 1173 1176 1179 1182 1185 1188 1191 1194 1197 1200 1203 1206 1209 1212 1215 1218 1221 1224 1227 1230 1233 1236 1239 1242 1245 1248 1251 1254 1257 1260 1263 1266 1269 1272 1275 1278 1281 1284 1287 1290 1293 1296 1299 1302 1305 1308 1311 1314 1317 1320 1323 1326 1329 1332 1335 1338 1341 1344 1347 1350 1353 1356 1359 1362 1365 1368 1371 1374 1377 1380 1383 1386 1389 1392 1395 1398 1401 1404 1407 1410 1413 1416 1419 1422 1425 1428 1431 1434 1437 1440 1443 1446 1449 1452 1455 1458 1461 1464 1467 1470 1473 1476 1479 1482 1485 1488 1491 1494 1497 1500 1503 1506 1509 1512 1515 1518 1521 1524 1527 1530 1533 1536 1539 1542 1545 1548 1551 1554 1557 1560 1563 1566 1569 1572 1575 1578 1581 1584 1587 1590 1593 1596 1599 1602 1605 1608 1611 1614 1617 1620 1623 1626 1629 1632 1635 1638 1641 1644 1647 1650 1653 1656 1659 1662 1665 1668 1671 1674 1677 1680 1683 1686 1689 1692 1695 1698 1701 1704 1707 1710 1713 1716 1719 1722 1725 1728 1731 1734 1737 1740 1743 1746 1749 1752 1755 1758 1761 1764 1767 1770 1773 1776 1779 1782 1785 1788 1791 1794 1797 1800 1803 1806 1809 1812 1815 1818 1821 1824 1827 1830 1833 1836 1839 1842 1845 1848 1851 1854 1857 1860 1863 1866 1869 1872 1875 1878 1881 1884 1887 1890 1893 1896 1899 1902 1905 1908 1911 1914 1917 1920 1923 1926 1929 1932 1935 1938 1941 1944 1947 1950 1953 1956 1959 1962 1965 1968 1971 1974 1977 1980 1983 1986 1989 1992 1995 1998 2001 2004 2007 2010 2013 2016 2019 2022 2025 2028 2031 2034 2037 2040 2043 2046 2049 2052 2055 2058 2061 2064 2067 2070 2073 2076 2079 2082 2085 2088 2091 2094 2097 2100 2103 2106 2109 2112 2115 2118 2121 2124 2127 2130 2133 2136 2139 2142 2145 2148 2151 2154 2157 2160 2163 2166 2169 2172 2175 2178 2181 2184 2187 2190 2193 2196 2199 2202 2205 2208 2211 2214 2217 2220 2223 2226 2229 2232 2235 2238 2241 2244 2247 2250 2253 2256 2259 2262 2265 2268 2271 2274 2277 2280 2283 2286 2289 2292 2295 2298 2301 2304 2307 2310 2313 2316 2319 2322 2325 2328 2331 2334 2337 2340 2343 2346 2349 2352 2355 2358 2361 2364 2367 2370 2373 2376 2379 2382 2385 2388 2391 2394 2397 2400 2403 2406 2409 2412 2415 2418 2421 2424 2427 2430 2433 2436 2439 2442 2445 2448 2451 2454 2457 2460 2463 2466 2469 2472 2475 2478 2481 2484 2487 2490 2493 2496 2499 2502 2505 2508 2511 2514 2517 2520 2523 2526 2529 2532 2535 2538 2541 2544 2547 2550 2553 2556 2559 2562 2565 2568 2571 2574 2577 2580 2583 2586 2589 2592 2595 2598 2601 2604 2607 2610 2613 2616 2619 2622 2625 2628 2631 2634 2637 2640 2643 2646 2649 2652 2655 2658 2661 2664 2667 2670 2673 2676 2679 2682 2685 2688 2691 2694 2697 2700 2703 2706 2709 2712 2715 2718 2721 2724 2727 </DataArray>
<DataArray  type="UInt8"  Name="types"  format="ascii">5 5 5 5 5 5 5 5 5 5 5 5 5 5 5 5 5 5 5 5 5 5 5 5 5 5 5 5 5 5 5 5 5 5 5 5 5 5 5 5 5 5 5 5 5 5 5 5 5 5 5 5 5 5 5 5 5 5 5 5 5 5 5 5 5 5 5 5 5 5 5 5 5 5 5 5 5 5 5 5 5 5 5 5 5 5 5 5 5 5 5 5 5 5 5 5 5 5 5 5 5 5 5 5 5 5 5 5 5 5 5 5 5 5 5 5 5 5 5 5 5 5 5 5 5 5 5 5 5 5 5 5 5 5 5 5 5 5 5 5 5 5 5 5 5 5 5 5 5 5 5 5 5 5 5 5 5 5 5 5 5 5 5 5 5 5 5 5 5 5 5 5 5 5 5 5 5 5 5 5 5 5 5 5 5 5 5 5 5 5 5 5 5 5 5 5 5 5 5 5 5 5 5 5 5 5 5 5 5 5 5 5 5 5 5 5 5 5 5 5 5 5 5 5 5 5 5 5 5 5 5 5 5 5 5 5 5 5 5 5 5 5 5 5 5 5 5 5 5 5 5 5 5 5 5 5 5 5 5 5 5 5 5 5 5 5 5 5 5 5 5 5 5 5 5 5 5 5 5 5 5 5 5 5 5 5 5 5 5 5 5 5 5 5 5 5 5 5 5 5 5 5 5 5 5 5 5 5 5 5 5 5 5 5 5 5 5 5 5 5 5 5 5 5 5 5 5 5 5 5 5 5 5 5 5 5 5 5 5 5 5 5 5 5 5 5 5 5 5 5 5 5 5 5 5 5 5 5 5 5 5 5 5 5 5 5 5 5 5 5 5 5 5 5 5 5 5 5 5 5 5 5 5 5 5 5 5 5 5 5 5 5 5 5 5 5 5 5 5 5 5 5 5 5 5 5 5 5 5 5 5 5 5 5 5 5 5 5 5 5 5 5 5 5 5 5 5 5 5 5 5 5 5 5 5 5 5 5 5 5 5 5 5 5 5 5 5 5 5 5 5 5 5 5 5 5 5 5 5 5 5 5 5 5 5 5 5 5 5 5 5 5 5 5 5 5 5 5 5 5 5 5 5 5 5 5 5 5 5 5 5 5 5 5 5 5 5 5 5 5 5 5 5 5 5 5 5 5 5 5 5 5 5 5 5 5 5 5 5 5 5 5 5 5 5 5 5 5 5 5 5 5 5 5 5 5 5 5 5 5 5 5 5 5 5 5 5 5 5 5 5 5 5 5 5 5 5 5 5 5 5 5 5 5 5 5 5 5 5 5 5 5 5 5 5 5 5 5 5 5 5 5 5 5 5 5 5 5 5 5 5 5 5 5 5 5 5 5 5 5 5 5 5 5 5 5 5 5 5 5 5 5 5 5 5 5 5 5 5 5 5 5 5 5 5 5 5 5 5 5 5 5 5 5 5 5 5 5 5 5 5 5 5 5 5 5 5 5 5 5 5 5 5 5 5 5 5 5 5 5 5 5 5 5 5 5 5 5 5 5 5 5 5 5 5 5 5 5 5 5 5 5 5 5 5 5 5 5 5 5 5 5 5 5 5 5 5 5 5 5 5 5 5 5 5 5 5 5 5 5 5 5 5 5 5 5 5 5 5 5 5 5 5 5 5 5 5 5 5 5 5 5 5 5 5 5 5 5 5 5 5 5 5 5 5 5 5 5 5 5 5 5 5 5 5 5 5 5 5 5 5 5 5 5 5 5 5 5 5 5 5 5 5 5 5 5 5 5 5 5 5 5 5 5 5 5 5 5 5 5 5 5 5 5 5 5 5 5 5 5 5 5 5 5 5 5 5 5 5 5 5 5 5 5 5 5 5 5 5 5 5 5 5 5 5 5 5 5 5 5 5 5 5 5 5 5 5 5 5 5 5 5 5 5 5 5 5 5 5 5 5 5 5 5 5 5 5 5 5 5 5 5 5 5 5 5 5 5 5 5 5 5 5 5 5 5 5 5 5 5 5 5 5 5 5 5 5 5 5 5 5 5 5 5 5 5 5 5 5 5 5 5 5 5 5 5 5 5 5 </DataArray>
</Cells>
<CellData  Scalars="f">
<DataArray  type="Float64"  Name="f"  format="ascii">3 3 3 3 3 3 3 3 3 3 3 3 3 3 3 3 3 3 3 1 3 3 3 3 1 3 3 3 3 3 3 3 3 3 3 3 3 3 3 3 3 3 3 3 3 3 3 3 3 3 3 3 3 3 3 3 3 3 3 3 3 3 3 3 3 3 3 3 3 3 3 3 3 3 3 3 3 3 3 3 3 3 3 3 3 3 3 3 3 3 3 3 3 3 3 3 3 3 3 3 3 3 3 3 3 3 3 3 3 3 3 3 3 3 3 3 3 3 3 3 3 3 3 3 3 3 3 3 3 3 3 3 3 3 3 3 3 3 3 3 3 3 3 3 3 3 3 3 3 3 3 3 3 3 3 3 3 3 3 3 3 3 3 3 3 3 3 3 3 3 3 3 3 3 3 3 3 3 3 3 3 3 3 3 3 3 3 3 3 3 3 3 3 3 3 3 3 3 3 3 3 3 3 3 3 3 3 3 3 3 3 3 3 3 3 3 3 3 3 3 3 3 3 3 3 3 3 3 3 3 3 3 3 3 3 3 3 3 3 3 3 3 3 3 3 3 3 3 3 3 3 3 3 3 3 3 3 3 3 3 3 3 3 3 3 3 3 3 3 3 3 3 3 3 3 3 3 3 3 3 3 3 3 3 3 3 3 3 3 3 3 3 3 3 3 3 3 3 3 3 3 3 3 3 3 3 3 3 3 3 3 3 3 3 3 3 3 3 3 3 3 3 3 3 3 3 3 3 3 3 3 3 3 3 3 3 3 3 3 3 3 3 3 3 3 3 3 3 3 3 3 3 3 3 3 3 3 3 3 3 3 3 3 3 3 3 3 3 3 3 3 3 3 3 3 3 3 3 3 3 3 3 3 3 3 3 3 3 3 3 3 3 3 3 3 3 3 3 3 3 3 3 3 3 3 3 3 3 3 3 3 3 3 3 3 3 3 3 3 3 3 3 3 3 3 3 3 3 3 3 3 3 3 3 3 3 3 3 3 3 3 3 3 3 3 3 3 3 3 3 3 3 3 3 3 3 3 3 3 3 3 3 3 3 3 3 3 3 3 3 3 3 3 3 3 3 3 3 3 3 3 3 3 3 3 3 3 3 3 3 3 3 3 3 3 3 3 3 3 3 3 3 3 3 3 3 3 3 3 3 3 3 3 3 3 3 3 3 3 3 3 3 3 3 3 3 3 3 3 3 3 3 3 3 3 3 3 3 3 3 3 3 3 3 3 3 3 3 3 3 3 3 3 3 3 3 3 3 3 3 3 3 3 3 3 3 3 3 3 3 3 3 3 3 3 3 3 3 3 3 3 3 3 3 3 3 3 3 3 3 3 3 3 3 3 3 3 3 3 3 3 3 3 3 3 3 3 3 3 3 3 3 3 3 3 3 3 3 3 3 3 3 3 3 3 3 3 3 3 3 3 3 3 3 3 3 3 3 3 3 3 3 3 3 3 3 3 3 3 3 3 3 3 3 3 3 3 3 3 3 3 3 3 3 3 3 3 3 3 3 3 3 3 3 3 3 3 3 3 3 3 3 3 3 3 3 3 3 3 3 3 3 3 3 3 3 3 3 3 3 3 3 3 3 3 3 3 3 3 3 3 3 3 3 3 3 3 3 3 3 3 3 3 3 3 3 3 3 3 3 3 3 3 3 3 3 3 3 3 3 3 3 3 3 3 3 3 3 3 3 3 3 3 3 3 3 3 3 3 3 3 3 1 3 3 3 3 1 3 3 3 3 3 3 3 3 3 3 3 3 3 1 3 3 3 3 3 1 3 1 3 3 3 3 3 1 3 3 3 3 3 3 3 3 3 3 3 3 3 3 3 3 3 3 3 3 3 3 3 3 3 3 3 3 3 3 3 3 3 3 3 1 3 3 1 3 3 1 1 3 1 3 3 3 3 3 3 3 1 3 3 3 3 3 3 3 3 3 3 3 3 3 3 3 3 3 3 3 3 3 3 3 3 3 3 3 3 3 3 3 3 3 3 3 3 3 3 3 3 3 3 3 3 3 3 3 3 3 3 3 3 3 1 1 3 3 3 3 3 </DataArray>
</CellData>
</Piece>
</UnstructuredGrid>
</VTKFile>