<?xml version="1.0"?>
<VTKFile type="UnstructuredGrid"  version="0.1"  >
<UnstructuredGrid>
<Piece  NumberOfPoints="131" NumberOfCells="894">
<Points>
<DataArray  type="Float64"  NumberOfComponents="3"  format="ascii">30 10 30  35 15 35  35 15 30  35 10 30  40 10 30  40 15 35  40 15 30  40 20 30  40 20 35  35 10 35  40 10 35  40 10 40  30 10 35  30 10 40  30 15 30  30 20 30  35 20 35  35 20 30  30 15 35  30 20 35  30 20 40  45 15 35  45 15 30  45 10 30  50 10 30  50 15 35  50 15 30  50 20 30  50 20 35  50 20 40  45 20 35  45 20 30  35 25 35  35 25 30  40 25 35  30 25 30  30 25 35  45 25 35  45 25 30  50 25 35  50 25 30  50 30 30  50 30 35  50 30 40  50 25 40  30 0 30  35 5 35  35 5 30  35 0 30  40 0 30  40 5 35  40 5 30  35 0 35  40 0 35  40 0 40  40 5 40  30 5 30  30 5 35  45 5 35  45 5 30  45 0 30  50 0 30  50 5 35  50 5 30  50 10 35  50 10 40  45 0 35  50 0 35  50 0 40  50 5 40  45 0 40  45 10 35  45 10 40  50 15 40  50 20 20  50 25 20  50 25 15  45 25 15  50 30 20  30 0 20  30 5 25  30 5 20  25 5 25  30 10 20  30 10 25  30 0 25  25 10 25  40 10 25  40 5 25  35 5 25  40 0 25  35 0 25  35 10 25  50 5 25  45 5 25  45 0 25  45 10 25  40 20 20  45 25 20  45 20 20  30 15 25  30 15 20  25 15 25  30 20 20  30 20 25  25 20 25  40 20 25  40 15 25  35 15 25  35 20 25  35 20 20  50 20 25  50 15 25  45 15 25  45 20 25  30 25 25  25 25 25  35 25 25  40 25 25  45 25 25  50 25 25  50 30 25  25 25 35  20 10 30  25 10 30  25 5 30  25 15 30  25 5 35  25 10 35  25 15 35  25 20 35  </DataArray>
</Points>
<Cells>
<DataArray  type="UInt32"  Name="connectivity"  format="ascii">0 2 1  0 3 1  0 1 9  0 1 12  0 1 14  0 1 18  0 3 2  0 2 14  0 2 108  0 3 9  0 3 46  0 3 47  0 3 89  0 3 92  0 3 108  0 9 12  0 9 46  0 12 18  0 12 46  0 12 57  0 12 127  0 12 128  0 12 129  0 14 18  0 14 100  0 14 102  0 14 108  0 14 126  0 14 129  0 18 129  0 47 46  0 46 56  0 46 57  0 47 56  0 47 89  0 56 57  0 56 80  0 56 82  0 56 89  0 56 125  0 56 127  0 57 127  0 80 82  0 84 80  0 80 89  0 84 82  0 82 86  0 82 124  0 82 125  0 84 86  0 84 89  0 84 92  0 84 100  0 84 102  0 84 108  0 86 102  0 86 124  0 92 89  0 92 108  0 100 102  0 100 108  0 102 124  0 102 126  0 124 125  0 124 126  0 124 127  0 124 128  0 124 129  0 125 127  0 126 129  0 127 128  0 128 129  3 2 1  4 2 1  2 1 6  7 2 1  2 1 14  15 2 1  2 1 17  4 3 1  3 1 9  4 1 5  4 1 6  4 1 9  4 1 10  1 6 5  7 1 5  1 5 8  1 5 10  11 1 5  7 1 6  7 1 8  7 1 16  7 1 17  1 8 16  1 9 10  11 1 9  1 9 12  13 1 9  11 1 10  13 1 12  1 12 18  13 1 18  15 1 14  1 14 18  15 1 16  15 1 17  15 1 18  15 1 19  1 17 16  1 16 19  20 1 16  1 18 19  20 1 18  20 1 19  4 3 2  3 2 108  4 2 6  4 2 108  7 2 6  2 6 108  7 2 17  7 2 108  15 2 14  2 14 108  15 2 17  15 2 108  2 17 108  4 3 9  4 3 46  4 3 47  4 3 89  4 3 92  4 3 108  3 9 46  3 47 46  3 47 89  3 92 89  3 92 108  4 6 5  4 5 10  4 5 21  4 6 21  4 6 22  4 6 107  4 6 108  4 6 113  4 9 10  4 9 46  4 10 21  4 10 46  4 10 50  4 10 58  4 10 71  4 22 21  4 23 21  4 21 71  4 23 22  4 22 113  4 23 58  4 23 59  4 23 71  4 23 94  4 23 96  4 23 113  4 47 46  4 46 50  4 46 51  4 47 51  4 47 89  4 51 50  4 50 58  4 51 58  4 51 59  4 51 88  4 51 89  4 51 94  4 59 58  4 58 71  4 59 94  4 87 88  4 89 87  4 92 87  4 87 94  4 87 96  4 87 107  4 87 108  4 87 113  4 89 88  4 88 94  4 92 89  4 92 108  4 96 94  4 96 113  4 108 107  4 107 113  7 6 5  6 5 21  7 5 8  7 5 21  5 21 8  11 5 10  5 10 21  11 5 21  7 6 21  7 6 22  7 6 107  7 6 108  7 6 113  6 22 21  6 22 113  6 108 107  6 107 113  7 8 16  7 21 8  7 8 30  7 8 32  7 8 34  7 8 37  7 17 16  7 16 32  7 17 32  7 17 33  7 17 108  7 17 109  7 17 117  7 22 21  7 21 30  7 21 31  7 22 31  7 22 113  7 31 30  7 30 37  7 31 37  7 31 38  7 31 113  7 31 114  7 31 119  7 33 32  7 34 32  7 33 117  7 34 37  7 38 37  7 38 119  7 106 107  7 108 106  7 109 106  7 106 113  7 106 114  7 117 106  7 106 118  7 106 119  7 108 107  7 107 113  7 109 108  7 109 117  7 114 113  7 114 119  7 117 118  7 118 119  8 16 32  21 8 30  8 30 37  8 34 32  8 34 37  11 9 10  9 10 46  11 9 46  13 9 12  9 12 46  13 9 46  11 10 21  11 10 46  11 10 50  11 10 58  11 10 71  10 21 71  10 46 50  10 50 58  10 58 71  11 21 71  11 21 72  11 46 50  11 46 55  11 50 55  11 50 58  11 58 55  11 58 71  11 58 72  11 71 72  13 12 18  13 12 46  13 12 57  13 12 127  13 12 128  13 12 129  12 18 129  12 46 57  12 57 127  12 127 128  12 128 129  13 18 129  13 46 57  13 57 127  13 127 128  13 128 129  15 14 18  15 14 100  15 14 102  15 14 108  15 14 126  15 14 129  14 18 129  14 100 102  14 100 108  14 102 126  14 126 129  15 17 16  15 16 19  15 16 32  15 17 32  15 17 33  15 17 108  15 17 109  15 17 117  15 18 19  15 18 129  15 19 32  15 19 36  15 19 122  15 19 129  15 19 130  15 33 32  15 32 35  15 32 36  15 33 35  15 33 117  15 35 36  15 35 115  15 35 116  15 35 117  15 35 122  15 36 122  15 100 102  15 104 100  15 100 108  15 104 102  15 102 105  15 102 126  15 104 105  15 104 108  15 104 109  15 104 115  15 104 116  15 104 117  15 105 116  15 109 108  15 109 117  15 115 116  15 115 117  15 122 130  15 126 129  15 129 130  17 16 32  20 16 19  16 19 32  20 16 32  17 33 32  17 33 117  17 109 108  17 109 117  20 18 19  18 19 129  20 18 129  20 19 32  20 19 36  20 19 122  20 19 129  20 19 130  19 32 36  19 36 122  19 122 130  19 129 130  20 32 36  20 36 122  20 122 130  20 129 130  23 22 21  24 22 21  22 21 26  27 22 21  22 21 31  24 23 21  23 21 71  24 21 25  24 21 26  24 21 64  24 21 71  21 26 25  27 21 25  21 25 28  29 21 25  21 25 64  65 21 25  21 25 73  27 21 26  27 21 28  27 21 30  27 21 31  29 21 28  21 30 28  29 21 30  29 21 73  21 31 30  65 21 64  21 71 64  65 21 71  65 21 72  65 21 73  21 71 72  24 23 22  23 22 113  24 22 26  24 22 113  27 22 26  22 26 113  27 22 31  27 22 113  22 31 113  24 23 58  24 23 59  24 23 71  24 23 94  24 23 96  24 23 113  23 59 58  23 58 71  23 59 94  23 96 94  23 96 113  24 26 25  24 25 64  24 26 112  24 26 113  24 59 58  24 58 62  24 58 63  24 58 64  24 58 71  24 59 63  24 59 94  24 63 62  24 62 64  24 63 93  24 63 94  24 71 64  24 94 93  24 96 94  24 96 113  24 113 112  27 26 25  27 25 28  29 25 28  29 25 73  65 25 64  65 25 73  27 26 112  27 26 113  26 113 112  27 30 28  27 37 28  27 28 39  27 31 30  27 30 37  27 31 37  27 31 38  27 31 113  27 31 114  27 31 119  27 38 37  27 37 39  27 37 40  27 38 40  27 38 119  27 40 39  27 40 119  27 40 120  27 112 111  27 113 111  27 114 111  27 119 111  27 111 120  27 113 112  27 114 113  27 114 119  27 119 120  29 30 28  29 37 28  29 28 39  30 37 28  37 28 39  29 30 37  29 37 39  29 37 44  29 39 44  31 30 37  31 38 37  31 38 119  31 114 113  31 114 119  33 32 35  32 35 36  33 35 117  35 36 122  35 115 116  35 115 117  38 37 40  41 38 37  37 40 39  41 37 39  37 39 42  43 37 39  37 39 44  41 37 40  41 37 42  43 37 42  43 37 44  41 38 40  38 40 119  41 38 119  41 40 39  41 39 42  43 39 42  43 39 44  41 40 119  41 40 120  40 119 120  41 119 120  41 121 119  41 121 120  45 47 46  45 48 46  45 46 52  45 46 56  45 46 57  45 48 47  45 47 56  45 47 89  45 48 52  45 48 89  45 48 91  45 56 57  45 56 80  45 56 82  45 56 89  45 56 125  45 56 127  45 57 127  45 80 82  45 80 85  45 80 89  45 85 82  45 82 125  45 85 89  45 85 91  45 89 91  45 125 127  48 47 46  49 47 46  47 46 51  47 46 56  49 48 46  48 46 52  49 46 50  49 46 51  49 46 52  49 46 53  46 51 50  46 50 53  54 46 50  46 50 55  46 52 53  54 46 52  54 46 53  54 46 55  46 56 57  49 48 47  48 47 89  49 47 51  49 47 89  47 51 89  47 56 89  49 48 52  49 48 89  49 48 91  48 89 91  49 51 50  49 50 53  49 50 58  49 51 58  49 51 59  49 51 88  49 51 89  49 51 94  49 52 53  49 53 58  49 53 66  49 59 58  49 60 58  49 58 66  49 60 59  49 59 94  49 60 66  49 60 94  49 60 95  49 89 88  49 88 90  49 88 94  49 89 90  49 89 91  49 91 90  49 90 94  49 90 95  49 94 95  51 50 58  54 50 53  50 53 58  54 50 55  54 50 58  50 58 55  51 59 58  51 59 94  51 89 88  51 88 94  54 52 53  54 53 58  54 53 66  53 58 66  54 58 55  54 58 66  54 58 70  54 66 70  56 57 127  56 80 82  56 80 89  56 82 125  56 125 127  60 59 58  61 59 58  59 58 63  61 60 58  60 58 66  61 58 62  61 58 63  61 58 66  61 58 67  58 63 62  58 62 64  65 58 62  58 62 67  68 58 62  58 62 69  65 58 64  58 71 64  65 58 69  65 58 71  65 58 72  58 66 67  68 58 66  58 66 70  68 58 67  68 58 69  68 58 70  58 71 72  61 60 59  60 59 94  61 59 63  61 59 94  59 63 94  61 60 66  61 60 94  61 60 95  60 94 95  61 63 62  61 62 67  61 63 93  61 63 94  61 66 67  61 94 93  61 94 95  65 62 64  65 62 69  68 62 67  68 62 69  63 94 93  65 71 64  65 71 72  68 66 67  68 66 70  74 76 75  74 77 75  74 75 98  74 75 119  74 75 120  74 77 76  74 77 98  74 77 99  74 99 98  74 98 119  74 99 113  74 99 114  74 99 119  74 112 111  74 113 111  74 114 111  74 119 111  74 111 120  74 113 112  74 114 113  74 114 119  74 119 120  77 76 75  78 76 75  78 77 75  77 75 98  78 75 98  78 75 119  78 75 120  75 98 119  75 119 120  78 77 76  78 77 98  97 77 98  97 77 99  77 99 98  78 98 119  78 119 120  78 121 119  78 121 120  79 81 80  79 80 82  79 80 85  79 80 89  79 81 82  79 81 89  79 85 82  79 85 89  79 85 91  79 89 91  81 80 82  83 81 80  81 80 89  83 80 82  84 80 82  80 85 82  83 84 80  83 80 89  84 80 89  80 85 89  83 81 82  83 81 89  83 84 82  83 82 86  84 82 86  123 82 86  82 86 124  123 82 124  123 82 125  82 124 125  83 84 86  83 84 89  83 84 92  83 84 100  83 84 102  83 84 108  83 86 102  83 92 89  83 92 108  83 101 100  83 100 102  83 100 108  83 101 102  83 101 108  84 86 102  84 92 89  84 92 108  84 100 102  84 100 108  85 89 91  123 86 102  86 102 124  123 86 124  89 87 88  87 88 94  92 89 87  92 87 108  87 96 94  87 96 113  87 108 107  87 107 113  89 88 90  88 90 94  89 91 90  90 94 95  97 99 98  97 98 119  97 99 113  97 99 114  97 99 119  97 106 107  97 108 106  97 109 106  97 106 113  97 106 114  97 117 106  97 106 118  97 106 119  97 108 107  97 107 113  97 109 108  97 110 108  97 110 109  97 109 117  97 110 117  97 114 113  97 114 119  97 117 118  97 118 119  99 98 119  99 114 113  99 114 119  101 100 102  103 101 100  101 100 108  103 100 102  104 100 102  103 104 100  103 100 108  104 100 108  103 101 102  103 101 108  103 104 102  103 102 105  104 102 105  123 102 124  123 102 126  102 124 126  103 104 105  103 104 108  103 104 109  103 104 115  103 104 116  103 104 117  103 105 116  103 109 108  103 110 108  103 110 109  103 109 117  103 110 117  103 115 116  103 115 117  104 105 116  104 109 108  104 109 117  104 115 116  104 115 117  108 106 107  106 107 113  109 108 106  109 117 106  106 114 113  106 114 119  117 106 118  106 118 119  110 109 108  110 109 117  113 112 111  114 113 111  114 119 111  119 111 120  121 119 120  123 124 125  123 124 126  123 124 127  123 124 128  123 124 129  123 125 127  123 126 129  123 127 128  123 128 129  124 125 127  124 126 129  124 127 128  124 128 129  </DataArray>
<DataArray  type="UInt32"  Name="offsets"  format="ascii">3 6 9 12 15 18 21 24 27 30 33 36 39 42 45 48 51 54 57 60 63 66 69 72 75 78 81 84 87 90 93 96 99 102 105 108 111 114 117 120 123 126 129 132 135 138 141 144 147 150 153 156 159 162 165 168 171 174 177 180 183 186 189 192 195 198 201 204 207 210 213 216 219 222 225 228 231 234 237 240 243 246 249 252 255 258 261 264 267 270 273 276 279 282 285 288 291 294 297 300 303 306 309 312 315 318 321 324 327 330 333 336 339 342 345 348 351 354 357 360 363 366 369 372 375 378 381 384 387 390 393 396 399 402 405 408 411 414 417 420 423 426 429 432 435 438 441 444 447 450 453 456 459 462 465 468 471 474 477 480 483 486 489 492 495 498 501 504 507 510 513 516 519 522 525 528 531 534 537 540 543 546 549 552 555 558 561 564 567 570 573 576 579 582 585 588 591 594 597 600 603 606 609 612 615 618 621 624 627 630 633 636 639 642 645 648 651 654 657 660 663 666 669 672 675 678 681 684 687 690 693 696 699 702 705 708 711 714 717 720 723 726 729 732 735 738 741 744 747 750 753 756 759 762 765 768 771 774 777 780 783 786 789 792 795 798 801 804 807 810 813 816 819 822 825 828 831 834 837 840 843 846 849 852 855 858 861 864 867 870 873 876 879 882 885 888 891 894 897 900 903 906 909 912 915 918 921 924 927 930 933 936 939 942 945 948 951 954 957 960 963 966 969 972 975 978 981 984 987 990 993 996 999 1002 1005 1008 1011 1014 1017 1020 1023 1026 1029 1032 1035 1038 1041 1044 1047 1050 1053 1056 1059 1062 1065 1068 1071 1074 1077 1080 1083 1086 1089 1092 1095 1098 1101 1104 1107 1110 1113 1116 1119 1122 1125 1128 1131 1134 1137 1140 1143 1146 1149 1152 1155 1158 1161 1164 1167 1170 1173 1176 1179 1182 1185 1188 1191 1194 1197 1200 1203 1206 1209 1212 1215 1218 1221 1224 1227 1230 1233 1236 1239 1242 1245 1248 1251 1254 1257 1260 1263 1266 1269 1272 1275 1278 1281 1284 1287 1290 1293 1296 1299 1302 1305 1308 1311 1314 1317 1320 1323 1326 1329 1332 1335 1338 1341 1344 1347 1350 1353 1356 1359 1362 1365 1368 1371 1374 1377 1380 1383 1386 1389 1392 1395 1398 1401 1404 1407 1410 1413 1416 1419 1422 1425 1428 1431 1434 1437 1440 1443 1446 1449 1452 1455 1458 1461 1464 1467 1470 1473 1476 1479 1482 1485 1488 1491 1494 1497 1500 1503 1506 1509 1512 1515 1518 1521 1524 1527 1530 1533 1536 1539 1542 1545 1548 1551 1554 1557 1560 1563 1566 1569 1572 1575 1578 1581 1584 1587 1590 1593 1596 1599 1602 1605 1608 1611 1614 1617 1620 1623 1626 1629 1632 1635 1638 1641 1644 1647 1650 1653 1656 1659 1662 1665 1668 1671 1674 1677 1680 1683 1686 1689 1692 1695 1698 1701 1704 1707 1710 1713 1716 1719 1722 1725 1728 1731 1734 1737 1740 1743 1746 1749 1752 1755 1758 1761 1764 1767 1770 1773 1776 1779 1782 1785 1788 1791 1794 1797 1800 1803 1806 1809 1812 1815 1818 1821 1824 1827 1830 1833 1836 1839 1842 1845 1848 1851 1854 1857 1860 1863 1866 1869 1872 1875 1878 1881 1884 1887 1890 1893 1896 1899 1902 1905 1908 1911 1914 1917 1920 1923 1926 1929 1932 1935 1938 1941 1944 1947 1950 1953 1956 1959 1962 1965 1968 1971 1974 1977 1980 1983 1986 1989 1992 1995 1998 2001 2004 2007 2010 2013 2016 2019 2022 2025 2028 2031 2034 2037 2040 2043 2046 2049 2052 2055 2058 2061 2064 2067 2070 2073 2076 2079 2082 2085 2088 2091 2094 2097 2100 2103 2106 2109 2112 2115 2118 2121 2124 2127 2130 2133 2136 2139 2142 2145 2148 2151 2154 2157 2160 2163 2166 2169 2172 2175 2178 2181 2184 2187 2190 2193 2196 2199 2202 2205 2208 2211 2214 2217 2220 2223 2226 2229 2232 2235 2238 2241 2244 2247 2250 2253 2256 2259 2262 2265 2268 2271 2274 2277 2280 2283 2286 2289 2292 2295 2298 2301 2304 2307 2310 2313 2316 2319 2322 2325 2328 2331 2334 2337 2340 2343 2346 2349 2352 2355 2358 2361 2364 2367 2370 2373 2376 2379 2382 2385 2388 2391 2394 2397 2400 2403 2406 2409 2412 2415 2418 2421 2424 2427 2430 2433 2436 2439 2442 2445 2448 2451 2454 2457 2460 2463 2466 2469 2472 2475 2478 2481 2484 2487 2490 2493 2496 2499 2502 2505 2508 2511 2514 2517 2520 2523 2526 2529 2532 2535 2538 2541 2544 2547 2550 2553 2556 2559 2562 2565 2568 2571 2574 2577 2580 2583 2586 2589 2592 2595 2598 2601 2604 2607 2610 2613 2616 2619 2622 2625 2628 2631 2634 2637 2640 2643 2646 2649 2652 2655 2658 2661 2664 2667 2670 2673 2676 2679 2682 </DataArray>
<DataArray  type="UInt8"  Name="types"  format="ascii">5 5 5 5 5 5 5 5 5 5 5 5 5 5 5 5 5 5 5 5 5 5 5 5 5 5 5 5 5 5 5 5 5 5 5 5 5 5 5 5 5 5 5 5 5 5 5 5 5 5 5 5 5 5 5 5 5 5 5 5 5 5 5 5 5 5 5 5 5 5 5 5 5 5 5 5 5 5 5 5 5 5 5 5 5 5 5 5 5 5 5 5 5 5 5 5 5 5 5 5 5 5 5 5 5 5 5 5 5 5 5 5 5 5 5 5 5 5 5 5 5 5 5 5 5 5 5 5 5 5 5 5 5 5 5 5 5 5 5 5 5 5 5 5 5 5 5 5 5 5 5 5 5 5 5 5 5 5 5 5 5 5 5 5 5 5 5 5 5 5 5 5 5 5 5 5 5 5 5 5 5 5 5 5 5 5 5 5 5 5 5 5 5 5 5 5 5 5 5 5 5 5 5 5 5 5 5 5 5 5 5 5 5 5 5 5 5 5 5 5 5 5 5 5 5 5 5 5 5 5 5 5 5 5 5 5 5 5 5 5 5 5 5 5 5 5 5 5 5 5 5 5 5 5 5 5 5 5 5 5 5 5 5 5 5 5 5 5 5 5 5 5 5 5 5 5 5 5 5 5 5 5 5 5 5 5 5 5 5 5 5 5 5 5 5 5 5 5 5 5 5 5 5 5 5 5 5 5 5 5 5 5 5 5 5 5 5 5 5 5 5 5 5 5 5 5 5 5 5 5 5 5 5 5 5 5 5 5 5 5 5 5 5 5 5 5 5 5 5 5 5 5 5 5 5 5 5 5 5 5 5 5 5 5 5 5 5 5 5 5 5 5 5 5 5 5 5 5 5 5 5 5 5 5 5 5 5 5 5 5 5 5 5 5 5 5 5 5 5 5 5 5 5 5 5 5 5 5 5 5 5 5 5 5 5 5 5 5 5 5 5 5 5 5 5 5 5 5 5 5 5 5 5 5 5 5 5 5 5 5 5 5 5 5 5 5 5 5 5 5 5 5 5 5 5 5 5 5 5 5 5 5 5 5 5 5 5 5 5 5 5 5 5 5 5 5 5 5 5 5 5 5 5 5 5 5 5 5 5 5 5 5 5 5 5 5 5 5 5 5 5 5 5 5 5 5 5 5 5 5 5 5 5 5 5 5 5 5 5 5 5 5 5 5 5 5 5 5 5 5 5 5 5 5 5 5 5 5 5 5 5 5 5 5 5 5 5 5 5 5 5 5 5 5 5 5 5 5 5 5 5 5 5 5 5 5 5 5 5 5 5 5 5 5 5 5 5 5 5 5 5 5 5 5 5 5 5 5 5 5 5 5 5 5 5 5 5 5 5 5 5 5 5 5 5 5 5 5 5 5 5 5 5 5 5 5 5 5 5 5 5 5 5 5 5 5 5 5 5 5 5 5 5 5 5 5 5 5 5 5 5 5 5 5 5 5 5 5 5 5 5 5 5 5 5 5 5 5 5 5 5 5 5 5 5 5 5 5 5 5 5 5 5 5 5 5 5 5 5 5 5 5 5 5 5 5 5 5 5 5 5 5 5 5 5 5 5 5 5 5 5 5 5 5 5 5 5 5 5 5 5 5 5 5 5 5 5 5 5 5 5 5 5 5 5 5 5 5 5 5 5 5 5 5 5 5 5 5 5 5 5 5 5 5 5 5 5 5 5 5 5 5 5 5 5 5 5 5 5 5 5 5 5 5 5 5 5 5 5 5 5 5 5 5 5 5 5 5 5 5 5 5 5 5 5 5 5 5 5 5 5 5 5 5 5 5 5 5 5 5 5 5 5 5 5 5 5 5 5 5 5 5 5 5 5 5 5 5 5 5 5 5 5 5 5 5 5 5 5 5 5 5 5 5 5 5 5 5 5 5 5 5 5 5 5 5 5 5 5 5 5 5 5 5 5 5 5 5 5 5 5 5 5 5 5 5 5 5 5 5 5 5 5 5 5 5 5 5 5 5 5 5 5 5 5 5 5 5 5 5 5 5 5 5 </DataArray>
</Cells>
<CellData  Scalars="f">
<DataArray  type="Float64"  Name="f"  format="ascii">3 3 3 3 3 3 3 3 3 3 3 3 3 3 3 3 3 3 3 3 3 3 3 3 3 3 3 3 3 3 3 3 3 3 3 3 3 3 3 3 3 3 3 3 3 3 3 3 3 3 3 3 3 3 3 3 3 3 3 3 3 3 3 3 3 3 3 3 3 3 3 3 3 3 3 3 3 3 3 3 3 3 3 3 3 3 3 3 3 3 3 3 3 3 3 3 3 3 3 3 3 3 3 3 3 3 3 3 3 3 3 3 3 3 3 3 3 3 3 3 3 3 3 3 3 3 3 3 3 3 3 3 3 3 3 3 3 3 3 3 3 3 3 3 3 3 3 3 3 3 3 3 3 3 3 3 3 3 3 3 3 3 3 3 3 3 3 3 3 3 3 3 3 3 3 3 3 3 3 3 3 3 3 3 3 3 3 3 3 3 3 3 3 3 3 3 3 3 3 3 3 3 3 3 3 3 3 3 3 3 3 3 3 3 3 3 3 3 3 3 3 3 3 3 3 3 3 3 3 3 3 3 3 3 3 3 3 3 3 3 3 3 3 3 3 3 3 3 3 3 3 3 3 3 3 3 3 3 3 3 3 3 3 3 3 3 3 3 3 3 3 3 3 3 3 3 3 3 3 3 3 3 3 3 3 3 3 3 3 3 3 3 3 3 3 3 3 3 3 3 3 3 3 3 3 3 3 3 3 3 3 3 3 3 3 3 3 3 3 3 3 3 3 3 3 3 3 3 3 3 3 3 3 3 3 3 3 3 3 3 3 3 3 3 3 3 3 3 3 3 3 3 3 3 3 3 3 3 3 3 3 3 3 3 3 3 3 3 3 3 3 3 3 3 3 3 3 3 3 3 3 3 3 3 3 3 3 3 3 3 3 3 3 3 3 3 3 3 3 3 3 3 3 3 3 3 3 3 3 3 3 3 3 3 3 3 3 3 3 3 3 3 3 3 3 3 3 3 3 3 3 3 3 3 3 3 3 3 3 3 2 2 2 3 3 3 3 3 3 3 3 2 2 2 3 3 3 3 3 3 2 2 2 2 2 2 2 3 3 3 3 2 3 3 3 3 3 3 3 3 3 3 3 3 2 3 2 2 3 3 3 2 3 3 3 3 3 3 2 3 3 3 3 3 2 3 3 3 3 3 3 3 3 3 3 3 3 3 3 3 3 3 3 3 3 3 3 3 3 3 2 2 2 2 3 2 3 3 3 2 3 3 3 3 3 3 3 3 3 3 3 3 3 3 3 3 3 3 3 3 3 3 3 3 3 3 3 3 3 3 3 3 3 3 3 3 3 3 3 3 3 3 3 3 3 3 3 3 3 3 3 3 3 3 3 3 3 3 3 3 3 3 3 3 3 3 3 3 3 3 3 3 3 3 3 3 3 3 3 3 3 3 3 3 3 3 3 3 3 3 3 3 3 3 3 3 3 3 3 3 3 3 3 3 3 3 3 3 3 3 3 3 3 3 3 3 3 3 3 3 3 3 3 3 3 3 3 3 3 3 3 3 3 3 3 3 3 3 3 3 3 3 3 2 2 2 3 3 3 3 2 2 2 2 3 3 3 3 3 2 3 3 3 2 3 3 3 3 3 3 3 3 2 3 3 3 2 3 3 3 3 3 2 3 3 3 3 2 3 3 3 3 3 3 3 3 3 3 2 3 3 3 3 3 3 3 3 3 3 3 3 3 3 3 3 3 3 3 3 3 3 3 3 3 3 3 3 3 3 3 3 3 3 3 3 3 3 3 3 3 3 3 3 3 3 3 3 3 3 3 3 3 3 3 3 3 3 3 3 3 3 3 3 3 3 3 3 3 3 3 3 3 3 3 3 3 3 3 3 3 3 3 3 3 3 3 3 3 3 3 3 3 3 3 3 3 3 3 3 3 3 3 3 3 3 3 3 3 3 3 3 3 3 3 3 3 3 3 3 3 3 3 3 3 3 3 3 3 3 3 3 3 3 3 3 3 3 3 3 3 3 3 3 3 3 3 3 3 3 3 3 3 3 3 </DataArray>
</CellData>
</Piece>
</UnstructuredGrid>
</VTKFile>