<?xml version="1.0"?>
<VTKFile type="UnstructuredGrid"  version="0.1"  >
<UnstructuredGrid>
<Piece  NumberOfPoints="125" NumberOfCells="898">
<Points>
<DataArray  type="Float64"  NumberOfComponents="3"  format="ascii">20 20 0  25 25 5  20 25 5  20 20 5  20 20 10  20 25 10  20 30 10  20 25 0  20 30 0  20 30 5  0 20 20  5 25 25  5 25 20  0 25 20  0 30 20  5 30 25  5 30 20  10 30 20  10 30 25  10 30 30  0 25 25  0 30 25  0 30 30  5 30 30  5 35 25  5 35 20  10 35 25  10 35 20  10 40 20  0 35 20  0 40 20  0 35 25  15 35 25  15 35 20  15 30 20  20 30 20  20 35 20  20 40 20  15 30 25  15 40 20  10 20 0  15 25 5  15 25 0  15 20 0  15 20 5  10 20 5  10 20 10  15 25 10  15 20 10  10 25 0  10 30 0  15 30 5  15 30 0  10 25 5  10 25 10  10 30 10  15 30 10  10 30 5  15 35 5  15 35 0  15 35 10  10 35 0  10 35 5  10 35 10  15 25 15  20 25 15  20 30 15  15 30 15  15 35 15  0 20 0  5 25 5  5 25 0  5 20 0  5 20 5  0 20 5  0 20 10  5 25 10  5 20 10  0 25 0  0 30 0  5 30 5  5 30 0  0 25 5  0 25 10  0 30 10  5 30 10  0 30 5  5 35 5  5 35 0  5 35 10  0 35 0  0 40 0  0 35 5  0 35 10  0 40 10  0 40 5  5 25 15  10 25 15  10 30 15  5 30 15  0 25 15  0 20 15  0 30 15  5 35 15  10 35 15  0 35 15  0 40 15  5 20 15  5 15 15  5 15 10  10 20 15  10 20 20  0 15 15  5 20 20  10 25 20  20 25 20  15 25 20  10 25 25  15 25 25  5 15 5  5 15 0  0 15 0  0 15 5  15 15 5  15 15 0  </DataArray>
</Points>
<Cells>
<DataArray  type="UInt32"  Name="connectivity"  format="ascii">0 1 2  0 3 1  0 1 7  0 3 2  0 7 2  0 2 41  0 3 41  0 3 44  0 3 123  0 7 41  0 7 42  0 42 41  0 43 41  0 41 44  0 43 42  0 43 44  0 43 123  0 43 124  0 44 123  0 124 123  3 1 2  4 1 2  1 2 5  6 1 2  1 7 2  8 1 2  1 2 9  4 3 1  4 1 5  6 1 5  6 1 9  8 1 7  8 1 9  4 3 2  3 2 41  4 2 5  4 2 41  6 2 5  2 5 41  6 2 9  6 2 41  8 7 2  7 2 41  8 2 9  8 2 41  2 9 41  4 3 41  4 3 44  4 3 123  3 41 44  3 44 123  4 5 41  4 5 47  4 5 64  4 5 65  4 41 44  4 41 47  4 41 48  4 44 48  4 44 123  4 47 48  4 47 64  4 48 64  4 48 123  4 65 64  6 5 41  6 5 47  6 5 64  6 5 65  5 41 47  5 47 64  5 65 64  6 9 41  6 9 51  6 9 58  6 41 47  6 41 51  6 41 56  6 47 56  6 47 64  6 51 56  6 51 58  6 56 58  6 56 60  6 56 64  6 56 67  6 56 68  6 58 60  6 60 68  6 65 64  6 66 64  6 64 67  6 66 65  6 66 67  6 66 68  6 67 68  8 7 41  8 7 42  7 42 41  8 9 41  8 9 51  8 9 58  8 42 41  8 41 51  8 41 52  8 42 52  8 52 51  8 51 58  8 52 58  8 52 59  8 59 58  9 41 51  9 51 58  10 12 11  10 13 11  10 11 20  10 11 113  10 13 12  10 12 96  10 12 113  10 13 20  10 13 96  10 13 100  10 96 100  10 96 101  10 96 107  10 96 113  10 101 100  10 101 107  10 101 108  10 101 112  10 108 107  10 107 113  10 108 112  10 108 113  13 12 11  14 12 11  12 11 16  17 12 11  111 12 11  12 11 113  12 11 114  14 13 11  13 11 20  14 11 15  14 11 16  14 11 20  14 11 21  11 16 15  17 11 15  11 15 18  19 11 15  11 15 21  22 11 15  11 15 23  17 11 16  17 11 18  17 11 114  17 11 117  19 11 18  11 18 117  19 11 23  19 11 117  11 20 21  22 11 20  22 11 21  22 11 23  111 11 113  111 11 114  111 11 117  11 114 117  14 13 12  13 12 96  14 12 16  14 12 96  17 12 16  12 16 96  17 12 96  17 12 114  111 12 96  12 96 113  12 96 114  111 12 113  111 12 114  14 13 20  14 13 96  14 13 100  13 96 100  14 16 15  14 15 21  14 15 24  14 16 24  14 16 25  14 16 96  14 16 99  14 16 103  14 20 21  14 21 24  14 21 31  14 25 24  14 24 29  14 24 31  14 25 29  14 25 103  14 29 31  14 29 103  14 29 105  14 96 99  14 96 100  14 96 102  14 99 102  14 99 103  14 100 102  14 102 103  14 102 105  14 103 105  17 16 15  16 15 24  17 15 18  17 15 24  19 15 18  15 24 18  19 15 23  19 15 24  22 15 21  15 21 24  22 15 23  22 15 24  15 24 23  17 16 24  17 16 25  17 16 96  17 16 99  17 16 103  16 25 24  16 25 103  16 96 99  16 99 103  17 24 18  17 18 26  17 18 32  17 18 38  17 18 117  17 18 118  17 25 24  17 24 26  17 24 27  17 25 27  17 25 103  17 27 26  17 26 32  17 27 32  17 27 33  17 27 68  17 27 103  17 27 104  17 33 32  17 34 32  17 32 38  17 34 33  17 33 68  17 34 38  17 34 64  17 34 67  17 34 68  17 34 116  17 34 118  17 38 118  17 64 67  17 64 97  17 64 98  17 64 114  17 64 116  17 67 68  17 67 98  17 68 98  17 68 104  17 97 96  17 98 96  17 96 99  17 96 114  17 98 97  17 97 114  17 98 99  17 98 103  17 98 104  17 99 103  17 104 103  17 114 116  17 114 117  17 114 118  17 116 118  17 117 118  19 24 18  19 18 26  19 18 32  19 18 38  19 18 117  19 18 118  24 18 26  18 26 32  18 32 38  18 38 118  18 117 118  19 24 23  19 24 26  19 26 32  19 32 38  19 38 118  19 117 118  22 20 21  22 21 24  22 21 31  21 24 31  22 24 23  22 24 31  25 24 27  28 25 24  25 24 29  30 25 24  24 27 26  28 24 26  28 24 27  30 24 29  24 29 31  30 24 31  28 25 27  25 27 103  28 25 103  30 25 29  25 29 103  30 25 103  28 27 26  27 26 32  28 26 32  28 27 32  28 27 33  28 27 68  28 27 103  28 27 104  27 33 32  27 33 68  27 68 104  27 104 103  28 33 32  28 32 39  28 33 39  28 33 68  28 39 68  28 68 104  28 104 103  30 29 31  30 29 103  30 29 105  29 103 105  30 103 105  30 103 106  30 105 106  34 33 32  35 33 32  33 32 36  37 33 32  33 32 39  35 34 32  34 32 38  35 32 36  35 32 38  37 32 36  37 32 39  35 34 33  34 33 68  35 33 36  35 33 68  37 33 36  33 36 68  37 33 39  37 33 68  33 39 68  35 34 38  35 34 64  35 34 67  35 34 68  35 34 116  35 34 118  34 38 118  34 64 67  34 64 116  34 67 68  34 116 118  35 36 68  35 38 118  35 65 64  35 66 64  35 64 67  35 64 115  35 64 116  35 66 65  35 65 115  35 66 67  35 66 68  35 67 68  35 116 115  35 118 115  35 116 118  37 36 68  37 39 68  40 42 41  40 43 41  40 41 44  40 41 45  40 41 49  40 41 53  40 43 42  40 42 49  40 43 44  40 43 123  40 43 124  40 44 45  40 44 123  40 45 53  40 45 70  40 45 73  40 45 119  40 45 123  40 49 53  40 49 70  40 49 71  40 53 70  40 71 70  40 72 70  40 70 73  40 72 71  40 72 73  40 72 119  40 72 120  40 73 119  40 120 119  40 124 123  43 42 41  42 41 49  50 42 41  42 41 52  43 41 44  41 44 45  46 41 44  41 44 48  46 41 45  41 45 53  46 41 47  46 41 48  46 41 53  46 41 54  41 47 48  41 47 54  55 41 47  41 47 56  50 41 49  41 49 53  50 41 51  50 41 52  50 41 53  50 41 57  41 52 51  55 41 51  41 51 56  41 51 57  41 53 54  55 41 53  41 53 57  55 41 54  55 41 56  55 41 57  50 42 49  50 42 52  43 44 123  43 124 123  46 44 45  44 45 123  46 44 48  46 44 123  44 48 123  46 45 53  46 45 70  46 45 73  46 45 119  46 45 123  45 53 70  45 70 73  45 73 119  46 47 48  46 47 54  46 47 64  46 48 64  46 48 123  46 53 54  46 53 70  46 54 64  46 54 70  46 54 76  46 54 96  46 54 97  46 64 97  46 64 110  46 70 73  46 70 76  46 70 77  46 73 77  46 73 119  46 76 77  46 76 96  46 77 96  46 77 107  46 77 108  46 77 109  46 77 119  46 97 96  46 96 107  46 96 110  46 97 110  46 108 107  46 107 110  46 108 109  46 108 110  46 109 119  47 48 64  55 47 54  47 54 64  55 47 56  55 47 64  47 56 64  50 49 53  50 49 70  50 49 71  49 53 70  49 71 70  50 52 51  50 51 57  50 51 58  50 52 58  50 52 59  50 53 57  50 53 70  50 57 58  50 57 62  50 57 70  50 57 80  50 57 87  50 59 58  50 58 61  50 58 62  50 59 61  50 61 62  50 61 87  50 61 88  50 62 87  50 71 70  50 70 80  50 70 81  50 71 81  50 81 80  50 80 87  50 81 87  50 81 88  50 88 87  52 51 58  55 51 56  55 51 57  55 51 58  51 56 58  51 57 58  52 59 58  55 53 54  53 54 70  55 53 57  55 53 70  53 57 70  55 54 64  55 54 70  55 54 76  55 54 96  55 54 97  54 64 97  54 70 76  54 76 96  54 97 96  55 56 58  55 56 60  55 56 64  55 56 67  55 56 68  55 57 58  55 57 62  55 57 70  55 57 80  55 57 87  55 58 60  55 58 62  55 58 63  55 60 63  55 60 68  55 62 63  55 62 87  55 63 68  55 63 87  55 63 89  55 63 103  55 63 104  55 64 67  55 64 97  55 64 98  55 67 68  55 67 98  55 68 98  55 68 104  55 70 76  55 70 80  55 70 85  55 76 85  55 76 96  55 80 85  55 80 87  55 85 87  55 85 89  55 85 96  55 85 99  55 85 103  55 87 89  55 89 103  55 97 96  55 98 96  55 96 99  55 98 97  55 98 99  55 98 103  55 98 104  55 99 103  55 104 103  56 58 60  56 60 68  56 64 67  56 67 68  57 58 62  57 62 87  57 70 80  57 80 87  59 58 61  58 60 63  58 61 62  58 62 63  60 63 68  61 62 87  61 88 87  62 63 87  63 68 104  63 87 89  63 89 103  63 104 103  66 65 64  65 64 115  66 64 67  64 67 98  64 98 97  64 97 110  111 64 97  64 97 114  111 64 110  111 64 114  111 64 116  64 114 116  64 116 115  66 67 68  67 68 98  68 98 104  69 71 70  69 72 70  69 70 73  69 70 74  69 70 78  69 70 82  69 72 71  69 71 78  69 72 73  69 72 119  69 72 120  69 73 74  69 73 119  69 74 82  69 74 119  69 74 122  69 78 82  69 120 119  69 119 121  69 119 122  69 120 121  69 121 122  72 71 70  71 70 78  79 71 70  71 70 81  72 70 73  70 73 74  75 70 73  70 73 77  75 70 74  70 74 82  75 70 76  75 70 77  75 70 82  75 70 83  70 76 77  70 76 83  84 70 76  70 76 85  79 70 78  70 78 82  79 70 80  79 70 81  79 70 82  79 70 86  70 81 80  84 70 80  70 80 85  70 80 86  70 82 83  84 70 82  70 82 86  84 70 83  84 70 85  84 70 86  79 71 78  79 71 81  72 73 119  72 120 119  75 73 74  73 74 119  75 73 77  75 73 119  73 77 119  75 74 82  75 74 119  75 74 122  74 119 122  75 76 77  75 76 83  75 76 96  75 77 96  75 77 107  75 77 108  75 77 109  75 77 119  75 82 83  75 83 96  75 83 100  75 96 100  75 96 101  75 96 107  75 101 100  75 101 107  75 101 108  75 101 112  75 108 107  75 108 109  75 108 112  75 109 119  75 119 122  76 77 96  84 76 83  76 83 96  84 76 85  84 76 96  76 85 96  77 96 107  77 108 107  77 108 109  77 109 119  79 78 82  79 81 80  79 80 86  79 80 87  79 81 87  79 81 88  79 82 86  79 86 87  79 86 92  79 88 87  79 87 90  79 87 92  79 88 90  79 90 92  81 80 87  84 80 85  84 80 86  84 80 87  80 85 87  80 86 87  81 88 87  84 82 83  84 82 86  84 83 96  84 83 100  83 96 100  84 85 87  84 85 89  84 85 96  84 85 99  84 85 103  84 86 87  84 86 92  84 87 89  84 87 92  84 87 93  84 89 93  84 89 103  84 92 93  84 93 103  84 93 105  84 96 99  84 96 100  84 96 102  84 99 102  84 99 103  84 100 102  84 102 103  84 102 105  84 103 105  85 87 89  85 89 103  85 96 99  85 99 103  86 87 92  88 87 90  91 88 87  87 89 93  94 87 89  91 87 90  87 90 92  91 87 92  91 87 95  87 92 93  94 87 92  87 92 95  94 87 93  94 87 95  91 88 90  94 89 93  89 93 103  94 89 103  91 90 92  91 92 95  94 92 93  94 92 95  94 93 103  94 93 105  93 103 105  94 103 105  94 103 106  94 105 106  98 97 96  97 96 110  111 97 96  97 96 114  98 96 99  96 99 102  96 101 100  96 100 102  96 101 107  96 107 110  111 96 107  96 107 113  111 96 110  111 96 113  111 96 114  111 97 110  111 97 114  98 99 103  98 104 103  99 102 103  101 108 107  101 108 112  102 103 105  103 105 106  108 107 110  111 108 107  108 107 113  111 107 110  111 107 113  111 108 110  111 108 113  111 114 116  111 114 117  111 114 118  111 116 118  111 117 118  114 116 118  114 117 118  116 118 115  120 119 121  119 121 122  </DataArray>
<DataArray  type="UInt32"  Name="offsets"  format="ascii">3 6 9 12 15 18 21 24 27 30 33 36 39 42 45 48 51 54 57 60 63 66 69 72 75 78 81 84 87 90 93 96 99 102 105 108 111 114 117 120 123 126 129 132 135 138 141 144 147 150 153 156 159 162 165 168 171 174 177 180 183 186 189 192 195 198 201 204 207 210 213 216 219 222 225 228 231 234 237 240 243 246 249 252 255 258 261 264 267 270 273 276 279 282 285 288 291 294 297 300 303 306 309 312 315 318 321 324 327 330 333 336 339 342 345 348 351 354 357 360 363 366 369 372 375 378 381 384 387 390 393 396 399 402 405 408 411 414 417 420 423 426 429 432 435 438 441 444 447 450 453 456 459 462 465 468 471 474 477 480 483 486 489 492 495 498 501 504 507 510 513 516 519 522 525 528 531 534 537 540 543 546 549 552 555 558 561 564 567 570 573 576 579 582 585 588 591 594 597 600 603 606 609 612 615 618 621 624 627 630 633 636 639 642 645 648 651 654 657 660 663 666 669 672 675 678 681 684 687 690 693 696 699 702 705 708 711 714 717 720 723 726 729 732 735 738 741 744 747 750 753 756 759 762 765 768 771 774 777 780 783 786 789 792 795 798 801 804 807 810 813 816 819 822 825 828 831 834 837 840 843 846 849 852 855 858 861 864 867 870 873 876 879 882 885 888 891 894 897 900 903 906 909 912 915 918 921 924 927 930 933 936 939 942 945 948 951 954 957 960 963 966 969 972 975 978 981 984 987 990 993 996 999 1002 1005 1008 1011 1014 1017 1020 1023 1026 1029 1032 1035 1038 1041 1044 1047 1050 1053 1056 1059 1062 1065 1068 1071 1074 1077 1080 1083 1086 1089 1092 1095 1098 1101 1104 1107 1110 1113 1116 1119 1122 1125 1128 1131 1134 1137 1140 1143 1146 1149 1152 1155 1158 1161 1164 1167 1170 1173 1176 1179 1182 1185 1188 1191 1194 1197 1200 1203 1206 1209 1212 1215 1218 1221 1224 1227 1230 1233 1236 1239 1242 1245 1248 1251 1254 1257 1260 1263 1266 1269 1272 1275 1278 1281 1284 1287 1290 1293 1296 1299 1302 1305 1308 1311 1314 1317 1320 1323 1326 1329 1332 1335 1338 1341 1344 1347 1350 1353 1356 1359 1362 1365 1368 1371 1374 1377 1380 1383 1386 1389 1392 1395 1398 1401 1404 1407 1410 1413 1416 1419 1422 1425 1428 1431 1434 1437 1440 1443 1446 1449 1452 1455 1458 1461 1464 1467 1470 1473 1476 1479 1482 1485 1488 1491 1494 1497 1500 1503 1506 1509 1512 1515 1518 1521 1524 1527 1530 1533 1536 1539 1542 1545 1548 1551 1554 1557 1560 1563 1566 1569 1572 1575 1578 1581 1584 1587 1590 1593 1596 1599 1602 1605 1608 1611 1614 1617 1620 1623 1626 1629 1632 1635 1638 1641 1644 1647 1650 1653 1656 1659 1662 1665 1668 1671 1674 1677 1680 1683 1686 1689 1692 1695 1698 1701 1704 1707 1710 1713 1716 1719 1722 1725 1728 1731 1734 1737 1740 1743 1746 1749 1752 1755 1758 1761 1764 1767 1770 1773 1776 1779 1782 1785 1788 1791 1794 1797 1800 1803 1806 1809 1812 1815 1818 1821 1824 1827 1830 1833 1836 1839 1842 1845 1848 1851 1854 1857 1860 1863 1866 1869 1872 1875 1878 1881 1884 1887 1890 1893 1896 1899 1902 1905 1908 1911 1914 1917 1920 1923 1926 1929 1932 1935 1938 1941 1944 1947 1950 1953 1956 1959 1962 1965 1968 1971 1974 1977 1980 1983 1986 1989 1992 1995 1998 2001 2004 2007 2010 2013 2016 2019 2022 2025 2028 2031 2034 2037 2040 2043 2046 2049 2052 2055 2058 2061 2064 2067 2070 2073 2076 2079 2082 2085 2088 2091 2094 2097 2100 2103 2106 2109 2112 2115 2118 2121 2124 2127 2130 2133 2136 2139 2142 2145 2148 2151 2154 2157 2160 2163 2166 2169 2172 2175 2178 2181 2184 2187 2190 2193 2196 2199 2202 2205 2208 2211 2214 2217 2220 2223 2226 2229 2232 2235 2238 2241 2244 2247 2250 2253 2256 2259 2262 2265 2268 2271 2274 2277 2280 2283 2286 2289 2292 2295 2298 2301 2304 2307 2310 2313 2316 2319 2322 2325 2328 2331 2334 2337 2340 2343 2346 2349 2352 2355 2358 2361 2364 2367 2370 2373 2376 2379 2382 2385 2388 2391 2394 2397 2400 2403 2406 2409 2412 2415 2418 2421 2424 2427 2430 2433 2436 2439 2442 2445 2448 2451 2454 2457 2460 2463 2466 2469 2472 2475 2478 2481 2484 2487 2490 2493 2496 2499 2502 2505 2508 2511 2514 2517 2520 2523 2526 2529 2532 2535 2538 2541 2544 2547 2550 2553 2556 2559 2562 2565 2568 2571 2574 2577 2580 2583 2586 2589 2592 2595 2598 2601 2604 2607 2610 2613 2616 2619 2622 2625 2628 2631 2634 2637 2640 2643 2646 2649 2652 2655 2658 2661 2664 2667 2670 2673 2676 2679 2682 2685 2688 2691 2694 </DataArray>
<DataArray  type="UInt8"  Name="types"  format="ascii">5 5 5 5 5 5 5 5 5 5 5 5 5 5 5 5 5 5 5 5 5 5 5 5 5 5 5 5 5 5 5 5 5 5 5 5 5 5 5 5 5 5 5 5 5 5 5 5 5 5 5 5 5 5 5 5 5 5 5 5 5 5 5 5 5 5 5 5 5 5 5 5 5 5 5 5 5 5 5 5 5 5 5 5 5 5 5 5 5 5 5 5 5 5 5 5 5 5 5 5 5 5 5 5 5 5 5 5 5 5 5 5 5 5 5 5 5 5 5 5 5 5 5 5 5 5 5 5 5 5 5 5 5 5 5 5 5 5 5 5 5 5 5 5 5 5 5 5 5 5 5 5 5 5 5 5 5 5 5 5 5 5 5 5 5 5 5 5 5 5 5 5 5 5 5 5 5 5 5 5 5 5 5 5 5 5 5 5 5 5 5 5 5 5 5 5 5 5 5 5 5 5 5 5 5 5 5 5 5 5 5 5 5 5 5 5 5 5 5 5 5 5 5 5 5 5 5 5 5 5 5 5 5 5 5 5 5 5 5 5 5 5 5 5 5 5 5 5 5 5 5 5 5 5 5 5 5 5 5 5 5 5 5 5 5 5 5 5 5 5 5 5 5 5 5 5 5 5 5 5 5 5 5 5 5 5 5 5 5 5 5 5 5 5 5 5 5 5 5 5 5 5 5 5 5 5 5 5 5 5 5 5 5 5 5 5 5 5 5 5 5 5 5 5 5 5 5 5 5 5 5 5 5 5 5 5 5 5 5 5 5 5 5 5 5 5 5 5 5 5 5 5 5 5 5 5 5 5 5 5 5 5 5 5 5 5 5 5 5 5 5 5 5 5 5 5 5 5 5 5 5 5 5 5 5 5 5 5 5 5 5 5 5 5 5 5 5 5 5 5 5 5 5 5 5 5 5 5 5 5 5 5 5 5 5 5 5 5 5 5 5 5 5 5 5 5 5 5 5 5 5 5 5 5 5 5 5 5 5 5 5 5 5 5 5 5 5 5 5 5 5 5 5 5 5 5 5 5 5 5 5 5 5 5 5 5 5 5 5 5 5 5 5 5 5 5 5 5 5 5 5 5 5 5 5 5 5 5 5 5 5 5 5 5 5 5 5 5 5 5 5 5 5 5 5 5 5 5 5 5 5 5 5 5 5 5 5 5 5 5 5 5 5 5 5 5 5 5 5 5 5 5 5 5 5 5 5 5 5 5 5 5 5 5 5 5 5 5 5 5 5 5 5 5 5 5 5 5 5 5 5 5 5 5 5 5 5 5 5 5 5 5 5 5 5 5 5 5 5 5 5 5 5 5 5 5 5 5 5 5 5 5 5 5 5 5 5 5 5 5 5 5 5 5 5 5 5 5 5 5 5 5 5 5 5 5 5 5 5 5 5 5 5 5 5 5 5 5 5 5 5 5 5 5 5 5 5 5 5 5 5 5 5 5 5 5 5 5 5 5 5 5 5 5 5 5 5 5 5 5 5 5 5 5 5 5 5 5 5 5 5 5 5 5 5 5 5 5 5 5 5 5 5 5 5 5 5 5 5 5 5 5 5 5 5 5 5 5 5 5 5 5 5 5 5 5 5 5 5 5 5 5 5 5 5 5 5 5 5 5 5 5 5 5 5 5 5 5 5 5 5 5 5 5 5 5 5 5 5 5 5 5 5 5 5 5 5 5 5 5 5 5 5 5 5 5 5 5 5 5 5 5 5 5 5 5 5 5 5 5 5 5 5 5 5 5 5 5 5 5 5 5 5 5 5 5 5 5 5 5 5 5 5 5 5 5 5 5 5 5 5 5 5 5 5 5 5 5 5 5 5 5 5 5 5 5 5 5 5 5 5 5 5 5 5 5 5 5 5 5 5 5 5 5 5 5 5 5 5 5 5 5 5 5 5 5 5 5 5 5 5 5 5 5 5 5 5 5 5 5 5 5 5 5 5 5 5 5 5 5 5 5 5 5 5 5 5 5 5 5 5 5 5 5 5 5 5 5 5 5 5 5 5 5 5 5 5 5 </DataArray>
</Cells>
<CellData  Scalars="f">
<DataArray  type="Float64"  Name="f"  format="ascii">3 3 3 3 3 3 3 3 3 3 3 3 3 3 3 3 3 3 3 3 3 3 3 3 3 3 3 3 3 3 3 3 3 3 3 3 3 3 3 3 3 3 3 3 3 3 3 3 3 3 3 3 3 3 3 3 3 3 3 3 3 3 3 3 3 3 3 3 3 3 3 3 3 3 3 3 3 3 3 3 3 3 3 3 3 3 3 3 3 3 3 3 3 3 3 3 3 3 3 3 3 3 3 3 3 3 3 3 3 3 3 3 3 3 3 3 3 3 3 3 1 3 1 3 3 3 3 1 3 3 1 3 3 3 3 3 3 3 3 3 3 3 3 3 3 3 3 3 3 3 3 3 3 3 3 3 3 3 3 3 3 3 3 3 3 3 3 3 3 3 3 3 3 3 3 3 3 3 3 3 3 3 3 3 1 3 1 3 3 3 3 3 3 3 3 3 1 3 1 3 3 3 3 3 1 3 1 3 3 3 3 3 1 3 1 3 3 3 3 3 3 3 3 3 3 3 3 3 3 3 3 3 3 3 3 3 3 3 3 3 3 3 3 3 3 3 3 3 3 3 3 3 3 3 3 3 3 3 3 3 3 3 3 3 3 3 3 3 3 3 3 3 3 3 3 3 3 3 3 3 3 3 3 3 3 3 3 3 3 3 3 3 3 3 3 3 3 3 3 3 3 3 3 3 3 3 3 3 3 3 1 3 1 3 3 3 3 3 3 3 3 3 3 3 3 3 3 3 3 3 3 3 3 3 3 3 3 3 3 3 3 3 3 3 3 3 3 3 3 3 3 1 3 1 3 3 3 1 3 3 3 3 3 3 3 3 3 3 3 3 3 3 3 3 3 3 3 3 3 3 3 3 3 3 3 3 3 3 3 3 3 3 3 3 3 3 3 3 3 3 3 3 3 3 3 3 3 3 3 3 3 3 3 3 3 3 3 3 3 3 3 3 3 3 3 3 3 3 3 3 3 3 3 3 3 3 3 3 3 3 3 3 3 3 3 3 3 3 3 3 3 3 3 3 3 3 3 3 3 3 3 3 3 3 3 3 3 3 3 3 3 3 3 3 3 3 3 3 3 3 3 3 3 3 3 3 3 3 3 3 3 3 3 3 3 3 3 3 3 3 3 3 3 3 3 3 3 3 3 3 3 3 3 3 3 3 3 3 3 3 3 3 3 3 3 3 3 3 3 3 3 3 3 3 3 3 3 3 3 3 3 3 3 3 3 3 3 3 3 3 3 3 3 3 3 3 3 3 3 3 3 3 3 3 3 3 3 3 3 3 3 3 3 3 3 3 3 3 3 3 3 3 3 3 3 3 3 3 3 3 3 3 3 3 3 3 3 3 3 3 3 3 3 3 3 3 3 3 3 3 3 3 3 3 3 3 3 3 3 3 3 3 3 3 3 3 3 3 3 3 3 3 3 3 3 3 3 3 3 3 3 3 3 3 3 3 3 3 3 3 3 3 3 3 3 3 3 3 3 3 3 3 3 3 3 3 3 3 3 3 3 3 3 3 3 3 3 3 3 3 3 3 3 3 3 3 1 3 1 1 3 3 3 3 1 3 3 3 3 3 3 3 3 3 3 3 3 3 3 3 3 3 3 3 3 3 3 3 3 3 3 3 3 3 3 3 3 3 3 3 3 3 3 3 3 3 3 3 1 3 1 3 3 3 3 3 3 3 3 3 1 3 1 3 3 3 1 3 3 1 3 3 3 3 3 3 3 3 3 3 3 3 3 3 3 1 3 3 3 3 3 1 3 1 3 3 3 3 1 3 3 3 3 3 3 3 1 1 3 1 3 3 3 3 3 3 3 1 3 3 3 3 3 1 3 1 3 3 3 3 3 1 3 1 3 3 3 3 3 3 3 3 3 3 3 3 3 3 3 3 3 3 3 3 3 3 3 1 1 1 1 3 1 3 3 3 1 3 3 3 3 3 3 3 3 3 3 3 3 3 3 3 3 3 3 3 3 3 3 3 3 3 3 3 3 3 3 3 3 3 3 3 3 3 3 3 3 3 </DataArray>
</CellData>
</Piece>
</UnstructuredGrid>
</VTKFile>