<?xml version="1.0"?>
<VTKFile type="UnstructuredGrid"  version="0.1"  >
<UnstructuredGrid>
<Piece  NumberOfPoints="137" NumberOfCells="946">
<Points>
<DataArray  type="Float64"  NumberOfComponents="3"  format="ascii">40 20 40  40 20 35  40 15 35  35 15 35  40 10 40  40 15 40  30 10 40  35 15 40  35 10 40  35 10 35  35 20 35  30 15 40  30 15 35  30 20 40  35 20 40  45 15 40  45 15 35  45 20 40  50 20 40  45 20 35  40 25 40  40 25 35  35 25 35  35 25 40  30 25 40  30 25 35  45 25 40  45 25 35  50 25 40  50 30 40  35 15 45  40 15 45  40 20 45  40 20 50  35 20 45  45 15 45  45 20 45  50 20 45  50 20 50  45 20 50  35 25 45  40 25 45  40 25 50  45 25 45  50 25 45  50 30 45  50 30 50  50 25 50  45 25 50  30 0 30  35 5 35  35 0 35  30 0 35  30 0 40  35 5 40  35 0 40  40 0 40  40 5 40  30 5 35  30 5 40  45 5 40  45 0 40  45 5 35  50 0 40  50 5 40  50 10 40  45 10 40  50 15 40  35 5 45  40 5 45  40 10 45  40 10 50  35 0 45  40 0 45  40 0 50  40 5 50  30 0 45  30 0 50  35 5 50  35 0 50  35 10 45  30 5 45  30 5 50  30 10 50  35 10 50  30 10 45  45 5 45  50 5 45  50 10 45  50 10 50  45 0 45  50 0 45  50 0 50  50 5 50  45 5 50  45 0 50  45 10 45  45 10 50  40 15 50  35 15 50  30 15 45  30 15 50  30 20 50  35 20 50  30 20 45  50 15 45  50 15 50  45 15 50  35 25 50  30 25 45  30 25 50  25 5 35  25 0 35  25 5 40  25 0 40  20 10 40  25 10 40  25 10 35  25 15 35  25 15 40  25 25 35  25 25 40  25 5 45  25 0 45  25 5 50  25 0 50  25 10 45  20 10 50  25 10 50  20 10 45  25 15 45  25 15 50  25 20 45  20 20 50  25 20 50  25 25 45  25 25 50  </DataArray>
</Points>
<Cells>
<DataArray  type="UInt32"  Name="connectivity"  format="ascii">0 2 1  0 3 1  0 1 10  0 16 1  0 1 19  0 1 21  0 1 22  0 1 27  0 3 2  0 2 5  0 2 16  0 3 5  0 3 7  0 3 10  0 3 14  0 5 7  0 5 15  0 16 5  0 5 30  0 5 31  0 5 35  0 7 14  0 7 30  0 10 14  0 10 22  0 14 22  0 14 23  0 14 30  0 14 34  0 14 40  0 16 15  0 17 15  0 15 35  0 16 17  0 16 19  0 19 17  0 17 26  0 27 17  0 17 35  0 17 36  0 17 43  0 19 27  0 21 20  0 20 22  0 20 23  0 20 26  0 27 20  0 20 40  0 20 41  0 20 43  0 21 22  0 21 27  0 22 23  0 23 40  0 27 26  0 26 43  0 31 30  0 32 30  0 30 34  0 32 31  0 31 35  0 32 34  0 32 35  0 32 36  0 32 40  0 32 41  0 32 43  0 34 40  0 36 35  0 36 43  0 41 40  0 41 43  3 2 1  2 16 1  3 1 10  1 10 22  16 1 19  1 19 27  1 21 22  1 21 27  4 3 2  3 2 5  4 2 5  4 2 16  2 16 5  4 3 5  4 3 7  4 3 8  4 3 9  3 5 7  6 3 7  6 3 8  6 3 9  6 3 11  6 3 12  3 7 8  3 7 11  13 3 7  3 7 14  3 9 8  13 3 10  3 10 14  3 12 11  13 3 11  13 3 12  13 3 14  4 5 7  4 5 15  4 16 5  4 5 30  4 5 31  4 5 35  4 7 8  4 7 30  4 9 8  4 8 30  4 8 50  4 8 54  4 8 68  4 8 80  4 9 50  4 16 15  4 15 35  4 15 66  4 16 66  4 31 30  4 30 70  4 30 80  4 31 35  4 31 70  4 35 66  4 35 70  4 35 96  4 50 54  4 50 57  4 57 54  4 54 68  4 57 60  4 62 57  4 57 68  4 57 69  4 57 86  4 62 60  4 66 60  4 60 86  4 62 66  4 66 86  4 66 96  4 69 68  4 70 68  4 68 80  4 70 69  4 69 86  4 70 80  4 70 86  4 70 96  4 96 86  5 7 30  16 5 15  5 15 35  5 31 30  5 31 35  6 7 8  6 7 11  6 7 30  6 9 8  6 8 30  6 8 50  6 8 54  6 8 68  6 8 80  6 9 50  6 12 11  6 11 30  6 11 100  6 11 118  6 11 119  6 11 130  6 12 118  6 30 80  6 30 85  6 30 100  6 50 54  6 50 58  6 50 59  6 54 59  6 54 68  6 58 59  6 58 111  6 59 68  6 59 81  6 59 111  6 59 113  6 59 122  6 68 80  6 68 81  6 68 85  6 80 85  6 81 85  6 81 122  6 85 100  6 85 122  6 85 126  6 85 130  6 100 130  6 111 113  6 111 116  6 111 117  6 116 113  6 113 122  6 117 116  6 118 116  6 116 119  6 116 122  6 116 126  6 116 130  6 117 118  6 118 119  6 119 130  6 126 122  6 126 130  7 8 30  13 7 11  7 11 30  13 7 14  13 7 30  7 14 30  9 8 50  8 30 80  8 50 54  8 54 68  8 68 80  13 10 14  13 10 22  10 14 22  13 12 11  12 11 118  13 11 30  13 11 100  13 11 118  13 11 119  13 11 130  11 30 100  11 100 130  11 118 119  11 119 130  13 12 118  13 14 22  13 14 23  13 14 30  13 14 34  13 14 40  13 22 23  13 22 24  13 22 25  13 23 24  13 23 40  13 25 24  13 24 40  13 24 109  13 24 120  13 24 121  13 24 135  13 25 120  13 30 34  13 30 100  13 30 104  13 34 40  13 34 104  13 40 104  13 40 109  13 100 104  13 100 130  13 104 109  13 104 130  13 104 132  13 104 135  13 109 135  13 118 119  13 119 130  13 120 121  13 121 135  13 130 132  13 132 135  14 22 23  14 23 40  14 30 34  14 34 40  16 17 15  18 16 15  65 16 15  16 15 66  16 15 67  18 17 15  17 15 35  18 15 35  18 15 67  65 15 35  15 35 66  15 35 67  65 15 66  65 15 67  18 16 17  16 19 17  18 16 19  18 16 67  65 16 66  65 16 67  18 19 17  18 17 26  18 27 17  18 17 35  18 17 36  18 17 43  19 27 17  27 17 26  17 26 43  17 36 35  17 36 43  18 19 27  18 27 26  18 26 28  18 26 43  18 27 28  18 43 28  18 28 44  18 36 35  18 35 37  18 35 67  18 35 105  18 36 37  18 36 43  18 43 37  18 37 44  18 37 105  18 43 44  18 67 105  21 20 22  21 27 20  20 22 23  20 23 40  27 20 26  20 26 43  20 41 40  20 41 43  22 23 24  22 25 24  23 24 40  25 24 120  24 40 109  24 109 135  24 120 121  24 121 135  27 26 28  29 27 26  29 26 28  26 43 28  29 26 43  29 27 28  29 43 28  29 28 44  43 28 44  29 43 44  29 43 45  29 44 45  32 31 30  33 31 30  31 30 70  71 31 30  31 30 98  33 32 30  32 30 34  33 30 34  33 30 98  33 30 99  33 30 103  102 30 34  30 34 103  30 34 104  71 30 70  30 70 80  71 30 80  71 30 84  71 30 98  71 30 99  83 30 80  30 80 84  30 80 85  83 30 84  83 30 85  83 30 99  83 30 100  83 30 101  30 84 99  30 85 100  30 98 99  30 99 101  102 30 99  30 99 103  30 100 101  102 30 100  30 100 104  102 30 101  102 30 103  102 30 104  33 32 31  32 31 35  33 31 35  33 31 98  31 35 70  71 31 35  31 35 98  71 31 70  71 31 98  33 32 34  33 32 35  33 32 36  33 32 40  33 32 41  33 32 43  32 34 40  32 36 35  32 36 43  32 41 40  32 41 43  33 34 40  33 34 103  33 36 35  33 35 39  33 35 98  33 35 107  33 36 39  33 36 43  33 43 39  33 39 48  33 39 107  33 41 40  33 40 42  33 40 103  33 40 108  33 41 42  33 41 43  33 43 42  33 42 48  33 42 108  33 43 48  33 98 99  33 98 107  33 99 103  33 103 108  102 34 40  34 40 103  34 40 104  102 34 103  102 34 104  36 35 37  38 36 35  36 35 39  38 35 37  35 37 105  38 35 39  38 35 105  38 35 106  38 35 107  35 39 107  65 35 66  65 35 67  65 35 88  65 35 96  65 35 105  35 66 96  35 67 105  71 35 70  35 70 96  71 35 96  71 35 97  71 35 98  71 35 107  89 35 88  35 96 88  35 88 105  89 35 96  89 35 97  89 35 105  89 35 106  89 35 107  35 96 97  35 97 107  35 98 107  35 105 106  35 107 106  38 36 37  36 43 37  38 36 39  38 36 43  36 43 39  38 43 37  38 37 44  38 37 105  43 37 44  38 43 39  38 39 48  38 39 107  38 43 44  38 43 47  38 43 48  38 44 47  38 48 47  38 105 106  38 107 106  43 39 48  41 40 42  40 42 108  102 40 103  102 40 104  102 40 108  102 40 109  102 40 110  40 103 108  40 104 109  40 108 110  40 110 109  41 43 42  43 42 48  43 44 45  46 43 44  43 44 47  46 43 45  46 43 47  46 43 48  43 48 47  46 44 45  46 44 47  46 48 47  49 50 51  49 50 52  49 50 58  49 51 52  49 52 58  49 52 111  49 52 112  49 58 111  49 111 112  50 51 52  53 50 51  50 51 55  56 50 51  53 50 52  50 52 58  53 50 54  53 50 55  53 50 58  53 50 59  50 54 55  56 50 54  50 57 54  50 54 59  56 50 55  56 50 57  50 58 59  53 51 52  53 51 55  56 51 55  53 52 58  53 52 111  53 52 112  52 58 111  52 111 112  53 54 55  53 54 59  53 54 68  53 55 68  53 55 72  53 58 59  53 58 111  53 59 68  53 59 81  53 59 111  53 59 113  53 59 122  53 68 72  53 68 76  53 68 81  53 72 76  53 76 81  53 76 122  53 76 123  53 81 122  53 111 112  53 111 113  53 111 114  53 112 114  53 113 114  53 113 122  53 114 122  53 114 123  53 122 123  56 54 55  54 55 68  56 57 54  56 54 68  57 54 68  54 59 68  56 55 68  56 55 72  55 68 72  56 57 60  56 62 57  56 57 68  56 57 69  56 57 86  56 60 61  56 62 60  56 60 86  56 62 61  56 61 86  56 61 90  56 69 68  56 68 72  56 73 68  56 69 73  56 69 86  56 73 72  56 73 86  56 73 90  56 86 90  62 57 60  57 60 86  57 69 68  57 69 86  58 59 111  59 68 81  59 81 122  59 111 113  59 113 122  62 60 61  63 60 61  60 61 86  63 62 60  62 60 64  65 62 60  62 66 60  63 60 64  63 60 86  65 60 64  60 86 64  65 66 60  65 60 86  66 60 86  63 62 61  63 61 86  63 61 90  61 86 90  63 62 64  65 62 64  65 62 66  63 86 64  63 64 87  63 86 87  63 86 90  63 86 91  63 87 91  63 90 91  65 86 64  65 64 87  86 64 87  65 66 86  65 66 96  65 67 105  65 86 87  65 86 88  65 96 86  65 88 87  65 96 88  65 88 105  66 96 86  70 69 68  71 69 68  69 73 68  74 69 68  69 68 75  71 70 68  70 68 80  71 68 75  71 68 78  71 68 80  71 68 84  73 68 72  74 68 72  68 72 76  77 68 72  68 72 79  74 73 68  74 68 75  74 68 78  74 68 79  68 75 78  77 68 76  68 76 81  77 68 78  77 68 79  77 68 81  77 68 82  68 78 79  68 78 82  83 68 78  68 78 84  83 68 80  68 80 84  68 80 85  68 81 82  83 68 81  68 81 85  83 68 82  83 68 84  83 68 85  71 70 69  70 69 86  71 69 75  71 69 86  74 69 73  69 73 86  74 69 75  74 69 86  69 86 75  71 70 80  71 70 86  71 70 96  70 96 86  71 75 78  71 86 75  71 75 94  71 78 84  71 80 84  71 84 99  71 86 94  71 96 86  71 86 97  71 97 94  71 96 97  71 97 107  71 98 99  71 98 107  74 73 72  74 72 79  77 72 76  77 72 79  74 73 86  74 73 90  73 86 90  74 75 78  74 86 75  74 75 94  74 78 79  74 86 90  74 86 94  74 86 95  74 90 95  74 94 95  86 75 94  77 76 81  77 76 122  77 76 123  76 81 122  76 122 123  77 78 79  77 78 82  77 81 82  77 81 122  77 82 122  77 82 124  77 122 123  77 122 124  77 122 125  77 123 125  77 124 125  83 78 82  83 78 84  83 80 84  83 80 85  83 81 82  81 82 122  83 81 85  83 81 122  81 85 122  83 82 122  83 82 124  82 122 124  83 84 99  83 85 100  83 85 122  83 85 126  83 85 130  83 99 101  83 100 101  83 100 130  83 101 130  83 101 131  83 122 124  83 126 122  83 122 128  83 128 124  83 126 128  83 126 130  83 130 128  83 128 131  83 130 131  85 100 130  85 126 122  85 126 130  86 88 87  89 86 87  86 87 91  92 86 87  86 87 93  89 86 88  96 86 88  89 86 93  89 86 94  89 96 86  89 86 97  86 90 91  92 86 90  86 90 95  92 86 91  92 86 93  92 86 94  92 86 95  86 94 93  86 94 95  86 97 94  96 86 97  89 88 87  89 87 93  92 87 91  92 87 93  89 96 88  89 88 105  89 94 93  89 97 94  89 96 97  89 97 107  89 105 106  89 107 106  92 90 91  92 90 95  92 94 93  92 94 95  102 99 101  102 99 103  102 100 101  100 101 130  102 100 104  102 100 130  100 104 130  102 101 130  102 101 131  101 130 131  102 103 108  102 104 109  102 104 130  102 104 132  102 104 135  102 108 110  102 110 109  102 109 135  102 110 135  102 110 136  102 130 131  102 130 132  102 130 134  102 131 134  102 132 134  102 132 135  102 135 134  102 134 136  102 135 136  104 109 135  104 130 132  104 132 135  110 109 135  110 135 136  111 112 114  111 113 114  115 111 113  111 116 113  115 111 116  115 111 117  111 117 116  113 114 122  115 116 113  115 113 122  116 113 122  114 122 123  115 117 116  115 118 116  115 116 119  115 116 122  115 116 126  115 116 130  115 117 118  115 118 119  115 119 130  115 126 122  115 129 122  115 129 126  115 126 130  115 129 130  117 118 116  118 116 119  116 119 130  116 126 122  116 126 130  122 123 125  122 124 125  127 122 124  122 128 124  127 126 122  126 122 128  129 126 122  127 122 128  127 129 122  127 128 124  127 126 128  127 129 126  127 126 130  126 130 128  129 126 130  127 130 128  127 128 131  127 129 130  127 130 131  130 128 131  133 130 131  130 131 134  133 130 132  130 132 134  133 130 134  133 131 134  133 132 134  133 132 135  132 135 134  133 135 134  133 134 136  133 135 136  135 134 136  </DataArray>
<DataArray  type="UInt32"  Name="offsets"  format="ascii">3 6 9 12 15 18 21 24 27 30 33 36 39 42 45 48 51 54 57 60 63 66 69 72 75 78 81 84 87 90 93 96 99 102 105 108 111 114 117 120 123 126 129 132 135 138 141 144 147 150 153 156 159 162 165 168 171 174 177 180 183 186 189 192 195 198 201 204 207 210 213 216 219 222 225 228 231 234 237 240 243 246 249 252 255 258 261 264 267 270 273 276 279 282 285 288 291 294 297 300 303 306 309 312 315 318 321 324 327 330 333 336 339 342 345 348 351 354 357 360 363 366 369 372 375 378 381 384 387 390 393 396 399 402 405 408 411 414 417 420 423 426 429 432 435 438 441 444 447 450 453 456 459 462 465 468 471 474 477 480 483 486 489 492 495 498 501 504 507 510 513 516 519 522 525 528 531 534 537 540 543 546 549 552 555 558 561 564 567 570 573 576 579 582 585 588 591 594 597 600 603 606 609 612 615 618 621 624 627 630 633 636 639 642 645 648 651 654 657 660 663 666 669 672 675 678 681 684 687 690 693 696 699 702 705 708 711 714 717 720 723 726 729 732 735 738 741 744 747 750 753 756 759 762 765 768 771 774 777 780 783 786 789 792 795 798 801 804 807 810 813 816 819 822 825 828 831 834 837 840 843 846 849 852 855 858 861 864 867 870 873 876 879 882 885 888 891 894 897 900 903 906 909 912 915 918 921 924 927 930 933 936 939 942 945 948 951 954 957 960 963 966 969 972 975 978 981 984 987 990 993 996 999 1002 1005 1008 1011 1014 1017 1020 1023 1026 1029 1032 1035 1038 1041 1044 1047 1050 1053 1056 1059 1062 1065 1068 1071 1074 1077 1080 1083 1086 1089 1092 1095 1098 1101 1104 1107 1110 1113 1116 1119 1122 1125 1128 1131 1134 1137 1140 1143 1146 1149 1152 1155 1158 1161 1164 1167 1170 1173 1176 1179 1182 1185 1188 1191 1194 1197 1200 1203 1206 1209 1212 1215 1218 1221 1224 1227 1230 1233 1236 1239 1242 1245 1248 1251 1254 1257 1260 1263 1266 1269 1272 1275 1278 1281 1284 1287 1290 1293 1296 1299 1302 1305 1308 1311 1314 1317 1320 1323 1326 1329 1332 1335 1338 1341 1344 1347 1350 1353 1356 1359 1362 1365 1368 1371 1374 1377 1380 1383 1386 1389 1392 1395 1398 1401 1404 1407 1410 1413 1416 1419 1422 1425 1428 1431 1434 1437 1440 1443 1446 1449 1452 1455 1458 1461 1464 1467 1470 1473 1476 1479 1482 1485 1488 1491 1494 1497 1500 1503 1506 1509 1512 1515 1518 1521 1524 1527 1530 1533 1536 1539 1542 1545 1548 1551 1554 1557 1560 1563 1566 1569 1572 1575 1578 1581 1584 1587 1590 1593 1596 1599 1602 1605 1608 1611 1614 1617 1620 1623 1626 1629 1632 1635 1638 1641 1644 1647 1650 1653 1656 1659 1662 1665 1668 1671 1674 1677 1680 1683 1686 1689 1692 1695 1698 1701 1704 1707 1710 1713 1716 1719 1722 1725 1728 1731 1734 1737 1740 1743 1746 1749 1752 1755 1758 1761 1764 1767 1770 1773 1776 1779 1782 1785 1788 1791 1794 1797 1800 1803 1806 1809 1812 1815 1818 1821 1824 1827 1830 1833 1836 1839 1842 1845 1848 1851 1854 1857 1860 1863 1866 1869 1872 1875 1878 1881 1884 1887 1890 1893 1896 1899 1902 1905 1908 1911 1914 1917 1920 1923 1926 1929 1932 1935 1938 1941 1944 1947 1950 1953 1956 1959 1962 1965 1968 1971 1974 1977 1980 1983 1986 1989 1992 1995 1998 2001 2004 2007 2010 2013 2016 2019 2022 2025 2028 2031 2034 2037 2040 2043 2046 2049 2052 2055 2058 2061 2064 2067 2070 2073 2076 2079 2082 2085 2088 2091 2094 2097 2100 2103 2106 2109 2112 2115 2118 2121 2124 2127 2130 2133 2136 2139 2142 2145 2148 2151 2154 2157 2160 2163 2166 2169 2172 2175 2178 2181 2184 2187 2190 2193 2196 2199 2202 2205 2208 2211 2214 2217 2220 2223 2226 2229 2232 2235 2238 2241 2244 2247 2250 2253 2256 2259 2262 2265 2268 2271 2274 2277 2280 2283 2286 2289 2292 2295 2298 2301 2304 2307 2310 2313 2316 2319 2322 2325 2328 2331 2334 2337 2340 2343 2346 2349 2352 2355 2358 2361 2364 2367 2370 2373 2376 2379 2382 2385 2388 2391 2394 2397 2400 2403 2406 2409 2412 2415 2418 2421 2424 2427 2430 2433 2436 2439 2442 2445 2448 2451 2454 2457 2460 2463 2466 2469 2472 2475 2478 2481 2484 2487 2490 2493 2496 2499 2502 2505 2508 2511 2514 2517 2520 2523 2526 2529 2532 2535 2538 2541 2544 2547 2550 2553 2556 2559 2562 2565 2568 2571 2574 2577 2580 2583 2586 2589 2592 2595 2598 2601 2604 2607 2610 2613 2616 2619 2622 2625 2628 2631 2634 2637 2640 2643 2646 2649 2652 2655 2658 2661 2664 2667 2670 2673 2676 2679 2682 2685 2688 2691 2694 2697 2700 2703 2706 2709 2712 2715 2718 2721 2724 2727 2730 2733 2736 2739 2742 2745 2748 2751 2754 2757 2760 2763 2766 2769 2772 2775 2778 2781 2784 2787 2790 2793 2796 2799 2802 2805 2808 2811 2814 2817 2820 2823 2826 2829 2832 2835 2838 </DataArray>
<DataArray  type="UInt8"  Name="types"  format="ascii">5 5 5 5 5 5 5 5 5 5 5 5 5 5 5 5 5 5 5 5 5 5 5 5 5 5 5 5 5 5 5 5 5 5 5 5 5 5 5 5 5 5 5 5 5 5 5 5 5 5 5 5 5 5 5 5 5 5 5 5 5 5 5 5 5 5 5 5 5 5 5 5 5 5 5 5 5 5 5 5 5 5 5 5 5 5 5 5 5 5 5 5 5 5 5 5 5 5 5 5 5 5 5 5 5 5 5 5 5 5 5 5 5 5 5 5 5 5 5 5 5 5 5 5 5 5 5 5 5 5 5 5 5 5 5 5 5 5 5 5 5 5 5 5 5 5 5 5 5 5 5 5 5 5 5 5 5 5 5 5 5 5 5 5 5 5 5 5 5 5 5 5 5 5 5 5 5 5 5 5 5 5 5 5 5 5 5 5 5 5 5 5 5 5 5 5 5 5 5 5 5 5 5 5 5 5 5 5 5 5 5 5 5 5 5 5 5 5 5 5 5 5 5 5 5 5 5 5 5 5 5 5 5 5 5 5 5 5 5 5 5 5 5 5 5 5 5 5 5 5 5 5 5 5 5 5 5 5 5 5 5 5 5 5 5 5 5 5 5 5 5 5 5 5 5 5 5 5 5 5 5 5 5 5 5 5 5 5 5 5 5 5 5 5 5 5 5 5 5 5 5 5 5 5 5 5 5 5 5 5 5 5 5 5 5 5 5 5 5 5 5 5 5 5 5 5 5 5 5 5 5 5 5 5 5 5 5 5 5 5 5 5 5 5 5 5 5 5 5 5 5 5 5 5 5 5 5 5 5 5 5 5 5 5 5 5 5 5 5 5 5 5 5 5 5 5 5 5 5 5 5 5 5 5 5 5 5 5 5 5 5 5 5 5 5 5 5 5 5 5 5 5 5 5 5 5 5 5 5 5 5 5 5 5 5 5 5 5 5 5 5 5 5 5 5 5 5 5 5 5 5 5 5 5 5 5 5 5 5 5 5 5 5 5 5 5 5 5 5 5 5 5 5 5 5 5 5 5 5 5 5 5 5 5 5 5 5 5 5 5 5 5 5 5 5 5 5 5 5 5 5 5 5 5 5 5 5 5 5 5 5 5 5 5 5 5 5 5 5 5 5 5 5 5 5 5 5 5 5 5 5 5 5 5 5 5 5 5 5 5 5 5 5 5 5 5 5 5 5 5 5 5 5 5 5 5 5 5 5 5 5 5 5 5 5 5 5 5 5 5 5 5 5 5 5 5 5 5 5 5 5 5 5 5 5 5 5 5 5 5 5 5 5 5 5 5 5 5 5 5 5 5 5 5 5 5 5 5 5 5 5 5 5 5 5 5 5 5 5 5 5 5 5 5 5 5 5 5 5 5 5 5 5 5 5 5 5 5 5 5 5 5 5 5 5 5 5 5 5 5 5 5 5 5 5 5 5 5 5 5 5 5 5 5 5 5 5 5 5 5 5 5 5 5 5 5 5 5 5 5 5 5 5 5 5 5 5 5 5 5 5 5 5 5 5 5 5 5 5 5 5 5 5 5 5 5 5 5 5 5 5 5 5 5 5 5 5 5 5 5 5 5 5 5 5 5 5 5 5 5 5 5 5 5 5 5 5 5 5 5 5 5 5 5 5 5 5 5 5 5 5 5 5 5 5 5 5 5 5 5 5 5 5 5 5 5 5 5 5 5 5 5 5 5 5 5 5 5 5 5 5 5 5 5 5 5 5 5 5 5 5 5 5 5 5 5 5 5 5 5 5 5 5 5 5 5 5 5 5 5 5 5 5 5 5 5 5 5 5 5 5 5 5 5 5 5 5 5 5 5 5 5 5 5 5 5 5 5 5 5 5 5 5 5 5 5 5 5 5 5 5 5 5 5 5 5 5 5 5 5 5 5 5 5 5 5 5 5 5 5 5 5 5 5 5 5 5 5 5 5 5 5 5 5 5 5 5 5 5 5 5 5 5 5 5 5 5 5 5 5 5 5 5 5 5 5 5 5 5 5 5 5 5 5 5 5 5 5 5 5 5 5 5 5 5 5 5 5 5 5 5 5 5 5 5 5 5 5 5 5 5 5 5 5 5 5 5 5 5 5 5 5 5 5 5 5 5 5 5 5 5 5 5 5 5 5 </DataArray>
</Cells>
<CellData  Scalars="f">
<DataArray  type="Float64"  Name="f"  format="ascii">3 3 3 3 3 3 3 3 3 3 3 3 3 3 3 3 3 3 3 3 3 3 3 3 3 3 3 3 3 3 3 3 3 3 3 3 3 3 3 3 3 3 3 3 3 3 3 3 3 3 3 3 3 3 3 3 3 3 3 3 3 3 3 3 3 3 3 3 3 3 3 3 3 3 3 3 3 3 3 3 3 3 3 3 3 3 3 3 3 3 3 3 3 3 3 3 3 3 3 3 3 3 3 3 3 3 3 3 3 3 3 3 3 3 3 3 3 3 3 3 3 3 3 3 3 3 3 3 3 3 3 3 3 3 3 3 3 3 3 3 3 3 3 3 3 3 3 3 3 3 3 3 3 3 3 3 3 3 3 3 3 3 3 3 3 3 3 3 3 3 3 3 3 3 3 3 3 3 3 3 3 3 3 3 3 3 3 3 3 3 3 3 3 3 3 3 3 3 3 3 3 3 3 3 3 3 3 3 3 3 3 3 3 3 3 3 3 3 3 3 3 3 3 3 3 3 3 3 3 3 3 3 3 3 3 3 3 3 3 3 3 3 3 3 3 3 3 3 3 3 3 3 3 3 3 3 3 3 3 3 3 3 3 3 3 3 3 3 3 3 3 3 3 3 3 3 3 3 3 3 3 3 3 3 3 3 3 3 3 3 3 3 3 3 3 3 3 3 3 3 3 3 3 3 3 3 3 3 3 3 3 3 3 3 3 3 3 3 3 3 3 3 3 3 3 2 3 3 3 3 3 3 3 2 2 3 2 3 3 3 3 3 3 3 3 3 3 3 3 3 3 3 3 3 3 3 3 3 3 3 2 3 3 3 2 3 3 3 3 3 3 3 3 3 3 3 3 3 3 3 3 3 3 3 3 3 3 3 3 3 3 3 3 3 3 3 3 3 3 3 3 3 3 3 3 3 3 3 3 3 3 3 3 3 3 3 3 3 3 3 3 3 3 3 3 3 3 3 3 3 3 3 3 3 3 3 3 3 3 3 3 3 3 3 3 3 3 3 3 3 3 3 3 3 3 3 3 3 3 3 3 3 3 3 3 3 3 3 3 3 3 3 3 3 3 3 3 3 3 3 3 3 3 3 3 3 3 3 3 3 3 3 3 3 3 3 3 2 2 3 3 3 3 3 3 3 2 3 2 3 3 3 3 3 3 3 3 3 3 3 3 3 3 3 3 3 3 3 3 3 3 2 2 3 3 3 3 3 3 3 3 3 3 3 3 3 3 3 3 3 3 3 3 3 3 3 3 3 3 3 3 3 3 3 3 3 3 3 3 3 3 3 3 3 3 3 3 3 3 3 3 3 3 3 3 3 3 3 3 3 3 3 3 3 3 3 3 3 3 3 3 3 3 3 3 3 3 3 3 3 3 3 3 3 3 3 3 3 3 3 3 3 3 3 3 3 3 3 3 3 3 3 3 3 3 3 3 3 3 3 3 3 3 3 3 3 3 3 3 3 3 3 3 3 3 3 3 2 3 3 3 2 3 3 2 3 3 3 2 3 3 3 2 3 2 3 3 3 3 3 3 3 3 3 3 3 3 3 3 3 3 3 3 3 3 3 3 3 3 3 3 3 3 3 3 3 3 3 3 3 3 3 3 3 3 3 3 3 3 3 3 3 3 3 3 3 3 3 3 3 3 3 3 3 3 3 3 3 3 3 3 3 3 3 3 3 3 3 3 3 3 3 3 3 3 3 3 3 3 3 3 3 3 3 3 3 3 3 3 3 3 3 3 3 3 3 3 3 3 3 3 3 3 3 3 3 3 3 3 3 3 3 3 3 3 3 3 3 3 3 3 3 3 3 3 3 3 3 3 3 3 3 3 3 3 3 3 3 3 3 3 3 3 3 3 3 3 3 3 3 3 3 2 2 2 2 3 2 3 3 3 3 2 3 3 3 3 3 3 3 3 3 3 3 3 3 3 3 3 3 3 3 3 3 3 3 3 3 3 3 3 3 3 3 3 3 3 3 3 3 3 3 3 3 3 3 3 3 3 3 3 3 3 3 3 3 3 3 3 3 3 3 3 3 3 3 3 3 3 3 3 3 3 3 3 3 3 3 3 3 3 3 3 3 3 3 3 3 3 3 3 3 3 3 3 3 3 3 3 3 3 3 3 3 3 3 </DataArray>
</CellData>
</Piece>
</UnstructuredGrid>
</VTKFile>