<?xml version="1.0"?>
<VTKFile type="UnstructuredGrid"  version="0.1"  >
<UnstructuredGrid>
<Piece  NumberOfPoints="129" NumberOfCells="912">
<Points>
<DataArray  type="Float64"  NumberOfComponents="3"  format="ascii">40 40 30  40 40 35  40 35 35  35 35 35  40 40 40  35 40 35  30 40 40  35 40 40  50 40 30  50 40 35  50 35 35  45 35 35  50 40 40  45 40 35  45 40 30  45 40 40  40 45 35  40 45 30  35 45 35  40 50 30  40 50 35  40 50 40  40 45 40  35 45 40  35 50 35  30 45 40  30 45 35  30 50 40  35 50 40  30 50 30  30 50 35  50 50 30  50 50 35  50 45 35  45 45 35  50 50 40  50 45 40  45 45 40  45 50 35  45 50 30  45 50 40  35 45 45  40 45 45  40 50 45  40 50 50  35 50 45  30 45 45  30 50 45  30 50 50  35 50 50  45 45 45  50 45 45  50 50 45  50 50 50  45 50 45  45 50 50  40 30 40  40 30 35  40 25 35  35 25 35  40 25 40  35 25 40  35 30 35  30 30 40  35 30 40  30 25 40  50 30 40  50 30 35  45 30 35  45 25 35  45 30 40  45 25 40  40 35 40  35 35 40  50 35 40  45 35 40  40 30 45  40 25 45  35 25 45  40 30 50  40 25 50  35 30 45  45 30 45  45 25 45  50 30 45  50 30 50  45 30 50  45 25 50  35 35 45  40 35 45  40 40 45  40 40 50  40 35 50  45 35 45  50 35 45  50 40 45  50 40 50  50 35 50  45 35 50  45 40 45  45 40 50  30 35 40  35 25 50  30 30 50  35 30 50  30 25 50  30 25 45  30 30 45  35 35 50  35 40 45  30 35 45  30 35 50  30 40 50  35 40 50  30 40 45  40 45 50  35 45 50  30 45 50  50 45 50  45 45 50  25 45 35  25 45 40  25 50 35  25 35 45  25 40 45  25 45 45  25 45 50  25 50 45  25 25 45  </DataArray>
</Points>
<Cells>
<DataArray  type="UInt32"  Name="connectivity"  format="ascii">0 1 2  0 1 3  0 1 5  0 1 11  0 1 13  0 1 16  0 1 18  0 1 34  0 2 3  0 2 11  0 3 5  0 5 18  0 13 11  0 14 11  0 14 13  0 13 34  0 14 34  0 17 16  0 16 18  0 16 34  0 17 18  0 17 34  1 2 3  4 1 2  1 2 11  4 1 3  1 3 5  4 1 5  4 1 11  4 1 13  4 1 16  4 1 18  4 1 34  1 5 18  1 13 11  1 13 34  1 16 18  1 16 34  4 2 3  56 2 3  2 3 57  2 3 72  4 2 11  4 2 72  56 2 11  2 11 57  2 11 72  56 2 57  56 2 72  4 3 5  4 3 7  4 3 72  4 3 73  6 3 5  3 5 7  6 3 7  6 3 73  6 3 101  3 7 73  56 3 57  56 3 62  56 3 64  56 3 72  56 3 73  3 57 62  63 3 62  3 62 64  63 3 64  63 3 73  63 3 101  3 64 73  3 72 73  3 73 101  4 5 7  4 5 18  4 18 7  4 7 23  4 7 41  4 7 73  4 7 88  4 7 109  4 13 11  4 11 15  4 11 72  4 11 75  4 13 15  4 13 34  4 34 15  4 15 37  4 15 50  4 15 75  4 15 93  4 15 99  4 16 18  4 16 22  4 16 34  4 18 22  4 18 23  4 22 23  4 34 22  4 22 37  4 22 41  4 22 42  4 22 50  4 23 41  4 34 37  4 37 50  4 42 41  4 41 90  4 41 109  4 42 50  4 42 90  4 50 90  4 50 99  4 72 73  4 72 75  4 72 88  4 72 89  4 72 93  4 73 88  4 75 93  4 89 88  4 88 90  4 88 109  4 89 90  4 89 93  4 93 90  4 90 99  4 90 109  4 93 99  6 5 7  6 5 18  5 18 7  6 18 7  6 7 23  6 7 41  6 7 73  6 7 88  6 7 109  6 18 23  6 18 25  6 18 26  6 23 25  6 23 41  6 26 25  6 25 41  6 25 46  6 25 120  6 25 121  6 25 125  6 26 120  6 41 46  6 41 109  6 41 114  6 46 114  6 46 125  6 73 88  6 73 101  6 88 101  6 88 109  6 88 110  6 88 114  6 101 110  6 101 123  6 109 114  6 110 114  6 110 123  6 114 123  6 114 124  6 114 125  6 120 121  6 121 125  6 123 124  6 124 125  18 7 23  7 23 41  7 41 109  7 73 88  7 88 109  8 9 10  8 11 9  8 13 9  8 9 33  8 34 9  8 11 10  8 13 11  8 14 11  8 14 13  8 13 34  8 14 34  8 34 33  11 9 10  12 9 10  12 11 9  13 11 9  12 13 9  12 9 33  12 34 9  13 34 9  34 9 33  12 11 10  66 11 10  11 10 67  11 10 74  12 10 74  66 10 67  66 10 74  12 13 11  12 11 15  12 11 74  12 11 75  14 13 11  13 11 15  11 15 75  56 11 57  56 11 68  56 11 70  56 11 72  56 11 75  11 57 68  66 11 67  66 11 68  66 11 70  66 11 74  66 11 75  11 68 67  11 68 70  11 70 75  11 72 75  11 75 74  12 13 15  12 13 34  12 34 15  12 15 37  12 15 50  12 15 75  12 15 93  12 15 99  12 34 33  12 33 36  12 34 36  12 34 37  12 37 36  12 50 36  12 36 51  12 37 50  12 50 51  12 50 95  12 50 99  12 51 95  12 75 74  12 93 74  12 74 94  12 75 93  12 93 94  12 93 95  12 93 99  12 94 95  12 99 95  14 13 34  13 34 15  34 15 37  15 37 50  15 50 99  15 75 93  15 93 99  17 16 18  19 17 16  17 16 34  19 16 18  16 18 20  21 16 18  16 18 22  19 16 20  19 16 34  21 16 20  16 34 20  21 16 22  21 16 34  16 34 22  19 17 18  19 17 34  19 18 20  19 18 24  21 18 20  18 20 24  21 18 22  21 18 23  21 18 24  21 18 28  18 22 23  18 23 25  27 18 23  18 23 28  27 18 24  18 24 28  29 18 24  18 24 30  18 26 25  27 18 25  27 18 26  29 18 26  18 26 30  27 18 28  27 18 30  29 18 30  19 20 24  19 34 20  19 20 38  19 34 38  19 34 39  19 39 38  21 20 24  21 34 20  21 20 38  34 20 38  21 22 23  21 34 22  21 22 37  21 22 41  21 22 42  21 22 50  21 23 28  21 23 41  21 24 28  21 41 28  21 28 45  21 34 37  21 34 38  21 34 40  21 37 40  21 37 50  21 38 40  21 50 40  21 40 54  21 42 41  21 41 43  21 41 45  21 42 43  21 42 50  21 43 45  21 50 43  21 43 54  21 50 54  22 23 41  34 22 37  22 37 50  22 42 41  22 42 50  27 23 25  23 25 41  27 23 28  27 23 41  23 41 28  27 24 28  27 24 30  29 24 30  27 26 25  26 25 120  27 25 41  27 25 46  27 25 120  27 25 121  27 25 125  25 41 46  25 46 125  25 120 121  25 121 125  27 26 30  27 26 120  29 26 30  29 26 120  26 30 120  27 41 28  27 28 45  27 30 120  27 30 122  27 41 45  27 41 46  27 41 47  27 45 47  27 46 47  27 46 125  27 47 125  27 47 127  27 120 121  27 120 122  27 121 125  27 125 127  41 28 45  29 30 120  29 30 122  29 120 122  30 120 122  31 33 32  31 34 32  31 38 32  31 34 33  31 34 38  31 34 39  31 39 38  34 33 32  35 33 32  35 34 32  34 38 32  35 38 32  35 34 33  34 33 36  35 33 36  35 34 36  35 34 37  35 34 38  35 34 40  34 37 36  34 37 40  34 39 38  34 38 40  35 37 36  35 50 36  35 36 51  35 37 40  35 37 50  35 38 40  35 50 40  35 40 54  35 50 51  35 50 52  35 50 54  35 51 52  35 54 52  37 50 36  50 36 51  37 50 40  50 40 54  42 41 43  44 42 41  42 41 90  91 42 41  42 41 115  44 41 43  41 43 45  44 41 45  44 41 49  44 41 115  44 41 116  41 45 47  48 41 45  41 45 49  41 46 47  48 41 46  112 41 46  41 46 114  41 46 117  48 41 47  48 41 49  48 41 116  48 41 117  41 49 116  91 41 90  41 90 109  91 41 109  91 41 113  91 41 115  91 41 116  112 41 109  41 109 113  41 109 114  112 41 113  112 41 114  112 41 116  112 41 117  41 113 116  41 115 116  41 116 117  44 42 43  42 50 43  44 42 50  44 42 115  42 50 90  91 42 50  42 50 115  91 42 90  91 42 115  44 43 45  44 50 43  44 43 54  50 43 54  44 45 49  44 49 116  44 50 54  44 50 55  44 50 115  44 50 119  44 54 55  44 55 119  44 115 116  44 115 119  48 45 47  48 45 49  48 46 47  46 47 125  48 46 117  48 46 125  112 46 114  112 46 117  112 46 125  46 114 125  46 117 125  48 47 125  48 47 127  47 125 127  48 49 116  48 116 117  48 117 125  48 117 126  48 125 126  48 125 127  50 51 52  53 50 51  50 51 95  96 50 51  50 51 118  53 50 52  50 54 52  53 50 54  53 50 55  53 50 118  53 50 119  50 54 55  50 55 119  91 50 90  50 90 99  91 50 99  91 50 100  91 50 115  91 50 119  96 50 95  50 99 95  96 50 99  96 50 100  96 50 118  96 50 119  50 99 100  50 100 119  50 115 119  50 119 118  53 51 52  53 51 118  96 51 95  96 51 118  53 54 52  53 54 55  53 55 119  53 119 118  56 58 57  56 59 57  56 57 62  56 57 68  56 69 57  56 58 59  56 58 60  56 58 69  56 60 59  56 59 61  56 59 62  56 59 64  56 60 61  56 69 60  56 60 71  56 60 77  56 60 78  56 60 83  56 61 64  56 61 78  56 62 64  56 64 73  56 78 64  56 64 81  56 64 88  56 69 68  56 68 70  56 69 70  56 69 71  56 71 70  56 70 75  56 70 82  56 83 70  56 70 93  56 71 83  56 72 73  56 72 75  56 72 88  56 72 89  56 72 93  56 73 88  56 75 93  56 77 76  56 78 76  56 76 81  56 76 82  56 83 76  56 76 88  56 76 89  56 76 93  56 77 78  56 77 83  56 78 81  56 81 88  56 83 82  56 82 93  56 89 88  56 89 93  58 59 57  58 69 57  59 57 62  69 57 68  58 60 59  58 69 60  60 59 61  63 59 61  59 61 64  59 61 65  63 59 62  59 62 64  63 59 64  63 59 65  60 61 78  69 60 71  60 71 83  60 77 78  60 77 83  63 61 64  63 61 65  63 61 78  61 78 64  61 65 78  63 62 64  63 64 73  63 78 64  63 64 81  63 64 88  63 65 78  63 65 106  63 65 128  63 73 88  63 73 101  63 78 81  63 78 106  63 78 107  63 81 88  63 81 107  63 88 101  63 88 107  63 88 110  63 101 110  63 101 123  63 107 106  63 106 128  63 107 110  63 107 123  63 107 128  63 110 123  64 73 88  78 64 81  64 81 88  65 78 106  65 106 128  66 68 67  66 69 67  66 69 68  66 68 70  66 69 70  66 69 71  66 71 70  66 70 75  66 70 82  66 83 70  66 70 93  66 71 83  66 75 74  66 93 74  66 74 94  66 75 93  66 83 82  66 82 84  66 82 93  66 83 84  66 93 84  66 84 94  66 93 94  69 68 67  69 68 70  69 71 70  71 83 70  70 75 93  83 70 82  70 82 93  72 73 88  72 75 93  72 89 88  72 89 93  73 88 101  75 93 74  93 74 94  77 78 76  79 77 76  77 83 76  79 78 76  78 76 81  79 76 81  79 76 82  79 83 76  79 76 88  79 76 89  79 76 93  76 81 88  83 76 82  76 82 93  76 89 88  76 89 93  79 77 78  77 78 80  79 77 80  79 77 83  77 83 80  79 78 80  79 78 81  79 78 102  79 78 104  78 80 102  103 78 81  78 81 104  78 81 107  103 78 102  78 102 104  78 102 105  103 78 104  103 78 105  103 78 106  103 78 107  78 105 106  78 107 106  79 83 80  79 80 87  79 80 102  79 81 88  79 81 104  79 83 82  79 82 86  79 82 93  79 83 86  79 83 87  79 87 86  79 93 86  79 86 98  79 89 88  79 88 92  79 88 104  79 88 108  79 89 92  79 89 93  79 93 92  79 92 98  79 92 108  79 93 98  79 102 104  79 104 108  83 80 87  103 81 88  81 88 104  81 88 107  103 81 104  103 81 107  83 82 84  85 83 82  83 82 86  85 82 84  82 93 84  85 82 86  85 82 93  82 93 86  85 83 84  85 83 86  85 83 87  83 87 86  85 93 84  85 84 94  93 84 94  85 87 86  85 93 86  85 86 98  85 93 94  85 93 97  85 93 98  85 94 97  85 98 97  93 86 98  89 88 90  91 89 88  89 88 92  91 88 90  88 90 109  91 88 92  91 88 108  91 88 109  91 88 113  88 92 108  88 101 110  103 88 104  103 88 107  103 88 108  103 88 110  103 88 111  88 104 108  88 107 110  88 108 111  112 88 108  88 108 113  112 88 109  88 109 113  88 109 114  88 110 111  112 88 110  88 110 114  112 88 111  112 88 113  112 88 114  91 89 90  89 93 90  91 89 92  91 89 93  89 93 92  91 93 90  91 90 99  91 90 109  93 90 99  91 93 92  91 92 98  91 92 108  91 93 98  91 93 99  91 93 100  91 98 100  91 99 100  91 100 119  91 108 113  91 109 113  91 113 116  91 115 116  91 115 119  93 92 98  93 94 95  96 93 94  93 94 97  96 93 95  93 99 95  96 93 97  96 93 98  96 93 99  96 93 100  93 98 97  93 98 100  93 99 100  96 94 95  96 94 97  96 99 95  96 98 97  96 98 100  96 99 100  96 100 119  96 119 118  101 110 123  103 102 104  103 102 105  103 104 108  103 105 106  103 105 128  103 107 106  103 106 128  103 107 110  103 107 123  103 107 128  103 108 111  103 110 111  103 110 123  103 111 123  105 106 128  107 106 128  107 110 123  112 108 111  112 108 113  112 109 113  112 109 114  112 110 111  110 111 123  112 110 114  112 110 123  110 114 123  112 111 123  112 113 116  112 114 123  112 114 124  112 114 125  112 116 117  112 117 125  112 117 126  112 123 124  112 124 125  112 125 126  114 123 124  114 124 125  117 125 126  </DataArray>
<DataArray  type="UInt32"  Name="offsets"  format="ascii">3 6 9 12 15 18 21 24 27 30 33 36 39 42 45 48 51 54 57 60 63 66 69 72 75 78 81 84 87 90 93 96 99 102 105 108 111 114 117 120 123 126 129 132 135 138 141 144 147 150 153 156 159 162 165 168 171 174 177 180 183 186 189 192 195 198 201 204 207 210 213 216 219 222 225 228 231 234 237 240 243 246 249 252 255 258 261 264 267 270 273 276 279 282 285 288 291 294 297 300 303 306 309 312 315 318 321 324 327 330 333 336 339 342 345 348 351 354 357 360 363 366 369 372 375 378 381 384 387 390 393 396 399 402 405 408 411 414 417 420 423 426 429 432 435 438 441 444 447 450 453 456 459 462 465 468 471 474 477 480 483 486 489 492 495 498 501 504 507 510 513 516 519 522 525 528 531 534 537 540 543 546 549 552 555 558 561 564 567 570 573 576 579 582 585 588 591 594 597 600 603 606 609 612 615 618 621 624 627 630 633 636 639 642 645 648 651 654 657 660 663 666 669 672 675 678 681 684 687 690 693 696 699 702 705 708 711 714 717 720 723 726 729 732 735 738 741 744 747 750 753 756 759 762 765 768 771 774 777 780 783 786 789 792 795 798 801 804 807 810 813 816 819 822 825 828 831 834 837 840 843 846 849 852 855 858 861 864 867 870 873 876 879 882 885 888 891 894 897 900 903 906 909 912 915 918 921 924 927 930 933 936 939 942 945 948 951 954 957 960 963 966 969 972 975 978 981 984 987 990 993 996 999 1002 1005 1008 1011 1014 1017 1020 1023 1026 1029 1032 1035 1038 1041 1044 1047 1050 1053 1056 1059 1062 1065 1068 1071 1074 1077 1080 1083 1086 1089 1092 1095 1098 1101 1104 1107 1110 1113 1116 1119 1122 1125 1128 1131 1134 1137 1140 1143 1146 1149 1152 1155 1158 1161 1164 1167 1170 1173 1176 1179 1182 1185 1188 1191 1194 1197 1200 1203 1206 1209 1212 1215 1218 1221 1224 1227 1230 1233 1236 1239 1242 1245 1248 1251 1254 1257 1260 1263 1266 1269 1272 1275 1278 1281 1284 1287 1290 1293 1296 1299 1302 1305 1308 1311 1314 1317 1320 1323 1326 1329 1332 1335 1338 1341 1344 1347 1350 1353 1356 1359 1362 1365 1368 1371 1374 1377 1380 1383 1386 1389 1392 1395 1398 1401 1404 1407 1410 1413 1416 1419 1422 1425 1428 1431 1434 1437 1440 1443 1446 1449 1452 1455 1458 1461 1464 1467 1470 1473 1476 1479 1482 1485 1488 1491 1494 1497 1500 1503 1506 1509 1512 1515 1518 1521 1524 1527 1530 1533 1536 1539 1542 1545 1548 1551 1554 1557 1560 1563 1566 1569 1572 1575 1578 1581 1584 1587 1590 1593 1596 1599 1602 1605 1608 1611 1614 1617 1620 1623 1626 1629 1632 1635 1638 1641 1644 1647 1650 1653 1656 1659 1662 1665 1668 1671 1674 1677 1680 1683 1686 1689 1692 1695 1698 1701 1704 1707 1710 1713 1716 1719 1722 1725 1728 1731 1734 1737 1740 1743 1746 1749 1752 1755 1758 1761 1764 1767 1770 1773 1776 1779 1782 1785 1788 1791 1794 1797 1800 1803 1806 1809 1812 1815 1818 1821 1824 1827 1830 1833 1836 1839 1842 1845 1848 1851 1854 1857 1860 1863 1866 1869 1872 1875 1878 1881 1884 1887 1890 1893 1896 1899 1902 1905 1908 1911 1914 1917 1920 1923 1926 1929 1932 1935 1938 1941 1944 1947 1950 1953 1956 1959 1962 1965 1968 1971 1974 1977 1980 1983 1986 1989 1992 1995 1998 2001 2004 2007 2010 2013 2016 2019 2022 2025 2028 2031 2034 2037 2040 2043 2046 2049 2052 2055 2058 2061 2064 2067 2070 2073 2076 2079 2082 2085 2088 2091 2094 2097 2100 2103 2106 2109 2112 2115 2118 2121 2124 2127 2130 2133 2136 2139 2142 2145 2148 2151 2154 2157 2160 2163 2166 2169 2172 2175 2178 2181 2184 2187 2190 2193 2196 2199 2202 2205 2208 2211 2214 2217 2220 2223 2226 2229 2232 2235 2238 2241 2244 2247 2250 2253 2256 2259 2262 2265 2268 2271 2274 2277 2280 2283 2286 2289 2292 2295 2298 2301 2304 2307 2310 2313 2316 2319 2322 2325 2328 2331 2334 2337 2340 2343 2346 2349 2352 2355 2358 2361 2364 2367 2370 2373 2376 2379 2382 2385 2388 2391 2394 2397 2400 2403 2406 2409 2412 2415 2418 2421 2424 2427 2430 2433 2436 2439 2442 2445 2448 2451 2454 2457 2460 2463 2466 2469 2472 2475 2478 2481 2484 2487 2490 2493 2496 2499 2502 2505 2508 2511 2514 2517 2520 2523 2526 2529 2532 2535 2538 2541 2544 2547 2550 2553 2556 2559 2562 2565 2568 2571 2574 2577 2580 2583 2586 2589 2592 2595 2598 2601 2604 2607 2610 2613 2616 2619 2622 2625 2628 2631 2634 2637 2640 2643 2646 2649 2652 2655 2658 2661 2664 2667 2670 2673 2676 2679 2682 2685 2688 2691 2694 2697 2700 2703 2706 2709 2712 2715 2718 2721 2724 2727 2730 2733 2736 </DataArray>
<DataArray  type="UInt8"  Name="types"  format="ascii">5 5 5 5 5 5 5 5 5 5 5 5 5 5 5 5 5 5 5 5 5 5 5 5 5 5 5 5 5 5 5 5 5 5 5 5 5 5 5 5 5 5 5 5 5 5 5 5 5 5 5 5 5 5 5 5 5 5 5 5 5 5 5 5 5 5 5 5 5 5 5 5 5 5 5 5 5 5 5 5 5 5 5 5 5 5 5 5 5 5 5 5 5 5 5 5 5 5 5 5 5 5 5 5 5 5 5 5 5 5 5 5 5 5 5 5 5 5 5 5 5 5 5 5 5 5 5 5 5 5 5 5 5 5 5 5 5 5 5 5 5 5 5 5 5 5 5 5 5 5 5 5 5 5 5 5 5 5 5 5 5 5 5 5 5 5 5 5 5 5 5 5 5 5 5 5 5 5 5 5 5 5 5 5 5 5 5 5 5 5 5 5 5 5 5 5 5 5 5 5 5 5 5 5 5 5 5 5 5 5 5 5 5 5 5 5 5 5 5 5 5 5 5 5 5 5 5 5 5 5 5 5 5 5 5 5 5 5 5 5 5 5 5 5 5 5 5 5 5 5 5 5 5 5 5 5 5 5 5 5 5 5 5 5 5 5 5 5 5 5 5 5 5 5 5 5 5 5 5 5 5 5 5 5 5 5 5 5 5 5 5 5 5 5 5 5 5 5 5 5 5 5 5 5 5 5 5 5 5 5 5 5 5 5 5 5 5 5 5 5 5 5 5 5 5 5 5 5 5 5 5 5 5 5 5 5 5 5 5 5 5 5 5 5 5 5 5 5 5 5 5 5 5 5 5 5 5 5 5 5 5 5 5 5 5 5 5 5 5 5 5 5 5 5 5 5 5 5 5 5 5 5 5 5 5 5 5 5 5 5 5 5 5 5 5 5 5 5 5 5 5 5 5 5 5 5 5 5 5 5 5 5 5 5 5 5 5 5 5 5 5 5 5 5 5 5 5 5 5 5 5 5 5 5 5 5 5 5 5 5 5 5 5 5 5 5 5 5 5 5 5 5 5 5 5 5 5 5 5 5 5 5 5 5 5 5 5 5 5 5 5 5 5 5 5 5 5 5 5 5 5 5 5 5 5 5 5 5 5 5 5 5 5 5 5 5 5 5 5 5 5 5 5 5 5 5 5 5 5 5 5 5 5 5 5 5 5 5 5 5 5 5 5 5 5 5 5 5 5 5 5 5 5 5 5 5 5 5 5 5 5 5 5 5 5 5 5 5 5 5 5 5 5 5 5 5 5 5 5 5 5 5 5 5 5 5 5 5 5 5 5 5 5 5 5 5 5 5 5 5 5 5 5 5 5 5 5 5 5 5 5 5 5 5 5 5 5 5 5 5 5 5 5 5 5 5 5 5 5 5 5 5 5 5 5 5 5 5 5 5 5 5 5 5 5 5 5 5 5 5 5 5 5 5 5 5 5 5 5 5 5 5 5 5 5 5 5 5 5 5 5 5 5 5 5 5 5 5 5 5 5 5 5 5 5 5 5 5 5 5 5 5 5 5 5 5 5 5 5 5 5 5 5 5 5 5 5 5 5 5 5 5 5 5 5 5 5 5 5 5 5 5 5 5 5 5 5 5 5 5 5 5 5 5 5 5 5 5 5 5 5 5 5 5 5 5 5 5 5 5 5 5 5 5 5 5 5 5 5 5 5 5 5 5 5 5 5 5 5 5 5 5 5 5 5 5 5 5 5 5 5 5 5 5 5 5 5 5 5 5 5 5 5 5 5 5 5 5 5 5 5 5 5 5 5 5 5 5 5 5 5 5 5 5 5 5 5 5 5 5 5 5 5 5 5 5 5 5 5 5 5 5 5 5 5 5 5 5 5 5 5 5 5 5 5 5 5 5 5 5 5 5 5 5 5 5 5 5 5 5 5 5 5 5 5 5 5 5 5 5 5 5 5 5 5 5 5 5 5 5 5 5 5 5 5 5 5 5 5 5 5 5 5 5 5 5 5 5 5 5 5 5 5 5 5 5 5 5 5 5 5 5 5 5 5 5 5 5 5 5 5 5 5 5 5 5 5 5 5 5 5 5 </DataArray>
</Cells>
<CellData  Scalars="f">
<DataArray  type="Float64"  Name="f"  format="ascii">3 3 3 3 3 3 3 3 3 3 3 3 3 3 3 3 3 3 3 3 3 3 3 3 3 3 3 3 3 3 3 3 3 3 3 3 3 3 3 3 3 3 3 3 3 3 3 3 3 3 3 3 3 3 3 3 3 3 3 3 3 3 3 3 3 3 3 3 3 3 3 3 3 3 3 3 3 3 3 3 3 3 3 3 3 3 3 3 3 3 3 3 3 3 3 3 3 3 3 3 3 3 3 3 3 3 3 3 3 3 3 3 3 3 3 3 3 3 3 3 3 3 3 3 3 3 3 3 3 3 3 3 3 3 3 3 3 3 3 3 3 3 3 3 3 3 3 3 3 3 3 3 3 3 3 3 3 3 3 3 3 3 3 3 3 3 3 3 3 3 3 3 3 3 3 3 3 3 3 2 3 3 2 3 3 3 3 3 3 3 3 3 2 3 3 3 2 3 3 3 3 3 3 3 2 2 2 3 3 3 3 3 3 3 3 3 3 3 3 3 3 3 3 3 3 3 3 3 3 3 3 3 3 3 3 3 3 3 3 2 3 3 3 3 2 3 3 3 3 2 3 3 2 3 3 3 3 2 3 3 3 3 3 3 3 3 3 3 3 3 3 3 3 3 3 3 3 3 3 3 3 3 3 3 3 3 3 3 3 3 3 3 3 3 3 3 3 3 3 3 3 3 3 3 3 3 3 3 3 3 3 3 3 3 3 3 3 3 3 3 3 3 3 3 3 3 3 3 3 3 3 3 3 3 3 3 3 3 3 3 3 3 3 3 3 3 3 3 3 3 3 3 3 3 3 3 3 3 3 3 3 3 3 3 3 3 3 3 3 3 3 3 3 3 3 3 3 3 3 3 3 3 3 3 3 3 3 3 3 3 3 3 3 3 2 3 3 3 3 3 3 3 2 3 3 3 3 3 2 3 3 3 3 3 3 3 3 3 3 2 3 3 3 3 3 3 3 3 2 3 3 3 3 3 3 3 3 3 3 3 3 3 3 3 3 3 3 3 3 3 3 3 3 3 3 3 3 3 3 3 3 3 3 3 3 3 3 3 3 3 3 3 3 3 3 3 3 3 3 3 3 3 3 3 3 3 3 3 3 3 3 3 3 3 3 3 3 3 3 3 3 3 3 3 3 3 3 3 3 3 3 3 3 3 3 3 3 3 3 3 3 3 3 3 3 3 3 3 3 3 3 3 3 3 3 3 3 3 3 3 3 3 3 3 3 3 2 2 2 2 3 3 3 3 3 3 3 3 3 3 3 3 3 3 3 3 3 3 3 3 3 3 3 3 3 3 3 3 3 3 3 3 3 3 3 3 3 3 3 3 3 3 3 3 3 3 3 3 3 3 3 3 3 3 3 3 3 3 3 3 3 3 3 3 3 3 3 3 3 3 3 3 3 3 3 3 3 3 3 3 3 3 3 3 3 3 3 3 3 3 3 3 3 3 3 3 3 3 3 3 3 3 3 3 3 3 3 3 3 3 3 3 3 3 3 3 3 3 3 3 3 3 3 3 3 3 3 3 3 3 3 2 3 3 3 3 3 3 2 3 3 3 3 3 3 3 3 3 3 3 3 3 3 3 3 3 3 3 3 3 3 3 3 3 3 3 3 3 3 3 3 3 3 3 3 3 3 3 3 3 3 3 3 3 3 3 3 3 3 3 3 3 3 3 3 3 3 3 3 3 3 3 3 3 3 3 3 3 3 3 3 3 3 3 3 3 3 3 3 3 3 3 3 3 3 3 3 3 3 3 3 3 3 3 3 3 2 3 3 3 3 3 3 3 2 3 3 3 3 3 3 3 3 3 3 3 3 3 3 3 3 3 3 3 3 3 3 3 3 3 3 3 3 3 3 3 3 3 3 3 3 3 3 3 3 3 3 3 3 3 3 3 3 3 3 3 3 3 3 3 3 3 3 3 3 3 3 3 3 3 3 3 3 2 2 3 3 3 3 3 3 3 3 3 3 3 3 3 3 3 3 3 3 3 3 3 3 3 3 3 3 3 3 3 3 3 3 3 3 3 3 3 3 3 3 3 3 3 3 3 3 3 </DataArray>
</CellData>
</Piece>
</UnstructuredGrid>
</VTKFile>