<?xml version="1.0"?>
<VTKFile type="UnstructuredGrid"  version="0.1"  >
<UnstructuredGrid>
<Piece  NumberOfPoints="127" NumberOfCells="874">
<Points>
<DataArray  type="Float64"  NumberOfComponents="3"  format="ascii">20 0 10  25 5 15  25 0 15  20 0 15  20 0 20  25 5 20  25 0 20  30 0 20  20 5 15  20 5 20  20 10 20  20 5 10  20 10 10  20 10 15  25 5 25  25 0 25  30 0 25  30 0 30  0 0 10  5 5 15  5 0 15  0 0 15  0 0 20  5 5 20  5 0 20  10 0 20  10 5 20  10 10 20  0 5 15  0 5 20  0 10 20  5 10 20  0 5 10  0 10 10  5 10 15  0 10 15  5 15 15  5 15 10  0 15 10  0 20 10  0 15 15  5 5 25  10 5 25  5 0 25  10 0 25  10 0 30  0 5 25  15 5 25  0 0 0  5 5 5  5 5 0  5 0 0  10 0 0  10 5 5  10 5 0  10 10 0  10 10 5  10 10 10  5 0 5  10 0 5  10 0 10  10 5 10  0 0 5  5 5 10  5 0 10  0 5 0  0 10 0  5 10 5  5 10 0  0 5 5  5 10 10  0 10 5  15 5 5  15 0 5  15 5 10  15 0 10  15 5 0  15 10 5  15 10 0  20 10 0  20 10 5  15 10 10  5 15 5  5 15 0  10 15 5  10 15 0  10 20 0  10 20 5  10 20 10  10 15 10  0 15 0  0 15 5  15 15 5  15 15 0  15 15 10  10 5 15  10 10 15  10 0 15  15 5 15  15 0 15  15 5 20  15 0 20  15 10 15  15 10 20  10 15 15  15 15 15  15 15 20  20 5 25  20 10 25  20 10 30  15 0 25  20 0 25  20 0 30  20 5 30  15 0 30  15 10 25  25 5 30  25 10 25  15 15 25  20 15 25  25 15 25  25 0 30  25 5 35  25 0 35  0 0 25  0 0 30  5 0 30  </DataArray>
</Points>
<Cells>
<DataArray  type="UInt32"  Name="connectivity"  format="ascii">0 1 2  0 1 3  0 1 8  0 11 1  0 2 3  0 3 8  0 3 98  0 3 99  0 11 8  0 8 98  0 72 11  0 11 74  0 11 98  0 72 73  0 72 74  0 72 75  0 73 75  0 75 74  0 74 98  0 75 98  0 75 99  0 98 99  1 2 3  4 1 2  1 2 6  7 1 2  4 1 3  1 3 8  4 1 5  4 1 6  4 1 8  4 1 9  1 5 6  7 1 5  1 5 9  10 1 5  7 1 6  1 8 9  10 1 8  11 1 8  12 1 8  13 1 8  10 1 9  10 13 1  12 11 1  12 13 1  4 2 3  4 2 6  7 2 6  4 3 8  4 3 98  4 3 99  3 8 98  3 98 99  4 5 6  4 5 9  4 5 14  4 6 14  4 6 15  4 8 9  4 8 98  4 9 14  4 9 47  4 9 98  4 9 100  4 9 107  4 14 15  4 14 107  4 14 111  4 15 111  4 47 100  4 47 101  4 47 107  4 47 110  4 47 111  4 98 99  4 98 100  4 98 101  4 99 101  4 100 101  4 101 110  4 107 111  4 110 111  7 5 6  5 6 14  7 5 14  10 5 9  5 9 14  10 5 14  7 6 14  7 6 15  6 14 15  7 14 15  7 16 14  7 16 15  10 8 9  8 9 98  10 13 8  10 8 98  12 11 8  11 8 98  12 13 8  12 8 98  13 8 98  10 9 14  10 9 47  10 9 98  10 9 100  10 9 107  9 14 107  9 47 100  9 47 107  9 98 100  10 13 98  10 13 102  10 13 105  10 14 107  10 14 108  10 14 117  10 47 100  10 47 103  10 47 107  10 47 108  10 47 115  10 98 100  10 102 98  10 98 103  10 103 100  10 102 103  10 102 105  10 105 103  10 103 106  10 115 103  10 118 103  10 105 106  10 118 106  10 108 107  10 115 108  10 117 108  10 118 108  10 108 119  10 120 108  10 115 118  10 117 120  10 118 119  10 120 119  12 72 11  12 11 74  12 11 98  72 11 74  11 74 98  12 13 98  12 13 102  12 13 105  12 72 74  12 72 77  12 72 80  12 72 81  12 81 74  12 74 98  12 80 77  12 77 81  12 77 92  12 80 92  12 92 81  12 81 94  12 81 98  12 81 102  12 81 105  12 92 94  12 94 105  12 102 98  12 102 105  13 102 98  13 102 105  16 14 15  17 14 15  14 15 111  112 14 15  14 15 121  17 16 14  17 14 116  17 14 121  14 108 107  109 14 107  14 107 111  112 14 107  14 107 113  109 14 108  14 117 108  109 14 113  109 14 116  109 14 117  112 14 111  112 14 113  112 14 116  112 14 121  14 113 116  14 116 121  17 16 15  17 15 121  112 15 111  112 15 121  17 116 121  17 116 122  17 121 122  17 121 123  17 122 123  18 20 19  18 21 19  18 19 28  18 19 32  18 19 63  18 19 64  18 21 20  18 20 64  18 21 28  18 28 32  18 32 49  18 32 63  18 32 69  18 49 58  18 49 62  18 49 63  18 49 64  18 49 69  18 58 62  18 58 64  18 62 69  18 63 64  21 20 19  22 20 19  20 19 24  25 20 19  60 20 19  20 19 64  20 19 97  22 21 19  21 19 28  22 19 23  22 19 24  22 19 28  22 19 29  19 24 23  25 19 23  19 23 26  27 19 23  19 23 29  30 19 23  19 23 31  25 19 24  25 19 26  25 19 95  25 19 97  27 19 26  19 26 95  27 19 31  27 19 34  27 19 95  27 19 96  19 28 29  30 19 28  19 28 32  33 19 28  19 28 35  30 19 29  30 19 31  30 19 34  30 19 35  19 31 34  33 19 32  19 32 63  33 19 34  33 19 35  33 19 63  33 19 70  19 34 35  57 19 34  19 34 70  19 34 96  57 19 61  57 19 63  57 19 70  57 19 95  57 19 96  60 19 61  60 19 63  60 19 64  60 19 95  60 19 97  19 61 63  19 61 95  19 63 64  19 63 70  19 96 95  19 95 97  22 21 20  22 20 24  25 20 24  25 20 97  60 20 64  60 20 97  22 21 28  22 24 23  22 23 29  22 23 41  22 24 41  22 24 43  22 28 29  22 29 41  22 29 46  22 41 43  22 41 46  22 41 124  22 43 124  22 46 124  25 24 23  24 23 41  25 23 26  25 23 41  27 23 26  23 41 26  27 23 31  27 23 41  30 23 29  23 29 41  30 23 31  30 23 41  23 41 31  25 24 41  25 24 43  24 41 43  25 41 26  25 26 42  25 26 47  25 26 95  25 26 98  25 26 100  25 41 42  25 41 43  25 41 44  25 42 44  25 42 47  25 43 44  25 44 47  25 44 110  25 47 100  25 47 101  25 47 110  25 95 97  25 95 98  25 97 98  25 97 99  25 98 99  25 98 100  25 98 101  25 99 101  25 100 101  25 101 110  27 41 26  27 26 42  27 26 47  27 26 95  27 26 98  27 26 100  41 26 42  26 42 47  26 47 100  26 95 98  26 98 100  27 31 34  27 31 36  27 41 31  27 34 36  27 34 96  27 36 96  27 36 104  27 41 42  27 42 47  27 47 100  27 47 103  27 47 115  27 96 95  27 95 98  27 96 98  27 96 102  27 96 104  27 96 105  27 98 100  27 102 98  27 98 103  27 103 100  27 102 103  27 102 105  27 105 103  27 103 106  27 115 103  27 118 103  27 104 105  27 105 106  27 118 106  27 115 118  30 28 29  30 28 35  33 28 32  33 28 35  30 29 41  30 29 46  29 41 46  30 31 34  30 31 36  30 41 31  30 34 35  30 34 36  30 35 36  30 35 40  30 36 40  30 41 46  31 34 36  33 32 49  33 32 63  33 32 69  32 49 63  32 49 69  33 34 35  33 34 36  33 34 70  33 35 36  33 35 40  33 36 37  33 36 38  33 36 40  33 36 70  33 38 37  33 37 70  33 37 82  33 38 40  33 38 82  33 38 91  33 49 63  33 49 67  33 49 69  33 49 70  33 49 71  33 63 70  33 67 70  33 67 71  33 67 82  33 69 71  33 70 82  33 71 82  33 71 91  33 82 91  34 35 36  57 34 36  34 36 70  34 36 96  57 34 70  57 34 96  35 36 40  36 38 37  39 36 37  57 36 37  36 37 70  88 36 37  36 37 89  39 36 38  36 38 40  39 36 40  57 36 70  57 36 89  57 36 96  57 36 104  88 36 89  88 36 104  36 89 104  36 96 104  39 38 37  38 37 82  39 37 82  57 37 70  57 37 82  57 37 89  37 70 82  88 37 82  37 89 82  88 37 89  39 38 40  39 38 82  39 38 91  38 82 91  39 82 91  41 42 44  45 41 42  41 43 44  45 41 43  41 43 124  125 41 43  41 43 126  45 41 44  45 41 126  41 46 124  125 41 46  125 41 124  125 41 126  45 42 44  42 44 47  45 42 47  45 43 44  45 43 126  125 43 124  125 43 126  45 44 47  45 44 110  44 47 110  45 47 110  45 47 114  45 110 114  125 46 124  47 100 101  47 103 100  47 101 110  47 115 103  47 108 107  109 47 107  47 107 111  112 47 107  47 107 113  109 47 108  47 115 108  109 47 113  109 47 115  47 110 111  112 47 110  47 110 114  112 47 111  112 47 113  112 47 114  48 50 49  48 51 49  48 49 58  48 49 62  48 49 65  48 49 69  48 51 50  48 50 65  48 51 58  48 58 62  48 62 69  48 65 69  51 50 49  52 50 49  50 49 54  55 50 49  50 49 65  66 50 49  50 49 68  52 51 49  51 49 58  52 49 53  52 49 54  52 49 58  52 49 59  49 54 53  55 49 53  49 53 56  57 49 53  49 53 59  60 49 53  49 53 61  55 49 54  55 49 56  55 49 67  55 49 68  57 49 56  49 56 67  57 49 61  57 49 63  57 49 67  57 49 70  49 58 59  60 49 58  49 58 62  49 58 64  60 49 59  60 49 61  60 49 63  60 49 64  49 61 63  49 62 69  49 63 64  49 63 70  66 49 65  49 65 69  66 49 67  66 49 68  66 49 69  66 49 71  49 68 67  49 67 70  49 67 71  49 69 71  52 51 50  52 50 54  55 50 54  55 50 68  66 50 65  66 50 68  52 51 58  52 54 53  52 53 59  52 72 53  52 72 54  52 76 54  52 58 59  52 72 59  52 73 59  52 72 73  52 76 72  55 54 53  72 54 53  55 53 56  55 72 53  57 53 56  72 53 56  57 53 61  57 72 53  60 53 59  72 53 59  60 53 61  60 72 53  72 53 61  55 72 54  55 76 54  76 72 54  55 56 67  55 72 56  55 56 77  55 56 82  55 56 84  55 56 92  55 68 67  55 67 82  55 68 82  55 68 83  55 76 72  55 72 77  55 72 78  55 76 78  55 77 78  55 77 92  55 78 92  55 78 93  55 83 82  55 84 82  55 85 82  55 85 83  55 85 84  55 84 92  55 85 92  55 85 93  55 93 92  57 56 67  57 72 56  57 56 77  57 56 82  57 56 84  57 56 92  56 67 82  72 56 77  56 77 92  56 84 82  56 84 92  57 61 63  57 72 61  57 61 74  57 61 95  57 61 98  57 63 70  57 67 70  57 67 82  57 70 82  57 72 74  57 72 77  57 72 81  57 81 74  57 74 98  57 77 81  57 77 92  57 92 81  57 81 94  57 81 98  57 81 102  57 81 105  57 84 82  57 89 82  57 84 89  57 84 92  57 92 89  57 89 94  57 89 104  57 89 105  57 92 94  57 94 105  57 96 95  57 95 98  57 96 98  57 96 102  57 96 104  57 96 105  57 102 98  57 102 105  57 104 105  60 58 59  60 58 64  60 72 59  60 73 59  72 73 59  60 61 63  60 72 61  60 61 74  60 61 95  60 61 98  60 63 64  60 72 73  60 72 74  60 72 75  60 73 75  60 75 74  60 74 98  60 75 98  60 75 99  60 95 97  60 95 98  60 97 98  60 97 99  60 98 99  72 61 74  61 74 98  61 95 98  66 65 69  66 68 67  66 67 71  66 67 82  66 68 82  66 68 83  66 69 71  66 71 82  66 71 91  66 83 82  66 82 90  66 82 91  66 83 90  66 90 91  68 67 82  67 70 82  67 71 82  68 83 82  71 82 91  72 73 75  72 75 74  72 81 74  76 72 78  79 76 72  72 77 78  79 72 77  72 80 77  72 77 81  79 72 78  79 72 80  75 74 98  81 74 98  75 98 99  79 76 78  79 77 78  77 78 92  79 80 77  79 77 92  80 77 92  77 92 81  79 78 92  79 78 93  78 93 92  79 80 92  79 93 92  92 81 94  81 94 105  81 102 98  81 102 105  85 83 82  86 83 82  83 82 90  85 84 82  86 84 82  87 84 82  88 84 82  84 89 82  86 85 82  86 87 82  88 87 82  88 89 82  82 90 91  86 85 83  86 85 84  85 84 92  86 87 84  86 84 92  88 87 84  87 84 92  88 84 89  88 84 92  84 92 89  86 85 92  86 85 93  85 93 92  86 87 92  86 93 92  88 87 92  88 92 89  88 89 94  88 89 104  88 89 105  88 92 94  88 94 105  88 104 105  92 89 94  89 94 105  89 104 105  96 95 98  95 97 98  96 102 98  96 102 105  96 104 105  97 98 99  98 99 101  98 100 101  98 103 100  102 98 103  102 105 103  105 103 106  118 103 106  115 118 103  109 108 107  109 107 113  112 107 111  112 107 113  109 115 108  109 117 108  109 118 108  109 108 119  109 120 108  115 118 108  117 120 108  118 108 119  120 108 119  109 113 116  109 113 122  109 115 118  109 116 122  109 117 120  109 118 119  109 120 119  112 110 111  112 110 114  112 113 116  112 113 122  112 116 121  112 116 122  112 121 122  112 121 123  112 122 123  113 116 122  116 121 122  121 122 123  </DataArray>
<DataArray  type="UInt32"  Name="offsets"  format="ascii">3 6 9 12 15 18 21 24 27 30 33 36 39 42 45 48 51 54 57 60 63 66 69 72 75 78 81 84 87 90 93 96 99 102 105 108 111 114 117 120 123 126 129 132 135 138 141 144 147 150 153 156 159 162 165 168 171 174 177 180 183 186 189 192 195 198 201 204 207 210 213 216 219 222 225 228 231 234 237 240 243 246 249 252 255 258 261 264 267 270 273 276 279 282 285 288 291 294 297 300 303 306 309 312 315 318 321 324 327 330 333 336 339 342 345 348 351 354 357 360 363 366 369 372 375 378 381 384 387 390 393 396 399 402 405 408 411 414 417 420 423 426 429 432 435 438 441 444 447 450 453 456 459 462 465 468 471 474 477 480 483 486 489 492 495 498 501 504 507 510 513 516 519 522 525 528 531 534 537 540 543 546 549 552 555 558 561 564 567 570 573 576 579 582 585 588 591 594 597 600 603 606 609 612 615 618 621 624 627 630 633 636 639 642 645 648 651 654 657 660 663 666 669 672 675 678 681 684 687 690 693 696 699 702 705 708 711 714 717 720 723 726 729 732 735 738 741 744 747 750 753 756 759 762 765 768 771 774 777 780 783 786 789 792 795 798 801 804 807 810 813 816 819 822 825 828 831 834 837 840 843 846 849 852 855 858 861 864 867 870 873 876 879 882 885 888 891 894 897 900 903 906 909 912 915 918 921 924 927 930 933 936 939 942 945 948 951 954 957 960 963 966 969 972 975 978 981 984 987 990 993 996 999 1002 1005 1008 1011 1014 1017 1020 1023 1026 1029 1032 1035 1038 1041 1044 1047 1050 1053 1056 1059 1062 1065 1068 1071 1074 1077 1080 1083 1086 1089 1092 1095 1098 1101 1104 1107 1110 1113 1116 1119 1122 1125 1128 1131 1134 1137 1140 1143 1146 1149 1152 1155 1158 1161 1164 1167 1170 1173 1176 1179 1182 1185 1188 1191 1194 1197 1200 1203 1206 1209 1212 1215 1218 1221 1224 1227 1230 1233 1236 1239 1242 1245 1248 1251 1254 1257 1260 1263 1266 1269 1272 1275 1278 1281 1284 1287 1290 1293 1296 1299 1302 1305 1308 1311 1314 1317 1320 1323 1326 1329 1332 1335 1338 1341 1344 1347 1350 1353 1356 1359 1362 1365 1368 1371 1374 1377 1380 1383 1386 1389 1392 1395 1398 1401 1404 1407 1410 1413 1416 1419 1422 1425 1428 1431 1434 1437 1440 1443 1446 1449 1452 1455 1458 1461 1464 1467 1470 1473 1476 1479 1482 1485 1488 1491 1494 1497 1500 1503 1506 1509 1512 1515 1518 1521 1524 1527 1530 1533 1536 1539 1542 1545 1548 1551 1554 1557 1560 1563 1566 1569 1572 1575 1578 1581 1584 1587 1590 1593 1596 1599 1602 1605 1608 1611 1614 1617 1620 1623 1626 1629 1632 1635 1638 1641 1644 1647 1650 1653 1656 1659 1662 1665 1668 1671 1674 1677 1680 1683 1686 1689 1692 1695 1698 1701 1704 1707 1710 1713 1716 1719 1722 1725 1728 1731 1734 1737 1740 1743 1746 1749 1752 1755 1758 1761 1764 1767 1770 1773 1776 1779 1782 1785 1788 1791 1794 1797 1800 1803 1806 1809 1812 1815 1818 1821 1824 1827 1830 1833 1836 1839 1842 1845 1848 1851 1854 1857 1860 1863 1866 1869 1872 1875 1878 1881 1884 1887 1890 1893 1896 1899 1902 1905 1908 1911 1914 1917 1920 1923 1926 1929 1932 1935 1938 1941 1944 1947 1950 1953 1956 1959 1962 1965 1968 1971 1974 1977 1980 1983 1986 1989 1992 1995 1998 2001 2004 2007 2010 2013 2016 2019 2022 2025 2028 2031 2034 2037 2040 2043 2046 2049 2052 2055 2058 2061 2064 2067 2070 2073 2076 2079 2082 2085 2088 2091 2094 2097 2100 2103 2106 2109 2112 2115 2118 2121 2124 2127 2130 2133 2136 2139 2142 2145 2148 2151 2154 2157 2160 2163 2166 2169 2172 2175 2178 2181 2184 2187 2190 2193 2196 2199 2202 2205 2208 2211 2214 2217 2220 2223 2226 2229 2232 2235 2238 2241 2244 2247 2250 2253 2256 2259 2262 2265 2268 2271 2274 2277 2280 2283 2286 2289 2292 2295 2298 2301 2304 2307 2310 2313 2316 2319 2322 2325 2328 2331 2334 2337 2340 2343 2346 2349 2352 2355 2358 2361 2364 2367 2370 2373 2376 2379 2382 2385 2388 2391 2394 2397 2400 2403 2406 2409 2412 2415 2418 2421 2424 2427 2430 2433 2436 2439 2442 2445 2448 2451 2454 2457 2460 2463 2466 2469 2472 2475 2478 2481 2484 2487 2490 2493 2496 2499 2502 2505 2508 2511 2514 2517 2520 2523 2526 2529 2532 2535 2538 2541 2544 2547 2550 2553 2556 2559 2562 2565 2568 2571 2574 2577 2580 2583 2586 2589 2592 2595 2598 2601 2604 2607 2610 2613 2616 2619 2622 </DataArray>
<DataArray  type="UInt8"  Name="types"  format="ascii">5 5 5 5 5 5 5 5 5 5 5 5 5 5 5 5 5 5 5 5 5 5 5 5 5 5 5 5 5 5 5 5 5 5 5 5 5 5 5 5 5 5 5 5 5 5 5 5 5 5 5 5 5 5 5 5 5 5 5 5 5 5 5 5 5 5 5 5 5 5 5 5 5 5 5 5 5 5 5 5 5 5 5 5 5 5 5 5 5 5 5 5 5 5 5 5 5 5 5 5 5 5 5 5 5 5 5 5 5 5 5 5 5 5 5 5 5 5 5 5 5 5 5 5 5 5 5 5 5 5 5 5 5 5 5 5 5 5 5 5 5 5 5 5 5 5 5 5 5 5 5 5 5 5 5 5 5 5 5 5 5 5 5 5 5 5 5 5 5 5 5 5 5 5 5 5 5 5 5 5 5 5 5 5 5 5 5 5 5 5 5 5 5 5 5 5 5 5 5 5 5 5 5 5 5 5 5 5 5 5 5 5 5 5 5 5 5 5 5 5 5 5 5 5 5 5 5 5 5 5 5 5 5 5 5 5 5 5 5 5 5 5 5 5 5 5 5 5 5 5 5 5 5 5 5 5 5 5 5 5 5 5 5 5 5 5 5 5 5 5 5 5 5 5 5 5 5 5 5 5 5 5 5 5 5 5 5 5 5 5 5 5 5 5 5 5 5 5 5 5 5 5 5 5 5 5 5 5 5 5 5 5 5 5 5 5 5 5 5 5 5 5 5 5 5 5 5 5 5 5 5 5 5 5 5 5 5 5 5 5 5 5 5 5 5 5 5 5 5 5 5 5 5 5 5 5 5 5 5 5 5 5 5 5 5 5 5 5 5 5 5 5 5 5 5 5 5 5 5 5 5 5 5 5 5 5 5 5 5 5 5 5 5 5 5 5 5 5 5 5 5 5 5 5 5 5 5 5 5 5 5 5 5 5 5 5 5 5 5 5 5 5 5 5 5 5 5 5 5 5 5 5 5 5 5 5 5 5 5 5 5 5 5 5 5 5 5 5 5 5 5 5 5 5 5 5 5 5 5 5 5 5 5 5 5 5 5 5 5 5 5 5 5 5 5 5 5 5 5 5 5 5 5 5 5 5 5 5 5 5 5 5 5 5 5 5 5 5 5 5 5 5 5 5 5 5 5 5 5 5 5 5 5 5 5 5 5 5 5 5 5 5 5 5 5 5 5 5 5 5 5 5 5 5 5 5 5 5 5 5 5 5 5 5 5 5 5 5 5 5 5 5 5 5 5 5 5 5 5 5 5 5 5 5 5 5 5 5 5 5 5 5 5 5 5 5 5 5 5 5 5 5 5 5 5 5 5 5 5 5 5 5 5 5 5 5 5 5 5 5 5 5 5 5 5 5 5 5 5 5 5 5 5 5 5 5 5 5 5 5 5 5 5 5 5 5 5 5 5 5 5 5 5 5 5 5 5 5 5 5 5 5 5 5 5 5 5 5 5 5 5 5 5 5 5 5 5 5 5 5 5 5 5 5 5 5 5 5 5 5 5 5 5 5 5 5 5 5 5 5 5 5 5 5 5 5 5 5 5 5 5 5 5 5 5 5 5 5 5 5 5 5 5 5 5 5 5 5 5 5 5 5 5 5 5 5 5 5 5 5 5 5 5 5 5 5 5 5 5 5 5 5 5 5 5 5 5 5 5 5 5 5 5 5 5 5 5 5 5 5 5 5 5 5 5 5 5 5 5 5 5 5 5 5 5 5 5 5 5 5 5 5 5 5 5 5 5 5 5 5 5 5 5 5 5 5 5 5 5 5 5 5 5 5 5 5 5 5 5 5 5 5 5 5 5 5 5 5 5 5 5 5 5 5 5 5 5 5 5 5 5 5 5 5 5 5 5 5 5 5 5 5 5 5 5 5 5 5 5 5 5 5 5 5 5 5 5 5 5 5 5 5 5 5 5 5 5 5 5 5 5 5 5 5 5 5 5 5 5 5 5 5 5 5 </DataArray>
</Cells>
<CellData  Scalars="f">
<DataArray  type="Float64"  Name="f"  format="ascii">3 3 3 3 3 3 3 3 3 3 3 3 3 3 3 3 3 3 3 3 3 3 3 3 3 3 3 3 3 3 3 3 3 3 3 3 3 3 3 3 3 3 3 3 3 3 3 3 3 3 3 3 3 3 3 3 3 3 3 3 3 3 3 3 3 3 3 3 3 3 3 3 3 3 3 3 3 3 3 3 3 3 3 3 3 3 3 3 3 3 3 3 3 3 3 3 3 3 3 3 3 3 3 3 3 3 3 3 3 3 3 3 3 3 3 3 3 3 3 3 3 3 3 3 3 3 3 3 3 3 3 3 3 3 3 3 3 3 3 3 3 3 3 3 3 3 3 3 3 3 3 3 3 3 3 3 3 3 3 3 3 3 3 3 3 3 3 3 3 3 3 3 3 3 3 3 3 3 3 3 3 3 3 3 3 3 3 3 3 3 3 3 3 3 3 3 3 3 3 3 3 3 3 3 3 3 3 3 3 3 3 3 3 3 3 3 1 1 3 3 1 3 3 3 3 3 3 3 1 3 3 3 3 3 3 3 3 3 3 3 3 3 3 3 3 3 3 3 3 3 3 3 3 3 3 3 3 3 3 3 3 3 3 3 3 3 3 3 3 3 3 3 3 3 3 3 3 3 3 3 3 3 3 3 3 3 3 3 3 3 3 3 3 3 3 3 3 3 3 3 3 3 1 3 3 3 3 3 1 3 1 3 3 3 3 1 3 3 3 3 3 3 3 3 3 3 3 3 3 3 3 3 3 3 3 3 3 3 3 3 3 3 3 3 3 3 3 3 3 3 3 3 3 3 3 3 3 3 3 3 3 3 3 3 3 3 3 3 3 3 3 3 3 3 3 3 3 3 3 3 3 3 3 3 3 3 3 3 3 3 3 3 3 3 3 3 3 3 3 3 3 3 1 1 1 1 3 1 3 3 3 3 3 3 3 1 3 3 3 3 3 1 3 3 3 3 3 3 1 3 3 3 3 3 3 3 1 3 1 3 3 3 3 3 3 3 3 3 1 3 3 1 3 3 3 3 3 3 3 3 3 3 3 3 3 3 3 3 3 3 3 3 3 3 3 3 3 3 3 3 3 3 3 3 3 3 3 1 3 1 3 3 3 3 3 3 3 3 3 3 3 3 3 3 3 3 3 3 3 3 3 3 3 3 3 3 3 3 1 3 3 3 3 3 3 3 3 3 3 3 3 3 3 3 3 3 3 3 3 3 3 3 3 3 3 3 3 3 1 1 3 3 3 3 3 3 3 3 3 3 3 3 3 3 3 3 3 3 3 3 3 3 3 3 3 3 3 3 3 3 3 3 3 3 3 3 3 3 3 3 3 3 3 3 3 3 3 3 3 3 3 3 3 3 3 3 3 3 3 3 3 3 3 3 3 3 3 3 3 3 3 3 3 3 3 3 3 3 3 3 3 3 3 3 3 3 3 3 3 3 3 3 3 3 3 3 3 3 3 3 3 3 3 3 3 3 3 3 3 3 3 3 3 3 3 3 3 3 3 3 3 3 3 3 3 3 3 3 3 3 3 3 3 3 3 3 3 3 3 3 3 3 3 3 3 3 3 3 3 3 3 3 3 3 3 3 3 3 3 3 3 3 3 3 3 3 3 3 3 3 3 3 3 3 3 3 3 3 3 3 3 3 3 3 3 3 3 3 3 3 1 3 3 3 3 3 1 3 1 3 3 3 3 1 3 3 3 3 3 3 3 3 3 3 3 3 3 3 3 3 3 3 3 3 3 3 3 3 3 3 3 3 3 3 3 3 3 3 3 3 3 3 3 3 3 3 3 3 3 3 3 3 3 3 3 3 3 3 3 3 3 3 3 3 3 3 3 3 3 3 3 3 3 3 3 3 3 3 3 3 3 3 3 3 3 3 3 3 3 3 3 3 3 3 3 3 3 3 3 3 3 3 3 3 3 3 3 3 3 3 3 3 3 3 3 3 3 3 3 3 3 3 3 3 </DataArray>
</CellData>
</Piece>
</UnstructuredGrid>
</VTKFile>