<?xml version="1.0"?>
<VTKFile type="UnstructuredGrid"  version="0.1"  >
<UnstructuredGrid>
<Piece  NumberOfPoints="130" NumberOfCells="911">
<Points>
<DataArray  type="Float64"  NumberOfComponents="3"  format="ascii">20 20 0  25 20 5  25 20 0  25 15 5  25 15 0  30 20 0  30 20 5  30 20 10  20 20 5  20 20 10  25 20 10  25 25 5  25 25 0  30 25 5  30 25 0  30 30 0  30 30 5  30 30 10  30 25 10  25 25 10  20 25 0  20 30 0  25 30 5  25 30 0  20 25 10  20 30 10  25 30 10  20 30 5  35 25 5  35 25 0  35 30 5  35 30 0  40 30 0  40 30 5  40 30 10  35 25 10  35 30 10  25 35 5  25 35 0  30 35 5  30 35 0  30 40 0  30 35 10  25 35 10  35 35 5  35 35 0  40 35 5  40 35 0  35 35 10  25 25 15  30 25 15  30 30 15  30 30 20  25 30 15  35 25 15  35 30 15  40 30 15  40 30 20  35 30 20  25 35 15  30 35 15  30 35 20  30 40 20  35 35 15  35 35 20  30 15 5  30 15 0  35 20 5  35 20 0  35 15 5  35 15 0  40 20 0  40 20 5  40 20 10  35 20 10  40 25 5  40 25 0  40 25 10  45 25 5  45 25 0  45 20 0  50 20 0  50 25 5  50 25 0  50 30 0  50 30 5  50 30 10  45 20 5  50 20 5  50 20 10  50 25 10  45 25 10  45 20 10  45 30 5  45 30 0  45 30 10  45 35 5  45 35 0  50 35 5  40 25 15  45 25 15  50 25 15  30 20 15  30 20 20  30 25 20  25 25 20  35 20 15  40 20 15  40 20 20  40 25 20  35 25 20  35 20 20  45 25 20  30 25 25  25 25 25  35 25 25  40 25 25  45 25 25  20 30 20  25 35 25  25 30 25  25 30 20  20 35 10  20 25 15  20 30 15  25 35 20  20 35 20  20 40 20  25 40 20  20 25 20  </DataArray>
</Points>
<Cells>
<DataArray  type="UInt32"  Name="connectivity"  format="ascii">0 2 1  0 3 1  0 1 8  0 1 11  0 3 2  0 4 2  0 2 11  0 2 12  0 4 3  0 3 8  0 8 11  0 12 11  0 11 20  0 12 20  3 2 1  5 2 1  2 1 11  5 3 1  3 1 6  7 3 1  3 1 8  9 3 1  3 1 10  5 1 6  5 1 11  7 1 6  1 11 6  7 1 10  7 1 11  9 1 8  1 8 11  9 1 10  9 1 11  1 11 10  4 3 2  5 3 2  5 4 2  5 2 11  5 2 12  2 12 11  5 4 3  4 3 66  5 3 6  5 3 65  5 3 66  7 3 6  3 6 65  7 3 10  7 3 65  9 3 8  9 3 10  3 66 65  5 4 66  5 11 6  5 6 13  5 6 28  5 6 65  5 6 67  5 6 69  5 12 11  5 11 13  5 11 14  5 12 14  5 14 13  5 13 28  5 14 28  5 14 29  5 29 28  5 28 67  5 28 68  5 29 68  5 66 65  5 65 69  5 66 69  5 66 70  5 68 67  5 69 67  5 69 68  5 70 68  5 70 69  7 11 6  7 6 13  7 6 28  7 6 65  7 6 67  7 6 69  11 6 13  6 13 28  6 28 67  6 65 69  6 69 67  7 11 10  7 10 19  7 10 49  7 11 13  7 11 18  7 11 19  7 13 18  7 13 28  7 18 19  7 28 18  7 18 35  7 18 49  7 18 50  7 18 54  7 19 49  7 28 35  7 28 67  7 28 74  7 35 54  7 35 74  7 50 49  7 49 102  7 50 54  7 50 102  7 54 74  7 54 102  7 54 106  7 65 69  7 69 67  7 67 74  7 69 74  7 74 106  7 102 106  9 8 11  9 11 10  9 10 19  9 10 49  9 11 19  9 11 24  9 19 24  9 19 49  9 24 49  9 24 123  9 49 123  11 10 19  10 19 49  12 11 14  15 12 11  12 11 20  21 12 11  12 11 23  11 14 13  15 11 13  11 13 16  17 11 13  11 13 18  15 11 14  15 11 16  15 11 22  15 11 23  17 11 16  11 16 22  17 11 18  17 11 19  17 11 22  17 11 26  11 18 19  11 19 24  25 11 19  11 19 26  21 11 20  21 11 22  21 11 23  21 11 27  11 23 22  25 11 22  11 22 26  11 22 27  25 11 24  25 11 26  25 11 27  15 12 14  15 12 23  21 12 20  21 12 23  15 14 13  14 13 28  15 13 16  15 13 28  17 13 16  13 28 16  17 13 18  17 13 28  13 28 18  15 14 28  15 14 29  14 29 28  15 16 22  15 28 16  15 16 30  15 16 37  15 16 39  15 16 44  15 23 22  15 22 37  15 23 37  15 23 38  15 29 28  15 28 30  15 28 31  15 29 31  15 31 30  15 30 44  15 31 44  15 31 45  15 38 37  15 39 37  15 40 37  15 40 38  15 40 39  15 39 44  15 40 44  15 40 45  15 45 44  17 16 22  17 28 16  17 16 30  17 16 37  17 16 39  17 16 44  16 22 37  28 16 30  16 30 44  16 39 37  16 39 44  17 18 19  17 28 18  17 18 35  17 18 49  17 18 50  17 18 54  17 19 26  17 19 49  17 22 26  17 22 37  17 26 37  17 26 43  17 49 26  17 26 53  17 26 59  17 28 30  17 28 35  17 28 36  17 30 36  17 30 44  17 35 36  17 35 54  17 44 36  17 36 48  17 54 36  17 36 55  17 36 63  17 39 37  17 42 37  17 37 43  17 39 42  17 39 44  17 42 43  17 44 42  17 42 48  17 42 59  17 42 60  17 42 63  17 43 59  17 44 48  17 48 63  17 50 49  17 49 51  17 49 53  17 50 51  17 50 54  17 51 53  17 54 51  17 51 55  17 51 59  17 51 60  17 51 63  17 53 59  17 54 55  17 55 63  17 60 59  17 60 63  18 19 49  28 18 35  18 35 54  18 50 49  18 50 54  25 19 24  19 24 49  25 19 26  25 19 49  19 49 26  21 23 22  21 22 27  21 22 37  21 23 37  21 23 38  21 27 37  21 38 37  23 22 37  25 22 26  25 22 27  25 22 37  22 26 37  22 27 37  23 38 37  25 24 49  25 24 123  24 49 123  25 26 37  25 26 43  25 49 26  25 26 53  25 26 59  25 27 37  25 37 43  25 37 122  25 43 59  25 43 122  25 49 53  25 49 123  25 49 124  25 53 59  25 53 124  25 59 122  25 59 124  25 124 123  26 37 43  26 43 59  49 26 53  26 53 59  29 28 31  32 29 28  29 28 68  71 29 28  29 28 76  28 31 30  32 28 30  28 30 33  34 28 30  28 30 36  32 28 31  32 28 33  32 28 75  32 28 76  34 28 33  28 33 75  34 28 35  34 28 36  34 28 75  34 28 77  28 35 36  73 28 35  28 35 74  28 35 77  28 68 67  71 28 67  28 67 72  73 28 67  28 67 74  71 28 68  71 28 72  71 28 75  71 28 76  73 28 72  28 72 75  73 28 74  73 28 75  73 28 77  28 76 75  28 75 77  32 29 31  32 29 76  71 29 68  71 29 76  32 31 30  31 30 44  32 30 33  32 30 44  34 30 33  30 44 33  34 30 36  34 30 44  30 44 36  32 31 44  32 31 45  31 45 44  32 44 33  32 33 46  32 33 75  32 33 78  32 33 93  32 33 96  32 45 44  32 44 46  32 44 47  32 45 47  32 47 46  32 46 96  32 47 96  32 47 97  32 76 75  32 75 78  32 76 78  32 76 79  32 79 78  32 78 93  32 78 94  32 79 94  32 94 93  32 93 96  32 94 96  32 94 97  32 97 96  34 44 33  34 33 46  34 33 75  34 33 78  34 33 93  34 33 96  44 33 46  33 46 96  33 75 78  33 78 93  33 93 96  34 35 36  34 35 54  34 35 77  34 44 36  34 36 48  34 54 36  34 36 55  34 36 63  34 44 46  34 44 48  34 46 96  34 48 63  34 54 55  34 54 56  34 54 77  34 54 99  34 55 56  34 55 63  34 63 56  34 56 99  34 56 100  34 75 77  34 75 78  34 78 77  34 77 91  34 77 99  34 77 100  34 78 91  34 78 93  34 78 95  34 91 95  34 91 100  34 93 95  34 93 96  34 96 95  34 100 95  34 99 100  35 54 36  73 35 54  35 54 74  35 54 77  73 35 74  73 35 77  44 36 48  36 48 63  54 36 55  36 55 63  40 38 37  41 38 37  40 39 37  41 39 37  39 42 37  41 40 37  42 37 43  37 43 122  41 40 38  41 40 39  40 39 44  41 39 44  39 44 42  41 40 44  41 40 45  40 45 44  41 45 44  42 43 59  44 42 48  42 48 63  42 60 59  42 60 63  43 59 122  45 44 47  44 47 46  47 46 96  47 97 96  50 49 51  52 50 49  50 49 102  103 50 49  50 49 104  52 49 51  49 51 53  52 49 53  52 49 104  52 49 105  52 49 121  118 49 53  49 53 121  49 53 124  103 49 102  103 49 104  103 49 105  49 104 105  118 49 105  49 105 121  49 105 129  118 49 121  118 49 123  118 49 124  118 49 129  49 124 123  49 123 129  52 50 51  50 54 51  52 50 54  52 50 104  50 54 102  103 50 54  50 54 104  103 50 102  103 50 104  52 51 53  52 54 51  52 51 55  52 51 59  52 51 60  52 51 63  51 53 59  54 51 55  51 55 63  51 60 59  51 60 63  52 53 59  52 53 121  52 54 55  52 58 54  52 54 104  52 54 110  52 58 55  52 55 63  52 58 63  52 58 64  52 58 110  52 58 115  52 60 59  52 61 59  52 59 121  52 59 125  52 61 60  52 60 63  52 61 63  52 64 61  52 61 119  52 61 125  52 64 63  52 104 105  52 104 110  52 104 113  52 104 114  52 104 115  52 105 114  52 105 121  52 110 115  52 113 114  52 113 115  52 114 120  52 114 121  52 120 119  52 121 119  52 119 125  52 121 120  52 121 125  118 53 59  53 59 121  53 59 124  118 53 121  118 53 124  54 55 56  57 54 55  58 54 55  57 54 56  54 56 99  57 58 54  57 54 99  57 54 109  57 54 110  58 54 110  73 54 74  73 54 77  73 54 99  73 54 106  73 54 107  54 74 106  54 77 99  54 99 107  108 54 99  54 99 109  103 54 102  54 102 106  103 54 104  103 54 106  103 54 110  103 54 111  54 104 110  54 106 107  108 54 106  54 106 111  108 54 107  108 54 109  108 54 110  108 54 111  54 110 109  54 111 110  57 55 56  55 63 56  57 58 55  57 55 63  58 55 63  57 63 56  57 56 99  57 56 100  56 99 100  57 58 63  57 58 64  57 58 110  57 58 115  57 64 63  57 99 100  57 99 109  57 100 109  57 100 112  57 110 109  57 109 112  57 115 109  57 109 116  57 109 117  57 110 115  57 112 117  57 115 116  57 116 117  58 64 63  58 110 115  61 60 59  62 60 59  62 61 59  61 59 125  62 59 125  62 59 128  118 59 121  118 59 124  118 59 125  118 59 126  59 121 125  59 126 125  127 59 125  59 125 128  127 59 126  127 59 128  62 61 60  61 60 63  62 60 63  62 61 63  62 64 61  62 61 119  62 61 125  64 61 63  61 119 125  62 64 63  62 119 125  62 119 128  62 125 128  66 65 69  66 70 69  69 68 67  71 68 67  71 69 67  69 67 72  73 69 67  69 67 74  71 67 72  73 67 72  73 67 74  70 69 68  71 69 68  71 70 68  71 70 69  71 69 72  73 69 72  73 69 74  71 72 75  71 72 78  71 72 87  71 76 75  71 75 78  71 76 78  71 76 79  71 79 78  71 80 78  71 87 78  71 80 79  71 80 87  73 72 75  73 72 78  73 72 87  72 75 78  72 87 78  73 74 106  73 75 77  73 75 78  73 78 77  73 77 91  73 77 99  73 77 100  73 87 78  73 78 91  73 78 92  73 87 92  73 92 91  73 91 100  73 92 100  73 99 100  73 99 107  73 100 107  73 106 107  76 75 78  75 78 77  76 79 78  78 77 91  77 91 100  77 99 100  80 79 78  81 79 78  79 78 83  84 79 78  79 78 94  81 80 78  80 87 78  81 78 82  81 78 83  81 87 78  81 78 88  78 83 82  84 78 82  78 82 85  86 78 82  78 88 82  89 78 82  78 82 90  84 78 83  84 78 85  84 78 93  84 78 94  86 78 85  78 93 85  86 78 90  86 78 91  86 78 93  86 78 95  87 78 88  89 87 78  87 78 92  89 78 88  89 78 90  89 78 91  89 78 92  78 91 90  78 92 91  78 91 95  78 94 93  78 93 95  81 80 79  81 79 83  84 79 83  84 79 94  81 80 87  81 83 82  81 88 82  81 87 88  84 83 82  84 82 85  86 82 85  86 82 90  89 88 82  89 82 90  84 93 85  84 96 85  84 85 98  84 94 93  84 93 96  84 94 96  84 94 97  84 97 96  84 96 98  86 93 85  86 96 85  86 85 98  93 96 85  96 85 98  86 91 90  86 100 90  86 90 101  86 91 95  86 91 100  86 93 95  86 93 96  86 96 95  86 100 95  86 96 98  86 100 101  89 87 88  89 87 92  89 91 90  89 100 90  89 90 101  89 92 91  89 91 100  89 92 100  89 100 101  91 100 90  100 90 101  92 91 100  91 100 95  94 93 96  93 96 95  94 97 96  99 100 107  108 99 100  99 100 109  108 99 107  108 99 109  108 100 107  108 100 109  108 100 112  100 109 112  103 102 106  103 104 105  103 104 110  103 104 113  103 104 114  103 104 115  103 105 114  103 106 111  103 111 110  103 110 115  103 111 115  103 113 114  103 113 115  104 105 114  104 110 115  104 113 114  104 113 115  118 105 114  105 114 121  105 114 129  118 105 121  118 105 129  108 106 107  108 106 111  108 110 109  108 109 112  108 115 109  108 109 116  108 109 117  108 111 110  108 110 115  108 111 115  108 112 117  108 115 116  108 116 117  110 115 109  109 112 117  115 109 116  109 116 117  111 110 115  118 114 120  118 114 121  118 114 129  114 121 120  118 120 119  118 121 119  118 119 125  118 126 119  118 121 120  118 121 125  118 124 123  118 123 129  118 126 125  121 120 119  121 119 125  126 119 125  127 119 125  119 125 128  127 126 119  127 119 128  127 126 125  127 125 128  </DataArray>
<DataArray  type="UInt32"  Name="offsets"  format="ascii">3 6 9 12 15 18 21 24 27 30 33 36 39 42 45 48 51 54 57 60 63 66 69 72 75 78 81 84 87 90 93 96 99 102 105 108 111 114 117 120 123 126 129 132 135 138 141 144 147 150 153 156 159 162 165 168 171 174 177 180 183 186 189 192 195 198 201 204 207 210 213 216 219 222 225 228 231 234 237 240 243 246 249 252 255 258 261 264 267 270 273 276 279 282 285 288 291 294 297 300 303 306 309 312 315 318 321 324 327 330 333 336 339 342 345 348 351 354 357 360 363 366 369 372 375 378 381 384 387 390 393 396 399 402 405 408 411 414 417 420 423 426 429 432 435 438 441 444 447 450 453 456 459 462 465 468 471 474 477 480 483 486 489 492 495 498 501 504 507 510 513 516 519 522 525 528 531 534 537 540 543 546 549 552 555 558 561 564 567 570 573 576 579 582 585 588 591 594 597 600 603 606 609 612 615 618 621 624 627 630 633 636 639 642 645 648 651 654 657 660 663 666 669 672 675 678 681 684 687 690 693 696 699 702 705 708 711 714 717 720 723 726 729 732 735 738 741 744 747 750 753 756 759 762 765 768 771 774 777 780 783 786 789 792 795 798 801 804 807 810 813 816 819 822 825 828 831 834 837 840 843 846 849 852 855 858 861 864 867 870 873 876 879 882 885 888 891 894 897 900 903 906 909 912 915 918 921 924 927 930 933 936 939 942 945 948 951 954 957 960 963 966 969 972 975 978 981 984 987 990 993 996 999 1002 1005 1008 1011 1014 1017 1020 1023 1026 1029 1032 1035 1038 1041 1044 1047 1050 1053 1056 1059 1062 1065 1068 1071 1074 1077 1080 1083 1086 1089 1092 1095 1098 1101 1104 1107 1110 1113 1116 1119 1122 1125 1128 1131 1134 1137 1140 1143 1146 1149 1152 1155 1158 1161 1164 1167 1170 1173 1176 1179 1182 1185 1188 1191 1194 1197 1200 1203 1206 1209 1212 1215 1218 1221 1224 1227 1230 1233 1236 1239 1242 1245 1248 1251 1254 1257 1260 1263 1266 1269 1272 1275 1278 1281 1284 1287 1290 1293 1296 1299 1302 1305 1308 1311 1314 1317 1320 1323 1326 1329 1332 1335 1338 1341 1344 1347 1350 1353 1356 1359 1362 1365 1368 1371 1374 1377 1380 1383 1386 1389 1392 1395 1398 1401 1404 1407 1410 1413 1416 1419 1422 1425 1428 1431 1434 1437 1440 1443 1446 1449 1452 1455 1458 1461 1464 1467 1470 1473 1476 1479 1482 1485 1488 1491 1494 1497 1500 1503 1506 1509 1512 1515 1518 1521 1524 1527 1530 1533 1536 1539 1542 1545 1548 1551 1554 1557 1560 1563 1566 1569 1572 1575 1578 1581 1584 1587 1590 1593 1596 1599 1602 1605 1608 1611 1614 1617 1620 1623 1626 1629 1632 1635 1638 1641 1644 1647 1650 1653 1656 1659 1662 1665 1668 1671 1674 1677 1680 1683 1686 1689 1692 1695 1698 1701 1704 1707 1710 1713 1716 1719 1722 1725 1728 1731 1734 1737 1740 1743 1746 1749 1752 1755 1758 1761 1764 1767 1770 1773 1776 1779 1782 1785 1788 1791 1794 1797 1800 1803 1806 1809 1812 1815 1818 1821 1824 1827 1830 1833 1836 1839 1842 1845 1848 1851 1854 1857 1860 1863 1866 1869 1872 1875 1878 1881 1884 1887 1890 1893 1896 1899 1902 1905 1908 1911 1914 1917 1920 1923 1926 1929 1932 1935 1938 1941 1944 1947 1950 1953 1956 1959 1962 1965 1968 1971 1974 1977 1980 1983 1986 1989 1992 1995 1998 2001 2004 2007 2010 2013 2016 2019 2022 2025 2028 2031 2034 2037 2040 2043 2046 2049 2052 2055 2058 2061 2064 2067 2070 2073 2076 2079 2082 2085 2088 2091 2094 2097 2100 2103 2106 2109 2112 2115 2118 2121 2124 2127 2130 2133 2136 2139 2142 2145 2148 2151 2154 2157 2160 2163 2166 2169 2172 2175 2178 2181 2184 2187 2190 2193 2196 2199 2202 2205 2208 2211 2214 2217 2220 2223 2226 2229 2232 2235 2238 2241 2244 2247 2250 2253 2256 2259 2262 2265 2268 2271 2274 2277 2280 2283 2286 2289 2292 2295 2298 2301 2304 2307 2310 2313 2316 2319 2322 2325 2328 2331 2334 2337 2340 2343 2346 2349 2352 2355 2358 2361 2364 2367 2370 2373 2376 2379 2382 2385 2388 2391 2394 2397 2400 2403 2406 2409 2412 2415 2418 2421 2424 2427 2430 2433 2436 2439 2442 2445 2448 2451 2454 2457 2460 2463 2466 2469 2472 2475 2478 2481 2484 2487 2490 2493 2496 2499 2502 2505 2508 2511 2514 2517 2520 2523 2526 2529 2532 2535 2538 2541 2544 2547 2550 2553 2556 2559 2562 2565 2568 2571 2574 2577 2580 2583 2586 2589 2592 2595 2598 2601 2604 2607 2610 2613 2616 2619 2622 2625 2628 2631 2634 2637 2640 2643 2646 2649 2652 2655 2658 2661 2664 2667 2670 2673 2676 2679 2682 2685 2688 2691 2694 2697 2700 2703 2706 2709 2712 2715 2718 2721 2724 2727 2730 2733 </DataArray>
<DataArray  type="UInt8"  Name="types"  format="ascii">5 5 5 5 5 5 5 5 5 5 5 5 5 5 5 5 5 5 5 5 5 5 5 5 5 5 5 5 5 5 5 5 5 5 5 5 5 5 5 5 5 5 5 5 5 5 5 5 5 5 5 5 5 5 5 5 5 5 5 5 5 5 5 5 5 5 5 5 5 5 5 5 5 5 5 5 5 5 5 5 5 5 5 5 5 5 5 5 5 5 5 5 5 5 5 5 5 5 5 5 5 5 5 5 5 5 5 5 5 5 5 5 5 5 5 5 5 5 5 5 5 5 5 5 5 5 5 5 5 5 5 5 5 5 5 5 5 5 5 5 5 5 5 5 5 5 5 5 5 5 5 5 5 5 5 5 5 5 5 5 5 5 5 5 5 5 5 5 5 5 5 5 5 5 5 5 5 5 5 5 5 5 5 5 5 5 5 5 5 5 5 5 5 5 5 5 5 5 5 5 5 5 5 5 5 5 5 5 5 5 5 5 5 5 5 5 5 5 5 5 5 5 5 5 5 5 5 5 5 5 5 5 5 5 5 5 5 5 5 5 5 5 5 5 5 5 5 5 5 5 5 5 5 5 5 5 5 5 5 5 5 5 5 5 5 5 5 5 5 5 5 5 5 5 5 5 5 5 5 5 5 5 5 5 5 5 5 5 5 5 5 5 5 5 5 5 5 5 5 5 5 5 5 5 5 5 5 5 5 5 5 5 5 5 5 5 5 5 5 5 5 5 5 5 5 5 5 5 5 5 5 5 5 5 5 5 5 5 5 5 5 5 5 5 5 5 5 5 5 5 5 5 5 5 5 5 5 5 5 5 5 5 5 5 5 5 5 5 5 5 5 5 5 5 5 5 5 5 5 5 5 5 5 5 5 5 5 5 5 5 5 5 5 5 5 5 5 5 5 5 5 5 5 5 5 5 5 5 5 5 5 5 5 5 5 5 5 5 5 5 5 5 5 5 5 5 5 5 5 5 5 5 5 5 5 5 5 5 5 5 5 5 5 5 5 5 5 5 5 5 5 5 5 5 5 5 5 5 5 5 5 5 5 5 5 5 5 5 5 5 5 5 5 5 5 5 5 5 5 5 5 5 5 5 5 5 5 5 5 5 5 5 5 5 5 5 5 5 5 5 5 5 5 5 5 5 5 5 5 5 5 5 5 5 5 5 5 5 5 5 5 5 5 5 5 5 5 5 5 5 5 5 5 5 5 5 5 5 5 5 5 5 5 5 5 5 5 5 5 5 5 5 5 5 5 5 5 5 5 5 5 5 5 5 5 5 5 5 5 5 5 5 5 5 5 5 5 5 5 5 5 5 5 5 5 5 5 5 5 5 5 5 5 5 5 5 5 5 5 5 5 5 5 5 5 5 5 5 5 5 5 5 5 5 5 5 5 5 5 5 5 5 5 5 5 5 5 5 5 5 5 5 5 5 5 5 5 5 5 5 5 5 5 5 5 5 5 5 5 5 5 5 5 5 5 5 5 5 5 5 5 5 5 5 5 5 5 5 5 5 5 5 5 5 5 5 5 5 5 5 5 5 5 5 5 5 5 5 5 5 5 5 5 5 5 5 5 5 5 5 5 5 5 5 5 5 5 5 5 5 5 5 5 5 5 5 5 5 5 5 5 5 5 5 5 5 5 5 5 5 5 5 5 5 5 5 5 5 5 5 5 5 5 5 5 5 5 5 5 5 5 5 5 5 5 5 5 5 5 5 5 5 5 5 5 5 5 5 5 5 5 5 5 5 5 5 5 5 5 5 5 5 5 5 5 5 5 5 5 5 5 5 5 5 5 5 5 5 5 5 5 5 5 5 5 5 5 5 5 5 5 5 5 5 5 5 5 5 5 5 5 5 5 5 5 5 5 5 5 5 5 5 5 5 5 5 5 5 5 5 5 5 5 5 5 5 5 5 5 5 5 5 5 5 5 5 5 5 5 5 5 5 5 5 5 5 5 5 5 5 5 5 5 5 5 5 5 5 5 5 5 5 5 5 5 5 5 5 5 5 5 5 5 5 5 5 5 5 5 5 5 5 5 5 5 5 5 5 5 5 5 </DataArray>
</Cells>
<CellData  Scalars="f">
<DataArray  type="Float64"  Name="f"  format="ascii">3 3 3 3 3 3 3 3 3 3 3 3 3 3 3 3 3 3 3 3 3 3 3 3 3 3 3 3 3 3 3 3 3 3 3 3 3 3 3 3 3 3 3 3 3 3 3 3 3 3 3 3 3 3 3 3 3 3 3 3 3 3 3 3 3 3 3 3 3 3 3 3 3 3 3 3 3 3 3 3 3 3 3 3 3 3 3 3 3 3 3 3 3 3 3 3 3 3 3 3 3 3 3 3 3 3 3 3 3 3 3 3 3 3 3 3 3 3 3 3 3 3 3 3 3 3 3 3 3 3 3 3 3 3 3 3 3 3 3 3 3 3 3 3 3 3 3 3 3 3 3 3 3 3 3 3 3 3 3 3 3 3 3 3 3 3 3 3 3 3 3 3 3 3 3 3 3 3 3 3 3 3 3 3 3 3 3 3 3 3 3 3 3 3 3 3 3 3 3 3 3 3 3 3 3 3 3 3 3 3 3 3 3 3 3 3 3 3 3 3 3 3 3 3 3 3 3 3 3 3 3 3 3 3 3 3 3 3 3 3 3 3 3 3 3 3 3 3 3 3 3 3 3 3 3 3 3 3 3 3 3 3 3 3 3 3 3 3 3 3 3 3 3 3 3 3 3 3 3 3 3 3 3 3 3 3 3 3 3 3 3 3 3 3 3 3 3 3 3 3 3 3 3 3 3 3 3 3 3 3 3 3 3 3 3 3 3 3 3 3 3 3 3 3 3 3 3 3 3 3 3 3 3 3 3 3 3 3 3 3 3 3 3 3 3 3 3 3 3 3 3 3 3 3 3 3 3 3 3 3 3 3 3 3 3 3 3 3 3 3 3 3 3 3 3 3 3 3 3 3 3 3 3 3 3 3 3 3 3 3 3 3 3 3 3 3 3 3 3 3 3 3 3 3 3 3 3 3 3 3 3 3 3 3 3 3 3 3 3 3 3 3 3 3 3 3 3 3 3 3 3 3 3 3 3 3 3 3 3 3 3 3 3 3 3 3 3 3 3 3 3 3 3 3 3 3 3 3 3 3 3 3 3 3 3 3 3 3 3 3 3 3 3 3 3 3 3 3 3 3 3 3 3 3 3 3 3 3 3 3 3 3 3 3 3 3 3 3 3 3 3 3 3 3 3 3 3 3 3 3 3 3 3 3 3 3 3 3 3 3 3 3 3 3 3 3 3 3 3 3 3 3 3 3 3 3 3 3 3 3 3 3 3 3 3 3 3 3 3 3 3 3 3 3 3 3 3 3 3 3 3 3 3 3 3 3 3 3 3 3 3 3 3 3 3 3 3 3 3 3 3 3 3 3 3 3 3 3 3 3 3 3 3 3 3 3 3 3 3 3 3 3 3 3 3 3 3 3 3 3 3 3 3 3 3 3 3 3 3 3 3 3 3 3 3 3 3 3 3 3 3 3 3 3 3 3 3 3 3 3 3 3 3 3 3 3 3 3 3 3 3 3 3 3 3 3 3 3 3 3 3 3 3 3 3 3 3 3 3 3 3 3 3 3 3 3 3 3 3 3 3 3 3 3 3 3 3 3 3 3 3 3 3 3 3 3 3 3 3 3 3 3 3 3 3 3 3 3 3 3 3 3 3 3 3 3 3 3 3 3 3 3 3 3 3 3 3 3 3 3 3 3 3 3 3 3 3 3 3 3 3 3 3 3 3 3 3 3 3 3 3 3 3 3 3 3 3 3 3 3 3 3 3 3 3 3 3 3 3 3 3 3 3 3 3 3 3 3 3 3 3 3 3 3 3 3 3 3 3 3 2 2 3 2 2 2 2 2 2 3 3 2 3 3 3 3 3 3 3 3 2 3 3 3 3 2 3 3 3 3 3 3 3 3 3 3 3 3 2 3 3 3 3 3 3 3 3 3 3 3 3 3 3 3 3 3 3 3 3 3 3 3 3 3 3 3 3 3 3 3 3 3 3 3 3 3 3 3 3 3 3 3 3 3 3 3 3 3 3 3 3 3 3 3 3 3 3 3 3 3 3 3 3 3 3 3 3 3 3 3 3 3 3 3 3 3 3 3 3 3 3 </DataArray>
</CellData>
</Piece>
</UnstructuredGrid>
</VTKFile>