<?xml version="1.0"?>
<VTKFile type="UnstructuredGrid"  version="0.1"  >
<UnstructuredGrid>
<Piece  NumberOfPoints="132" NumberOfCells="922">
<Points>
<DataArray  type="Float64"  NumberOfComponents="3"  format="ascii">20 30 20  20 35 25  20 35 20  15 35 25  20 40 20  20 40 25  20 40 30  20 30 25  15 30 25  20 30 30  20 35 30  10 30 30  15 35 30  15 30 30  15 40 25  15 40 20  15 40 30  25 35 25  25 30 25  25 35 30  25 30 30  30 30 30  25 40 30  30 40 30  25 40 25  20 45 25  15 45 25  20 45 30  20 50 30  15 45 30  25 45 25  25 45 30  25 50 30  30 50 30  15 35 35  20 35 35  20 40 35  20 40 40  15 40 35  15 40 40  25 35 35  25 40 35  25 40 40  30 40 40  20 45 35  15 45 35  20 50 35  20 50 40  20 45 40  15 45 40  15 50 35  15 50 40  25 45 35  25 45 40  25 50 35  25 50 40  30 50 40  15 30 35  20 30 35  20 30 40  20 35 40  10 30 35  10 30 40  15 35 40  15 30 40  25 30 35  25 35 40  25 30 40  30 30 40  30 35 40  15 35 45  20 35 45  20 40 45  20 40 50  15 30 45  20 30 45  20 30 50  20 35 50  10 30 45  10 30 50  15 35 50  15 30 50  15 40 45  15 40 50  25 35 45  25 30 45  30 30 45  30 30 50  25 35 50  25 30 50  30 35 50  30 40 50  25 40 45  25 40 50  20 45 45  15 45 45  20 50 45  20 50 50  20 45 50  15 45 50  15 50 45  15 50 50  25 45 45  25 45 50  25 50 45  25 50 50  30 50 50  25 40 20  30 40 20  20 50 25  25 50 25  20 25 25  15 25 25  20 25 20  20 25 30  15 25 30  25 25 30  25 25 25  20 25 35  15 25 35  25 25 35  30 25 40  25 25 40  25 25 45  30 25 50  25 25 50  15 25 40  20 25 45  15 25 45  20 20 50  20 25 50  15 25 50  </DataArray>
</Points>
<Cells>
<DataArray  type="UInt32"  Name="connectivity"  format="ascii">0 2 1  0 3 1  0 1 7  0 1 17  0 3 2  0 2 17  0 3 7  0 3 8  0 8 7  0 7 17  0 7 18  0 7 111  0 7 112  0 117 7  0 8 112  0 18 17  0 117 18  0 112 111  0 113 111  0 117 111  0 112 113  0 117 113  3 2 1  4 2 1  2 1 17  4 3 1  3 1 5  6 3 1  3 1 7  9 3 1  3 1 10  4 1 5  4 1 17  6 1 5  1 17 5  6 1 10  6 1 17  9 1 7  1 7 17  9 1 10  9 1 17  1 17 10  4 3 2  4 2 17  4 3 5  4 3 14  4 3 15  6 3 5  3 14 5  6 3 10  6 3 12  6 3 14  6 3 16  3 8 7  9 3 7  9 3 8  11 3 8  3 8 13  9 3 10  9 3 12  9 3 13  3 12 10  11 3 12  11 3 13  3 12 13  3 12 16  3 15 14  3 14 16  4 14 5  4 17 5  4 5 24  4 5 25  4 26 5  4 5 30  4 15 14  4 14 26  4 15 26  4 17 24  4 17 107  4 24 30  4 24 107  4 26 25  4 25 30  4 30 107  6 14 5  6 17 5  6 5 24  6 5 25  6 26 5  6 5 30  14 26 5  17 5 24  5 24 30  26 5 25  5 25 30  6 12 10  6 17 10  6 10 19  6 34 10  6 10 35  6 10 40  6 12 16  6 12 34  6 14 16  6 14 26  6 26 16  6 16 29  6 34 16  6 16 38  6 16 45  6 17 19  6 17 22  6 17 24  6 22 19  6 19 40  6 24 22  6 30 22  6 22 31  6 22 40  6 22 41  6 22 52  6 24 30  6 26 25  6 25 27  6 25 30  6 26 27  6 26 29  6 29 27  6 30 27  6 27 31  6 27 44  6 45 27  6 27 52  6 29 45  6 30 31  6 31 52  6 34 35  6 34 36  6 34 38  6 36 35  6 35 40  6 38 36  6 36 40  6 36 41  6 36 44  6 45 36  6 36 52  6 38 45  6 41 40  6 41 52  6 45 44  6 44 52  9 8 7  8 7 112  9 7 17  9 7 18  9 7 111  9 7 112  9 117 7  7 18 17  117 7 18  7 112 111  117 7 111  9 8 13  9 8 112  11 8 13  11 8 112  8 13 112  9 12 10  9 17 10  9 10 19  9 34 10  9 10 35  9 10 40  9 12 13  9 12 34  9 13 34  9 13 57  9 13 112  9 13 115  9 13 119  9 18 17  9 17 19  9 17 20  9 18 20  9 117 18  9 20 19  9 19 40  9 20 40  9 20 65  9 20 116  9 117 20  9 20 120  9 34 35  9 34 57  9 34 58  9 35 40  9 35 58  9 40 58  9 40 65  9 57 58  9 57 119  9 58 65  9 58 118  9 58 119  9 58 120  9 65 120  9 112 111  9 111 114  9 117 111  9 112 114  9 112 115  9 115 114  9 114 116  9 117 114  9 114 118  9 119 114  9 114 120  9 115 119  9 117 116  9 116 120  9 119 118  9 118 120  12 34 10  17 10 19  10 19 40  34 10 35  10 35 40  11 12 13  11 12 34  11 13 34  11 13 57  11 13 112  11 13 115  11 13 119  11 34 57  11 34 61  11 61 57  11 57 119  11 61 119  11 112 115  11 115 119  12 13 34  12 34 16  13 34 57  13 57 119  13 112 115  13 115 119  15 14 26  14 26 16  26 16 29  16 29 45  34 16 38  16 38 45  18 17 20  21 18 17  17 20 19  21 17 19  17 22 19  23 17 19  21 17 20  23 17 22  17 24 22  23 17 24  17 24 107  108 17 24  108 17 107  21 18 20  117 18 20  21 117 18  21 20 19  20 19 40  21 19 40  23 22 19  22 19 40  23 19 40  21 20 40  21 20 65  21 20 116  21 117 20  21 20 120  20 40 65  20 65 120  117 20 116  20 116 120  21 40 65  21 65 120  21 117 116  21 116 120  23 24 22  23 30 22  23 22 31  23 22 40  23 22 41  23 22 52  24 30 22  30 22 31  22 31 52  22 41 40  22 41 52  23 24 30  23 30 31  23 31 52  23 41 40  23 41 52  24 30 107  108 24 30  108 24 107  26 25 27  28 26 25  26 25 109  28 25 27  25 30 27  28 25 30  28 25 109  25 30 109  28 26 27  26 29 27  28 26 29  28 26 109  28 29 27  28 30 27  28 27 31  28 27 44  28 45 27  28 27 52  29 45 27  30 27 31  27 31 52  45 27 44  27 44 52  28 29 45  28 30 31  28 30 32  28 30 109  28 30 110  28 31 32  28 31 52  28 52 32  28 32 54  28 32 110  28 45 44  28 44 46  28 44 52  28 45 46  28 45 50  28 50 46  28 52 46  28 46 54  28 52 54  28 109 110  30 31 32  33 30 31  33 30 32  30 32 110  33 30 110  108 30 107  30 109 110  33 31 32  31 52 32  33 31 52  33 52 32  33 32 54  33 32 110  52 32 54  33 52 54  34 36 35  37 34 35  34 35 58  59 34 35  34 35 60  37 34 36  34 38 36  37 34 38  37 34 39  37 34 60  37 34 63  34 38 39  34 39 63  34 57 58  59 34 57  34 61 57  62 34 57  34 57 64  59 34 58  59 34 60  59 34 63  59 34 64  34 63 60  62 34 61  62 34 63  62 34 64  34 64 63  37 36 35  36 35 40  37 35 40  37 35 60  35 40 58  59 35 40  35 40 60  59 35 58  59 35 60  37 38 36  37 36 40  37 36 41  37 36 44  37 45 36  37 36 52  38 45 36  36 41 40  36 41 52  45 36 44  36 44 52  37 38 39  37 38 45  37 45 39  37 39 49  37 39 63  37 39 70  37 39 82  37 39 95  37 41 40  37 40 42  37 40 60  37 40 66  37 41 42  37 41 52  37 52 42  37 42 53  37 42 66  37 42 84  37 42 92  37 42 102  37 45 44  37 44 48  37 44 52  37 45 48  37 45 49  37 49 48  37 52 48  37 48 53  37 48 94  37 48 95  37 48 102  37 49 95  37 52 53  37 53 102  37 63 60  37 60 66  37 70 60  37 60 71  37 60 84  37 63 70  37 66 84  37 70 71  37 70 72  37 70 82  37 71 72  37 71 84  37 82 72  37 84 72  37 72 92  37 72 94  37 95 72  37 72 102  37 82 95  37 84 92  37 92 102  37 95 94  37 94 102  38 45 39  45 39 49  39 49 95  39 63 70  39 70 82  39 82 95  41 40 42  43 41 40  43 40 42  40 42 66  43 40 66  43 69 40  59 40 58  40 58 65  59 40 60  59 40 65  59 40 66  59 40 67  40 60 66  40 65 67  68 40 65  40 67 66  68 40 66  69 40 66  68 40 67  68 69 40  43 41 42  41 52 42  43 41 52  43 52 42  43 42 53  43 42 66  43 42 84  43 42 92  43 42 102  52 42 53  42 53 102  42 66 84  42 84 92  42 92 102  43 52 53  43 53 102  43 69 66  43 66 84  43 69 84  43 84 92  43 92 102  45 44 46  47 45 44  45 44 48  47 44 46  44 52 46  47 44 48  47 44 52  44 52 48  47 45 46  45 50 46  47 45 48  47 45 49  47 45 50  47 45 51  45 49 48  45 49 51  45 50 51  47 50 46  47 52 46  47 46 54  52 46 54  47 49 48  47 52 48  47 48 53  47 48 94  47 48 95  47 48 102  47 49 51  47 49 95  47 50 51  47 51 95  47 51 100  47 52 53  47 52 54  47 52 55  47 53 55  47 53 102  47 54 55  47 55 102  47 55 104  47 95 94  47 94 96  47 94 102  47 95 96  47 95 100  47 100 96  47 102 96  47 96 104  47 102 104  49 48 95  52 48 53  48 53 102  48 95 94  48 94 102  49 51 95  51 95 100  52 53 55  56 52 53  52 54 55  56 52 54  56 52 55  56 53 55  53 55 102  56 53 102  56 54 55  56 55 102  56 55 104  55 102 104  56 102 104  59 57 58  57 58 119  59 57 64  59 57 119  62 61 57  61 57 119  62 57 64  62 57 119  57 64 119  59 58 65  59 58 118  59 58 119  59 58 120  58 65 120  58 119 118  58 118 120  59 63 60  59 60 66  59 70 60  59 60 71  59 60 84  59 64 63  59 63 70  59 64 70  59 64 74  59 64 119  59 64 126  59 64 128  59 65 67  59 65 120  59 67 66  59 66 84  59 67 84  59 67 85  59 67 120  59 67 122  59 67 123  59 70 71  59 70 74  59 70 75  59 71 75  59 71 84  59 74 75  59 74 128  59 75 84  59 75 85  59 75 123  59 75 127  59 75 128  59 84 85  59 85 123  59 119 118  59 118 120  59 119 126  59 120 122  59 122 123  59 123 127  59 126 128  59 128 127  63 70 60  60 66 84  70 60 71  60 71 84  62 61 119  62 64 63  62 63 70  62 64 70  62 64 74  62 64 119  62 64 126  62 64 128  62 70 74  62 78 70  62 78 74  62 74 128  62 78 128  62 119 126  62 126 128  64 63 70  64 70 74  64 74 128  64 119 126  64 126 128  68 65 67  65 67 120  68 65 120  68 67 66  67 66 84  68 69 66  68 66 84  69 66 84  68 67 84  68 67 85  68 67 120  68 67 122  68 67 123  67 84 85  67 85 123  67 120 122  67 122 123  68 69 84  68 84 85  68 86 84  68 86 85  68 85 123  68 86 123  68 121 120  68 120 122  68 121 122  68 121 123  68 122 123  70 71 72  73 70 71  70 71 75  76 70 71  70 71 77  73 70 72  70 82 72  73 70 77  73 70 80  73 70 82  73 70 83  70 74 75  76 70 74  78 70 74  79 70 74  70 74 81  76 70 75  76 70 77  76 70 80  76 70 81  70 80 77  79 78 70  79 70 80  79 70 81  70 80 81  70 83 80  70 82 83  73 71 72  71 84 72  73 71 77  73 71 84  76 71 75  71 75 84  76 71 77  76 71 84  71 84 77  73 82 72  73 84 72  73 72 92  73 72 94  73 95 72  73 72 102  82 95 72  84 72 92  72 92 102  95 72 94  72 94 102  73 80 77  73 84 77  73 77 88  73 83 80  73 82 83  73 82 95  73 95 83  73 83 99  73 84 88  73 84 92  73 84 93  73 93 88  73 92 93  73 92 102  73 102 93  73 93 103  73 95 94  73 94 98  73 94 102  73 95 98  73 95 99  73 99 98  73 102 98  73 98 103  73 102 103  76 74 75  74 75 128  76 74 81  76 74 128  79 78 74  78 74 128  79 74 81  79 74 128  74 81 128  76 75 84  76 75 85  76 75 123  76 75 127  76 75 128  75 84 85  75 85 123  75 123 127  75 128 127  76 80 77  76 84 77  76 77 88  76 80 81  76 81 128  76 81 131  76 84 85  76 84 88  76 84 89  76 85 89  76 85 123  76 88 89  76 89 123  76 89 125  76 123 125  76 123 127  76 123 130  76 125 130  76 128 127  76 127 130  76 128 130  76 128 131  76 131 130  84 77 88  79 78 128  79 80 81  79 81 128  79 81 131  79 128 131  81 128 131  82 95 83  95 83 99  86 84 85  87 84 85  84 85 89  87 86 84  87 84 88  87 84 89  87 90 84  84 88 89  90 84 88  91 84 88  84 93 88  91 90 84  91 84 92  91 84 93  84 92 93  87 86 85  86 85 123  87 85 89  87 85 123  85 89 123  87 86 123  87 88 89  87 90 88  87 89 123  87 89 125  87 124 123  87 123 125  87 124 125  91 90 88  91 93 88  89 123 125  91 92 93  91 92 102  91 102 93  91 93 103  91 102 103  92 102 93  102 93 103  95 94 96  97 95 94  95 94 98  97 94 96  94 102 96  97 94 98  97 94 102  94 102 98  97 95 96  95 100 96  97 95 98  97 95 99  97 95 100  97 95 101  95 99 98  95 99 101  95 100 101  97 100 96  97 102 96  97 96 104  102 96 104  97 99 98  97 102 98  97 98 103  97 99 101  97 100 101  97 102 103  97 102 104  97 102 105  97 103 105  97 104 105  102 98 103  102 103 105  106 102 103  102 104 105  106 102 104  106 102 105  106 103 105  106 104 105  112 113 111  112 111 114  117 113 111  117 111 114  112 115 114  115 119 114  117 114 116  114 116 120  119 114 118  114 118 120  121 120 122  121 122 123  124 123 125  129 123 125  123 125 130  129 123 127  123 127 130  129 123 130  129 125 130  129 128 127  128 127 130  129 127 130  129 128 130  129 128 131  128 131 130  129 131 130  </DataArray>
<DataArray  type="UInt32"  Name="offsets"  format="ascii">3 6 9 12 15 18 21 24 27 30 33 36 39 42 45 48 51 54 57 60 63 66 69 72 75 78 81 84 87 90 93 96 99 102 105 108 111 114 117 120 123 126 129 132 135 138 141 144 147 150 153 156 159 162 165 168 171 174 177 180 183 186 189 192 195 198 201 204 207 210 213 216 219 222 225 228 231 234 237 240 243 246 249 252 255 258 261 264 267 270 273 276 279 282 285 288 291 294 297 300 303 306 309 312 315 318 321 324 327 330 333 336 339 342 345 348 351 354 357 360 363 366 369 372 375 378 381 384 387 390 393 396 399 402 405 408 411 414 417 420 423 426 429 432 435 438 441 444 447 450 453 456 459 462 465 468 471 474 477 480 483 486 489 492 495 498 501 504 507 510 513 516 519 522 525 528 531 534 537 540 543 546 549 552 555 558 561 564 567 570 573 576 579 582 585 588 591 594 597 600 603 606 609 612 615 618 621 624 627 630 633 636 639 642 645 648 651 654 657 660 663 666 669 672 675 678 681 684 687 690 693 696 699 702 705 708 711 714 717 720 723 726 729 732 735 738 741 744 747 750 753 756 759 762 765 768 771 774 777 780 783 786 789 792 795 798 801 804 807 810 813 816 819 822 825 828 831 834 837 840 843 846 849 852 855 858 861 864 867 870 873 876 879 882 885 888 891 894 897 900 903 906 909 912 915 918 921 924 927 930 933 936 939 942 945 948 951 954 957 960 963 966 969 972 975 978 981 984 987 990 993 996 999 1002 1005 1008 1011 1014 1017 1020 1023 1026 1029 1032 1035 1038 1041 1044 1047 1050 1053 1056 1059 1062 1065 1068 1071 1074 1077 1080 1083 1086 1089 1092 1095 1098 1101 1104 1107 1110 1113 1116 1119 1122 1125 1128 1131 1134 1137 1140 1143 1146 1149 1152 1155 1158 1161 1164 1167 1170 1173 1176 1179 1182 1185 1188 1191 1194 1197 1200 1203 1206 1209 1212 1215 1218 1221 1224 1227 1230 1233 1236 1239 1242 1245 1248 1251 1254 1257 1260 1263 1266 1269 1272 1275 1278 1281 1284 1287 1290 1293 1296 1299 1302 1305 1308 1311 1314 1317 1320 1323 1326 1329 1332 1335 1338 1341 1344 1347 1350 1353 1356 1359 1362 1365 1368 1371 1374 1377 1380 1383 1386 1389 1392 1395 1398 1401 1404 1407 1410 1413 1416 1419 1422 1425 1428 1431 1434 1437 1440 1443 1446 1449 1452 1455 1458 1461 1464 1467 1470 1473 1476 1479 1482 1485 1488 1491 1494 1497 1500 1503 1506 1509 1512 1515 1518 1521 1524 1527 1530 1533 1536 1539 1542 1545 1548 1551 1554 1557 1560 1563 1566 1569 1572 1575 1578 1581 1584 1587 1590 1593 1596 1599 1602 1605 1608 1611 1614 1617 1620 1623 1626 1629 1632 1635 1638 1641 1644 1647 1650 1653 1656 1659 1662 1665 1668 1671 1674 1677 1680 1683 1686 1689 1692 1695 1698 1701 1704 1707 1710 1713 1716 1719 1722 1725 1728 1731 1734 1737 1740 1743 1746 1749 1752 1755 1758 1761 1764 1767 1770 1773 1776 1779 1782 1785 1788 1791 1794 1797 1800 1803 1806 1809 1812 1815 1818 1821 1824 1827 1830 1833 1836 1839 1842 1845 1848 1851 1854 1857 1860 1863 1866 1869 1872 1875 1878 1881 1884 1887 1890 1893 1896 1899 1902 1905 1908 1911 1914 1917 1920 1923 1926 1929 1932 1935 1938 1941 1944 1947 1950 1953 1956 1959 1962 1965 1968 1971 1974 1977 1980 1983 1986 1989 1992 1995 1998 2001 2004 2007 2010 2013 2016 2019 2022 2025 2028 2031 2034 2037 2040 2043 2046 2049 2052 2055 2058 2061 2064 2067 2070 2073 2076 2079 2082 2085 2088 2091 2094 2097 2100 2103 2106 2109 2112 2115 2118 2121 2124 2127 2130 2133 2136 2139 2142 2145 2148 2151 2154 2157 2160 2163 2166 2169 2172 2175 2178 2181 2184 2187 2190 2193 2196 2199 2202 2205 2208 2211 2214 2217 2220 2223 2226 2229 2232 2235 2238 2241 2244 2247 2250 2253 2256 2259 2262 2265 2268 2271 2274 2277 2280 2283 2286 2289 2292 2295 2298 2301 2304 2307 2310 2313 2316 2319 2322 2325 2328 2331 2334 2337 2340 2343 2346 2349 2352 2355 2358 2361 2364 2367 2370 2373 2376 2379 2382 2385 2388 2391 2394 2397 2400 2403 2406 2409 2412 2415 2418 2421 2424 2427 2430 2433 2436 2439 2442 2445 2448 2451 2454 2457 2460 2463 2466 2469 2472 2475 2478 2481 2484 2487 2490 2493 2496 2499 2502 2505 2508 2511 2514 2517 2520 2523 2526 2529 2532 2535 2538 2541 2544 2547 2550 2553 2556 2559 2562 2565 2568 2571 2574 2577 2580 2583 2586 2589 2592 2595 2598 2601 2604 2607 2610 2613 2616 2619 2622 2625 2628 2631 2634 2637 2640 2643 2646 2649 2652 2655 2658 2661 2664 2667 2670 2673 2676 2679 2682 2685 2688 2691 2694 2697 2700 2703 2706 2709 2712 2715 2718 2721 2724 2727 2730 2733 2736 2739 2742 2745 2748 2751 2754 2757 2760 2763 2766 </DataArray>
<DataArray  type="UInt8"  Name="types"  format="ascii">5 5 5 5 5 5 5 5 5 5 5 5 5 5 5 5 5 5 5 5 5 5 5 5 5 5 5 5 5 5 5 5 5 5 5 5 5 5 5 5 5 5 5 5 5 5 5 5 5 5 5 5 5 5 5 5 5 5 5 5 5 5 5 5 5 5 5 5 5 5 5 5 5 5 5 5 5 5 5 5 5 5 5 5 5 5 5 5 5 5 5 5 5 5 5 5 5 5 5 5 5 5 5 5 5 5 5 5 5 5 5 5 5 5 5 5 5 5 5 5 5 5 5 5 5 5 5 5 5 5 5 5 5 5 5 5 5 5 5 5 5 5 5 5 5 5 5 5 5 5 5 5 5 5 5 5 5 5 5 5 5 5 5 5 5 5 5 5 5 5 5 5 5 5 5 5 5 5 5 5 5 5 5 5 5 5 5 5 5 5 5 5 5 5 5 5 5 5 5 5 5 5 5 5 5 5 5 5 5 5 5 5 5 5 5 5 5 5 5 5 5 5 5 5 5 5 5 5 5 5 5 5 5 5 5 5 5 5 5 5 5 5 5 5 5 5 5 5 5 5 5 5 5 5 5 5 5 5 5 5 5 5 5 5 5 5 5 5 5 5 5 5 5 5 5 5 5 5 5 5 5 5 5 5 5 5 5 5 5 5 5 5 5 5 5 5 5 5 5 5 5 5 5 5 5 5 5 5 5 5 5 5 5 5 5 5 5 5 5 5 5 5 5 5 5 5 5 5 5 5 5 5 5 5 5 5 5 5 5 5 5 5 5 5 5 5 5 5 5 5 5 5 5 5 5 5 5 5 5 5 5 5 5 5 5 5 5 5 5 5 5 5 5 5 5 5 5 5 5 5 5 5 5 5 5 5 5 5 5 5 5 5 5 5 5 5 5 5 5 5 5 5 5 5 5 5 5 5 5 5 5 5 5 5 5 5 5 5 5 5 5 5 5 5 5 5 5 5 5 5 5 5 5 5 5 5 5 5 5 5 5 5 5 5 5 5 5 5 5 5 5 5 5 5 5 5 5 5 5 5 5 5 5 5 5 5 5 5 5 5 5 5 5 5 5 5 5 5 5 5 5 5 5 5 5 5 5 5 5 5 5 5 5 5 5 5 5 5 5 5 5 5 5 5 5 5 5 5 5 5 5 5 5 5 5 5 5 5 5 5 5 5 5 5 5 5 5 5 5 5 5 5 5 5 5 5 5 5 5 5 5 5 5 5 5 5 5 5 5 5 5 5 5 5 5 5 5 5 5 5 5 5 5 5 5 5 5 5 5 5 5 5 5 5 5 5 5 5 5 5 5 5 5 5 5 5 5 5 5 5 5 5 5 5 5 5 5 5 5 5 5 5 5 5 5 5 5 5 5 5 5 5 5 5 5 5 5 5 5 5 5 5 5 5 5 5 5 5 5 5 5 5 5 5 5 5 5 5 5 5 5 5 5 5 5 5 5 5 5 5 5 5 5 5 5 5 5 5 5 5 5 5 5 5 5 5 5 5 5 5 5 5 5 5 5 5 5 5 5 5 5 5 5 5 5 5 5 5 5 5 5 5 5 5 5 5 5 5 5 5 5 5 5 5 5 5 5 5 5 5 5 5 5 5 5 5 5 5 5 5 5 5 5 5 5 5 5 5 5 5 5 5 5 5 5 5 5 5 5 5 5 5 5 5 5 5 5 5 5 5 5 5 5 5 5 5 5 5 5 5 5 5 5 5 5 5 5 5 5 5 5 5 5 5 5 5 5 5 5 5 5 5 5 5 5 5 5 5 5 5 5 5 5 5 5 5 5 5 5 5 5 5 5 5 5 5 5 5 5 5 5 5 5 5 5 5 5 5 5 5 5 5 5 5 5 5 5 5 5 5 5 5 5 5 5 5 5 5 5 5 5 5 5 5 5 5 5 5 5 5 5 5 5 5 5 5 5 5 5 5 5 5 5 5 5 5 5 5 5 5 5 5 5 5 5 5 5 5 5 5 5 5 5 5 5 5 5 5 5 5 5 5 5 5 5 5 5 5 5 5 5 5 5 5 5 5 5 5 5 5 5 5 5 5 5 5 5 5 5 5 5 5 </DataArray>
</Cells>
<CellData  Scalars="f">
<DataArray  type="Float64"  Name="f"  format="ascii">3 3 3 3 3 3 3 3 3 3 3 3 3 3 3 3 3 3 3 3 3 3 3 3 3 3 3 3 3 3 3 3 3 3 3 3 3 3 3 3 3 3 3 3 3 3 3 3 3 3 3 3 3 3 3 3 3 3 3 3 3 3 3 3 3 3 3 3 3 3 3 3 3 3 3 3 3 3 3 3 3 3 3 3 3 3 3 3 3 3 3 3 3 3 3 3 3 3 3 3 3 3 3 3 3 3 3 3 3 3 3 3 3 3 3 3 3 3 3 3 3 3 3 3 3 3 3 3 3 3 3 3 3 3 3 3 3 3 3 3 3 3 3 3 3 3 3 3 3 3 3 3 3 3 3 3 3 3 3 3 3 3 3 3 3 3 3 3 3 3 3 3 3 3 3 3 3 3 3 3 3 3 3 3 3 3 3 3 3 3 3 3 3 3 3 3 3 3 3 3 3 3 3 3 3 3 3 3 3 3 3 3 3 3 3 3 3 3 3 3 3 3 3 3 3 3 3 3 3 3 3 3 3 3 3 3 3 3 3 3 3 3 3 3 3 3 3 3 3 3 3 3 3 3 3 3 3 3 3 3 3 3 3 3 3 3 3 3 3 3 3 3 3 3 3 3 3 3 3 3 3 3 3 3 3 3 3 3 3 3 3 3 3 3 3 3 3 3 3 3 3 3 3 3 3 3 3 3 3 3 3 3 3 3 3 3 3 3 3 3 3 3 3 3 3 3 3 3 3 3 3 3 3 3 3 3 3 3 3 3 3 3 3 3 3 3 3 3 3 3 3 3 3 3 3 3 3 3 3 3 3 3 3 3 3 3 3 3 3 3 3 3 3 3 3 3 3 3 3 3 3 3 3 3 3 3 3 3 3 3 3 3 3 3 3 3 3 3 3 3 3 3 3 3 3 3 3 3 3 3 3 3 3 3 3 3 3 3 3 3 3 3 3 3 3 3 3 3 3 3 3 3 3 3 3 3 3 3 3 3 3 3 3 3 3 3 3 3 3 3 3 3 3 3 3 3 3 3 3 3 3 3 3 3 3 3 3 3 3 3 3 3 3 3 3 3 3 3 3 3 3 3 3 3 3 3 3 3 3 3 3 3 3 3 3 3 3 3 3 3 3 3 3 3 3 3 3 3 3 3 3 3 3 3 3 3 3 3 3 3 3 3 3 3 3 3 3 3 3 3 3 3 3 3 3 3 3 3 3 3 3 3 3 3 3 3 3 3 3 3 3 3 3 3 3 3 3 3 3 3 3 3 3 3 3 3 3 3 3 3 3 3 3 3 3 3 3 3 3 3 3 3 3 3 3 3 3 3 3 3 3 3 3 3 3 3 3 3 3 3 3 3 3 3 3 3 3 3 3 3 3 3 3 3 3 3 3 3 3 3 3 3 3 3 3 3 3 3 3 3 3 3 3 3 3 3 3 3 3 3 3 3 3 3 3 3 3 3 3 3 3 3 3 3 3 3 3 3 3 3 3 3 3 3 3 3 3 3 3 3 3 3 3 3 3 3 3 3 3 3 3 3 3 3 3 3 3 3 3 3 3 3 3 3 3 3 3 3 3 3 3 3 3 3 3 3 3 3 3 3 3 3 3 3 3 3 3 3 3 3 3 3 3 3 3 3 3 3 3 3 3 3 3 3 3 3 3 3 3 3 3 3 3 3 3 3 3 3 3 3 3 3 3 3 3 3 3 3 3 3 3 3 3 3 3 3 3 3 3 3 3 3 3 3 3 3 3 3 3 3 3 3 3 3 3 3 3 3 3 3 3 3 3 3 3 3 3 3 3 3 3 3 3 3 3 3 3 3 3 3 3 3 3 3 3 3 3 3 3 3 3 3 3 3 3 3 3 3 3 3 3 3 3 3 3 3 3 3 3 3 3 3 3 3 3 3 3 3 3 3 3 3 3 3 3 3 3 3 3 3 3 3 3 3 3 3 3 3 3 3 3 3 3 3 3 3 3 3 3 3 3 3 3 3 3 3 3 3 3 3 3 3 3 3 3 3 3 3 3 3 3 3 3 3 3 3 3 3 3 3 3 3 3 3 3 3 3 3 3 3 3 3 </DataArray>
</CellData>
</Piece>
</UnstructuredGrid>
</VTKFile>