<?xml version="1.0"?>
<VTKFile type="UnstructuredGrid"  version="0.1"  >
<UnstructuredGrid>
<Piece  NumberOfPoints="4131" NumberOfCells="15886">
<Points>
<DataArray  type="Float64"  NumberOfComponents="3"  format="ascii">22.60148149291867 24.81985048235736 26.00538698480853  23.40488171764876 25.50914127911339 27.31672621402929  21.69731510075714 25.24385218547715 26.54740663874821  21.90291789035295 24.27548109507119 27.52920178471426  22.79821014404297 21.35894966125488 23.84181976318359  22.74930000305176 21.80582046508789 23.24510955810547  23.36881065368652 21.51926040649414 23.28124046325684  23.47533418016926 22.52642649269561 23.98375855158604  22.10918998718262 22.09240913391113 23.75148010253906  22.47298838278735 22.2856476452341 24.65263014822995  20.87044906616211 21.19488906860352 29.62784004211426  20.44914054870605 20.60759925842285 29.57622909545898  21.03586006164551 20.40016937255859 29.95877075195312  20.97161223051071 20.92128088774162 28.91174199509353  21.57467079162598 25.33669090270996 27.55566024780273  21.99504089355469 26.0189094543457 26.81702041625977  20.37290954589844 19.88373947143555 29.78763961791992  21.03066034874858 19.94450173056741 28.68557379423515  22.14912986755371 21.25411033630371 24.63538932800293  22.72245025634766 26.15353012084961 26.02079010009766  10.13486867363466 15.38413128330055 25.16926221692945  9.923279403712993 14.09303231220653 26.37749068450965  11.32467584926298 14.9912567907189 26.35758944412535  10.08463805129546 15.22526783238251 26.8845203141871  14.25327014923096 17.39130973815918 22.21998023986816  13.92255020141602 16.6441707611084 21.78428077697754  14.60919952392578 17.18358993530273 21.18211936950684  15.36205005645752 16.76971054077148 22.15063095092773  8.647733688354492 13.91856956481934 30.34650993347168  8.495777130126953 13.28619003295898 29.95762062072754  9.171011924743652 13.18132972717285 30.07246971130371  9.165667889222123 13.64494555298906 29.38642481865815  8.145601272583008 13.70600986480713 29.74361038208008  8.133913993835449 12.98993015289307 29.42293930053711  8.919340133666992 15.55766010284424 26.51173973083496  8.666178703308105 14.70020961761475 26.85018920898438  9.007536888122559 14.73060035705566 26.1188907623291  9.059292793273926 15.73009967803955 25.61366081237793  9.344378471374512 15.89280033111572 24.67643928527832  9.017107009887695 15.2798900604248 24.71862983703613  8.745861053466797 13.85898971557617 26.60527992248535  9.466337500980133 14.33150698491191 27.613874995369  8.270206451416016 13.97673034667969 27.31620979309082  9.010348320007324 14.73278045654297 25.17382049560547  12.23239994049072 16.01420021057129 23.29051971435547  12.15816020965576 15.27560997009277 23.25106048583984  12.89791606014445 15.63223236641513 24.23226094564814  13.16304383216386 15.94757607289926 23.36340728613482  15.00926971435547 17.41628074645996 22.28722953796387  15.0611400604248 16.72793960571289 23.12188911437988  14.23992029447747 16.50706170054288 22.63552479777804  12.71240997314453 16.53018951416016 22.85717964172363  13.3953800201416 16.9879093170166 22.48744964599609  13.27612972259521 16.15575981140137 22.29968070983887  12.74715042114258 15.69382953643799 22.79146003723145  9.647769927978516 13.89420032501221 30.10190963745117  11.67061996459961 15.64255046844482 23.66735076904297  7.977875232696533 13.80521965026855 28.94930076599121  5.645654201507568 21.17927932739258 37.23579025268555  5.056466102600098 20.50606918334961 36.96971130371094  4.851836235526027 21.33507962380647 37.68239085381686  4.698966385913749 21.05992757480884 36.50151520458071  12.38605976104736 34.70022964477539 36.07826995849609  12.2485680832481 36.34376549340885 36.34260710065332  11.53387144660103 35.02077575383205 36.73175429694053  11.6065409293136 35.07260164603684 35.56695154921104  13.06702041625977 21.14399909973145 24.49810981750488  13.47033023834229 20.558349609375 24.33264923095703  13.02639007568359 20.41160011291504 23.46294975280762  13.75387987181121 20.72360957386427 23.64843823364253  2.037676572799683 37.81325531005859 39.83066558837891  2.211963415145874 36.93383026123047 39.80255126953125  2.797188282012939 37.66729354858398 39.89125061035156  1.971482767138679 37.70497172946749 39.16728459313786  7.927705764770508 22.85902976989746 24.72328948974609  7.965136051177979 23.73414993286133 23.9155101776123  8.275815725008206 22.73208417469563 23.20098367024903  9.004402254008891 22.97820147996902 24.34942497505758  1.584525942802429 39.89572906494141 22.92720031738281  1.296501994132996 38.96308135986328 23.04791069030762  1.102702021598816 39.2034797668457 22.40666961669922  2.172826438458049 39.01558168694685 22.92397749628122  17.78965950012207 14.0600700378418 28.86137008666992  17.27644920349121 13.27602958679199 28.76582908630371  17.97294044494629 13.39982986450195 28.28627014160156  17.29761698269241 13.38570961912325 27.91113884972066  4.911716938018799 22.46944999694824 26.49673080444336  3.665626390300553 22.18963262643954 26.34688373312634  4.348631411712614 22.52274042586354 27.74787178285976  4.769721095018223 21.53722159354084 27.12003837417191  8.121655464172363 37.74383163452148 33.07558059692383  8.706639289855957 37.42276000976562 32.6844596862793  8.748313178825397 38.15181894944418 32.17171915469483  8.909582792962354 37.96457008788087 33.44744387728456  21.12413315639407 21.41629268037797 27.55386541947272  20.34692276644379 22.51970747800477 26.50411893867406  21.08473813022053 20.68531288870108 26.48146153228549  22.13973813505081 22.09856062427963 26.36496277165584  12.06305980682373 25.99286079406738 28.78470039367676  11.7076997756958 25.23418045043945 28.28557968139648  11.00975371909792 25.85456407921117 28.81699046305849  11.63616741219823 26.35363063193272 27.64040626882027  15.08753967285156 17.50196075439453 24.10790061950684  15.38545989990234 16.59144973754883 24.11174964904785  14.40190218903226 16.47966689680319 23.78947753280206  2.919678926467896 20.72513961791992 32.09609985351562  3.445698976516724 20.14925003051758 32.04328918457031  3.812129534549468 20.55776518127621 33.16413435645816  4.012580218219198 20.99977661651681 32.00676129884497  19.48140907287598 18.49868965148926 30.13994979858398  19.8971004486084 17.88488006591797 30.75041961669922  20.12165203748596 18.28859568693252 29.44809570329394  19.68695160587882 17.18013696548733 30.20980909321848  10.08242034912109 37.74050140380859 30.72151947021484  9.506823258741134 38.65936742356441 31.16827756190667  10.40416923441926 38.83660594420363 30.68629455363521  10.57034548532746 38.06650251163888 31.63533326396238  3.581475019454956 34.61917877197266 30.97784996032715  4.171729004993799 33.60093488815438 29.92050816511257  2.859983157894381 33.78091226475991 29.99482525734578  3.995953790161748 34.55346957294583 29.65131932477753  5.218859190028217 21.98603590724418 28.81890483398217  4.676205075609293 21.44736067236387 30.12771380520065  5.824290651816852 21.21821696733302 29.11592011048639  5.969214159339058 21.66757108999511 29.97916455789222  12.09739017486572 35.96720123291016 31.83163070678711  12.06365966796875 35.03582000732422 32.03065872192383  12.9337100982666 35.28232955932617 31.89193916320801  12.20199763002288 35.61908211795688 32.52631607285277  8.538581848144531 25.63266944885254 29.84139060974121  8.12332820892334 25.53919982910156 29.15712928771973  8.769840240478516 24.67198944091797 29.46322059631348  8.877784218206147 25.76415806805042 29.06948234634973  0.5222272872924805 35.12524032592773 32.89327239990234  0.3503492176532745 35.25662231445312 32.41926193237305  0.936135340252557 34.82043177038629 32.43307306580542  0.889519976991153 35.45002115845495 32.70207415163502  4.71952486038208 39.89572906494141 34.21279144287109  5.775423049926758 39.89572906494141 34.44112014770508  5.372900009155273 39.89572906494141 33.43682098388672  4.985116925923335 38.97372286927905 33.4877438663203  8.655659675598145 17.57106971740723 31.10419082641602  9.475427627563477 17.63670921325684 30.7618293762207  8.66962031243305 17.07717191546734 30.13814536786405  8.613498571925447 18.06879047236503 30.13744567351395  5.352765083312988 22.77590942382812 27.04281044006348  5.690604209899902 37.01855087280273 30.52218055725098  6.004600771874833 37.4575206249816 29.07192080302629  5.828961339408133 36.43663974139247 29.30666107926708  6.880218833928257 36.57421721761881 29.46176893902981  7.912092208862305 22.6556396484375 29.4561595916748  8.370725631713867 23.17103004455566 29.05220031738281  7.811194355796845 22.48538971043124 28.23007173708002  7.303804668801191 22.97372744976943 28.57360977154701  3.633425951004028 32.3714599609375 27.86569023132324  2.868633985519409 32.54386138916016 27.28500938415527  3.074191093444824 31.71129035949707 27.63656997680664  2.969659886951098 32.04012095441279 28.461266620555  6.292283058166504 37.33126068115234 24.80221939086914  4.811277417411075 37.32880675354969 25.56240805024443  4.985408283977159 37.20650858490382 24.42665284955967  5.758734814541097 36.56301648096002 25.12800742182912  19.99377709003513 18.26258681248027 28.09017017444912  20.05117370825326 19.4352368947132 28.89844535013942  20.78403281281285 18.99493441541235 29.50099035837108  4.079413989049415 21.73354684061378 38.57134112651785  3.821542453978294 20.96043858238987 37.620859199282  4.215624783092452 20.70739845953955 38.84559600892599  10.59527969360352 24.49638938903809 22.97491073608398  11.44849967956543 24.4467601776123 22.84044075012207  10.75566959381104 23.8006706237793 22.3818302154541  11.10743432186738 23.64480748092509 23.58156461314814  7.79042911529541 39.89572906494141 32.70354843139648  8.005042629667143 38.88769096407182 32.99522305032323  8.35022209345825 39.00968503691148 31.75608924445164  7.340087447433166 39.03434663541629 32.01455266440504  20.18926553207385 21.92527849460674 28.38976097622392  19.30670335884989 21.53289207365175 27.69745640092088  12.48943996429443 25.93452072
[...]
<PointData  Scalars="c_HbCO2"> 
<DataArray  type="Float64"  Name="c_HbCO2"  format="ascii">1.9842065564928925e-40  -1.5148796619155065e-41  1.9827950879686278e-39  1.1821956912899219e-39  -2.0745938307619833e-40  2.7254790393710827e-40  2.0409057139396092e-41  -8.7649583738144577e-41  -7.3966570709194948e-40  1.2718202525407529e-39  -5.8066115190851810e-40  -6.3522495720768503e-40  1.8798766742853420e-39  2.2207076817991198e-40  -8.8287822991113604e-40  -9.1556408602674254e-40  -5.2722646182405112e-40  -5.6253570771153174e-39  -1.3855674216919282e-40  -3.1929509780729423e-40  5.9975762326973450e-31  -1.2422892921982368e-31  -1.0311612835767389e-31  -1.2952321985711010e-31  -1.4844832360475727e-34  -7.5692479160939522e-35  1.6448363152611017e-35  -1.5940725945874247e-35  2.1173660903397339e-32  4.3680765488576746e-34  5.4989825230105970e-33  -1.7128395677588767e-32  1.8942044635320992e-32  1.5965498284879516e-33  -2.8976010824869612e-33  7.7345909674818071e-32  -2.6454652271109867e-32  2.6339682183298512e-31  5.6792524060833544e-31  -5.6152279662603808e-30  -4.1748880418483164e-31  4.7245528347802425e-32  6.0008921261876855e-32  -2.1133682152754711e-30  -3.7148558950049369e-32  1.2910693219113542e-31  -1.4355518673500867e-32  -6.7020936612349943e-33  -9.9691037173260383e-36  -7.1167453113709043e-35  3.0700795759553337e-34  8.0317539319538943e-33  6.7844828633099795e-35  4.3233125673034070e-34  -6.1640254757136314e-33  -5.8538206897311116e-33  1.8883066401614962e-31  1.1802284991982938e-32  1.8596778117731473e-31  -2.5591353065374650e-31  6.3415375224174387e-31  -1.1764885967962057e-30  -8.8371032743307308e-32  -1.5567158328439480e-31  -1.5397554812621504e-31  1.4974922968489762e-31  1.7030653347493124e-32  -9.4543163761170229e-34  -2.3614823670660656e-32  2.4425848439292853e-33  5.7780446714690162e-34  -2.4161238441164979e-33  -1.3097141270207267e-33  3.0266899263879691e-34  5.1635547748762251e-29  8.1935718946316711e-29  -5.0327256249395360e-29  -3.7653475329464626e-30  1.1129720964145764e-24  3.2177809443070459e-25  -2.6361264368983596e-25  -2.1203976904597573e-24  1.4123051624813654e-35  -6.4811941913328110e-35  1.6680590098502537e-35  9.8639777516415230e-35  3.8258533718625725e-25  -2.2727676969834834e-24  1.3012673010539829e-25  1.1996382909186280e-26  -1.5646813116990493e-30  1.0193864206746943e-29  -8.2974098338233930e-32  -3.8699232960978573e-30  -3.5011671206588056e-39  2.5046467740571971e-38  -2.7577806088602059e-39  -8.8176563786783171e-40  2.0005338760256531e-32  2.0721489028266430e-32  -1.1879183135057822e-31  -3.0967233559086240e-32  1.9090526697707379e-34  -9.8039870019162273e-35  2.1771235027512937e-34  1.8096728303308668e-27  -1.9690568018164761e-28  2.9750782817811667e-28  -4.8714228030460717e-27  1.6981017636135107e-38  2.7669129202029386e-38  -3.1084776311427777e-38  -2.0552862043509422e-39  4.2003925460284981e-31  1.2904626802059725e-30  -3.5679949776743736e-31  8.6124662864377498e-31  9.1419407742421447e-25  -1.8868497745809776e-24  1.4214087343881120e-23  -1.7778207354281422e-24  8.7973705335250431e-27  5.8622629109045178e-26  2.2170703012005336e-26  -2.0182560549050009e-26  3.4221162966671122e-30  -1.3821499972411123e-29  2.5623422459476804e-30  -1.6793628231142004e-30  8.5130193962949844e-31  -3.6407509458917240e-30  1.7848058699188762e-31  -1.2221463378454158e-30  8.8254605544688390e-24  1.5712972851647813e-23  2.1343429072456488e-23  -6.5586231031572210e-24  -1.0301827927116945e-31  -8.5221072985962458e-31  8.2987058466204821e-31  -2.3756622962660111e-31  -7.9077834213613331e-30  7.3988491189293157e-30  -1.2993469450198557e-30  -1.3920719712855865e-30  6.0012947947856560e-26  -2.8074414621580835e-27  1.9666480553780656e-27  6.7549386357612056e-27  -4.7784650218013037e-27  4.1082376278144270e-28  1.8327266088156799e-28  2.8501961085790538e-28  -9.7903533688060002e-28  3.0883768379060887e-24  -2.0555586456459915e-23  1.2445003388150280e-23  -1.7579106643259935e-23  4.4522095085307634e-27  3.4133301559995201e-27  -1.7129174045921759e-26  -1.0078462531937680e-26  -2.6275668402455498e-38  -1.2014244038937071e-38  2.9533655160210011e-39  -4.0364993098047954e-31  3.2960661359089521e-31  -1.5348271116267002e-32  3.3404071541139465e-31  -7.6178727514131356e-32  3.5793165623788844e-31  -1.8073618416063410e-31  8.0513100642954048e-31  5.3579659253580298e-31  -9.4800291316827663e-31  -3.7798334156390748e-30  -9.3972995897305561e-39  6.2413072402419857e-39  -4.2644255544585245e-33  -4.2881868490677460e-34  -3.1979375360881167e-33  8.1812648213876599e-33  -3.7033580570106253e-29  2.9963830157210056e-29  1.9496485124539546e-29  -3.4877571493948728e-30  9.9821357005985732e-29  7.3204095513625702e-29  -1.2444829586964109e-28  -1.1298025072841630e-23  2.9779265857344401e-24  2.6678544352934566e-25  1.0713263734264324e-24  -2.8047142867151934e-28  -2.2807664557119807e-28  -3.3181596030705703e-28  1.4018136792740891e-28  1.3564026721906780e-28  -9.3321726266384286e-29  1.7253200737147914e-28  2.5467566836716432e-28  -2.7592055178365402e-29  -3.1758685493060843e-29  -2.9662733874654320e-30  4.8859625394200975e-32  6.7538211889715644e-27  7.0254634828983798e-27  -5.9898246625769086e-26  1.4490851008240015e-27  5.7229562803381052e-29  4.7130225134792954e-30  1.2231525262262256e-30  -1.4047336582817691e-29  -4.9532197561416099e-27  8.5203103840864917e-28  9.4617879813495745e-28  3.4384443561849663e-27  5.4459003165632692e-31  -1.8518586662256050e-30  8.7110642460778039e-31  -3.9713149579582182e-30  1.0693277477675217e-27  1.5561952833665145e-27  -4.3883668184271566e-28  1.6057439205925737e-27  -1.5993419942848890e-22  1.1833646661145822e-22  -3.2877235829329090e-23  -1.9334488654294609e-22  4.1556893590106527e-25  -1.2547269621700629e-24  9.4574504067066214e-25  -4.4860888839226246e-25  1.0526398390069136e-30  -2.0065346551930998e-30  -6.7645829364695661e-31  2.4467356592276309e-31  1.7346602287454595e-29  -2.0414666526715936e-29  -1.6622472653805172e-30  2.2855204600954683e-30  9.4656407431134122e-31  -5.1625111352345590e-30  5.4371922273236792e-31  6.1769292760046240e-37  -6.2794905766604553e-38  -7.8452790994423870e-38  2.6306502672066743e-37  -6.7677367002138629e-26  -7.1345263759764881e-25  1.2020224261041779e-25  6.5814841698071861e-26  3.4105839697822328e-27  1.3748943621305886e-26  -3.3828161141137999e-27  -1.8152135697863162e-27  -6.7428297424126872e-26  4.5983315791773130e-25  3.7068055456517700e-26  1.2586557956249365e-25  7.0580015253536202e-28  -4.4471971668814325e-27  -9.9131840665841087e-28  -2.0930767817411043e-28  -2.3877042748972605e-34  -3.2103468950697269e-34  -8.3503575303468903e-34  1.8862609058136295e-34  -6.5454632340105077e-31  -9.0120494061651448e-32  -1.8956459999683448e-31  1.1338701226217426e-30  -2.4684400617901151e-29  2.4883937272537494e-30  3.9136977909581537e-30  1.5999637470939254e-30  -1.9165252884792579e-27  1.3964914436610366e-26  -1.0041629640336387e-26  1.0948743459044291e-26  7.1294154796664809e-32  -3.5898201019554104e-31  3.6534965663578840e-32  1.0524127294926954e-32  -6.3058784921761606e-32  1.9184425868581672e-31  2.2689796834449095e-31  -6.6524117440904006e-32  -4.6343889897929342e-26  6.3963019210203742e-27  -2.1131473629059081e-25  2.8423941873375601e-25  1.1141230485241100e-26  -1.6336767204973119e-26  -3.7769295250979470e-26  -2.0706851184233961e-31  -6.4079606515360873e-31  1.4678822363175724e-30  3.7527446304874396e-31  -6.8850585697802795e-30  7.9718729521068016e-29  1.2011162118118878e-29  1.0457726893378113e-29  1.6419041533085615e-33  -1.7075961400040897e-32  2.1311583119345806e-35  3.5195304413893062e-32  2.2347445326791305e-31  -3.4502805186483075e-32  -1.0060013413622799e-31  -1.8704446714687069e-22  -2.2405816146921939e-24  -1.3469913162888615e-22  -1.3379279401978981e-22  -1.0181674778103424e-30  5.0257511413162154e-30  3.7043864965955207e-30  5.1801224475472791e-31  -1.4540412450106209e-29  -3.4532701541074692e-27  -1.5755128339944946e-27  5.7020642919986943e-27  3.6401136610994403e-31  4.6024347479688779e-30  1.5199950409330220e-30  -2.2419848193845809e-31  2.2514631975868408e-31  3.1499301833046231e-28  -1.5137986691168896e-27  -1.8597070677453054e-27  7.5961858662035939e-28  1.6804645616901966e-27  1.8741256599859383e-27  -3.6336479431137072e-28  -4.6830527016166137e-27  -1.0821186362939250e-30  6.6982801344837482e-31  2.3454430016398295e-30  -7.0847840217413213e-30  -6.4299744630121533e-28  8.1110450146376255e-29  2.4578095235178109e-28  -2.6522629673115894e-28  -4.0912785064250729e-26  4.1577352915420007e-27  1.6610000066458012e-26  2.4513087347764467e-24  -2.6318770884588567e-23  -3.1647912993297560e-24  3.9426238952295768e-24  2.6324265442121429e-31  -2.7726052511804636e-31  -8.4154791193759971e-32  5.1376960671988097e-33  -4.6871834474044373e-34  7.8246429384477075e-33  5.5319821174830129e-34  -7.7262687247100523e-28  2.2749205994063339e-27  -6.9348922857468794e-28  2.8786576813513102e-27  -1.3345062962616258e-26  1.0235000139535817e-26  -3.2718442501886000e-31  1.3057213669895405e-30  -1.4848758835136172e-30  -2.4065449302512922e-31  -1.2254967228274546e-29  1.2994719163142566e-28  -8.3850961136211391e-30  4.2388931926651548e-30  -4.1884008492431034e-35  -3.5745801258653006e-34  1.5258864283795937e-34  4.5860956690771954e-34  6.3999999999999997e-22  6.3999999999999997e-22  6.3999999999999997e-22  -2.2849999305451896e-22  2.3887416689380075e-25  -3.0010848736750218e-25  9.2530215217946216e-26  -9.0220933455046989e-28  -3.0756130218630571e-27  -2.6803613828022250e-28  5.4132924809369692e-27  -2.5903259432695790e-23  -7.2672907502154165e-24  2.3874839403101338e-23  3.3807631540435004e-23  1.4896113896321162e-28  -7.3275406695288940e-29  3.2712614163165186e-29  1.0630576645547021e-28  -3.3743448831300357e-28  1.5904322272949804e-25  4.4883758314529730e-25  -1.4292639884039347e-25  -9.0192480775445371e-27  2.9308636427750676e-39  -7.0199116360729550e-39  2.2356358504627882e-39  -2.6346928043702994e-39  -5.0948253559661394e-24  -5.0349088963038632e-24  -1.9100742052386038e-24  3.1985399880182257e-23  -1.3334160837686005e-29  3.7997178988504349e-30  4.9168873604023609e-30  -1.9887899668779107e-29  1.3084902848425334e-29  4.4668439181654181e-29  1.2709906100963694e-23  -1.3568877752446379e-22  6.7396615299551693e-23  3.0138252974494728e-23  9.4241996076374170e-26  6.5605121472412127e-26  -2.1101915526709330e-26  -1.8930445417312309e-30  -1.6579303932920209e-30  9.2309010939597401e-31  -1.1606470397936224e-30  6.3999999999999997e-22  -1.2352477442036658e-22  -2.8374919656528883e-22  -9.5461556732290467e-23  -6.4291637453484853e-27  -3.6649587559609844e-25  1.2122421498876708e-26  7.4462764876597036e-26  -1.1163926758879863e-28  8.2271958377497202e-28  -7.9089558366433271e-29  -4.9027554079592222e-30  5.7256476808454308e-31  -4.3874974550994101e-34  4.5025400245422494e-34  -1.2439074266105042e-34  -1.0418143607702407e-22  -1.3876475288230862e-22  -2.4541064827964651e-22  -5.6091966209443668e-23  6.5488943065429250e-37  -1.4074466818006942e-37  7.8219923456864204e-38  -2.3263386578153686e-38  -3.4809925256314379e-32  -4.7586593702953856e-30  -7.1744312829598584e-28  1.3171844438395673e-28  -1.2842880182591875e-28  -2.7259108106623989e-28  7.5641892683549877e-24  -3.8471084669186160e-25  -1.0032054292484221e-23  -2.5963725858226963e-27  3.1015461521158055e-27  1.9196169463933266e-26  -3.1891550428879752e-27  3.1579789986136608e-32  1.3102760736619319e-31  7.5523443198367374e-33  -3.8947710260849255e-31  -5.7471000345522557e-23  -2.1882191393759260e-22  3.4828174453313918e-32  2.2701299054224141e-32  -4.5852362468378692e-33  -8.0415800926266732e-32  -2.8966037749719810e-25  -2.1567811392205500e-25  2.0407664905826917e-25  3.8909180706396880e-36  -1.6165497934910811e-35  5.4215590444023260e-37  4.1196233562791065e-35  -3.0141735320522608e-26  -5.3138254819954597e-26  1.3371512906689686e-26  1.0911282158982765e-31  1.5507404687675471e-32  -6.0981103524046507e-32  4.5933470944440556e-32  -9.3181690550306723e-33  -1.3847628779251539e-32  3.0872546663346634e-33  2.9359404631335437e-33  2.1863024997122140e-30  -3.3949814718072261e-29  -4.9808268142270561e-31  2.4116822972027392e-30  -1.4633856545265252e-30  -3.7240213918707728e-34  2.9168513798166458e-34  -1.2425453318215978e-34  4.7445576746089249e-34  3.5905147705369591e-39  3.5556622802115337e-39  -5.6269258922226718e-30  -3.1729416807874280e-31  4.3817197455891448e-31  -6.0661513354569399e-28  2.0531810463162478e-29  3.7721815190433061e-27  -1.1076820423841604e-26  3.8994355582467560e-26  6.6921453003877845e-27  -9.4182639042215670e-27  -7.1027467644630778e-28  -1.2554871679655720e-26  3.7940144011279719e-26  2.7837838804302115e-24  -1.1986162296788712e-24  -6.7323836965273346e-24  -5.2015544437645036e-32  6.3530264686763912e-33  1.7379937272319068e-31  9.5651151161444105e-32  1.4545673899808053e-27  -9.6352517075404232e-27  2.5306291430105763e-27  -5.4386221978482582e-27  4.1097866009037200e-29  6.4556042880069593e-29  8.4259133464881758e-30  -2.5215639137313258e-28  -1.9152238783778148e-32  -1.4492297875287347e-33  1.6564781833206688e-33  7.8259742551345170e-33  -4.0981855477478312e-31  -3.0749597022334771e-31  1.8137265973398430e-31  8.1317128066087964e-31  -9.3371384983263651e-28  2.7795493106787169e-28  2.0576308200096046e-29  2.1932799903156449e-28  -1.3120816256463119e-29  4.7851599903952327e-30  1.6140658281138002e-28  -2.6900916565300094e-31  1.5250575020823905e-38  1.0229557523518905e-37  -1.0334022615112182e-38  9.0537917634927914e-40  -1.0022562846330093e-31  4.3994125212595903e-27  3.6505278003705204e-27  -2.6372079131935000e-28  -1.8870631250775381e-26  5.6841023352490697e-26  -1.1783118205917494e-27  2.5543820708590450e-31  3.1720032301016851e-30  7.5131217527177905e-33  -1.9415817087176878e-30  -1.9349997591389574e-33  2.7729043236163915e-32  -1.6554862115577891e-31  1.2918966240670638e-31  -2.8058207444137995e-32  -8.9650113305945531e-33  4.3571342226651023e-33  3.6170076686692603e-32  1.5562841578308373e-33  -3.9104814878958413e-34  9.6821691778626670e-34  6.7360877453022902e-24  -7.0983619191855360e-24  -4.0960816165300816e-24  -7.8447591989703384e-24  9.0037456481597671e-28  -1.7693739539446201e-28  -4.2044355240985830e-28  3.0070782242518672e-30  1.3640323110997781e-29  -1.4808827294445341e-29  -1.7233656153175118e-29  6.4807474650016128e-29  7.2954063346911162e-23  -4.6984205525481433e-24  7.0978426849432593e-23  8.5201688424359516e-23  2.7870966555422963e-32  -7.3929710317268761e-33  1.1805951718608765e-32  -3.6473982694988239e-29  -3.9987440136040157e-29  -6.1867879620159781e-31  8.4552456031385994e-32  -5.6253838783799078e-31  -3.0873467203956806e-36  4.9567520940817161e-37  5.7231056853529654e-36  -4.1249260868068718e-37  -8.5486922749042810e-29  1.5900335815002641e-28  4.2034436210571348e-29  -7.2880233941473504e-28  5.4941869169862185e-32  -7.7674132860895522e-32  -1.1204157227417699e-31  -1.3238316964641082e-31  6.6466163213323876e-32  -1.7043821523390366e-32  8.4349623684587339e-32  -4.2717601410495424e-33  1.0029345416005254e-31  -2.5157790094269419e-25  1.8285649124641098e-26  -3.1077178116811488e-25  9.5020930394405662e-26  -4.0290363407815258e-31  3.5071950426875675e-31  6.1747006656686139e-24  1.0357730027696245e-24  2.1578849919181478e-23  -1.7055717071160814e-23  -1.8489523249394525e-33  -4.1238985640861091e-33  8.5790728997680293e-33  1.1604416872521772e-32  6.3999999999999997e-22  6.3999999999999997e-22  -1.3676015946079471e-22  -2.7259642260008477e-22  2.7768394829743699e-29  -5.2069764838524787e-30  -2.9478760303166087e-29  1.7792932301763901e-28  3.7386278175537890e-31  -2.3488994249742011e-31  1.4590288382089873e-31  9.7717832357639070e-31  -4.1803069950503367e-31  5.2692460539319762e-32  -4.3694713963213233e-31  -1.0698457880024024e-30  -6.5256353335300547e-31  -2.7758296965270180e-31  -3.8122218214051226e-31  7.4276999944107218e-31  -4.4860635040461660e-30  -3.6510102945053165e-29  5.9675641722612049e-30  -5.5140185136581802e-29  1.5562282498514477e-25  -1.8676071936646411e-26  -1.3319795606011924e-26  8.2756389027990172e-27  1.9976230554325219e-24  5.4499082644349597e-25  1.7622715849738918e-24  -2.1020170411451024e-25  -4.3354091071746754e-30  -8.3940721112129897e-31  9.0052426923584928e-31  -2.0726463933567704e-28  -7.5772239023328746e-29  5.1149919828394179e-28  8.7223656155804319e-28  -9.0337449651592690e-28  4.8051501024735247e-29  -5.4926573972351586e-32  -1.6232311909240927e-31  1.6973350190610808e-31  1.2885929882979671e-31  7.1990838603525525e-32  -9.9113170279261673e-33  -3.7536714928529322e-33  1.0463023957653352e-33  3.3540152847457208e-24  -4.6985928230582255e-25  1.7222665935664040e-24  -1.3937904859658432e-25  3.3913807327348332e-37  -9.0780760092193625e-38  3.0344026810313414e-27  8.8615034242261468e-27  -9.9309325263184498e-28  1.7096060069611664e-29  3.2573040423228119e-29  -1.9752229591078835e-29  5.7201047037474194e-32  -2.7605856528212793e-31  -3.9893299504970300e-29  -2.1220298001484760e-29  -2.3630718541167125e-30  -4.0774640693830948e-30  -4.1446895702099683e-31  1.6677207048935846e-31  -6.7588972194820352e-31  -2.9019576591941403e-31  -2.2270508147732531e-35  -1.1130501104154316e-34  -9.3275368615248333e-35  2.2066772431077054e-34  -1.8070488721302255e-28  1.6461811099752805e-27  1.3107872698094329e-25  4.2835594436849351e-31  -4.5462299727909303e-30  6.4327058974264838e-31  -1.7500111403498100e-23  4.0550845446459628e-23  1.4823161915364280e-23  7.4034593948826137e-28  1.4912057766302062e-27  -2.5925076257365378e-32  -1.5852604874301683e-30  -3.4917098994078022e-31  3.7435782818342851e-33  -3.0484138470274995e-32  -2.2890781318257075e-32  5.1499496560477774e-30  -1.1191015635041422e-29  1.2323000495663259e-29  -2.8107721614360340e-23  7.6231487331701541e-23  1.1609230750279899e-22  -7.3402758780061098e-23  -5.8192866174463568e-27  4.7607207928393968e-27  1.3758586933019664e-28  -6.8620831917666584e-30  -1.6860413269813179e-29  1.0344823468496682e-30  2.5147137225936613e-29  3.6096167640346281e-31  -7.0686040058059421e-31  -3.8747156998808729e-31  1.5710843063933233e-30  -3.4837050312954326e-32  1.4684339026059395e-33  5.8179838068874515e-30  -2.0432744707889020e-29  2.9483234478942751e-30  -6.9499547586229488e-30  2.6142306920207064e-30  -3.8871965227681315e-30  3.9633056830017786e-37  -5.8678850595780276e-24  2.3779773427802209e-23  1.1794457159856615e-34  -6.8599847930634962e-34  6.9484093187484665e-35  2.0126242109363896e-33  1.9302769475443335e-32  -4.5278746979011410e-33  -3.6270395603659479e-32  -2.6449773382691341e-29  1.9610340594270499e-27  -1.0037825890188668e-28  -3.8140592289443458e-31  4.5263790975937784e-30  -3.2977009433884491e-31  -1.0293808529726058e-30  -1.3939008327405540e-24  3.1800727286194338e-25  -6.3579240932075871e-27  -2.5505588446636704e-25  -9.7762537968444273e-26  -4.7408554226147770e-31  1.3511319540094108e-26  -5.4263479496909557e-27  1.3161031523976522e-27  -2.5155187318924894e-29  1.1463483186308410e-28  3.0069876823589625e-26  -3.0344781164503753e-25  3.1641643353297920e-26  1.8419103461698392e-26  -1.5976855864621362e-34  3.5325658681846027e-34  5.8350380842513847e-34  -8.0516118962167663e-34  -3.4388643175846198e-32  -9.3703903927230131e-33  1.8880113496879990e-33  6.1157702593808810e-32  -1.2417836096852137e-25  9.9846692608003120e-26  -8.2708398348270362e-28  8.2805771112935243e-28  1.8802980415982577e-26  -5.8760556649069824e-27  1.3780723440938004e-30  -2.0682461246633392e-29  6.8167165784791891e-29  -2.2557308916998126e-30  -2.0445424078292803e-30  -2.6523735644367703e-30  -2.4797914694473370e-30  2.1817725810519325e-30  -6.0142182406074256e-26  -1.5708001820111340e-25  3.9795772446159325e-26  3.8751398136435729e-25  -2.1922502480817798e-29  2.5158869464331057e-30  -1.5594125489598884e-29  -2.8593134331779707e-30  3.8619061446527999e-29  3.9521931620851104e-29  -1.4951244760070285e-28  1.3668886687596105e-29  8.4874677840640167e-25  -2.6487993857253180e-25  8.0548983217423916e-25  4.41441538167