<?xml version="1.0"?>
<VTKFile type="UnstructuredGrid"  version="0.1"  >
<UnstructuredGrid>
<Piece  NumberOfPoints="4795" NumberOfCells="19171">
<Points>
<DataArray  type="Float64"  NumberOfComponents="3"  format="ascii">37.9563102722168 24.45449066162109 10.94330024719238  38.35604095458984 23.67276000976562 10.98674964904785  38.51703615627169 23.94887147026637 9.529690675837218  37.90902115676003 23.12924412830383 10.00537454279683  38.98678284009119 23.7603995580178 10.31130856530323  39.27981185913086 23.58613014221191 10.80130004882812  39.89416122436523 24.17546081542969 10.42133045196533  39.51565854264082 23.4324178482504 10.43248316975938  38.98297119140625 23.23703956604004 10.87409019470215  38.82681916468174 23.62861112632823 10.89223960286158  38.8913700203281 23.30812999348364 10.47725718989066  39.89416122436523 23.94548988342285 9.55731201171875  39.89416122436523 24.46122932434082 8.812515258789062  39.89416122436523 23.32547950744629 8.607916831970215  39.89416122436523 24.18450927734375 7.768991947174072  39.89416122436523 23.08750915527344 7.253117084503174  39.16571574857417 23.07281145453378 8.375523705620457  38.87236022949219 24.75435066223145 6.660829067230225  39.20029830932617 24.15913009643555 6.486288070678711  39.08100896955899 23.74226970752433 7.265524458059358  39.2667673606292 24.96483259851268 7.129117766220235  38.89065933227539 24.3741397857666 10.88687038421631  39.08523559570312 23.98013496398926 10.84408521652222  39.89416122436523 24.16916084289551 6.813395977020264  38.40391159057617 22.82642936706543 10.62668037414551  39.33205032348633 22.63949012756348 10.46518039703369  39.01574981463563 22.83704318268216 9.624737670738405  38.70695418689169 24.56214186093092 8.087064371641677  37.48654937744141 23.86907958984375 11.11993026733398  39.89416122436523 23.18572998046875 9.840580940246582  39.30390730145014 23.14948426926147 10.64626195990043  38.36016845703125 24.02113914489746 6.844755172729492  37.15845787752341 24.22537626665227 10.04390807712972  22.89839900742558 37.48639348696763 17.88178627657244  24.22996891874948 36.64350979726669 18.24660652791524  22.60429124671926 36.57286876850406 18.63107125019338  22.84549597719834 37.49523845956726 19.12194224078793  29.14584922790527 26.64089965820312 11.44569969177246  29.10530090332031 26.69252967834473 10.41199970245361  29.53557014465332 26.04458045959473 10.66683006286621  30.14404286704422 26.40705006988062 10.61976678078266  33.79529719572293 37.82231186645824 3.864786625055443  34.3938394599971 37.89076861304078 5.208061247066808  33.43042305305257 37.38396579764058 4.957627561281092  34.49010617097758 36.44004186963532 4.309859156442432  29.25046920776367 27.57793998718262 11.8153600692749  29.54140090942383 28.39926910400391 11.78724002838135  30.05015506795884 27.18874930182324 11.59442604878012  29.85032277021046 28.41360759720264 11.2002346948937  35.86180025132963 37.88812912451007 2.273364802673123  36.42772639077702 37.08406681891518 0.8516958971841004  37.35396142039775 37.35692138694101 2.003295804251904  36.52120949076065 36.33433422070804 1.813102516681819  36.14698028564453 28.93998908996582 5.843766212463379  36.66511154174805 28.38151931762695 6.234254837036133  35.62075158271717 28.40809927005136 6.862359012907198  36.54984335346739 29.35114850414535 6.261022895437693  38.33961868286133 24.82773017883301 16.90376091003418  38.75830111425823 25.98844051603398 16.73495065013664  37.56963216891526 25.26050076762672 17.24539449246948  37.83297289332918 25.79666962164141 15.81306464795704  35.7277090350715 36.31279524351066 1.111273694537301  35.52630637991624 35.89965167555094 2.703604196956297  34.99109376442938 37.03800329070917 2.240002234695941  23.09486961364746 38.55545043945312 20.7221794128418  23.25704234100377 38.75884585505028 19.59357432602252  23.68886269564554 39.13055021075643 20.32158779163047  24.05602943935808 38.08805137646113 20.48543172022932  33.93841171264648 32.00180816650391 21.44054985046387  34.75746917724609 31.61702919006348 22.11128997802734  35.47894685449135 32.10670778478683 21.756655851277  35.18177144517734 31.79288665963643 20.6040800628816  28.50652351175283 37.65572960275285 11.98121921110994  29.24949729823076 37.5268329002845 12.59662244190681  29.15883763876019 36.82351456360787 11.4817373084156  29.4960525091582 36.43457063230868 12.3133364907325  34.64684158355733 32.83765111232317 21.02283286270424  36.0003199300168 32.92634994865154 20.39557836513376  29.13170051574707 30.01021003723145 3.273844003677368  29.35268974304199 30.17313003540039 2.697108030319214  30.23012521553307 29.65225153619151 3.683384647441272  29.89034002419086 29.04050950433894 2.709607936177886  29.03285026550293 32.83634948730469 19.52033996582031  29.55270004272461 32.48451995849609 19.15031051635742  29.87287617709913 33.1472599022133 19.36939172423442  29.76208782306665 32.7447324351544 19.89186529741637  32.57519804994809 22.41262138236794 12.92795035234282  33.9778879536516 22.19010722855084 13.78993211627575  33.2496521028332 23.6003932529205 13.06044505852347  32.45934917860564 23.02160595025841 14.25888746901208  33.32765960693359 34.00210952758789 10.79689979553223  34.12258148193359 33.87284088134766 10.7506799697876  33.28377148491857 33.43938346478531 9.882563509438228  33.59961964555663 33.03787459074424 11.14031153581807  25.21623039245605 39.89572906494141 19.90225982666016  25.88199996948242 39.89572906494141 20.73867034912109  26.28609085083008 39.89572906494141 19.78190994262695  25.46447325090089 39.29783858040163 20.16510570299291  39.38468933105469 30.1632194519043 8.565606117248535  39.89416122436523 29.24519920349121 7.875491142272949  39.05503174147105 29.80409804850154 7.551352430439628  39.0541216259247 29.39661548193948 8.645447021181161  34.60824607335081 34.94585524769541 21.92918466615566  35.04243476049936 35.42514119361567 20.62568496688014  34.1309435101215 35.85980482829576 21.60444164599777  33.95718548069826 35.38618069139923 20.69218804136077  32.20735168457031 34.93273162841797 21.06422996520996  32.81402969360352 35.37643051147461 21.35054969787598  32.98840317751588 34.85007037812836 20.52385031392245  32.61108761838319 35.86309378565823 20.7690255873091  25.64642906188965 39.89572906494141 11.9540901184082  26.65558052062988 39.89572906494141 11.98528957366943  25.78174018859863 39.89572906494141 11.21426963806152  26.55133206509927 39.12735167974602 11.09532000524577  37.24288940429688 29.48521041870117 19.38298988342285  37.22970864326154 29.49621159776513 20.60219150547834  37.49859339661114 28.65216186187621 20.02035958154338  36.16608659825462 29.24703045586205 19.82420522577056  28.97493934631348 34.55469131469727 18.06711006164551  28.82040023803711 34.72962188720703 17.28010940551758  29.52529907226562 34.12055969238281 17.33939933776855  29.35595347480549 35.35038877666089 17.16339016506559  28.78562927246094 28.34869956970215 8.253138542175293  29.52717971801758 28.95883941650391 8.219976425170898  29.3415699005127 27.84584045410156 8.085629463195801  29.23469614632614 28.09076668246142 9.169136169381279  21.85374069213867 35.32550048828125 20.48447036743164  21.83684921264648 36.16336059570312 19.61306953430176  22.49912071228027 36.21389007568359 20.36309051513672  22.61484370257775 34.69663120576917 19.95070154050249  31.1173020665194 37.84003842865694 16.67542652089429  31.66850787897059 36.78357161799112 17.08939240529346  30.6541929185801 36.53224100521557 17.66627905595773  29.79634001856575 37.07106102631366 16.75463919629162  33.13928985595703 24.84407043457031 16.46417999267578  32.98077011108398 25.12030982971191 15.69392967224121  34.19137857714567 24.71735611412296 15.99972515970918  33.50779603225673 25.50747291377759 16.51589148710444  28.688997423267 35.90878544598903 11.41521891199799  27.6030597598 35.30701359221214 12.28771857056903  28.68809766520732 35.29522822330095 12.6673470468989  28.0675155688949 36.34722888807867 12.43983764630027  35.31187057495117 34.3949089050293 9.406467437744141  35.35221862792969 34.7327995300293 8.838068008422852  35.94939041137695 34.11272811889648 9.009658813476562  35.15229585024819 34.02717120372791 8.735902892175707  36.06398010253906 32.02177047729492 17.47834014892578  34.45696378003381 32.53238794502201 17.52576697491986  35.01250667243134 31.44896082418335 16.66842441567126  35.67339637969599 32.40754441159594 16.41209239208401  31.93198013305664 38.58829116821289 14.53246021270752  31.03525929052168 38.72587248090324 14.83825113960635  31.42866324213969 38.2269134048647 15.58959639299345  31.1075762186903 37.86526429880002 14.76531294119328  33.36613082885742 27.0256404876709 20.88698959350586  33.50728988647461 26.08851051330566 21.04730033874512  33.66421791898935 26.9406431462748 19.91699602149553  33.94286060797922 27.164716187112 20.61371584810178  35.66598892211914 22.42164993286133 14.59554958343506  36.07872009277344 23.22382926940918 14.64480972290039  34.9365125521049 23.60385985915342 13.94603525771374  35.34385246613062 22.31081318828308 13.81596590456174  27.66959953308105 34.25511169433594 13.50712966918945  27.53927040100098 33.41421127319336 13.19064044952393  28.28171920776367 33.83689117431641 13.08613014221191  27.56745454583156 34.08933057146857 12.36796245555995  28.58072090148926 39.08330917358398 22.7846794128418  28.79528999328613 38.34627914428711 22.73069953918457  29.15099906921387 38.95196914672852 22.38149070739746  28.62740924005215 38.79199301214796 21.53895795417733  33.56139702508516 32.03024604787424 18.83180897893807  33.00152002881335 31.10371749743409 18.07651275655927  32.51762381613566 32.30320785566312 17.47818370706947  25.58127975463867 35.69157028198242 18.78720092773438  24.53618307486278 35.74339332992417 19.61264152311057  25.42421603070777 37.07693672000483 19.33001553258124  33.10284042358398 26.23628997802734 15.79393005371094  32.99613189697266 25.52351951599121 16.37795066833496  33.04587554931641 26.09829044342041 16.3
[...]
<PointData  Scalars="c_HbO2"> 
<DataArray  type="Float64"  Name="c_HbO2"  format="ascii">5.6063112389876432e-48  -8.3664087632540830e-47  7.2489190922612064e-47  2.2763048726708271e-47  -3.5981146818482277e-48  1.9923861445728196e-48  -1.2035741090887764e-47  5.1648182478772808e-48  -1.3512734059462237e-47  -8.8556202163469458e-48  2.2157751076787109e-47  -2.1067991002715018e-47  1.5871601156863855e-47  -2.2964672269734629e-47  1.9178808395451926e-47  -6.7360126274933337e-48  6.9530206049876043e-48  6.2800582903670494e-47  -2.1118642912739014e-47  8.6055098022211033e-48  4.7042590851317959e-47  -5.4299107260046998e-47  -6.3695614925974990e-48  -6.2102127919752787e-48  4.0720611209557511e-47  4.6937608629000325e-48  -8.2035610810491840e-48  -1.3178766859826195e-46  2.1642556326947686e-46  -5.4464467062505403e-48  -7.0832534351477072e-49  8.9102358802014339e-47  -3.2522592791966200e-46  -5.5046465113526512e-41  -1.2510399925618864e-40  9.6896391288095054e-41  1.2010562844960603e-41  -6.6328893149062306e-42  6.6801694585237056e-42  -2.9815572068270898e-43  -4.5725497961526493e-42  1.1663987394017754e-46  -9.0504781101816540e-47  -7.7587211219401852e-46  1.0081778768919240e-46  3.5017285020364399e-41  3.3429013687311629e-41  -1.5807048190447457e-41  4.4733855911964213e-41  6.4837557505245538e-48  -1.5680788953725861e-48  -9.6773782542415743e-49  6.2305248915521122e-49  -2.8733995758314814e-45  1.2345395038349570e-45  4.3008563660674624e-45  -6.5431905159233832e-46  5.1179450687274670e-49  3.7343824473523945e-48  7.3077885074324605e-48  -2.6705910688260656e-47  2.5659905881297087e-48  -1.9225371880507291e-47  -6.4419098081455934e-48  3.6733033150859734e-41  -3.5934929931251238e-42  6.4906105030863863e-41  3.4626177350800199e-41  -4.6932775287782808e-46  7.3155807056987985e-47  6.1210460839522314e-47  -1.2415676479062621e-46  -2.1177612716262879e-40  1.6182277125266575e-41  -5.7526063514319445e-41  -9.8190204291821907e-42  2.2228335920412403e-46  -1.4718464041253439e-46  -2.0101532780476121e-44  -2.5178293444731878e-44  -1.2301341970242537e-44  7.2300330310895957e-44  6.6716441202747112e-43  -4.6508952732319545e-44  -3.0902315408102501e-43  -9.1571641091578470e-43  -4.7916630582143217e-44  3.9941369031640882e-45  6.0736500760407734e-45  -6.6634331727025212e-45  -4.7285762139069068e-44  -1.9314256901567918e-44  9.4583635882592451e-44  2.8624278289091085e-44  -3.4313781810248067e-41  5.2957960598454312e-41  -1.4392227436433299e-41  3.8083399763737159e-41  2.2370639913663577e-47  1.7154483167841648e-47  -6.8966508794065321e-48  -2.7152430400199797e-47  -4.9897211870746886e-46  -5.2487044621221729e-46  -3.0634818367686893e-46  2.2445106126703452e-45  5.5130306988389720e-44  -9.3059172853150805e-46  -2.0653781843528618e-44  -1.8567744319482055e-45  -9.9546818851910933e-41  1.6844829720908686e-40  -5.2471220033923367e-41  -3.3991822373877233e-40  -3.0361288504267917e-49  -1.6186329229277001e-48  4.0493806653301565e-49  1.5903384912873879e-48  -1.5981074434723210e-44  3.0884492536984795e-43  -2.9713565502809354e-44  -9.4828754222215688e-44  2.5643036696783320e-39  -1.5677955624912128e-40  -3.2046801660550746e-40  -1.5919168387411266e-40  -9.6170449150841692e-40  -8.7200624741034828e-41  3.9479399223943119e-40  -1.3207957978122358e-39  2.1597274868165156e-43  1.3055946885912007e-43  2.6392766771238019e-44  -7.5715048873616439e-43  1.2385550855038527e-47  -8.6542825451931316e-46  2.2348844868691036e-46  -1.0388313009714726e-46  -2.2852926216399674e-40  8.7339356148244695e-40  -6.1592412658162830e-41  3.0496125958908403e-40  3.5546457965700110e-45  -1.1880177640431047e-45  1.1761276279946449e-46  -5.1519044902130180e-46  -1.2893347303566289e-46  3.4762648355997499e-46  -8.7689942689547581e-47  3.9380497986741335e-46  -3.9074671552267525e-43  5.6366861424569379e-43  -2.4260943170583726e-43  1.4494627310996480e-42  -8.6754978299462319e-48  4.7733500221759648e-48  -3.3584812852551571e-47  3.7756711345335494e-47  4.2372792532943702e-46  2.1204739756554534e-46  -7.3647215465123083e-46  -1.3212305526130459e-45  -1.8914044578728090e-41  -1.7262357451840976e-40  -7.2262942123522343e-41  4.4044968497540205e-40  -8.4772044897271795e-41  -3.9887867674867426e-41  1.8180958908930858e-41  1.1461560400544028e-41  -1.2974701906835061e-46  1.5861978603413961e-45  1.8614919153376654e-45  -4.8691587722105895e-41  9.3592021642348339e-41  -1.7959778551560147e-41  2.2012370351279259e-46  2.0023565179281084e-46  1.5187730650298511e-46  -1.1653092009690652e-49  6.4466217808177080e-51  1.8598926262977196e-49  -1.2022750678193551e-50  2.1332167607811095e-46  1.2527185317168212e-46  -1.0616789648110069e-46  1.8784734628200635e-45  -1.0222754424562711e-45  -4.3098128159808477e-46  2.9919897710928316e-47  -1.5576778127566588e-46  -2.6531626766312088e-46  6.1689421021406949e-46  -1.2985561154592667e-42  4.8262981671870544e-42  -1.1876387730280129e-42  -6.9609925026481506e-43  1.3252099044159927e-44  3.5199644525278975e-45  -2.2236372858236033e-45  -7.7888293074568368e-46  -4.9286397553894035e-47  2.5870298846846970e-46  -4.8456067846456865e-46  1.3428997547674676e-47  9.6272741527444941e-46  -9.3162129765142367e-45  1.8568396808951214e-45  -4.6576706315178892e-45  -2.7036134881967164e-40  8.8795306739805183e-40  2.9650691576345575e-41  -8.5004094247400619e-41  -1.9420321407715129e-47  5.4249619968782490e-46  7.2752341788313788e-48  -2.6743225213529578e-46  -1.2901165307044547e-45  -3.1423625007181165e-46  4.4689699369669626e-45  7.4121418758554218e-46  -1.0066214994758255e-45  3.2579162327318248e-45  2.2503753631310833e-45  -2.3514060870381999e-46  -5.5735196565839450e-47  7.8099582105346567e-47  -2.8641671941658436e-47  5.2173959393615881e-47  1.3343444378947129e-40  6.2760940592409673e-41  -2.2177773511589319e-40  -4.7841140868244875e-41  -6.3816170477460574e-48  -4.3903008243870277e-48  6.2815125970037196e-49  -8.8106426470858527e-49  -1.9684468579656221e-47  2.7024569536896538e-47  5.4247971075468124e-45  -1.9322291404775117e-44  1.1935534031329171e-44  3.8329652019231479e-45  5.0960498895837030e-43  1.3827853947596665e-43  5.8406016857476425e-43  -5.6730879295557306e-42  -1.1577747047483748e-41  -2.6424242429346637e-40  7.8672257143184486e-41  9.8769440723896608e-41  -3.4189578175263409e-40  4.8622931681683551e-41  3.8003290282981325e-46  1.0042789136420909e-46  -9.7413294284448644e-40  1.3358800382333089e-39  1.1026717842930349e-39  -2.8472800763130197e-39  -1.2071280418467785e-49  7.2517372021709893e-49  -4.1501075505369147e-50  5.8528547647217963e-45  -2.3464809759356150e-44  1.0705778437789894e-45  -9.8585417429392216e-45  -8.2427897681677655e-50  1.3358255126666844e-50  3.9986102964116463e-50  1.1624327868881858e-50  2.9450730698218457e-46  4.2815516766654787e-48  -4.7401755651202494e-47  3.2356511872284112e-47  -2.2870111418891981e-46  -1.5510167464136573e-44  -4.6782432271304627e-45  1.5108353093426501e-44  9.2721893638968405e-45  1.5864719789413955e-49  -1.0759692592513744e-49  2.2615859511102238e-50  -3.1785898496502048e-50  3.8101228182702283e-48  -1.9408873554891420e-47  2.8050004868210686e-48  7.8992847689948995e-49  1.4535815664048380e-46  5.9278760220151495e-47  -3.3621483085198722e-46  -1.9262415219084947e-46  -8.6530310669486232e-51  1.9849745968629148e-50  2.4478548312570302e-50  1.0611371318694524e-50  2.0418422300446234e-42  9.6005704820499227e-42  -2.6946999263603452e-42  4.8205351612010972e-49  1.7288032209792841e-48  2.7744182107018255e-49  1.5865794262283900e-49  -3.1334617328426115e-49  -1.7740723130684118e-49  4.1271079851966071e-49  3.1358634403101459e-42  5.0651070969965008e-42  -4.2902308244912016e-41  4.2265045137500426e-42  -2.0348990199893767e-46  1.1707742199701273e-46  -8.6452514641922398e-46  -8.1532678143085769e-48  -1.3394856055443344e-47  -8.0275080394768447e-48  -2.9416601947001311e-48  -2.9147043769539247e-47  3.9621325122034986e-48  1.4824627244478591e-46  -1.6087512431003653e-40  -8.6557899154968133e-41  -8.2525784075349658e-42  5.5291482993439647e-40  1.5793586039900702e-47  -1.8426947928666311e-46  -2.8959104095915831e-47  -1.3946012956328296e-47  6.1426669272840685e-48  -1.7734177364796917e-47  -7.0582411202619088e-47  -3.0781820209477376e-47  9.0921339102372275e-47  4.3807352488676160e-41  -7.9179125511999967e-43  -9.3823958315806872e-41  1.4828740440826099e-41  2.5443845222022318e-43  -1.4843227736548930e-42  -9.3438636564016479e-43  3.9670687678916950e-43  -9.4419177312055676e-46  1.3449950526377506e-46  -1.9488973199867555e-48  3.4212715575025991e-49  1.5308916983071387e-49  -3.8309549752345348e-50  -1.2055397540956230e-49  2.7647938220578741e-45  1.8839163363052832e-45  -2.6301644663633391e-46  2.0833282699458213e-46  -3.0447255792481860e-46  2.5135462473736307e-47  4.5376679580044192e-42  -1.0994309641252946e-42  2.5575630734140898e-42  5.8885054140646357e-43  1.2707458921850465e-48  -3.3985766493883375e-48  -5.5706972738829203e-48  3.2711611955517666e-46  -8.0371491325885767e-46  -3.0671705379296348e-46  -1.3856123380680001e-45  2.4024557260239708e-43  -4.0992261965312433e-43  8.1283455701614716e-44  -6.3008915965936621e-43  1.6121582061297656e-43  -4.7127374626973901e-43  5.4781804145719608e-44  1.7601382204134383e-43  -9.9731744368737929e-42  -7.5907933169908890e-42  6.4932533000886665e-43  -4.1242054907801274e-43  -1.1951317180781661e-42  -8.6829974397746382e-44  9.6950213957666327e-43  2.6234581402035324e-47  1.0553559952356327e-47  5.4593219896568636e-47  -1.7552379194168891e-46  1.4748842006237738e-46  -2.0019514391717046e-47  -3.1598405699521680e-47  -7.0238713538912382e-48  -3.0271142509916262e-48  1.5039985702176479e-48  6.3459612872896437e-48  -2.6460027608732151e-50  2.0454232437322429e-50  9.6756711328661203e-51  7.0075607354094016e-51  -1.0895457669385903e-44  3.9381170919240001e-46  6.3154739457864734e-45  7.2804423137817697e-46  -1.1741660881417956e-45  -3.0742814352407186e-45  1.9332382585823219e-45  -9.6965019144064541e-46  9.2680308555959387e-45  -1.0002751377293326e-43  4.7798663563203323e-44  4.1065166991712582e-45  -3.1539920296427391e-50  -2.1834765441793481e-50  7.2358161195985112e-40  8.5630858245636603e-40  -2.7218798649145507e-40  -8.6278092338824438e-41  1.7334620222849796e-47  -2.0080443843292717e-48  2.5738330760304485e-46  -3.8254158155231008e-45  -9.4903577613525230e-46  6.1356122988409465e-45  4.1505401162019928e-46  2.2663846717221466e-45  -3.7577778586448057e-43  -1.1721849991530213e-43  1.8598707178681148e-43  -8.9275714813439303e-45  -3.9466139645411021e-40  -3.6073326737769591e-39  2.2202458208560497e-40  -2.3997095209671829e-39  -8.5288781587733718e-46  -4.0138160914422913e-46  7.1136066444634580e-46  -3.4297203749669923e-43  1.1728732077882329e-43  6.6682710416576097e-44  8.3233921851736833e-45  -1.3387620671886066e-44  -1.4742856741429966e-44  -1.0121350252166305e-45  1.6560656519182811e-44  2.0498575592641639e-40  5.0171365922087356e-40  7.3163904228835464e-43  8.8102325055819104e-40  1.6652397756054334e-47  2.6665947945539212e-49  -3.4480444195550540e-48  -1.4147719097438821e-48  -2.2125572786600939e-43  3.0982945613372398e-43  -9.2950996422742504e-44  -1.8509909483166740e-43  6.4235849482356160e-45  -1.9775507070797013e-45  -1.2829483380819056e-44  -6.7403916190488039e-45  6.1972110229229623e-49  -2.1474149435036565e-48  -1.9817208281239347e-48  4.0954766443273801e-48  -2.0130208684577865e-50  -3.0542528586614102e-44  1.5107454196281606e-45  1.2241277966854324e-44  -2.5038765699210648e-44  4.9653584826759244e-39  1.6512643341591604e-38  3.7893967877400894e-48  5.1418344973951936e-48  1.5254740642713403e-47  -1.2600588727222904e-47  -1.9730858786591388e-48  -1.0646490447538689e-49  -6.0203455059100881e-44  4.9024835615662487e-44  -1.7806761855625607e-43  -2.0353425025301342e-43  -5.3133678279860345e-42  1.1803941484132308e-42  1.7287189343339664e-42  -3.7696638158334465e-42  -5.3120274072424945e-45  -8.8426294752093597e-45  -8.0745758118352119e-44  4.6268056682062179e-44  -5.3539143117876405e-43  4.6586901013552275e-43  4.0175139932240109e-44  -1.9082119542571567e-43  1.8747780166052536e-45  -4.8541534972159724e-41  -4.9676066669982946e-41  3.1116218570731096e-41  -4.2915299674870690e-46  -5.5885610682576874e-50  4.6075480995401553e-50  3.0241496593425407e-50  -6.6465968802677922e-50  1.3240933005771277e-43  4.8784099730250853e-45  -1.8637962564463460e-43  1.9029423512716852e-46  -3.6269747711830966e-47  -4.4904584290317499e-47  8.2138859599761000e-48  -9.8292005081684969e-48  -1.6975365660711194e-48  -3.6877728864959437e-48  1.0472058090713942e-47  3.7672688012971724e-39  -9.3977459263144864e-40  -1.3881745263133705e-41  5.6619542555767054e-42  -2.3732478948248368e-42  9.4909860135404956e-43  -4.4387813642739588e-44  1.0135484890296373e-46  -1.2684029147066862e-44  -2.9992907299615429e-45  -6.0634728760987524e-45  1.7921562068447536e-44  7.8173776767996658e-45  -3.8762440275244399e-44  -4.5340367011280207e-42  -3.8222085074405960e-43  1.6730419052919608e-42  6.4481504546763992e-43  -3.7618734221738592e-41  6.2606398160497838e-42  -5.1627111412739018e-41  1.5033462536127727e-40  -4.8451547933451891e-44  -1.1151596789122340e-43  3.0181264815879949e-44  -1.5608071493639813e-43  1.7671838885265328e-41  2.7318850251770562e-41  -1.5540800206015093e-41  6.4581299377145965e-43  -1.7295049756119784e-43  -3.4057465174982875e-43  9.8830602094397946e-44  -8.2547161787155250e-50  -3.4385464270263735e-49  4.9701091562623554e-49  -2.1509061444483869e-44  3.8912239352135829e-43  -7.4642463388409621e-44  -4.5598504412213798e-43  -1.2215922929587477e-42  -1.2457555056611148e-42  7.7811808727431159e-43  -7.1596085684531786e-46  1.7353096281727410e-46  -2.6334008408209040e-45  -1.0302483405423288e-46  -1.2733755102986249e-45  3.2478184313875231e-45  -5.5522047555105849e-49  9.3610875271664545e-50  1.7026609409226381e-49  -2.3559813910480982e-49  1.7483721359125854e-51  -5.7387275734183775e-50  1.9717434516616199e-50  8.3073640475799438e-41  -9.7111941614828067e-42  5.3129214186430656e-41  -4.7477804494454644e-42  2.2557546140663015e-44  4.1001399116239459e-44  -4.8650841550150010e-44  -1.1042451698794469e-43  6.1672296401495781e-41  -1.3901312347775348e-41  3.6400639152903759e-41  -1.5746585441724647e-40  8.6028012653259061e-40  -6.7860057520025529e-50  -1.3218151915521404e-50  5.2497049654120659e-41  4.6981991727832706e-42  2.9876351360286076e-40  -5.6246044498168168e-41  5.9043743128718466e-48  -2.3039296554947684e-47  3.1903222976278615e-45  1.4184973204323419e-43  -4.1727504234588166e-43  9.0348772762853925e-44  -4.1991241643095857e-48  5.8171580042758518e-48  -1.2381864861090667e-48  -6.4712723618356603e-52  1.0033559041823834e-47  9.7388893275253044e-48  -4.7221300134464370e-48  -1.5556814930604326e-49  4.0304063687136262e-41  1.6935869019521131e-41  -9.7399612345626019e-45  2.5896560913526423e-44  2.9999053686074932e-44  6.0344812078970470e-45  5.2585806239543125e-46  -8.3189244348538929e-47  -6.7584035343579738e-47  -7.6817220351007184e-47  -4.8057281489475092e-44  1.4119956805751386e-44  7.0216889595574086e-44  -1.0739586117588021e-43  3.2397744035965960e-46  -4.8443982410716019e-46  -1.3806799175717737e-47  -1.3062001574450965e-47  4.3252370828014326e-48  1.5442633526164622e-43  1.3816015702075838e-43  -1.5071297790000174e-42  -9.7849045141741771e-50  -6.0957612574771296e-50  1.9508382984168366e-50  -5.3639235234595094e-50  -3.5300883959115117e-47  2.4142426946668367e-47  2.3422652366953219e-47  -3.3758293851913050e-50  -2.2678141434513787e-42  3.4686592451315298e-42  4.0188875219758826e-43  -3.1458911303681180e-41  1.9654396373882446e-47  -2.5789115323850070e-48  -5.8010106289983859e-48  -6.9502337502850745e-46  1.4292998560378394e-45  -2.4247142947257718e-46  -8.0107584692257970e-46  3.9954102327600179e-48  1.2076320834648193e-43  3.6329498608431345e-43  -3.5124026622310082e-44  -1.7390778133246990e-44  4.6854282244753074e-41  -2.0313978697182335e-40  4.6860381557809504e-40  -3.0609968051226942e-39  -1.0957319439814999e-49  1.9531751654877993e-43  -4.7096259788412820e-44  5.2241538678102085e-43  -8.8254044955470641e-43  4.6877156273725537e-42  -2.5406188687307639e-42  8.0833971105786440e-44  -1.4290335605717965e-42  -1.5753172269437432e-41  8.8683618593051156e-42  3.7575353005523402e-42  -2.0615083179372617e-44  -1.2028098044651859e-43  4.3770025187561609e-43  -9.3109032439749812e-43  -3.6852129995155044e-40  7.1200000885250472e-41  1.8206365119112556e-40  -2.1547503091240198e-41  4.1460191271768169e-45  -7.7372227496040069e-46  1.5742699612969238e-45  -1.1466503281456223e-43  4.5578291180943398e-43  6.3653143687931350e-44  -1.0418108286020149e-44  2.9803657743285280e-44  -5.4708853381133867e-44  -1.9089346941026736e-43  1.0187411566955005e-46  -6.4514526952456297e-46  -6.9868406902439054e-47  3.8326364339376162e-46  2.5954925461154353e-41  -7.0136880873208950e-41  -1.6747386396342011e-46  -8.9234888570371568e-47  3.9669941869453304e-47  3.3775893939848590e-48  -2.0258580200169277e-47  -1.3499319212508241e-46  -4.9875151516414349e-47  3.0472783172336171e-47  -3.0618692335726542e-44  2.6018142411695015e-43  -3.9211953267581040e-45  -5.8937178408930499e-43  1.5996174568885752e-44  -1.7654469439771198e-45  -4.3265099007408160e-45  -4.6132113336110319e-46  5.2330302010850499e-47  7.8725770761253994e-48  2.3504847752033093e-47  -6.5613112673910943e-48  -2.2613266509647070e-47  2.0683765336524251e-43  -9.0938667279974638e-46  3.3819351230995809e-45  7.8832374468880850e-47  1.0222005192066762e-49  9.0486036183894833e-50  3.4909660256772632e-49  -2.9450849487980433e-46  2.2683797367958519e-46  5.8591345914357238e-46  4.6508326613963956e-46  3.2486204969738727e-44  3.2322068843626306e-43  -3.3962143079154611e-44  -9.5672146418407029e-44  7.5060357023846215e-47  1.4779161016543177e-46  -1.6252779242255174e-46  6.2140957988340621e-47  -7.0896897765009293e-42  1.0025695054719387e-41  1.1535700098707281e-41  1.7600453867933194e-41  -8.7114959868432080e-48  -3.3386961751297360e-47  8.5146871202550921e-48  -4.4243356217454928e-49  4.1533684263298020e-49  5.7273644407611956e-48  -8.3185139226022302e-48  -5.6313963017439796e-48  2.5345952627792492e-43  1.1414607713325811e-44  -2.1633686371094288e-44  6.1353937305666721e-44  2.1856721574366803e-46  1.8710208529845154e-45  -5.1511356971260257e-46  1.1317470362735864e-45  -4.6405920617379401e-45  -1.6641779327847145e-45  1.3622115467396066e-44  1.7411714303462882e-45  4.5239510206516177e-47  -6.6797690101115374e-47  2.4861755549394722e-47  -6.9718877315752883e-45  1.0199858086798003e-44  5.8941170850307918e-47  3.4488327816122027e-47  3.6553208210207698e-44  1.3787591619816811e-45  -4.9624827687301779e-44  7.8436307837803944e-45  1.2881213540002886e-45  6.4246226585339349e-45  -2.3677036722284134e-45  -3.8953145045172665e-45  -8.6542781132654285e-45  1.3380263203125107e-44  3.7513019309288029e-39  -1.7523769537014981e-38  1.5814288768822762e-39  3.0752728143433726e-39  -5.2061040362021681e-46  1.9186369572973731e-46  -1.8778307721879958e-45  1.8824595651167540e-44  -4.5644286162725732e-45  1.2938641934404708e-44  -3.9560018397668287e-44  6.7513507598444199e-45  7.3855965546725573e-45  8.7103196433241429e-45  2.3469030699454040e-48  -8.5314839589105044e-50  -2.2668963905266272e-48  8.8378571588697426e-49  1.7318361679469991e-46  6.0335286796930251e-48  2.8907776978542008e-39  3.2997970116525923e-40  -2.2490205475982205e-40  -8.7988769310218404e-40  -4.2586514039596120e-48  -1.5645029546593976e-48  2.8535669779219670e-48  6.9944476136854802e-48  -8.2735793681216595e-45  -2.7734766039887923e-45  3.5658088926970939e-46  -2.8745179176864995e-47  -1.1989346657662613e-47  -3.4534784290405528e-44  -3.3362799167994208e-45  1.7298124784354318e-44  -9.8341531714326268e-45  4.7401909648106537e-44  -1.1863967572393172e-43  4.8695553130012034e-45  6.7803311128533860e-44  -1.3243499416265432e-44  2.1041642750247993e-43  6.4877116923865372e-42  9.6965389530397140e-41  2.6546548252683520e-41  -7.9740678765809938e-40  -1.1165660981166133e-39  1.11446735474