<?xml version="1.0"?>
<VTKFile type="UnstructuredGrid"  version="0.1"  >
<UnstructuredGrid>
<Piece  NumberOfPoints="4093" NumberOfCells="16375">
<Points>
<DataArray  type="Float64"  NumberOfComponents="3"  format="ascii">32.82822036743164 19.20314979553223 38.07062149047852  32.91257858276367 18.3771800994873 37.8048095703125  33.27568501011447 19.18917403450212 37.28318304680815  32.58183381278117 18.93603798961593 37.25466432556418  33.73038864135742 19.90756988525391 37.95827865600586  34.45394134521484 20.59691047668457 37.8654899597168  34.49996948242188 20.07081031799316 37.45333099365234  33.80634696699604 20.82579157783631 36.90764718905221  31.47934913635254 20.95421981811523 29.91850090026855  32.13589096069336 20.92571067810059 29.46285057067871  31.62850570678711 20.80660057067871 29.44246482849121  32.25195457670224 20.29975624314781 30.01418649675349  34.28307470169612 21.92950712780127 36.17837222740703  34.96959825415456 22.67486294816436 35.9882445050678  34.38398409781292 23.26360592498445 37.29721429444657  34.54773204463482 21.9731996427638 37.12867188070845  31.87166976928711 26.32401084899902 35.95365905761719  30.98878148305599 24.85502664836832 35.74128317578482  31.37425094045921 25.22827514139823 34.76453018121875  32.37856290342822 25.15445194820811 35.92569929949089  33.72264099121094 20.21820068359375 33.88114166259766  33.96395111083984 20.43791961669922 34.65565872192383  34.48305130004883 21.02586936950684 34.1449089050293  33.40219477909476 21.40849962990584 34.18597978333459  32.02101898193359 18.22079086303711 37.67462921142578  32.16039445183016 18.47315970950255 36.5187776981227  31.79847383326024 19.38800915532483 37.01234238584365  30.92023618856076 21.74597408210529 35.55871275136083  32.1541151166784 21.20175385455105 36.63079628268319  32.1354794377211 21.4571571516322 35.10413252864571  32.15057623561066 22.44848270603721 36.45833371661651  31.80764961242676 20.18325042724609 29.2271900177002  32.87397003173828 20.51024055480957 29.10692977905273  28.72407352087112 18.43113827700427 35.79584580643362  28.90647639073023 17.70674058704176 36.90175237229563  29.26609935080705 17.23946515273194 36.1717096086462  29.65873541059512 18.56351362015466 36.6887365198283  33.19493103027344 18.84020042419434 35.02624893188477  33.51771926879883 19.75398063659668 34.83082962036133  32.27372520337639 19.8460475063093 35.38375680608649  32.20914830284985 18.92753373439172 34.8091877327823  31.15727043151855 19.93782997131348 32.12229919433594  31.63215065002441 20.21991920471191 31.53940963745117  32.04383850097656 20.17028045654297 32.47463989257812  32.12727825685784 19.23599187783836 31.65487601853859  31.07680048567109 18.10255907951351 32.83645572609233  30.65898798214275 18.90403554358263 34.21390955619733  30.24915510300355 17.59860903637626 33.62611520040998  29.85499075890512 18.62783214660687 33.23207041971133  30.78821372012881 19.23632067845444 35.89043628226084  30.18177477478252 19.92500653629374 34.95158152256825  29.2462457558179 19.15132018842818 35.33492630823923  32.29381942749023 22.05887031555176 34.07014083862305  32.95974073529737 22.44462539519441 35.15352934720307  31.59950065612793 17.67890930175781 37.23772048950195  32.91096878051758 17.22368049621582 36.56270980834961  31.65341425690061 17.66914138542854 35.6652981871896  33.95270919799805 20.14723968505859 35.27967071533203  34.43724822998047 20.84349060058594 35.15254974365234  33.97316837411243 21.0152349360139 35.56238449244999  31.33466911315918 20.32453918457031 38.13648986816406  31.99966049194336 19.68321990966797 38.14086151123047  31.29403405122279 20.2129545423742 37.21495891566443  32.46592442069675 20.21520301151191 37.66141913908158  31.21405982971191 20.0914306640625 33.20293045043945  32.08148956298828 20.48866081237793 33.42892837524414  32.14672725082031 19.32303649209006 33.29478366778327  31.2521866959868 19.98076986925572 34.3445037323396  33.0592615537228 20.08987255093412 31.13719215760822  32.56377431005583 19.36916018412402 30.38459253126464  31.91125557473295 19.92058179849568 30.83605641934486  31.47122001647949 21.05179977416992 38.52458953857422  32.11505889892578 20.49737930297852 38.50094985961914  32.60838144601597 21.13005409513821 37.82950967756815  31.47186686452032 21.1380943592198 37.75855199542523  35.51070022583008 22.77194023132324 36.94931030273438  29.87471001769725 20.5741088958795 35.89900672960957  31.0438661984299 20.83293746089426 34.71454783263863  31.46848589243457 20.44748093305266 35.89146102572849  32.08364105224609 22.92193984985352 34.22145843505859  32.55590645211787 23.7142421131668 34.71095888273704  31.54277847978984 22.82137155445481 35.28613999598431  32.64811322303112 20.09802743480845 36.76250694826163  31.14445546373766 18.92377354360825 31.65658103426995  32.20519311700592 18.17625201446982 32.67640322429531  32.1047005606468 17.73551955272728 31.42652312655561  30.9187073642318 17.78661862341616 31.82153144776834  33.36309051513672 18.03359031677246 37.10519027709961  33.6015510559082 18.38227081298828 37.68323135375977  33.86663818359375 18.68901062011719 37.25685882568359  33.93146896362305 22.24191093444824 38.17210006713867  33.25151489603089 22.08054481791497 37.06994537453092  33.00106979392799 23.30519005247248 37.64295038304773  32.48658019917427 22.39240834029797 37.94278494596184  31.31397711269902 23.20969481261745 37.60805809037367  32.34150593807334 23.30163866298336 38.40600195923013  34.94852066040039 22.69146919250488 37.76993179321289  34.18820953369141 20.29545974731445 31.56308937072754  34.63977813720703 19.91389083862305 30.83237075805664  34.67042922973633 19.5965404510498 31.57427978515625  33.95782505347793 19.49484647784967 30.96742521981498  32.7063102722168 21.22536087036133 33.49639892578125  32.69876861572266 20.6254997253418 32.9217414855957  32.60149779051167 20.34865067547855 34.2833969516717  33.9516716003418 20.43144035339355 32.42282867431641  33.80060958862305 19.47467994689941 32.68856811523438  34.29058837890625 19.52560043334961 32.13816070556641  33.18737358280978 19.85751327489152 32.33659410288045  32.53155136108398 17.67691993713379 37.27687072753906  31.59324073791504 22.46529006958008 34.54750061035156  31.46438503265381 20.43537044525146 29.32463455200195  35.05992126464844 21.56187057495117 34.79158020019531  35.0343017578125 21.50772094726562 34.04211044311523  35.45220184326172 22.02508926391602 33.91022109985352  34.72455876730088 22.11802050156004 34.0098626669767  31.00609970092773 22.1899299621582 38.88563919067383  30.86989974975586 21.63615989685059 38.54492950439453  31.55738067626953 21.74049949645996 38.88969039916992  31.67092767638044 22.15462331821253 38.35576956359526  31.11318016052246 18.64185905456543 37.65922164916992  30.5883237086334 19.29639490399991 37.1729610666688  32.33542029258267 23.79023348429324 35.90096356963272  33.62622429507039 23.58656818334098 35.93501095895449  33.3095502480712 24.32284217448301 34.83386369785841  29.01284027099609 17.74966049194336 31.65987968444824  29.5092601776123 18.51415061950684 31.16437911987305  29.83256912231445 17.83404922485352 31.4359302520752  30.07444023206443 18.74922664952957 32.02116687574057  31.61745071411133 26.69911003112793 37.02101135253906  32.42333984375 26.30351066589355 36.89635848999023  31.02958163002496 26.06161206880253 36.88469122607431  32.03683853149414 21.20046997070312 33.94274139404297  29.03520630129958 19.07826700836979 31.94801374712352  31.3261604309082 20.71208000183105 33.92852020263672  33.28031399249078 23.22354044977956 34.62223542064054  32.16924755597167 21.74577776084702 37.77132467683136  33.72885131835938 20.44205093383789 29.32179069519043  33.41131973266602 19.64513969421387 29.02943992614746  34.26675033569336 19.89176940917969 29.24980926513672  33.38325224766626 19.74615739202292 30.00571951971052  33.35474014282227 19.45870971679688 33.34395980834961  33.82049179077148 20.17309951782227 33.01115036010742  32.33703994750977 24.54257965087891 39.12778091430664  32.42226562919401 25.39799614315539 38.16035863676957  33.09637744686935 24.2805321844561 38.53262725496092  31.82041746038389 24.33066482369247 38.5024756930697  27.95195962788445 17.47703353360726 36.36844619756326  33.98775001698436 19.10409172177776 29.80984072054427  34.90335083007812 20.87696075439453 37.42282867431641  35.10533905029297 21.25322914123535 36.66667938232422  34.7517204284668 20.42930030822754 36.76436996459961  30.65982055664062 19.81410980224609 31.18107032775879  31.08148956298828 19.09206008911133 30.67728996276855  32.99687957763672 18.71653938293457 29.40912055969238  32.85470152141505 18.6393583593353 30.64342913779447  34.13248062133789 20.94796943664551 33.18051147460938  32.21504974365234 25.53326034545898 34.14262008666992  32.00743865966797 24.67284965515137 33.97740936279297  32.57103547731516 25.03951846739897 34.80335557039846  30.26574173844001 17.93357407843525 34.75490156340927  31.84154234523115 17.75322022194979 33.92583380098455  31.12112045288086 20.68749046325684 29.42207908630371  30.6839599609375 20.36043930053711 29.58819961547852  30.92819976806641 20.58909034729004 29.95319938659668  30.94267082214355 20.2724494934082 29.36675071716309  34.39205932617188 18.04195022583008 32.10223007202148  33.85647959247059 18.46072376076198 30.74569311007372  33.663997950881 19.16175762492113 31.79443719218008  33.14636486899792 18.48748709835667 32.10711926077899  29.42292976379395 19.47018051147461 31.10084915161133  29.87709999084473 20.09519958496094 31.74626922607422  30.23841094970703 19.07151031494141 30.99752998352051  33.45130920410156 21.22472953796387 32.81658935546875  29.8692786109409 18.1812458750641 35.76706825322105  30.90326557178419 22.25587850899846 36.638287604581  32.69863891601562 24.19275093078613 34.00090026855469  31.60383401951538 24.007212295155 34.92888924746507  32.22623825073242 20.74739074707031 31.18759918212891  32.21574020385742 20.41992950439453 31.785629272460
[...]
<PointData  Scalars="c_HbO2"> 
<DataArray  type="Float64"  Name="c_HbO2"  format="ascii">-1.0402772589448774e-41  1.4647493932958389e-42  -5.0654203453055698e-42  -1.5231994357775060e-42  -7.7490202566028621e-42  9.1622973829829740e-43  1.7629507050552140e-42  2.2462728856335112e-42  -1.0582454824219678e-42  3.2630216716693695e-43  5.0646060529661742e-43  -4.0633627310135496e-43  -2.4823114010272068e-43  3.0738210633391825e-43  5.4568994942162820e-42  -1.8788241136501524e-42  1.6884836036435723e-41  5.2616227396967813e-40  -9.1232604815838390e-40  1.3800690214558876e-41  1.1330491875441977e-42  -6.1135910078103980e-42  3.4925765465692278e-43  -1.4901271060582144e-42  1.1571786562717362e-41  -1.0492466366035844e-41  -3.7942693239201996e-41  3.5044589700128005e-40  -9.9036113939729749e-41  -4.8590934615244466e-41  3.8268234032588982e-41  -2.2679139486542600e-43  1.1504299930781072e-43  -3.0673527179829535e-40  8.0810508854605235e-40  2.4254494608977783e-40  5.3126631934295632e-40  -5.3199757935368176e-42  1.6388624735563094e-42  -2.3720558174759257e-41  3.2237585769148102e-41  5.3876696814071521e-43  8.3311429101935063e-43  -1.8414114078297763e-42  -1.8044900944527566e-42  -8.8955050318080249e-41  -2.2505218935325911e-40  5.9299446378019872e-40  7.4179412603123252e-40  1.8452256323217674e-40  8.4104511783081725e-40  -1.6494178465154985e-39  6.2714775430101123e-41  -1.3160847512104195e-41  6.4605300022163955e-41  1.1637721467403679e-41  -9.0404306580587318e-41  -1.0703019994419284e-42  1.8405631468980306e-42  -3.9523139372013349e-42  5.1924462686724880e-41  3.2108946424373425e-41  -1.9048110397927290e-40  3.3766417035091464e-41  -2.3853472304913408e-41  -2.0785949384825494e-42  4.8745690697985210e-41  -8.9204720715686492e-41  4.1555423688923168e-43  -1.7227931629662223e-43  1.4497873178111795e-42  1.2489746097706541e-41  -1.8342007838541043e-41  1.3044353356561217e-41  -2.9657256494572639e-41  -1.2648598762996753e-42  -2.0084028398068277e-39  -5.2203061374774711e-41  8.1545290869947979e-41  -1.6605890005494866e-40  -7.4220278300899678e-41  2.2775198774196178e-40  2.3750183685275376e-41  1.4177182834819278e-41  2.6120153306928596e-42  -4.5498784314992495e-42  3.3561383749653258e-41  3.0726395767343442e-42  -1.1171354148523320e-43  1.0089892452973804e-42  1.1490461263490699e-42  3.6662105709558411e-42  -2.7076641414471979e-41  1.0928640055646292e-41  -3.3683170648297465e-41  -2.8008328091459473e-41  -5.2383829451983517e-43  1.1773352381399375e-42  -1.1734751232536996e-44  -1.7640035419782839e-43  -4.6543026481752985e-43  -8.2371104795965936e-42  -4.8951102497866084e-42  1.4367179134672705e-41  1.1361733256812129e-42  5.0088565063329348e-42  1.5248042870593900e-43  -6.4675795788339071e-42  -1.3557963744119680e-41  -2.1552896002456050e-40  -4.5729982286346725e-43  -4.8008974010760366e-43  1.5459273176306479e-43  2.2029537961485553e-43  -2.2540103420804000e-43  1.3756982060524511e-40  -1.6818957114681633e-41  -3.5271623184426751e-41  1.8790650842119099e-41  -3.3961968535757854e-41  2.6782497395741162e-40  7.1019192784758319e-41  -6.3648733470430869e-42  1.0634043014115104e-41  1.1729860747090892e-39  -5.9165553429138646e-40  -1.1085373165053515e-40  -4.2730410920908594e-41  5.5727027170946155e-40  1.2992803369873287e-40  -9.7135266158048594e-40  1.7771316925339239e-41  2.3194057967399887e-40  5.4505822081954283e-41  1.2582268623779296e-41  2.3683012639365507e-41  -3.8389869512891068e-44  3.1673662604670245e-44  1.2405519368200639e-44  -7.2801929699318723e-44  -1.0944772206311878e-41  3.8492756084425169e-42  1.8857710030678432e-41  -2.0196625498176854e-41  -1.3285858569722522e-41  3.6271742098650828e-42  -2.2342688489184967e-39  -6.0317962693758482e-44  -5.9840530904201199e-43  -6.5731094237619111e-44  -1.4844158818180271e-42  -2.4731645879679665e-41  -1.4098510169505173e-42  -2.6974328974826584e-43  1.5065473847217213e-42  6.4644979389839136e-43  1.2267292887638758e-39  4.3940544187718556e-40  -1.0192301368598302e-40  5.3763512228911674e-40  -2.5857218196486042e-41  9.4555287196253669e-43  -3.4504156798012798e-43  -8.6034062772877885e-43  -5.9192631283022155e-43  -2.2100549751198607e-43  3.2308152514025069e-44  1.0003304803792997e-42  -3.1972811219552115e-42  6.8731950674316788e-40  1.5696091529998807e-40  -5.8805708737357796e-41  2.1279701939389875e-42  8.2407768830203174e-40  4.0927855357450397e-40  2.4543637273282882e-42  2.1613080401748033e-40  -1.1168662523783928e-42  1.8436165965650428e-42  1.9836165063455655e-42  5.7002457784961334e-42  -2.0238055798620379e-42  -3.9140991185587801e-42  -2.4454636337440126e-42  2.3793305590057732e-42  7.0743843130841565e-43  3.5841772488161267e-42  1.4185380005778877e-42  4.2181725562140650e-40  1.6579708183390473e-41  1.4800482748647101e-40  -2.2853582694860108e-43  -6.6211360575467125e-43  3.5637629252153930e-43  -4.8470030107238938e-43  -2.9799605949255320e-43  -6.2482122140676549e-44  6.5834741059035798e-44  -1.0097584140697366e-40  -9.2866542187425696e-42  -2.3157323584784809e-40  -7.4783576725012371e-41  -1.2493697883546939e-39  -1.4628789463371319e-39  -4.2942296181534076e-41  1.8389060382382769e-39  -9.2986006329658125e-43  -5.4558377864689718e-43  -1.2882381403431086e-43  3.0632794256564870e-41  4.0594580659392893e-40  2.2957597545181622e-40  -2.9848533904567758e-40  1.4467673965772261e-42  -1.8158485997026120e-42  -4.3592537171739388e-43  3.0325478140335571e-41  1.2263631486724192e-41  9.2196748509066408e-44  2.7473664907592148e-40  1.7039570338525851e-40  5.4567333063843679e-41  -2.4205403984930282e-43  -1.5469049183737495e-43  6.1349089223553634e-41  1.3133309226835168e-39  6.2992534198722752e-40  1.3579578065769720e-43  2.1670799074288885e-41  -8.4535282957214877e-42  1.4778493045172004e-42  6.6503103263309700e-43  1.2895108303206121e-41  -1.3031556394102532e-41  9.7482026281226410e-42  2.6471242924876135e-42  1.5856248220485763e-43  1.1776961468618315e-43  -3.1699062410793935e-44  6.9319314988524207e-44  -1.0087660498475978e-41  7.6526282925519381e-41  -4.1893611903605191e-43  1.2134895803330982e-41  -3.9890257745115368e-40  -1.1770747534920638e-41  -9.3085171791291440e-42  -1.8582858609857190e-41  -9.9638836924817032e-40  5.9648347434033746e-41  -4.5342321996386031e-39  4.1594032273961744e-39  9.0028299581744700e-39  -7.1197877914938390e-42  1.1828663301711772e-41  -1.3377921345594881e-41  6.6474821748149541e-43  7.0635178176128753e-46  -1.0190579146159447e-39  -1.5461095944263394e-40  -1.0416643453025283e-41  7.4880773495992652e-41  -8.8734514879883735e-42  -1.3979576127935321e-39  -9.0554444243651402e-41  -1.3145846368999117e-41  -1.4371518397144269e-42  6.3534568417094861e-43  1.2376300847161591e-42  2.8003756927508709e-42  1.7575213624377506e-42  8.2312803633202676e-43  7.9797743098475150e-40  8.4735031394927048e-40  -3.1635148266475919e-44  -7.0139005455798531e-41  -7.2426606070174425e-41  1.1431916936541263e-41  1.6719660776395776e-41  7.5777394683566187e-44  6.7806007783325559e-43  -1.6432153109013808e-40  1.0351793421139986e-41  -8.6008267754885089e-41  9.9450882203068811e-42  -8.5846176317166778e-42  7.0640479087743540e-41  -2.2522973570931497e-39  -4.1668408272947088e-40  2.1817728629966436e-41  -2.2020856637706790e-43  -3.4061075952351318e-43  1.8213728860278452e-40  6.6193720963116494e-41  6.6254824132656818e-43  -9.7577260255303928e-42  6.8738749318475161e-43  -5.3423597651592392e-40  -1.6016699737942875e-40  1.3147733127076747e-40  3.2283042595988247e-42  -8.2123048224430609e-39  -7.6459827964232384e-42  -8.9540400760593234e-40  1.3337178477079899e-42  1.5124820865215201e-40  -2.2751340551122718e-39  -2.1880593387482077e-41  -6.8506457251171249e-34  -1.7178734406891446e-34  -9.3566753374303893e-34  2.7421199354753374e-33  1.2114692578834404e-33  -1.8445148924447299e-33  6.7415908469251841e-34  -3.8384738328245128e-33  -1.0304330301401604e-37  -7.0390970043754850e-37  1.0463604199030848e-37  -1.4470469894189453e-37  1.1819577124247799e-33  -1.1817698081900144e-34  2.6694773515229406e-34  -8.6425661171721873e-35  -3.3053498875355160e-34  5.6250522776130570e-34  7.9604159019397340e-34  -1.0596352291688662e-33  -1.4809137089489744e-39  5.6850808323652867e-38  4.1496662356680165e-39  1.8656282181454065e-38  -1.1440196002992682e-32  -1.8768460106327102e-32  3.2192189225945483e-32  4.2785158880470187e-32  3.4201849983996492e-35  1.0000598005436402e-35  8.2164676057342150e-36  -6.6780682551745984e-35  -1.9715771528996714e-40  4.1915395753673613e-40  -2.6122459488690057e-39  3.1496927545764504e-40  -2.1438172341316222e-41  2.9907226974257816e-41  -2.1549073217421843e-41  1.8490565502217640e-42  -9.5507738192261410e-33  -2.1054210265828345e-34  2.2294722103428744e-34  4.7912201910508002e-33  -2.0710333254232394e-37  -1.8666804447909119e-37  6.5601761263956917e-37  1.0441989043889970e-38  -3.5270808776527347e-38  -4.2495489447434788e-38  -3.0688276535059068e-38  1.2082783498816691e-37  -3.7188256140852706e-39  -1.5197694721196442e-39  -1.2602559199967144e-39  7.2973856846808683e-39  -1.7986516849007182e-37  1.1228092864727085e-37  -1.9020266077904685e-36  7.4099217934480486e-36  2.7827691112674801e-36  -9.5929611891913883e-37  2.4338785685531891e-36  -1.9778460090205847e-37  4.4715790295541037e-34  2.9485745955982078e-34  5.5748788833140630e-34  -2.3014452366182540e-33  -9.5446115357807889e-27  8.7542714963529633e-28  -3.4981169859468267e-28  1.8235499509337481e-27  -2.3305390432063311e-32  -4.6912005222144791e-33  -8.5240001355892159e-34  1.1726476151289824e-34  6.6370612009968828e-35  2.1112476506542331e-34  -9.2029708380586371e-34  3.8084693891207335e-34  -1.9489943418612145e-35  2.9106580656796759e-37  3.5954786651471629e-35  -2.6339763381229865e-35  7.9119747950716267e-34  -1.6485927950477220e-34  1.2197517471569793e-34  3.2268607744556134e-34  1.2815384719666925e-36  -6.8270480251392243e-36  -1.6031776451897785e-36  1.8180058418406477e-37  -1.3771170580512647e-34  3.0662858056766827e-36  8.2408181713065754e-35  3.3741855505684170e-36  -3.6687114820572737e-33  -1.2181517868010902e-33  9.6359189513431714e-33  4.9443064412598180e-34  7.6212861975163030e-33  7.9142028075359058e-34  -6.4222095438014526e-33  3.8953574698577870e-33  -1.4040400723899024e-39  -4.8778271559442136e-39  1.0880015880210035e-38  3.3947325470380944e-39  -4.4227602471797348e-38  4.8003841087432267e-39  -1.1820403510975986e-38  -7.9983373844226018e-39  2.7046319948698744e-41  1.3345549286779577e-39  -1.0915389311464067e-39  8.3289698609434164e-39  4.9549448846036780e-36  4.6911644959422587e-36  -1.4556010313851270e-35  -8.4886068908542604e-36  2.4074390098868990e-35  -1.0698525024589263e-35  1.9774385124888939e-35  8.7229215332196148e-36  -2.3445002538929160e-36  8.8831669148725795e-36  -8.5634386892662261e-36  1.3340922703904028e-35  -4.5861016341776259e-40  4.2697922663101156e-40  8.6873819158946771e-40  -1.9340310849215209e-39  3.3953896566838745e-39  5.2955305435973711e-37  -1.8056900688203965e-38  1.3125161659699362e-36  -2.3205177991200687e-37  -2.3156174749618265e-35  -9.3089041765731419e-37  -1.1185125117494616e-35  4.8279929018970209e-35  -1.4072582574263859e-33  3.0575402015849177e-34  2.2823662670442066e-34  1.5022290195267366e-34  -1.3678493007292438e-38  -1.0458911332114321e-38  9.7931818458945065e-38  -1.4253846843788067e-38  5.2176760938115629e-37  -9.6188272059381736e-37  -3.1142393573521508e-38  5.2317133985396458e-39  2.5901350774718955e-39  -7.0171940399913980e-32  -6.2731613649816455e-32  2.1572384726482848e-33  -3.4818565762552543e-33  -1.7035581884374734e-31  4.6161450442992335e-30  -3.6482642265334620e-30  -1.5971305525607999e-30  3.7246659900336579e-35  -7.7547958735615464e-35  3.3282601249151444e-35  -1.4017495174050738e-35  -4.3086720421960106e-35  2.8055656243706941e-35  1.0750798552421649e-35  -6.2891559037756593e-35  -1.3101881167477774e-37  6.4062942731328842e-36  -4.9749677276316235e-32  1.4439757023019015e-31  4.8670957614762646e-32  -3.0548383662069966e-31  2.7762355809059433e-33  1.7855871882583112e-33  -5.6189181673769012e-34  -6.6792287826425142e-33  2.4190351290311393e-42  -4.1085254359796237e-43  1.5246533415696424e-43  3.9093058307287229e-42  1.0083693637282409e-32  1.5771149465731249e-33  -2.7049618470043371e-33  6.8241959928774720e-33  -1.0350010535612721e-30  1.1680796734312065e-29  -2.7484590633630807e-30  -6.3208589943593115e-31  4.3213812158314865e-40  -6.7506999538207084e-40  3.2772975014276349e-32  3.5045510843188436e-31  4.9777672933027475e-31  -8.5202039967949417e-32  1.8563690567601870e-35  -4.8345432360283989e-35  1.2293352838792735e-35  -7.6067022991661777e-35  1.3030404588976854e-40  -2.2076897375602964e-41  5.1877531815062312e-40  2.3844432814653854e-40  -5.6866654842497922e-39  -2.0997886862398773e-40  -6.6695936076280595e-39  3.5631728073762684e-39  1.0153797559869704e-30  4.5574753943670103e-31  -6.2513687558449075e-31  -8.3346243843309403e-33  -2.0627299089503243e-30  1.1352037927571657e-29  2.7304184531478777e-30  -5.1212472747526803e-29  6.8354342184947681e-39  2.3165599198825337e-36  -9.1490446569858686e-37  1.4680500302903733e-36  -1.2580208763490012e-29  2.4888015017812819e-31  8.2577705422267450e-31  1.8793263518912410e-30  3.2282611804464448e-34  -1.0164815004785066e-34  2.2476415715969247e-34  6.0662870921244547e-35  -3.4634655450455773e-36  -7.6058575520774936e-37  1.1415064844693540e-36  -4.1079517464085604e-36  -6.4831057211312059e-36  6.3778303560605825e-37  8.5605251013148590e-37  -1.6082438713535418e-36  -3.6761657249363163e-40  -7.5017929645278088e-41  -8.4582904570637932e-41  1.5125061591819861e-39  1.4324874492642843e-33  -1.6100688067283361e-34  -4.0350512060952132e-34  -9.1032443133353138e-35  2.7357416973927883e-35  -2.4091210052379102e-35  -2.5911760556414817e-35  -7.7157408192737591e-35  -6.7396755818287491e-37  -7.6524565673771744e-37  6.6098663227998017e-27  3.5537053256093064e-26  1.7748866214708055e-26  9.3789330324725615e-36  1.5591107055724816e-35  -4.3903116299479406e-36  6.8875612004307390e-36  3.2307113730574111e-35  9.8984419095902465e-36  -1.4703263562089116e-35  -5.4053992920113601e-35  4.6258407937180971e-41  6.3893365628759886e-40  -7.6945727440940384e-40  -2.4110101538378671e-39  7.9785814957937616e-43  -5.2700697992078335e-42  -1.3490333586970213e-41  9.1791506117658867e-43  -1.3901944158990726e-34  2.9522512089353448e-32  3.5728964718674508e-32  3.1094227605151403e-32  -6.6971203818121082e-35  -5.4730059690086938e-35  1.9951182083248267e-35  1.0069394319042139e-35  1.3389342885469890e-36  6.4384430158947350e-35  -9.6167143359314192e-35  -1.2680585210600405e-34  -4.5504596380847650e-32  5.7446973111033360e-33  -7.0800198579404693e-34  1.0998743893256762e-32  9.3758547933413622e-40  7.7117878016779816e-40  -2.9575742977860290e-39  -4.3914764752609344e-33  -5.8273663780822416e-32  -1.8505591854320274e-34  -8.7108107466350189e-34  2.0730901872427493e-34  -1.3223998646402410e-34  1.1857156918738919e-36  1.5104885237323405e-36  -6.3908040785488765e-36  9.0702038820967531e-37  -5.4385197244363518e-35  -8.4248396823533827e-35  1.3187006166868563e-34  1.7499355494697416e-34  1.2328336183175063e-37  -2.1345376014753008e-37  1.0440798807096992e-36  -1.1304467334357086e-36  -1.2068410068633951e-35  -8.0515422937496224e-37  1.8201865721769309e-35  7.7618503025644171e-36  1.0157348195225440e-42  -4.1686725775822377e-42  3.5264739662083524e-43  -2.2930547598669620e-42  6.7704044819727101e-37  1.2237047030436708e-37  -2.0167742345407691e-34  -5.9151582163936917e-34  9.8916684695912893e-33  2.8534776140834229e-40  6.5561843078108632e-39  -3.1010041717373422e-39  3.4888836684892359e-39  -6.6976968251806593e-31  -8.9822070104673252e-31  -3.3723735941803937e-30  -1.2696087620863602e-30  5.4427928319254151e-33  5.0611516365449897e-34  3.2970821120346047e-34  -5.5585878086167187e-33  2.2826880133441183e-37  -9.0845647901390801e-37  2.3817817776137718e-37  3.1894282768146591e-36  -1.1152006385403160e-29  -3.5359168173469939e-30  2.5281100525798039e-30  -2.6257598916784553e-30  -2.0421735337148030e-36  3.3544503331196015e-37  5.4625868610738590e-38  -1.3776509864427631e-38  -7.2155174087489189e-40  -1.7809475749101804e-40  4.6721940932687625e-41  2.2176336799726642e-39  -1.0814347347129669e-32  -4.6114424946573428e-33  -2.7263886519969570e-33  2.9156263335713149e-33  -1.4693274391947020e-30  -8.6738342979938230e-32  -3.2385130622121618e-31  4.1280026613920009e-31  1.6306846284691004e-27  2.5019400870684731e-28  -6.0795373953059888e-28  7.8557336418421862e-28  2.6134618921496447e-39  2.1357933004237506e-38  1.6268881355561059e-38  -4.9137881003901331e-38  8.7828179675839149e-38  3.9706023977877029e-39  -1.1865010148424980e-38  -1.0016111625904666e-37  -5.2872210539627397e-34  6.8016734923320532e-34  -1.1105348559296590e-34  6.4920366855524157e-34  -1.3346900146166834e-36  -5.6208944085868629e-36  1.8290441544374059e-35  4.2851441469643241e-37  2.7030185036031835e-37  -1.5177930421365723e-37  1.3414457930369313e-37  -5.3253050884023663e-38  1.0458725946389688e-37  -4.8340172411068090e-38  3.6065948010390482e-37  2.7533311579657246e-38  -3.7582578353552346e-39  -1.2415858292749348e-38  1.1938325484228438e-38  -5.3163674881034299e-32  -6.1348567133448947e-35  1.0994735381622124e-35  7.3100001020463772e-36  -1.0430023755469213e-33  -5.2655845941318600e-34  2.1566283169122881e-32  -4.4557027688612004e-33  6.2784241433153317e-34  6.7485505961712685e-34  6.4341038760865745e-34  -2.3668198622255097e-33  1.5983403793122057e-31  4.2718643062339756e-33  4.0137628908177463e-32  -2.9168559220967997e-31  2.2262931970414172e-35  -5.7496432231700252e-35  2.5146026991700863e-35  9.2523419390422482e-36  6.8761333386610737e-35  2.2311362716780427e-34  1.4294520511708460e-34  4.7583907042982666e-34  1.6357095647586499e-36  1.9292462069823117e-36  1.6177057487955416e-36  -8.3693303670275238e-36  -1.8809439970392965e-32  -6.0594634775721595e-33  1.9272161975207149e-32  3.6001875957182215e-35  -3.0827085090209848e-35  4.8914692655791748e-35  8.6942875454525944e-35  -1.3450419102779584e-32  1.1511199342633119e-31  1.2176806879162301e-33  -3.8247164394547752e-36  1.7083043358480632e-35  1.4447407137698377e-32  -1.1601096361399006e-31  7.8714229664441910e-33  -1.1593086800093778e-34  1.3484282830146953e-34  -5.5659327287315252e-35  -3.1327463200255379e-35  -8.7566863738392470e-41  4.5692049915464975e-41  -4.0569803241600939e-41  3.7381067251854151e-35  2.7268299581335248e-35  5.2712541691707854e-36  -8.7513248598751955e-35  9.6740513790617829e-35  3.0321811756869802e-34  -5.0188422518745412e-35  -3.1370414649247734e-34  -7.2779846429247053e-43  2.5001725888068120e-42  2.2487660739805600e-32  -8.1648261982136456e-32  1.1311052812552038e-32  -6.1906744365608955e-32  -1.0805379350098120e-37  5.1740912317458668e-38  3.7333792681590090e-38  -4.3907886874911488e-38  -3.1406986147776651e-35  5.6742279502013920e-36  -3.3898158830328532e-36  3.4930971846781575e-35  3.3633660207865724e-35  2.1467509248880195e-35  -1.5556868876846034e-34  -4.0099759488518474e-33  1.4439808622635546e-34  1.7591412091063809e-33  9.9587018718812318e-36  3.2309862926554804e-36  2.9632361488676225e-36  -4.0239064563231251e-36  -4.3666122082892079e-36  1.7676164341515705e-33  1.6282784593669757e-33  6.5866969428687811e-34  -3.1652084185888649e-33  -7.7160834801370262e-36  -1.0144900311374325e-35  -2.4478200673023117e-36  -5.9206453955155260e-37  2.3168883557144859e-35  -1.2402453924843592e-35  -6.2686695808405647e-36  6.8901585089664014e-35  -1.8337442882603448e-35  -4.3034289811136990e-38  -9.1199022348843135e-34  4.9487180295232606e-33  -2.9690960310280757e-33  5.5946653300821875e-37  2.6419774010497510e-36  1.2300397472478431e-36  -6.3180126206486993e-36  4.3452163715412628e-36  -1.1254525539346806e-36  7.4367121295154018e-37  1.7533347245053017e-36  -3.0767842053612204e-37  -8.5786030167905371e-38  -1.6357146758684998e-37  1.0483059531903429e-37  -6.6673519977194062e-39  1.7946387894473715e-38  8.5082579946371291e-40  9.6334470591950307e-40  -3.4569962636673895e-39  -1.047534