<?xml version="1.0"?>
<VTKFile type="UnstructuredGrid"  version="0.1"  >
<UnstructuredGrid>
<Piece  NumberOfPoints="4880" NumberOfCells="19022">
<Points>
<DataArray  type="Float64"  NumberOfComponents="3"  format="ascii">37.49216068403028 12.21648981040125 8.095694586986866  38.69738327303237 13.23822965441951 8.32691582318477  37.85860307693361 13.34811827491466 7.325810020631831  37.95977437383005 12.28354938211154 6.998117904514942  36.79878997802734 9.262807846069336 1.688738942146301  37.71601104736328 8.986710548400879 1.475877046585083  36.92537548696308 9.680748230313407 1.11326724399744  37.71846697675683 9.975918589153887 1.642675675665137  39.01948928833008 10.41880989074707 4.076076984405518  39.89416122436523 10.55445957183838 3.09207010269165  38.60103491872403 10.40396716201348 3.170662717759796  39.22837391125374 11.01302194511639 2.956748844384833  21.00355911254883 2.595230102539062 1.628700971603394  20.36175918579102 2.874850988388062 0.961434006690979  21.07645034790039 2.752063989639282 0.72154301404953  20.84861203156106 3.692124628484151 0.9315539270021167  33.30633163452148 21.30986022949219 2.482315063476562  33.97246932983398 20.60836982727051 2.805136919021606  34.55665605447114 21.69606344716639 3.303952122716239  33.56709023005264 21.1158705144635 3.419158898785183  21.9540901184082 2.000858068466187 1.894482016563416  21.64191055297852 1.985077977180481 1.055714964866638  21.9579613357161 2.97375382137029 1.189585329139248  22.79132416309668 2.109449131111028 1.151119891189051  38.53730010986328 17.822509765625 6.394937992095947  38.14068984985352 17.92959976196289 5.671009063720703  38.01125214743581 18.65569125556476 6.30765730975271  37.77624126086449 17.47761647868599 6.649381574429477  30.15699005126953 6.171529769897461 1.042019009590149  29.71379677277519 7.036829282942218 1.601473144800597  30.66994496568236 6.857468284480124 0.8470039064076924  29.7914330287247 7.427235814350977 0.7771189500792854  35.14735463582582 19.25467770425868 8.836748956366401  36.18706447945925 18.22284776024765 10.03073471096375  34.74067797813256 18.97623647280767 10.2585980605128  34.84428511463472 17.76768588240506 9.287543329036389  37.81230799124743 17.61735888698732 2.590572037657776  37.35671103640277 17.72320200760723 0.9011125007477829  37.3792253498674 16.4286698381808 1.499936804283382  36.7329461664926 17.94403928536989 1.500892701696348  34.74761962890625 17.74810028076172 2.723489999771118  35.12316408715323 17.08114685410702 3.143560375530884  34.10531669061659 16.77841197789907 3.167351811680009  34.04207229608372 17.60073405107889 3.514044876671245  32.86294174194336 19.51552963256836 3.073261976242065  33.76773834228516 19.80286026000977 3.029623031616211  33.56578826904297 18.94057083129883 3.028676986694336  33.11169596217979 19.98944222727051 3.940632093918834  18.67819976806641 2.324219942092896 4.370869159698486  19.1392685311078 1.073145216937609 3.529401935230745  19.14717383116193 0.9402977468669977 4.643675149222178  19.72853304118464 1.792240259611226 4.158063189645272  35.84092518447877 11.16655659155479 12.30099509291965  35.67516086543636 12.3114326509223 12.07023701696516  36.17136861878267 12.19424790042177 11.06423916821011  37.42203263784408 12.01340904004444 11.29749816428754  36.35868729869061 19.73597852706065 6.661378070023307  37.04449972744182 19.30790250403132 8.907878929114716  36.74509316120012 18.25556357431419 6.843193508910413  35.93160701513679 19.95286922238614 8.02532554465607  37.3685302734375 22.8817195892334 2.189084053039551  38.09925842285156 22.49547004699707 1.941405057907104  36.96909396594347 22.01133084875413 1.29430516362121  37.46002340767094 21.43680558450563 2.185633296018325  25.53210067749023 20.91554069519043 3.662621021270752  24.64022121913131 20.52479818049426 3.111516921622141  25.40014418965537 19.7409081813928 3.504540786081332  25.47844600587739 20.93652764537671 2.782781689627657  30.69807052612305 23.24926948547363 0.6441900134086609  31.20569038391113 23.95004081726074 0.1048400029540062  31.66411018371582 23.35832023620605 0.7113509774208069  31.22906115201452 24.40707403224135 1.222138036314864  36.74039077758789 10.16604995727539 0.1048400029540062  36.99175071716309 9.649038791656494 0.3946195058524609  36.28715037048399 9.990343584102757 0.8970269887632627  37.4044138188775 10.06997001839966 0.7171075193926539  29.75470075791016 8.598431516861204 1.322980872051198  30.57824027071799 9.241049602865463 2.31605935943282  29.77589532703487 9.124025703833807 2.831230960188823  29.55605760038988 8.031728934037359 2.345714080850227  39.89416122436523 19.95080947875977 7.427981853485107  39.89416122436523 19.30982971191406 7.661084175109863  39.89416122436523 19.24501037597656 6.869744777679443  39.12824922706156 19.02043393067358 7.465280553545149  34.21928829129851 12.64002394638204 1.355772822332426  33.99877791127566 12.54513146239713 2.773908798326214  34.05140386955567 13.80502304528099 2.06828732344374  35.28786389598474 13.50991225903176 1.976995995109223  24.6813793182373 0.09558500349521637 9.153931617736816  24.24528213683056 0.8895589116712234 9.690121324708137  25.10379966220598 0.7033389447626808 8.836821846408681  24.04974076333729 0.7127872542465727 9.059231839275931  21.83608055114746 2.473937034606934 0.1048400029540062  22.80558967590332 2.323617935180664 0.1048400029540062  22.87336971871895 2.874293393925115 0.8080907307833194  35.29422912211865 13.2232571463952 13.2240134562381  36.10445750119688 14.44533092148826 13.22265150907445  35.90715834933867 13.66303893397257 12.2621358510329  36.35644030360353 12.69775403906344 13.34873896257793  38.59587860107422 9.887117385864258 7.719407081604004  38.29071356010524 10.0251981553505 8.492494168682166  37.62128151859026 10.43807904907475 7.65298686687172  37.75564727633122 9.617798541675656 8.27790339306684  26.87431907653809 20.6636905670166 3.65421199798584  26.71198081970215 20.06856918334961 3.971155881881714  27.47262954711914 20.01498985290527 4.042460918426514  27.50098789353097 19.95275240646035 2.825362778490787  25.21023941040039 20.48649978637695 4.294004917144775  25.56393051147461 19.82011032104492 4.613272190093994  24.84669286125188 19.12699579537363 4.308475955158785  24.49600028991699 1.643203973770142 0.6151660084724426  24.75922012329102 0.8718330264091492 0.9860039949417114  24.17094039916992 0.5042539834976196 1.077556967735291  24.21706008911133 0.8792170286178589 0.1048400029540062  36.82065527882757 14.70724381072298 11.77208122874694  36.60916923886442 15.80571234311839 11.29551360317229  35.30417556340569 14.48093984262399 10.83470478934141  35.95611925010207 15.19698890169278 10.21303227924096  36.99766550670613 16.98397214550143 8.303000999241032  35.66166822584167 15.90564752102694 9.138545816868195  37.0748764404267 16.88980440407511 10.13790325014983  37.28687870978941 15.58788215386317 9.721358731507552  36.8985710144043 13.49016952514648 14.60649967193604  36.06623001083057 13.7545789881111 14.05693112003537  37.11127519122999 13.86406017401079 13.22921391798275  25.34629970724916 5.078290154608209 6.113070574674821  26.71964435875859 5.48186334281896 6.283361949407814  26.06085342951072 5.320064093264697 5.299764904574618  25.88458173619295 6.183497291753255 6.326775978460693  24.25124931335449 16.9232292175293 3.839155912399292  23.62079219411703 17.71635839041461 3.438934459050593  24.91794444712747 17.969963950701 3.674418218386297  24.26508219196842 17.91474954301271 4.45968573537196  38.49338912963867 12.95320987701416 5.418471813201904  39.13330841064453 12.95938014984131 5.968968868255615  39.00342178344727 12.22842025756836 5.545782089233398  38.33408161465507 12.86150438844792 6.149588485100842  28.33801860440941 24.43915098377149 1.700614038449218  29.89511287650388 24.21992619940635 1.238483075251617  29.48224097945836 23.13189122010324 1.972468821542309  29.11044654147979 24.17859015002179 2.667358907914216  36.33905029296875 9.754186630249023 2.356865882873535  37.25259769079187 10.4354640799331 2.315412462175406  36.33722625126077 10.87220042453551 2.511220067825584  35.94468986185522 10.15631268628428 1.863765058453845  33.66947937011719 3.937901020050049 4.193717002868652  34.47209930419922 4.106895923614502 4.121044158935547  34.16408529093161 5.008572861246223 4.551825276298236  33.88085882282325 4.771750345473817 3.675702486371863  35.06922912597656 4.482101917266846 5.859911918640137  34.35946183973562 4.881538621823403 6.732290227010475  33.97947702030058 4.590762946449053 5.48299349233029  34.38749574913892 5.62422518180948 5.610584982286765  32.71181704407387 6.344657647902548 6.532548241273835  31.6462482529892 5.645432854769825 6.246909816883468  33.14399408271091 5.144504765531794 6.500719865242822  32.54661759526879 4.910537365695279 5.572672323201529  34.95782089233398 4.765946865081787 4.135313987731934  34.99605941772461 5.341097831726074 3.537661075592041  34.79978942871094 4.415253162384033 3.320770978927612  28.76135063171387 5.556865215301514 2.946438074111938  28.81509971618652 5.902900218963623 2.284902095794678  29.24104006668901 6.367414284542483 3.431150525372625  27.947688436318 6.646667158415074 2.611573535559833  39.89416122436523 13.85678958892822 11.46578979492188  39.89416122436523 13.12458992004395 11.63451957702637  39.89416122436523 13.04782962799072 10.80978965759277  39.43104536594193 13.06779252613901 10.90475162058492  22.67933234638663 10.08755740002254 1.590970188871872  21.64203050307565 10.14059424866588 0.9169025268993827  22.50221411192436 9.432760705291107 0.90497770679404  21.4219662332419 9.693391148561698 1.735405966663015  30.50325965881348 5.991970062255859 2.06486701965332  31.05024909973145 5.902554988861084 1.061890006065369  31.43254124215738 6.474650931828301 0.9601109313156658  39.13047027587891 15.04164028167725 12.80552005767822  38.77210394611606 14.12807620947834 12.40352318289377  38.10708983553855 15.27489093681445 12.30356237926225  38.8917889177
[...]
<PointData  Scalars="c_HbO2"> 
<DataArray  type="Float64"  Name="c_HbO2"  format="ascii">-8.1826034144633112e-49  8.4075430285862823e-47  -2.1316077446247184e-47  -1.9523070250844506e-47  -3.3846451440516718e-46  2.7258519378990826e-47  -1.4970460060693395e-46  3.7821198786852494e-47  4.7837998583727748e-48  3.4318539036980271e-48  -2.1518690531491660e-47  -2.2797399358929820e-48  3.9158268634806951e-34  3.4489270504849860e-34  -7.2372527622716976e-35  1.5112298659814844e-35  -5.2343962421478947e-45  -6.7651091014935822e-45  9.2662199356329908e-46  6.4760720263928970e-45  -1.9601365624877757e-35  -3.9020657672618150e-35  4.2104887773979905e-36  -1.6618419796768323e-36  -2.1795250804771757e-48  2.3658674809109101e-47  -2.9613803857015061e-47  2.6759341482563895e-47  -5.1998593629881696e-42  5.4178847681551827e-41  -8.0010895249741694e-42  2.2699898064596438e-42  -1.4205620124337902e-47  2.2793116812537829e-47  4.3048996755051088e-47  1.9788259330515745e-47  5.2164778923664140e-48  -2.9779023324670038e-48  4.2011786285415890e-48  6.7834967926076742e-48  -9.0636181577794964e-47  3.8386629794499696e-47  -1.0834166617775382e-45  2.4797225697245055e-45  -3.6417731108819726e-44  1.3502631126876109e-44  2.3315295752527468e-44  -7.0018728694659547e-44  -1.3261527293623257e-31  1.2742335611739976e-32  3.4540532463356616e-33  1.2506381447839305e-32  9.0175380805128159e-44  2.2859512312941031e-44  -9.0599448882574158e-45  -2.4014001844478297e-45  1.5350542297527476e-46  -4.7807582858795398e-48  -2.9984366353097262e-47  -1.6575900542650496e-47  -2.2343294246313251e-47  5.3507305336611250e-49  2.5669886916865814e-48  -1.0296699856966854e-47  -1.1514359150996647e-37  1.1574835513220687e-37  2.7774073293063877e-37  -6.0541111493999805e-38  -4.4668475894059778e-43  1.8962740854851813e-43  1.4375067441164814e-43  -2.4580767788207258e-43  6.0476299138643710e-47  2.0500119118216564e-47  -1.4239141955139969e-46  3.9970191163869073e-47  1.3040920294578838e-41  5.1314159228607978e-43  1.2286288251668714e-41  -2.1519790953906916e-41  -2.3663078954753795e-48  -1.7906211193964877e-49  -2.4512941038556313e-48  3.9719213673907771e-48  -1.3096077250016322e-46  -9.5683500496374048e-47  2.2271527649368601e-47  6.6009251183628238e-48  6.4924030271806101e-38  1.7875180739314914e-38  -1.5643857567167225e-39  -1.7194088253059006e-37  1.3675889859214323e-35  -9.7071823552236441e-37  -6.4840286554737208e-36  5.7087385146947285e-44  -1.0035709796989184e-44  -1.3969567274727965e-44  1.2562162438460075e-43  2.7881058245677668e-47  1.8944491533297922e-46  -2.0164917386883748e-47  -3.2777322633190027e-46  1.4311132821481110e-38  3.1860412981934472e-38  1.4700019078550442e-39  -9.6838419456545395e-40  1.0020969071356664e-36  1.0633329847227420e-36  -1.6414345631458107e-36  -4.1653638997894256e-37  -2.9406399638912650e-37  -1.0453473628007838e-39  1.7180772789640018e-37  2.4443883480211538e-45  -6.3605493277225998e-46  3.7538166845020546e-46  -1.7737727700011610e-46  -1.5682718118480684e-47  -3.2858945383073399e-48  7.2836760703499247e-47  1.1248023530397687e-46  -1.1830287061565871e-43  -7.5627989200523546e-44  -6.9846321460310440e-45  -8.3024139938012031e-38  2.7447178204739051e-38  -8.3782818143716704e-38  1.5909028659735368e-38  -8.3875846115801155e-36  -6.9976784716762748e-36  9.2363000840118975e-37  5.0035668935402970e-36  -2.1844289417313327e-47  2.9655391544138288e-48  -6.0323633419599083e-49  2.3726748843042411e-48  -1.1815762786190476e-41  3.8198245819013801e-43  -3.7144734045230351e-42  -1.5400251132879556e-41  9.1182450329810028e-46  -1.1070092530493830e-46  -6.3149981802063181e-47  1.4804167386745157e-45  5.8171332896649498e-44  -1.1430233222618456e-43  2.1014200563993996e-43  7.4549850323676052e-44  1.2140559738983983e-43  4.8542136419540841e-44  -4.1056998930289489e-43  -2.1878688296919786e-43  -3.6448258213549061e-43  -1.0002764913715448e-41  1.1674341982986684e-42  1.3627227900742495e-42  -1.0681170725409951e-43  -1.5831166104366326e-43  1.5530940213873862e-44  1.4044963364144458e-39  8.7387709476868437e-41  7.1468166193393056e-40  -1.3078106857554065e-39  -2.4897913647247347e-48  1.3118196016470407e-45  -2.3139832576162280e-46  -9.9832214875177300e-47  1.6958029252809866e-38  1.2744116686252252e-37  5.9608197097324008e-41  1.8000927784757224e-37  1.1894557224192167e-41  -3.8501592961929854e-43  -9.9618729340173464e-43  2.9484303027907152e-46  -9.6785414989596213e-46  -4.0136878099023914e-46  2.7436466146962242e-46  5.9129493139568756e-46  -2.0432826536051580e-46  1.2720503397569448e-45  -2.1509583612312798e-45  2.7714891073337518e-42  -8.3817000765831411e-43  2.7568599948492342e-42  -5.6000139426254436e-43  -9.1554841514790759e-39  -1.5408391024038831e-38  -2.4151748075832717e-39  5.1111345571264767e-38  -1.6734880107970578e-45  -2.5986403586484146e-45  5.0818441775400812e-46  2.8001777625476440e-46  -2.8034698849198874e-37  2.3593970566869033e-37  1.3433788942319388e-36  -6.8983579775536489e-38  2.3031943044159039e-46  -1.3431473838254874e-45  2.7373399902440696e-46  -5.7111037327971550e-38  2.5449252941465223e-38  2.7486622390932407e-39  7.3979395613142533e-38  3.4725578270689192e-48  -1.0347694618224803e-47  -1.9103257127250330e-47  -5.1275648699626209e-48  3.4770570166931554e-44  3.1310192365744659e-45  1.7060031391620247e-44  -6.0146187880355623e-44  3.1361127243583530e-44  -2.0855692115907216e-43  1.1851561377437549e-43  -1.1568344518107582e-43  2.3590638034722151e-46  -1.7645485746704153e-45  4.7571816810395681e-37  -2.3223253233911540e-37  -2.8653302432870352e-37  2.9283758119668410e-37  2.6991914553849334e-42  3.5326796426733931e-43  1.2493275095909783e-42  -3.5765500815533272e-43  -5.4526460238661448e-44  -1.1733889276549089e-44  3.1019736120952306e-43  -3.8030128588575871e-44  -1.5528838902971502e-38  -7.6512608325037345e-38  2.7921810564795238e-38  -1.1799503665940137e-41  -2.3753949317574197e-41  4.2891869612191461e-46  3.0094616085052001e-46  -3.6641272372213509e-47  -8.3531775087099987e-46  -3.9334541746936478e-45  -1.4462928491207066e-44  9.7287356360829454e-45  -3.3772745792125924e-39  -1.8416199324386341e-36  -3.3212141132928054e-37  3.4556638925067287e-37  2.4346670712352528e-41  2.1746861640971046e-41  -9.2982265479315553e-42  2.0666939268405540e-41  -2.3826959229979037e-48  2.5556793014146441e-48  -2.3481885310418245e-48  -1.8127643740482529e-48  -9.8857052230035648e-37  4.2509471895388022e-38  -2.1598511803403676e-42  1.1985168701592680e-42  1.8027505626731141e-43  4.2552647816622708e-43  4.1321814416838495e-44  -9.7121538132998767e-44  3.0380080628970941e-43  -3.7458224708755811e-44  5.9633630351729825e-42  4.7793403137198747e-40  -1.3261861347254461e-40  -8.5557870377134030e-41  -6.4958349446483124e-38  -4.4571470827048904e-38  1.5341307772185036e-36  -3.2887981118223888e-35  1.8556750251194731e-36  8.1325789656165023e-36  6.1510982763168997e-46  4.2751038605721221e-46  -1.1981016685895718e-47  9.3637505448667062e-47  -4.1278626561418723e-38  -5.6474025969116387e-39  -1.8668319508490087e-38  2.7802312998612414e-38  -2.3696055563710470e-36  -3.6842717252809618e-36  6.7588779115447142e-36  7.5055955205615990e-37  -1.5047795319313948e-38  -9.6502053220391759e-39  1.1833213541734523e-38  6.1468856372405778e-38  -6.0414771715679576e-45  4.6971763015904402e-45  7.6329713523550088e-45  -1.0867934838588440e-45  -2.2955122891041778e-38  5.7818985806239974e-38  1.5969518329435974e-43  -4.0452974584910565e-42  7.5711096638490116e-43  2.3630983865489995e-43  -7.1511457737675537e-40  -3.2757755713382105e-39  4.2795556650010464e-45  6.1746085963735993e-44  7.5221927768217113e-45  -8.3978174354971235e-44  4.4287743042791705e-47  -2.4254028158474835e-47  -2.0311210577824469e-46  -6.3322934103233759e-47  -5.0447297012403916e-44  -2.3703148263528758e-44  1.3682779054766960e-43  -1.9572787798694309e-45  1.7094699006855831e-48  2.2578217688363030e-49  3.1132748158159927e-49  -1.2186950265403032e-48  -9.4525312199411087e-42  -1.5828442155755824e-42  3.9470717274266939e-42  -4.1282484717445914e-44  3.2893315235265095e-45  9.4568239084480936e-45  -5.3364051770668029e-42  -6.1843344072743439e-42  9.4959119172128953e-42  1.3073180977239847e-41  1.2673524791730311e-40  1.2705236007284191e-40  -2.9161382512987688e-41  1.3177740693554467e-35  2.7721137757518849e-36  -3.4786740767266069e-36  9.8590537761826072e-37  -1.9098892605763328e-46  -4.0014619664945489e-46  2.4184896725944224e-47  7.9592151336085154e-48  3.0720613260436214e-37  -1.2422555590312059e-37  -7.5286603793023186e-37  -2.0514171221274129e-36  -9.0884191697764514e-37  5.4193666726086312e-37  2.4111501040763498e-37  -1.4293921729832004e-36  2.8870789472883397e-45  -6.1360118445824988e-46  -6.7215889651434413e-45  -2.0150163875511857e-45  4.5838539530743007e-49  3.3540410279429058e-48  2.6483684894454276e-48  -3.8430698499505102e-48  -1.7435840816311176e-36  2.2486205720069542e-37  2.8612906970853825e-40  6.8191573804619337e-42  -4.6186462862564534e-40  6.3118858142592935e-42  1.2374572714235273e-39  -2.5338661661196388e-38  -1.0792786004852901e-38  -2.2474740855527579e-36  -4.4358905753135629e-36  3.8415656342972599e-37  1.4094419467212687e-43  -1.2194627604501882e-43  1.2860933044514830e-43  2.3460561314775358e-44  -1.1267258918192263e-33  2.6474615399773679e-34  7.4411750027957245e-35  -2.7159320746532108e-35  7.0412865537472304e-45  1.6460297192660022e-46  -4.9736823091871928e-46  -2.2471591400820508e-45  4.0619326622655399e-34  1.3002368009043702e-33  -2.7782932222557022e-33  3.0244950251724492e-34  -1.2656202411365972e-47  -2.5451653135982957e-46  8.3331535433556200e-46  -9.9844473668591865e-38  -3.3610423975973153e-38  -1.9213777053053625e-37  3.9230831251970122e-37  -5.1433900869362255e-39  1.0310247562669772e-39  9.9790814318310036e-40  -1.6948260502540784e-39  5.2745968688992644e-44  1.3992172691404570e-43  -2.5838216158497985e-43  5.0016395818764224e-45  -5.6427343542975616e-46  -1.2573449652656816e-46  -1.4053824834271968e-46  1.2457018219455932e-46  1.7653542782838140e-40  2.9611825472365178e-41  -1.7146454141605617e-40  -1.1243526013833018e-40  -6.7707894442263036e-45  3.1641451672235791e-45  -2.1209107974752831e-44  4.4609936818343986e-44  -3.1288564624687453e-33  -6.8309260644125414e-33  -8.4642811865963600e-33  2.2090640727386362e-32  8.5856552806553346e-36  -1.6891469714254630e-35  -7.8324102481660206e-35  -5.7492585816051066e-35  1.2433762226216081e-41  -8.2212912149973929e-42  4.6067360424291635e-42  -5.4513843996933307e-43  6.3409019530034811e-48  1.8032529564819369e-47  -2.8764589153296123e-46  1.0038566012143189e-46  2.7056923268791651e-37  -1.0855583928456974e-36  -1.0175589599413390e-41  -2.6855132738775415e-42  5.4032440305670822e-41  -4.6290444250824865e-47  1.0351985516611576e-47  -3.0326306312563615e-47  -1.0913733783225301e-48  -6.0486748912502103e-41  -6.7573435434605218e-42  -1.8187307887997874e-42  5.2817978509221877e-41  -1.0767604892914109e-44  1.0728665360698108e-44  -2.1887675562562474e-44  1.6690930590660905e-44  2.6281007053968980e-38  -4.8969691272023637e-39  8.2742886585935693e-39  4.1038158860470375e-38  -7.2919588018130703e-39  8.5816160921747214e-38  -4.7458751065767228e-38  -1.1437734184994565e-36  1.1759669124699982e-36  6.6073171044015094e-37  -1.8299650742647997e-37  6.7850253455241260e-47  -2.5306198760181726e-48  -3.9475904895774361e-48  3.5852209472740393e-48  -1.5644836954195893e-38  -8.9947176127978624e-41  -1.9294078918903748e-41  6.1660323711324969e-41  -1.8273156964215188e-40  1.9937184842038375e-32  -1.2976658841861284e-33  -1.1726430704673133e-33  3.3892488151799947e-33  7.0370574948756065e-48  9.7860660395253688e-49  -1.4147142397219177e-47  2.7322057794143911e-47  5.0061640748372804e-44  -8.9661826614171267e-45  -8.8614839488278366e-45  3.7428047613997586e-44  1.6280356522258812e-35  3.1187718866111168e-36  -1.2528865045377203e-35  8.3367475888046954e-46  2.1642556326947686e-46  -1.7824267186666929e-47  2.8026449746670513e-46  -6.7548094039375883e-44  -4.6330409090380996e-43  1.2141705607597390e-34  1.4792132962208384e-35  3.4907682739120116e-36  7.6516430910832607e-45  -4.5907999725601701e-45  -7.2653451435415258e-46  8.3343306933494005e-46  5.3598683790410454e-47  3.5076457444222077e-46  -4.8632830577672131e-46  -1.2096387906703035e-47  5.1826670361615800e-45  -6.1036825996389028e-45  -9.5845004317172415e-45  2.5730878861622845e-44  1.2166550158004620e-38  2.4500747239074784e-38  1.2659666100643973e-38  -8.5562965277610670e-38  6.2360367649867310e-45  5.5277054457794255e-44  -2.5322101411831167e-44  1.2181655946081651e-44  2.7396057350205803e-42  2.8458060268794521e-42  -2.3025789075012765e-43  -3.5257516725565441e-44  -8.5028891886987598e-44  4.1953401262207516e-44  4.8633615928958196e-44  -3.0308039424945542e-43  2.7409452125263345e-44  2.8183743062492336e-45  -8.5610891651373991e-45  8.2649793993338418e-45  -2.2483190772076476e-41  8.0430877723510630e-41  4.1322875686759991e-41  1.7698903082242365e-39  -8.9317888669014316e-39  4.8983187425258341e-40  1.6329676292389099e-39  -3.8628029533872127e-44  -2.8797532276669465e-43  7.2185540215700756e-44  -1.2100514303536761e-44  4.8162337813770375e-36  -1.5997580199762594e-35  2.2194489877609747e-36  3.4834610975768193e-42  -2.0622375645161672e-41  1.4093810842599538e-42  6.3079332457096927e-44  -4.7221474770091975e-45  -3.2633352654503715e-44  -6.1248840719290199e-45  7.0087026852004720e-46  -2.0528235246337984e-46  -2.9761320286966743e-47  2.6434252803758133e-44  -3.2926645056461430e-45  1.9271467430058458e-44  -1.6743520052211613e-36  1.2883451770092779e-36  1.4775682345998602e-37  -3.7321664143253181e-36  8.6244806679869034e-39  -2.3342149964892414e-38  1.2404400564667797e-38  -1.2411283464353252e-39  -7.7380396327593609e-49  -2.5490841221333347e-48  -7.3182395911000380e-48  2.1281684516260583e-47  9.0249612851245012e-37  3.9602754810630392e-37  -1.0775593415957843e-36  -3.0859292197112883e-44  1.6389524206492636e-44  1.8958758497611485e-44  -1.2523051849131136e-43  -1.4830076279953711e-43  -5.9652594045121856e-39  -7.8598055847117088e-39  -1.3771907664238224e-39  1.8663711089083165e-38  -3.0467886218063055e-45  -7.9858444816708372e-46  1.3256576799461742e-44  -2.3420851385447935e-44  3.8660898164533924e-45  -4.2190772494584389e-39  3.2796978464220876e-39  3.3680119742845065e-39  -1.8560620832014883e-38  -1.4590111901320689e-38  9.9730732395343108e-39  1.7290749816114788e-37  -2.5477716301698287e-37  1.9766950531340596e-38  -5.9248037433250725e-38  7.4052607483236468e-38  -1.0328650717092676e-37  1.5697314634470780e-48  -3.3788497998503039e-49  1.0511307329855403e-49  -9.8021975366502342e-49  -1.7458289220566389e-42  3.1565681015603771e-41  -2.9136072207423883e-41  -2.6088145462765229e-42  -1.6002631563558196e-36  2.5685511307716013e-36  5.9484377786617008e-38  5.1301814359728684e-48  -8.5868782071816473e-48  -2.0739019373624912e-47  -5.1248802408290922e-38  -5.3544053338822152e-38  1.0319601544067754e-38  -2.6282231541629545e-34  6.1174960485833337e-33  3.4883528758736631e-34  6.8854793502255684e-45  -2.7124411090693199e-45  -4.5750172075229504e-45  6.8258064495833699e-46  2.8503418983043824e-43  -4.8032822513713370e-44  7.8207765396553958e-44  -2.1713196788058872e-43  -7.0294631466475502e-45  -1.0788329339357277e-38  1.0513042007040597e-39  -4.0957691544768526e-37  -1.4170187757566975e-37  -2.6515242710076167e-37  4.6682752013766638e-37  -5.1762637755351989e-40  5.2811152460634020e-40  -9.4877974569244994e-41  2.0350648153818154e-47  8.7236821891712222e-47  -3.4831616182076391e-47  3.4585987633783388e-48  2.3749868812892088e-47  -4.4277939451890013e-47  3.4936753515864851e-47  -5.7775447100786005e-47  2.7954570132342580e-44  -8.2486332557207365e-45  2.8506563830175071e-44  -6.6747600794713664e-45  1.9509321918778666e-36  6.6741761037029102e-37  4.2327423055591083e-37  -2.3347441049460869e-43  -3.7679902156551961e-43  -5.9462989317590422e-44  -1.2520686483371390e-44  3.3410881689825208e-37  -3.3573065094107073e-38  -3.4733653292505504e-37  -4.1486013963947413e-37  -1.4003097275445142e-46  -2.6382156374235594e-47  -2.5199688229660848e-48  -1.0188472190366217e-39  7.9101303729296587e-40  2.2151239450805785e-41  1.0086434087519177e-39  4.8589021281754519e-48  -2.3829866364592671e-48  5.8070415026830067e-48  -2.3451984566888616e-47  -1.4362737258084714e-48  -8.9222624040673255e-48  -2.0441718312096851e-48  -1.7094488082726684e-48  3.7074227236547900e-37  4.6853386853527849e-38  7.9223261781974633e-46  3.4379840966637389e-46  -6.8800431800313147e-47  3.3084788058624150e-47  3.6165759014693716e-47  -2.4338347401720699e-46  8.2388207338969095e-48  3.2728932953881110e-41  -2.1599156379556919e-40  3.4372370114395470e-41  -5.9512110987302409e-41  -6.0546516524281530e-40  1.9439570399052550e-39  -1.6358323457740794e-39  3.7626924936012920e-39  -1.9357684428352219e-38  -1.4474033807263259e-38  1.6535227896099698e-38  1.0047053994213746e-36  -7.8388996661239161e-38  4.2269575119386993e-38  1.5912187191878414e-48  -3.4850185968920954e-48  1.1579042268398452e-47  -3.7009363350075528e-40  3.4315166877527025e-40  -3.8121363262488246e-40  -2.6584678302261693e-40  -8.1721829111509154e-47  4.1153781996619037e-45  -1.1490620992844159e-45  3.1975737065716335e-46  3.7333711772085820e-45  9.6050615216022358e-45  -5.0132773000411078e-45  -4.6015633910523451e-43  3.7134387362144368e-42  4.5298389443908640e-48  5.8559939998904855e-48  -1.9984829862060358e-47  2.8313888629358708e-48  -7.0933004297237007e-43  3.3234526314438848e-43  -2.4455357960280334e-42  1.9015593878180187e-40  8.4552596518508693e-41  2.6029896982792091e-33  -9.1054280299231381e-33  -2.1948360465631790e-33  -7.4173745125076469e-48  1.3793670464564137e-48  2.6424014344155377e-47  1.6397005231018208e-47  4.3239217688994183e-37  -7.2704197434783644e-37  9.3131877839462815e-37  -1.8243263833362218e-36  -7.2603090551393185e-45  1.3195905011206474e-44  -8.5648472571449450e-41  -9.5997191242476844e-39  -3.4398077025824722e-40  7.2905381674304554e-39  2.4747054357099689e-39  -2.2116418918170540e-40  -5.4796933477694792e-40  5.8146049566326403e-40  2.2375050956749478e-42  -6.8966045075431080e-42  2.0029527732095542e-48  -1.4088920938672405e-46  4.3944832481138425e-47  -1.1408380288670430e-46  1.6006448323388734e-48  -7.5995329279105991e-47  -3.3294247734166401e-37  -8.3503159399638397e-38  -7.8949792029131950e-43  7.6957658834461340e-43  6.8211006763865890e-39  -5.4391641926698301e-39  1.0155578829489798e-36  -3.5025285298427925e-38  -4.0031384415745851e-38  -2.3387678593729336e-37  -5.4156412454869705e-37  1.3291156177083247e-35  -2.0688620366503419e-36  -4.8373930755211040e-37  -7.4105544728693850e-41  5.3954127918739349e-41  -2.1973453019903936e-40  -1.1979386965623165e-46  1.8072292980225450e-42  -5.8999030793986743e-42  -2.1984730159365688e-42  2.2625482876022892e-45  -3.3105057053481616e-45  2.1302979386441783e-40  -4.4372202714019737e-41  -6.7931032914148834e-41  1.1384962392776312e-41  2.1374858579830785e-38  -2.7303304887121070e-39  1.6614644600230795e-38  -3.5611405862529819e-38  -6.3515913147938786e-45  9.6554580361947998e-46  -5.8463253445690093e-46  1.0759200321013848e-39  8.4918697071127938e-41  -1.7439847192522276e-40  9.5885640010255996e-40  -3.2792999735978081e-39  -2.8392517285013774e-40  -2.5033694367957844e-40  6.9921922373309256e-44  -4.9648078367843057e-35  -4.7747806925500248e-35  9.1636706823390576e-35  4.4140410059468314e-35  -1.8696770875396949e-32  -3.7696692651362938e-33  -9.2237064191912599e-33  9.6716699438599935e-32  -2.0289865417610324e-36  6.2867867142020442e-43  -8.4818010442257538e-43  3.6826838725523076e-42  -2.7159995954181197e-42  2.6960964962966674e-34  -5.9050535207994121e-34  7.2978672298676884e-34  -3.1893642914611533e-45  -4.9378363565416207e-39  -3.0685756459208772e-39  2.8138387718716427e-39  -1.2011284134658596e-39  -6.2539349842451656e-38  7.1492264510760218e-38  4.0929937414153424e-38  4.2100032741808983e-44  -3.6128993442327437e-44  -1.4459213352302581e-44  8.3650116422299436e-45  2.474902