<?xml version="1.0"?>
<VTKFile type="UnstructuredGrid"  version="0.1"  >
<UnstructuredGrid>
<Piece  NumberOfPoints="4184" NumberOfCells="16557">
<Points>
<DataArray  type="Float64"  NumberOfComponents="3"  format="ascii">18.49333000183105 0.09558500349521637 3.145654916763306  17.55331993103027 0.09558500349521637 2.723233938217163  18.33020973205566 0.09558500349521637 2.126312971115112  18.18413937052957 1.500863480860389 2.923404691430454  17.62359046936035 2.213248014450073 4.304525852203369  17.7039909362793 2.721751928329468 3.685894966125488  18.67819976806641 2.324219942092896 4.370869159698486  17.9892406463623 1.736614942550659 4.777002811431885  18.6827392578125 1.28498101234436 5.088818073272705  18.02889244172662 0.9904893333176586 4.353968125246128  17.6175594329834 0.09558500349521637 3.674330949783325  17.92811856106248 1.292944965245128 1.750345943397716  18.60774993896484 0.09558500349521637 4.235197067260742  18.20400047302246 0.09558500349521637 5.193009853363037  17.64662933349609 0.09558500349521637 4.545790195465088  20.96870994567871 14.49787044525146 14.86553955078125  21.41679000854492 14.67486953735352 14.03166007995605  21.38810920715332 13.92928981781006 14.2714900970459  20.24875419895367 14.24317337493551 14.32494141432753  20.50835037231445 15.07583045959473 14.21920013427734  20.62925910949707 13.59749031066895 14.85933017730713  1.924406051635742 17.76457023620605 24.35383033752441  1.901358008384705 16.69158935546875 24.36017990112305  1.726403951644897 17.1634407043457 23.84209060668945  2.652589233739742 17.35756745117177 23.95753872534853  14.05195999145508 16.16622924804688 20.84823989868164  14.62289224491885 16.0608937167411 21.49618116523181  14.95522656816785 15.97485425167054 20.29802367234113  14.41202729757972 15.20424085642448 21.10154860110938  13.21471977233887 12.39957046508789 21.10393905639648  13.09875011444092 12.66100978851318 20.18302917480469  13.647780418396 11.77035045623779 20.16972923278809  13.77790591784053 12.93369995863631 20.39867627875822  2.001898050308228 18.59700965881348 22.5815601348877  1.922162055969238 17.8474292755127 23.36731910705566  2.661471604280802 18.5403085858386 23.53254299703437  2.8539890806046 17.26271221631654 23.04184245702784  13.05562019348145 0.7588800191879272 16.27358055114746  12.48985958099365 0.09558500349521637 16.39450073242188  12.14101028442383 0.09558500349521637 15.77245044708252  12.93126964569092 0.09558500349521637 15.59552001953125  12.97929954528809 13.09409046173096 21.69018936157227  12.95905017852783 13.10840034484863 20.82719993591309  14.21471760109735 12.93083621477835 21.53361459942096  15.1841402053833 8.879060745239258 20.0590705871582  15.01095008850098 8.003704071044922 20.18530082702637  15.71757784895357 7.564080363863974 20.48184489050454  15.82498732792421 8.347935438106164 19.0229179841174  15.20695972442627 11.02727031707764 21.62244033813477  15.88774013519287 11.54424953460693 21.22311973571777  15.03485503860558 12.02144790998002 21.95256073430797  14.58423606444002 11.98891019286955 21.08106534693356  12.38080024719238 2.130063056945801 16.97801971435547  12.51426982879639 2.434390068054199 16.13730049133301  12.91405010223389 1.492992997169495 16.39907073974609  11.98540076605204 1.076013365358089 16.83010096477931  15.29286003112793 14.54578971862793 21.10700988769531  15.84302997589111 14.84926986694336 20.58531951904297  15.15218591275993 14.38563635288435 19.64673843581265  14.69587488288592 14.9904368714317 20.12965974005615  15.00067718707628 12.46112191094458 20.51570436797818  14.04070387516722 13.32913919461084 19.69037626791786  14.85916674323379 13.59855459209906 20.5747088260377  12.96537971496582 13.53287982940674 20.21319961547852  15.14863967895508 16.1301097869873 22.16239929199219  15.65233993530273 16.3038501739502 21.52462959289551  15.31064987182617 15.45487022399902 21.33616065979004  14.16515170883262 14.17777389951262 20.72751533802535  13.89865425253987 14.25320381855169 19.82306211009466  13.67206954956055 11.82351016998291 21.80891990661621  13.81713008880615 11.67506980895996 21.07097053527832  13.70575046539307 15.26931953430176 20.51122093200684  14.45398998260498 11.0263500213623 20.7181396484375  15.15635109210881 11.31682285532393 20.05901930986861  19.22282981872559 9.237237930297852 19.07364082336426  19.56550025939941 8.630832672119141 19.63917922973633  18.24978049860714 8.451111968803133 19.22533853571877  19.07930488529272 8.605356133624351 18.38399791912067  3.434919888541779 15.63174720959074 22.33727457156969  4.105174815631623 17.09241139249104 22.47656992760106  2.802679152991765 17.50149261753639 21.63509223106107  13.18927001953125 14.47422027587891 20.15653038024902  11.17685031890869 11.38562965393066 19.24353981018066  10.89023017883301 10.29860973358154 19.03005981445312  10.34395288337256 11.1374175524181 18.54247686278635  10.39211296090345 10.65713840603616 19.67579846101687  4.156078815460205 17.33799934387207 23.33659934997559  4.775352001190186 17.77247047424316 22.99476051330566  5.004424095153809 16.97047996520996 23.00094032287598  4.30305004119873 16.09736061096191 23.26836013793945  4.740520440708325 15.74091479561452 21.87928837803881  15.71790981292725 13.6702299118042 20.8055591583252  15.83841809067627 12.91875555561051 21.00118479514336  15.59690379210661 13.29382708554012 19.90214036070847  12.11670017242432 0.09558500349521637 15.03958988189697  12.29683479863305 1.048938499377269 15.69429550441058  5.394011974334717 16.0789794921875 22.97827911376953  3.697614908218384 16.54206085205078 23.80480003356934  18.93788909912109 8.973540306091309 20.10206985473633  12.09094047546387 3.866801977157593 16.56986045837402  11.93560028076172 3.424690961837769 17.33880043029785  12.06272983551025 2.888108015060425 16.73465919494629  11.24370086253607 3.362252170619134 16.47055169467855  11.82456016540527 4.362967014312744 17.5890007019043  11.05351670536791 4.428631282665428 16.88470239776802  13.9527702331543 15.72469043731689 19.96600914001465  11.42753028869629 0.09558500349521637 16.32628059387207  11.37876987457275 0.09558500349521637 15.44324970245361  14.97187042236328 7.465922832489014 19.3090991973877  15.77077965846659 7.020530791609848 19.19306559230871  11.01600279157865 1.804456455246665 16.28183228933307  11.10673872336653 0.7141915900002724 15.30428352325218  10.1351695367541 0.9739724616637987 16.33227010199503  10.12026058070037 1.217452640893929 14.93234737652281  2.378039219222275 16.02883725701857 23.50853803333458  10.52353954315186 9.730399131774902 19.58078002929688  10.11041469971257 10.01371707034619 18.82474835250981  13.00533962249756 13.87880039215088 21.17958068847656  14.27880954742432 11.30072021484375 21.50918960571289  15.86291027069092 11.70077037811279 22.09750938415527  15.56332969665527 13.1154899597168 21.34023094177246  1.910833683465429 16.19079036996547 21.80959160340977  1.505503058433533 17.01997947692871 23.04626083374023  1.898769021034241 17.63699913024902 22.28200912475586  2.046086072921753 18.34305953979492 21.34767913818359  1.750684022903442 17.33058929443359 21.18502044677734  15.11460971832275 6.612349033355713 19.4884204864502  15.05842971801758 6.552499771118164 18.61812973022461  15.50681972503662 6.185898780822754 19.14238929748535  0.09939099848270416 14.52480030059814 21.02421951293945  1.08870161969132 14.16137074311521 20.32065525757089  1.058975129407738 15.21618938665286 20.93619382068317  0.93128967238146 13.85144498163945 21.43618868895853  10.54669952392578 0.09558500349521637 16.53017044067383  10.57973003387451 0.09558500349521637 15.79687023162842  8.940302848815918 0.7147560119628906 16.03986930847168  9.821337699890137 0.09558500349521637 16.24332046508789  9.573138236999512 0.09558500349521637 15.27653980255127  10.35431003570557 9.283190727233887 19.04464912414551  13.14453983306885 12.33950996398926 22.26613998413086  10.49487972259521 0.09558500349521637 14.95952033996582  3.566765069961548 18.23537063598633 23.92683029174805  3.425928115844727 17.26228904724121 24.10515022277832  10.99238014221191 10.89276027679443 19.87153053283691  10.81676959991455 10.20993995666504 19.82438087463379  8.599008560180664 0.9465109705924988 15.0701904296875  9.010015060562051 1.733615158645657 15.85271708467179  16.7668609399234 8.071722752647265 19.78728923557658  16.44400223942497 9.36369905126449 20.1414516230107  12.80745029449463 1.52354097366333 17.31212997436523  12.76578998565674 0.7454289793968201 17.23806953430176  18.54430961608887 9.546652793884277 19.70330047607422  15.91355037689209 12.45024013519287 21.12314987182617  14.60919952392578 17.18358993530273 21.18211936950684  15.36205005645752 16.76971054077148 22.15063095092773  9.183824025032987 10.4654500951274 19.16689514338282  3.525752070934725 18.41405475058218 22.73116541523878  1.324617981910706 16.81278991699219 21.98045921325684  0.09939099848270416 14.24298000335693 20.03266906738281  0.09939099848270416 13.70573043823242 20.40822982788086  0.7172449827194214 13.68951034545898 19.69866943359375  15.08189010620117 6.884549140930176 20.30876922607422  11.43542003631592 5.178454875946045 17.46696090698242  12.01842021942139 4.723133087158203 16.88044929504395  8.009632110595703 11.43157005310059 19.08303070068359  7.835638999938965 10.27600955963135 19.51618003845215  8.064079284667969 10.52958965301514 18.40221977233887  8.061550140380859 9.689901351928711 18.68965911865234  11.03328037261963 11.74312973022461 20.0574893951416  10.10457345386408 11.48648650389524 19.40045958459174  16.51586223279256 6.549969692293271 20.10603497729603  13.63903045654297 15.16081047058105 19.42218971252441  17.23676897213837 9.362139777243915 19.12730193957661  17.61074018689224 8.995482709173679 20.52070741434666  0.9601519703865051 13.2509298324585 20.38858032226562  1.072528004646301 16.53017997741699 20.83526992797852  3.008600950241089 16.22036933898926 24.52323913574219  17.75753021240234 9.881545066833496 20
[...]
<PointData  Scalars="p_CO2"> 
<DataArray  type="Float64"  Name="p_CO2"  format="ascii">4.5003337375292659e+01  4.4996670652948588e+01  4.5000030069972425e+01  4.5000399845872792e+01  4.4997700945553902e+01  4.5003500008245950e+01  4.4998516693038525e+01  4.5004321636069648e+01  4.4999666217865283e+01  4.4993865867635478e+01  4.5000362491207667e+01  4.4995562126827224e+01  4.4995638876021921e+01  4.5010054528765188e+01  4.5000124618247483e+01  4.5022584387092074e+01  4.4981391415022237e+01  4.4992313893940960e+01  4.5009440660322603e+01  4.5003215369367012e+01  4.5015225794714233e+01  4.4993745311422735e+01  4.5002999212710698e+01  4.5002777750676159e+01  4.4995729857290314e+01  4.4999623983169322e+01  4.5000743357353713e+01  4.5000120625080449e+01  4.5001089416018516e+01  4.5000811590697367e+01  4.5000698408078236e+01  4.5000555704879979e+01  4.5000869955120521e+01  4.5001061552591871e+01  4.5005014708592526e+01  4.5003305808447223e+01  4.4998047328215485e+01  4.4999912331580951e+01  4.4999887026167698e+01  4.5000280593519690e+01  4.5000315999536895e+01  4.5000378209389602e+01  4.5000114295904318e+01  4.5002023891737139e+01  4.4996769374457102e+01  4.5001817265420122e+01  4.5003622211812647e+01  4.4998060329283945e+01  4.5000782912405256e+01  4.5000612266406122e+01  4.4997161530749516e+01  4.5002750225286505e+01  4.4999796273217513e+01  4.5001628674571094e+01  4.4999989082082131e+01  4.5000638192171479e+01  4.4999762125075058e+01  4.5000524407761382e+01  4.5000022424180131e+01  4.5000449410179186e+01  4.5000031924272967e+01  4.5001084422025954e+01  4.5000234150287049e+01  4.5001377160057878e+01  4.4999352074008875e+01  4.5000931071567884e+01  4.4999063552143717e+01  4.4999730538916495e+01  4.4997991575982951e+01  4.4999289813729064e+01  4.5001733752949775e+01  4.5000536132455693e+01  4.4996235985131875e+01  4.4997406984850699e+01  4.5000382896225894e+01  4.5001315024999414e+01  4.4999726014898101e+01  4.5002601832489233e+01  4.4996128449934560e+01  4.4998038286161041e+01  4.5002333614512224e+01  4.4999936799743878e+01  4.5003046825462292e+01  4.4999437883605680e+01  4.5001238298816119e+01  4.4998124430280640e+01  4.5002160300758291e+01  4.5001662245669664e+01  4.4997942589457054e+01  4.4998629861355127e+01  4.5002453190799166e+01  4.4999547781407728e+01  4.4998444051137014e+01  4.5000228079828680e+01  4.4999919008205566e+01  4.5000434884698322e+01  4.4999287212537041e+01  4.5000430389335591e+01  4.5001025974550167e+01  4.5001693951371500e+01  4.5001889042085025e+01  4.5000374776487767e+01  4.5001491225258640e+01  4.5000036908236630e+01  4.4996250309974322e+01  4.4999790188214277e+01  4.5000348007940609e+01  4.4999911220197312e+01  4.4998482850362585e+01  4.5005873044060550e+01  4.4998782518910261e+01  4.5000493652820730e+01  4.4999831900809390e+01  4.5000161548182675e+01  4.5003434242334073e+01  4.5001507719014064e+01  4.5000917870134643e+01  4.5000217408814905e+01  4.5003040708233229e+01  4.4994236207529809e+01  4.5000663399944138e+01  4.4999617661608653e+01  4.5000462258844031e+01  4.5001890794623527e+01  4.4996512527009173e+01  4.4998475758424647e+01  4.5003849876161937e+01  4.4997774155578000e+01  4.4998270146311974e+01  4.5000000000000000e+01  4.4999749941693530e+01  4.5001000289426976e+01  4.5004959771306005e+01  4.5000175799604165e+01  4.5000254603610657e+01  4.4999699115376536e+01  4.4999443458796961e+01  4.5000428831410872e+01  4.5000617944504924e+01  4.4997600687361526e+01  4.4999950555490337e+01  4.5001199100557585e+01  4.5000169004125091e+01  4.4999914445726112e+01  4.4999954774928263e+01  4.5000060533257731e+01  4.4999835995560822e+01  4.5003639821168079e+01  4.5009713080960900e+01  4.4999559069432223e+01  4.4999773447496871e+01  4.5000975804701156e+01  4.4999030319686518e+01  4.4998054858622481e+01  4.5003934983423378e+01  4.4996798636317976e+01  4.4996957059800785e+01  4.5001575288416710e+01  4.5000000000000000e+01  4.5000000000000000e+01  4.4999710151292298e+01  4.4999022451547425e+01  4.5005869084925386e+01  4.5000369886721124e+01  4.4993391907815237e+01  4.5002369667831211e+01  4.5001611375390304e+01  4.4998795955310825e+01  4.4999658124331752e+01  4.5001280774681760e+01  4.5004873642204188e+01  4.5001250016407596e+01  4.5002404839407561e+01  4.4999339261844923e+01  4.4999448413813795e+01  4.5002727905949783e+01  4.4997878117642180e+01  4.4997806438803202e+01  4.4999461203296526e+01  4.5003062438293625e+01  4.5000252071588186e+01  4.4998450003275451e+01  4.4999031245378248e+01  4.5002718566045694e+01  4.4998526981146085e+01  4.4998821878171952e+01  4.4999749517072303e+01  4.5000418873210101e+01  4.5004336933611917e+01  4.4988842904116666e+01  4.5007443308687144e+01  4.4995813369381217e+01  4.4997390375917824e+01  4.5005691721842943e+01  4.5001627001552059e+01  4.5001638177268219e+01  4.5000583052585242e+01  4.5000497714873163e+01  4.5002087938315540e+01  4.5026259918994214e+01  4.5017995029779264e+01  4.4986754426221225e+01  4.5001294348860931e+01  4.4997184810233598e+01  4.5002463249410418e+01  4.4999350023335168e+01  4.5006480751249534e+01  4.5018015764660014e+01  4.4988373655350031e+01  4.4997886250940716e+01  4.5000602858050847e+01  4.5002762487581869e+01  4.4998972993220171e+01  4.4998410076782271e+01  4.5000000000000000e+01  4.5000000000000000e+01  4.5000000000000000e+01  4.5000204445978916e+01  4.4999898335661179e+01  4.4999510387641529e+01  4.4998757145914595e+01  4.4998812671585299e+01  4.4995839080085645e+01  4.4992868815769121e+01  4.4997557053671436e+01  4.5010153153843625e+01  4.5000823354486442e+01  4.4999489598387598e+01  4.4999643695496047e+01  4.4997473859805169e+01  4.4997524663703373e+01  4.4998474181548445e+01  4.5000787993166632e+01  4.5000638241458567e+01  4.5001158765610086e+01  4.5000260079932765e+01  4.4999916801007288e+01  4.5000341185660893e+01  4.5002112421091638e+01  4.5000291227031141e+01  4.4999734829132485e+01  4.5001543778378633e+01  4.4998868481451403e+01  4.4999764085717423e+01  4.4998826374674778e+01  4.5000489307312293e+01  4.5000223088789717e+01  4.4999993236409303e+01  4.4999796742555993e+01  4.5000318500416363e+01  4.4998493316277724e+01  4.5001348799316503e+01  4.4999481642559445e+01  4.4999603584584037e+01  4.4999710008592771e+01  4.4999960268368653e+01  4.4999062026890918e+01  4.4999482902878448e+01  4.4997373323857047e+01  4.5001813380497481e+01  4.4994552717408240e+01  4.4997225749720961e+01  4.4998096943106219e+01  4.5002123938261839e+01  4.5000790635233791e+01  4.5000262274001152e+01  4.5000235258621970e+01  4.5000912018406197e+01  4.5003874332040247e+01  4.4999678772881687e+01  4.5000677446733611e+01  4.4995925045245933e+01  4.4992353163767859e+01  4.4996183902806578e+01  4.5000000000000000e+01  4.5001172781288105e+01  4.5001957277565296e+01  4.4998311287424137e+01  4.4999889753114360e+01  4.5000928002839963e+01  4.5000062822894378e+01  4.4999363030501357e+01  4.5000418277687018e+01  4.4998259348008517e+01  4.5000358285786739e+01  4.4996088100309059e+01  4.4998578535753197e+01  4.4998960763900321e+01  4.5001536836360309e+01  4.5000157586001748e+01  4.4997689481970156e+01  4.4999353173505462e+01  4.5001873761001271e+01  4.4999207911933652e+01  4.4998269103618064e+01  4.5001261950942762e+01  4.5003491704168411e+01  4.5003551789577877e+01  4.5001448768431281e+01  4.4999922754352383e+01  4.4999645431957646e+01  4.5001349033279681e+01  4.4999266727360506e+01  4.5001219229818354e+01  4.4999301210915704e+01  4.4998076626967674e+01  4.5000869083676108e+01  4.4999895179168497e+01  4.5000209242953687e+01  4.4999129133349435e+01  4.4998344981092387e+01  4.5002200419183517e+01  4.5001057953583128e+01  4.4993206215019278e+01  4.4999694838359119e+01  4.4998410013451057e+01  4.4998936075624748e+01  4.5000136861196381e+01  4.4998803878245582e+01  4.5001731912237922e+01  4.5002258283080373e+01  4.4998221277510567e+01  4.4998720405064141e+01  4.5002629817720987e+01  4.5002164024524845e+01  4.4999308253193696e+01  4.4997412862147911e+01  4.5000156863258248e+01  4.4998029283965643e+01  4.4998999531288653e+01  4.5000867343591437e+01  4.5001204832853468e+01  4.4999736776087715e+01  4.5003546432265267e+01  4.4987387856254408e+01  4.5001378599441630e+01  4.5000820759778861e+01  4.5000000000000000e+01  4.4996320632558991e+01  4.5002772081664361e+01  4.5000000000000000e+01  4.5003544041457609e+01  4.5000332182229123e+01  4.5000810822608550e+01  4.4999749369641606e+01  4.5003586374892826e+01  4.4998714343103664e+01  4.4999397167627691e+01  4.4999400762111591e+01  4.4998873744126193e+01  4.5001401249928826e+01  4.4999892936903770e+01  4.4999774393001495e+01  4.4999148257097836e+01  4.4999069673890020e+01  4.5003118498533816e+01  4.5000678886788940e+01  4.5000000000000000e+01  4.5002034571167798e+01  4.4997898679190570e+01  4.4995516757629282e+01  4.4994789112228297e+01  4.5002983890505782e+01  4.4998922937964757e+01  4.4999155762521745e+01  4.4998403884891111e+01  4.4997603728185823e+01  4.4999847073140884e+01  4.5000000000000000e+01  4.5000000000000000e+01  4.5000000000000000e+01  4.4998518922722496e+01  4.5002088015097208e+01  4.5000096233604502e+01  4.4999182481825578e+01  4.4999228572559836e+01  4.4999913934413549e+01  4.4998964876435402e+01  4.4999177062388455e+01  4.5001300175181377e+01  4.5000290692191541e+01  4.4995899672238160e+01  4.5000567389690183e+01  4.4999150767205421e+01  4.5002778845261986e+01  4.4999443186491071e+01  4.5004761099457490e+01  4.5001695632355592e+01  4.4998951696306591e+01  4.5000470697447291e+01  4.4989570415248323e+01  4.5000000000000000e+01  4.5000000000000000e+01  4.5000783478649886e+01  4.5002214916179781e+01  4.4998157374580686e+01  4.5000185542412233e+01  4.5001764023185373e+01  4.5000126243198210e+01  4.4999902127217986e+01  4.4998149820982896e+01  4.5000475417322789e+01  4.5000723901801379e+01  4.4999730076228204e+01  4.4999148382789066e+01  4.4998289342477769e+01  4.4999317816415640e+01  4.4996983140292770e+01  4.4998429878516816e+01  4.4999012762074862e+01  4.4999901743611829e+01  4.5002031558894352e+01  4.5000053340580322e+01  4.5007486070721278e+01  4.4999504912224708e+01  4.5000300949060282e+01  4.4999881439368139e+01  4.4998141507831676e+01  4.4999280452002075e+01  4.5000023398487826e+01  4.4999039146214649e+01  4.4999403420613469e+01  4.4996089733483061e+01  4.4998707739412083e+01  4.5005307632768329e+01  4.4995945557141262e+01  4.4999330166759094e+01  4.4996503441259108e+01  4.5000148338695574e+01  4.5004448591618782e+01  4.5000000000000000e+01  4.5001230002568377e+01  4.4999938216728943e+01  4.5000196315377167e+01  4.5000635094341135e+01  4.4996110479156670e+01  4.5001724839506736e+01  4.5002483025519922e+01  4.5001074773602760e+01  4.5000000000000000e+01  4.4997432118479551e+01  4.4993559318925392e+01  4.5001706183241069e+01  4.4998999477039561e+01  4.5000858015172803e+01  4.4999495650161656e+01  4.5000249895314973e+01  4.4996689785433922e+01  4.5002800358194285e+01  4.4997813725850612e+01  4.4994274113646519e+01  4.5000019056023937e+01  4.5002479377636412e+01  4.5000792327324703e+01  4.5000459296062239e+01  4.5001666212948727e+01  4.4998819499069754e+01  4.5001301812924325e+01  4.5001685062914511e+01  4.4999659714583643e+01  4.4998667714807226e+01  4.4998693454572368e+01  4.5000831080165426e+01  4.5001304127945232e+01  4.4997890716024230e+01  4.5003950410731100e+01  4.4998542873724624e+01  4.4999429898955313e+01  4.4999577720704224e+01  4.5002127538501064e+01  4.4999357470068112e+01  4.5001483394723678e+01  4.4998985261952718e+01  4.4999941970972962e+01  4.4999649085864803e+01  4.4999076510982768e+01  4.4999343542781119e+01  4.4999809108623786e+01  4.5000682808646808e+01  4.5001508743416196e+01  4.5002333190460099e+01  4.4996095601437268e+01  4.5000531578753829e+01  4.4998770249318397e+01  4.4999469558729416e+01  4.4999788221060882e+01  4.5000042449539876e+01  4.4999900560507093e+01  4.5000426283630048e+01  4.5000194863907502e+01  4.5000267529146306e+01  4.5000074877996120e+01  4.5002275036987491e+01  4.5003390031717068e+01  4.5000098888053337e+01  4.5000623217469929e+01  4.4999668290835110e+01  4.4999939644396754e+01  4.5000594947795499e+01  4.5000607580911698e+01  4.4998739873495886e+01  4.5000290336569968e+01  4.5000533364152638e+01  4.5000775497767833e+01  4.4999760112597102e+01  4.5000157463705186e+01  4.5001198879497863e+01  4.5001088212255901e+01  4.5001817424096444e+01  4.5000933921931228e+01  4.5002834660158229e+01  4.4998114147365811e+01  4.5000656100248897e+01  4.4999748298099000e+01  4.4998770427807990e+01  4.4999916909777525e+01  4.4998443950067028e+01  4.4999331494767077e+01  4.5001194474988608e+01  4.4999788859618064e+01  4.5001551949777891e+01  4.5000350493312148e+01  4.4999523134946301e+01  4.4999897093259023e+01  4.4999146228378898e+01  4.5000664743575399e+01  4.5000450796808657e+01  4.4999573905078471e+01  4.5004099464970686e+01  4.5003443916326013e+01  4.4999830741687255e+01  4.5000236843359474e+01  4.4999910153383475e+01  4.5001154016141136e+01  4.4999048392027554e+01  4.5001226703794003e+01  4.4999197732323182e+01  4.5000846542209345e+01  4.4998733437989202e+01  4.4999654175909818e+01  4.4999440832408823e+01  4.5000325960162527e+01  4.4996392115783500e+01  4.5000240033597734e+01  4.5000228175558654e+01  4.4989101540586326e+01  4.5001121669214541e+01  4.4999661487832647e+01  4.5000060150239989e+01  4.4994990543612047e+01  4.4998802993174479e+01  4.5003301022362706e+01  4.5000491876393454e+01  4.5005232707196747e+01  4.5003254166013676e+01  4.5000725222140183e+01  4.4996544404949368e+01  4.4993057978843702e+01  4.5006012761160285e+01  4.4998820320675570e+01  4.5002401282273958e+01  4.4996064965436389e+01  4.5003245920943449e+01  4.5000400676757607e+01  4.5000191735114910e+01  4.5001353883315907e+01  4.4999537128986596e+01  4.4999769517222418e+01  4.4999604870143429e+01  4.5000671889203723e+01  4.5001428072015706e+01  4.5000000000000000e+01  4.5000000000000000e+01  4.4999687943419453e+01  4.5000078533640085e+01  4.4997871995815508e+01  4.5002956560600481e+01  4.5002361777451227e+01  4.5001423762486695e+01  4.4999751454056060e+01  4.4999843750475875e+01  4.4999266913224133e+01  4.5000258749792692e+01  4.4999699631591227e+01  4.4998910885717912e+01  4.5000830692429048e+01  4.5000510159209199e+01  4.5000024518220179e+01  4.5000000000000000e+01  4.5000000000000000e+01  4.5002569221965011e+01  4.5001786921382802e+01  4.5000225750652490e+01  4.4996586555937725e+01  4.5000246106703997e+01  4.5000155856172270e+01  4.4995481891949822e+01  4.4992395827129407e+01  4.4998429707373951e+01  4.5009302560197746e+01  4.5001498957657141e+01  4.4992930609550029e+01  4.5001926685259818e+01  4.4998821129629746e+01  4.4997723117012598e+01  4.4999766126373459e+01  4.5001520669054266e+01  4.4999078631863469e+01  4.4999201366902525e+01  4.5000262807675078e+01  4.4999347921529846e+01  4.4995687090141836e+01  4.5002361193053240e+01  4.5000486869657436e+01  4.5002064310372461e+01  4.5001948813248177e+01  4.5002833029432878e+01  4.4997742280249916e+01  4.5000438565308443e+01  4.5000159733555606e+01  4.5000481986410563e+01  4.4999803317798403e+01  4.4998506751917255e+01  4.5000603919245208e+01  4.4999181537523192e+01  4.4997643117019585e+01  4.5000730911622860e+01  4.4999832330836121e+01  4.4999895982400083e+01  4.5000117375590683e+01  4.4998323041443285e+01  4.4996290691868765e+01  4.5001640796028823e+01  4.5000472622528491e+01  4.5001632551822340e+01  4.5000647244420179e+01  4.5000478779442076e+01  4.4999617045985481e+01  4.4999551539837555e+01  4.5002034393731932e+01  4.5001132317072674e+01  4.5000153407414864e+01  4.4999052133863387e+01  4.4999115660616354e+01  4.5000921976178248e+01  4.5000778914890944e+01  4.5000125986737615e+01  4.4997831416674522e+01  4.5000228098166851e+01  4.4995814966363682e+01  4.4999808296274701e+01  4.4998773501613783e+01  4.4999157836739585e+01  4.5000267908708246e+01  4.4999839534599936e+01  4.4999248673894719e+01  4.4999848727686206e+01  4.5004129281535164e+01  4.4995123353858936e+01  4.5000911556483935e+01  4.5014152569783086e+01  4.5004583429257686e+01  4.4997485081652499e+01  4.4998887032823106e+01  4.5001058008044595e+01  4.5000167278864666e+01  4.5000260300422653e+01  4.5000639878902220e+01  4.4999576411553477e+01  4.5000392073988237e+01  4.4999040131618081e+01  4.4998236678781460e+01  4.4999873529129445e+01  4.5000304863818393e+01  4.5002511469243146e+01  4.5001990402562356e+01  4.4998703770126077e+01  4.4998525360650277e+01  4.4999576779406588e+01  4.4996078667272180e+01  4.5001008965868216e+01  4.4999498811662477e+01  4.5001653683437077e+01  4.5001420234887640e+01  4.5003083286347014e+01  4.4999202518449316e+01  4.5003392511528055e+01  4.5000464231064171e+01  4.4999158856228988e+01  4.4997792662774195e+01  4.5002429772232809e+01  4.5001033764769481e+01  4.4998014741416895e+01  4.4997381318544655e+01  4.5002368289800344e+01  4.4997190182022010e+01  4.5000000000000000e+01  4.5000461071636259e+01  4.5002324466789950e+01  4.4999548483294220e+01  4.4998669530092904e+01  4.4998297924573691e+01  4.4998319204798719e+01  4.4997746143492776e+01  4.5001204292029719e+01  4.4997991169558368e+01  4.4995785471843092e+01  4.4999918962725687e+01  4.5003990419776272e+01  4.5001259854584937e+01  4.4998938118758183e+01  4.5000355338666125e+01  4.4998805480026377e+01  4.4998951824152236e+01  4.5000689219720563e+01  4.5001348051913965e+01  4.4999367696572016e+01  4.5001551384628911e+01  4.4999399400499328e+01  4.5001547925467897e+01  4.5002713711024647e+01  4.4998257906466606e+01  4.5001552323021521e+01  4.5003623950571289e+01  4.4998383171612929e+01  4.4999972564350827e+01  4.5006884799692244e+01  4.5005370162178288e+01  4.5000091560854045e+01  4.4999337905348895e+01  4.4999774637484109e+01  4.5000652565724167e+01  4.4999927814070737e+01  4.4999871389134789e+01  4.5000606716868766e+01  4.4999951705559440e+01  4.5000940347374105e+01  4.4999681963491284e+01  4.5000198595800036e+01  4.5000210108691114e+01  4.4999425462104831e+01  4.5001563487100420e+01  4.4994735396293393e+01  4.5003035686129088e+01  4.5000031075261973e+01  4.5000171556880183e+01  4.4999869403139584e+01  4.4999781194293497e+01  4.4996741840729577e+01  4.5001696065562491e+01  4.5000400010797563e+01  4.4999210706170537e+01  4.5001358870479521e+01  4.5000543974304691e+01  4.5001938093838021e+01  4.5000420508859591e+01  4.4997860981946523e+01  4.4999410615059872e+01  4.4994510802927216e+01  4.5003503842495299e+01  4.5000000000000000e+01  4.5006135860683301e+01  4.4998747079569803e+01  4.4996573279169922e+01  4.5001470749762525e+01  4.5000625726380946e+01  4.4999101597967886e+01  4.5000742274546575e+01  4.4996144951068771e+01  4.4999962369481871e+01  4.5001958907850764e+01  4.4991941797790297e+01  4.4997509039185857e+01  4.4998973031160517e+01  4.5003595526041408e+01  4.5000809487836179e+01  4.4998373406292664e+01  4.4999488094012847e+01  4.4999848056218070e+01  4.5001065891433846e+01  4.5000930740515791e+01  4.5002096808258777e+01  4.4995953967568120e+01  4.5002246524750923e+01  4.4997397292894192e+01  4.5000666893363523e+01  4.5000082390833448e+01  4.4999652540894026e+01  4.4999688679757043e+01  4.4998753812544443e+01  4.5000078682528496e+01  4.4999883883587536e+01  4.5001223547357206e+01  4.4999886017544803e+01  4.4998301412628273e+01  4.4999412920079621e+01  4.4999691633911901e+01  4.5000688981660765e+01  4.5000198058999260e+01  4.5000807582903171e+01  4.5004375566948781e+01  4.4999258532164617e+01  4.5000371443191341e+01  4.4997152699072743e+01  4.4996130913321181e+01  4.4999269227164092e+01  4.4998198349691968e+01  4.5002371666261531e+01  4.5000368779769730e+01  4.4999111010734431e+01  4.4996849096427923e+01  4.4999294254377148e+01  4.5000650844560965e+01  4.5001029805138174e+01  4.5001348985149185e+01  4.5001127593571233e+01  4.5000357093062490e+01  4.5000684016840097e+01  4.4999167527143506e+01  4.4998573706253609e+01  4.4998114205312753e+01  4.4997173319185670e+01  4.4998587099873809e+01  4.5001295915849092e+01  4.5000158823502964e+01  4.4997025973230784e+01  4.5002077035205758e+01  4.5003261539217661e+01  4.4997058047943590e+01  4.500033509685094