<?xml version="1.0"?>
<VTKFile type="UnstructuredGrid"  version="0.1"  >
<UnstructuredGrid>
<Piece  NumberOfPoints="13528" NumberOfCells="60830">
<Points>
<DataArray  type="Float64"  NumberOfComponents="3"  format="ascii">10.48579025268555 22.94625091552734 4.000820159912109  10.30490016937256 23.51964950561523 3.562145948410034  9.884129524230957 22.48970031738281 3.57850193977356  9.78626821577277 22.91605222429515 4.03818515464065  10.9942798614502 26.92878913879395 8.511281967163086  10.47809982299805 27.64455032348633 7.877871990203857  10.40314960479736 26.74275016784668 7.793661117553711  11.02078046159205 26.59097624031946 7.546492247318595  2.869144916534424 21.08499908447266 5.50863790512085  2.545106057410409 21.16308300104942 4.805419899213018  2.502982020378113 20.84329509735107 4.939743995666504  2.87602698802948 20.89098453521729 5.108825445175171  2.496099948883057 21.03730964660645 5.339556455612183  2.538223985915352 21.35709755030479 5.205232359158697  2.123054981231689 20.98962020874023 5.170475006103516  2.165179018263985 21.30940811243858 5.03615090965003  2.882909059524536 20.69696998596191 4.709012985229492  2.207303055296281 21.62919601613692 4.901826813196545  7.188916206359863 30.76506042480469 5.222819805145264  7.777659893035889 29.99275016784668 5.345513820648193  7.504792650265146 30.20712947803369 4.364659396955315  8.580377486967556 30.41868930573037 4.721880138705373  8.036659732723265 24.16706879983867 1.981043559521276  8.803494211035677 24.37318869994986 0.8559447477404751  7.894562618081057 23.33019856643599 0.9897880012831851  9.208000893050414 23.79494165880918 1.658517146174062  1.047256946563721 22.63452911376953 8.223189353942871  1.090086192777086 22.7958365724199 7.69318828704814  1.278858482837677 22.88990497589111 8.113752365112305  0.8420429825782776 23.00354480743408 7.955308198928833  0.6368290185928345 23.37256050109863 7.687427043914795  0.8848722287916431 23.16485226608445 7.425307132034102  1.073644518852234 23.25892066955566 7.845871210098267  1.510460019111633 23.1452808380127 8.004315376281738  1.321687729051042 23.05121243454148 7.583751298217574  1.132915438990452 22.95714403107026 7.163187220153409  1.354293942451477 23.30374908447266 0.6567339897155762  1.730478235357445 23.10380312671404 0.7136083700479864  1.536873996257782 23.010329246521 0.3807869963347912  1.35608446598053 22.72444915771484 0.6628510057926178  1.357874989509583 22.14514923095703 0.6689680218696594  1.732268758886498 22.52450319995623 0.719725386125028  1.538664519786835 22.43102931976318 0.3869040124118328  1.719454050064087 22.71690940856934 0.1048400029540062  1.91305828916375 22.81038328876238 0.4376613766672014  2.106662528263413 22.90385716895543 0.7704827503803966  2.650933980941772 21.70751953125 6.282981872558594  2.572755045091413 22.40843445199301 6.099691003599294  2.207839417640494 21.95462983715016 5.869412195886208  2.133973416981262 22.28185574300435 6.381379999906796  1.617012853020752 22.85619195475871 6.479778127255  2.129660481790133 22.65554475789318 5.686121326926909  2.055794481130903 22.98277066374737 6.198089130947498  1.690878853679983 22.52896604890452 5.967810323234412  1.764744854339214 22.20174014305033 5.455842519213823  2.494576109241053 23.10934937273603 5.916400134639995  1.861300283900059 31.87443785817974 6.183664714588998  0.8530810078481144 31.83699218252408 6.491889857123258  1.435462781175839 31.53006723824677 6.439164099340573  1.483407338008158 31.9860400007012 6.677672254769389  1.278918510572334 32.18136280245704 6.236390472371682  1.105514392116258 32.09764214322267 7.171679794949781  0.9010255646804333 32.29296494497851 6.730398012552074  1.057569835283939 31.64166938076824 6.933171639520965  0.6965367372446084 32.48828774673435 6.289116230154367  1.00962527845162 31.18569661831381 6.694663484092149  0.09939099848270416 30.65196990966797 5.511184215545654  0.5792782163871446 30.95142264309882 4.919598420718046  0.5792782163871446 31.00570769253729 5.385060628512235  0.09939099848270416 31.13035488128662 5.141480684280396  0.09939099848270416 30.59768486022949 5.045722007751465  0.09939099848270416 31.60873985290527 4.771777153015137  0.5792782163871446 31.48409266415594 5.015357097246977  0.09939099848270416 31.07606983184814 4.676018476486206  0.09939099848270416 30.54339981079102 4.580259799957275  1.059165434291585 31.35944547540662 5.258937041478815  3.814690955717444 22.63095721344638 2.474953198191114  3.174917139808223 23.28473471810263 3.002680433654757  3.52917117402167 22.79775291158847 3.081146079594715  2.984968876389401 22.71641341642853 2.601851194786788  3.460436921503997 23.11793901996054 2.396487552251156  2.155246797061358 22.80186961941068 2.728749191382462  2.699449094693627 22.88320911457063 3.208044076190389  2.630714842175954 23.20339522294269 2.52338554884683  3.10618288729055 23.6049208264747 2.318021906311197  3.243651392325896 22.96454860973057 3.687338960998316  7.564987182617188 27.31520080566406 4.940483093261719  8.419495582580566 26.90353012084961 5.105236053466797  7.662065029144287 26.27938079833984 5.002089977264404  8.368221224692981 26.42732904536467 4.158905028578285  1.578778982162476 28.50972938537598 7.391119956970215  1.450646402777366 28.41515767432218 6.798701767127108  1.155275883616142 28.13557851172452 7.105797294776034  1.235360863150291 28.53161275244718 7.171336177985262  1.713979542255402 27.99724006652832 6.952946662902832  1.794064521789551 28.39327430725098 7.018485546112061  1.498694002628326 28.11369514465332 7.325581073760986  1.418609023094177 27.71766090393066 7.260042190551758  2.009350061416626 28.27681922912598 6.645851135253906  0.8919427441381066 28.55349611951839 6.951552399000311  3.291470050811768 27.63669013977051 3.284817934036255  2.989623178604107 27.60371086648001 3.627737473397951  2.80266797542572 27.43144512176514 3.206761002540588  2.788424968719482 27.74281024932861 3.249516487121582  2.285379886627197 27.84893035888672 3.214215040206909  2.50082110321806 27.39846584847464 3.549680541902284  2.486578096511822 27.70983097603812 3.592436026483278  2.299622893333435 27.53756523132324 3.171459555625916  2.313865900039673 27.22620010375977 3.128704071044922  2.687776306396447 27.57073159318951 3.970657012759646  9.519895553588867 28.54719924926758 0.1048400029540062  8.964131355285645 27.78879928588867 0.1048400029540062  9.872751535123138 28.6159938970129 0.9307640177897853  9.853937768101019 27.48608476834267 1.174411237282869  6.806774139404297 32.52194976806641 2.654133081436157  6.749499910802961 31.72988964358912 3.644090233274139  6.756786471329505 32.74419463275917 3.950250451409556  7.743117332005538 32.37522589344361 3.298204685287652  2.267183402773877 26.54528962422725 4.731130307099011  2.888443337838363 26.24130757043906 4.106040122559238  2.307444666029223 26.15631689333268 4.380735170800646  2.550626800894237 26.15642205002306 4.720526335469117  2.848182074583017 26.63028030133363 4.456435258857603  3.429180746392157 26.71527097844002 4.181740210616193  3.131625472703377 26.24141272712945 4.445831287227708  2.834070199014597 25.76755447581888 4.709922363839223  2.590888064149583 25.76744931912849 4.370131199170753  2.347705929284569 25.7673441624381 4.030340034502282  4.048978805541992 19.51339912414551 2.18967604637146  4.590982484069626 19.7158950966605 1.795121737142856  4.105392456054688 19.463134765625 1.775537014007568  3.971523404121399 19.74923419952393 1.901698529720306  3.894068002700806 19.98506927490234 1.613721013069153  4.161806106567383 19.41287040710449 1.361397981643677  4.513527082649032 19.95173017203892 1.507144220491702  5.132986162597258 19.9183910691755 1.400567427914251  8.155190615550646 27.65821188767107 4.143983505083602  9.018238528518378 27.51010590112617 4.573418942244053  3.104717016220093 28.57683944702148 5.947904109954834  2.956655773667156 28.07606468139899 5.526169031168093  3.211633577101286 28.61318692331947 5.436646155815014  2.619485352535587 28.54186369909653 5.360193841799676  2.134253688851081 28.50688795117158 4.772483573644517  2.471424109982649 28.04108893347404 4.938458763012935  2.72640191341678 28.57821117539452 4.848935887659856  3.318550137982479 28.64953439961746 4.925388201675194  3.063572334548349 28.11241215769698 5.014911077028273  2.808594531114218 27.5752899157765 5.104433952381353  4.275609016418457 26.92744064331055 3.011322975158691  3.608554425396396 26.37672518801151 3.506986104529898  3.985959505956719 26.33763622204172 3.444872625581806  3.852394881405307 26.82135581087528 3.596531592887442  4.031768560409546 26.48281002044678 2.921777486801147  3.787928104400635 26.03817939758301 2.832231998443604  3.742119049947808 25.89300559917795 3.355327137224262  3.562745370943569 26.23155138960646 4.030081243310557  3.696309995494981 25.74783180077289 3.878422276004921  5.017679214477539 30.21418952941895 3.623939037322998  5.121623039245605 29.30816078186035 3.411648035049438  5.533957004547119 30.00144958496094 3.191241979598999  5.394982780327704 29.60120994715896 3.662515321536978  5.136843885292914 29.70757991938796 3.878863850398977  5.25600855610829 29.20097030935698 4.133788663474957  8.566227912902832 29.49756050109863 5.828784942626953  9.204357147216797 28.84446907043457 6.036036014556885  8.56196403503418 28.59127998352051 5.340751171112061  9.7459947204462 29.46069234515095 5.824990929710546  8.583149831150884 22.26760959085543 4.603402737103463  8.454657346545163 21.13777642156327 3.904749218412163  8.843222606999138 21.16603428214007 4.919461667526432  9.349914899288001 22.08730642348236 4.267938865478381  2.363821983337402 25.67995071411133 6.072202205657959  2.218482735900443 25.12646305981983 5.704432201663737  2.516103506088257 25.07019519805908 6.040096521377563  2.594856023788452 25.39887046813965 5.935582160949707  2.297235253600638 25.4551383299004 5.599917841235881  2.285069465637207 25.35127544403076 6.176716566085815  2.206316947937012 25.0226001739502 6.281230926513
[...]
<PointData  Scalars="p_CO2"> 
<DataArray  type="Float64"  Name="p_CO2"  format="ascii">4.4999311167157643e+01  4.5000583114979804e+01  4.4999477578231691e+01  4.4998854673861167e+01  4.5000284317449122e+01  4.5000673510204656e+01  4.4999807814712689e+01  4.5000441673638292e+01  4.5000036960349640e+01  4.4999109010899041e+01  4.5000866180293002e+01  4.5000223328723536e+01  4.5000048630742157e+01  4.4999341826529815e+01  4.5000387890317811e+01  4.4999915795152504e+01  4.4999790122102738e+01  4.5000141924276228e+01  4.5000815688092565e+01  4.4999927598155878e+01  4.5005051919280973e+01  4.5000386851941336e+01  4.4999765998106909e+01  4.5001292700771870e+01  4.4999811047655946e+01  4.5001242307489079e+01  4.5000068831806381e+01  4.5001053519778345e+01  4.4999542190384375e+01  4.4999975163952648e+01  4.4999704634535448e+01  4.5000556294092576e+01  4.4999605594283786e+01  4.4999729560298682e+01  4.5000079475051095e+01  4.4999192258752011e+01  4.5000230584584976e+01  4.4999561113608209e+01  4.4999902579981999e+01  4.4999663048158830e+01  4.5000118507268738e+01  4.5000124064507872e+01  4.4999510867001050e+01  4.4999770831117374e+01  4.5000331488199983e+01  4.5000045341986187e+01  4.5000471137324908e+01  4.4999860172613324e+01  4.4999778715507361e+01  4.4997471396999792e+01  4.5000132772671023e+01  4.4999917465641595e+01  4.5000210960290438e+01  4.5000034054651991e+01  4.5000455642326507e+01  4.5000013559924604e+01  4.4999930859651080e+01  4.4999669992954729e+01  4.4999340212678838e+01  4.4998886436071494e+01  4.4999242533381562e+01  4.4999973944981868e+01  4.4999652730119919e+01  4.5000172114819627e+01  4.5000091882225533e+01  4.4999639179847925e+01  4.5000000000000000e+01  4.5000250858438740e+01  4.4999709261162877e+01  4.5000000000000000e+01  4.5000000000000000e+01  4.5000000000000000e+01  4.4999829673358114e+01  4.5000000000000000e+01  4.5000000000000000e+01  4.4999357717244159e+01  4.5000010120678830e+01  4.5000012320295305e+01  4.5000292737327626e+01  4.4999630733473268e+01  4.4999676244172420e+01  4.4999908465731970e+01  4.4999601710878288e+01  4.5000310374863773e+01  4.4999986834803721e+01  4.4999965840289725e+01  4.5000756304839001e+01  4.5000077838711128e+01  4.5000179828892257e+01  4.4999946305778622e+01  4.4999856780620128e+01  4.4997958786790825e+01  4.4997754747572216e+01  4.4999663363547654e+01  4.5001573760720539e+01  4.5001223674674605e+01  4.4999744151202677e+01  4.5000212248053053e+01  4.4999587868531052e+01  4.4999588274798541e+01  4.5001333887281660e+01  4.4996739725987673e+01  4.4998867543508702e+01  4.4997167476419122e+01  4.5001069780688056e+01  4.4999947910325687e+01  4.5001611007390906e+01  4.5001115328783740e+01  4.4999326745566584e+01  4.5000269455387787e+01  4.4999582631554944e+01  4.5000736810720049e+01  4.5000046961521804e+01  4.5000024333964582e+01  4.4999265158188663e+01  4.5012248567396803e+01  4.4999585855074145e+01  4.5000462895762922e+01  4.4999923389842543e+01  4.4999027917344769e+01  4.4999778617127014e+01  4.4999604732963498e+01  4.5000424690267280e+01  4.4999632392171506e+01  4.4999965068885281e+01  4.4999634303953933e+01  4.4999564152149269e+01  4.4999035647324128e+01  4.5000028846447648e+01  4.5000113987900114e+01  4.4999975481641300e+01  4.5000136911794421e+01  4.4999979906569969e+01  4.4999855674501148e+01  4.5000406927508820e+01  4.4999791091688273e+01  4.4999417353743056e+01  4.5001972599343745e+01  4.5000173988525638e+01  4.5000433713466315e+01  4.4999118934841228e+01  4.4998417064664977e+01  4.5000091027502734e+01  4.4999657781131567e+01  4.5000635735909960e+01  4.5000304488678005e+01  4.4999254418931436e+01  4.4999990966379031e+01  4.5000796494731375e+01  4.4999009015732341e+01  4.4999182410380286e+01  4.5002315014399692e+01  4.4996954014921798e+01  4.5000219444971933e+01  4.4999538460648374e+01  4.4999984581745593e+01  4.4999825841153751e+01  4.4996380656156212e+01  4.5004314757619241e+01  4.5006881414124642e+01  4.5009982961146960e+01  4.5010469087914700e+01  4.5006448938194417e+01  4.4997796962125761e+01  4.5000415228745148e+01  4.4998841228143313e+01  4.4997550079115420e+01  4.5000118736983779e+01  4.4999349848873962e+01  4.4999529652798138e+01  4.5000257937091675e+01  4.5000655193394586e+01  4.5000524166542490e+01  4.4999845444492202e+01  4.5000986893374225e+01  4.5000254337094688e+01  4.5000918815772664e+01  4.5000306800673037e+01  4.4999729158775310e+01  4.4998676709036971e+01  4.4999711125155414e+01  4.4997746173074397e+01  4.4999990860238540e+01  4.4997629535430860e+01  4.4998674392737250e+01  4.4996333627663390e+01  4.5001642775243781e+01  4.5003808625876758e+01  4.4999147106593924e+01  4.5000700983040275e+01  4.5000327624340969e+01  4.4999704581918309e+01  4.5001011155375615e+01  4.5001834727297215e+01  4.5000085956550919e+01  4.5000119584360540e+01  4.4999876625143280e+01  4.4999732175778185e+01  4.5000172756652248e+01  4.5000034612319489e+01  4.5000110353798092e+01  4.5000362077587404e+01  4.4999944785141977e+01  4.5000166962091811e+01  4.5000033585987872e+01  4.4999932426336677e+01  4.5000328897680326e+01  4.4999658998765213e+01  4.5000184423272451e+01  4.4999967143752066e+01  4.4999862840391359e+01  4.4999680943166943e+01  4.4999847195890489e+01  4.5003791968493658e+01  4.4994154554180142e+01  4.4999057003985335e+01  4.4999818779193440e+01  4.5000686270157154e+01  4.4999895643261077e+01  4.4998274609385724e+01  4.4999107312123648e+01  4.5002117581193644e+01  4.5000209502748227e+01  4.4999175938731426e+01  4.4999956066539966e+01  4.4999832650224313e+01  4.4999827581293246e+01  4.4999715293825169e+01  4.4999339123498778e+01  4.5000020722433696e+01  4.5000988492688691e+01  4.5000071138006028e+01  4.4998403506199168e+01  4.4999292512638156e+01  4.4998038900535178e+01  4.5000204467549914e+01  4.4999939809904411e+01  4.4999072364088590e+01  4.4999588444671616e+01  4.4999483158362821e+01  4.5000281828939833e+01  4.5000481724780641e+01  4.4998966451264977e+01  4.5001386718891233e+01  4.4998700373782349e+01  4.5000346717000625e+01  4.4999701185585756e+01  4.4999665900616343e+01  4.4999424525921846e+01  4.4999926830344698e+01  4.4998452069686756e+01  4.4998622659987042e+01  4.5001398084567136e+01  4.5000376945487027e+01  4.4998493064297357e+01  4.5001274985630573e+01  4.5000932755132737e+01  4.5000091931153349e+01  4.4998233582631293e+01  4.4999402445889672e+01  4.4994434443717644e+01  4.5000847344193822e+01  4.5000866927501853e+01  4.4999281472734410e+01  4.4998650427009999e+01  4.4999471004196700e+01  4.5000927509574971e+01  4.4999561463806153e+01  4.4999048378057253e+01  4.4999739045239231e+01  4.4999644836568947e+01  4.4999876072744840e+01  4.4999562300605511e+01  4.5000460357562709e+01  4.4999740266086896e+01  4.4999881882030884e+01  4.5000029191654953e+01  4.4999688982434080e+01  4.5000743633074592e+01  4.4999967498915197e+01  4.4999818764639265e+01  4.5000019164900863e+01  4.5000560681471271e+01  4.4999339245443387e+01  4.5000206943399405e+01  4.5000373617392128e+01  4.5000356945880945e+01  4.4999393547225253e+01  4.5001071079693411e+01  4.4998865996244149e+01  4.4999928522108753e+01  4.4999316686049411e+01  4.4999977736271489e+01  4.5000346189110985e+01  4.4999890498643836e+01  4.4999569551951808e+01  4.4998992265573982e+01  4.4999352661633893e+01  4.4999140429755670e+01  4.4999677135338423e+01  4.5000112203413408e+01  4.5000215557595681e+01  4.4999635889347864e+01  4.5000600497687081e+01  4.5000223438260946e+01  4.4999961291120144e+01  4.5000695460592681e+01  4.4998998323204596e+01  4.5000975774622887e+01  4.4999559267047154e+01  4.5001787043577600e+01  4.5001926225508704e+01  4.5004284097164906e+01  4.5006003129325343e+01  4.5000404106692862e+01  4.5000024832601270e+01  4.5000869071864322e+01  4.4999515898571062e+01  4.5000479645680628e+01  4.4999703655060927e+01  4.5000376816819326e+01  4.4999858136810538e+01  4.5000086408141271e+01  4.5000210403953055e+01  4.4999236096291483e+01  4.5000167625426755e+01  4.4999892498141662e+01  4.4999445725307190e+01  4.4998749894382485e+01  4.5000908957015483e+01  4.5000814931317265e+01  4.4999689790440669e+01  4.5000222671165211e+01  4.4998235041084250e+01  4.4999750966332414e+01  4.4999103905546662e+01  4.5001878234544982e+01  4.4999718795575340e+01  4.4999577693111668e+01  4.4999974547930655e+01  4.5001618213451195e+01  4.5000564006921977e+01  4.4999833398005130e+01  4.4999777168442229e+01  4.4999227212717585e+01  4.4999530499975798e+01  4.4999243184841738e+01  4.4999215677041363e+01  4.5000231348595257e+01  4.5000050938286421e+01  4.5000149706191529e+01  4.4994179567258598e+01  4.5001118655361765e+01  4.5004746517486623e+01  4.5009014228366460e+01  4.5000000000000000e+01  4.5002965422162070e+01  4.5000742181907100e+01  4.4998915681420641e+01  4.5000000000000000e+01  4.5000000000000000e+01  4.5000000000000000e+01  4.5000000000000000e+01  4.5000000000000000e+01  4.4999856460697337e+01  4.5000118376225011e+01  4.4999504421602019e+01  4.5000324012910404e+01  4.4999861077907795e+01  4.5000048756664782e+01  4.5000096325621534e+01  4.5000328225847241e+01  4.4999983908047824e+01  4.4999980709437736e+01  4.5000427557145549e+01  4.5000527317499802e+01  4.5001527438325226e+01  4.4999309849092398e+01  4.4999396244330789e+01  4.4998865598824032e+01  4.4999071230024818e+01  4.5000477490461599e+01  4.5001575506732898e+01  4.4998816588895295e+01  4.5000137933668405e+01  4.5000422789166379e+01  4.4999898533467508e+01  4.4999218188235695e+01  4.4999982986694519e+01  4.5000268989929658e+01  4.5000000000000000e+01  4.5001333357171546e+01  4.4999455433505226e+01  4.4999382944797567e+01  4.5001420947367016e+01  4.5000982837260892e+01  4.4999633325097690e+01  4.5000122800122988e+01  4.4999475343884590e+01  4.4999124387012607e+01  4.5000201546416896e+01  4.4999449087081352e+01  4.4999697453592475e+01  4.5000031601515943e+01  4.5000852846121745e+01  4.5000072956783448e+01  4.4999488256419717e+01  4.4999960035902902e+01  4.4999341197080007e+01  4.4998848211177453e+01  4.5001227165727940e+01  4.5000580277799614e+01  4.4999707403624463e+01  4.4999933659152354e+01  4.4999943570061731e+01  4.5000072577213636e+01  4.4999910848464800e+01  4.4999288874909837e+01  4.5000060594678516e+01  4.4999587337991763e+01  4.4999882946203265e+01  4.4999732693816362e+01  4.4999003024672973e+01  4.5000004191530380e+01  4.5000248690118227e+01  4.4998788096007623e+01  4.5000326658050888e+01  4.4999884538913136e+01  4.5000000000000000e+01  4.4999843381232857e+01  4.5000170214308099e+01  4.5000000000000000e+01  4.5000000000000000e+01  4.5000000000000000e+01  4.4999879907946756e+01  4.5000000000000000e+01  4.5000000000000000e+01  4.4999889949917872e+01  4.4999178400971751e+01  4.5000087306339566e+01  4.4999746783592798e+01  4.5000661077388614e+01  4.4999716065407554e+01  4.5001040071105990e+01  4.5000200696840970e+01  4.4999569126226746e+01  4.4999862631012086e+01  4.4999425427249285e+01  4.4999681345273729e+01  4.4999722368013238e+01  4.5000221456607271e+01  4.5001067914100034e+01  4.4997568399904559e+01  4.5001572253305014e+01  4.5000528095668123e+01  4.4998356243952749e+01  4.5000188592238366e+01  4.4999760888225460e+01  4.4999619401707278e+01  4.5002289856589755e+01  4.4998896940336635e+01  4.5000774757754151e+01  4.5002481694744290e+01  4.4999488679844987e+01  4.4999213977310525e+01  4.5000678965940359e+01  4.4999916593030484e+01  4.4999841336415720e+01  4.4999870446487186e+01  4.4999973635382069e+01  4.5000348950911864e+01  4.5000013998215913e+01  4.4999987398750051e+01  4.5000076933890533e+01  4.5000216949629717e+01  4.5001857918180335e+01  4.4997381725403670e+01  4.4999573114237322e+01  4.4999425846401188e+01  4.5000091020901877e+01  4.5000627215884563e+01  4.5002328757822951e+01  4.5001332736133463e+01  4.4999407513715781e+01  4.4999722120017779e+01  4.4999969459764976e+01  4.5000106779480127e+01  4.5000570634504662e+01  4.5000625510095617e+01  4.4999961983441551e+01  4.5000126169525174e+01  4.5000398812578318e+01  4.4999615973832697e+01  4.4999797223008315e+01  4.4997865751194986e+01  4.5001592110964722e+01  4.5000943590940771e+01  4.4999902142063796e+01  4.4999704535878777e+01  4.5000642986532618e+01  4.5000778336047716e+01  4.5000577374913895e+01  4.4999877697102171e+01  4.4999758772633285e+01  4.4998515140492671e+01  4.4999696077806171e+01  4.5000439520380574e+01  4.4999549602889005e+01  4.4999403270188829e+01  4.5000296491901587e+01  4.5000053228232773e+01  4.4999504517510601e+01  4.4999688208205271e+01  4.4999604223440436e+01  4.4999361473498269e+01  4.4998918354374176e+01  4.4999137291088722e+01  4.5000504310828539e+01  4.4999838603931224e+01  4.5000304178092200e+01  4.5000111935855458e+01  4.5000371089666423e+01  4.4998746733622582e+01  4.5000728676995799e+01  4.4999620429292790e+01  4.5001560497259597e+01  4.5000810474092518e+01  4.4997728581979523e+01  4.4999870457485819e+01  4.5000252387182506e+01  4.4999472188297517e+01  4.5000212765378443e+01  4.5000000000000000e+01  4.4999901313319150e+01  4.5000088473119412e+01  4.5000000000000000e+01  4.4999605950219582e+01  4.5000000078759932e+01  4.4999860840175430e+01  4.5000274541965773e+01  4.4999861838765483e+01  4.5000456539204663e+01  4.5000247350178007e+01  4.5000721891800801e+01  4.5000319682691263e+01  4.4999790327444366e+01  4.4999181664090074e+01  4.5000476585979264e+01  4.5000260708673451e+01  4.5000130958104130e+01  4.4999443922000054e+01  4.4998747037742056e+01  4.5000507367866369e+01  4.5000538962605944e+01  4.5000295347056415e+01  4.5000452207452859e+01  4.5000315013192264e+01  4.5000236383711865e+01  4.5000456451554314e+01  4.4999331024931855e+01  4.5002287674234935e+01  4.5000434692403886e+01  4.5000501316284392e+01  4.4999832506423296e+01  4.5000843077574501e+01  4.5000371114712635e+01  4.4999730725032713e+01  4.5000336302651732e+01  4.5000228539674531e+01  4.5000294328897809e+01  4.5000525116897720e+01  4.5000170971107252e+01  4.4999311828617380e+01  4.4999875129479577e+01  4.5002255996670229e+01  4.5000397850395011e+01  4.4997976384261293e+01  4.5000893002681778e+01  4.5000012799794128e+01  4.4999699105579282e+01  4.4999889466724312e+01  4.4999277096974502e+01  4.4998833483643288e+01  4.5000019178173893e+01  4.5003039352180480e+01  4.4999118411210787e+01  4.5000517990558876e+01  4.5000431132641900e+01  4.4999616594021809e+01  4.4999978446759322e+01  4.4999659662809620e+01  4.4999741805029501e+01  4.5000691817553317e+01  4.4999466535329105e+01  4.5000044848815925e+01  4.4999177315287731e+01  4.4999034520562063e+01  4.5000308160839147e+01  4.4999827689466422e+01  4.5000790909544762e+01  4.4999190060011607e+01  4.4997757592872581e+01  4.5000630439178885e+01  4.5001404228583191e+01  4.4999969141541214e+01  4.5000860983221258e+01  4.5000132114762430e+01  4.4999819325842729e+01  4.5000301784432892e+01  4.4999826077914911e+01  4.4999798757114718e+01  4.5001103557513332e+01  4.4999399477412396e+01  4.4999668328828669e+01  4.5000000000000000e+01  4.5003773293929100e+01  4.5000000000000000e+01  4.4993962229534596e+01  4.4997830715586076e+01  4.5000435523784688e+01  4.5000428853831792e+01  4.5000000000000000e+01  4.5001512713857807e+01  4.5000611832860002e+01  4.5000274389060344e+01  4.5001350881134606e+01  4.4999960193018339e+01  4.4998511414372885e+01  4.4999636989100409e+01  4.4999635243630095e+01  4.5000066580583500e+01  4.5000465344772678e+01  4.4999688339590953e+01  4.5000024018125814e+01  4.5000183374952584e+01  4.5000071020013458e+01  4.5002751221026898e+01  4.5001050212474063e+01  4.4999210901855228e+01  4.5000000000000000e+01  4.4999559287116632e+01  4.4999729235013923e+01  4.5000000000000000e+01  4.5000029026836032e+01  4.5000504994792863e+01  4.5000811060767241e+01  4.5000216617864766e+01  4.4999076209436353e+01  4.4999265668024961e+01  4.4999590685275692e+01  4.4998929063990431e+01  4.5000379074407398e+01  4.4998761554985968e+01  4.5000839865823437e+01  4.4998269154671696e+01  4.4997964180319734e+01  4.5001322451629036e+01  4.5001272194168791e+01  4.4999971457782237e+01  4.4999938452068811e+01  4.5000200765251449e+01  4.4999899857180445e+01  4.5000041937013194e+01  4.5000050381568940e+01  4.5000092363431037e+01  4.4999984604767349e+01  4.4999546506892038e+01  4.4997791023555280e+01  4.4997337316270794e+01  4.4999516358385087e+01  4.4999425371372013e+01  4.4999845183041288e+01  4.4999578672286901e+01  4.5000682371035765e+01  4.5000161743857184e+01  4.5000898547549220e+01  4.4999768127167833e+01  4.4999575122224996e+01  4.5000478454844298e+01  4.4999704069855284e+01  4.4999471081254939e+01  4.5000278760743448e+01  4.4999779882228083e+01  4.5000793130178160e+01  4.4999583212513713e+01  4.4999562998157700e+01  4.4999358718555811e+01  4.4999976360719018e+01  4.5000280567352561e+01  4.4999846925027143e+01  4.5000261132487914e+01  4.4999232925220483e+01  4.4999383299588700e+01  4.4998656916426093e+01  4.5001094894637561e+01  4.4999563791368558e+01  4.4999895326166879e+01  4.5000325298950195e+01  4.4998808995760207e+01  4.4999029244731389e+01  4.5000093136001674e+01  4.5001176369512997e+01  4.5001006280414934e+01  4.5003514751757372e+01  4.5000153670043403e+01  4.4998487485304302e+01  4.4999157025962553e+01  4.5000000000000000e+01  4.5000435460584839e+01  4.5000312867607548e+01  4.4999791527683200e+01  4.4999376203043433e+01  4.4999879435511261e+01  4.5000118995242339e+01  4.4998753894347409e+01  4.5000489095478954e+01  4.5000181501618229e+01  4.4999714108959438e+01  4.4999969569266455e+01  4.4999297859834513e+01  4.5001869400030152e+01  4.4998595189292779e+01  4.5000814397206639e+01  4.5001464277647237e+01  4.5000260888735575e+01  4.5000144164756996e+01  4.4992762994782900e+01  4.5003580982600802e+01  4.4999493486052621e+01  4.4998891182094340e+01  4.4997731331820184e+01  4.4999820384815841e+01  4.4998992330620055e+01  4.4999144829588275e+01  4.4999406552444739e+01  4.4999763254610571e+01  4.4999757780459191e+01  4.5001956771346791e+01  4.4999837549190396e+01  4.4999828481309024e+01  4.4999704017222676e+01  4.4999215316984319e+01  4.5000349522707779e+01  4.4999468884545429e+01  4.4999736812980544e+01  4.5000366252650331e+01  4.5001388839191293e+01  4.4999570784484057e+01  4.4999767157788867e+01  4.5000362277778081e+01  4.4999401873485553e+01  4.4999247096763710e+01  4.4999660151438306e+01  4.5000052099383268e+01  4.5007779296187024e+01  4.4988739204408766e+01  4.5009612257567191e+01  4.4994208382995247e+01  4.4999524614283835e+01  4.4983461439057677e+01  4.4998713913863760e+01  4.4981813722636396e+01  4.5002407005650255e+01  4.4999696288202621e+01  4.4999491302421795e+01  4.5000008647202115e+01  4.5001930476167352e+01  4.4997375463277969e+01  4.4999805962833904e+01  4.4998825313050737e+01  4.5002257949651380e+01  4.5000031851877949e+01  4.4999125330019318e+01  4.5000132172565365e+01  4.4999665877418273e+01  4.4999011607099234e+01  4.4996774834919563e+01  4.4996681398838994e+01  4.4998823970419494e+01  4.5000944090627485e+01  4.4999590178858291e+01  4.5000309098750677e+01  4.4999243415092103e+01  4.5000344318273079e+01  4.5000062099501001e+01  4.4999604226212739e+01  4.4999558092514185e+01  4.4999758751201277e+01  4.4998909613011222e+01  4.4999461888481591e+01  4.5001397469280327e+01  4.4999494853225627e+01  4.4998681110114745e+01  4.5000367504496467e+01  4.4999613957013594e+01  4.4999651581197320e+01  4.5000155576101825e+01  4.4998831667343509e+01  4.4999140064561637e+01  4.4998261074079792e+01  4.4999247771248825e+01  4.4997583879745278e+01  4.4999187310711008e+01  4.4996255394877863e+01  4.4998679853314741e+01  4.4999453931336255e+01  4.4998390728677506e+01  4.4996843774734309e+01  4.5001131652937225e+01  4.4998991074533727e+01  4.4999520073205993e+01  4.5001658214956407e+01  4.5000924645102316e+01  4.4999747029059051e+01  4.4999926835278416e+01  4.5001098785367496e+01  4.5000809959782103e+01  4.4998340636044901e+01  4.4999099306472928e+01  4.5000385024507160e+01  4.4998660283772587e+01  4.4999902912548727e+01  4.4991847115505728e+01  4.5001894056665321e+01  4.5006938560546857e+01  4.4997817866116094e+01  4.5000289664990952e+01  4.4999485370575826e+01  4.5000327794202718e+01  4.500032712659930