<?xml version="1.0"?>
<VTKFile type="UnstructuredGrid"  version="0.1"  >
<UnstructuredGrid>
<Piece  NumberOfPoints="4016" NumberOfCells="15648">
<Points>
<DataArray  type="Float64"  NumberOfComponents="3"  format="ascii">18.6109504699707 15.69713020324707 9.799237251281738  18.5051097869873 14.67370986938477 10.02363014221191  18.36368089057273 14.47085373771344 8.85392010971384  19.33471364331881 15.28563142615479 9.018779474610517  22.62552070617676 15.13006019592285 6.55479621887207  22.13371086120605 14.52486991882324 6.286318778991699  22.21125030517578 15.15888023376465 5.780219078063965  21.58041053291813 14.78881717828209 6.020481373853662  21.41957091350733 15.53278801503632 6.731091110209531  21.96492958068848 14.54014015197754 5.471602916717529  21.82691955566406 15.26508045196533 5.165645122528076  18.04789924621582 12.85072040557861 8.043774604797363  18.74341011047363 12.61925983428955 8.36784553527832  18.4509166339694 13.40702460239543 7.348108815602277  19.19423706271272 13.68831296092339 8.135999206576866  18.25985908508301 12.51231956481934 7.488379955291748  18.52313041687012 12.61859035491943 6.709153175354004  19.45506498122847 12.79515201222781 7.352190982668778  21.01751447441815 13.05147272515121 5.204505807078047  19.99934846703265 13.72030221719927 5.5813420660683  20.85505673405143 13.92485413026376 4.474492174856292  21.28270891580178 14.02504790044616 5.53083140239798  18.20722007751465 13.20604038238525 6.206081867218018  19.19304735460727 13.45964054376406 6.540514730519982  21.58411026000977 16.01910018920898 4.968634128570557  21.26498985290527 15.53789043426514 4.553761959075928  21.09969319970405 15.5828545708629 5.661056365630651  19.99087905883789 16.55418968200684 4.237565994262695  19.3755583482909 16.23659282858298 4.960191823891201  20.86147620523558 16.46824389872575 5.254713783757369  19.69442701236135 17.12571563686692 5.366907988410657  20.19459351715524 15.5277172003843 4.754186900398144  19.76824951171875 14.71833038330078 4.341755867004395  19.81702041625977 13.91940975189209 4.679175853729248  20.64861086604717 14.78612446933201 5.150338578258718  20.2960090637207 14.98252964019775 3.696310043334961  21.09501075744629 15.14111042022705 3.951915979385376  20.31677659252595 14.42571181627475 6.58953638933203  20.1537910446577 12.6893903146152 6.393631037452762  19.07876416647815 14.89552341994401 7.340867683606869  22.07385063171387 13.77064990997314 6.761537075042725  21.99239921569824 13.98668956756592 5.935382843017578  21.99669075012207 13.22819995880127 5.873631000518799  21.31185602668018 13.43236702354939 6.353893368499964  19.96640968322754 13.18000984191895 4.958038806915283  20.16159057617188 12.48740005493164 5.199594974517822  20.02584324906897 15.98167919916157 6.014992027644478  19.00964207636011 15.09129286020143 5.678125208007821  18.7471746857121 14.14420490261407 6.231441231745087  19.79670906066895 15.60735988616943 4.066208839416504  18.7586498260498 14.1504602432251 5.214280128479004  19.38018035888672 13.6560697555542 5.224874973297119  18.35832023620605 13.21045970916748 8.780240058898926  21.34306907653809 16.86086082458496 4.873642921447754  20.87130928039551 16.38979911804199 4.528256893157959  19.36967086791992 14.35186004638672 4.880341053009033  21.7263643950768 14.43958326917338 6.928820603217891  19.73958969116211 17.19205093383789 4.567694187164307  19.21463012695312 16.89841079711914 4.21953010559082  20.51734924316406 17.24699974060059 4.777659893035889  21.74185943603516 14.66211986541748 4.581616878509521  18.83437919616699 13.4284496307373 5.725292205810547  19.02588081359863 12.75032997131348 6.095797061920166  19.32542037963867 15.26128005981445 10.28407001495361  19.68165016174316 16.14958000183105 9.60429859161377  19.62781605204429 14.10819638060941 9.54270343883425  18.58526208667919 16.58563874152684 6.604456568175205  19.01947975158691 15.01251029968262 4.507278919219971  18.56743049621582 13.75069046020508 9.591569900512695  18.95820045471191 16.32064056396484 9.237234115600586  19.41694068908691 16.69697952270508 8.835494041442871  20.41732200955673 15.5606163334647 9.324570344778836  20.54685974121094 15.79267024993896 4.087450981140137  20.0854402694595 16.44938121216756 7.699842186993564  21.15109420892401 13.56255714937003 7.440103524911584  20.84267187116011 14.77675237398092 8.104911451096678  19.54573059082031 12.90964031219482 5.538270950317383  19.16941070556641 12.9376802444458 9.196459770202637  18.97113990783691 16.07500076293945 4.070981025695801  21.98460006713867 13.69025993347168 5.047115802764893  22.45681953430176 14.36577033996582 7.157674789428711  18.03483009338379 13.81295013427734 5.650979995727539  19.8875904083252 17.70002937316895 4.892906188964844  3.010827779586177 38.59476783492006 22.05317707796448  1.851581237071958 38.02323505874296 21.73054797125295  1.802563059263481 39.13731176402347 21.60924889462688  2.838828091617264 38.98854103064352 21.02542859691585  2.326702117919922 39.89572906494141 21.55400085449219  1.555577993392944 39.89572906494141 20.99844932556152  2.393112897872925 39.89572906494141 20.65292930603027  3.953044891357422 39.106689453125 21.51358032226562  3.333339929580688 39.89572906494141 21.2407398223877  3.816942930221558 39.16564178466797 20.52388954162598  1.183912992477417 37.35641860961914 22.67318916320801  1.014335036277771 38.46112060546875 22.36746978759766  0.776373028755188 37.69231033325195 22.0158805847168  3.026417016983032 39.89572906494141 22.23866081237793  0.9313949942588806 39.08314895629883 21.8414306640625  3.996742963790894 36.06644821166992 22.92470932006836  3.940757989883423 36.73067855834961 22.11516952514648  3.633816957473755 36.0791015625 22.13257026672363  3.145593490723073 37.02014213486978 22.95964750746034  4.119826793670654 38.34529876708984 21.10232925415039  4.307643890380859 37.09751892089844 22.78998947143555  1.743314981460571 37.00265121459961 23.32678031921387  2.246742891630906 36.12125511192495 22.91182234573746  2.238357356601137 37.5460589068856 22.80346581520447  4.078267097473145 37.71942138671875 22.11622047424316  3.111304044723511 35.49982833862305 22.61152076721191  0.682345986366272 38.46107864379883 21.4123706817627  1.102702021598816 39.2034797668457 22.40666961669922  1.415325999259949 39.89572906494141 21.89780044555664  3.854626893997192 39.38607025146484 22.26719093322754  3.153340101242065 39.89572906494141 20.13582038879395  4.191434860229492 38.72452926635742 22.34094047546387  0.9045810103416443 39.30941009521484 21.17524909973145  13.13794040679932 17.06151962280273 1.132534027099609  13.34521961212158 17.43120956420898 0.6693580150604248  12.89505004882812 16.54416084289551 0.6787459850311279  13.85200945460305 16.67835238935003 1.043712675952529  6.315930008713635 20.29872505255518 9.315721348030022  7.77174979742095 19.87771146066953 8.926403541802012  7.574534643473436 20.90715873568816 9.765917941163188  7.771659049062478 20.08450387210853 10.37717232036229  12.18907509361935 13.92706942214599 4.254980329993743  12.15874779290814 12.83607963278179 3.767538948333254  12.70309577587385 13.65486993001768 2.940822372851311  11.1395714808671 13.83083358894184 3.144857369239292  11.82545301588243 14.16116571689676 2.055669991700803  11.9279052273477 12.5251502565808 2.741348123925475  15.2846097946167 14.40373992919922 4.8353271484375  15.89377975463867 15.27583026885986 4.200256824493408  15.10750961303711 14.63492965698242 4.173038005828857  14.96692339363915 15.46988252360182 4.728387267139263  5.029032230377197 14.8847599029541 3.987458944320679  5.027610778808594 14.73556995391846 2.80851411819458  4.962889194488525 14.08061027526855 3.581546068191528  5.845773986225665 15.06709718352809 3.940505739408904  5.507089138031006 16.2437801361084 2.494242906570435  6.2353483340635 16.41998289487541 2.819949435756182  6.035331366585889 15.29243907282936 2.637526649111614  5.906822201627159 15.6980521280976 1.858480528836236  6.434179774716326 14.44596475379546 1.892441172324593  5.487209876767341 13.80685694551881 1.038923690583583  5.767525862684399 14.97795809945067 0.930650660121183  6.896814925086908 13.79096845181495 1.100438413559271  14.52138042449951 14.04059028625488 4.207091808319092  13.2409203235078 14.57089746815846 4.172099311445621  14.31968337967173 15.16704384213814 4.055390205642914  13.88096026414957 14.64163153414405 5.075699701316489  9.885151383633158 12.74523176753918 2.496268480352233  9.020853687453705 14.07052276522077 1.897825143712975  9.555967190548724 14.68066225460364 2.980042447627115  9.848207783252082 14.07212471706163 1.713953495306989  12.00412122475924 12.82681000998338 0.9245392910888286  12.10484205920934 12.32676862422639 0.6565948989490904  11.99502515792847 12.97802495956421 0.1048400029540062  11.41537801847428 12.54430926243912 0.5800098124908695  13.12057971954346 13.67368984222412 0.9354689717292786  12.58316993713379 13.9614896774292 0.1048400029540062  12.60881996154785 13.19071006774902 0.620635986328125  12.41587257358754 14.29272238207908 1.065794873175779  11.30680315910775 11.36588245349918 2.586180501354935  11.91110925331013 10.78889564755203 3.53458844048941  11.54130272805223 10.25079746090828 2.803809773260822  10.51660843483699 10.85522775904986 3.642763085347382  5.975658893585205 17.94372940063477 8.412425994873047  6.050064086914062 17.80761909484863 7.243431091308594  6.044216156005859 17.21673011779785 7.919023036956787  6.685973644796601 17.65916306977785 8.460349930607514  11.61940002441406 10.10667991638184 0.7012659907341003  10.61118170854637 9.956465045154326 1.303012675379003  11.37889975267141 10.86408257736408 1.661224384263757  10.66959627309099 10.86859131881233 0.8054768664146916  15.34160995483398 15.74367046356201 2.808434009552002  14.57771973674706 16.54844499271137 2.951685003837666  15.18579227391274 16.82940978742248 2.247476143351441  14.79900978542443 15.8440999356894 2.177360257802397  8.413554823848562 12.98464166421776
[...]
<PointData  Scalars="p_CO2"> 
<DataArray  type="Float64"  Name="p_CO2"  format="ascii">4.4996131450501117e+01  4.4998927827551960e+01  4.4989192653107501e+01  4.5004607624505354e+01  4.5001774356146051e+01  4.5001117102457997e+01  4.5001419722531480e+01  4.4999377105704667e+01  4.5000348806897172e+01  4.4998476160701593e+01  4.5003765076527031e+01  4.5003575286131756e+01  4.5000375208015690e+01  4.4995011443789878e+01  4.4999922053089911e+01  4.4997350543400742e+01  4.4998390359895268e+01  4.5005605217693819e+01  4.5002356489530584e+01  4.4997001751039882e+01  4.5002468401151951e+01  4.4999987255058549e+01  4.5001840241549779e+01  4.5001978747227753e+01  4.4998131081560196e+01  4.5005262950039523e+01  4.4998513129589170e+01  4.4997524154108682e+01  4.4998291676259335e+01  4.4995648265722885e+01  4.5001169232312307e+01  4.4987925502670748e+01  4.5002568376269672e+01  4.4997473405716988e+01  4.4984436725854231e+01  4.5004117717296424e+01  4.4995147471078504e+01  4.4997712358578234e+01  4.4997330904594143e+01  4.5000402100309344e+01  4.5000955099187415e+01  4.4999778768651765e+01  4.4995281811528699e+01  4.4998402956408938e+01  4.5005114544234324e+01  4.5000988101925572e+01  4.4999674110028074e+01  4.5005328152514302e+01  4.5002451817884825e+01  4.5007233646536278e+01  4.5003124355877695e+01  4.4999530202993910e+01  4.5000121002377142e+01  4.4997437822195650e+01  4.5004619226377109e+01  4.4995507861583505e+01  4.4999586590479154e+01  4.5001582295108818e+01  4.5002089475186423e+01  4.4999945442058255e+01  4.4998960464156234e+01  4.5000366728546723e+01  4.4998163203304543e+01  4.4999259093770952e+01  4.4994763916871300e+01  4.5008137798319972e+01  4.5000797735136693e+01  4.5004681518394868e+01  4.5001235546507679e+01  4.5003128006092354e+01  4.4996367234131405e+01  4.4999821176073283e+01  4.5018086860776592e+01  4.4997094454420377e+01  4.5000145110316865e+01  4.4997754190469664e+01  4.4998523805730528e+01  4.5005729977805601e+01  4.4998348685044931e+01  4.5000951382092346e+01  4.5000386711706923e+01  4.5001445057297921e+01  4.5002354139765700e+01  4.4988633197796659e+01  4.4999902634423592e+01  4.5000266881153443e+01  4.5008501575838729e+01  4.4998357820046955e+01  4.4999182378537931e+01  4.5001936699637035e+01  4.4993082563677987e+01  4.5005792645864169e+01  4.4999212412924535e+01  4.5002623626074879e+01  4.4995953879049985e+01  4.4999671721928628e+01  4.4996650762356573e+01  4.5002790525714687e+01  4.4996312652755606e+01  4.5005871168203598e+01  4.4992161221576481e+01  4.5003635732318145e+01  4.5002401382366578e+01  4.4996655105851424e+01  4.5005912988033586e+01  4.4969066089091498e+01  4.4998142740576576e+01  4.4997691665830757e+01  4.5000780122626665e+01  4.5000249598923894e+01  4.5000147555722847e+01  4.5001517710185560e+01  4.5005144481621912e+01  4.5000048336448309e+01  4.4998838029310747e+01  4.4997124047050079e+01  4.5000782516356139e+01  4.5001563655483587e+01  4.4999923045695212e+01  4.5001269965743198e+01  4.4999442287705257e+01  4.4999028440269761e+01  4.5000869271164795e+01  4.4998973848044280e+01  4.5001989401359630e+01  4.4998412122901279e+01  4.4996928454056402e+01  4.4996187706093423e+01  4.4995938238899420e+01  4.5000401569181619e+01  4.5003341025324985e+01  4.4994504165460341e+01  4.5003768809723844e+01  4.5004237877707666e+01  4.5000409843873271e+01  4.4999380052293418e+01  4.4998419667210271e+01  4.5000336464791388e+01  4.5000500099609468e+01  4.5001113947934954e+01  4.4998509126212383e+01  4.4998824893202503e+01  4.4999621735869326e+01  4.5001440628910579e+01  4.4998550663314802e+01  4.5002709248581127e+01  4.5000600524269402e+01  4.4999499393842598e+01  4.4999332188009006e+01  4.4994732754180184e+01  4.5001060230944617e+01  4.5001640310938235e+01  4.4997957600753594e+01  4.5000542661507843e+01  4.4996254748415637e+01  4.4999355893690222e+01  4.5002055026430988e+01  4.5001332274500008e+01  4.4998048334668894e+01  4.4997851841230478e+01  4.5003881774562892e+01  4.4999721136631756e+01  4.4999533088611400e+01  4.5000966713295981e+01  4.4999716117543514e+01  4.4997992239460970e+01  4.4996671259045456e+01  4.5000568239700385e+01  4.4999427241232176e+01  4.5000375228685193e+01  4.4999811562896873e+01  4.5000309371423675e+01  4.5000024250538736e+01  4.5000735895312324e+01  4.5000252776813930e+01  4.5001952611354561e+01  4.4996400021740300e+01  4.4996909394765694e+01  4.4999909876470696e+01  4.5001016018965778e+01  4.5003568280586272e+01  4.5000539735040888e+01  4.5001229048368685e+01  4.5001781212154825e+01  4.4989101792564938e+01  4.5002256674642709e+01  4.5008574154586448e+01  4.5000230821095421e+01  4.4999352763214858e+01  4.4999606393618464e+01  4.4999987573625475e+01  4.5000618149276214e+01  4.4999966122964402e+01  4.5000048722247428e+01  4.5001058239399775e+01  4.5000415684703718e+01  4.4994306017195377e+01  4.5008538752597460e+01  4.4997960090810373e+01  4.4999078651664185e+01  4.5001548971682041e+01  4.5000795374269394e+01  4.4988466544362588e+01  4.5003161420911084e+01  4.5005113906311735e+01  4.4998538527149272e+01  4.4999870851345563e+01  4.5001934220199608e+01  4.4998917828949949e+01  4.4998439636569870e+01  4.5000373163300416e+01  4.5000010141207021e+01  4.4999137033344773e+01  4.4983829492806123e+01  4.5015616356409538e+01  4.5021868019317353e+01  4.4992887017763849e+01  4.5005165021552301e+01  4.5000327003496544e+01  4.4997952863913717e+01  4.5000579053134864e+01  4.4999100659660030e+01  4.4999972098885756e+01  4.5000784390857739e+01  4.5004975790740872e+01  4.5002052815514261e+01  4.4999470997409510e+01  4.4990158492047371e+01  4.5000397316698496e+01  4.5001886527832937e+01  4.4999359534858101e+01  4.5001570662718109e+01  4.5001549363173616e+01  4.4998367696798830e+01  4.4998784420055912e+01  4.4998217914151020e+01  4.4999066394452747e+01  4.4996899879081852e+01  4.4988191237948058e+01  4.5000554786533982e+01  4.4999340699970155e+01  4.5001019855503841e+01  4.4996752199368267e+01  4.4997916260093945e+01  4.5003007262678146e+01  4.5002947319796966e+01  4.4997611480628514e+01  4.5001185344687791e+01  4.5000474621456128e+01  4.4999489805470319e+01  4.5000054316009297e+01  4.4999033559615668e+01  4.4998952079692558e+01  4.4999449087772504e+01  4.5003388412742858e+01  4.5003578975518508e+01  4.4999335695462200e+01  4.5000863161064032e+01  4.4999869306913979e+01  4.5000419125068007e+01  4.5000621339982757e+01  4.5000204926669568e+01  4.4996935268014276e+01  4.4997536625679601e+01  4.5000537450133010e+01  4.5002401932960204e+01  4.4998669713584171e+01  4.4998685679993045e+01  4.5000597640269760e+01  4.5000581807937479e+01  4.5000223706114141e+01  4.5000816673645396e+01  4.5000850380242994e+01  4.4998355941710990e+01  4.4997573409932031e+01  4.5002619765932032e+01  4.5000338774111654e+01  4.5012654523771708e+01  4.4992335934505824e+01  4.4995206993212904e+01  4.5000630129086062e+01  4.5000317610519794e+01  4.4997795644554699e+01  4.4999190977791223e+01  4.5000667045059195e+01  4.5001560916510961e+01  4.4998755255203733e+01  4.5003123064956711e+01  4.5000258127892607e+01  4.5000279385804220e+01  4.4998889915455415e+01  4.4994599802137223e+01  4.5001805128745566e+01  4.5003485440967417e+01  4.4997413329801695e+01  4.5000548848147716e+01  4.4999908567047903e+01  4.4997128664722986e+01  4.4998984143087576e+01  4.5000090128826912e+01  4.5000089799163234e+01  4.4999102698917881e+01  4.5000486042193728e+01  4.4999931623156563e+01  4.4998751267539696e+01  4.4994483835792700e+01  4.5002650909606750e+01  4.5001403140919784e+01  4.4998244204032368e+01  4.4997634463163287e+01  4.5003326771660127e+01  4.5006827176775424e+01  4.4998342064989480e+01  4.5004382914445138e+01  4.4998519227024389e+01  4.5001122283163376e+01  4.4999637671452284e+01  4.5000060494255059e+01  4.5003169951258464e+01  4.4999780934622443e+01  4.5001191116869478e+01  4.4998566471813909e+01  4.4997832779215400e+01  4.4997941841300062e+01  4.4997899378384474e+01  4.4997837533541428e+01  4.5000842618851912e+01  4.4998868288803678e+01  4.5004035486299578e+01  4.4993284892342160e+01  4.5001420431073683e+01  4.5000912895532643e+01  4.4999132051107473e+01  4.5001664831384474e+01  4.4997733225625360e+01  4.4996864885488385e+01  4.5000021787080811e+01  4.4999799527259455e+01  4.5003095005608074e+01  4.4996819291588707e+01  4.5000196756404499e+01  4.5000286476814935e+01  4.4999444582678976e+01  4.5000457828341425e+01  4.5000173145581030e+01  4.4999952681869011e+01  4.4999661753911894e+01  4.4999539053490416e+01  4.5000295168187343e+01  4.4998066165642250e+01  4.4998172446442830e+01  4.5001788115898250e+01  4.5000317232886196e+01  4.5003166190050472e+01  4.5004390776663534e+01  4.4999234085657982e+01  4.4998065337461291e+01  4.5002316787845267e+01  4.4998604656337974e+01  4.4999383274964465e+01  4.4999561806654128e+01  4.5000000000000000e+01  4.4999237806313722e+01  4.5002370439780236e+01  4.5011362875053564e+01  4.5000468236954390e+01  4.4997638142827512e+01  4.4998178858076322e+01  4.5001452900798803e+01  4.5000293148434288e+01  4.5000375560734291e+01  4.5003198225559309e+01  4.5001433957362899e+01  4.4999324825858089e+01  4.4998829855299071e+01  4.4999518102266379e+01  4.5000681562844520e+01  4.4996315763081256e+01  4.4999049223542485e+01  4.4999374416099741e+01  4.5000072689958458e+01  4.5001849138603937e+01  4.4999927777849230e+01  4.5000593569365556e+01  4.4998605523615701e+01  4.5000437023723023e+01  4.5000512147462956e+01  4.5002298630511092e+01  4.4999059381431444e+01  4.4997502793719079e+01  4.5000115058071088e+01  4.5002025107880506e+01  4.4999880847432060e+01  4.5001274051334420e+01  4.5000105065336051e+01  4.4998451464905770e+01  4.4998856852134836e+01  4.4998303443203625e+01  4.4999066087596006e+01  4.4995752444581214e+01  4.5002604910240315e+01  4.5003543364140079e+01  4.4995403927631990e+01  4.4997996628918322e+01  4.5000263352014919e+01  4.4999885489621185e+01  4.4999654216652857e+01  4.4999016391659190e+01  4.5003564611469116e+01  4.4999722909816398e+01  4.4999262078844367e+01  4.4998935930216568e+01  4.5001389139685976e+01  4.4998713137570626e+01  4.5001325863562911e+01  4.5001408569736938e+01  4.5001043646535408e+01  4.4999814025312197e+01  4.4997542431260499e+01  4.5003713070782055e+01  4.5001222980535481e+01  4.4998785044528553e+01  4.5001385425273078e+01  4.5002301342229394e+01  4.5001341427734694e+01  4.4998988939191321e+01  4.4999555895487404e+01  4.4999785024892766e+01  4.4997907109027906e+01  4.5000005237762828e+01  4.4999398348490601e+01  4.5000822725439363e+01  4.4999626458950551e+01  4.5000092971381299e+01  4.4995976435273306e+01  4.5001368992723243e+01  4.5001702076056702e+01  4.4999766383283422e+01  4.4996665576510189e+01  4.4998534424682830e+01  4.4997313781468002e+01  4.5003244930348266e+01  4.4998447787694175e+01  4.4999700268790619e+01  4.5000837263723042e+01  4.4998370002878957e+01  4.4996863369426890e+01  4.5002702250741962e+01  4.4998995388708956e+01  4.4999778167278251e+01  4.4999569703608429e+01  4.4999495869665743e+01  4.5001162765295838e+01  4.4999304778653098e+01  4.4999715263489534e+01  4.4998820691949192e+01  4.4999933158853345e+01  4.4999400250292688e+01  4.5001600431596081e+01  4.5003489062564149e+01  4.4998021843047233e+01  4.5000000000000000e+01  4.5000000000000000e+01  4.5000000000000000e+01  4.4986260413552401e+01  4.4986388558843814e+01  4.5001901266903410e+01  4.5000942579915709e+01  4.5000548487572580e+01  4.5000023550025922e+01  4.5000453701566961e+01  4.4998843061016018e+01  4.5001061426746830e+01  4.5003264458021732e+01  4.4999119046855725e+01  4.4999418497367849e+01  4.5003087008119422e+01  4.4992520001911778e+01  4.5003546799345486e+01  4.5000874387381998e+01  4.4997188311412927e+01  4.5001031818426235e+01  4.5000136025228201e+01  4.4998301946361920e+01  4.5000301933911508e+01  4.4999644158436318e+01  4.5001135455520313e+01  4.5000489919418499e+01  4.5011111951785800e+01  4.5009303726259375e+01  4.5000532952980535e+01  4.4999842460748773e+01  4.5001855095622666e+01  4.5004032939216074e+01  4.5000215894305853e+01  4.4999854172028385e+01  4.5000701955683525e+01  4.5000332734394448e+01  4.5000598182244516e+01  4.4999947047475104e+01  4.5001087099364405e+01  4.5001907012033975e+01  4.5000762800425235e+01  4.5002820497574071e+01  4.4998999119050332e+01  4.4999366030408552e+01  4.4998524276859257e+01  4.4997161899561512e+01  4.5000268969963912e+01  4.5007665856217642e+01  4.5006760143422397e+01  4.5001408649539314e+01  4.4997769374015753e+01  4.5000608215853916e+01  4.5000115774640321e+01  4.4998722847405638e+01  4.4998654839726562e+01  4.5001125594752196e+01  4.5000000000000000e+01  4.5000000000000000e+01  4.4999419463762443e+01  4.5004357282529199e+01  4.4996560890604542e+01  4.4998672806220924e+01  4.4999049575103818e+01  4.5000450812626745e+01  4.4998757771749162e+01  4.5001377190445055e+01  4.4999281233069510e+01  4.4999854813317178e+01  4.5000712451583283e+01  4.5000128236538188e+01  4.4999571389211461e+01  4.4999213077443464e+01  4.4999880933707132e+01  4.4999029314870882e+01  4.5000658104775212e+01  4.5001017780270523e+01  4.4998613654739174e+01  4.5001135061101635e+01  4.5001898297756505e+01  4.4999938762240369e+01  4.5001559208622197e+01  4.4997990509053075e+01  4.4999772802613627e+01  4.5000729367169683e+01  4.5000544466548007e+01  4.4998936887644064e+01  4.4997363549793086e+01  4.5001814390873498e+01  4.5001248747678659e+01  4.5000113565640753e+01  4.4996904022365889e+01  4.4998922097074349e+01  4.4999731578423045e+01  4.5007570131300227e+01  4.4999136636477523e+01  4.4999626297537787e+01  4.5002988999523645e+01  4.4998548337966334e+01  4.4999373075422980e+01  4.5000112530721879e+01  4.5000597108727639e+01  4.5001660763871499e+01  4.5000448239856048e+01  4.5000689954127900e+01  4.5000018527413260e+01  4.4998231797069238e+01  4.5006020819802139e+01  4.5003763759879476e+01  4.5000749523134914e+01  4.5000815811886390e+01  4.5001505932868007e+01  4.5005580108769166e+01  4.4999940186171671e+01  4.4999998665786656e+01  4.4998971909610056e+01  4.5000964075316332e+01  4.4999853544877048e+01  4.5002609133928708e+01  4.4999109732433787e+01  4.5001315064378815e+01  4.5000668708031426e+01  4.5002381342603272e+01  4.4999509916653004e+01  4.5001655064766545e+01  4.4998981722093916e+01  4.5000460136169757e+01  4.5000051802416664e+01  4.5000511903274607e+01  4.4998981437416049e+01  4.4999419202902494e+01  4.4994428188672430e+01  4.5002964440404185e+01  4.5000309888096112e+01  4.5001220647887315e+01  4.4998334688122661e+01  4.5000692325496033e+01  4.5005717518984760e+01  4.5000302454303181e+01  4.4999400236328711e+01  4.4994302484171257e+01  4.5000139732326190e+01  4.4999426920551649e+01  4.5000390868129116e+01  4.5001357805232331e+01  4.5000000000000000e+01  4.5002295545226112e+01  4.5002251377898489e+01  4.5003504328356243e+01  4.5000158326329540e+01  4.4999393256762019e+01  4.4986080103345898e+01  4.4999975868723567e+01  4.5000909667877842e+01  4.5000445785425953e+01  4.5000002537829438e+01  4.4998702706134694e+01  4.4997877112433507e+01  4.5000000000000000e+01  4.4996902026407874e+01  4.4990355726362104e+01  4.4997277661529175e+01  4.5003515548521172e+01  4.5000373277877713e+01  4.5000766232992959e+01  4.5009447553153173e+01  4.5010599311112017e+01  4.4998399393399211e+01  4.5000724137975091e+01  4.4998859654890481e+01  4.4995231765912699e+01  4.4999536171801076e+01  4.5000532628186171e+01  4.4999529821970313e+01  4.5002279054671646e+01  4.4999188162371141e+01  4.4995730990447953e+01  4.5000250137048575e+01  4.4998984300233282e+01  4.4999485616564009e+01  4.4998040348363666e+01  4.5001451354037513e+01  4.5000172153593077e+01  4.4999778654167955e+01  4.4999795480970405e+01  4.4996316727595527e+01  4.5000750780250122e+01  4.5002913711962279e+01  4.4998479886373978e+01  4.5000500445988088e+01  4.5001110669801243e+01  4.4999868176088434e+01  4.4999440878064433e+01  4.5000437222485992e+01  4.4999895316626905e+01  4.5000000000000000e+01  4.5003177443369019e+01  4.4998775236426567e+01  4.4999963410386719e+01  4.5000188554303016e+01  4.4988411520743092e+01  4.4999903997819821e+01  4.4998971193647151e+01  4.5001671727603167e+01  4.5000841144284863e+01  4.4998422590649376e+01  4.5006632893038798e+01  4.4999319710258334e+01  4.5000590143729795e+01  4.4999493345675376e+01  4.4998882506198690e+01  4.5001664404615305e+01  4.5009787421585386e+01  4.4999583796598465e+01  4.4999366491051987e+01  4.5000160381355606e+01  4.4999890513955826e+01  4.5000283451310892e+01  4.5000671889875697e+01  4.4999807962338501e+01  4.5000440493963964e+01  4.5001039821345088e+01  4.4998377098984051e+01  4.5003110918883444e+01  4.5008894389334415e+01  4.5000000000000000e+01  4.5000000000000000e+01  4.5000000000000000e+01  4.5001250586323224e+01  4.4999547416919967e+01  4.5001664170827510e+01  4.4999409695973739e+01  4.4998934974146600e+01  4.5000549083408806e+01  4.4999925977428624e+01  4.5004607795317085e+01  4.5000281100287111e+01  4.4996545660712357e+01  4.5007266188359452e+01  4.5000843494300788e+01  4.4999386998593877e+01  4.4999750690671384e+01  4.5001310888836024e+01  4.4999904304521891e+01  4.5001253178114666e+01  4.5000000000000000e+01  4.5000000000000000e+01  4.5000000000000000e+01  4.5001518854180922e+01  4.5000000000000000e+01  4.5003018921115050e+01  4.5000000000000000e+01  4.5003649634895055e+01  4.5000000000000000e+01  4.5000000000000000e+01  4.5000000000000000e+01  4.4999805985936938e+01  4.5004114190676233e+01  4.4994586958258040e+01  4.4999814093678360e+01  4.5001728130338861e+01  4.5001036960488456e+01  4.4999079064647006e+01  4.4999524859610041e+01  4.4997836181577554e+01  4.4999162402944371e+01  4.4999566595775939e+01  4.4999875102485277e+01  4.4999231175015048e+01  4.4998338101604269e+01  4.5001514366820992e+01  4.5001802024338858e+01  4.4998525432542976e+01  4.5001356042158157e+01  4.5001405096886344e+01  4.4989713502140198e+01  4.4999430204605140e+01  4.5000462593632164e+01  4.4998055636999950e+01  4.4999792909227189e+01  4.5001216754680662e+01  4.4998697741091803e+01  4.4998258396178500e+01  4.4997993841904496e+01  4.5000000000000000e+01  4.5000000000000000e+01  4.5000000000000000e+01  4.5001380158835318e+01  4.5000754810059696e+01  4.4999324003468729e+01  4.4998680293136701e+01  4.4998534594913288e+01  4.5000694512268652e+01  4.5000237236969369e+01  4.4999070384939301e+01  4.5001086267315905e+01  4.5000347905261762e+01  4.5001532423363706e+01  4.4998124045748185e+01  4.5000918230552990e+01  4.5003291641556025e+01  4.5001077681119419e+01  4.5000073082968719e+01  4.5000154117155653e+01  4.4999903395946809e+01  4.5000708385730967e+01  4.4995946314462081e+01  4.5001387631157719e+01  4.4997679020164973e+01  4.4999675564324797e+01  4.4999814824716829e+01  4.5000500307343856e+01  4.5006172176573024e+01  4.4999580185957718e+01  4.5000740042928406e+01  4.5000040705251301e+01  4.5000028512430035e+01  4.4996926570011922e+01  4.4999029298949964e+01  4.4993473397966760e+01  4.5003713953292831e+01  4.4999700163044118e+01  4.4999868798394253e+01  4.5000452149565987e+01  4.5001525108566526e+01  4.4999234022912539e+01  4.5011811332931465e+01  4.4999383995603672e+01  4.5000233180507472e+01  4.5001561137759111e+01  4.5000173958713958e+01  4.5001874036767347e+01  4.4999735218983602e+01  4.5000099293527413e+01  4.5001416938522603e+01  4.5003095675869119e+01  4.5001196177220571e+01  4.4999403683147975e+01  4.5000460935249478e+01  4.4996454778436501e+01  4.5003170005608602e+01  4.5000341362461654e+01  4.4999500000715983e+01  4.4999679620585439e+01  4.5000215451696931e+01  4.5000238631478389e+01  4.5004220745007366e+01  4.5007266447092981e+01  4.4998229670944127e+01  4.4999463591605817e+01  4.5001967094346384e+01  4.4995343650879576e+01  4.4998000668857159e+01  4.4997912235148505e+01  4.4995586369731811e+01  4.5003701281067748e+01  4.5002187162090173e+01  4.5000911697603186e+01  4.4998593430586894e+01  4.4998064531077993e+01  4.5002294273597009e+01  4.5000901082562471e+01  4.4994436442513795e+01  4.4998140942299230e+01  4.5022558780801511e+01  4.5006250140221354e+01  4.5021103983011599e+01  4.5024186914824575e+01  4.499830658075134