<?xml version="1.0"?>
<VTKFile type="UnstructuredGrid"  version="0.1"  >
<UnstructuredGrid>
<Piece  NumberOfPoints="4807" NumberOfCells="19139">
<Points>
<DataArray  type="Float64"  NumberOfComponents="3"  format="ascii">26.00235939025879 37.30207061767578 23.99891090393066  26.1696605682373 36.67604064941406 23.37994956970215  24.99853459903706 37.34026454774614 22.86856027829746  25.96887273814035 37.74940358917609 22.91813603610789  25.87813949584961 39.89572906494141 23.42719078063965  26.39234924316406 39.39760971069336 24.1729793548584  26.77149963378906 39.89572906494141 23.11417961120605  26.2477071187516 39.04049613653211 23.28875584411561  26.45923042297363 38.08737945556641 23.65069961547852  26.54096031188965 37.42465972900391 23.22961044311523  23.93135070800781 35.89131164550781 23.07531929016113  24.81379671510081 36.04235436287938 23.99493629232714  24.2815638820345 36.82200368842646 23.56816402904094  24.61407434223722 36.30523826537929 22.69432316359283  25.33320714852981 38.71120110112518 23.58909061082602  24.79475021362305 31.63839912414551 24.13678932189941  24.78842926025391 31.6625804901123 23.3869800567627  25.52459907531738 31.12636947631836 23.93000030517578  25.22171082933398 32.10802001841286 23.66078630501335  25.90640663013887 32.86500214264544 23.84731991706083  25.23727708995441 32.13631273538662 24.60953199663298  24.69914911041053 33.16276311913659 24.29968474897687  25.98111915588379 35.72267913818359 24.32414054870605  26.05719947814941 35.95917129516602 23.58267021179199  25.51669186600563 35.23603804945733 23.61879393837657  26.09102058410645 38.11343002319336 24.42424964904785  23.84708976745605 35.11214828491211 23.58916091918945  23.99740028381348 34.57553863525391 23.24184036254883  24.01149940490723 35.10567092895508 22.862060546875  24.67304093597082 35.38316980594692 23.30720637464153  25.04451724975435 34.54129543375207 24.17684934972144  26.45182037353516 33.88687896728516 24.52520942687988  26.81912994384766 33.16836166381836 24.62692070007324  25.84597560813447 33.12680856783752 24.78663525278034  24.30232048034668 32.24694061279297 23.96475028991699  27.00455093383789 33.82923126220703 23.70158958435059  25.56289727895331 33.76099294446186 23.53690716493347  26.33370018005371 34.7199592590332 24.08304023742676  26.30974960327148 35.34973907470703 23.51194000244141  27.12937927246094 34.92319107055664 23.14712905883789  26.03122258825007 34.55667933806011 23.11451616438801  25.16596160732395 38.8659263979543 22.26810733400517  25.35143089294434 39.89572906494141 22.76412963867188  26.09160995483398 39.89572906494141 22.63958930969238  24.43395042419434 39.89572906494141 22.17880058288574  25.74511909484863 39.89572906494141 21.83357048034668  27.10436058044434 38.60752868652344 23.54145050048828  26.42876076919821 38.60642077610393 22.72192854744007  23.99077987670898 33.64598083496094 23.23887062072754  25.32798175621754 36.35412777710189 23.33089014257267  25.91118049621582 36.45977020263672 23.98921966552734  27.28319931030273 32.75743865966797 23.95899963378906  26.23453873958898 32.00345737788836 24.37895307864792  23.8533992767334 36.92370986938477 22.98771095275879  27.23444938659668 37.99057006835938 23.17503929138184  23.7086296081543 34.24514007568359 24.05828094482422  27.19101905822754 39.18193817138672 23.63101959228516  26.57205009460449 38.76208877563477 24.05668067932129  31.26596069335938 26.93288040161133 37.90113830566406  31.27630996704102 26.21808052062988 38.72238159179688  31.93810081481934 26.2933292388916 37.86394119262695  31.00739731356663 25.52776696434348 38.28871803267366  31.02958163002496 26.06161206880253 36.88469122607431  20.77481079101562 15.1232795715332 37.16899871826172  20.77563095092773 14.63012981414795 36.34893035888672  20.96418952941895 14.31672954559326 37.27450180053711  21.52877019943248 14.4999267313602 36.57276311120761  21.09827041625977 14.85169982910156 37.92855834960938  21.30400085449219 14.14260005950928 35.78533172607422  21.04700088500977 13.98114967346191 36.57981872558594  31.61745071411133 26.69911003112793 37.02101135253906  24.1805305480957 33.10403060913086 31.40691947937012  24.62417984008789 32.21992874145508 30.89274978637695  23.65111516659351 33.00036059922646 30.19650565994206  23.29684940580348 32.03880840657664 31.19202063549403  17.55693355860406 26.05910250479342 37.29993235865359  17.95992602331125 27.39468892653674 37.02409534569711  19.12274346035662 25.78523458263155 37.48924588683091  18.94267829131832 26.51088337050286 35.91344019987373  25.16315078735352 30.49622917175293 36.68424987792969  25.37401962280273 29.74086952209473 36.82929992675781  25.74884986877441 30.66513061523438 37.26541137695312  25.62509945650099 30.0783948218949 36.03052666330976  21.8010651694571 37.18613362373468 29.03427286212382  23.66309951991002 37.55972881432952 28.79998990031553  23.18651897942468 35.91797202856242 29.82352594463852  23.05051402047161 36.14147452211896 28.01301550002965  20.85755920410156 31.2291202545166 27.01577949523926  21.0169792175293 32.11265182495117 27.0190601348877  21.82953071594238 31.82776069641113 26.99846076965332  20.6947046925945 31.54533495889583 27.8194461798149  26.31578063964844 20.22166061401367 25.7653694152832  26.83602905273438 19.94013023376465 26.39352989196777  26.38101959228516 19.26736068725586 25.94541931152344  25.50556477876305 19.73876991787187 26.64029755868754  20.3646297454834 29.41546058654785 36.3160514831543  19.64200526690917 28.95742389238147 36.44174933835306  20.01637396612465 29.96269456608093 35.33585737525393  19.38423168353742 30.22112701403402 36.07878872933914  26.56778907775879 28.11483955383301 31.504150390625  27.05536079406738 27.5013599395752 31.70583915710449  26.35972132125508 27.0113475837152 30.9406377410691  25.75052237529727 27.67669242631254 31.13787314631691  31.53544044494629 31.99403953552246 36.05831146240234  32.16336059570312 31.27301025390625 36.31119155883789  32.20977020263672 32.47356033325195 36.51670074462891  32.6685791015625 31.90727996826172 36.38888168334961  18.93540954589844 26.75423049926758 30.36422920227051  19.56262016296387 26.66131019592285 30.48493957519531  19.12948036193848 26.00860977172852 29.73154067993164  19.03023378604545 26.87284410524174 29.61528028995385  29.17655944824219 27.23356056213379 33.71850967407227  29.0504207611084 26.53302001953125 33.53047943115234  28.43837001310416 27.2775126714665 33.92865151458757  28.93357311570495 26.68516650769414 34.24204954931464  26.94993019104004 33.22652053833008 37.66476058959961  27.27416038513184 32.49850845336914 37.94029998779297  27.49921534445176 33.51692304291213 37.18881462350147  26.59507535555418 32.89995277897684 36.83903586280976  27.36519050598145 27.22282981872559 39.25796890258789  27.23146057128906 26.22598075866699 39.32600021362305  28.05776977539062 26.53463935852051 39.89208984375  27.96105083585012 26.47899713946307 38.73555299015274  25.17153902069803 21.37187163051845 31.75863278938518  23.6962127204534 22.39323790604518 32.91993982650639  25.22215903288461 23.279768923619 31.89096764127279  23.82684091539933 23.31767721300477 31.56443624665931  25.30589387869204 30.44203580374674 34.77869003927009  25.92009730430738 31.55765084527573 34.00518718381603  25.98551539701602 30.38632709922596 33.74563944779613  26.79094092892896 31.01517719220019 35.08989083161331  24.08733234525855 28.11174577457565 32.15123212058749  24.35688903084363 30.07969926470127 32.44322332169924  24.11053153965659 29.31929201706184 33.28445515380274  23.22133075391989 29.77349662272414 31.97177311997158  13.00804042816162 31.26049041748047 31.82843017578125  13.68900966644287 30.93679046630859 31.40644073486328  13.79193348024008 30.98411229337798 32.67922743374642  12.99602042634161 30.22571293579004 32.28677705478716  20.26705932617188 39.31787872314453 31.79626083374023  20.37162971496582 39.89572906494141 30.88445091247559  20.87800322035305 38.79101211507489 30.83838374607323  20.12434620241509 38.47179813791236 31.2854590277715  22.27211952209473 33.25748062133789 26.4819393157959  22.84893869210471 34.60953218207978 27.08051086268512  21.87319291765421 33.45080806845724 28.0204939665865  22.58935718788231 32.7886744445513 27.46380716738769  23.97229430303965 32.59839738282906 34.51761277538555  24.74879330617496 31.79511314324033 35.2532214859651  23.84602375599041 31.60897442966638 35.21518007166632  24.43900244207648 31.37551103708321 34.05621590515304  20.57951927185059 24.54969024658203 33.47724914550781  20.71904945373535 23.71413040161133 33.77555084228516  21.09461975097656 24.17522048950195 33.1790885925293  21.25793595207587 24.57482678084055 34.61645675853573  22.01299095153809 21.58542060852051 31.81809997558594  21.85935974121094 20.58353042602539 31.30738067626953  22.84229579418835 20.75212503804452 31.95796376315214  22.65211003370362 21.36536827349246 31.1467331309841  21.3243408203125 25.55063056945801 28.92555046081543  21.21665954589844 24.76950073242188 29.058349609375  21.84885599115167 24.6184200986451 29.52203934694138  22.23673215140062 24.76724918418421 28.61215640749263  20.07486915588379 28.99049949645996 27.51592063903809  20.50620079040527 29.28961944580078 27.64720916748047  20.16357677526957 28.61068887158304 28.65219255873915  19.9452645117374 29.439426628755 28.07304792873568  20.08691024780273 29.44869995117188 37.04869842529297  20.09346961975098 28.98567008972168 37.75082015991211  19.04597582887575 28.41834250288697 37.23238865058278  19.2306452531517 29.17208445719066 37.94101106906955  31.0823802947998 27.65830039978027 37.13880920410156  31.20808982849121 27.12903022766113 36.30743026733398  30.15827420682906 27.62523362939358 36.17530164103908  30.29615157255659 27.08005695391246 37.23011456105014  29.60693938088576 26.6678370650787 35.21590610005333  30.72495691982614 26.05441128401527 35.33796814570687  30.00787414678714 25.28412786258583 34.80162349666818  29.53570602148671 25.61048635537219 36.2413435
[...]
<PointData  Scalars="p_O2"> 
<DataArray  type="Float64"  Name="p_O2"  format="ascii">9.9996107233736325e+01  9.9991418039894441e+01  1.0000862920354838e+02  9.9985891609948922e+01  9.9981188791398452e+01  1.0000397067587255e+02  1.0000934048847421e+02  1.0006231182935599e+02  9.9997404852237977e+01  9.9992321095802893e+01  9.9987820565029381e+01  9.9982826635348417e+01  1.0000631285270657e+02  1.0003499990638559e+02  1.0002349913777599e+02  9.9996008630828200e+01  9.9989975021606057e+01  1.0003597594981574e+02  9.9983540512870306e+01  9.9994331586531601e+01  9.9997202672223253e+01  9.9996743708022166e+01  1.0002975028132666e+02  1.0002971396398702e+02  9.9997380296589597e+01  9.9984876444698870e+01  1.0000968389741249e+02  1.0000799120344318e+02  1.0000535997646959e+02  9.9985308191848560e+01  9.9999433057741157e+01  9.9987985322945221e+01  9.9997225802645488e+01  1.0000381484885675e+02  1.0000597279710368e+02  1.0001715719448140e+02  9.9990825248461832e+01  1.0000640627739884e+02  1.0000933039300226e+02  9.9988929910826997e+01  1.0001149422255479e+02  9.9979147415129717e+01  9.9984890259631499e+01  1.0002053287752445e+02  9.9993131469272782e+01  1.0000593613529016e+02  9.9998197886833353e+01  1.0001675726505263e+02  9.9998209066427506e+01  1.0000014505808883e+02  1.0000415360462661e+02  1.0003523249484364e+02  9.9929822606318766e+01  9.9995382652760810e+01  9.9991051657486366e+01  1.0000751487967236e+02  1.0000275073638659e+02  9.9978379679683002e+01  1.0006328693016597e+02  1.0010240926082439e+02  9.9958550175837146e+01  1.0000612408714476e+02  9.9953109237718905e+01  9.9989895664899194e+01  9.9980007984724438e+01  9.9996026523865922e+01  1.0000209243742277e+02  1.0001034418016950e+02  9.9999440961062049e+01  1.0001264164319520e+02  1.0020393509101822e+02  1.0001998741837822e+02  9.9987484900334508e+01  9.9981671548694038e+01  1.0000534338244957e+02  9.9999585745975409e+01  1.0000522608011040e+02  9.9999394975625890e+01  1.0000110785883784e+02  9.9991509200331052e+01  1.0000579347704611e+02  9.9996279312614234e+01  1.0001607784544260e+02  1.0000986778653441e+02  9.9999138369161145e+01  1.0000105286869520e+02  9.9997549826668774e+01  1.0000127928266231e+02  1.0000820852107498e+02  1.0000482411713793e+02  1.0000102291945127e+02  9.9998343250339673e+01  9.9989958963735717e+01  1.0001790710579306e+02  9.9993045378515077e+01  1.0000119199070868e+02  1.0000135592567142e+02  9.9997750467675743e+01  9.9998793733374612e+01  1.0001963443028407e+02  1.0001036304108041e+02  9.9976118620566709e+01  9.9984679816774246e+01  1.0001637977487115e+02  1.0000878555255814e+02  9.9985162407101370e+01  9.9996117206196843e+01  1.0000083252583266e+02  1.0001908572239167e+02  1.0002250566250019e+02  9.9991914767734386e+01  9.9997444142914901e+01  9.9994461299444723e+01  9.9996732949935009e+01  9.9991714077492276e+01  9.9998761023838867e+01  1.0000779236427232e+02  9.9992071944187842e+01  9.9998062168722129e+01  1.0001056296330422e+02  1.0000489770637571e+02  1.0000219372170484e+02  9.9998477360500672e+01  9.9999651149297847e+01  1.0000448889662918e+02  9.9985371154736328e+01  1.0000561389772899e+02  1.0000533246789037e+02  1.0000816973060651e+02  1.0002213620708899e+02  1.0000513586633882e+02  9.9984639994897719e+01  9.9952269056592897e+01  1.0002964273072901e+02  1.0000413777331195e+02  1.0000739820338998e+02  9.9979533356678203e+01  1.0001634940423416e+02  1.0002788115065894e+02  1.0001587840415741e+02  9.9993313960350392e+01  1.0002750313773106e+02  1.0000150725226310e+02  9.9995068934282529e+01  1.0000413580140152e+02  9.9994857044988791e+01  1.0000316160403428e+02  1.0001014200330489e+02  9.9989921750691153e+01  9.9994489674121652e+01  1.0000450274955485e+02  1.0000100771580848e+02  9.9997304426494296e+01  9.9990285821096620e+01  1.0000438487886562e+02  9.9999868102932396e+01  9.9990025551692753e+01  9.9997577710031209e+01  9.9999532035473123e+01  9.9940851355230080e+01  9.9941549564722777e+01  1.0002991727629237e+02  1.0002823512354632e+02  1.0003636274003077e+02  9.9986325665832098e+01  1.0000535701915280e+02  9.9994128905219711e+01  9.9997985709115895e+01  1.0000284509449915e+02  1.0000143944177717e+02  9.9992779724115735e+01  9.9982339860657078e+01  1.0003085809847872e+02  9.9997572907774753e+01  9.9940133179581338e+01  1.0000042474108137e+02  9.9934569964759319e+01  1.0000389607380922e+02  9.9990375086312170e+01  1.0000074998589947e+02  1.0000170532742406e+02  9.9997999583304221e+01  9.9991873466833482e+01  9.9999128036692454e+01  1.0000327537402525e+02  1.0000300585932153e+02  9.9997689034998444e+01  1.0000011365782242e+02  1.0000308162357960e+02  9.9998394240104659e+01  1.0000253207727313e+02  9.9993518137397771e+01  9.9990388293384271e+01  9.9999913287032228e+01  9.9985744158098129e+01  9.9993261582513369e+01  1.0000099165702503e+02  1.0002012421056756e+02  9.9986137169001040e+01  1.0001699131878104e+02  9.9978093673096382e+01  1.0000978760943276e+02  1.0000114691960211e+02  9.9999266303366383e+01  1.0000005843983668e+02  1.0000784868848893e+02  1.0001590483795910e+02  9.9999919738099649e+01  9.9987638222587904e+01  9.9997412758532960e+01  9.9997685470837226e+01  1.0002159409541969e+02  9.9974867644661146e+01  9.9996133454242269e+01  1.0000732639938268e+02  1.0000668509841290e+02  9.9998460049257247e+01  9.9991884174692544e+01  1.0000448358505683e+02  1.0000777485519741e+02  9.9963420956607550e+01  1.0003640754408296e+02  1.0000704088273021e+02  1.0000872963633857e+02  9.9976756166798694e+01  1.0002682082862817e+02  1.0000873950784712e+02  9.9987821109273042e+01  9.9992843698237195e+01  1.0000489014529124e+02  1.0000483303235549e+02  1.0000644301762553e+02  9.9974253706798791e+01  1.0001869754820065e+02  1.0000486513696467e+02  9.9979129781206836e+01  9.9998507176267466e+01  9.9993418598823325e+01  1.0000338142551915e+02  1.0000113060673841e+02  9.9994435372425315e+01  9.9998542921912062e+01  1.0001471703774504e+02  9.9991251621513598e+01  9.9996439082595316e+01  1.0000323708498937e+02  9.9992520399154131e+01  1.0000284094047485e+02  1.0000060245556691e+02  9.9995068469504375e+01  1.0000927309490866e+02  9.9994157613669572e+01  1.0000070476689143e+02  1.0000197017875189e+02  1.0001159737067809e+02  1.0000649523055874e+02  1.0003286369457990e+02  1.0001743605424576e+02  9.9988072310403794e+01  9.9969321578819319e+01  1.0000616753326715e+02  9.9992834523369936e+01  9.9996621191033384e+01  1.0000428416783591e+02  9.9998221971844259e+01  9.9994904217795082e+01  9.9994249162800529e+01  1.0000532611000216e+02  1.0000342478233787e+02  1.0000837569744050e+02  9.9995106877534624e+01  9.9998314571412692e+01  9.9999839720056968e+01  9.9996247861446236e+01  9.9988554551297497e+01  9.9992073443422640e+01  9.9985351098897937e+01  9.9973735011953465e+01  9.9991136577470158e+01  9.9985416346116182e+01  9.9993904851398412e+01  9.9994157454290757e+01  1.0001331720585485e+02  9.9994192551582543e+01  9.9991921456644533e+01  1.0000462389652233e+02  1.0000132340405200e+02  9.9999874242901896e+01  1.0000425286417226e+02  1.0000982033160092e+02  1.0001791711218358e+02  9.9989487351579868e+01  1.0000276801160744e+02  9.9987999693429686e+01  1.0000371452382072e+02  1.0000064170972102e+02  1.0000063043030639e+02  9.9984770893312202e+01  9.9981782636636268e+01  1.0001175627931057e+02  1.0000241695709111e+02  9.9994861599313950e+01  9.9999932655429788e+01  9.9991249774820133e+01  1.0000236110025234e+02  1.0000166938277957e+02  9.9997526062230591e+01  1.0000112849397037e+02  1.0000241840925069e+02  1.0001618668872413e+02  1.0000292801920315e+02  1.0000966536409007e+02  1.0000486643872463e+02  9.9999539852629979e+01  9.9995458942506062e+01  9.9998197607783538e+01  9.9995592836702897e+01  9.9985191393869997e+01  1.0000836614573959e+02  1.0001146409410808e+02  9.9996944899385923e+01  1.0000559965615814e+02  9.9994269730381902e+01  9.9996489889679097e+01  9.9985777453998523e+01  9.9990686952303363e+01  1.0006340033426440e+02  1.0001078956299536e+02  1.0003678324239151e+02  9.9937108358996554e+01  9.9990582009627673e+01  1.0000432671054425e+02  9.9999059514947547e+01  9.9994274564544440e+01  1.0000278429066002e+02  1.0000333282688112e+02  1.0000112713873514e+02  9.9999214542583204e+01  9.9998993041490380e+01  9.9993756811368357e+01  1.0000995263268294e+02  9.9991067891823988e+01  9.9997134645454096e+01  9.9997652745302830e+01  9.9983032578328007e+01  9.9985520967459081e+01  9.9993825229226729e+01  9.9995082627082041e+01  1.0000222815788173e+02  1.0000340422353963e+02  9.9990418882230102e+01  1.0001106210695454e+02  9.9999821003451032e+01  9.9998686020300553e+01  1.0000774120975339e+02  1.0000060655475309e+02  9.9999309370478201e+01  1.0001295872979951e+02  1.0000793720236601e+02  1.0000941802376737e+02  9.9989942939542800e+01  1.0000121475540828e+02  1.0000693901765499e+02  1.0000197378309204e+02  1.0000352851476548e+02  1.0000404158440912e+02  1.0001115429636425e+02  1.0000045337678498e+02  9.9963484572794059e+01  9.9998838882253466e+01  1.0000372096210803e+02  1.0000342798119253e+02  1.0000234466961261e+02  1.0000058453526525e+02  9.9994423544152738e+01  1.0000116525862229e+02  1.0000310733414740e+02  1.0000263144565645e+02  9.9999701988452159e+01  1.0000022126953468e+02  1.0000277637059089e+02  1.0000677982746180e+02  9.9994499999017222e+01  9.9990434793651460e+01  1.0000264914919227e+02  9.9999448728302966e+01  1.0000322305155926e+02  9.9999020506083042e+01  9.9995973078906260e+01  1.0000077073097864e+02  1.0003543764335953e+02  9.9975378410293359e+01  1.0000086209391232e+02  9.9996531047996314e+01  1.0000286062086825e+02  9.9986143682859478e+01  1.0000057691965422e+02  1.0000335444612020e+02  1.0001804041049805e+02  1.0001838827548842e+02  9.9989758123433447e+01  1.0000089010977044e+02  9.9996853736022274e+01  1.0000342120354388e+02  1.0000279114797597e+02  1.0000144532225362e+02  1.0000239790557207e+02  9.9984479111023106e+01  9.9995285554003232e+01  1.0000128895783469e+02  9.9982940973165540e+01  1.0000687793277469e+02  1.0000932062258737e+02  1.0001088095440497e+02  1.0000807490485494e+02  9.9998616521839708e+01  1.0000635179815399e+02  1.0000584256799632e+02  9.9999439098300201e+01  9.9991828059377426e+01  1.0000213949350001e+02  1.0000627258092349e+02  1.0001577519945167e+02  1.0001277445026459e+02  9.9990144326167922e+01  9.9997548133710040e+01  1.0003447243068618e+02  1.0000682871292744e+02  9.9996008649981690e+01  1.0004397906731695e+02  9.9990333695233346e+01  1.0003561474539828e+02  9.9958534803740562e+01  1.0002178048831767e+02  1.0004209777351163e+02  1.0003541303251663e+02  1.0001601492460529e+02  9.9978873019269074e+01  1.0001171320285837e+02  1.0001266651746127e+02  9.9999184929893531e+01  9.9999285555591285e+01  9.9994707696482152e+01  1.0000680974233676e+02  9.9986444887404119e+01  1.0000009704273216e+02  1.0000872251823718e+02  1.0000380294506816e+02  1.0000759834921767e+02  9.9984441139351262e+01  9.9951960010405813e+01  1.0000352787267222e+02  1.0000288668736368e+02  9.9999161997462906e+01  1.0000768020329785e+02  9.9997794022595727e+01  1.0000237134781798e+02  9.9985759798595296e+01  9.9986587067563462e+01  9.9988147897304401e+01  1.0000595601589420e+02  1.0001227274759569e+02  9.9992778419959990e+01  9.9978134266410478e+01  1.0000339282649851e+02  9.9998455531735900e+01  9.9996315260240678e+01  9.9999962660803789e+01  9.9997515061387105e+01  9.9994103320254794e+01  1.0000168393573159e+02  9.9997314306099156e+01  9.9993076671120818e+01  9.9997639252843712e+01  1.0000039891334242e+02  9.9994796165748994e+01  9.9997563349873602e+01  9.9970613010798715e+01  9.9991760377894764e+01  9.9994327112186795e+01  9.9931778974779874e+01  1.0002233225339502e+02  1.0000202708263738e+02  9.9995808904195599e+01  1.0000573895205909e+02  1.0000320773613477e+02  9.9998620162106334e+01  9.9999999638869326e+01  1.0000312027110591e+02  1.0000533573884823e+02  1.0000113924362202e+02  9.9997125497675725e+01  9.9997082536954068e+01  9.9998127970434851e+01  1.0002765212401924e+02  9.9994004646471453e+01  1.0000166556502856e+02  1.0000105439608437e+02  1.0000011356675280e+02  9.9998769743873765e+01  9.9997174664116457e+01  1.0001702780030534e+02  9.9982331724762332e+01  1.0000947461958069e+02  9.9994387841717369e+01  9.9991253209949079e+01  1.0003305580536187e+02  1.0000368295038950e+02  9.9997250822576646e+01  9.9991305571771818e+01  9.9993813019722140e+01  1.0001891084681419e+02  1.0000159376095019e+02  1.0000233578455158e+02  9.9997890042505716e+01  9.9996267212471977e+01  9.9994602294571010e+01  9.9968858256635230e+01  1.0001632304281954e+02  9.9983253055609268e+01  1.0009609358171183e+02  9.9863259528889841e+01  1.0000289580265228e+02  1.0001274204658877e+02  1.0001991059733832e+02  1.0000074881831875e+02  1.0003666823798126e+02  1.0000634934952291e+02  9.9974510363999499e+01  9.9984620037165897e+01  1.0000049565720491e+02  9.9985240952260455e+01  9.9994835554599945e+01  9.9999261244422470e+01  9.9996645987513986e+01  1.0000337760983020e+02  9.9994480719502860e+01  1.0000522749244352e+02  1.0000460572395060e+02  1.0001026924653010e+02  1.0000983778682044e+02  9.9996200114216819e+01  9.9996552099259063e+01  9.9998578853960623e+01  1.0000157874889811e+02  9.9999555608314608e+01  9.9999526242307894e+01  9.9985633309657430e+01  9.9995103969908058e+01  1.0000397826927347e+02  9.9981180738642735e+01  9.9991337706207688e+01  9.9975614291252654e+01  1.0001216561966829e+02  9.9998937929693284e+01  1.0000470506557194e+02  1.0001182584039199e+02  9.9996449547890649e+01  1.0000064633746040e+02  1.0002539425502269e+02  9.9999522514676272e+01  1.0001067717390214e+02  9.9993314306976771e+01  9.9999716332602006e+01  1.0000236095286584e+02  9.9997819886690621e+01  1.0001785773289622e+02  9.9996600632623199e+01  1.0004856591994398e+02  1.0000524467065843e+02  9.9992525395050208e+01  1.0000397904229676e+02  9.9993163005436855e+01  1.0000024183883085e+02  9.9989856614082129e+01  9.9998956757258924e+01  9.9991182844293888e+01  1.0000076370515411e+02  9.9998330363302117e+01  9.9995404940485514e+01  9.9998883927345489e+01  9.9999613311363760e+01  9.9998591207622695e+01  9.9986788765214882e+01  1.0002860084993031e+02  9.9993332700949878e+01  1.0001258561009824e+02  1.0000433201222373e+02  9.9986495227323402e+01  9.9991894499319585e+01  9.9983925926502465e+01  1.0000898681638175e+02  1.0000097824702593e+02  9.9992820177134433e+01  9.9991317415511148e+01  1.0000619999975335e+02  1.0003634206402687e+02  1.0002457367568327e+02  1.0000103730136468e+02  1.0000040955421920e+02  9.9997199228423938e+01  1.0001624751115067e+02  9.9994609910742227e+01  1.0000209257903315e+02  1.0001177337223262e+02  9.9997458174905290e+01  9.9982971580361777e+01  1.0000340479832040e+02  1.0000054885442684e+02  9.9997128674639711e+01  1.0000525589928303e+02  1.0000940463925679e+02  1.0000303702567116e+02  1.0000515274666154e+02  1.0001654807680357e+02  1.0000463854798404e+02  9.9995331791769615e+01  1.0000096319148132e+02  1.0000142110095116e+02  9.9989361256199643e+01  9.9993534394806943e+01  9.9986760504423017e+01  9.9998617091329152e+01  9.9976222756340405e+01  9.9997979070310905e+01  9.9991044984246514e+01  1.0000207122334112e+02  1.0000075395985404e+02  9.9904556757443842e+01  1.0002915543969945e+02  1.0000198146272527e+02  1.0000094464167761e+02  1.0000187468278337e+02  1.0000187650800333e+02  9.9978430421403061e+01  9.9996175347015836e+01  9.9920385754402020e+01  9.9996123811946831e+01  1.0000005535464032e+02  9.9998327063570599e+01  1.0000176778131853e+02  1.0000616462556714e+02  9.9966062119736861e+01  1.0002725518824016e+02  9.9986306119062249e+01  9.9990456911723143e+01  1.0000797094872694e+02  1.0000301758568175e+02  1.0002015405174338e+02  9.9990033559799400e+01  1.0000250534432286e+02  1.0000383045857343e+02  1.0000658720772849e+02  1.0000382500398615e+02  1.0000090794997531e+02  1.0000656977604203e+02  1.0000119112692786e+02  1.0000928157292365e+02  9.9994436706177012e+01  1.0001388110340477e+02  1.0005540972373959e+02  9.9985960509652784e+01  9.9998586081402692e+01  9.9978147900551335e+01  1.0000202435633047e+02  1.0001012109639190e+02  1.0000260228659752e+02  9.9984824277764346e+01  1.0006036994943564e+02  9.9983140262874571e+01  9.9982496351984068e+01  9.9997077003207224e+01  1.0000050413325084e+02  9.9996234410806906e+01  9.9999469588960864e+01  1.0000110909583432e+02  1.0001372933262257e+02  1.0001629092689640e+02  9.9990502192972357e+01  9.9997659096496506e+01  9.9998340587659058e+01  1.0000705155677990e+02  9.9990992163155624e+01  1.0000316116762356e+02  1.0000725305853396e+02  1.0002798699100993e+02  1.0000549235085182e+02  9.9992285125561580e+01  1.0000482690734614e+02  9.9997815621606662e+01  1.0000400262439761e+02  9.9991978910570595e+01  1.0001272796987297e+02  1.0000650163389533e+02  1.0000129457857754e+02  1.0000971856186192e+02  9.9990171566569614e+01  9.9982470105076459e+01  1.0000164171888350e+02  1.0000067939280599e+02  1.0001255936129434e+02  1.0000035683033137e+02  9.9996255030269836e+01  9.9997322315311379e+01  9.9992858701938232e+01  1.0001301183613968e+02  9.9996142204332855e+01  9.9978302768584811e+01  9.9982872918477270e+01  9.9990190743886060e+01  1.0000524048768933e+02  1.0000398906834900e+02  1.0000159017427885e+02  9.9996117676471783e+01  1.0001539666879704e+02  1.0001582072580329e+02  9.9987007817758283e+01  9.9990701326117900e+01  1.0000295078476172e+02  1.0000721828619992e+02  1.0000244209583117e+02  1.0001030494360764e+02  9.9995871514898440e+01  1.0000598778559440e+02  9.9991376274163727e+01  1.0000761921328899e+02  1.0000136274999339e+02  1.0000180690202058e+02  9.9997283254890576e+01  1.0000363654900048e+02  1.0001014237121151e+02  9.9994961920951141e+01  1.0001078933489654e+02  1.0000875135504292e+02  9.9975835066262391e+01  9.9993717985223185e+01  9.9989888854214257e+01  9.9990103349140995e+01  9.9989961438869855e+01  9.9996847276118046e+01  1.0000216495011131e+02  1.0000444580751852e+02  9.9994620266124144e+01  1.0001187293261169e+02  9.9999133165460719e+01  9.9978003701779784e+01  9.9992649689065885e+01  9.9994239654622504e+01  1.0000809030515902e+02  9.9999943703650800e+01  1.0001871693288930e+02  1.0001530088379766e+02  1.0000664211292067e+02  1.0000548099426985e+02  9.9997595821667986e+01  9.9983704965032771e+01  1.0000848161905768e+02  1.0000785871045555e+02  9.9998011515275607e+01  1.0000396523248126e+02  9.9995862094935092e+01  9.9998335455431445e+01  1.0003856516482566e+02  1.0001125123460551e+02  9.9964430729421792e+01  9.9971675375321979e+01  1.0000997004488877e+02  1.0000496422688794e+02  1.0000131007978213e+02  9.9998906816874410e+01  9.9998507160441619e+01  9.9998935322201433e+01  1.0000308515489544e+02  1.0000145140710441e+02  9.9997202463596921e+01  9.9992122548957170e+01  9.9995599591984529e+01  1.0000133086747537e+02  1.0000744525613288e+02  9.9994242220119347e+01  1.0001002061783576e+02  1.0000020393489676e+02  9.9995853025033838e+01  1.0001298767739600e+02  9.9995001458439674e+01  9.9998612806755261e+01  9.9998412712828966e+01  9.9997282881212129e+01  9.9997353661553760e+01  1.0000082231198351e+02  9.9995679113718623e+01  9.9999104750009039e+01  1.0001226887885109e+02  1.0000881738895836e+02  1.0001056241096268e+02  1.0000123223439351e+02  9.9998679300158102e+01  1.0000147765323409e+02  9.9993532608521932e+01  1.0000242360806459e+02  1.0001566713954163e+02  9.9995871730354850e+01  1.0000324534651043e+02  1.0000541434181193e+02  9.9991138626492884e+01  1.0001263855571153e+02  9.9994738354607279e+01  1.0000917157448875e+02  1.0001438254493635e+02  1.0001121877447989e+02  1.0002671084965040e+02  9.9990024556352978e+01  9.9989695754218715e+01  1.0000562737148026e+02  1.0000574682819574e+02  9.9989900914167734e+01  9.9992850955753767e+01  9.9991228020841334e+01  9.9999178079971642e+01  9.9989180454865220e+01  1.0000347167463239e+02  1.0001894730071272e+02  9.9897795900584228e+01  9.9989229486713000e+01  1.0002195100044288e+02  1.0000501594785798e+02  1.0000270094622670e+02  9.9990171746241970e+01  9.9996913067072640e+01  9.9995691435291491e