<?xml version="1.0"?>
<VTKFile type="UnstructuredGrid"  version="0.1"  >
<UnstructuredGrid>
<Piece  NumberOfPoints="4917" NumberOfCells="19492">
<Points>
<DataArray  type="Float64"  NumberOfComponents="3"  format="ascii">37.9563102722168 24.45449066162109 10.94330024719238  38.35604095458984 23.67276000976562 10.98674964904785  38.51703615627169 23.94887147026637 9.529690675837218  37.90902115676003 23.12924412830383 10.00537454279683  36.87910842895508 19.12055969238281 11.82126045227051  36.98875045776367 18.90876960754395 10.9988899230957  35.66356662027621 18.19719150150942 11.5413619798609  35.98605927425967 19.66922533738691 11.71813709241398  37.07347106933594 23.64686965942383 11.49678039550781  37.48654937744141 23.86907958984375 11.11993026733398  37.55401992797852 23.14488983154297 11.02145004272461  36.64344504871455 23.08790903695323 10.33296201299704  37.00043869018555 20.78809928894043 11.477219581604  37.1644401550293 20.79659080505371 10.48692035675049  35.59493840374099 21.13602209027348 10.65740029266089  36.45341751724281 21.16267296149732 10.05390459589012  39.89416122436523 21.43390083312988 8.91900634765625  39.89416122436523 21.64359092712402 8.082807540893555  39.89416122436523 20.67276954650879 8.015657424926758  39.12446370592726 21.80703893171986 8.496649566815105  37.83536911010742 21.51054954528809 10.11802959442139  37.86577987670898 20.41926956176758 10.07503986358643  37.22016384877366 21.53544683639867 9.761912402948132  39.27061080932617 21.59017944335938 10.47558975219727  39.18778991699219 20.70813941955566 10.36246967315674  39.89416122436523 20.99776077270508 10.14140033721924  39.26706099559232 21.40548619113271 9.580025911659156  39.01574981463563 22.83704318268216 9.624737670738405  38.19477943828035 21.84694523960158 9.325505687217625  39.16571574857417 23.07281145453378 8.375523705620457  39.89416122436523 23.32547950744629 8.607916831970215  38.36016845703125 24.02113914489746 6.844755172729492  38.11426162719727 23.17811012268066 6.567914009094238  38.86901092529297 23.45517921447754 6.49235200881958  39.08100896955899 23.74226970752433 7.265524458059358  37.38357925415039 23.73837089538574 6.882932186126709  38.14941045972246 23.13151187021052 8.148568165199061  37.29478701187464 22.65524547740413 7.327972612912469  37.15135869560406 23.89062762350329 8.318102618746002  38.13936266771233 21.56964954956178 7.640231952223557  37.28134189538468 22.2634322468019 8.631120751944165  36.98580169677734 19.84662055969238 11.18418979644775  36.09656720072625 19.55506888799986 10.37007011849588  37.01247122467058 20.95248519825295 8.933006848505521  36.16138604873965 21.97694424695051 9.383047612830731  35.85920442571172 21.21889910589877 8.689403147470985  36.95211029052734 20.00727081298828 12.12864971160889  35.88495773162769 23.0291569852467 8.322548653644978  36.43395418603998 23.61760192635358 7.264289937056057  37.55107116699219 22.23357963562012 10.58438014984131  36.71140999017412 22.13147417929489 10.53608446932854  37.25151824951172 21.55234909057617 10.36050987243652  38.98678284009119 23.7603995580178 10.31130856530323  33.57369995117188 19.44718933105469 9.773227691650391  34.04116821289062 19.33427047729492 9.080188751220703  34.74067797813256 18.97623647280767 10.2585980605128  34.82163527702297 20.07211275242491 9.647763516017939  39.89416122436523 23.08750915527344 7.253117084503174  39.89416122436523 22.3458309173584 6.518318176269531  39.89416122436523 22.90982055664062 6.536033153533936  38.97623182327121 22.60118306405835 7.229315810219228  39.27981185913086 23.58613014221191 10.80130004882812  39.89416122436523 24.17546081542969 10.42133045196533  39.51565854264082 23.4324178482504 10.43248316975938  36.91433114606399 23.04986061793003 9.031707289296049  39.89416122436523 20.08828926086426 9.785286903381348  39.89416122436523 20.90839004516602 9.475723266601562  38.80428610592249 20.21553557751822 8.86114556224555  38.98297119140625 23.23703956604004 10.87409019470215  38.82681916468174 23.62861112632823 10.89223960286158  38.8913700203281 23.30812999348364 10.47725718989066  38.64115905761719 21.04928970336914 10.2462797164917  39.89416122436523 23.94548988342285 9.55731201171875  39.89416122436523 24.46122932434082 8.812515258789062  37.32479262207104 22.2296866695527 9.807650666581841  37.15845787752341 24.22537626665227 10.04390807712972  39.89416122436523 24.18450927734375 7.768991947174072  38.12968063354492 22.24398994445801 10.2499303817749  38.40391159057617 22.82642936706543 10.62668037414551  34.52486038208008 21.0965404510498 9.504610061645508  35.85188611306347 20.54098375270084 9.39177510111654  38.87236022949219 24.75435066223145 6.660829067230225  39.20029830932617 24.15913009643555 6.486288070678711  39.2667673606292 24.96483259851268 7.129117766220235  38.91461181640625 22.73250007629395 6.15448522567749  37.21918869018555 19.70310974121094 10.36935997009277  39.89416122436523 22.43004989624023 8.029458045959473  39.32087375084544 21.63906764723579 7.449395871070523  39.89416122436523 20.37813949584961 8.860679626464844  38.89065933227539 24.3741397857666 10.88687038421631  39.08523559570312 23.98013496398926 10.84408521652222  39.33205032348633 22.63949012756348 10.46518039703369  39.89416122436523 23.18572998046875 9.840580940246582  39.89416122436523 22.31900978088379 9.62132740020752  39.89416122436523 22.38508033752441 8.823808670043945  39.89416122436523 24.16916084289551 6.813395977020264  37.0832405090332 22.59161949157715 11.535719871521  39.89416122436523 22.00556945800781 7.297267913818359  38.68632125854492 22.05209922790527 10.31674957275391  39.89416122436523 21.70892906188965 9.95369815826416  38.70695418689169 24.56214186093092 8.087064371641677  37.06652069091797 21.60485076904297 10.95520973205566  34.37398879105031 20.07940661233148 10.70552039406703  34.98382186889648 22.33489990234375 9.152831077575684  34.95328903198242 21.62878036499023 9.210225105285645  35.09125137329102 21.84856033325195 8.538665771484375  33.96178817749023 20.29129028320312 9.629826545715332  33.7257194519043 18.51750946044922 9.67125415802002  35.1002197265625 22.51956939697266 8.261302947998047  35.9665938160885 22.21300901458282 8.072619238873642  39.30390730145014 23.14948426926147 10.64626195990043  39.37406921386719 23.45195007324219 6.475251197814941  34.46669006347656 20.29764938354492 8.77645206451416  36.50228881835938 18.58263969421387 12.24872970581055  38.88113021850586 35.38135147094727 22.06880950927734  39.36452865600586 35.34934997558594 22.81365013122559  39.09764862060547 34.62228012084961 21.91295051574707  38.67735483063471 34.84482884312251 22.71195725727152  29.14584922790527 26.64089965820312 11.44569969177246  29.10530090332031 26.69252967834473 10.41199970245361  29.53557014465332 26.04458045959473 10.66683006286621  30.14404286704422 26.40705006988062 10.61976678078266  33.79529719572293 37.82231186645824 3.864786625055443  34.3938394599971 37.89076861304078 5.208061247066808  33.43042305305257 37.38396579764058 4.957627561281092  34.49010617097758 36.44004186963532 4.309859156442432  37.9462747373471 23.3323803165413 24.21386576639209  37.18395478091922 22.69483622640617 24.4290562768585  37.82029915890926 23.15204603381346 25.41102818788972  37.86021547535019 22.34505366298998 24.84592004236406  34.47758744981274 20.15803175558824 11.96646133278214  33.14431223793618 19.87099931381992 11.08130251047864  33.20602282911165 21.12083503102667 11.22386861672173  29.25046920776367 27.57793998718262 11.8153600692749  29.54140090942383 28.39926910400391 11.78724002838135  30.05015506795884 27.18874930182324 11.59442604878012  29.85032277021046 28.41360759720264 11.2002346948937  35.86180025132963 37.88812912451007 2.273364802673123  36.42772639077702 37.08406681891518 0.8516958971841004  37.35396142039775 37.35692138694101 2.003295804251904  36.52120949076065 36.33433422070804 1.813102516681819  38.21146011352539 32.85988998413086 25.64524078369141  38.82424926757812 33.43202972412109 26.1857795715332  38.71823120117188 32.41458129882812 26.10317039489746  39.17133172838988 32.78832399775062 25.43783904190442  36.14698028564453 28.93998908996582 5.843766212463379  36.66511154174805 28.38151931762695 6.234254837036133  35.62075158271717 28.40809927005136 6.862359012907198  36.54984335346739 29.35114850414535 6.261022895437693  38.33961868286133 24.82773017883301 16.90376091003418  38.75830111425823 25.98844051603398 16.73495065013664  37.56963216891526 25.26050076762672 17.24539449246948  37.83297289332918 25.79666962164141 15.81306464795704  35.7277090350715 36.31279524351066 1.111273694537301  35.52630637991624 35.89965167555094 2.703604196956297  34.99109376442938 37.03800329070917 2.240002234695941  33.93841171264648 32.00180816650391 21.44054985046387  34.75746917724609 31.61702919006348 22.11128997802734  35.47894685449135 32.10670778478683 21.756655851277  35.18177144517734 31.79288665963643 20.6040800628816  28.50652351175283 37.65572960275285 11.98121921110994  29.24949729823076 37.5268329002845 12.59662244190681  29.15883763876019 36.82351456360787 11.4817373084156  29.4960525091582 36.43457063230868 12.3133364907325  34.64684158355733 32.83765111232317 21.02283286270424  36.0003199300168 32.92634994865154 20.39557836513376  29.13170051574707 30.01021003723145 3.273844003677368  29.35268974304199 30.17313003540039 2.697108030319214  30.23012521553307 29.65225153619151 3.683384647441272  29.89034002419086 29.04050950433894 2.709607936177886  29.03285026550293 32.83634948730469 19.52033996582031  29.55270004272461 32.48451995849609 19.15031051635742  29.87287617709913 33.1472599022133 19.36939172423442  29.76208782306665 32.7447324351544 19.89186529741637  36.05580902099609 25.20611000061035 24.23151969909668  35.97832107543945 24.5957202911377 24.07962989807129  36.81107628132774 25.36023878558577 24.17559718654712  36.51434481105358 24.8098685513206 23.30608834150206  32.57519804994809 22.41262138236794 12.9279
[...]
<PointData  Scalars="p_O2"> 
<DataArray  type="Float64"  Name="p_O2"  format="ascii">1.0281585268333325e+02  1.0329003431318922e+02  1.0698132470662034e+02  1.0717191946679993e+02  1.0205673875065625e+02  1.0306083400378620e+02  1.0620543149340531e+02  1.0578189004982102e+02  1.0395726012306031e+02  1.0333647043690840e+02  1.0345947745480650e+02  1.0850100649473826e+02  1.0250106555259462e+02  1.0417335607423918e+02  1.0792463440773633e+02  1.0795824962190227e+02  1.0235820612187267e+02  1.0252949265272670e+02  1.0256368126979918e+02  1.0551728026299126e+02  1.0358587974200690e+02  1.0293674195151462e+02  1.0705030779237214e+02  1.0135505485852239e+02  1.0145467764449181e+02  1.0137043421640834e+02  1.0394021230358253e+02  1.0548249722525212e+02  1.0668272933558453e+02  1.0533794514350873e+02  1.0232613585921264e+02  1.0233643127889935e+02  1.0328352519880551e+02  1.0210121222588006e+02  1.0395104411395670e+02  1.0361321605903514e+02  1.0755987016673865e+02  1.0770284511494972e+02  1.0878878516996318e+02  1.0747552948836211e+02  1.0908690157099004e+02  1.0267686727513389e+02  1.0676145922896529e+02  1.0787300324369106e+02  1.0859195590421280e+02  1.0820020577267252e+02  1.0184153868684982e+02  1.0849490473004799e+02  1.0684977051229318e+02  1.0393423552535523e+02  1.0731701487325192e+02  1.0488354273984075e+02  1.0555534614292313e+02  1.0298295300768724e+02  1.0275379088840222e+02  1.0718095266492543e+02  1.0616753015206167e+02  1.0189309378732666e+02  1.0179251715386241e+02  1.0145072949804357e+02  1.0517147703846335e+02  1.0305909152387267e+02  1.0150558815660123e+02  1.0336336284241284e+02  1.0964368305396120e+02  1.0127329338521173e+02  1.0225002130560190e+02  1.0519565393390114e+02  1.0310640953535852e+02  1.0388637258052928e+02  1.0529746532360727e+02  1.0214851508683581e+02  1.0216999679720671e+02  1.0191595305268707e+02  1.0777744842029293e+02  1.0812979132982191e+02  1.0196084993616066e+02  1.0412812479787137e+02  1.0327128403323161e+02  1.0355801469852537e+02  1.0791349562813524e+02  1.0210722792459981e+02  1.0179186790324697e+02  1.0334688667714562e+02  1.0251479914281009e+02  1.0362041618759702e+02  1.0262426526435011e+02  1.0511137676320426e+02  1.0211271879549759e+02  1.0274648636344634e+02  1.0334338548547903e+02  1.0219617701823761e+02  1.0195970233381712e+02  1.0229075530405126e+02  1.0268917491848649e+02  1.0136441627265528e+02  1.0358062072872396e+02  1.0245741162546464e+02  1.0287319191631795e+02  1.0177972138741333e+02  1.0571702989416940e+02  1.0417265315308342e+02  1.0677501723034767e+02  1.0407480915763655e+02  1.0467650167792769e+02  1.0439574584690918e+02  1.0261302543896768e+02  1.0298620678810595e+02  1.0398473160041108e+02  1.0848499405821903e+02  1.0325057947632978e+02  1.0183425164728071e+02  1.0318617705400612e+02  1.0222691419793540e+02  1.0296425568534349e+02  1.0305825534962422e+02  1.0231916203235653e+02  1.0555545602734452e+02  1.0193893083109172e+02  1.0185029015177722e+02  1.0233268745340840e+02  1.0521546040289878e+02  1.0715910586578335e+02  1.0706226874954810e+02  1.0754862702054857e+02  1.0835852698659264e+02  1.0533842902148271e+02  1.0395813530419424e+02  1.0509037336241174e+02  1.0522123996615178e+02  1.0718863026222702e+02  1.0638557590363551e+02  1.0597884816777571e+02  1.0224759693346132e+02  1.0238669246982261e+02  1.0474294487625180e+02  1.0565405049959853e+02  1.0642935637072640e+02  1.0433228403266347e+02  1.0553133825566186e+02  1.0553135157229900e+02  1.0236421801325071e+02  1.0188654740149020e+02  1.0135058530444779e+02  1.0343238455755146e+02  1.0354585613442754e+02  1.0339416402282463e+02  1.0823680029299793e+02  1.0565928919895724e+02  1.0238437247186742e+02  1.0527515561281851e+02  1.0556846147772363e+02  1.0582982939549042e+02  1.0520909015143958e+02  1.0717599863719862e+02  1.0691752332930396e+02  1.0293279438716237e+02  1.0275842319943514e+02  1.0606406915476873e+02  1.0794593416200952e+02  1.0775862967415367e+02  1.0719993697345784e+02  1.0694094229421368e+02  1.0755353330578463e+02  1.0617826177371765e+02  1.0651720680602571e+02  1.0146874906856269e+02  1.0163093056120324e+02  1.0539523175385249e+02  1.0457621317142953e+02  1.0306169352194824e+02  1.0303891568235437e+02  1.0598510773668785e+02  1.0642575813809719e+02  1.0185119700344727e+02  1.0195135584572103e+02  1.0440162056256047e+02  1.0500941857183243e+02  1.0808478185744690e+02  1.0758694546182799e+02  1.0889661189039600e+02  1.0642483301086182e+02  1.0285817583319250e+02  1.0249992558997364e+02  1.0627999822920157e+02  1.0660220433048634e+02  1.0692803568071518e+02  1.0650034070740854e+02  1.0238251572676405e+02  1.0196624450747791e+02  1.0481526395131432e+02  1.0459025029591291e+02  1.0573690079436393e+02  1.0546499681828342e+02  1.0496163736219650e+02  1.0631996129900345e+02  1.0366928762540013e+02  1.0291428958640304e+02  1.0620186925355206e+02  1.0523646627468494e+02  1.0216804649373033e+02  1.0168471328402494e+02  1.0204725882519797e+02  1.0479827812679113e+02  1.0232110339874252e+02  1.0247503503059693e+02  1.0245326473191560e+02  1.0526591376389628e+02  1.0504380090563815e+02  1.0764458420358592e+02  1.0763784828860624e+02  1.0874745563414444e+02  1.0305909950138829e+02  1.0302391052166986e+02  1.0359725181545473e+02  1.0707411812315017e+02  1.0161406863373661e+02  1.0178898449778643e+02  1.0409441086741229e+02  1.0576554455136922e+02  1.0581306725230992e+02  1.0674019936092421e+02  1.0820631774614272e+02  1.0833710627147460e+02  1.0244668139250203e+02  1.0274437196729076e+02  1.0694388157551421e+02  1.0535155523035321e+02  1.0881570903083608e+02  1.0971394874804444e+02  1.0953222751118064e+02  1.0985271524774704e+02  1.0213740129891109e+02  1.0195245507853409e+02  1.0206391266013675e+02  1.0466510238177891e+02  1.0358945978238384e+02  1.0785824522550760e+02  1.0852832694460241e+02  1.0541830970991649e+02  1.0215657915838767e+02  1.0533454615978688e+02  1.0531652651685992e+02  1.0643080798330793e+02  1.0223130289771817e+02  1.0204938077384483e+02  1.0551695840640406e+02  1.0525987262605963e+02  1.0295538669814383e+02  1.0302946533781709e+02  1.0753084651502435e+02  1.0567429895355463e+02  1.0226500385352260e+02  1.0483701120451403e+02  1.0454834004128114e+02  1.0477256183034774e+02  1.0365942496938845e+02  1.0442941728738845e+02  1.0749214100607924e+02  1.0784097694464754e+02  1.0779334069857555e+02  1.0814046852342230e+02  1.0312141375694978e+02  1.0286071459859485e+02  1.0355106864815015e+02  1.0707781037980618e+02  1.0638535104462447e+02  1.0746885612046961e+02  1.0648080919447445e+02  1.0650431438651491e+02  1.0786332346636203e+02  1.0610613900304260e+02  1.0802092092942370e+02  1.0580706370992711e+02  1.0827492378398568e+02  1.0649864727022732e+02  1.0328242728521747e+02  1.0299422279246558e+02  1.0615867043796430e+02  1.0234337449725874e+02  1.0447738965502219e+02  1.0405064802277194e+02  1.0420102742016269e+02  1.0007850355851023e+02  1.0180048660647547e+02  1.0175345023884503e+02  1.0119771384171803e+02  1.0749220683774681e+02  1.0746491148149816e+02  1.0704727190265508e+02  1.0896690574063469e+02  1.0883184108480707e+02  1.0828463501571879e+02  1.0728358488749582e+02  1.0700193327300421e+02  1.0232313095252843e+02  1.0638564728310014e+02  1.0489018688335841e+02  1.0741750467532603e+02  1.0401140318261831e+02  1.0368788039931822e+02  1.0880337911469350e+02  1.0867160944959264e+02  1.0386107587915875e+02  1.0909071300410170e+02  1.0774459120171183e+02  1.0631202471234779e+02  1.0308629957129642e+02  1.0257596597559694e+02  1.0302934555252773e+02  1.0591351392840535e+02  1.0542839179393528e+02  1.0517341718695090e+02  1.0693863626198434e+02  1.0728188124823470e+02  1.0750369869704572e+02  1.0489559754689685e+02  1.0551231917927180e+02  1.0586190790689790e+02  1.0615265369880154e+02  1.0666296453878203e+02  1.0535316994398485e+02  1.0671735160764665e+02  1.0654722897342384e+02  1.0602620545452493e+02  1.0829936830968809e+02  1.0946468732330581e+02  1.0739477063074418e+02  1.0949779613170935e+02  1.0175886071100778e+02  1.0190970063392886e+02  1.0601767687104923e+02  1.0403029710749283e+02  1.0261041939071059e+02  1.0637701832788485e+02  1.0422824870483608e+02  1.0551512470453630e+02  1.0836046808493479e+02  1.0780362193158778e+02  1.0216255270905046e+02  1.0190264756382439e+02  1.0800650991996555e+02  1.0683712304860671e+02  1.0780772545909569e+02  1.0733477436334218e+02  1.0256802355358791e+02  1.0642591284069100e+02  1.0505152730715999e+02  1.0359840598993468e+02  1.0725822472500110e+02  1.0839393056153874e+02  1.0736117088590107e+02  1.0229202734101152e+02  1.0213012284273819e+02  1.0218679662885214e+02  1.0524837298200946e+02  1.0222570900859110e+02  1.0159848571966977e+02  1.0197937550391070e+02  1.0410051206141011e+02  1.0645798022317219e+02  1.0759820283133659e+02  1.0837444518703219e+02  1.0834547374980406e+02  1.0838449134620870e+02  1.0484780450072806e+02  1.0598381661928120e+02  1.0259462467316747e+02  1.0283422128584772e+02  1.0225064751634953e+02  1.0544499652720243e+02  1.0115199311261541e+02  1.0181012947236538e+02  1.0425106927330107e+02  1.0295060939993115e+02  1.0190375960635859e+02  1.0160917452124255e+02  1.0552532831496579e+02  1.0394379884009645e+02  1.0235865854761936e+02  1.0215063178628409e+02  1.0250091278013812e+02  1.0513765646970073e+02  1.0185504766071791e+02  1.0243392095890538e+02  1.0221514323603621e+02  1.0371487434317271e+02  1.0729071805222640e+02  1.0454248808954421e+02  1.0733144608906436e+02  1.0529431701958615e+02  1.0569127317574085e+02  1.0529942780684021e+02  1.0214340775875233e+02  1.0306574338752462e+02  1.0642456281067986e+02  1.0636823836679098e+02  1.0343449759802363e+02  1.0341926231954803e+02  1.0883511411122838e+02  1.0266399130926843e+02  1.0262036555708428e+02  1.0706425068083102e+02  1.0232512437941624e+02  1.0220034861284994e+02  1.0496601920547509e+02  1.0517225139853896e+02  1.0913642200263855e+02  1.0828791349816052e+02  1.0699931207133271e+02  1.0726868177618297e+02  1.0530759226295889e+02  1.0622883415131481e+02  1.0298582039020640e+02  1.0302226400623822e+02  1.0587538355391902e+02  1.0648161977686574e+02  1.0883605919971481e+02  1.0816316595465605e+02  1.0804114528165586e+02  1.0300791633759016e+02  1.0811335957839277e+02  1.0533880632335718e+02  1.0720062256578181e+02  1.0359335000882000e+02  1.0707597445203504e+02  1.0747323518598243e+02  1.0729930759471009e+02  1.0316026979821540e+02  1.0310428183831810e+02  1.0609901154455210e+02  1.0239319909827933e+02  1.0172879655352779e+02  1.0171678479236652e+02  1.0378187166223186e+02  1.0194176924740465e+02  1.0271810359370826e+02  1.0478594953535234e+02  1.0468846492973420e+02  1.0295906179263856e+02  1.0523509175728265e+02  1.0284910862736425e+02  1.0258314562666662e+02  1.0666348036354219e+02  1.0488007049515032e+02  1.0144608366800458e+02  1.0101194613350596e+02  1.0405630912207857e+02  1.0261301283419709e+02  1.0212830999546075e+02  1.0243269374072845e+02  1.0543560889164175e+02  1.0163449227003402e+02  1.0294480191213636e+02  1.0255552135070918e+02  1.0552121777489560e+02  1.0214702924636488e+02  1.0466578344134710e+02  1.0437932274171715e+02  1.0352749061919269e+02  1.0234323347952822e+02  1.0292748019810830e+02  1.0248103790158019e+02  1.0556555537617290e+02  1.0573642420161175e+02  1.0737314865555312e+02  1.0704646510577419e+02  1.0641657778987005e+02  1.0316600727464345e+02  1.0320229785108407e+02  1.0552113882678810e+02  1.0194804687359711e+02  1.0219182842539082e+02  1.0234862322684026e+02  1.0568427445347542e+02  1.0226358023448059e+02  1.0200028955479236e+02  1.0184587936586398e+02  1.0592700081082739e+02  1.0138134550019558e+02  1.0214331635616172e+02  1.0214874108841379e+02  1.0401092428643697e+02  1.0202953122598176e+02  1.0237063883800009e+02  1.0583326796007574e+02  1.0522309780658087e+02  1.0624536261498217e+02  1.0847259623795983e+02  1.0544965896801243e+02  1.0614448172396894e+02  1.0229844861342309e+02  1.0282363338749401e+02  1.0207169300178364e+02  1.0533842645900482e+02  1.0656507917444975e+02  1.0717510035274620e+02  1.0626985639805513e+02  1.0716277239109020e+02  1.0619063181402920e+02  1.0732196103559572e+02  1.0302947178945902e+02  1.0635229060773824e+02  1.0668149062012814e+02  1.0507298036819910e+02  1.0599713907347805e+02  1.0500795871142225e+02  1.0507135857584751e+02  1.0421212469698999e+02  1.0247146964523591e+02  1.0256475437701226e+02  1.0255723353513596e+02  1.0198037291224023e+02  1.0549735600501941e+02  1.0427215778272166e+02  1.0743463314175659e+02  1.0572368232162998e+02  1.0139710104150998e+02  1.0203935621859969e+02  1.0430389068214669e+02  1.0323155071348663e+02  1.0352859306188256e+02  1.0388991080342387e+02  1.0729250360205397e+02  1.0664530382494659e+02  1.0360833019646563e+02  1.0319594216963188e+02  1.0591775729019598e+02  1.0842149755607481e+02  1.0676131838226142e+02  1.0882370685165567e+02  1.0855852652094089e+02  1.0362917318802349e+02  1.0360741549227627e+02  1.0819045296450486e+02  1.0843298822140808e+02  1.0824084363501956e+02  1.0698272517288954e+02  1.0624758168584862e+02  1.0752122342046266e+02  1.0235246394327496e+02  1.0273374536204764e+02  1.0544452358225757e+02  1.0506772321285349e+02  1.0323258576558722e+02  1.0239138795513460e+02  1.0250301140133546e+02  1.0572845831278102e+02  1.0256414356611475e+02  1.0261886443374530e+02  1.0251832770291941e+02  1.0536924009314818e+02  1.0269609994198233e+02  1.0244046341982224e+02  1.0248002558597128e+02  1.0229697628058317e+02  1.0589316682955400e+02  1.0283907129439339e+02  1.0285816365022669e+02  1.0615370255106053e+02  1.0547844639857725e+02  1.0756336697570282e+02  1.0703796149938280e+02  1.0660326882586577e+02  1.0835292630147100e+02  1.0342553694944139e+02  1.0386634621576138e+02  1.0381972963753923e+02  1.0659782162877296e+02  1.0301572291995397e+02  1.0329319379856894e+02  1.0265759271990754e+02  1.0701453457370179e+02  1.0423890474752540e+02  1.0844997240886325e+02  1.0688040480344287e+02  1.0752630926954247e+02  1.0115573285780366e+02  1.0122008594346900e+02  1.0094449757282533e+02  1.0393966305585536e+02  1.0880082661880040e+02  1.0298571191219968e+02  1.0476703360350373e+02  1.0529073321395488e+02  1.0270028339502744e+02  1.0447913115356465e+02  1.0361173177333626e+02  1.0327568895789564e+02  1.0139807644251091e+02  1.0195205782034596e+02  1.0103733954712955e+02  1.0376146786577412e+02  1.0266646076408541e+02  1.0494693302785315e+02  1.0421331354545180e+02  1.0224002327239411e+02  1.0199082602459721e+02  1.0217968922268197e+02  1.0458141476959587e+02  1.0217100705173486e+02  1.0189259862579684e+02  1.0235098291036492e+02  1.0498840349574489e+02  1.0183284198227045e+02  1.0149201006087779e+02  1.0202705149813356e+02  1.0517051794386043e+02  1.0474002333342433e+02  1.0467124942219222e+02  1.0351216866292947e+02  1.0855506727102350e+02  1.0613522093376761e+02  1.0364789226831464e+02  1.0644356445453835e+02  1.0710892971269678e+02  1.0643942410842186e+02  1.0475866541107358e+02  1.0788020458612279e+02  1.0860215210513324e+02  1.0552076468805461e+02  1.0556327687588282e+02  1.0571929924179754e+02  1.0682225880839897e+02  1.0758117081084933e+02  1.0677236548180845e+02  1.0704853130054622e+02  1.0813958712639908e+02  1.0154028191665940e+02  1.0206530765879867e+02  1.0212969497651501e+02  1.0460058082143468e+02  1.0334473215472559e+02  1.0253983802807316e+02  1.0697779841469385e+02  1.0701202531947503e+02  1.0275025578178571e+02  1.0559954686998256e+02  1.0544064412018426e+02  1.0237578581647624e+02  1.0250370757849817e+02  1.0236597857547197e+02  1.0582646951692635e+02  1.0190338983565684e+02  1.0224124283551299e+02  1.0131132419576620e+02  1.0198813197159267e+02  1.0226838314315694e+02  1.0538183403869257e+02  1.0349438520180065e+02  1.0349768627965808e+02  1.0716170016155868e+02  1.0839118750430964e+02  1.0261658441272978e+02  1.0296656635232998e+02  1.0696815628469145e+02  1.0540814109430907e+02  1.0843472682691413e+02  1.0744032095513093e+02  1.0773329785817248e+02  1.0957333959725089e+02  1.0869851956286472e+02  1.0953881010532139e+02  1.0248337789935516e+02  1.0225450570882731e+02  1.0218542929335106e+02  1.0473392951206132e+02  1.0268047550322540e+02  1.0287410626363913e+02  1.0498319699071149e+02  1.0360383926000401e+02  1.0252763461685886e+02  1.0289285315485378e+02  1.0530320893270788e+02  1.0588145129288478e+02  1.0317479734539866e+02  1.0332478542786751e+02  1.0604270881877912e+02  1.0527365832203257e+02  1.0190783536628940e+02  1.0365142276664125e+02  1.0445261389903689e+02  1.0666168680724294e+02  1.0839829670874836e+02  1.0674420573894039e+02  1.0781222988116566e+02  1.0236787408997469e+02  1.0602626257454499e+02  1.0816648559559212e+02  1.0564085463152537e+02  1.0858697301741009e+02  1.0794508085367922e+02  1.0333409173714659e+02  1.0717344977984534e+02  1.0798290653360145e+02  1.0572998633584263e+02  1.0189788485713238e+02  1.0262284127002475e+02  1.0176598955139501e+02  1.0443724937069297e+02  1.0701370189123337e+02  1.0715394861739178e+02  1.0421657826274256e+02  1.0474973760576771e+02  1.0736839147642976e+02  1.0789590916960172e+02  1.0133771070563363e+02  1.0114006462435896e+02  1.0136188422687310e+02  1.0267259890369334e+02  1.0921211915798193e+02  1.0748928927453153e+02  1.0876874935814871e+02  1.0903097447280587e+02  1.0227200355099049e+02  1.0185154098788604e+02  1.0183147770724280e+02  1.0606159104911664e+02  1.0862405609710090e+02  1.0856430054286979e+02  1.0529032443098971e+02  1.0443372489334574e+02  1.0388343863576428e+02  1.0278229249278780e+02  1.0254990309706275e+02  1.0736940765450454e+02  1.0629905316849676e+02  1.0623276519186459e+02  1.0473349050399000e+02  1.0512896095435735e+02  1.0235819763048617e+02  1.0214181773841595e+02  1.0178622927018823e+02  1.0488214423312796e+02  1.0669422637349831e+02  1.0679251922519784e+02  1.0830614312880941e+02  1.0177488653574319e+02  1.0201511656650140e+02  1.0223213157446956e+02  1.0437086529853198e+02  1.0276613196625311e+02  1.0370853239822441e+02  1.0308978834818257e+02  1.0673661736800697e+02  1.0125754687834753e+02  1.0132365816186983e+02  1.0167130010324810e+02  1.0157665528800246e+02  1.0409798744806358e+02  1.0211516107717941e+02  1.0169093921423165e+02  1.0425049660749298e+02  1.0312849178818969e+02  1.0301882094273159e+02  1.0471934547733382e+02  1.0546598122538205e+02  1.0306556451471782e+02  1.0480118375591002e+02  1.0515399779103281e+02  1.0652653747973243e+02  1.0533103224345361e+02  1.0189577264684982e+02  1.0138648601574661e+02  1.0177975887829608e+02  1.0504573537291655e+02  1.0184261917854009e+02  1.0439301005447587e+02  1.0419942125961531e+02  1.0179793501133059e+02  1.0230754855420874e+02  1.0141897903262205e+02  1.0366440513672165e+02  1.0499356054064684e+02  1.0798834282310440e+02  1.0225966888714781e+02  1.0211577813400385e+02  1.0191999264327220e+02  1.0530886751101383e+02  1.0419049644940890e+02  1.0417556483457493e+02  1.0450785061202008e+02  1.0406439202097833e+02  1.0383606892404414e+02  1.0723545329908092e+02  1.0681621168408668e+02  1.0889989473087687e+02  1.0491271433945550e+02  1.0565188613826025e+02  1.0501640175513697e+02  1.0429143065368395e+02  1.0781696997410920e+02  1.0664750264681570e+02  1.0330021552237433e+02  1.0391196227887161e+02  1.0364108148523663e+02  1.0744367078445477e+02  1.0159392836404658e+02  1.0229521203674263e+02  1.0479207484357913e+02  1.0346175835460484e+02  1.0243136277344131e+02  1.0315350231338789e+02  1.0246134181597240e+02  1.0264413080162224e+02  1.0226236679083942e+02  1.0483310539014124e+02  1.0155081359608585e+02  1.0207854680818042e+02  1.0438291594284745e+02  1.0300414137202849e+02  1.0267547504491125e+02  1.0776187620255477e+02  1.0583358407058715e+02  1.0519382441164804e+02  1.0460456905248810e+02  1.0730999070703885e+02  1.0778376473706665e+02  1.0691995128919102e+02  1.0793870500065862e+02  1.0295243068948940e+02  1.0362499930571562e+02  1.0429337756244001e+02  1.0691073208921475e+02  1.0304546139411161e+02  1.0305924245156470e+02  1.0323486195388350e+02  1.0638830074811429e+02  1.0285861819001343e+02  1.0889527770342167e