<?xml version="1.0"?>
<VTKFile type="UnstructuredGrid"  version="0.1"  >
<UnstructuredGrid>
<Piece  NumberOfPoints="4684" NumberOfCells="20103">
<Points>
<DataArray  type="Float64"  NumberOfComponents="3"  format="ascii">1.924406051635742 17.76457023620605 24.35383033752441  1.901358008384705 16.69158935546875 24.36017990112305  1.726403951644897 17.1634407043457 23.84209060668945  2.652589233739742 17.35756745117177 23.95753872534853  4.124124050140381 0.7161189913749695 26.70215034484863  3.338845014572144 0.09558500349521637 26.64773941040039  3.000479810048755 1.014179511804993 26.18683505348272  3.061164721040992 1.103216606063491 27.21710560724785  4.814870834350586 0.9924589991569519 39.89208984375  5.204606056213379 0.4639959931373596 38.86196899414062  5.153764571086372 1.363555033230949 38.36821259456691  5.780478817358538 1.577516686092104 39.24196304409652  3.119940042495728 7.278544902801514 26.59510040283203  3.099049753304223 8.410002825033178 26.47487664698666  2.304414875507706 7.936102918469949 25.79525872985419  1.949142373172263 8.085771720188131 26.88847876049708  3.99950909614563 5.82887601852417 28.87924957275391  3.667519092559814 5.910507202148438 28.16725921630859  3.821820020675659 5.208402156829834 28.38241004943848  3.227171086494382 5.77830603992701 28.69712659730207  3.009126901626587 5.75239896774292 24.29126930236816  2.329974489528505 5.264614845464756 25.09840875529934  2.254455047615822 6.300635338122938 25.13511709512789  2.428060459596307 5.979029706886498 24.01043853249661  2.182970455183949 5.274492594926175 34.16907667609062  1.661652912096198 4.525898799342969 32.80125540439614  1.273020569393846 5.208670520938099 33.11185078860689  1.259774718544242 4.912072176197611 33.48207086966199  0.857896524992287 5.298245553052253 34.16288633492784  1.533679340937721 5.582967418729702 33.79576142445413  0.8711423758418901 5.594843897792741 33.79266625387275  0.8843882266914934 5.89144224253323 33.42244617281765  2.494317054748535 7.035478115081787 34.63919830322266  1.706445547108213 6.431456503514569 34.41598665100517  2.05961968505127 6.538823624803117 35.13920214835372  1.7957575563388 6.812192598273224 35.11297179037162  2.412793822994327 6.646190746091664 35.86241764570227  1.401821802518639 6.510181792489615 35.00136596426287  1.097198057929064 6.588907081464661 35.58674527752057  1.710109984764338 1.962990205944546 23.63625375220012  1.536354894673013 2.07141553518102 22.28362333742632  1.36874505921209 2.445291193704845 23.2207787082878  0.8279470627462869 2.176832568298337 23.02848725088891  1.027380133659841 2.927592181465144 22.80530366437548  3.463463068008423 7.261737823486328 27.32168960571289  3.076096057891846 6.608516216278076 27.13916969299316  2.522141363587293 7.105923728898722 27.27949595118293  3.219659204328773 7.303579583130829 28.0420866396868  3.128592014312744 2.546288013458252 27.06487083435059  1.980536636813951 1.37988012154011 27.42311668641668  2.217710229212752 2.273832016863338 28.55500302016037  2.031481869550586 2.354311916248526 27.64971177426889  2.08242710228722 3.328743710956942 27.87630686212112  0.09939099848270416 4.211494922637939 24.34446907043457  0.09939099848270416 3.167354106903076 24.45528030395508  1.006174061665693 3.369728197834423 24.78457793542211  0.5527825300741988 3.371250564943518 24.23614864025744  0.09939099848270416 3.792133927345276 24.01609420776367  0.09939099848270416 3.270063519477844 24.07149982452393  0.09939099848270416 3.372772932052612 23.68771934509277  0.09939099848270416 6.433143138885498 25.57453918457031  0.4561868198860979 6.191995039351483 25.00372412790764  0.4561868198860979 6.550100221999188 25.3406534491967  0.09939099848270416 6.501901149749756 25.17013454437256  0.09939099848270416 6.075037956237793 25.23760986328125  0.09939099848270416 6.570659160614014 24.7657299041748  0.4561868198860979 6.618858232863446 24.93624880899895  0.09939099848270416 6.143795967102051 24.8332052230835  0.09939099848270416 5.716932773590088 24.90068054199219  0.8129826412894916 6.667057305112879 25.10676771382309  0.09939099848270416 5.556319236755371 37.54858016967773  0.4799801247462784 5.432189097985981 36.90937595732946  0.7025909991609365 5.146847939764413 37.44196228207363  0.4799801247462784 5.724464288339375 37.28620128997106  0.09939099848270416 5.264044046401978 37.17175483703613  0.09939099848270416 4.971768856048584 36.79492950439453  0.7025909991609365 4.85457274941102 37.06513694943203  0.8605692510098527 5.892609339923378 37.02382241026438  1.305790999839169 4.737376642773454 37.33534439446953  0.09939099848270416 4.7658371925354 32.55303955078125  0.09939099848270416 3.698010921478271 32.82863998413086  0.8805219552894511 4.11195486041062 32.81494769426349  0.8805219552894511 4.505857877454687 33.22904261919025  0.09939099848270416 4.091913938522339 33.24273490905762  0.8805219552894511 4.645867995939184 32.67714747758869  0.09939099848270416 4.625827074050903 33.10493469238281  0.09939099848270416 4.485816955566406 33.65682983398438  0.09939099848270416 6.825026035308838 37.90774917602539  0.4411513018880237 6.26453892106966 37.96010619888183  0.6484347912941325 6.493204272937335 38.36663657913086  0.4411513018880237 6.636163867663898 37.86421615371582  0.09939099848270416 6.4534010887146 38.00363922119141  0.306674487888813 6.682066440582275 38.41016960144043  0.5139579772949219 6.539106845855713 38.91259002685547  0.306674487888813 6.310441493988037 38.50605964660645  0.09939099848270416 6.081776142120361 38.09952926635742  0.7829116052933431 6.447301700018959 37.82068313140624  2.009077015632744 5.699370162861536 36.38360051848785  2.562000360606319 5.87759974529952 35.2410887587764  1.829599209267692 6.233253413382091 35.41391701814848  1.319012045860291 10.679030418396 26.75324058532715  0.8877410292625427 10.72128009796143 26.11556053161621  1.550825856794334 10.70977594725895 26.2900356679387  1.327583907786278 10.30649003107806 26.27129048939304  1.767426786310013 9.891699964194689 26.42702044716987  2.213910684326126 10.69827179655648 26.4645108042612  0.09939099848270416 1.832329034805298 35.63484954833984  0.4931679964065552 1.180174946784973 35.89188003540039  1.109835245124949 2.094183650119534 35.35647023458824  0.5613705877630883 1.902621119366303 36.08165770388692  1.023350177043473 1.972913203927307 36.52846585943399  0.6156569719314575 4.887494087219238 39.16093826293945  0.5969409942626953 4.136788845062256 39.02326965332031  1.074798035485914 4.462942883438306 39.25584008098238  0.8951804637908936 4.529570579528809 39.52651405334473  1.17470395565033 4.171647071838379 39.89208984375  1.533939099040371 4.038391679657374 39.35074189902532  1.250434994697571 9.924673080444336 28.26721954345703  0.7781749963760376 9.335227012634277 28.58189010620117  1.201098638088644 9.32827832712476 28.03438309581492  1.512660245344356 9.345467211595682 28.32534740283345  1.437228637249411 9.62300136102979 27.87704781444285  1.748790244505122 9.640190245500712 28.16801212146138  2.247145494312674 9.355707410557089 28.06880469946572  1.62402227980125 9.321329641615245 27.48687608542868  3.479269981384277 6.581090927124023 27.8142204284668  2.171935293046726 6.42195682597893 27.94351599321239  5.266490936279297 5.529362201690674 39.89208984375  4.597837924957275 5.341020107269287 39.89208984375  4.923162787501044 6.298934352797565 39.2311469318826  5.451120684178152 5.524120484376627 39.16610121462381  0.6970660090446472 0.7186239957809448 25.65836906433105  0.9547250270843506 0.5729389786720276 26.27786064147949  1.267420053482056 0.09558500349521637 25.40789031982422  1.787205138047681 1.072648391551976 25.67061973178054  2.447901179708395 9.177701677475424 24.20913042451975  3.612687360852997 8.941435230455628 23.69183074984281  2.928021961340147 10.13235443413357 24.81804905315963  2.841701359963396 9.872185802701946 23.75258769200688  3.235501540218397 10.56666992792847 23.29604495949402  1.508831788672688 4.011593173529971 34.13924428369517  1.183364156832488 4.654919363291112 34.15106530931151  0.6640430092811584 12.61184978485107 22.00791931152344  1.15884804725647 12.68982028961182 21.13993072509766  1.350532054901123 11.87736988067627 21.77273941040039  1.607178264336706 12.5324981423166 22.02859617901939  1.511336260514379 12.93872334678437 21.71219183636802  1.863824473772288 13.18762640395693 22.28445294763838  2.944684982299805 5.327449798583984 23.69564056396484  2.618329048156738 5.549763202667236 23.07445907592773  1.848881622230782 5.802176479528954 23.46612996225625  4.305378207879661 5.483367377710485 38.1084029229099  5.469202186667746 6.405131591302475 38.25169236314319  4.160983523566893 6.256933676539746 39.08125142755379  3.471894979476929 5.494075775146484 34.95447158813477  3.141417980194092 5.204552173614502 34.40290069580078  2.790747159830698 4.888710572075951 35.04078375406365  3.277681112289429 8.456064224243164 30.25975036621094  3.008316993713379 7.86960506439209 30.81040954589844  3.58524489402771 7.867712020874023 30.03478050231934  2.520675553396202 8.049634195096246 29.48215239918781  3.012950897216797 4.893144130706787 32.65721130371094  2.99535608291626 4.673502922058105 33.68186187744141  2.053097201912823 6.009335727947953 33.13459036327223  0.5757960081100464 0.9526500105857849 35.24201965332031  1.841360807210365 5.716371828907536 37.96569826030826  2.240506231753082 4.739670301248156 37.25337055866267  1.925218911421554 5.707870995884536 37.17464938939806  2.508291135438681 5.229167894315196 37.56854749158204  2.59214923964987 5.220667061292197 36.77749862067184  3.175221463666996 4.741963959722858 37.17139672285581  0.09939099848270416 6.656989097595215 29.55462074279785  0.09939099848270416 6.44386100769043 30.40243911743164  1.000664986639089 6.321939295021798 29.8481959569925  0.5500279925608967 5.988485726459873 29.89105316343277  0.09939099848270416 6.156010627746582 29.74426555633545  0.09939099848270416 6.049446582794189 30.16817474365234  0.0993
[...]
<PointData  Scalars="p_O2"> 
<DataArray  type="Float64"  Name="p_O2"  format="ascii">9.9621324664896733e+01  9.9073371670028948e+01  9.9219778710325585e+01  9.9043064390204137e+01  9.9322305834634776e+01  9.8611448156032083e+01  9.4695897785364053e+01  9.4936216113198242e+01  9.9937017215889668e+01  9.9630263428578971e+01  9.8975386377655980e+01  9.9583215650073058e+01  9.1835643339295459e+01  9.0699331975675122e+01  8.0923426750523390e+01  7.6610373146570808e+01  9.6277318429365337e+01  9.5198977572418698e+01  9.6255934530463662e+01  8.9153196963065852e+01  9.3502721899518136e+01  8.1385557488825981e+01  8.0415554059666675e+01  8.5919452094839741e+01  7.9445359409686205e+01  6.9988036833940726e+01  6.3349920682033769e+01  6.2815462010838075e+01  5.5771579823457948e+01  6.8827289027917516e+01  5.6320734345788644e+01  5.7091355424964874e+01  9.2601844368699119e+01  7.6833076229575397e+01  8.3187627207272428e+01  8.2184630430437323e+01  8.7280195119498217e+01  7.3207632811684022e+01  6.9812581775668420e+01  8.3055924552099498e+01  8.0169480849101603e+01  7.4501506890335946e+01  6.9239188911215379e+01  6.5563641549928406e+01  9.4480454792516610e+01  9.1109199713178796e+01  8.2362833273785995e+01  9.0278647014073300e+01  9.3817736140484200e+01  8.5825742753215195e+01  8.3500236640616649e+01  8.0263637097597282e+01  7.7376447039038155e+01  4.0000000000000000e+01  4.0000000000000000e+01  5.9818733386153085e+01  5.0428616242607603e+01  4.0000000000000000e+01  4.0000000000000000e+01  4.0000000000000000e+01  4.0000000000000000e+01  4.7349593203296259e+01  4.7369119987220742e+01  4.0000000000000000e+01  4.0000000000000000e+01  4.0000000000000000e+01  4.7597433195204061e+01  4.0000000000000000e+01  4.0000000000000000e+01  5.4961323871377857e+01  4.0000000000000000e+01  4.9583954712589843e+01  5.6364310588249857e+01  5.0639554012295712e+01  4.0000000000000000e+01  4.0000000000000000e+01  5.4348486578752457e+01  5.9860656568528000e+01  6.7246000629853413e+01  4.0000000000000000e+01  4.0000000000000000e+01  5.5487180346949906e+01  5.5442392855848098e+01  4.0000000000000000e+01  5.5286850770049867e+01  4.0000000000000000e+01  4.0000000000000000e+01  4.0000000000000000e+01  5.5061073681091912e+01  7.9152431801190914e+01  5.5519841722983287e+01  4.0000000000000000e+01  8.0861769478831192e+01  9.1682294010780723e+01  7.9169669375557930e+01  4.0000000000000000e+01  6.5803696641481437e+01  7.7823651166738799e+01  8.5751023851024144e+01  7.7730020008457615e+01  9.5411516579209447e+01  9.3104583809187275e+01  9.2323500477568118e+01  8.8389996409214632e+01  8.6494621683638044e+01  9.3038522344373192e+01  4.0000000000000000e+01  8.2790099892517276e+01  6.9097744889864231e+01  5.8609273954122571e+01  6.9411560600572841e+01  9.1571076929778272e+01  9.2647213050462440e+01  9.2415753343291399e+01  9.5596814379211992e+01  9.7250483902182651e+01  9.2445602087525529e+01  9.5323541242713446e+01  9.1226327546290889e+01  8.7200179035601181e+01  8.8448648161071077e+01  9.0302373702960551e+01  9.1625536090257427e+01  9.0155526078170098e+01  8.5662606231732013e+01  9.4130740589055407e+01  7.5901491711260704e+01  9.9527698541095148e+01  9.9107528175298128e+01  9.8880873715437588e+01  9.8985139972262658e+01  9.2134104271222441e+01  9.1881597761712200e+01  9.7816971985450593e+01  8.8175236960940865e+01  8.6887680495650741e+01  9.5685442048597935e+01  9.0707232498843666e+01  9.1549216919782452e+01  9.4184540294639476e+01  6.8721465901935105e+01  6.1788087542731503e+01  9.0120493421761296e+01  9.3687099791359884e+01  9.6074518466577672e+01  9.0144169155733536e+01  8.8908603749497274e+01  8.5348856057550677e+01  9.4233676576555297e+01  9.3462852949329246e+01  8.0087731758486868e+01  9.6260561003771102e+01  9.8817963417433418e+01  9.7882899079266295e+01  9.5230022345187166e+01  9.3238182142309256e+01  8.7291547880172956e+01  9.6651858042177338e+01  9.4536787857052602e+01  9.6044941297166289e+01  8.6141228439907835e+01  9.2282916769394646e+01  9.3048689280172752e+01  7.8788194027036184e+01  9.2013676681288672e+01  8.1750435518155413e+01  8.0445715831085252e+01  7.8552668792101983e+01  8.5079854231773439e+01  8.3975616639737112e+01  8.9187239553110146e+01  4.0000000000000000e+01  4.0000000000000000e+01  5.7080305880149758e+01  4.8391026952146746e+01  4.0000000000000000e+01  4.0000000000000000e+01  4.0000000000000000e+01  8.2276471308573889e+01  7.7734684478038886e+01  7.0788508443248276e+01  7.6985505517064752e+01  5.7778914168363514e+01  7.2029894481241953e+01  6.3687637299714609e+01  7.2217782201791266e+01  8.7214838394855605e+01  8.8591310301648349e+01  9.9516058024133727e+01  9.9812812335437002e+01  9.9621017232367151e+01  9.9327127145185599e+01  9.9833358324437981e+01  9.9842940816535204e+01  9.9512406697136129e+01  9.9281560618097572e+01  9.7863965572620998e+01  9.7468543992854549e+01  5.4491992185960164e+01  5.4316701431027809e+01  4.0000000000000000e+01  4.7116373161962358e+01  4.0000000000000000e+01  4.0000000000000000e+01  4.0000000000000000e+01  4.7834315550603733e+01  4.0000000000000000e+01  4.7415142958488147e+01  4.0000000000000000e+01  5.4701915813742019e+01  9.2586628988583783e+01  9.5928608145001419e+01  9.1530983764286844e+01  9.2300188627896077e+01  9.1612817096382059e+01  9.4173174583192505e+01  8.5168787546756491e+01  8.6006136451431715e+01  8.3575232068112314e+01  7.5897531441863578e+01  9.9399919616874712e+01  9.9356779590527310e+01  9.8958051701858210e+01  9.7952466519246371e+01  9.7555249344816858e+01  9.7117103215353112e+01  9.8377603512001116e+01  9.5209921845583963e+01  9.0524484712405823e+01  9.7871278456177095e+01  9.8537549648965211e+01  9.6398363960681323e+01  9.7162259130955988e+01  5.6688158992513365e+01  8.0830294058678703e+01  7.5692533477413519e+01  6.7194077856468581e+01  7.0706856748669225e+01  5.8210750258707428e+01  6.0382804788382025e+01  4.0000000000000000e+01  5.7697358226941873e+01  5.5655907663775643e+01  7.2845082808785676e+01  8.8697561254358888e+01  7.4928215357393782e+01  6.4517666959146197e+01  6.3844903714820894e+01  9.0205915818647938e+01  9.1520644060028943e+01  7.1872604937839270e+01  9.6985453261501206e+01  9.7456458468485252e+01  9.3926085450852938e+01  7.8271550444867330e+01  7.6027162732972599e+01  6.6814075779473839e+01  5.6312006824781477e+01  7.5982932706058804e+01  6.6334697155652961e+01  8.8568369915969029e+01  7.9772057353884747e+01  8.4416006854728508e+01  6.6289419801890446e+01  8.5936470833962815e+01  7.7185733049165307e+01  4.0000000000000000e+01  4.6722688389935051e+01  4.7794997362481723e+01  5.0707697657881319e+01  4.0000000000000000e+01  4.0000000000000000e+01  5.6860373983494959e+01  4.9650721107481303e+01  5.8762946215619387e+01  5.4729215708714143e+01  4.0000000000000000e+01  5.5977918124149873e+01  4.9072731136858607e+01  4.9401465904101471e+01  4.0000000000000000e+01  4.7149350427608681e+01  4.0000000000000000e+01  4.7110130235996110e+01  5.4209901166791035e+01  7.3502997607269336e+01  8.8054093937695754e+01  7.2419205521024281e+01  7.5339593430384667e+01  7.5690662488254816e+01  7.8246720441276636e+01  9.9597932110092756e+01  9.8241167570337197e+01  9.7920112818304361e+01  9.5033693643164426e+01  9.6278717710960819e+01  9.3194045792129415e+01  8.5987069516349280e+01  9.1067375618601631e+01  9.3718242790103517e+01  8.4454032648088486e+01  8.7497507775348566e+01  8.0095468858532811e+01  8.3826980199988071e+01  5.8308860169944637e+01  5.6504936926278390e+01  4.8966580970832538e+01  4.6666152995605685e+01  4.0000000000000000e+01  4.0000000000000000e+01  9.0490250916296361e+01  7.9368625667926452e+01  7.3312923690890273e+01  9.9167622306646905e+01  9.7351362518814526e+01  9.8179557474524572e+01  9.5050572293603778e+01  9.1379837606056739e+01  9.5359998165847145e+01  9.5504564494472945e+01  9.2997058753440641e+01  9.5893348015014823e+01  9.8969522029972694e+01  9.7760927940320926e+01  9.9937339917610700e+01  9.9642537523062259e+01  9.9884207681113011e+01  9.9651998056634227e+01  9.6684124911122751e+01  9.4902893193294219e+01  9.2114199063216873e+01  9.9436003979182431e+01  9.8664151600055376e+01  9.8183579358934765e+01  9.7568553851231073e+01  9.1170199777947190e+01  7.9035566450282246e+01  8.3905197868933072e+01  9.0712909128633228e+01  9.7564562076003810e+01  9.2226364526533857e+01  9.4451123590736714e+01  9.9715737450526575e+01  9.9414183180421816e+01  9.9693489695706944e+01  9.9245063651151497e+01  9.1425798180644009e+01  9.6359192712195153e+01  9.2283174743225942e+01  7.3006654830908360e+01  9.9470615558395124e+01  7.3823618775396724e+01  8.7420157462403338e+01  7.7036939059303336e+01  7.1651382437163804e+01  6.8973153089126129e+01  7.2992152551281194e+01  6.3427315087046004e+01  8.0614315130385449e+01  4.0000000000000000e+01  4.5885909498374446e+01  4.5666412142038816e+01  4.0000000000000000e+01  4.0000000000000000e+01  4.0000000000000000e+01  4.5739828687962934e+01  4.0000000000000000e+01  4.0000000000000000e+01  5.1451645509332231e+01  9.7789221724955212e+01  9.8872829003185629e+01  9.7848951707678140e+01  9.5871438248277244e+01  9.0901225131085567e+01  8.8025298149273837e+01  8.5112878425490536e+01  7.3092135284000307e+01  7.6939036145667572e+01  7.3994028528386721e+01  6.1713055101857734e+01  9.4337700625618425e+01  7.8999408180541636e+01  8.7671833096944454e+01  8.4283011495250292e+01  7.2920625460977689e+01  4.0000000000000000e+01  5.0874421762504596e+01  4.9289660120464241e+01  4.0000000000000000e+01  4.0000000000000000e+01  4.0000000000000000e+01  4.9515169634432766e+01  4.0000000000000000e+01  4.0000000000000000e+01  9.9678449781890407e+01  9.9833222155539033e+01  9.9731987907120057e+01  9.9448947315570265e+01  9.9342800195429021e+01  9.9054145316480032e+01  9.8311596836648349e+01  9.9194232146155656e+01  9.7301505835257018e+01  9.4533544057822283e+01  9.7435430073008988e+01  8.6677426397493150e+01  9.7667508517731690e+01  9.5029219647072551e+01  9.7199793448687231e+01  9.8041531459898309e+01  9.3082951766681944e+01  8.7672091026290332e+01  7.9966693181088161e+01  8.3359660140451439e+01  9.0664578247799554e+01  7.8005138626328630e+01  8.5439992500530437e+01  7.7989027382548528e+01  9.1576979838239410e+01  8.4619648092136629e+01  9.1970613222686183e+01  8.3396867436500685e+01  6.3770807999142590e+01  7.0715669473832264e+01  4.0000000000000000e+01  5.0073601968161746e+01  4.9614677865409803e+01  5.0729502210368580e+01  4.0000000000000000e+01  4.0000000000000000e+01  4.0000000000000000e+01  4.0000000000000000e+01  9.8996347266714324e+01  9.8917103189996098e+01  9.8349401725566821e+01  9.2716996216403203e+01  8.1358561618308627e+01  7.5698687860830930e+01  7.9182960999799732e+01  7.2946327515984137e+01  4.0000000000000000e+01  4.8392982801151156e+01  4.0000000000000000e+01  4.0000000000000000e+01  4.8738233028569162e+01  4.0000000000000000e+01  7.5994150788869973e+01  6.6282918167449594e+01  6.7501433901415950e+01  5.7152883158630409e+01  5.4805781821950731e+01  9.2629130033574683e+01  9.1798352931672397e+01  9.1935411243864493e+01  8.0713705530041423e+01  5.6326593405079308e+01  4.7027082794611609e+01  5.0291423152388333e+01  6.0533250726102587e+01  6.3618625724405192e+01  4.0000000000000000e+01  6.6812048400572266e+01  6.6931165394407728e+01  5.0626604469814353e+01  5.4929053191022113e+01  6.4085123367484670e+01  6.9078500640075674e+01  6.5260795731882851e+01  6.2034672267525579e+01  4.0000000000000000e+01  6.8367176257479187e+01  7.6598567247987532e+01  4.0000000000000000e+01  5.9378273901706848e+01  9.4976194100718175e+01  9.1303622037954227e+01  9.2853509566517246e+01  9.3287247093593251e+01  4.0000000000000000e+01  7.2571579457927157e+01  5.3209147813427833e+01  7.7203936087218253e+01  6.0999101381519822e+01  6.8058706199189999e+01  6.2234169088335783e+01  5.3288848106980673e+01  6.8709705337719654e+01  6.7105787036275061e+01  7.3050277957421144e+01  6.0201844203716547e+01  6.9804842488303123e+01  5.6614058247851645e+01  9.1487967906896628e+01  4.0000000000000000e+01  5.2670952046677179e+01  4.0000000000000000e+01  9.9069173792443905e+01  9.9386144976454446e+01  9.9154974428780903e+01  9.7669528896538168e+01  9.9850615374824429e+01  9.9881905732766583e+01  9.9739614420196460e+01  4.0000000000000000e+01  7.4356557455423925e+01  6.1155927609728685e+01  5.5708401107742318e+01  4.0000000000000000e+01  7.8679331089982867e+01  4.0000000000000000e+01  7.6078721818576071e+01  8.9354680685569022e+01  6.8155688106201410e+01  8.2894145416540169e+01  4.0000000000000000e+01  4.7321609179589508e+01  4.7586103344152917e+01  4.0000000000000000e+01  4.7304199501955949e+01  5.4911334273541733e+01  5.5241130302768077e+01  9.6822854782053582e+01  9.7796834656585503e+01  9.4224521986735112e+01  5.9807046880931622e+01  5.8316461240365122e+01  6.8200529873706088e+01  6.0267480375245071e+01  6.1070113193449409e+01  9.3590077179977158e+01  8.6850215425939922e+01  7.8862226858488953e+01  8.5573437314153452e+01  9.9471735035925292e+01  9.8833281095041016e+01  9.8980434763722457e+01  9.8623897188076086e+01  9.6163225702641512e+01  6.5234929057733225e+01  5.1150187462814898e+01  5.5720320929606963e+01  6.9904706943134443e+01  6.1132657178916851e+01  6.4566001475846107e+01  8.0403711163215874e+01  6.2684003458575773e+01  6.6672612941759198e+01  9.6194867532267338e+01  9.5470893946166129e+01  9.3959196213810216e+01  7.9404598090336151e+01  8.2323666492703836e+01  9.7034289139543404e+01  9.6986732722954685e+01  9.8051514761485521e+01  9.8557381935876336e+01  4.0000000000000000e+01  5.1707279247658093e+01  4.0000000000000000e+01  4.0000000000000000e+01  4.0000000000000000e+01  5.0860954989884895e+01  4.0000000000000000e+01  4.0000000000000000e+01  5.0110303469306601e+01  9.9088430057785075e+01  9.9670211076633578e+01  9.8337057207524623e+01  9.2484479322924187e+01  9.2417248402543848e+01  8.9413178657455717e+01  8.3831930887849722e+01  6.9226086770725033e+01  9.9905180881839499e+01  9.9848566782911917e+01  9.9820107734403777e+01  9.1055984461902085e+01  8.8080719950530110e+01  8.8442729264782699e+01  9.3329125273256679e+01  5.2447514623394767e+01  5.1126283430966204e+01  6.4511522128229416e+01  9.9187344783890552e+01  9.7073633835728160e+01  9.4443616045269835e+01  8.8875380887397995e+01  8.8921581414134650e+01  9.3940337313563688e+01  8.9743807468214911e+01  9.1064737561684368e+01  9.0952039440758853e+01  9.9540555664286060e+01  9.9417789197092532e+01  9.0955873416764533e+01  6.9395829702422319e+01  7.5517646564189391e+01  8.2200883614700032e+01  8.5887514637298665e+01  7.1737779534374226e+01  8.1299565464253007e+01  9.9738805067152569e+01  9.9458898307244439e+01  9.8421842432937865e+01  9.9336038455964641e+01  9.8857275480042560e+01  9.9444178700193859e+01  9.8509254296925803e+01  8.7829204807343444e+01  7.8098689258391119e+01  7.3057511906110847e+01  9.4655433196899750e+01  9.3413596907516705e+01  9.3008003071563493e+01  9.4045961034800840e+01  9.7324615046553333e+01  9.2403555470427278e+01  9.7883295796254060e+01  9.6767230395025706e+01  9.7841240090419234e+01  9.6274511047362680e+01  8.6994844012129334e+01  8.0224893031689959e+01  7.9656103636389545e+01  6.7732697943416923e+01  7.8138937847851409e+01  9.9753453136900603e+01  9.9542954804857345e+01  8.5800962422205956e+01  9.5531445437922969e+01  9.2196591250962257e+01  9.0677685795657780e+01  9.4959930871072359e+01  9.6119831163000441e+01  9.1437610551395494e+01  9.6608620657166412e+01  9.8216665674930908e+01  9.6046545255458753e+01  9.4506017969396126e+01  4.0000000000000000e+01  5.8489769005468261e+01  4.9546129009880161e+01  4.0000000000000000e+01  4.0000000000000000e+01  4.7854732228045442e+01  4.7948930866770802e+01  4.0000000000000000e+01  4.0000000000000000e+01  4.0000000000000000e+01  9.6877593827084638e+01  9.6620113447878339e+01  9.7742161914539153e+01  9.5279939126082070e+01  9.4802038807664189e+01  9.3417516992664503e+01  9.0598320709528110e+01  8.9052929719063016e+01  8.2904323527404728e+01  8.1281139892502623e+01  8.4018377106034109e+01  7.9852442857606533e+01  7.0288774896888825e+01  7.9055834483574344e+01  9.2573674243243104e+01  9.2321498321004640e+01  8.5201594261117776e+01  8.1829286273150558e+01  8.4015797397309129e+01  7.3195092548163785e+01  9.2156526617405774e+01  8.9474888654722179e+01  8.9123293205413319e+01  8.5036976356025434e+01  9.0370329886437446e+01  5.5477994581058233e+01  5.4803881470621462e+01  4.6565860489092096e+01  5.2812970611649298e+01  9.4874474935851481e+01  8.9943714543098451e+01  8.7319953749840309e+01  9.5615234581438941e+01  9.0821561584972557e+01  8.7132500072542143e+01  4.0000000000000000e+01  5.7302609746442492e+01  5.5294049228742402e+01  7.0648769214398371e+01  7.5537116313988108e+01  9.7406472882683076e+01  8.0557068812774901e+01  7.1770417038710590e+01  7.5347599370798520e+01  7.0726906587873415e+01  7.1327235054812647e+01  5.9065438571996701e+01  5.8616429833906722e+01  6.6623095868382052e+01  7.0608770737028038e+01  8.1020603838663448e+01  9.7904939926191844e+01  9.8606084940073686e+01  9.8265608590103355e+01  9.8100243562708997e+01  9.9128392243007283e+01  8.5659047460650370e+01  8.0770939721841756e+01  8.1497983530377198e+01  7.4093668080129007e+01  7.1231950620208067e+01  7.3457500389365336e+01  7.7352342470033605e+01  7.8747540651194200e+01  6.6826634375966520e+01  7.0076616363031619e+01  9.9905193463943178e+01  9.9869840953836231e+01  9.9982258492750944e+01  9.7615035978782373e+01  9.7584864147015850e+01  9.7816964946488099e+01  9.8109602785619174e+01  9.8456803454237559e+01  9.6987954314375855e+01  9.5801369654127058e+01  9.4240885665905623e+01  9.3331108990679340e+01  9.5175143896025475e+01  9.8680004305088431e+01  9.7810817378253347e+01  9.8985563865269313e+01  9.7202889768193415e+01  9.6195204904423832e+01  9.1479325386155594e+01  9.8658477425509048e+01  9.8867860807733692e+01  9.8533078254635683e+01  4.0000000000000000e+01  5.4656506467482146e+01  9.1809675529629359e+01  9.1131984085246344e+01  9.4008640779432980e+01  9.3330097421490635e+01  8.3943306402776102e+01  9.1618637487115791e+01  9.3702785805080197e+01  9.7165928039542067e+01  9.5988410716625950e+01  9.7116431868083538e+01  9.1516280010544207e+01  9.1028375661082478e+01  8.3130503090546966e+01  9.8314724713424582e+01  9.8208584887250595e+01  9.8875871130031641e+01  9.6371707868304057e+01  8.8664110589113704e+01  9.3351998838082110e+01  9.4855543023621323e+01  9.4592872970289633e+01  9.1469192198149571e+01  8.1259449987755431e+01  9.9727667779623644e+01  9.9522273094809378e+01  7.3626248728781647e+01  8.0484136655358327e+01  7.1641550805390466e+01  8.2336280784521477e+01  9.9961058907848852e+01  9.9872431257372739e+01  9.8800605390149656e+01  9.5532003828935856e+01  7.7035246874961601e+01  4.0000000000000000e+01  4.6442921736424644e+01  4.0000000000000000e+01  4.0000000000000000e+01  4.6658356391362609e+01  4.6517183065769089e+01  4.0000000000000000e+01  5.2907150980849188e+01  8.6469857006358296e+01  9.1510675085515459e+01  4.0000000000000000e+01  5.7691636876017654e+01  4.0000000000000000e+01  4.0000000000000000e+01  5.7817509996292138e+01  5.9646853683725162e+01  4.0000000000000000e+01  4.0000000000000000e+01  4.0000000000000000e+01  9.8107458404856601e+01  9.7896324200231476e+01  9.7593481496163648e+01  9.4408256852374123e+01  9.1731610609387303e+01  9.3469873701411458e+01  9.3782360134535082e+01  9.3111331700372816e+01  9.3046219082500684e+01  9.5632350015949754e+01  9.5134730981747140e+01  9.6952438328279200e+01  4.0000000000000000e+01  4.6489460732337704e+01  4.6317484534102476e+01  4.0000000000000000e+01  5.2942660899254399e+01  4.6574951656578769e+01  5.3050801493759856e+01  8.2907817816881931e+01  7.2548110019937980e+01  7.5359186893046541e+01  8.2192022954918642e+01  9.7842398146965579e+01  9.8865971105323652e+01  9.6877335777854384e+01  9.8011235506621034e+01  9.4505072948428008e+01  9.0657583383254163e+01  9.2797108806687660e+01  9.1560326397274110e+01  4.0000000000000000e+01  5.7247080978543416e+01  7.2986642783477038e+01  7.9082129734281779e+01  7.4435912360502428e+01  8.1609729801153861e+01  8.2275817497268463e