<?xml version="1.0"?>
<VTKFile type="UnstructuredGrid"  version="0.1"  >
<UnstructuredGrid>
<Piece  NumberOfPoints="4866" NumberOfCells="20076">
<Points>
<DataArray  type="Float64"  NumberOfComponents="3"  format="ascii">18.05801010131836 1.980746030807495 0.1048400029540062  18.53083992004395 1.277719020843506 0.1048400029540062  18.64771047610651 1.969090266439979 0.9905686647582427  17.47012780768676 1.701508074931415 0.7608204070168626  18.23563003540039 0.4575099945068359 1.116541028022766  18.15815925598145 0.7553780078887939 0.1048400029540062  18.99453926086426 0.6830419898033142 0.6763430237770081  17.69702403537451 2.369420829175438 1.28266923367582  18.49333000183105 0.09558500349521637 3.145654916763306  17.55331993103027 0.09558500349521637 2.723233938217163  18.33020973205566 0.09558500349521637 2.126312971115112  18.18413937052957 1.500863480860389 2.923404691430454  17.7039909362793 2.721751928329468 3.685894966125488  17.57551956176758 3.127937078475952 2.735167980194092  18.48961067199707 3.032886981964111 3.544179916381836  18.16083721739016 2.635767682785813 2.230788486273345  17.47178077697754 3.165196895599365 1.776800990104675  17.28600007003664 2.460187954552323 2.315593024504958  18.95021726575598 0.9627739965111395 1.63069194177998  17.92811856106248 1.292944965245128 1.750345943397716  19.06889084034789 1.776776247589474 2.181307911464082  17.22347068786621 2.402237892150879 0.1048400029540062  17.59886932373047 1.397984027862549 0.1048400029540062  17.73347091674805 3.189533948898315 1.113216996192932  16.98605918884277 2.993726968765259 1.170645952224731  19.22723960876465 0.09558500349521637 1.543951988220215  17.62359046936035 2.213248014450073 4.304525852203369  18.67819976806641 2.324219942092896 4.370869159698486  17.9892406463623 1.736614942550659 4.777002811431885  18.6827392578125 1.28498101234436 5.088818073272705  18.02889244172662 0.9904893333176586 4.353968125246128  19.12076950073242 0.09558500349521637 2.51262903213501  17.6175594329834 0.09558500349521637 3.674330949783325  18.60774993896484 0.09558500349521637 4.235197067260742  18.20400047302246 0.09558500349521637 5.193009853363037  17.64662933349609 0.09558500349521637 4.545790195465088  0.09939099848270416 10.62012958526611 7.12263822555542  1.004651314250311 10.38245773835112 6.805679594290402  0.5520211563665074 10.31999874374831 6.451963799601867  0.5520211563665074 10.05623197815383 6.809122222071959  0.09939099848270416 10.17506790161133 6.967601537704468  0.09939099848270416 10.43883466720581 6.610443115234375  0.09939099848270416 9.730006217956543 6.812564849853516  0.09939099848270416 9.993772983551025 6.455406427383423  0.09939099848270416 10.25753974914551 6.09824800491333  8.316856331062748 9.766925164264414 4.914294185757972  9.039445263592407 10.31653951185316 5.271380375096214  8.432402372836394 11.29029129444437 5.502798304786157  7.938842280608309 10.18961989161545 5.851418122856628  6.495824813842773 17.85296058654785 14.45977020263672  6.954018115997314 18.16926002502441 13.84323024749756  7.503255844116211 17.66186904907227 14.01463031768799  6.521876834474805 17.13608432407465 13.79561705971948  14.86781024932861 1.799960017204285 0.1048400029540062  14.17582035064697 1.264510035514832 0.1048400029540062  14.64348030090332 0.6071130037307739 0.6565790176391602  14.5092981410163 1.423112289766759 1.171476399845034  5.71541686834439 13.81931715299889 11.00879489658979  6.335039950184822 14.30044234384561 11.87778160875428  5.140546665398348 14.8755900869257 10.79994522638816  4.990396671473241 14.50082413360242 12.05199107934865  10.6318998336792 0.09558500349521637 7.097518920898438  11.63846969604492 0.09558500349521637 7.244607925415039  11.16044998168945 0.09558500349521637 6.488171100616455  11.31838578949527 0.6961893084347961 7.221836724965405  2.9378963069043 11.60262258421202 3.239084080414848  3.939162387944976 11.91584512274063 3.70827789073501  4.275823646926199 11.5098669937177 2.754461607256722  3.830421032097437 10.6037552143173 3.470271026836476  13.13794040679932 17.06151962280273 1.132534027099609  13.34521961212158 17.43120956420898 0.6693580150604248  12.89505004882812 16.54416084289551 0.6787459850311279  13.85200945460305 16.67835238935003 1.043712675952529  11.82726001739502 0.09558500349521637 4.071989059448242  11.49279975891113 0.09558500349521637 3.342657089233398  12.57624767607076 0.805107125684277 3.942777852208582  11.49206023055885 1.113854667434848 3.677004848712172  0.632095992565155 2.743419885635376 7.726728916168213  0.8659150004386902 3.443213939666748 7.105521202087402  1.323341965675354 2.745059013366699 7.550306797027588  1.137949658822444 3.651716394392513 8.095499878565278  6.315930008713635 20.29872505255518 9.315721348030022  7.77174979742095 19.87771146066953 8.926403541802012  7.574534643473436 20.90715873568816 9.765917941163188  7.771659049062478 20.08450387210853 10.37717232036229  8.314351081848145 18.91546058654785 12.16154003143311  8.869854927062988 18.48619079589844 12.37067985534668  9.036752700805664 18.58098030090332 11.55375003814697  8.082978698446214 18.41252480727453 11.83038153270756  12.18907509361935 13.92706942214599 4.254980329993743  12.15874779290814 12.83607963278179 3.767538948333254  12.70309577587385 13.65486993001768 2.940822372851311  11.1395714808671 13.83083358894184 3.144857369239292  8.15324917338895 7.142637732561603 7.61466119798496  8.156493004666173 7.353799509723124 6.189556292274574  7.2384189731974 6.85685802316401 6.720661806310776  7.562659749777537 8.349689964195694 6.88808729426738  2.132330894470215 12.47772979736328 0.1048400029540062  3.006500005722046 12.35836029052734 0.1048400029540062  2.750739386320566 12.74013755070752 1.246656193364363  1.806942948919174 12.01616175836296 0.9253803347404354  10.74765014648438 6.248065948486328 6.593516826629639  11.38043975830078 6.016761779785156 6.028313159942627  11.07662963867188 5.421065807342529 6.71424388885498  10.78495384276337 5.321455470181387 5.890689019692442  11.82545301588243 14.16116571689676 2.055669991700803  11.9279052273477 12.5251502565808 2.741348123925475  3.981605052947998 9.962947845458984 1.204645991325378  3.581634044647217 9.462298393249512 0.6989700198173523  2.593789853707016 9.768590580748562 1.106614215824218  3.271682809695816 9.964090609268164 1.671978401976924  6.512115286956223 3.967821533473434 11.78592406417625  6.01407005138591 2.999846178008103 11.9029067108788  6.564271787073395 3.082787011691758 12.55525950850171  6.11210915706723 4.295467681280697 12.43180631697571  15.2846097946167 14.40373992919922 4.8353271484375  15.89377975463867 15.27583026885986 4.200256824493408  15.10750961303711 14.63492965698242 4.173038005828857  14.96692339363915 15.46988252360182 4.728387267139263  3.716181039810181 11.30401992797852 11.01323986053467  4.618964466892664 12.25987061745464 11.00035368767518  4.076501195064147 11.6766505831818 11.75119988848075  4.662344129209995 11.28254258341495 10.7447914744197  3.99351692199707 1.069417953491211 13.04067993164062  3.300225019454956 0.9187279939651489 13.34887981414795  3.097853005574196 1.678233422743219 12.23352208954664  4.041486708098443 1.962925246800577 12.80388089237949  12.49604988098145 0.09558500349521637 7.991859912872314  13.34848976135254 0.09558500349521637 7.631816864013672  12.54922962188721 0.09558500349521637 7.086948871612549  13.08320053013799 1.224717996357169 7.812535664488301  8.296360015869141 0.6927649974822998 11.83318042755127  9.131966590881348 0.09558500349521637 12.18035984039307  9.333624729466989 1.271094807715644 11.24380521917383  8.699428194639799 1.404604755060188 12.49209473463073  5.029032230377197 14.8847599029541 3.987458944320679  5.027610778808594 14.73556995391846 2.80851411819458  4.962889194488525 14.08061027526855 3.581546068191528  5.845773986225665 15.06709718352809 3.940505739408904  4.008194923400879 22.1711597442627 9.613157272338867  3.514420032501221 21.52148056030273 9.230621337890625  4.375208854675293 21.43889045715332 9.062114715576172  4.118055783866098 21.11488090000535 10.09140200901789  11.59667528369328 4.304355376835275 3.522036725011619  11.89031109841153 5.655974330581777 3.491474091475462  11.49911908382048 5.31685747899237 2.327361304828936  10.62571402662282 4.616831318059365 2.854358197111542  5.507089138031006 16.2437801361084 2.494242906570435  6.2353483340635 16.41998289487541 2.819949435756182  6.035331366585889 15.29243907282936 2.637526649111614  5.906822201627159 15.6980521280976 1.858480528836236  6.434179774716326 14.44596475379546 1.892441172324593  5.487209876767341 13.80685694551881 1.038923690583583  5.767525862684399 14.97795809945067 0.930650660121183  6.896814925086908 13.79096845181495 1.100438413559271  0.09939099848270416 12.42800998687744 12.13325977325439  1.055269956588745 12.251540184021 12.00084018707275  0.09939099848270416 12.09803009033203 11.6340799331665  0.3900440111756325 12.70092010498047 11.75732469558716  0.6806970238685608 12.9738302230835 11.38138961791992  14.52138042449951 14.04059028625488 4.207091808319092  13.2409203235078 14.57089746815846 4.172099311445621  14.31968337967173 15.16704384213814 4.055390205642914  13.88096026414957 14.64163153414405 5.075699701316489  4.621739864349365 7.68087100982666 5.178818225860596  5.502563953399658 7.575616836547852 5.530499935150146  4.242924868925688 7.361967260661475 6.074040109212548  5.146890172871836 8.44223595460898 6.452798618378608  9.885151383633158 12.74523176753918 2.496268480352233  9.020853687453705 14.07052276522077 1.897825143712975  9.555967190548724 14.68066225460364 2.980042447627115  9.848207783252082 14.07212471706163 1.713953495306989  12.00412122475924 12.82681000998338 0.9245392910888286  12.10484205920934 12.32676862422639 0.6565948989490904  11.99502515792847 12.97802495956421 0.1048400029540062  11.41537801847428 12.54430926243912 0.5800098124908695  2.867454051971436 17.59350967407227 12.36075973510742  2.490974903
[...]
<PointData  Scalars="p_O2"> 
<DataArray  type="Float64"  Name="p_O2"  format="ascii">1.0000155850332585e+02  1.0000008641933539e+02  9.9999456717726957e+01  9.9998149465150718e+01  9.9997363210405425e+01  1.0000373057487676e+02  1.0000741144104137e+02  9.9999956407697638e+01  1.0000531199017423e+02  9.9995187383371857e+01  1.0000027059204950e+02  1.0000093447389899e+02  1.0000533160188800e+02  1.0000404105551991e+02  9.9995454148184464e+01  1.0001029786658098e+02  9.9993386312659354e+01  9.9992460872532689e+01  9.9999102843453315e+01  9.9994030332080669e+01  9.9991506656989856e+01  9.9995458262431853e+01  9.9996895748001222e+01  9.9994269503300700e+01  1.0001242817728199e+02  9.9995343854608649e+01  9.9996777796459043e+01  9.9997894378744448e+01  1.0000690375281022e+02  9.9999986256947437e+01  9.9991958127689230e+01  1.0000812783684476e+02  1.0000040052441688e+02  9.9994131050081322e+01  1.0001630335213295e+02  9.9999936408992824e+01  4.0000000000000000e+01  6.7873597121267807e+01  5.4794360216990917e+01  5.3429421223590452e+01  4.0000000000000000e+01  4.0000000000000000e+01  4.0000000000000000e+01  4.0000000000000000e+01  4.0000000000000000e+01  9.9665773820588143e+01  9.9798519759653303e+01  9.9657772307924603e+01  9.9450256415312012e+01  9.9198939370508370e+01  9.9367777202494395e+01  9.9596352160444226e+01  9.8472812990646332e+01  1.0000282102789903e+02  1.0000030089319340e+02  9.9999381693984560e+01  1.0000173869337657e+02  9.8990756669747142e+01  9.8736897402407038e+01  9.8707444154270178e+01  9.7440277909266740e+01  9.9995726978904443e+01  9.9996612830804665e+01  9.9996432674925288e+01  9.9992556936194504e+01  9.0295251159688476e+01  9.5803294466857778e+01  9.6857549288043188e+01  9.3837130394353537e+01  1.0000118406202583e+02  1.0000238985931176e+02  9.9999726682757071e+01  1.0000161324075201e+02  9.9998306111201885e+01  9.9998850756830322e+01  9.9996453744135465e+01  9.9995578495073829e+01  8.8382135346964048e+01  9.0625368182968089e+01  9.2506636931637175e+01  7.4158457576268660e+01  9.9616960882225143e+01  9.9838236821626111e+01  9.9821345315876329e+01  9.9723783787286820e+01  9.9834544340339292e+01  9.9864018025529219e+01  9.9879125185279548e+01  9.9619127504816390e+01  9.9989265061731885e+01  9.9979895827433438e+01  9.9988353474248299e+01  9.9968291467898993e+01  9.9416153897979541e+01  9.9548775985166486e+01  9.9187436751459387e+01  9.9037928958308683e+01  9.7239355431786436e+01  9.8943796551672321e+01  9.4994422039846455e+01  9.1342316218214052e+01  9.9969637191528548e+01  9.9983152778873517e+01  9.9976176597540530e+01  9.9959281022897898e+01  9.9984528989653725e+01  9.9983928956939522e+01  9.8272966519635602e+01  9.8836886632974284e+01  9.4681212761228551e+01  9.5008011287573282e+01  9.8553406672555212e+01  9.8379758936926549e+01  9.9055342639776626e+01  9.8110688981606387e+01  1.0000481294020622e+02  9.9991031546098455e+01  1.0000544738121758e+02  1.0000502294150598e+02  9.9693720300807897e+01  9.9184527982772977e+01  9.9329061280449324e+01  9.9163896221261496e+01  9.8170327347496240e+01  9.6956636931512179e+01  9.1353930065109935e+01  9.5449464815837274e+01  9.9996437454078929e+01  1.0000076615778713e+02  9.9997099201975587e+01  9.9992978332797307e+01  9.9978740224896825e+01  9.9989167843450886e+01  9.9945354500007724e+01  9.9921638694729126e+01  9.9955598118225595e+01  9.9938638778226448e+01  9.9835408055628733e+01  9.9901918393424140e+01  9.9373611606526964e+01  9.9114466158046184e+01  9.9673833513802421e+01  9.8041530138010941e+01  9.9989390945763532e+01  9.9985816767858225e+01  9.9991773242234316e+01  9.9988373797185133e+01  9.9982294169047265e+01  9.9966495229837420e+01  9.9918465302911144e+01  9.9953589277195846e+01  9.9879177114379004e+01  9.9725522327672167e+01  9.9925596480713565e+01  9.9915830858416427e+01  4.0000000000000000e+01  9.9660917982826788e+01  4.0000000000000000e+01  7.5379230885807786e+01  9.1964897916498998e+01  1.0000044870994594e+02  9.9994930089545974e+01  9.9998200621258405e+01  9.9991202037380503e+01  9.7048790741148522e+01  9.8848247464737966e+01  9.4049199770068711e+01  9.5256350572530337e+01  9.9941716980012757e+01  9.9954596302400773e+01  9.9952804295731866e+01  9.9971648287917318e+01  9.9989216426058150e+01  9.9995162893578765e+01  1.0000091144933599e+02  9.9995202985181805e+01  9.5866755132357611e+01  9.5157140811686688e+01  9.5383833079732725e+01  9.2191163708610034e+01  8.5465164293696972e+01  8.9171142065802357e+01  8.7402010284114411e+01  7.9719674197861977e+01  9.3107176651404330e+01  9.3122954550462282e+01  9.6842665239456451e+01  9.6774773781560782e+01  8.1340246307826121e+01  9.9997145443482410e+01  9.9997269298458960e+01  9.9997998229586216e+01  9.9999479387338539e+01  8.6265015222324948e+01  9.0565774355041739e+01  8.0926383100589703e+01  8.8218776705226730e+01  8.9968396301164901e+01  8.4003405652100298e+01  8.0842028973908597e+01  7.5352883556653396e+01  9.1827566478778181e+01  8.6404934194560781e+01  9.5535814270968274e+01  9.9996286038222877e+01  9.9996219184580312e+01  1.0000393098913658e+02  9.9996256036309603e+01  4.0000000000000000e+01  5.2510760113733319e+01  5.1914410075031896e+01  5.8905097843055024e+01  4.0000000000000000e+01  4.0000000000000000e+01  4.8993191672279480e+01  6.9524929205586943e+01  6.1988641542378978e+01  5.7070949163105034e+01  9.9995318955127516e+01  9.9998940692185556e+01  1.0000190930407878e+02  9.9997806650671663e+01  9.8068715876779109e+01  9.8095513169029431e+01  9.8919632583564223e+01  9.6977000110238777e+01  9.9010468630459371e+01  9.8893623030014965e+01  9.8658101801593546e+01  9.9074946211607568e+01  9.5429336741017764e+01  9.7587135216412378e+01  9.7748771418915098e+01  9.7302015289558625e+01  9.9862509409350736e+01  9.9849082643185099e+01  9.9696365697890286e+01  9.9668651993678509e+01  9.9985773909672943e+01  9.9987956556354732e+01  9.9946667607881054e+01  9.9965799556682256e+01  9.2581348449588006e+01  8.2400691602991841e+01  9.0646799067687468e+01  9.0729887194617319e+01  9.0563091925111593e+01  9.0750886272394794e+01  7.9840360974795502e+01  7.5424907148603481e+01  9.9971855969397197e+01  9.9980526446321960e+01  9.9978676025249499e+01  9.9931931668894322e+01  9.9468343436627947e+01  9.9617272242858405e+01  9.9700394803934742e+01  9.9142186347835676e+01  9.9889931778206559e+01  9.9805289389283502e+01  9.9774747236404053e+01  9.9775161607493814e+01  9.2519351126914060e+01  9.3120546778557738e+01  8.5998445545118045e+01  8.3043627068607108e+01  8.0233624702472000e+01  6.2575013578403386e+01  6.7863880148170509e+01  6.8878366724846245e+01  5.4699026589122354e+01  9.9553359062876581e+01  9.8914620803903375e+01  9.9587823236852373e+01  9.9331223997055858e+01  9.9916690377380831e+01  9.9965025106744392e+01  9.9947005404822804e+01  9.9844233489882285e+01  9.9998594304995621e+01  9.9998911811083673e+01  1.0000314353666495e+02  9.9998142267039370e+01  9.9971097401209420e+01  9.9962437743291872e+01  9.9982157974853877e+01  9.9954477837426580e+01  9.9686362799173224e+01  9.9678236804661395e+01  9.9837944559517638e+01  9.9583527981752823e+01  1.0000179697553902e+02  1.0000240325553179e+02  9.9993170676904242e+01  9.9996896280391283e+01  9.9999724957408390e+01  9.9999561329004493e+01  9.9999490913221933e+01  9.9998927266958674e+01  9.8737291912977611e+01  9.8495800346992780e+01  9.9098591227613724e+01  9.8112121093531300e+01  9.9562251475966079e+01  9.9748493948168743e+01  9.9243703756281704e+01  9.9570088154777324e+01  9.9553993813429614e+01  9.9826842102657352e+01  9.9846440107742026e+01  9.9861658528528281e+01  9.9715337757123123e+01  9.9497618543899293e+01  9.9431352855631673e+01  9.9471342382627711e+01  9.9914809724430214e+01  9.9928769032245995e+01  9.9906545627014964e+01  9.9747674304516451e+01  9.9579462732702652e+01  9.9739461715256326e+01  9.9853826978955539e+01  9.9678119792501789e+01  1.0000039234929135e+02  9.9999151490638340e+01  9.9999734392039002e+01  9.9998259985826010e+01  9.9993037865029024e+01  9.9981251753655599e+01  9.9987214161917009e+01  9.8915191212137287e+01  9.9327940956723197e+01  9.9173571308269103e+01  9.6927649277795183e+01  9.9606270888884353e+01  9.9314384107688156e+01  9.9104368802703078e+01  9.8894244138269272e+01  9.9996396538783856e+01  9.9986383521494034e+01  9.9985767138501259e+01  9.9990117709977028e+01  9.9973997924108417e+01  9.9966771357675015e+01  9.9959998049144573e+01  1.0000058472222854e+02  1.0000247111424480e+02  9.9995235654654195e+01  9.9995583854573738e+01  9.9685597671138751e+01  9.9524056471603487e+01  9.8812958678411718e+01  9.9668438172364816e+01  9.9573165782339345e+01  9.9727144464958386e+01  9.9072879849444362e+01  9.9641993539992725e+01  9.9585582479881950e+01  9.9795550999002771e+01  9.8631360581406241e+01  9.9432579546431327e+01  9.9148058687526856e+01  9.8634123963152120e+01  9.9638484573663447e+01  9.6986906262619613e+01  4.5607736784781885e+01  4.6494628649823234e+01  4.0000000000000000e+01  4.0000000000000000e+01  4.0000000000000000e+01  4.0000000000000000e+01  4.6187224751895975e+01  4.0000000000000000e+01  5.2778493290993318e+01  9.9888386725430152e+01  9.9858067839588941e+01  9.9433060729875493e+01  9.9781500940172506e+01  9.9989588563885917e+01  9.9993901522285995e+01  9.9972865499523436e+01  4.0000000000000000e+01  5.0409728693832335e+01  4.9020998108896364e+01  5.1625896833845694e+01  4.0000000000000000e+01  4.0000000000000000e+01  4.8224180426828731e+01  6.2669934740592545e+01  5.9345454654192224e+01  5.6250244054547082e+01  9.9994226177489423e+01  9.9995699915294296e+01  9.9999325413154168e+01  9.9991918836922252e+01  9.8913722842747546e+01  9.8932110659748815e+01  9.7614566963907293e+01  9.8178079278220821e+01  9.8635205524457547e+01  9.5413502992628892e+01  9.6732470932847676e+01  9.9539168444179438e+01  9.9638668141640167e+01  9.9733010515167834e+01  9.9814886951294255e+01  9.9836538061218434e+01  9.9817887654657284e+01  9.9923874260601778e+01  9.9924251094866150e+01  9.3881426624682987e+01  9.3017343259627964e+01  7.7524495038875259e+01  8.9340619593017067e+01  9.4761895904310720e+01  9.5960287379205511e+01  9.9984249342626740e+01  9.9991363048818940e+01  8.9100066629951911e+01  7.7456065042204017e+01  8.2568629890373856e+01  8.0822869260662941e+01  8.4578445113022255e+01  9.9998635661444865e+01  9.9995266277581635e+01  9.9986936842980981e+01  9.9992263933949161e+01  9.9465552689867764e+01  9.9833218016152472e+01  9.9594337246191543e+01  9.9181079111737560e+01  9.8284110759334595e+01  9.7534758635494583e+01  9.8289387094884830e+01  9.3142386139544186e+01  9.9998669075932071e+01  9.9999656151215063e+01  9.9947252392396152e+01  9.9921479841467686e+01  9.9876439301243423e+01  9.0184841332493804e+01  9.3927409538599875e+01  7.2957609684973619e+01  8.6709590670008481e+01  9.8849309332729504e+01  9.6597608789348229e+01  9.8955731685343366e+01  9.7754717299985828e+01  9.9998699685520577e+01  9.9999841032052487e+01  9.9999078536310037e+01  9.9738544402498235e+01  9.9354544751178935e+01  9.8269062987327004e+01  9.7754815787875415e+01  9.7865407595242900e+01  9.4714285865775437e+01  9.9930210446325574e+01  9.9864494909871226e+01  9.9940595760540646e+01  9.9991887943332145e+01  9.9993792162946576e+01  1.0000009018851722e+02  1.0000597894535363e+02  1.0000183318289376e+02  9.9998796289405064e+01  9.9994691232473500e+01  9.9992801286896963e+01  9.9996794240375266e+01  9.9920949091753471e+01  9.9735085260349607e+01  9.9836498944294860e+01  9.9698959346664410e+01  9.9982132671275082e+01  1.0000156433060903e+02  9.9975705480019840e+01  1.0000135180841323e+02  1.0000341896796249e+02  9.9996660094362170e+01  9.9999984147710904e+01  9.7543784655098293e+01  9.8760363649296934e+01  9.4539937999352418e+01  9.9665913489722314e+01  9.9837488935870894e+01  9.9776469384887420e+01  9.9988847445452407e+01  9.9988645386975776e+01  9.9993906649932740e+01  9.9972608717056019e+01  9.4965936741435911e+01  9.1478952630267017e+01  9.5005294616317997e+01  8.9689847002482097e+01  8.9436241794453963e+01  9.9739428058206357e+01  9.9879288391233260e+01  9.9999358481606151e+01  9.9999867677216017e+01  9.9999711920816850e+01  9.9998199709633340e+01  9.9768462150033571e+01  9.9586217395918837e+01  9.9998309991430517e+01  9.9997585722214197e+01  9.9992520637388225e+01  1.0000099362153385e+02  9.9999209168850186e+01  9.9989414925963857e+01  9.9992313227300670e+01  9.9989813050922578e+01  9.9978402047195360e+01  9.4890638605324469e+01  9.5951340784709359e+01  8.0050626869024143e+01  7.3271404430673542e+01  8.8303970920657235e+01  4.0000000000000000e+01  9.9997145649389637e+01  9.9618732784022015e+01  9.9907894591552491e+01  9.9592624161053863e+01  9.9943914308225274e+01  9.9941603026642611e+01  9.6943295159183435e+01  9.8091080564829298e+01  9.4031947163646450e+01  9.7883636384394450e+01  9.8560550965973206e+01  9.4400236277363334e+01  9.0529534790190596e+01  8.9294619001826959e+01  9.9449981921024914e+01  9.9633361830099687e+01  9.8815327594342605e+01  9.9006398693958189e+01  9.9919505945769401e+01  9.9898371381240935e+01  9.9887973336234595e+01  9.9787813155856540e+01  9.8123726526578722e+01  9.4486125050037472e+01  9.5601365743656103e+01  9.4282806065238589e+01  9.2558308862171117e+01  8.7283023877003416e+01  8.5500539329443654e+01  9.4015297264203724e+01  9.5942016649895336e+01  8.5308979003116207e+01  8.2786040867277279e+01  8.9693264734255607e+01  8.8706321011082068e+01  9.9998630637931967e+01  9.9996990234576757e+01  9.9996926330051735e+01  9.9994414695122856e+01  1.0000139429353307e+02  1.0000094900485530e+02  9.9982744582230268e+01  1.0000352001434742e+02  9.9762846223781850e+01  9.8229771849428658e+01  9.7679351840744559e+01  9.8229234336868444e+01  9.7635421858444730e+01  9.8891999781020843e+01  9.8724441690947415e+01  9.7046103943460196e+01  1.0000688026528340e+02  9.9997378530091055e+01  9.9997237454224020e+01  9.9998649405531012e+01  9.9996515159091786e+01  8.9008442441263782e+01  9.1346415496774412e+01  9.4228087838003873e+01  9.4895284399589528e+01  9.9567191188442322e+01  9.9294936009791414e+01  9.9062400070616562e+01  9.9997767982905884e+01  1.0000047643773487e+02  9.9999860113142105e+01  9.9998770063731115e+01  9.6397863109306968e+01  8.8217461526821850e+01  8.8125447292290275e+01  9.4916868164188571e+01  8.8928564142435974e+01  8.5591445572786810e+01  9.2212352954509711e+01  9.0985424889113759e+01  9.2055483451494553e+01  9.4750110055141448e+01  8.5299267816655799e+01  1.0000012739758664e+02  9.9999426034153871e+01  9.9998426147834820e+01  9.9996452044352040e+01  9.9992384405014604e+01  9.9987190823476510e+01  9.9977174413949072e+01  9.9978901333671473e+01  4.0000000000000000e+01  5.9524380944006815e+01  5.8684761944147660e+01  4.0000000000000000e+01  4.7946604829697563e+01  8.9698722070034478e+01  8.2944251523603057e+01  8.1919799995920684e+01  7.6233905257368050e+01  6.3998698084017505e+01  7.3328259149897463e+01  9.8399555420941539e+01  9.5920244198526120e+01  9.7896461224206419e+01  9.7011724728363632e+01  9.9994402981675563e+01  9.9995871543697348e+01  9.9998007850684729e+01  9.9990139687762095e+01  9.6994367137758189e+01  9.4643973846456333e+01  9.2713789147335760e+01  9.9878554127331469e+01  9.9946010674077840e+01  9.9955282479363703e+01  9.9945962306482514e+01  9.9975364054345093e+01  9.9891535638542919e+01  9.9872862332722434e+01  9.9817140240364097e+01  9.9939583504618497e+01  9.9790357283551884e+01  9.9991898068180362e+01  9.9992255123912273e+01  9.9972737054146634e+01  9.7442972055122254e+01  9.9564733380902183e+01  9.9110010661417945e+01  9.9619709828599937e+01  9.9127166148956732e+01  9.9944447374117303e+01  9.9817327083303752e+01  9.9862143245990950e+01  9.9929960000144987e+01  9.3773787605090675e+01  9.0949670707426108e+01  9.6235173508137109e+01  9.0081556875818549e+01  1.0000002413667215e+02  1.0000527361272324e+02  9.9994185638344604e+01  9.9993066174347177e+01  9.9811612790673991e+01  9.9866057919999633e+01  9.9914341339281563e+01  9.9633224436108094e+01  9.9960243043396218e+01  9.9989067088126134e+01  9.9981263625453536e+01  9.9979334042223599e+01  9.9997244929279276e+01  9.9996455751394763e+01  9.9996489026429032e+01  9.9977478228441285e+01  9.9985402935248658e+01  9.9989050453476679e+01  9.9990296651105865e+01  9.9889877286731121e+01  9.9875722393564317e+01  9.9667554160476172e+01  9.9983962930831922e+01  9.9932998596552949e+01  9.2902771404632063e+01  9.3464646452558299e+01  7.5281823428922081e+01  9.0412123176716278e+01  9.2574205964079198e+01  1.0000754298745856e+02  9.9998499545263016e+01  9.9564651493638308e+01  9.8561122331847415e+01  9.8220354045965522e+01  9.6910086524969216e+01  9.8384799421259657e+01  9.1781940458300141e+01  9.6086168398314413e+01  9.9920515471438719e+01  9.9870411719107864e+01  9.9725815105601512e+01  9.7783724788658077e+01  1.0000011818280119e+02  9.9999563847328758e+01  9.9710589080886123e+01  9.9653542052308921e+01  9.9748008215564340e+01  9.9626793956996565e+01  9.9165320890309886e+01  9.9993707931207865e+01  9.9995753922401150e+01  1.0000063131785961e+02  9.4112245747417248e+01  9.6020445645384470e+01  9.6111861312497979e+01  9.7179337292089741e+01  9.8765189093551584e+01  9.8507952660731348e+01  9.8636712242901766e+01  9.9511829869810995e+01  9.9012138496668882e+01  9.9791224842181748e+01  9.9456025307261555e+01  9.8106322449162548e+01  9.9973600160593023e+01  9.9950781565677929e+01  9.9870829714748538e+01  9.9898238321994612e+01  9.9854005879646820e+01  4.0000000000000000e+01  4.9031906583962154e+01  5.0529886214818617e+01  5.0237714508086611e+01  4.0000000000000000e+01  4.0000000000000000e+01  4.0000000000000000e+01  4.0000000000000000e+01  4.0000000000000000e+01  6.0259102119353848e+01  4.0000000000000000e+01  5.7785516343141687e+01  5.3064860646120678e+01  5.8313902755262077e+01  4.0000000000000000e+01  4.0000000000000000e+01  6.3538112491238174e+01  7.3238629710483707e+01  6.4645513514260941e+01  9.6734185965745581e+01  9.9551663786689531e+01  9.9834494891967807e+01  9.9792724874980379e+01  9.9439164377783442e+01  9.5861637852730709e+01  9.7823002890764741e+01  9.8788017325962983e+01  8.7759775530452430e+01  9.3697135834528751e+01  9.9995140576494578e+01  9.9993802380031653e+01  9.9996708496719393e+01  9.9985180052610104e+01  9.6300242615290443e+01  9.8359588870089738e+01  1.0000089112593409e+02  9.9998726246786205e+01  1.0000116221098500e+02  4.0000000000000000e+01  5.1527247781304077e+01  5.1427456060568289e+01  4.0000000000000000e+01  4.0000000000000000e+01  6.6495786424009211e+01  6.6566121073462057e+01  5.4202234375370644e+01  9.9962073621728834e+01  9.9927701675322879e+01  9.9951869108798860e+01  9.9893329820346139e+01  9.9915436740381793e+01  9.9969415918609812e+01  9.9872871468000355e+01  9.9777146277822965e+01  9.9888114186498782e+01  9.9100564387297666e+01  9.5137027527245934e+01  9.7008203586819121e+01  9.7156755114864495e+01  4.0000000000000000e+01  4.7354216107552396e+01  4.7328879740572781e+01  4.0000000000000000e+01  4.0000000000000000e+01  4.0000000000000000e+01  4.7473371077884657e+01  4.0000000000000000e+01  4.0000000000000000e+01  5.4556249556532300e+01  9.9408133718263571e+01  9.9354198243186275e+01  9.9509224807453791e+01  9.9231395844444393e+01  9.9545039211699830e+01  9.9362882124400286e+01  9.9333527133901654e+01  4.0000000000000000e+01  4.7704118531016356e+01  4.0000000000000000e+01  4.0000000000000000e+01  4.0000000000000000e+01  4.7983939894894036e+01  4.0000000000000000e+01  4.7597675161439170e+01  5.5160997493123354e+01  4.0000000000000000e+01  4.0000000000000000e+01  6.4343828179495588e+01  5.4427597080650912e+01  5.8311594891117856e+01  6.9259584625157089e+01  7.6119481651695779e+01  9.8284082880234365e+01  9.8088865556377897e+01  9.6556356772349744e+01  9.1789587833764912e+01  7.9514759924776840e+01  8.2810568532163387e+01  7.6048457663034199e+01  7.5540298618762364e+01  7.7016697202990585e+01  8.2564603403219451e+01  8.7695215677767663e+01  9.9255418798964968e+01  9.8857213643536795e+01  9.9149561152531163e+01  9.8016924595028684e+01  9.9968901194301864e+01  9.9985782316455669e