<?xml version="1.0"?>
<VTKFile type="UnstructuredGrid"  version="0.1"  >
<UnstructuredGrid>
<Piece  NumberOfPoints="650" NumberOfCells="2202">
<Points>
<DataArray  type="Float64"  NumberOfComponents="3"  format="ascii">16.689264 28.087862 4.681421  17.803272 26.916655 4.99096  17.600401 27.627192 3.75839  18.61260060579744 27.6942864314527 4.341685428840313  18.290852 22.609426 4.42598  17.936068 23.124485 6.088073  19.52747765750305 22.13915941555786 5.540081058334746  19.62913145401046 23.79233048425859 5.32280932844618  19.29003 31.347061 6.649946  19.078903 32.53672 6.848762  20.516321 32.333843 7.080783  20.43282607868854 32.80534576231669 5.19786697529252  10.527554 37.101593 5.012418  10.175575 36.475452 6.27863  8.553705225564389 37.51780019517781 5.746146460656225  9.1101152320465 35.60056369797466 4.686654333314665  18.913067 32.730968 1.706859  17.419348 33.317959 1.604516  17.996798 32.179237 2.285506  18.83043690729985 32.91646389052119 3.356753890621792  15.505844 31.975128 9.866263999999999  14.66376281033778 30.99524058140157 9.257669873316644  14.461843 32.790646 10.238553  14.871681 32.399639 8.950877  12.174349 36.687149 3.402411  13.054819 37.439819 2.723185  13.227704 35.750675 3.101428  11.9426724004209 36.27947408687604 1.744086016475644  9.418782 36.62027 2.76151  10.139003 36.660351 1.696656  10.716097 37.658413 2.579189  10.49146381434701 35.37273828322018 2.82856372696966  21.484169 26.913935 0.735076  22.136486 25.669546 0.03180900000000003  22.974754 26.813484 0.03180900000000003  22.44338484614154 25.45412824219603 2.114305267393645  22.581383 24.367584 5.006853  23.462006 24.338789 3.801003  23.333458 23.12565 4.290676  22.17860262013036 23.47748294706035 3.427233238250511  21.32399467801493 29.46481688486215 2.501692532608772  21.81129594242088 27.61894376984815 2.02912003714918  19.99101717260175 28.48956196332004 3.47517800293146  20.316442 29.100632 1.553422  18.144348 38.558079 3.966154  19.58990445034726 36.56123088616889 3.645538595873164  19.32448472374304 37.84839367045804 1.835738256401388  19.96377088371934 38.52211425438931 3.49966911886391  16.467451 36.838165 0.03180900000000003  15.058802 38.076004 0.03180900000000003  14.75228358371658 37.52210097763763 1.220625024170582  15.99179873801506 38.23747978778511 1.35526893362849  24.024965 26.772093 4.412606  23.813847 27.754816 5.502519  24.977448 28.712324 4.442769  23.65320660407859 28.17129886489659 3.738320164837698  19.254299 31.70097 2.241933  18.1398786279228 31.81053109879803 4.671394254067746  19.60888054445638 30.52771963507711 4.145408915266929  13.47832 24.705887 5.561763  14.279174 23.385265 6.327134  14.743208 24.585421 6.329419  12.9916749859799 24.00806178787196 7.669752923108187  16.066685 34.909496 3.912504  15.641269 33.76136 4.809179  16.75459640245919 32.8258308105836 3.56148371650478  17.53206200961398 34.06475647870273 3.447705239652614  20.653847 40.003617 5.228409  19.817831 39.399994 6.85935  19.203974 38.720341 5.467098  20.634370472458 38.22883940634366 6.183422247546207  19.472628 22.352301 3.728154  23.9489480896031 34.53398785056942 7.947339790751329  26.04003 34.187691 7.932608  24.7607546700074 32.61362962220112 8.099098226329099  24.38137092269877 33.82008621585304 6.522240756380782  8.080991503902705 35.60890325527839 6.985471778119003  24.390762 31.868341 3.725139  23.926926 33.124638 4.149854  22.35972685878063 33.02147181483703 3.935682038259421  23.22005643815945 32.18929002370465 5.618465429950698  18.459883 29.805592 7.018691  18.180218 29.268013 8.212474  17.410721 30.471266 7.885829  16.95295705364332 28.18153714093322 7.515742269411099  20.75993500295389 26.08739868405047 5.149934948623424  22.4834761693876 28.02299939870657 5.746967626249968  22.097164 27.482759 6.678783  22.654032 26.782141 5.890021  18.743303 39.228806 0.876576  18.289949 37.754486 0.03180900000000003  17.33328585518652 38.22372536677907 1.53838246634221  23.233301 35.974857 5.871583  22.241137 36.626652 6.388784  22.110075 36.290401 4.619812  22.03351629490124 34.7740411416124 5.155484253039561  21.40787363719597 24.19509324997104 5.659643441627859  22.886604 22.931318 5.459324  21.202272376067 22.11913042096302 5.948576091520406  21.16716330418489 22.90039911241668 4.410218476680502  16.550137 33.184628 6.061399  17.510687 34.62933 5.25532  18.169704 33.365044 6.423727  13.19814404375542 33.02711569682192 1.810683667281568  14.740217 31.589647 1.212294  13.43524818148703 31.29104172414542 3.606030812482603  12.50340314408974 30.65607948441384 1.431192467216043  13.92093 38.12841 2.360177  14.022358 39.234661 0.878526  14.538574 39.131676 1.817542  9.984585115667512 33.04290307242977 5.137501854508343  11.34651025707172 31.04077451114279 5.38288769640782  10.66151962569877 32.64217152292181 6.576126582869676  10.44273598646105 31.36554558504761 6.803852099577376  21.484606 20.7663 4.281186  22.60822939558215 22.08372118245991 4.067480874910361  15.48086143990301 30.70246113797421 6.621255572532888  14.41479 29.212704 4.322011  15.897653 29.204756 4.102649  15.330141 28.39749 5.644355  10.847799 25.409426 3.089368  11.069634 26.5986 3.046634  8.479767240999761 26.20405535168277 3.570546548263013  9.911683615842529 27.57739044977552 3.659979827992712  9.276771999999999 29.633856 6.452973  9.447265198675776 30.72019129133222 4.861583322947994  12.295793 28.249306 1.240746  12.709311 28.714832 2.25056  12.981755 29.106102 0.907049  11.6402326289041 29.08522107047603 1.580661025386233  24.34314 35.755585 6.852874  23.429255 36.380077 7.293427  23.34433141640934 34.7135510115577 6.514088467252168  26.652733 35.367607 8.688463  25.925331 36.714378 8.744482  25.374493 35.528305 7.91528  24.69921775295409 36.53248727505529 9.793228739840153  17.21744 31.320333 2.607135  16.239573 32.512135 1.842052  12.22189456138678 28.10268653256683 7.456749487493733  13.83317003177802 29.03279156100595 6.78812727161159  11.82962913259609 30.29755255541324 7.565550213091142  13.89735717312728 28.78896822295951 8.810191314148645  18.271935 25.443169 5.698631  18.145472 24.376478 6.598863  20.06901440210858 24.7756130810055 6.864831441593674  18.57857685767936 25.48219763622016 7.362592414958741  22.60369857323582 26.57724991238687 4.011352304007491  23.78994 25.805006 0.03180900000000003  23.071634 24.21842 0.03180900000000003  11.715278 23.271086 9.99976  13.53920630298948 23.49752695535608 9.97174639218621  11.87985659528959 22.55793924587553 7.983141979917574  25.608294 29.032429 6.60358  26.475109 30.243546 6.450508  25.392984 30.017904 5.104867  24.55845650302643 30.98259448225258 6.69719585314574  13.26707 26.752911 10.084855  12.607159 25.505527 9.879447000000001  12.098757 26.616335 9.443954  13.36667160443315 26.79828430744341 8.559088017068234  20.976976 36.638924 0.878719  19.851229 37.140102 0.03180900000000003  19.898361 35.570885 0.03180900000000003  19.82414365679483 35.7478231295985 1.533725939653539  19.127943 37.179737 6.245315  21.52354 37.346413 5.268195  13.9426 33.318897 4.480103  13.16398 34.238014 3.621917  9.616786921401209 27.1172945860356 2.234381030044336  11.36724714926538 29.62053780723381 3.210965659978407  10.98104816025683 32.48957268993669 2.557131031018841  15.367296 37.899124 2.674972  17.064995 37.417847 3.587028  15.797313 36.237038 3.203189  16.01147968028602 37.07794902644973 1.934461950905439  9.949278 31.568977 10.315589  10.338649 30.206455 9.375044000000001  12.12701514166898 32.33622631149052 8.488472885004738  12.60416630243161 31.63410638846124 10.67101810988541  24.890755 32.627083 5.030447  23.56387470351434 32.58139166629846 7.237075516627559  15.22615896128276 27.53289618854437 9.400694371188255  15.01972690550624 27.54024568892974 7.971105872431545  9.968432441688313 30.32276291574801 1.426465402098823  11.940382 33.82766 5.861182  12.22745883728759 32.34291229342482 5.132019696916844  20.849894 30.675564 1.09124  20.05023 31.889071 1.519942  21.2524541125334 31.69109273351405 2.944527472003466  21.89773923082837 32.62010325895541 1.68788828223177  8.901877102395098 28.35083703299533 1.707951865901875  10.43481420657927 28.60952979358298 1.841842419456362  15.752175 27.13343 6.70737  16.637192 27.563156 5.888801  14.243099 36.634689 2.790931  14.581172 27.421574 6.586912  14.914265 26.542496 6.938508  13.84475415930737 26.9737673213215 7.094023133353168  24.339123 38.925652 8.921808  22.753334 38.78471 7.796478  23.907545 37.559719 8.200480000000001  23.45148332111452 38.16104810892301 9.773908256263654  24.422081 27.400351 0.03180900000000003  23.75557656434941 27.00196236001891 2.001305679240452  20.117477 20.8936 7.470495  19.289112 22.075491 7.152  20.507223 22.533796 7.733898  15.49968149798714 29.31575411598177 7.751467164234485  17.05764188055807 29.71475073830138 5.923967201845674  16.76600687241996 26.29494553652557 8.041468129567635  20.305387 34.138302 0.03180900000000003  21.40176 35.160942 0.806642  7.93396209796512 34.35155887543749 5.63903285519467  8.751152045719047 33.99898151689208 3.258762327693951  7.658762716625603 33.29780234383713 4.42731785636049  24.74235296891086 34.76589826012052 11.03271380863174  25.98726370170655 35.94685253932335 11.36740677710839  5.509446 29.933132 3.36918  4.583125 29.63793 3.774679  5.393256 28.362551 4.979815  5.881182 29.629416 4.985283  15.83363899599377 31.34442333300724 4.702787023609022  13.78118160464586 31.61991227580705 5.846915251949903  14.740161 33.107498 6.045493  12.36105777463429 32.18872007045432 6.58440898565148  21.242388 40.003617 6.996314  20.251099 40.003617 7.992335  20.69342256074667 38.72027354585431 7.587220346861808  23.262768 33.000805 9.276819  23.788136 31.898056 10.167171  25.05759551034437 33.9560169796686 9.519139086324433  9.832333999999999 38.023758 3.319113  8.289339 37.030483 3.751945  5.265579 30.777672 4.050226  6.294818 31.121582 3.067838  6.24268 30.831484 4.853426  23.95850749711117 29.12054050241488 1.91643371852515  22.59439118105243 29.97978544540139 5.033458140361607  21.465582 40.
[...]
<PointData  Scalars="c_HbCO2"> 
<DataArray  type="Float64"  Name="c_HbCO2"  format="ascii">6.2275795271499990e-31  2.4366639349933685e-32  -1.8513902196798829e-31  -2.6887121278276813e-31  5.1469324499221806e-32  -4.9404672823368861e-32  5.5635407992257684e-32  -2.9942270488460815e-32  -2.6685629880327119e-32  3.7373490348318481e-31  -7.2763826662585775e-33  -1.7526198712686993e-31  1.3662484153256640e-28  -2.2502987240516085e-27  4.0249541775802219e-26  -8.2274280404038176e-27  4.1764963350993073e-31  -2.8036938786469620e-30  -5.2517691490482257e-31  5.0737934140268082e-33  -1.4795171301896665e-29  2.6704755566220332e-29  -9.7284305235753454e-31  3.9618853147508016e-29  9.5475780897636827e-30  -5.3319266517031092e-29  1.1264801169452406e-28  -2.0722720707806820e-29  3.1838572060272866e-27  -5.6069897738917972e-28  -5.0484597403663780e-28  9.0804364744650821e-28  3.2723461347924485e-34  -1.7958163906974786e-34  -1.5468020433990833e-34  -4.6940908945869866e-34  -1.7374538313605662e-33  -1.6640774456515534e-34  2.2542523443488800e-33  -9.1196119671715607e-34  6.2991966985534929e-33  -1.3986241895552206e-33  3.1988140720048586e-32  -4.3393946242543228e-33  -3.7339815206774780e-32  8.0069423053655118e-33  5.3693356779573129e-32  -7.1785388710710553e-34  5.2979779663168971e-31  -1.2720752047379692e-30  1.2397059266258804e-30  1.3724810022655724e-31  9.1691436600282242e-34  -1.9300360308075782e-33  -4.9116355459386040e-33  -5.7865818074357416e-33  -1.4466870888839753e-31  1.4804175105439473e-30  -2.5624577867177583e-31  2.6311063155419890e-28  -8.5292873256907918e-29  -5.3743696690589682e-29  9.7396476033236543e-29  -9.0249639484042033e-32  1.7379800833887450e-29  -2.2906305033514094e-30  -9.9579220582441002e-31  -2.5461435386410088e-33  4.9968291089293484e-35  6.5895908390520750e-33  -1.9653486357619833e-33  -3.8983004470394392e-32  -2.3596741263091730e-35  3.3982078647593772e-34  -3.3422595634666994e-34  -1.6667807329832905e-33  1.0883711155102889e-26  -2.4132870417862167e-32  -1.1998684204349925e-33  1.7181048489071122e-32  3.2898136832125150e-33  3.5022305096147949e-30  7.6239348499827494e-31  -6.1825128768875613e-30  -1.2999480051482366e-32  -1.1772597598872688e-32  -7.6502334232550349e-33  6.8097169507313722e-33  4.7748555206395964e-33  -1.9308194422660220e-33  -2.7268023910087454e-32  -4.6758606614900256e-32  -1.2553793131031066e-33  -2.5266273108826858e-33  -1.6236374005856967e-32  2.4915009983983271e-32  7.8936205290888853e-33  -6.8725866556665944e-33  2.7242391531341173e-32  1.1234169264309167e-33  -1.2251617191417000e-29  1.8366658997834955e-31  1.2411190794222351e-30  2.6975910922935225e-28  -1.4365090509395826e-28  1.2460883359888968e-28  3.4870278813244558e-28  1.5123578915821689e-29  5.6782340394354980e-30  -1.9843374349804781e-30  -3.2722027278489361e-27  -1.3042233562315837e-27  1.4045285197259075e-27  -4.3223343883806998e-27  -1.8434872882803180e-33  -2.6092852628890602e-33  4.2059249192782334e-29  -1.0094184496916880e-28  6.1842820006556245e-31  2.3384230923707498e-29  4.0793445590292500e-27  3.4404960588078670e-27  -5.7820376295829601e-27  -1.1996585948051165e-26  8.1025388176344308e-27  1.4722119349314232e-26  3.9023713775318210e-28  -7.6206194276853072e-28  2.4460831116788917e-28  -7.4825937229029069e-28  8.1514766126765749e-35  2.1416759532764910e-33  -2.4153551717714671e-33  -3.5265159261706268e-35  2.0509632551141029e-35  -1.8399275755570440e-35  3.8077022995357598e-35  -2.5527496464012665e-30  2.0186866345806820e-29  -2.7243397881625916e-28  -6.8275878487447742e-29  3.4517788909735229e-28  3.7607489403205773e-31  1.8046293606244565e-31  2.4918234293084086e-31  -4.6911144737774482e-32  -1.3124290146262702e-31  2.4896773362482967e-33  -9.3512755615783591e-36  2.9485019597159301e-35  1.4345229566422298e-28  -9.0646982882924043e-30  -3.2611590190742295e-28  3.3378811295011491e-33  5.8706610495190014e-34  -6.7108274636727907e-33  -2.2493278577051538e-33  -1.8092291679006419e-29  -1.6364334792708043e-29  5.9482076010657455e-30  5.3988596128633242e-29  1.3050780480666039e-32  -4.5306335518493042e-32  -9.9144257441054274e-32  -1.0762277508230640e-32  -3.2079322766735559e-33  -8.0414354521271272e-33  -1.8481277554091969e-28  2.6691999764856321e-29  -1.2918133972601533e-27  7.2640716024630593e-28  -2.2987516702546771e-27  -1.2858377599039324e-30  1.5504934736055460e-31  -4.0505121308825540e-31  1.7924201331450685e-31  8.9125786475133314e-28  -3.9790719240478222e-28  2.0070165492987738e-28  -1.9349994801767337e-28  2.2984062064913792e-33  2.7095582254933124e-33  3.4074714260308605e-31  -1.6559674849945310e-29  -1.0118074179792968e-28  -4.4367093635598347e-28  9.5572442444071561e-28  -1.7915946294324257e-32  -2.6274384555096236e-32  6.2788268046708288e-32  -7.5645215532856442e-33  -3.3655649742774741e-28  2.6827586639053737e-27  -2.9696225167309261e-30  -1.0380988142958058e-30  -1.9026228847215698e-30  1.4993949453993989e-29  -2.8200948252320014e-29  1.6154238954744473e-28  4.7815340198042979e-35  -4.4857423159291130e-34  1.7625474958397294e-35  4.1928608793759764e-35  1.5272507617343691e-34  9.1874769344405733e-34  -1.4717163943945916e-31  -2.0077983565141075e-31  4.9354921721574436e-32  1.1207755344192714e-29  -9.8214468400145954e-30  3.7828297345096376e-30  1.4637917330770674e-32  1.8782695517815404e-32  3.4900695487353635e-27  4.9811605536003183e-28  -1.0863434625230965e-27  -1.7299640830797108e-35  -3.4109276307900062e-36  -1.3777794317370373e-24  1.7458413256907509e-25  3.0200179794283985e-24  3.0340063565376720e-24  1.2772487947943273e-29  -1.2629408806725838e-28  9.0788417297649986e-29  1.8229914811777436e-28  6.5335746824754701e-34  -2.0131751069387235e-34  3.6106068548367727e-35  -6.1460243704498833e-34  -4.8184839754186644e-34  1.1668349034144834e-34  7.1664870563146935e-27  -2.0213531384404941e-26  2.9890688800209507e-24  -6.3488090594977632e-26  5.1893142753875531e-25  -3.2796766145044458e-33  3.8444919294591958e-32  -9.1663393058238995e-37  7.7505033884540721e-35  1.9891841981322150e-35  -1.0169862545389700e-32  1.6866554171052547e-32  1.5081624770315753e-32  1.6073058967160851e-31  -1.1696189351562539e-28  1.8168139014327362e-30  -2.9345492977841617e-34  -4.1105246602965517e-36  8.2157506396606926e-32  7.1162718875086607e-28  -3.2657320777441505e-34  -3.3939725981227170e-35  3.6937774525996483e-32  -3.5100409557823076e-33  -9.3725492023799726e-35  -2.9946928797344903e-34  3.2531792655661325e-34  7.8583839119750899e-34  -1.0074686172639841e-28  -5.9973626049440058e-31  -4.2093520865618918e-30  -2.0039140280264931e-30  7.2467900085225793e-32  3.0673114607321471e-33  -4.3364642847656799e-32  7.7686574492732933e-33  7.0077090784095853e-32  1.2249179213714414e-32  1.2155931242593634e-31  9.6590789314289521e-32  2.7948890780701796e-31  -4.7355369976405843e-31  4.4094725231811900e-33  -2.0295277024102676e-32  7.4394526384284721e-29  -3.0796391097512549e-28  2.6203271251207976e-31  -1.0005314067383971e-29  3.1685497381931105e-27  5.5363459733673262e-30  -3.3338338236685997e-29  -1.7052874908019793e-29  -4.5094048330584311e-31  -3.0523993222941866e-30  -2.1153605828603769e-32  1.6834712189224577e-32  1.6315852299110145e-34  1.8927402546876995e-33  1.5781870271503725e-26  -1.2808090352502317e-26  2.2958514099064825e-26  -4.9652695349331298e-34  2.6289105473980725e-32  1.5639965230178254e-28  2.0456126806018595e-29  -3.0250055584696426e-30  -6.2158288500609558e-30  2.5634686359557728e-30  -7.7567159060512376e-30  -1.1997252131048832e-32  -7.6877395315812325e-32  1.2144320860356319e-32  -4.0586199200485326e-27  5.9885830067364933e-26  -1.1305778101818117e-25  5.1531918945819714e-26  -3.1863494718149377e-31  -1.5535078362335079e-34  3.2245179716906030e-32  -3.9268181915605803e-35  1.1694995293412904e-28  1.6287792396636880e-29  -1.0547816551021345e-28  1.0230938937149956e-30  -8.4333899643210181e-27  3.7328709642202853e-27  2.2723721211336591e-27  -3.7023657111500387e-32  3.3433056634333071e-33  1.7234665834651240e-33  -8.3208474284497049e-32  5.3282289030203099e-31  -1.1732421436147832e-31  3.0697136584057774e-31  -3.0490217908739523e-32  1.0210924542591670e-32  3.6459641607457554e-32  1.0508553584820473e-33  2.0587565971843779e-32  -1.7597988927543190e-34  1.3335526804092775e-34  4.4820579268631522e-35  -4.8771367621136481e-34  1.0461307460562193e-27  -3.9041890387208274e-28  -1.2650427659072015e-27  -1.9693419890363693e-28  -3.2158068022634648e-33  2.6027607267402492e-33  3.6758104683679992e-33  -1.5748908721103047e-32  -6.2086468191284405e-33  -1.3571053906032752e-32  2.0499476766873925e-33  6.8354651175322313e-34  6.1283762224726819e-32  1.6130075605045568e-32  4.9958125720942845e-34  2.2385735923394145e-26  -5.0567631363489978e-27  1.9547972544671100e-34  2.3274685909016798e-33  4.8579022132376371e-34  -3.1640589311332038e-33  -3.3586845456575582e-33  -1.0153909018387179e-32  2.3606538682243750e-32  -6.0811264819158280e-32  -5.5892410273879031e-32  8.2129814627116346e-30  3.3873378373151367e-31  3.9604552230522156e-29  -1.6397593443945380e-28  -4.8144675665009478e-33  -1.9397325540350997e-32  -5.8555159180053287e-33  9.6442668249186217e-33  2.7098019862684822e-28  -1.0113159199298801e-26  4.1136003743470097e-26  -2.2124454349018404e-26  2.2652515963926172e-27  8.1793556407553141e-28  -7.7986363779216705e-27  5.9789450250766232e-28  -3.7481394400801319e-28  9.2775558826443652e-27  -3.9909050244739854e-27  1.7343187317904949e-26  -1.8178960964630989e-26  1.0284209851763854e-28  1.5090529375445742e-28  -1.0226905297590806e-25  3.2188046467366685e-26  9.2459581766187413e-29  3.7207949978746624e-29  2.3295362500772891e-29  -3.0322641945332100e-28  -3.6567393270490739e-34  1.8506158957334465e-29  -4.1126409731792783e-28  5.5283385387292483e-26  8.2640793629943627e-26  -1.7033518432220216e-33  -4.2299392588026285e-34  1.7507286780555154e-33  7.9429877362068996e-28  -6.1293767838863465e-31  1.5751612882691915e-27  2.8472429060605987e-30  -4.5219542743035560e-33  -1.1816661865750417e-32  -3.5745263249898132e-28  6.8426863275675203e-28  -1.3313063566499307e-30  1.5293715871256497e-30  3.9224618302325100e-29  -1.6238926972763947e-32  2.5365452176100049e-32  -4.4320579016497298e-33  -5.1406878562179190e-28  -4.1911533811806488e-28  -1.7284038357491209e-27  1.8275351582056463e-28  -1.1265358787822914e-28  1.0611203567429032e-27  -8.3766897215615418e-36  7.2871023515481951e-34  -1.6566674037410663e-34  2.1423033722194220e-34  2.4399674725710144e-33  -2.9177898823975713e-34  7.7045114054168019e-33  -1.8713333038649534e-27  -1.6429778671614354e-27  -5.9307387209163106e-27  -1.6078264615243596e-31  -4.7551702041277226e-32  -1.0595980243611577e-32  -9.7682415665527485e-33  -9.5798935670251820e-34  1.9686065676228951e-27  2.5507874592699964e-29  -2.3010923598002651e-29  1.8058540431592159e-33  3.2462173018795929e-33  4.3167461357800813e-33  -3.7644652389150321e-33  -6.4196502466730340e-33  -1.3850176607754231e-32  2.3767974371016607e-32  9.5113058686117319e-31  -3.3592023095449065e-31  3.2626011550888381e-31  -1.2528540987438132e-31  5.5424232908020686e-27  -8.7884021947889237e-28  -3.1027766174142093e-30  -2.9128943267767640e-34  2.3677616941084290e-31  -1.0781546722295549e-28  -7.6557863340729208e-29  6.4251706655772034e-33  5.2543654448564440e-33  -5.3951072803598424e-31  -2.9488919990041062e-31  2.6552835041518379e-26  1.7659135496172894e-26  -4.6348093461810364e-25  -5.8675596741911096e-35  -4.7043207622194672e-35  -9.7867280789317096e-37  -8.5185242415882032e-28  2.1315340252646974e-27  1.4175134240780677e-26  -1.7536937775732214e-27  -3.4256982192157105e-29  -3.1031043316361459e-28  -5.1994568336061326e-31  -4.3880524470590445e-31  1.5191598847020658e-27  -3.0353417991963874e-28  1.5300648822284697e-32  -1.0404347607389528e-31  -2.7055578560997551e-33  -2.0625326753777300e-32  -3.5045252873196872e-35  6.0489116318142838e-29  6.6810887969579015e-28  1.3938237896614775e-27  -7.5062998138580596e-27  4.5485062686386905e-35  1.2817622853355613e-34  -2.0046335771088937e-33  8.6195680315684641e-28  -1.4121098797259743e-27  -8.0745315509536396e-36  4.6501443809706528e-35  -2.7415935745793908e-35  -2.4363239629184443e-36  1.6276970000004599e-29  -2.0200171252042108e-29  4.4679203857815951e-31  3.4832035139581539e-27  -1.9536790501700611e-30  2.9997050998975124e-27  2.2163563220960687e-26  1.0823888864705275e-34  -1.5810147874866709e-35  -5.6874339591343759e-34  4.0687787959870491e-35  7.3527528198612239e-27  1.7267064479679238e-29  2.8431143659971020e-33  3.1320949577685137e-33  2.4650658320620689e-31  -7.7476716906913905e-32  -5.3412186272803464e-32  2.0416356664508913e-31  9.4947469310784717e-32  2.9714332926462771e-33  3.3461852992895919e-31  -2.0804491670950777e-29  -1.6946521563736741e-32  -2.5458591088044734e-32  -2.7697073708665599e-30  1.8158075863330928e-29  1.7165576417513868e-30  -6.3889624025056744e-30  -1.3368732480043608e-27  -9.5498400662120454e-28  4.4772221833617243e-30  1.7855617318254987e-33  9.3390461247722570e-34  2.3663279394658629e-26  -2.5111490782201316e-27  -2.1524299701924265e-27  6.3892638562968482e-34  -1.7407229503506998e-34  2.7659220728299258e-33  1.9517693259870128e-33  6.3131064200907453e-28  -7.2493991758286554e-33  -1.6740411521892660e-34  1.3454165486174587e-28  -4.6184261980194962e-28  4.5688216857264017e-28  -9.1660447140570505e-27  7.5962275490279893e-29  -1.3576482776098297e-27  3.9414767536023906e-28  9.5492918240876707e-31  -2.4409946515538880e-25  -9.0969674996333479e-33  -1.5024477707423558e-33  9.6621896963812140e-33  -1.5874699370318301e-30  3.9368926837086443e-27  -1.7820873036833122e-27  -1.4844678424985688e-25  -1.1940823554731471e-29  8.5230542927728805e-32  -5.4644968153824470e-33  3.0805327026538970e-33  -1.4607624526580812e-32  7.9345572371762467e-33  -5.3601657113854112e-37  1.6694514054923238e-31  1.9962803489820422e-28  -5.7538822791800438e-28  -1.4628181055162731e-28  9.2058833445024233e-29  2.8651399457405711e-28  3.7496055363162379e-33  1.2045280569217463e-33  1.9820388207477085e-33  5.1065888581712968e-34  7.7847522493891061e-29  -9.3358880694104799e-27  -1.2273297751262860e-27  -1.0578012403944763e-28  3.3230396885887776e-36  3.4630396950011810e-28  3.3132776778824642e-25  -2.9273589146465492e-24  -3.8872310362880615e-23  6.5503323929922626e-23  -1.7065706311136376e-28  -1.7462989750668492e-26  -3.0246431459985488e-36  -2.0073593092483813e-33  7.7680151381757764e-28  5.3740489925087450e-34  -9.1625032899205174e-31  -1.6588617285273975e-30  2.9867949776653164e-33  1.0291132608162407e-31  1.4231906710415819e-30  -7.5057165838251033e-27  1.3092418662843825e-28  -5.7527781865725295e-32  4.1688874682998175e-30  -8.3061601275483781e-32  4.1907226921595496e-32  -1.0310556446228217e-33  -3.8930270005775894e-29  2.0900443105080814e-29  3.3102344746385050e-28  8.4785331887415027e-27  -4.9686368368592217e-27  -8.9357234974520696e-33  -4.3615320851702476e-30  -2.4596540976182836e-28  -1.2263715390159403e-29  1.3637531428609147e-32  3.4603597326547222e-33  -7.1114701337196775e-31  -6.3577708762987475e-30  -8.3947276215380793e-28  -1.1112190003688821e-26  2.2061700433499647e-33  -1.5018940016758029e-29  -1.1748371682577416e-28  -8.1686105344728690e-30  1.9848765682282935e-31  -3.6816211549509798e-26  4.4065037206973655e-26  -3.1574562793795645e-34  -3.7663170947255466e-28  1.1304857380439805e-28  8.5097218877984710e-34  -6.9290402757012823e-34  6.3398281270916147e-28  2.3512202737108654e-27  1.0418414789801898e-34  2.8878291805934374e-33  1.1002036690611117e-26  4.1310450031984570e-33  3.6056749871457785e-32  -6.8872324384263394e-33  8.8451473719853755e-35  -1.2313835046210473e-30  -5.9460184272478851e-27  6.6753340668797037e-31  -1.6466803223958526e-32  -5.9389377537060789e-33  4.5423750311242803e-37  -1.4566975675710818e-32  -2.5162729132348461e-31  3.6736497320451684e-28  1.0778138011426504e-32  1.6141223836495132e-35  -1.2923954235820208e-32  -9.7459153817181599e-29  -3.5187380737980840e-32  7.8263613249205204e-35  1.2601247614410908e-32  4.0147821187261525e-27  </DataArray> 
</PointData> 
</Piece>
</UnstructuredGrid>
</VTKFile>