<?xml version="1.0"?>
<VTKFile type="UnstructuredGrid"  version="0.1"  >
<UnstructuredGrid>
<Piece  NumberOfPoints="647" NumberOfCells="2119">
<Points>
<DataArray  type="Float64"  NumberOfComponents="3"  format="ascii">1.94901 20.12051 21.513597  3.878021807445372 19.28318309855155 21.52262426538138  3.717435871062236 21.03510333841442 22.3288406546044  2.790950031577306 19.75197003392619 23.00707691568793  6.042869 15.602733 8.488417  6.868001526110733 14.80300069729249 10.2948421709327  5.696989 14.035275 8.999413000000001  7.914386996147353 14.73161335713953 8.600378306605915  1.581301 20.257883 9.745307  2.410212 18.94964 11.166793  3.297106 20.140476 9.822196999999999  1.778169124609136 21.06102915602328 11.1783700543164  0.02680700000000003 15.13814 19.980547  0.694232 14.071859 19.307213  0.02680700000000003 15.162457 18.655331  1.632046912466678 14.91536293985825 19.27355965439559  10.86953508453429 26.16772754504927 27.25014401375098  9.744802732829816 27.76499425316915 28.22804614957508  10.248037 27.151585 26.049356  8.949819 27.23411 27.524057  0.02680700000000003 23.550537 27.819399  0.764763 22.644672 27.826822  1.664134621025515 23.37633461093433 26.75038887463403  1.756580265155169 22.93406388867158 28.02831800347363  7.731139271748193 15.37261636647075 12.28524753197804  5.632441056138799 15.02865203157927 12.07046961428611  6.322333743279195 16.45138937450873 13.67758764260342  5.869731370736135 17.40975346857281 11.91703072306095  6.390335373835473 14.47273484023742 14.67479206197473  8.577643471841389 14.78685184313636 14.54440214858186  4.038899895822237 18.99462615165189 11.81873264996385  3.345284627883075 20.48072871061609 12.43341079131708  2.789471072989422 19.1446459184935 12.69165069178368  3.34878 25.157225 19.379133  4.377492 25.042206 18.826677  3.231803386576169 23.12792299824329 19.20803203258031  3.179247923952101 24.19689325945012 17.58004827539107  1.596517 23.627493 20.192249  1.310247 22.341372 20.428564  0.697731 23.09848 19.3281  6.567558 17.009865 30.984125  5.517309 17.640806 30.691559  6.845605 18.20541 31.181265  6.52234222462245 18.43862054557491 29.6537930143415  3.302304 14.23271 19.460339  4.438506 13.750543 20.316559  4.312820684480341 15.5299426731371 20.02553586537253  3.377188023640557 14.4752601282951 21.15495831252358  3.512146 19.143234 24.414234  2.427891017596238 20.97233088015217 23.97939452880911  2.44904457071215 20.54439833257412 25.60242301515509  3.909334 20.827328 24.91428  2.382906 21.858818 22.906555  1.768822 20.565317 22.475273  2.0869 21.605131 21.621403  0.794529 21.657116 19.355013  5.49693 24.761221 20.459753  5.124176 24.252865 19.235117  6.082941 23.80669 20.393366  4.886947175633642 23.54584591138755 20.42458776436498  1.224364 23.066236 29.268156  0.662416 24.571497 28.672291  2.543260281390609 24.4473531632908 28.05630469855596  4.503622 23.491222 16.966305  3.567463 23.868361 16.120028  4.227173 22.553837 15.922651  3.487630687683333 22.72564153029639 17.11357992157844  7.687885599223608 17.42533797310925 30.19136189657393  10.60965 28.487808 25.676882  11.83977729882656 27.07678308215365 25.75119836568499  11.379796 27.691156 24.931507  12.933244 26.907495 27.161331  13.350389 27.520582 25.984856  12.84401 26.015574 25.271019  1.648366 19.04339 20.539394  1.000154 20.191893 19.340883  1.496617 20.885506 20.487038  3.065201720776472 20.09385159783359 19.33908780187606  2.780961 15.232459 10.640915  3.367644 13.856372 10.576126  3.476057494508983 15.19323286745584 12.3022677205413  1.917975921332274 14.04793155220025 12.31404088534421  0.661976 17.918301 18.586088  0.02680700000000003 17.215652 17.366135  1.249680971297046 18.93085495693263 17.55381596231609  1.440010306581762 16.62475412733215 18.46081309121604  2.075296003316874 21.99945819335061 25.48338446126326  3.312441992075409 21.7054261179279 26.38086641346997  4.070892 22.35112 25.56319  0.02680700000000003 22.2782 18.01985  1.992375524066167 21.25824006240157 17.81948571790149  1.541753923455519 23.45591922953062 17.9963552122374  9.186809999999999 19.246178 23.665035  8.575179 20.18189 23.077105  7.713574 19.800556 24.085297  8.662049295173164 21.23784588487537 24.56369599904045  4.216159626067883 18.24074211119196 14.84119874838804  3.701231839397729 19.23112074106864 17.03166311855471  3.684527678085654 19.8593051580202 14.40323362611896  1.821473272392426 18.83727722177242 14.94538579674027  7.833122 19.300476 30.7115  5.771876239642673 19.68292274412986 11.38608644585325  4.791118055580794 21.55543496097842 12.4827632392042  4.867027276005956 19.6807364395193 13.00973171834966  6.414342 21.19602 12.665215  0.02680700000000003 17.860554 14.511072  0.02680700000000003 17.215513 15.931623  0.02680700000000003 16.26515 14.22728  1.504349491200622 16.60281764364348 14.4676462278143  7.865451 22.874168 24.85261  9.986720836051662 22.83975034876502 25.4348069117631  8.371057761180737 22.70603671067104 23.46958213523412  10.199379 18.342339 29.259592  9.434476999999999 19.670547 29.451  9.371013634451764 19.68627216164385 27.63946327555692  8.12538451492634 18.45917001589768 28.74012768180294  5.320593 19.698261 31.643877  5.954987 20.691177 31.453377  6.556096 19.494474 31.113197  5.367728566345024 19.74869412712878 29.8605517206555  5.081267 17.634922 10.255843  5.887248 17.095032 9.298994  7.164268901840414 18.46880819187986 10.47682978344408  7.099431934618845 16.31724153985933 10.24700561467892  6.437063 19.790709 23.317284  7.679268 19.131699 22.546087  7.840751 20.68432 22.148258  5.38156 21.307997 23.653627  5.237854 22.772715 23.236561  6.582527 22.441574 23.969784  6.77347675818498 22.72422233493602 22.48146207644853  1.399366 19.506346 25.546223  1.963374551066935 19.65333664468886 24.34316288092102  2.675724 19.363098 25.914106  1.195716 13.334746 20.360147  1.855316918061062 14.46289386730188 21.6054749360245  4.282037 18.374538 23.269331  4.710309 19.762974 23.284229  7.228482 20.790501 30.486813  6.264016533080285 21.31226640982727 29.44624725511282  4.372606692369326 21.34304695111044 18.33046250201665  2.768975325908286 21.18245529282747 20.51134258994755  4.221273927403874 22.14377981035323 20.45981707403028  10.287296 25.599926 25.786068  5.503834579264086 22.24557641725591 21.70742304141975  1.020627 19.843258 23.253395  0.02680700000000003 19.716267 24.399862  1.17876468726483 20.60172994527769 24.80173739639722  3.584855603525947 16.1325832916291 21.97449003872513  2.222089632651209 15.78899451683231 20.24012823048869  4.573042 11.652337 21.81654  5.539625 12.632666 23.231672  5.722532802363206 12.73148121021593 22.2321698709343  4.313880979333044 12.93596937327963 22.77459161902787  2.059968 24.323631 15.598954  1.953043492197793 22.74495871132916 16.24888982869769  7.507118 17.987558 26.454699  7.919944907587695 20.07799874916005 28.6462980775665  12.520967 27.779728 28.814775  12.345116 29.145334 27.789717  11.49042910858751 27.98665046697701 26.93526878604365  10.533118002486 29.02919769693375 28.16299148657963  10.04997419069706 14.08072481455365 13.10571870417868  9.732885626140263 16.33376037228627 12.86609769886472  8.646396408149835 14.39490994053315 11.21262746023694  11.198967 26.200565 24.787338  12.18645 26.789845 24.32514  12.38070290058183 26.22093920373355 24.16206795255782  7.329278 23.765625 28.280434  6.302627 23.848297 28.598303  6.848693 23.181852 27.562973  6.571002658369143 22.68420747990353 28.4931367068945  2.908775 25.273973 16.469236  1.492455 25.506792 16.074106  1.772013349011424 25.251978920767 17.67715583065335  2.981276632508539 16.68805597480505 16.7061324552185  3.277214433827494 16.68231105869488 14.12783814468566  4.641455794313951 16.68844605374258 15.05891209617111  3.258952356163415 15.25857279044959 15.11822180941772  1.017466 18.929949 19.320772  0.02680700000000003 19.444744 18.237234  2.684196533320725 13.46677050861513 22.82793688126465  3.675785 12.258343 21.74663  3.246394781939962 11.9565868268149 23.39082594479408  7.686378 23.432194 29.07048  7.37994 22.305698 29.870256  6.450421 23.37804 29.836666  5.174394 18.237226 28.103977  4.623401 18.146519 29.64719  5.489064 17.31628 28.721741  6.194616 22.127964 11.404417  4.463441293388455 21.20875924663716 11.40401857187629  0.02680700000000003 13.991129 23.038816  0.9111590000000001 13.747572 24.508137  1.574672196852772 12.59506526824534 23.69351216179657  2.093124866630077 14.68476242424804 23.67022589360101  3.182656 10.904141 21.950876  3.645061 15.79642 24.04887  2.719788 16.432222 24.609156  3.485523 17.279518 24.009308  2.338046768470424 16.07712765273353 23.1528754909793  5.462263 21.689562 13.545788  5.555989 20.506575 13.961129  4.096440076364398 21.48759529544042 13.60764013161241  10.072031 28.337429 30.100527  8.787663 27.616949 29.689837  10.56605648902569 26.45372516081388 29.97680919423946  9.827256999999999 26.788769 30.714151  10.577962 30.684263 27.574581  9.888596 29.838314 27.043715  11.393475 29.866844 26.675579  8.88143 18.034828 12.898233  8.113716524565 17.09129870684323 11.73421505064172  7.952881042211009 16.83153068617638 13.37260823621948  0.02680700000000003 18.443602 17.11491  0.719334 12.730068 13.005406  1.866181 12.41795 13.100819  1.397916 12.403951 12.2368  2.556718635719484 21.93088908586851 12.53444340672298  1.512904713205944 20.49381311241052 13.42716023088257  3.6916 19.652748 29.553938  3.389759 20.265495 31.343168  4.371922 19.306507 30.920502  4.666235823561526 20.72649038211345 30.85370541893734  5.161326 15.535846 16.528599  5.719816 16.434467 15.766082  4.92960308626346 15.46806327740369 14.50688062701292  4.32869639171026 17.78377997400301 13.28771323004242  3.667167 17.383717 11.117021  4.196144669134026 16.26656996666676 12.09192218108296  7.448172 17.597387 14.053031  6.860974 16.480877 15.25408  0.8465 15.982317 21.456606  0.02680700000000003 14.324203 21.167664  2.823605 20.777576 28.345194  2.859633 21.002542 30.301781  4.602271530747457 21.91493231139524 29.27153531300199  4.472191 12.698119 14.051065  2.81
[...]
<PointData  Scalars="c_HbO2"> 
<DataArray  type="Float64"  Name="c_HbO2"  format="ascii">-1.4456368149490096e-19  -4.6031115327519059e-20  -1.1808956091933268e-20  4.2220950707152298e-20  1.8065370290593640e-22  1.1104851096278606e-21  -2.5676985044140788e-22  -2.8345514078458723e-23  -5.5389063996661619e-19  1.5517004981979273e-18  6.1945746552299476e-19  -3.8508667812632361e-18  -8.4968498449994469e-19  -2.5172403478247700e-18  2.0000000000410616e-17  -9.9566235947044310e-19  2.5757165011775269e-25  1.5338763512516819e-23  -5.8903801488990407e-24  -8.7557156223269835e-26  2.0000000000410616e-17  -7.5504019801004306e-18  -3.2488173172532334e-18  -2.7264695790719264e-19  -1.3416872577143401e-20  -7.2126002928323749e-22  8.6699299099172722e-20  4.9301541967164871e-20  5.6641054582828318e-21  -5.3324927326071490e-21  -3.1460541844078030e-19  7.5254522705386889e-19  2.0930380026527912e-18  -3.9258396790882343e-19  -3.3731579557422080e-19  7.3965341803027654e-19  6.4282646574660883e-19  1.2844684888825838e-18  3.6838587881447259e-19  -3.2465679738177150e-18  3.6586380128564726e-23  -2.6992044791624120e-22  -1.1771745293752034e-22  1.1116880255702677e-22  -2.8909213297298949e-19  7.6102291608842770e-20  -5.9105372137627004e-20  -7.3498952095183618e-20  -8.8898899269800843e-20  9.2771735471890292e-19  9.9312819737833150e-20  -3.9001031051729395e-19  -1.6750570645382675e-19  3.3856074851971476e-19  -9.8454609013665842e-20  -1.6137652129156890e-18  5.2034578040527473e-20  -1.1928079116277809e-19  1.8705015207399575e-21  -5.6505655244604750e-20  -3.8238746549897078e-19  -4.7938280125838399e-18  1.3832714718438131e-18  -5.4319816681420733e-19  3.3801737426307680e-19  -9.9564058374364610e-20  1.5294526152125125e-18  -9.0966885825988353e-24  -5.6071681900195671e-24  2.0722011375036824e-24  1.9330588811297736e-24  -1.4026751845487351e-24  1.0837987262378513e-24  -1.0357592586925093e-24  -3.6043716790930042e-19  -2.0604937676301182e-18  4.3647349503102244e-19  7.9614066001052553e-19  1.5964567441097018e-20  1.1935906796932831e-19  4.9765895387810624e-20  -6.5559860580450353e-19  -4.7362887562201518e-18  2.0000000000410616e-17  -6.1484995962809006e-18  -3.3144012288995897e-18  1.2012353583114654e-18  1.7561978847025551e-19  -3.0158410702179208e-19  2.0000000000410616e-17  -2.5867694787159414e-18  -3.7283211403079394e-18  -2.1493625277855469e-22  9.5475870279801528e-22  1.0937096095685708e-21  9.7732134415762321e-23  3.8557891455579623e-19  1.9582765714935129e-18  8.3528420254237194e-19  -4.0328444509387077e-18  -2.3977689102312351e-23  5.2472632184557195e-20  -5.1938525029976910e-20  -2.7639159405998044e-19  5.7793677555656303e-20  2.0000000000410616e-17  2.0000000000410616e-17  2.0000000000410616e-17  -4.3685869574646310e-18  2.7696274700236860e-22  -6.9987847429138433e-23  9.1046011467629611e-22  -6.1405996915031576e-24  4.2288227781296415e-23  1.9891289128244112e-23  3.0150884785829926e-24  1.2055309413706003e-21  2.1478956779088294e-21  9.4819135142379313e-23  -2.3078868685228605e-21  -2.2266218088439866e-20  3.7161307634909660e-21  -4.4107994511944367e-21  -2.8926652526423807e-21  -3.4026138122919721e-21  -2.8316273545004258e-21  2.3058824854648263e-21  2.7247251374203505e-20  1.7110837773245316e-20  -4.9859545609379158e-21  -3.1914946260832584e-21  2.1005632865938742e-18  7.7901115391890688e-21  -1.5165326151596127e-19  6.2146152337122376e-19  7.2304117229251927e-20  -8.4350274526070985e-21  2.5116297120792657e-20  5.3693162527293688e-22  7.4346476794181993e-22  -3.1795502512403483e-19  1.6408296010217046e-19  -6.3946140216231720e-20  -5.9295669597509175e-24  1.5518078245117187e-21  -2.6724735372934113e-18  2.0000000000410616e-17  -5.0511066707407415e-18  -7.1985187448489756e-20  6.2155460478257731e-19  1.4559377501890482e-20  4.0095053482225676e-20  -3.6092603017951772e-21  -9.4443447236610920e-20  2.9348926832081241e-18  -5.6969456117225415e-18  1.0968726334576003e-23  -4.8171292680154224e-22  1.0574886265800689e-23  9.1171587889309192e-24  -1.0379090238120358e-25  -5.8519893008634493e-23  1.7413236942962260e-21  1.9578417247078854e-21  1.4957154551707008e-21  -6.2907849944975226e-26  -1.0430790739473304e-24  1.3254128965977125e-24  2.4897943822258580e-21  1.1933343760456818e-21  -3.9163784163314281e-21  -5.5062983036240642e-21  -7.8595004405140133e-19  5.9146490270030247e-19  -7.7480443274977291e-19  -9.6183446714747956e-19  1.1840908432820373e-18  -2.6399492893472901e-19  2.0701826907893491e-18  6.2221236380472319e-19  2.0000000000410616e-17  6.0970322649525018e-19  -4.1786517657736239e-19  5.0199533732203135e-19  -1.0641013765992037e-21  -1.0772415537187445e-21  1.7415700880727848e-20  2.4703455226468478e-22  3.9743257591183576e-22  -1.2305226719042045e-22  1.5162642636060653e-20  -1.4077021982014156e-19  -1.2970537932549977e-19  -8.6501904475979808e-19  -3.5536939121368169e-18  3.5098660081785778e-19  -3.8732635454141043e-19  2.5960680027374219e-20  3.3549697077857658e-20  1.1426039578953063e-20  -2.9348035028610620e-20  3.5124959259651125e-20  3.1078955707543221e-20  -9.4237566951672261e-20  1.2951005251202769e-23  -7.8304370431110070e-25  -7.4688159413968799e-25  -1.2586875867546777e-24  -4.3405343371869002e-23  -1.5111203520006879e-22  2.9104474568282054e-23  7.2799768383789695e-21  -7.5328356187039604e-21  -6.9737777858780044e-21  2.0000000000410616e-17  -3.7660112872024508e-18  7.5720940993649924e-19  1.4607648839321154e-18  6.6947128185051708e-19  -4.9858583151331678e-18  1.4284457089265938e-20  -1.4493274570443520e-21  -1.9768511896088407e-21  -2.6730951767212582e-21  4.5006340756084055e-20  1.1127786783851779e-19  -2.8376138100754679e-19  -3.9680401994024029e-19  2.6683523003962265e-19  -5.4304332449240324e-20  -5.1605669271931254e-20  -7.8251557781762361e-21  1.7065372685713941e-19  4.9831015608971812e-19  -1.1668159837285857e-19  1.5929459367311837e-21  1.8006191171972701e-22  -9.4615005569307478e-20  1.2335204324513427e-18  -3.9619732080702737e-19  2.0734959765624271e-19  -4.8829529298633194e-25  2.2848798341371568e-24  2.8920860441284923e-19  -3.4880806752361129e-20  2.0000000000410616e-17  2.2559287419705789e-20  -1.3353685134095535e-20  3.9460314214289046e-20  5.5014438250744735e-22  -1.4560443778234299e-22  6.1136435188835375e-22  1.0973992013547592e-19  -1.0544180669883489e-19  6.8899614981377529e-20  4.3527528921154709e-19  -5.0929755379328537e-19  -6.1374584182957096e-19  -1.3972142592919615e-18  -1.9452207883445535e-18  -7.4306142159785214e-21  -1.0205309452788745e-20  6.5783189287193346e-20  3.6878584775786692e-20  2.3673150611813595e-21  -7.1155121029327234e-20  -2.5338923962477146e-23  1.4273905795167879e-23  -1.8117967970750895e-20  2.0000000000410616e-17  -2.3128635280851711e-18  2.0000000000410616e-17  2.0000000000410616e-17  -2.3234334301899259e-22  1.7513311452010113e-23  2.6336835685986270e-21  -2.0064983122518805e-22  -3.4619480482548854e-22  5.2923720947246342e-22  2.0000000000410616e-17  2.0000000000410616e-17  1.4274877273246892e-24  -6.4216435959258943e-19  -3.7579168038924990e-19  -3.7459573940156159e-18  1.6339805834895820e-18  -4.4930568405446762e-18  2.5574773772867454e-22  6.1990488765390513e-22  5.1971788000434003e-21  1.7576347566464647e-23  2.8197458764596528e-23  -3.5938200365990282e-24  1.0792551099513164e-18  -6.0047741425882857e-20  3.9979210379472951e-20  -1.6465799577941227e-19  2.6400207535216265e-19  3.8854226061319930e-20  -3.0321414578690494e-19  1.7641480686691416e-20  -1.8498906890691028e-19  2.0773282796222266e-19  -7.6518679128105551e-20  7.0154837154260972e-19  -9.9046928740192799e-20  4.8374327983899129e-19  2.1765764021505821e-19  -3.9854309080504799e-19  -3.8633187785283548e-18  5.6137158773632362e-19  -4.9584597683279246e-18  -1.7054857287615777e-23  1.4093548164061609e-23  1.1875108611554991e-18  -4.7504296466650842e-20  -4.0305716392994936e-20  3.1807980759840541e-24  6.1733204802211113e-24  -4.8090275326698727e-23  -2.0066222516886476e-24  -1.0027700616017056e-20  2.2587908693533804e-20  -1.2519575779384560e-21  2.4613883536588975e-20  1.8388358765099557e-21  -2.2445735526488103e-21  -4.1460036684482312e-20  6.0289674730900885e-21  -6.6602309412785015e-23  5.9249454238257614e-24  3.6494331778187360e-23  -2.4237441016920164e-23  1.3332909606533855e-20  -2.2535128157980522e-20  -6.6585616544528149e-19  1.9741836748416706e-18  7.9357618808826085e-21  4.4962019145236734e-20  -1.3849485163003422e-19  -3.4544570626541511e-20  1.0022297640788785e-19  1.3059270958721492e-18  -4.6500188002042066e-19  1.9947987677638663e-18  8.3986716537794271e-20  1.1937551470869980e-21  2.6390777241358910e-22  3.9226131562395505e-20  1.3469159151230596e-19  1.1251918244735113e-19  -3.1052333910467116e-20  9.1005503522998770e-19  -2.4476361184239598e-18  -7.2860804956330323e-21  2.4411609956263251e-24  7.4984492938660980e-24  -1.7807622485540963e-20  7.8020589950035616e-20  -5.8525259943413574e-24  2.5045148018442701e-23  -2.9497891439035377e-19  9.7614155956505685e-19  -9.3020241564633689e-19  -1.0986972431905624e-19  -2.1727944265728897e-19  -1.2082100315843899e-22  6.2185644565564127e-22  1.2185027863914999e-18  -2.9918981044769171e-18  2.1903327774122149e-19  -5.1579837852796048e-21  -7.1551946513428969e-22  1.8338586100139711e-21  2.0000000000410616e-17  -5.6634687363832977e-20  1.0131898073094585e-23  2.5784261238940924e-23  -6.0018934350175627e-24  -5.1157915484843664e-25  -3.7015018512211132e-19  -1.6737621109915687e-20  -2.5059213282796394e-24  -4.6280392992441513e-18  2.0000000000410616e-17  2.0000000000410616e-17  -2.1275929354104568e-22  -3.5415277473046802e-22  1.9749782248667567e-23  -3.9763226215357664e-22  -5.0323331887732035e-21  5.1001413840115016e-20  -7.1288540871504947e-19  1.9111818602165499e-18  9.4600614697610858e-19  -4.8379156388058437e-18  5.5677801462053949e-19  4.5716135450565842e-20  -1.2212585495687565e-20  5.7776436304316295e-20  -3.2667020425934673e-19  2.4487617799780352e-19  2.0571661633038978e-19  -3.3970763721194419e-19  -4.1635391046633931e-19  -5.3565339102559528e-19  4.1626095504865420e-23  -2.4350336460535876e-24  -4.6895692002338940e-18  2.0000000000410616e-17  -2.9844656081979838e-21  -3.1449756180219581e-21  1.6218099926746390e-21  2.9101703450767850e-20  1.3340643944795610e-21  -1.3623988541450352e-19  1.7049785639401497e-18  -4.1114057401095241e-19  1.6773152587872803e-18  -7.1332218003259074e-20  3.1494645492614835e-19  4.2188625992181220e-19  -3.8000294898203341e-25  -1.3359629777579681e-24  3.6689090901460748e-26  8.4007372791735184e-20  -1.8865468562229893e-19  5.6050354941381821e-25  1.9392067659908015e-24  -2.2435589156139085e-25  -2.5683911232942077e-24  3.0242407870683158e-24  1.6170598868596376e-24  8.0577656521895631e-19  -3.6797682300162712e-18  -2.2947057727307202e-19  -3.8608740484793186e-18  -2.8798878524801646e-18  -6.7083668368458952e-18  -6.7433912817904026e-18  -6.6806187661250844e-18  2.0000000000410616e-17  2.0000000000410616e-17  9.2312274979635707e-24  -4.8514403417065057e-24  -7.6004782742739657e-19  -1.8523783668747447e-19  -3.4676106066891974e-24  -1.1662450066911140e-20  -3.2526188055423295e-20  -2.1185290763792498e-20  -5.0071963321995090e-23  1.8176767557816481e-19  -4.0185500388548864e-18  2.0000000000410616e-17  -7.6518345004193355e-18  -3.2680435573736081e-18  2.0000000000410616e-17  -1.2977997911735743e-21  1.5608941003591033e-21  1.3402967144146030e-23  -5.1411291531329856e-19  5.7663128136397087e-23  -6.9126800820120445e-24  2.0000000000410616e-17  -4.5365071663737385e-19  -3.4310941478112731e-19  -1.7057105469466036e-19  1.7965360422983425e-23  -1.9897471755329775e-23  1.1597683452174904e-18  2.3930348339600499e-18  -2.5219865649272540e-18  2.0000000000410616e-17  -8.6498536719383475e-19  1.8078039254585618e-18  -6.5345487556773768e-24  2.5274883707674534e-18  -1.4957239988445407e-19  -3.3842255928807891e-23  -4.7461904014296169e-22  1.5680783207054680e-21  1.6618299275043829e-23  5.7418619702740707e-23  4.8751647083004473e-20  2.2184685638572881e-19  6.3402890424078546e-20  2.0000000000410616e-17  2.0000000000410616e-17  1.3662217304663977e-18  -6.6597001278921317e-19  -4.9609980707390152e-23  2.9245595180786108e-22  -5.3867320690188727e-19  -2.3594972568419112e-24  -6.1984389338987932e-19  2.0000000000410616e-17  -4.2602156979906288e-21  5.4825739358590862e-21  2.8820586652483936e-19  4.6982433496713410e-24  -1.8273916787675251e-23  -4.9618117539323767e-24  2.0000000000410616e-17  1.8577416963945770e-24  -7.2212218249531800e-25  7.7723047423626060e-22  -3.8781339974625849e-19  -2.0005245090154567e-20  -7.0527431005126349e-23  -7.9686261113840074e-21  1.4032594390097152e-22  -3.6516312140891790e-24  7.7651096536960979e-20  -9.4989802731177082e-21  2.3612597733120380e-18  -8.1203791503832393e-20  2.6505475745145799e-19  7.5089727599404678e-22  5.6739515117210787e-21  -8.8878822918151134e-20  6.8194203175342081e-22  -1.3050152130027334e-20  1.9260694120005440e-19  -5.2910653036657551e-18  -1.2507674712862717e-18  2.0000000000410616e-17  2.0000000000410616e-17  1.1050046609994070e-18  2.0000000000410616e-17  -4.9129733680466931e-18  2.0000000000410616e-17  -6.1428546178934645e-22  1.2614807347583984e-18  5.5144707630497954e-20  -7.1256415354981135e-19  7.7826306071936525e-19  -3.3953503691232097e-20  7.2387392656963003e-19  -5.3052465865267616e-20  5.0569633858350692e-20  -1.7842576873223326e-20  -4.2012303693091968e-20  -6.5360890894199801e-20  -4.8989202168202268e-18  -3.7450068436239084e-20  -3.9026416835954011e-20  -1.4677863679908080e-18  -3.0883066784477129e-20  -2.1755978313972200e-20  1.8700478545450398e-20  -3.7074541462668603e-18  -1.8984706114343487e-18  -1.6549551167760247e-18  -6.1828527106466908e-18  -7.7596004393372579e-20  1.6912270299610670e-19  1.0827542458705298e-18  -2.5678023261661848e-18  2.2752676845707861e-18  -2.9223345375428464e-24  8.2938942162206601e-24  -7.9162508035826154e-24  -4.4032141897176395e-18  1.9346970605438780e-23  -1.0043490944168193e-20  4.2700423342802454e-20  -1.1540536558804193e-20  -7.4360145514225179e-22  3.4541985609250355e-18  -2.1222989559603175e-19  -5.6469917378635837e-20  -4.4437387680170300e-21  2.7308569499990086e-20  -3.1129473477512713e-22  -3.8327933657490643e-23  9.8850070590582699e-20  4.8791378669498420e-21  4.8283257313956480e-20  -1.1639050279720524e-20  6.5672234422195061e-20  3.8974893785050577e-20  -1.5417431397817415e-20  1.0330251019736352e-18  -2.3805463536819329e-24  3.7039793615688043e-24  6.4985288080175024e-21  3.1836650253503230e-20  1.7809890277698812e-21  -1.8966864622089669e-20  4.1536953157181200e-22  9.4439817775059939e-25  -4.9120081881342155e-24  1.0714546667441447e-20  4.1156450163876175e-21  8.5868513833251935e-24  -7.0639723386052559e-25  6.0597131190992787e-26  5.4833060335017142e-23  7.1114234243263699e-21  -1.8963561829152359e-20  -5.1135145418255523e-22  2.9123752846719391e-23  -8.5846148114506839e-21  -1.6031615625463046e-21  9.8317687109903134e-22  -3.1263819204067395e-19  1.1686942367400883e-19  6.0211674025426645e-22  -3.3878971892998980e-24  -1.5692104398952673e-20  1.3014605288415465e-19  3.0821705149852979e-20  2.3149556888361893e-25  1.2584899643828107e-24  6.2590164585428105e-21  9.3426996915243022e-23  -4.8745268230898489e-21  -1.1740137616444600e-21  -8.9321335919867017e-22  5.7552320072735560e-20  3.0033886904450213e-22  -8.5737507372569837e-23  6.9300860662428740e-20  -2.2263857867306628e-20  8.9830928699417630e-20  1.5591140226268144e-23  3.1840639061364645e-20  1.3395999138343677e-24  6.0389650978132296e-20  -1.3423756530781345e-22  -8.8817567196436953e-21  3.6673035087699658e-25  4.4450421248645842e-23  -1.1621142431264086e-23  1.2690910849972609e-22  2.3546205332541755e-24  1.0976483854661497e-21  2.9058207951359166e-22  2.4894449260097059e-20  1.4658867546570012e-24  -1.1779162470812619e-19  -3.3158284211264064e-25  3.2576760803919820e-25  -7.0034324188109395e-25  -7.3397803120306424e-25  -9.9474215635075080e-23  </DataArray> 
</PointData> 
</Piece>
</UnstructuredGrid>
</VTKFile>