<?xml version="1.0"?>
<VTKFile type="UnstructuredGrid"  version="0.1"  >
<UnstructuredGrid>
<Piece  NumberOfPoints="662" NumberOfCells="2112">
<Points>
<DataArray  type="Float64"  NumberOfComponents="3"  format="ascii">16.79941424799168 24.60460649313291 23.17113876084336  18.146114 22.903234 22.726053  19.2397300105064 23.94790921680569 22.3875312646937  18.49419130302256 24.19161074413307 24.10587986579632  12.17979 19.551338 25.942934  13.175875 19.469131 25.57136  13.08130061751723 18.00038007476514 24.92425460592401  11.56694902066717 19.32501785234147 24.89493636516489  20.226061 16.045265 30.431065  18.601713 15.650207 30.505194  19.187529 17.158514 30.720884  18.56398782553488 16.35153669187024 29.43790809359852  9.446431 11.897923 12.22177  10.732734 12.828452 12.486292  9.557038 13.092218 12.045273  9.222442888934532 12.6856621973251 13.2555484921753  13.078354 24.638405 24.720684  13.738943 24.7232 24.290228  13.68289705312351 24.1420276043081 24.8510587093889  13.21621241994345 23.81973047003651 24.27589785328621  7.83969 11.401094 18.866152  7.970737 9.526768000000001 18.709095  8.114757000000001 10.404844 17.375065  9.661895556268984 11.13035759682561 18.38950683874881  16.264322 26.657925 26.440674  16.011839 25.736786 25.350739  15.989194 27.281675 25.012581  17.56483557456625 26.0839199657307 25.48762804718453  19.363241 15.492702 28.212431  20.403065 16.309216 27.926426  18.88758713550765 17.5443077596264 28.55238054639297  13.425848 18.029024 23.109835  14.720148 17.577374 23.091503  13.85383485821176 16.30846832115598 23.8568315871984  7.549423 12.012113 23.769033  6.99869 10.725326 24.075588  6.102786728417343 10.66711370769493 22.86139516827776  7.900880238691684 10.42923520661422 22.99384366107185  16.28438035586666 16.99504756230326 18.52014104585934  17.88185771163799 17.65929454632714 17.28781645341589  15.97591134748782 18.40077231120316 17.36290676869957  17.25094825698273 18.19880591881165 18.56777877942103  8.777300287017422 12.97111320031194 19.2544453347335  10.78389105407233 13.04045461671801 17.23826246875363  8.853156195584134 13.48970248203965 17.59792807719317  13.98639295630729 22.32551205816349 23.72124214641227  13.274985 22.312054 22.47353  12.71248807030971 23.15502946159068 23.76434376548295  13.82578608523117 23.47759654008759 23.34652563012695  14.219347 18.573311 16.207661  15.1453235837181 17.51050715164101 15.79036627811332  14.520689 17.572872 17.005796  14.847478 7.372294 18.44067  15.47636193894769 7.708245275590659 17.17910925728127  16.90517269962391 8.408571693471245 18.13961886630183  16.20942426121992 7.082583949564549 18.52735266628873  11.646386 14.998699 16.394629  10.97296606068113 13.99555830465579 15.08983287718016  10.519145 15.804045 15.53073  12.14034158159661 14.95738201163948 14.99632966937557  20.080233 15.073701 16.690472  19.521885 13.552641 16.868778  19.20088 14.567559 17.600945  18.71644331764685 15.13440831804488 15.7568882136259  13.53021 13.21745 14.446364  14.824998 13.11365 15.09656  14.713464 14.433931 14.689641  13.4826209136952 13.04051838793592 15.75657414423645  7.244629436753757 11.98083833586169 12.82874594864811  6.630629 11.72057 14.977788  7.929617063225881 12.34893789008783 14.83789634598838  7.500604140215239 13.34146186024982 13.00668355509349  20.083529 22.908091 23.372805  18.972717 22.242779 24.239134  20.605116 21.950623 24.719082  20.82372474614904 23.8997977273566 24.93837487058486  16.652908 13.358996 19.823364  17.225254 12.000365 19.210814  16.583199 11.867745 19.98723  15.09980095963042 12.96888763013052 18.52606681931459  18.304379 7.962238 13.956465  17.838755 6.605564 14.664795  19.62530623345626 7.435380316768669 14.80661979659608  18.21428771206384 8.13078727408794 15.43346410295956  11.768177 18.333923 23.640858  10.83484020131122 17.60029412896319 25.74684586850218  14.39545470615699 13.48350767970017 21.86701846073533  14.25640540768064 12.56220990984307 23.23308371632143  15.548775 11.302593 22.038599  15.515731 13.387015 22.341211  19.224216 21.085316 20.539791  19.713726 19.972397 19.080259  18.448706 19.623617 19.931587  17.52357063758792 21.43553158578378 18.26229907488603  8.660228999999999 15.136793 17.8834  9.406176 14.369905 19.003651  7.265566755317891 14.44906947804619 18.31039190986613  9.90724 22.307312 22.621967  10.743051147439 20.9411368346429 24.49813521652068  11.033294 21.301548 23.248283  10.75888328364637 23.27002392716702 24.20355546969161  15.798279 13.759947 15.012297  16.168419 12.222995 15.08985  17.19885331674856 13.76596862237055 16.92018665317569  15.04904976526448 12.45132702025914 16.32921664879906  16.15244133113693 10.29357145675559 18.93801194957523  17.42505279838686 10.06565205527527 18.06552194730873  16.66201173389594 9.021746550067176 19.59976688216187  14.74296701129281 13.96162180148304 19.95911381953646  13.73129 15.325843 20.655113  15.657637 13.950867 21.110855  11.512068 18.045288 13.196737  12.806531 18.67585 14.292344  12.3957 17.493725 14.641362  13.55326117355362 17.34906534283093 12.58340997715986  17.97505 17.98634 29.914734  17.79617006738408 16.04764562000086 28.63449410218604  16.629875 17.949091 29.219761  16.06476984495309 15.25790680777626 16.04385786041587  14.019863 16.061783 17.02792  15.75472570496258 16.73105377065922 16.8259283068968  14.76901776938578 15.86788546987682 15.43225510388761  14.85603217062856 17.28927352472288 25.314337496026  7.081594 12.632975 19.380384  5.790089 13.776035 18.828096  6.024208 12.733452 20.345013  6.319126057325747 14.74304802280259 20.62013137066497  5.90696 10.388982 24.410706  5.986871 11.722392 23.76726  13.105128 13.80507 21.100334  13.267593 14.37054 19.806492  12.697202 20.613329 25.183733  12.199991 21.06888 23.575275  12.784434 19.621887 23.539511  11.388673 20.042963 23.555517  10.204329 13.339395 20.082172  10.834328 11.797055 21.071053  10.32076 13.491693 21.75946  8.720427169185418 12.97838465655973 21.53892351900302  18.013052 21.292828 24.680773  17.87421 20.112299 25.265928  19.513592 20.579889 25.644588  17.38809404101743 20.68354780662237 26.09850085983121  14.554969 12.02354 14.966272  13.683329 11.450211 14.27912  13.85373721601193 10.64051811644249 15.78653904481132  16.147835 15.021767 20.405619  16.079393 16.446018 20.956593  16.690769 15.957524 20.067486  15.59382210827106 16.72807034248187 20.05662248387549  15.47388871207802 11.57011941705786 19.624350752228  10.333971 18.105431 23.868681  10.524961 19.273718 23.49745  9.5328805074264 19.30419411620693 25.38400209119714  9.312849511021575 11.24920392111374 20.31790942102134  11.165156 12.294924 19.283581  10.911865 11.019082 19.819248  12.290915 13.417821 13.105373  11.511347 13.796697 12.016177  10.04997419069706 14.08072481455365 13.10571870417868  4.84965 8.885597000000001 23.249735  5.65694 9.343239000000001 24.201956  5.603454 9.546113999999999 22.154425  15.429216 5.817717 16.599817  16.74374 6.085281 16.064266  16.38220622620806 6.606722808626918 15.62918267350079  16.71723603885349 7.047793173555547 16.83017540461764  9.186809999999999 19.246178 23.665035  9.197857000000001 18.05504 24.171219  16.533295 15.016106 14.375482  18.357506 13.925456 14.521206  18.21343 15.279364 14.101329  14.570989 8.997101000000001 18.284904  14.980907 8.614595 19.45199  10.96182795634217 12.35248595882315 14.22508810626493  7.653032 8.696446999999999 19.531801  7.098629 7.942912 20.348686  8.946755487668524 7.27022487497366 19.83137359387785  8.687920673573622 8.191582616423373 21.13499094201644  10.812188 6.164814 20.438139  10.31164 7.289726 19.789513  10.446429 6.440118 18.708942  9.447408605186272 5.571416911398877 19.85441367255963  13.352476 11.491784 18.744219  12.725714 12.987208 18.530943  13.42865874310216 13.22066523403736 17.4167297065501  11.399602 13.408487 22.815365  12.5947391777735 12.92134602632377 23.84462202154605  12.072752 14.496835 23.041599  11.78876944907026 13.48912536448901 24.39171459944568  15.09294913492082 17.24072192339796 12.35975679789265  15.92134098399421 16.82726857700381 14.49682372978422  14.28215682826346 16.98206551956171 14.15235471930375  15.97225 16.073339 13.218841  17.001694 13.554117 14.859726  13.27156148537769 24.4693949525282 23.14349635006159  7.163033 12.170571 16.197367  6.257859 13.028899 15.97252  9.154635333233077 11.97262004859696 16.42058846844798  16.690559 22.57794 22.527544  16.257906 21.686876 22.854252  15.8202819084772 23.01779804059623 24.13074415723608  15.15332421363675 22.7705567508812 22.75554738044549  15.96245648437364 15.71151561426265 26.22848982064885  15.837871 15.877274 29.291161  16.99824201297387 14.9096441697893 27.66664709093904  16.298397000551 17.40602552108536 27.4938600781969  12.38372215010883 13.53548568297504 14.61645033333991  12.83219 12.524968 13.792721  12.2412314109946 11.4281214220885 14.67117066922768  13.45171854583992 11.77495126464405 17.14303134631995  11.09560288997136 11.21718383216518 16.75874760430793  12.428819 10.324566 17.856007  12.285995 11.878711 18.413797  11.200672 16.894941 23.923445  19.085045 9.792861 18.343332  20.523102 9.066162 18.203934  20.134253 8.524349000000001 19.41028  19.23782267497997 8.107010107631101 18.36202165201317  15.47212022903548 10.95325204345379 17.54580465074551  15.361616 10.784864 14.901989  10.236228 14.678966 17.433735  9.516092337460922 13.93520308366326 16.02993488285379  11.89949680395869 16.34170031207789 11.4883949795169  11.66309104883793 15.23840373418126 13.55958069011597  9.732885626140263 16.33376037228627 12.86609769886472  10.81618496452437 14.8825523663773 11.3544019793265  11.94217072175057 12.17391037416951 16.12657539773696  12.40708636410157 12.9914156548677 17.32847579680822  14.473755 21.666258 21.634954  15.059291 21.438219 19.963776  16.696394 21.625389 21.52165  15.004941 20.149826 21.102787  10.215004 7.548627 18.423058  9.314493675784734 8.745481747275551 18.26255948487031  9.238594066135658 7.169109933510089 17.29124498210212  8.845938297939224 6.740830830386874 18.60814206164519  1
[...]
<PointData  Scalars="p_CO2"> 
<DataArray  type="Float64"  Name="p_CO2"  format="ascii">4.5018295310617077e+01  4.4919740837995811e+01  4.4974257226490707e+01  4.5002525319880746e+01  4.5026365686401697e+01  4.4993924019732852e+01  4.5022668073297496e+01  4.4939135398502799e+01  4.4988246770902641e+01  4.5053059378069413e+01  4.4983547027120522e+01  4.4988316700147166e+01  4.5020351217371974e+01  4.5007517109705518e+01  4.5001655172503192e+01  4.4975431179095537e+01  4.5181747720554355e+01  4.4867598855686580e+01  4.4990349671343928e+01  4.5031492092696148e+01  4.4982873887047830e+01  4.5008251421521322e+01  4.4991031176787061e+01  4.5051245309835750e+01  4.4993344457934221e+01  4.4954657757635069e+01  4.4982716943201623e+01  4.5002499977864765e+01  4.5158712356348374e+01  4.5058304838807373e+01  4.4978180458148749e+01  4.4968086028601682e+01  4.5044192478397434e+01  4.5032252890859645e+01  4.4990456232070649e+01  4.5090813100718933e+01  4.5251985828788335e+01  4.4777178439058858e+01  4.5003366030635817e+01  4.4991054233503093e+01  4.5005330989054116e+01  4.5002797861230789e+01  4.5056723996156869e+01  4.4908596749312309e+01  4.5010198710846176e+01  4.5106716349886106e+01  4.4970003000081284e+01  4.5009150766218404e+01  4.4971547421060684e+01  4.4994675115709150e+01  4.5024284987471667e+01  4.5012152698561430e+01  4.4920723954376022e+01  4.5004854610495173e+01  4.5049603203322768e+01  4.5069927403071326e+01  4.5028298933800379e+01  4.5014300244702703e+01  4.4983941265007068e+01  4.4903520901187683e+01  4.4973040446848231e+01  4.4998752405871159e+01  4.5045181695177632e+01  4.4924486881501053e+01  4.5008223867958549e+01  4.4981207681619807e+01  4.4996613316484044e+01  4.4936436893870408e+01  4.5006022182609108e+01  4.5000902740557407e+01  4.5000647245448540e+01  4.5004128766226771e+01  4.5005349370501797e+01  4.4964918831904406e+01  4.4990083455133579e+01  4.5036253644376998e+01  4.5017564486557227e+01  4.5034064213972215e+01  4.5016583739724034e+01  4.5050918895924958e+01  4.4995180069725514e+01  4.4993884799551395e+01  4.4986215845807173e+01  4.5025756246538137e+01  4.5009452228944966e+01  4.5008979763484945e+01  4.5027479175915786e+01  4.5074216109157355e+01  4.5012023477615294e+01  4.5007249192809887e+01  4.4990696636210657e+01  4.5004011285347900e+01  4.4992774278506388e+01  4.4979513226260757e+01  4.4983570589545018e+01  4.4934683820794945e+01  4.5054255387658891e+01  4.5004015955877435e+01  4.4938944284072875e+01  4.5000239683639748e+01  4.4991909104670903e+01  4.4986795926325613e+01  4.5017039996200509e+01  4.4975124676988109e+01  4.5097011180093602e+01  4.4986955384721774e+01  4.4992582823501621e+01  4.5105389200997699e+01  4.5034078905614862e+01  4.4980009916379217e+01  4.5035484520928016e+01  4.5008862167488552e+01  4.4982230944564250e+01  4.5005649911970096e+01  4.5019285069332916e+01  4.4998449001345875e+01  4.4917987465766835e+01  4.4978763936615216e+01  4.5046434104420555e+01  4.4987166254077358e+01  4.5001680310355873e+01  4.5049245005994145e+01  4.4980371729707784e+01  4.4968926563103949e+01  4.5038828411068131e+01  4.5024876920307761e+01  4.4984679219959702e+01  4.4914709497940208e+01  4.4996366968619860e+01  4.5017882716275203e+01  4.4993338757807543e+01  4.5000394602258240e+01  4.5071136049445194e+01  4.5022711923037129e+01  4.5032481625815315e+01  4.4993324173202240e+01  4.5007701644628483e+01  4.5078004910517080e+01  4.5008947563658410e+01  4.4983290539723484e+01  4.4994639849913881e+01  4.5028939791241790e+01  4.5034038334526365e+01  4.5007574603154694e+01  4.5008546902694377e+01  4.4971279585710882e+01  4.4996996005309249e+01  4.4955344560654289e+01  4.5011679157711185e+01  4.4962625749418869e+01  4.4997056006277205e+01  4.5048447472893521e+01  4.5011489731667517e+01  4.5104625362029644e+01  4.4950662961947650e+01  4.5017235253199004e+01  4.5030997558429860e+01  4.5001187960952180e+01  4.5008905014924750e+01  4.5012291664277015e+01  4.5019691846666497e+01  4.5107141862364934e+01  4.5196000827103347e+01  4.4960101315024666e+01  4.5017994742722919e+01  4.5032218749203977e+01  4.4927950432796393e+01  4.4825030113533053e+01  4.5067354096952542e+01  4.5000672069902791e+01  4.4940027572267162e+01  4.4988521803610233e+01  4.4963626439185987e+01  4.5045578404292208e+01  4.4987155079805099e+01  4.4950245611916245e+01  4.5046610480024725e+01  4.4956544852861505e+01  4.4999195084834213e+01  4.5045578219610036e+01  4.4968336995088805e+01  4.5037881944608607e+01  4.5015736646862464e+01  4.4868908159377888e+01  4.4865883826572066e+01  4.4934999073702564e+01  4.5102192620651152e+01  4.5096827972274610e+01  4.4969900867480412e+01  4.5126567151479357e+01  4.5022011588486876e+01  4.4993633795853391e+01  4.4972892303018696e+01  4.5017419710200670e+01  4.4937200746950040e+01  4.5087924438453520e+01  4.5045726324000540e+01  4.5034619992489098e+01  4.4959786105914169e+01  4.5009242576705844e+01  4.5018564193223760e+01  4.5005383236998114e+01  4.4990419308120856e+01  4.4966795692202609e+01  4.4954780099577405e+01  4.4964691387846528e+01  4.4988662771637770e+01  4.4962587603515786e+01  4.5030128411772878e+01  4.5008249142525464e+01  4.5018990615864290e+01  4.4945246077673467e+01  4.5108898627106015e+01  4.5095816218533251e+01  4.4985388237238162e+01  4.5015720218115504e+01  4.4998165920969825e+01  4.5002816438057692e+01  4.4950627518780387e+01  4.5065076181865010e+01  4.4975250470190986e+01  4.4976260514303434e+01  4.4991706664951558e+01  4.5014716194867354e+01  4.4953807105411698e+01  4.4964426456568987e+01  4.5063017274978151e+01  4.4952672061198086e+01  4.5054563012943682e+01  4.4997934953573527e+01  4.4976970989189006e+01  4.5082708721937074e+01  4.5021492951787302e+01  4.5027273218554562e+01  4.4983946138094318e+01  4.4961734685377259e+01  4.5012128201877822e+01  4.5017702791390292e+01  4.5041106750946646e+01  4.4980208290271385e+01  4.5017994127219410e+01  4.5018391021176541e+01  4.4974993847473918e+01  4.4975470424659555e+01  4.5011837595845741e+01  4.5036360011620076e+01  4.4999300015290650e+01  4.4974625994660208e+01  4.5034208978381166e+01  4.4967146442844147e+01  4.4960921733551267e+01  4.5026046813571426e+01  4.5020016841268152e+01  4.4959319976064890e+01  4.4969624155765381e+01  4.5028845130611231e+01  4.4990250157154378e+01  4.4998156423890961e+01  4.5007337229864206e+01  4.5012597195975758e+01  4.5003460467002867e+01  4.4877182346208151e+01  4.4931517157859076e+01  4.5029812319057569e+01  4.4966745140501644e+01  4.5029846919709087e+01  4.5010293165611479e+01  4.4976985705869275e+01  4.4957176304399795e+01  4.5086312490996761e+01  4.5059893580074792e+01  4.4838911190833954e+01  4.5059697443584241e+01  4.5036326052434738e+01  4.4943501234784407e+01  4.4946851154728648e+01  4.4989512960919605e+01  4.5011379309394080e+01  4.5007054527062508e+01  4.5022298372299964e+01  4.4996559586565304e+01  4.5003021932931816e+01  4.5030647559650085e+01  4.4983120809096683e+01  4.5020546589004645e+01  4.4986221834874335e+01  4.4997886883102446e+01  4.5012584006847355e+01  4.4992843736001525e+01  4.4998215682162545e+01  4.5075564104836559e+01  4.5050441596961001e+01  4.5053313651522132e+01  4.4967003933489224e+01  4.4999979650100457e+01  4.4981558400151485e+01  4.4931924521543429e+01  4.4995006844638375e+01  4.4959738359091119e+01  4.5003346214464976e+01  4.5037291133096574e+01  4.5060227557926581e+01  4.4927443698549801e+01  4.5028057491444365e+01  4.4934248273239142e+01  4.5084079569242725e+01  4.4998477893927927e+01  4.4972434626581745e+01  4.5019496219953957e+01  4.5019702789480192e+01  4.4984240602777341e+01  4.4958650507489409e+01  4.4930589325985757e+01  4.5014307869463799e+01  4.5063435440621028e+01  4.4937634395775227e+01  4.4962001487545891e+01  4.4958373198026962e+01  4.4973657454615633e+01  4.5004050757949486e+01  4.5005420652441622e+01  4.5019023372123165e+01  4.4976749767957841e+01  4.5049870239138485e+01  4.4980863771260573e+01  4.4971149102882151e+01  4.5016471716302227e+01  4.5012004745911312e+01  4.5039745191032310e+01  4.4861495631460670e+01  4.4897386213188398e+01  4.4971935102383064e+01  4.5043088689587599e+01  4.5012468694933638e+01  4.4819582602700343e+01  4.4971981935751799e+01  4.5028732802120551e+01  4.4934137962011292e+01  4.4919871765324451e+01  4.5099470703188487e+01  4.5000127406222930e+01  4.5072271917788257e+01  4.4982784761074498e+01  4.4970003209240701e+01  4.5006363549526100e+01  4.5006666390054640e+01  4.5050357506186998e+01  4.4944772627141923e+01  4.4969654623880736e+01  4.4960071846273586e+01  4.5019934578476708e+01  4.5006413585920008e+01  4.5044403554884212e+01  4.5020081101775766e+01  4.5034594460357013e+01  4.5003609546886324e+01  4.5037959854506298e+01  4.4995882843579018e+01  4.5100713759660131e+01  4.4930623815475393e+01  4.4959470214963225e+01  4.5053633865038854e+01  4.5003759059062610e+01  4.5025063987521570e+01  4.4961772568810595e+01  4.5040832118089121e+01  4.5018502842906173e+01  4.4993109485938000e+01  4.5014396101045044e+01  4.5025423223411948e+01  4.4937261147013686e+01  4.5015088087716883e+01  4.4995659816586524e+01  4.5006822353430685e+01  4.4997756381925861e+01  4.4999713722910180e+01  4.4949283126565035e+01  4.4895255582868884e+01  4.5040223815544749e+01  4.5018906348333616e+01  4.5007141096757998e+01  4.5062306793511368e+01  4.4990254781140187e+01  4.4976276614317555e+01  4.4954677660589951e+01  4.4980401308904469e+01  4.5021076462174904e+01  4.4998281530781249e+01  4.5025486833817844e+01  4.5066677656732004e+01  4.4961317006898902e+01  4.4964409778758267e+01  4.5031923704782820e+01  4.5041604392461316e+01  4.5017206857937261e+01  4.5010443708212563e+01  4.4916809963703422e+01  4.5015312542675595e+01  4.5073466438368243e+01  4.5031837707086034e+01  4.5015884326753735e+01  4.4942410019346291e+01  4.5154100966871574e+01  4.4831027466067830e+01  4.4887030948956379e+01  4.5025140570923512e+01  4.5023500963920249e+01  4.4985704554064114e+01  4.5001913493155975e+01  4.5063330003567444e+01  4.5027207687872966e+01  4.4985842127153866e+01  4.4722904584724638e+01  4.4996227728525753e+01  4.4955590919010760e+01  4.5011306559215562e+01  4.4988995334197234e+01  4.4988010163071067e+01  4.5025817030065433e+01  4.5088031779833877e+01  4.4984091328089463e+01  4.4909746431371616e+01  4.5171015615306764e+01  4.4967053590772935e+01  4.4995715401452124e+01  4.4989804372782977e+01  4.5064620387345478e+01  4.4956363289081047e+01  4.5063709684561964e+01  4.5014040513745400e+01  4.4995137823787815e+01  4.5001349223644254e+01  4.4991502308301314e+01  4.5005109819120015e+01  4.5004311999506513e+01  4.5014926952026300e+01  4.4947478498257020e+01  4.4958328011009314e+01  4.5038675745728611e+01  4.5049181786740647e+01  4.5042451875621573e+01  4.4992880145464397e+01  4.5021362216294769e+01  4.5019484792451635e+01  4.4986256307146192e+01  4.5039265303821253e+01  4.5005562532240532e+01  4.5048816534505228e+01  4.5069627889634006e+01  4.4990883222030405e+01  4.4989236129632431e+01  4.4953410938530304e+01  4.5148433922925769e+01  4.5065659521389016e+01  4.4969273968344332e+01  4.5070270996892120e+01  4.5201688497542627e+01  4.5056862268284135e+01  4.5012978420661739e+01  4.4974809816111446e+01  4.5057384631440463e+01  4.5174818891359941e+01  4.5023189779161498e+01  4.5214044457528082e+01  4.5007010879101998e+01  4.5016460851798065e+01  4.5005817510480000e+01  4.4989257374499623e+01  4.5009227442895416e+01  4.5001288892392267e+01  4.4890996771599696e+01  4.4982659519540171e+01  4.4905507153818341e+01  4.5017107624428597e+01  4.5034467279023367e+01  4.4940733915320905e+01  4.5006478673890165e+01  4.5007625656751451e+01  4.5008928513771309e+01  4.4979501575511186e+01  4.4979574891834268e+01  4.5053250618967979e+01  4.4996868999252065e+01  4.5009276961580333e+01  4.5013356153946305e+01  4.4982261480465169e+01  4.5016789952349363e+01  4.5027527869119588e+01  4.5164568103011980e+01  4.5115256060620482e+01  4.4996177984319132e+01  4.4977157206067140e+01  4.4992688225468591e+01  4.4826793099250359e+01  4.5023083351787420e+01  4.4983072454689641e+01  4.5016718140135346e+01  4.4903798615184506e+01  4.5000691743141523e+01  4.5022080630533630e+01  4.4981215110072633e+01  4.5013125756216539e+01  4.4997182085776018e+01  4.4974967908700442e+01  4.5059068429473285e+01  4.4984106273509894e+01  4.5012169845986463e+01  4.5074776514347377e+01  4.4996575533290795e+01  4.4962909849007801e+01  4.4945960155776390e+01  4.5001302110438019e+01  4.4937774677253138e+01  4.5070581835007651e+01  4.4989700887773139e+01  4.4971362057843670e+01  4.5039909408169436e+01  4.4912349880495832e+01  4.5051918919655321e+01  4.5110990705129055e+01  4.4859385150269119e+01  4.5006496543901164e+01  4.5008116775761330e+01  4.4995320011205031e+01  4.5185424209129394e+01  4.4972100754774203e+01  4.5009297183071276e+01  4.4978080527736779e+01  4.5062651895914740e+01  4.4839088867048289e+01  4.5005966527629589e+01  4.5005340173785541e+01  4.5005072944790250e+01  4.4949573058147273e+01  4.5012340177598475e+01  4.5007119096480075e+01  4.5003014971016150e+01  4.4851618273567858e+01  4.4996578244253428e+01  4.4997121413355174e+01  4.5023843799834324e+01  4.4995912213753392e+01  4.5028941821352625e+01  4.5070249819278587e+01  4.4932325832824048e+01  4.4730710567764767e+01  4.4761848586411496e+01  4.5048510502169343e+01  4.4997213780283730e+01  4.4956339747509666e+01  4.5025026928616136e+01  4.4950353194505581e+01  4.5087205821020781e+01  4.4900247311861484e+01  4.5061114017949244e+01  4.5092999313723560e+01  4.4993885182936602e+01  4.5105123821577898e+01  4.4918450162396667e+01  4.4999498411617523e+01  4.5058713225780750e+01  4.5036767002886243e+01  4.4948699090649114e+01  4.4985468251312142e+01  4.5004188055003432e+01  4.4940722136487423e+01  4.5026139073946361e+01  4.4992011552632547e+01  4.4965956287843497e+01  4.5006519639598153e+01  4.5067183579568322e+01  4.5089666939392025e+01  4.5000030397681925e+01  4.4993954189361475e+01  4.5037970387487270e+01  4.5019584588217803e+01  4.4978867899900365e+01  4.5037626242248557e+01  4.5007627598823042e+01  4.4946883791848215e+01  4.5021840890724334e+01  4.4962011914573502e+01  4.5047010285664896e+01  4.4998232461655867e+01  4.4911540667326534e+01  4.5010883179673648e+01  4.4996760974148351e+01  4.4905440761359273e+01  4.4982045171769414e+01  4.4933287928961953e+01  4.5131758143847421e+01  4.5002920855041495e+01  4.5011588980063216e+01  4.5011571972106630e+01  4.4953571335041822e+01  4.5045593222179932e+01  4.4854659065401755e+01  4.4997477194755291e+01  4.4994294448179538e+01  4.5025338600087544e+01  4.4957369376423344e+01  4.4963155685363809e+01  4.4990567666226774e+01  4.4984741165605307e+01  4.5046701186418929e+01  4.5011400465726801e+01  4.5045733167509610e+01  4.4989566140794047e+01  4.5036028665688967e+01  4.4976168475691594e+01  4.4923160275931266e+01  4.4997023650709437e+01  4.4983337558670023e+01  4.5091319439108474e+01  4.4985449266216612e+01  4.5009107217498226e+01  4.4985012422548216e+01  4.4999910232323536e+01  4.4981895326828003e+01  4.5024635442549084e+01  4.5084733483722388e+01  4.5030863525003305e+01  4.5008487299967022e+01  4.5010794736237081e+01  4.5011253677565051e+01  4.5027075148499620e+01  4.5009813798294338e+01  4.5050899309440645e+01  4.5077604747413659e+01  4.5038920444965079e+01  4.5138758321288208e+01  4.4996888047170515e+01  4.5053293550935123e+01  4.5019654632887232e+01  4.5031565416969826e+01  4.4960274521304200e+01  4.5014735144013045e+01  4.4967144117703981e+01  4.5004017968400106e+01  4.4962592603313119e+01  4.4968766153599468e+01  4.5023946333588157e+01  4.5008703314011321e+01  4.5017909229531192e+01  4.4995041723736236e+01  4.4978411553264870e+01  4.5044029166896593e+01  4.5009292662880718e+01  4.4991157533070393e+01  4.5159970568019233e+01  4.5014025441378230e+01  4.4990016212200310e+01  4.5088582982476581e+01  4.5023398203923193e+01  4.5002468863634242e+01  4.4969313704516196e+01  4.5071515666815600e+01  4.5014374899554149e+01  4.4952346300577744e+01  4.4859575395408321e+01  4.5104073466024580e+01  4.4963824252414049e+01  </DataArray> 
</PointData> 
</Piece>
</UnstructuredGrid>
</VTKFile>