<?xml version="1.0"?>
<VTKFile type="UnstructuredGrid"  version="0.1"  >
<UnstructuredGrid>
<Piece  NumberOfPoints="628" NumberOfCells="2057">
<Points>
<DataArray  type="Float64"  NumberOfComponents="3"  format="ascii">36.62082171204842 27.8127849200591 36.13850171254575  35.133984 28.948254 35.287773  35.09377430707337 27.21605231542388 36.32776574507508  35.49711158292504 29.01535721010175 36.79523341230945  37.949352 37.367817 30.74501  36.569382 38.303696 30.363506  37.096951 38.137836 29.41184  37.18171292059583 36.42405258432928 29.2215403952366  33.732788 18.695942 37.220341  33.35540552401056 20.74781699009997 36.87973407110198  32.24308519422645 19.11029030149711 36.22461644124984  33.694054 19.832645 37.892502  38.133236 23.832748 37.085537  37.24768686096579 24.69261041211738 35.96842440675156  36.4897276634056 25.30990806411723 37.73183746080861  38.45995747796422 25.5658858520423 37.30637268987511  39.95923699999999 27.031462 34.171627  39.95923699999999 27.508234 35.542397  39.95923699999999 28.533052 34.932079  38.58446677489688 28.46149289546959 35.32983508011048  33.462215 26.79608 36.530621  33.897346 27.022236 35.615894  34.09821304170267 25.93854317484353 36.26407209188564  38.265579 28.255939 37.698914  39.247765 27.011547 37.83308  38.045311 26.881899 38.031525  38.5533824412371 27.23998406201759 36.67764592029476  32.03872703268765 17.75815326480091 32.73820068203824  31.56958963959172 17.71920107760321 34.95177624414119  32.36760443688479 19.37041740524739 33.76845498604773  30.56175945217675 18.9971915808008 33.43469838985521  31.72779359734088 22.00204747310697 36.54483607746737  32.886925 20.923319 38.462288  33.63736929991997 22.65435760023441 36.74563578074738  32.34679 21.985481 38.766796  39.95923699999999 36.526802 25.372335  39.95923699999999 35.57716 26.803631  39.95923699999999 37.144733 27.090204  38.2982721780568 35.74560784816278 26.18786159283038  35.306213 38.001163 35.715775  34.911247 38.556973 36.989162  36.15678285920916 38.97468022528037 36.69949178999137  36.05928482854232 38.92670023078949 35.61841070173521  36.510223 39.248024 34.093788  35.785709 40.003617 34.790054  35.20499576380831 38.72257295882532 34.11704855101149  39.95923699999999 28.406418 33.45937  38.2561164443833 27.65802525904208 33.20155962302857  38.07669812612395 36.31267634809763 38.10094815856051  38.72649430205787 34.69612535506707 36.69300652261067  37.324409 34.695953 38.034317  37.688457 35.694309 36.621506  38.749813 39.298771 38.568783  38.956982 38.390991 39.295425  37.32099843550208 37.68791811978274 38.79430981989098  38.58423811373087 38.04891332257404 37.46821379992441  37.848251 34.038269 36.176941  37.271927 33.075912 35.516087  38.79923225703111 33.57059314302987 35.24041664331909  38.43031934778163 31.93048221564127 36.1182246831824  37.06670088748341 38.81049819480323 37.96376226245881  36.112877 38.860817 39.990357  37.915165 38.985039 39.990357  37.184555 40.003617 38.576702  39.95923699999999 32.376251 32.346836  39.95923699999999 33.694656 32.787071  39.02019005168103 33.79807269146184 31.32083228889712  38.81037776918829 32.50555120619597 32.03216145956394  39.95923699999999 27.249722 30.782108  39.236717 27.609564 29.030506  38.269352 27.797874 29.503315  39.350365 28.308977 30.015675  39.308876 31.9576 30.872873  38.95315999791283 31.71543659279923 31.72571753157906  39.310738 31.430229 31.373255  39.386013 32.364967 30.968399  32.566353 36.128742 28.820694  33.893066 36.890259 27.850742  33.15730014802761 38.33084370515958 28.70523726346005  33.3113333784832 36.24082796722047 29.85787262423269  34.22435 32.77919 37.482849  35.380554 32.000175 36.687862  35.377224 32.514099 38.459312  34.83713789109525 31.21144035649444 38.10708781275954  37.655544 37.61237 39.990357  35.526581 23.355228 39.315567  35.342182 24.269997 39.990357  35.43939290172619 24.36461955196412 38.38946862684262  34.33292994534688 24.64619407522975 39.11767829490827  37.90225815513202 26.18331142036168 34.90224734284544  35.404472 25.580954 33.15303  37.86231082529159 24.42518222585553 33.46545113094012  35.86507587758772 24.23367487058596 34.6525775366382  39.95923699999999 26.646866 29.325926  37.443455 27.659792 37.842388  35.57246968506293 27.73587654580126 37.8129363184791  37.04682675353794 26.50919059711054 37.10706899223714  29.084326 22.619463 34.170704  27.90889 24.022921 33.531563  27.741316 22.810972 33.70536  27.27349734869854 23.50033885540123 35.66452755765501  34.725277 29.805771 35.818096  36.05207226271746 29.48956390157872 35.33061363242246  34.920704 37.015507 34.618713  33.531158 37.665726 34.95187  33.58038599870921 38.33145272294979 33.72824911460591  39.348022 23.816961 34.001495  39.353809 24.498095 35.051922  39.95923699999999 25.373953 34.222164  37.77408428328078 34.28446969758638 32.85502891317591  36.85597217258807 32.15403162700802 32.81542728616515  37.58118885745331 33.10774198522977 31.18422882513745  33.985168 22.314053 38.310894  31.461531 17.526348 37.073097  30.440329 16.725859 36.451443  29.966129 17.58527 37.267197  30.0255123392935 18.03472492356367 35.88091271144472  33.63439385262951 24.65939886550144 35.31882608691149  33.67016947946241 24.27885424370789 37.72749034184408  31.81171254795396 24.64616726575867 37.32740556583669  31.85695336107705 23.5491326628832 35.64840685659567  35.556606 40.003617 33.576614  39.95923699999999 34.355175 35.814049  39.95923699999999 32.872974 36.237797  39.95923699999999 33.975815 37.507156  38.570095 25.529442 38.762848  31.462337 21.087326 38.525452  36.786831 33.684372 29.332834  38.09407 33.238922 29.853287  37.90083321627924 35.14712719451288 30.60027372992421  31.624813 29.587404 39.990357  32.218891 28.723669 38.3512  32.313927 28.780687 39.990357  31.22742657267186 29.12824155450804 38.96479645777702  36.788906 23.417002 31.817438  36.58876 25.032391 32.157898  35.878147 24.129963 32.769432  32.574303 26.318203 35.492657  32.179768 25.489717 34.259808  33.682518 26.564255 34.551971  37.614841 37.368359 35.882816  36.991623 37.048965 37.138088  39.083836 22.630838 33.760136  38.58195056918147 22.70422295600828 32.04783109117908  28.96721638074632 22.52983374009249 37.69639011416766  29.20818199093826 25.12720633605618 38.03374130977213  29.54046004020515 23.19422676175816 35.99114336209987  27.63057694311821 24.49719673356375 37.1434365587057  36.37706 38.005455 34.504326  36.798378 38.055805 35.625355  39.95923699999999 25.683138 37.177483  39.95923699999999 25.983723 35.590973  39.256088 24.408733 36.266506  37.720116 32.912773 37.262871  39.32349 37.414944 28.960623  38.410343 37.618557 29.309053  38.93774 38.247009 27.913235  38.54976682271394 36.5850316377599 27.7889655974221  39.374454 35.1824 38.641731  37.929935 33.593826 38.71423  34.819382 34.580231 32.901276  33.923267 33.987335 31.600504  34.86257028261675 34.86538964813903 30.25587990872809  36.06099214808425 33.83356534671876 31.59968620044493  39.95923699999999 27.356253 36.749397  32.715019 18.501949 37.659309  32.096046 19.76766 38.174511  38.89849037728007 31.87917424408041 30.97701536292623  37.57321732438839 30.44424359647824 33.10447347000633  38.35273630589797 29.10587348764778 32.02190047886008  38.75973589129429 29.30336970714474 33.79902677885739  37.04532802244274 29.05623101618945 33.66161944493548  34.008392 33.534977 29.962557  32.887566 34.14949 30.529457  29.5569 24.352154 34.044392  28.85785909010069 25.82867627427404 35.20903719590995  30.79857816633901 25.54528873708482 35.85258511756634  36.703957 23.533808 36.358467  35.36367991627529 24.35582040407881 36.52084597747814  36.733467 22.741138 33.294113  38.351418 21.946203 33.554081  33.504375 18.635798 33.147629  33.1315 18.006405 34.663605  33.394241 19.451113 34.145786  31.248924 20.357515 32.97963  30.5137 19.771673 31.254034  32.013786 20.556129 31.618477  32.3929615384593 19.52889498032314 32.17187448612157  35.128765 32.848049 30.839733  35.443405 33.169769 29.649918  37.579559 38.631931 35.026424  36.931931 40.003617 35.574741  35.621307 30.248421 33.591373  35.696991 30.951052 32.425655  35.454876 32.077114 33.743435  32.784904 20.925333 32.914394  32.65814167367404 20.17698567623872 34.97667965060941  36.613232 30.888103 31.218647  38.05760078078242 30.74694158101198 31.75656479346314  34.03460527756774 37.05924845533507 31.76061726060347  36.34895830912409 36.34470917900374 32.14455747053906  39.191299 37.013947 39.097851  33.819366 20.207989 33.006706  31.37341630327072 19.89524349028754 34.63105119207021  30.16638093101842 19.52125797741403 35.5474069774432  31.40420543967508 20.53587030670017 36.73684424823172  31.20926277732015 20.85026293294205 35.21569592988999  38.617908 31.004538 38.90662  37.628345 31.302719 37.846523  38.274048 32.333755 38.586529  38.88655308503699 31.28105898784251 37.92437315701434  34.55160762854971 29.38424061532331 38.46468964577889  35.57659399157031 30.49653056849832 36.71413411299419  35.98307906136799 29.97483423892735 38.23652400052116  39.95923699999999 29.857952 34.451603  39.95923699999999 29.914103 35.90654  32.78388567390227 21.49960250105021 35.07969409671811  36.345535 26.584465 32.620018  35.965645 29.451071 32.876652  26.76165 20.279181 39.277157  27.496897 19.219721 39.990357  25.927156 18.888727 39.164341  27.30516756196691 19.51752031014398 38.00478663026325  39.95923699999999 28.54064 36.216637  39.112545 33.770691 29.609718  39.345818 34.741241 28.210514  38.125145 34.409275 28.716074  38.5363722910106 35.66528387835304 28.9074624502616  35.35420130848714 37.22101207058016 29.08505828450566  29.330133 24.635719 39.990357  27.502298 24.145594 39.151588  28.14714747114286 23.14465889541966 38.72042352363221  36.554104 40.003617 26.124855  35.094616 39.365406 25.749702  36.62153944261694 38.48206606843957 25.48545080048316  35.94701725517388 38.37939284644474 27.08239600638794  39.95923699999999 25.384224 38.397099  38.29092364308121 32.43132384365217 34.09639871103942  38.42346738757733 31.49144137037921 32.63836389785187  3
[...]
<PointData  Scalars="p_CO2"> 
<DataArray  type="Float64"  Name="p_CO2"  format="ascii">4.5144292264521326e+01  4.4990917482122157e+01  4.5136033925860851e+01  4.5158982706796891e+01  4.5015356045007046e+01  4.5003397908244764e+01  4.5002871750948351e+01  4.5018170651287910e+01  4.5007460659963989e+01  4.4953100219620261e+01  4.4962063646068167e+01  4.4987247847999527e+01  4.5030342597897331e+01  4.5164835861165606e+01  4.4994737969798202e+01  4.5085958076805298e+01  4.5619923670490124e+01  4.6131329983353858e+01  4.5649788597070859e+01  4.5383788950101533e+01  4.4808894525196479e+01  4.4975075635064997e+01  4.5084596555757450e+01  4.4867193258041567e+01  4.5188229304999219e+01  4.5095673198425366e+01  4.5406569741684955e+01  4.4991929458191407e+01  4.5030150502631820e+01  4.5010937340240950e+01  4.4950639382991632e+01  4.5011985731123637e+01  4.4977542540394239e+01  4.4977982864229084e+01  4.5001015507176035e+01  4.5457588715811490e+01  4.5377635943745979e+01  4.5356524662502501e+01  4.5085729878994059e+01  4.5086693789364219e+01  4.4916997060153193e+01  4.4747802058055761e+01  4.4921592034613404e+01  4.4981426205831255e+01  4.5007423501154619e+01  4.4992555547898533e+01  4.5347006064889833e+01  4.5225453229161559e+01  4.5002339570021178e+01  4.5158178968560208e+01  4.5050817994968831e+01  4.5019588152053856e+01  4.4951545749449664e+01  4.4938756372259363e+01  4.5038132374325968e+01  4.5047811353362007e+01  4.4941079575850843e+01  4.5045227564188956e+01  4.5097992437363672e+01  4.5343616394452290e+01  4.4884992681506837e+01  4.5027621720560951e+01  4.5005442069771739e+01  4.4936001284823746e+01  4.5203765460408924e+01  4.5077927187008228e+01  4.5097573676413589e+01  4.5066305158727410e+01  4.5315544859607883e+01  4.4960586687446870e+01  4.5003596492693994e+01  4.5084083807008120e+01  4.4997305744118520e+01  4.5062670721298879e+01  4.5022082497970814e+01  4.5044363013840709e+01  4.5001175833383321e+01  4.5009743335169375e+01  4.5000461445631835e+01  4.5003018454254580e+01  4.4994646625484961e+01  4.5099853361491476e+01  4.4987550888099172e+01  4.4903871065949097e+01  4.5032725536397635e+01  4.4944511139269082e+01  4.4997631530700943e+01  4.4897724686364789e+01  4.5054221731561086e+01  4.5278057913573903e+01  4.5073119168366631e+01  4.5196375886767868e+01  4.5007014887625814e+01  4.5159811593106006e+01  4.5082880804882237e+01  4.5211481644517768e+01  4.5118410121244523e+01  4.4993147500498580e+01  4.4952477861250550e+01  4.4953404848631806e+01  4.5064038629738910e+01  4.5121990236116126e+01  4.5102415092584010e+01  4.4994650434977842e+01  4.4988527508483678e+01  4.5000297671044962e+01  4.5206366334887832e+01  4.5118074484114850e+01  4.6016095252891532e+01  4.5035234262545011e+01  4.5059608317118261e+01  4.5028177076751263e+01  4.5024184526507277e+01  4.5003205318808533e+01  4.4915674428876279e+01  4.5022582150763668e+01  4.5021118990671781e+01  4.5164377366619327e+01  4.5072711468220447e+01  4.4906765326846617e+01  4.4999630335428101e+01  4.4999642403194429e+01  4.5090594170567165e+01  4.5279194871724620e+01  4.5343849022232739e+01  4.5045272120588976e+01  4.4991476462359415e+01  4.5007433797086492e+01  4.5011403733634786e+01  4.5046009638886026e+01  4.4931622789791753e+01  4.5106251309993944e+01  4.5091580326213169e+01  4.4924825472074879e+01  4.4949806410484662e+01  4.5024427099451351e+01  4.5028832909392165e+01  4.4953311345601520e+01  4.4961023494907650e+01  4.4944678500256842e+01  4.5017806000370186e+01  4.5023337741085960e+01  4.4945524223252065e+01  4.5196604357828875e+01  4.5015793880302752e+01  4.4997074252811018e+01  4.4986902159137948e+01  4.5041427030880357e+01  4.4991282773404770e+01  4.5080492379499759e+01  4.7081277909878821e+01  4.6491698314407088e+01  4.5095458058368990e+01  4.4984539603989688e+01  4.5041812563790330e+01  4.5010241728624557e+01  4.4995633759438647e+01  4.5104597233275591e+01  4.4999957297863830e+01  4.5056023046815341e+01  4.4995045872439860e+01  4.5003469515432691e+01  4.4995711297856772e+01  4.5015558192990952e+01  4.6727988682703966e+01  4.4964569914562482e+01  4.4992723087880350e+01  4.5014102857092205e+01  4.5128976467158012e+01  4.5133344180789592e+01  4.5271044830247241e+01  4.5121039554172413e+01  4.5003008035016663e+01  4.4997974840111389e+01  4.4998118931620994e+01  4.4950489903061737e+01  4.4876471023770037e+01  4.4930320792713665e+01  4.4949308176192922e+01  4.4785761253931213e+01  4.5040803152324713e+01  4.4979600350659886e+01  4.5029722557158294e+01  4.5011377763104690e+01  4.4969237690145341e+01  4.4998976560273988e+01  4.5014435637362034e+01  4.5042886133455752e+01  4.4994840149241966e+01  4.4997161943895698e+01  4.5053407373978438e+01  4.5017839531519087e+01  4.5010271948465643e+01  4.5036213059278353e+01  4.4976462176381155e+01  4.4995613552775140e+01  4.4963173912450820e+01  4.4995715542074336e+01  4.5064215936804743e+01  4.5002061314376739e+01  4.4999108459930959e+01  4.5014152506787532e+01  4.5012747064318759e+01  4.4976505283073841e+01  4.4983406013087261e+01  4.5002334823600428e+01  4.5005659492978914e+01  4.4907764473574886e+01  4.4843429498746360e+01  4.5067569647014722e+01  4.5376479826951829e+01  4.5033803496088510e+01  4.5028852323417965e+01  4.4823070508760665e+01  4.5585159469436974e+01  4.5798515633645600e+01  4.5065061063424402e+01  4.5014749404836735e+01  4.5015436215749929e+01  4.5021862112754050e+01  4.4952702288670586e+01  4.5011882733087539e+01  4.5030904304125343e+01  4.6003820047212407e+01  4.5025309650875599e+01  4.4984018899114616e+01  4.5000026648724969e+01  4.4980305983679749e+01  4.4996577517787131e+01  4.4971125904399187e+01  4.5027302274460027e+01  4.5017553202889104e+01  4.4992482654090061e+01  4.5007341074584701e+01  4.5008192600947879e+01  4.5000387719780235e+01  4.5105501046193844e+01  4.5095402584477334e+01  4.5068016596914823e+01  4.5217964037643888e+01  4.5111615901370286e+01  4.5001042373051000e+01  4.4994745132930149e+01  4.4996388679396290e+01  4.4999759781653466e+01  4.4963461457549677e+01  4.5039258756260018e+01  4.5031556020321574e+01  4.4989837995534842e+01  4.5001891292247834e+01  4.5034053915062650e+01  4.4997330153629100e+01  4.5001983733322170e+01  4.5006299082180675e+01  4.4997650200862381e+01  4.4997578219566044e+01  4.4983064725468054e+01  4.5004597658592942e+01  4.4999902256381162e+01  4.4995468230495348e+01  4.5017032279410856e+01  4.4999930686477761e+01  4.4999145524013215e+01  4.4979092541920146e+01  4.5102890187517922e+01  4.5015520513227834e+01  4.4984927010813529e+01  4.4980175683029742e+01  4.4911670628581987e+01  4.4985107451329306e+01  4.4987804504860144e+01  4.5014903012401255e+01  4.5153718315573329e+01  4.5047890083414892e+01  4.5005101504769456e+01  4.5205448719599410e+01  4.5015671817436832e+01  4.5027212059884164e+01  4.4947814961998937e+01  4.5048573108403467e+01  4.4921231887115603e+01  4.4974732402640555e+01  4.4927424780185021e+01  4.4994032914313500e+01  4.5007679059374567e+01  4.5106207504580951e+01  4.5024322097196901e+01  4.4999232177407080e+01  4.5265827785716851e+01  4.5002320507737494e+01  4.5120296295360824e+01  4.5197522737297398e+01  4.5027762182100837e+01  4.5015550283967116e+01  4.4999579523260913e+01  4.4999603861571124e+01  4.4999121176088984e+01  4.4974582406123858e+01  4.5002833139617792e+01  4.4993023371435264e+01  4.5023589053799121e+01  4.5227599220049420e+01  4.4978377194611909e+01  4.4972708003674342e+01  4.5197609480298389e+01  4.5027437828231896e+01  4.4988822515844760e+01  4.4978532813803639e+01  4.4965015172382145e+01  4.5010790533683831e+01  4.4939875351979865e+01  4.4932542964008938e+01  4.4961613859406597e+01  4.4945202777252547e+01  4.5040742460949780e+01  4.5051957300535712e+01  4.4966932567417359e+01  4.5003340406241300e+01  4.4998999658144889e+01  4.5042515365925162e+01  4.5131699981475400e+01  4.5068433708177075e+01  4.4949564597664121e+01  4.5003758545551200e+01  4.5009153051444301e+01  4.5083029718586623e+01  4.4938429206568216e+01  4.4860046568485600e+01  4.5001277644933459e+01  4.4999716750708238e+01  4.5022442207667964e+01  4.5000077548835982e+01  4.5367807094169031e+01  4.5028590325074411e+01  4.4962630325987320e+01  4.4983599345233444e+01  4.5012696951958027e+01  4.5291128330313825e+01  4.5052431783169524e+01  4.4988328978865368e+01  4.4806437141069530e+01  4.5001022630774457e+01  4.5001663486494856e+01  4.4909969433938272e+01  4.5021516755500336e+01  4.5318285498532731e+01  4.4991980022394934e+01  4.5008756192176406e+01  4.5060973649663353e+01  4.5050610323766648e+01  4.5000568639948774e+01  4.5212793621648849e+01  4.5019524656906491e+01  4.5143364295209963e+01  4.5014287657720210e+01  4.4977571847883745e+01  4.4974240004382665e+01  4.4951383150093179e+01  4.4979190920005927e+01  4.5044937616305866e+01  4.4991124062277365e+01  4.4991711999993008e+01  4.4948678365189778e+01  4.5037299482928589e+01  4.5104380618491845e+01  4.5009703425140266e+01  4.5139876168348088e+01  4.5123115898437042e+01  4.4824988928427118e+01  4.4921773127887811e+01  4.5032797963868830e+01  4.5016822907196989e+01  4.4936880073643330e+01  4.5087751156131070e+01  4.4998117481771608e+01  4.4997407443680984e+01  4.5016494308096242e+01  4.5006411218511012e+01  4.5061721255987770e+01  4.5075733635102324e+01  4.4997505929346602e+01  4.5050884270946213e+01  4.5132406025926109e+01  4.5376775909553018e+01  4.4996917913277137e+01  4.4992033651309278e+01  4.5012167869504481e+01  4.4981337129488914e+01  4.5032534912646092e+01  4.5012275122173250e+01  4.4994357158407375e+01  4.4982615038799274e+01  4.4978764148414932e+01  4.5009937972327535e+01  4.5219722944374759e+01  4.5072928316656480e+01  4.5014017535911080e+01  4.5847605478829358e+01  4.4998338415658864e+01  4.5006777807269074e+01  4.4964815704564550e+01  4.4925313750579093e+01  4.5034103665722725e+01  4.5610028377063095e+01  4.5003901360445710e+01  4.4899103943652868e+01  4.5652684220300067e+01  4.5488008117381057e+01  4.5464542959468361e+01  4.5141667727940316e+01  4.4945186745408506e+01  4.5009933121973582e+01  4.5006814091940647e+01  4.5006734360944684e+01  4.5008297607820886e+01  4.4989339597096837e+01  4.5140412725371533e+01  4.5031613862644207e+01  4.5029646971926411e+01  4.5084532005620922e+01  4.4974793574077239e+01  4.5022365519427730e+01  4.5059685557917753e+01  4.4963654453977227e+01  4.4954517438199083e+01  4.5037914287759925e+01  4.5020520543563322e+01  4.4958492574291583e+01  4.4987776476346028e+01  4.5010819610654806e+01  4.5141314839196163e+01  4.5026334693880841e+01  4.5016244322481747e+01  4.5125374338673574e+01  4.4986667955940128e+01  4.4994646212157086e+01  4.4939127986313949e+01  4.5036822810266017e+01  4.4960407872602332e+01  4.4988329126459988e+01  4.5378378102596606e+01  4.5368695302540893e+01  4.4999510738345840e+01  4.4990551389227775e+01  4.5041697043164660e+01  4.5179793669141873e+01  4.4985463877390956e+01  4.4999970440268598e+01  4.4747023486536030e+01  4.4969347336552005e+01  4.5012945218898047e+01  4.5022998742137005e+01  4.5021752552213748e+01  4.4994362225218623e+01  4.5023712546477142e+01  4.5050576477162352e+01  4.4949053474627640e+01  4.4974867076144697e+01  4.5000066871006858e+01  4.5003130582640345e+01  4.5015232922292483e+01  4.5022412607186517e+01  4.5001805173727035e+01  4.5025375492248301e+01  4.4912207691929389e+01  4.5313782724733201e+01  4.5024106982172270e+01  4.5021174574974843e+01  4.5073118877532224e+01  4.4985023604727303e+01  4.5080767848297342e+01  4.4985154693983233e+01  4.5062939963012589e+01  4.4980691387227175e+01  4.5238128046014673e+01  4.4999856643976521e+01  4.5001991994139139e+01  4.4998791748590847e+01  4.4994855766922285e+01  4.4972398214024494e+01  4.4967201414269077e+01  4.5295672328517163e+01  4.4913244192002708e+01  4.5008635410298147e+01  4.4884856901977621e+01  4.5012276217650438e+01  4.5009444229553566e+01  4.5404759226823465e+01  4.5227236837034489e+01  4.4999058584860023e+01  4.4938155749585988e+01  4.4968339647365340e+01  4.5001669152760599e+01  4.5311567004717645e+01  4.5717634933094239e+01  4.5314633570048777e+01  4.4999409183446851e+01  4.4985699330693372e+01  4.5000488625083150e+01  4.5033405453036181e+01  4.4954390779752984e+01  4.5158088725322074e+01  4.5007142824930924e+01  4.4944319115820100e+01  4.5000424389978100e+01  4.4991373948436120e+01  4.5037386059572491e+01  4.5528382378924682e+01  4.5065479043845997e+01  4.5227616831626129e+01  4.5412095333988987e+01  4.5807107859424512e+01  4.4937167246931118e+01  4.5017200764863382e+01  4.4998785147232404e+01  4.5129274613665750e+01  4.5024934352466055e+01  4.5002621465568822e+01  4.4989042689890752e+01  4.5011477168382449e+01  4.4938173981292231e+01  4.5031066154505595e+01  4.4975654002286269e+01  4.4966037065255605e+01  4.5035831647108388e+01  4.5038849323387922e+01  4.4989573814626858e+01  4.5013020984857413e+01  4.5013195038045716e+01  4.5000486966529891e+01  4.5047273261060447e+01  4.4999751204432101e+01  4.4908433795854577e+01  4.5104283363527038e+01  4.5007274108055078e+01  4.5037342535618897e+01  4.5019680224965768e+01  4.5020453902895085e+01  4.5049625630534329e+01  4.5004074220237428e+01  4.5078272637545147e+01  4.5034907331752301e+01  4.5035481198905913e+01  4.5006457977326100e+01  4.5039936487334117e+01  4.4956561364061635e+01  4.5012723200869580e+01  4.5014107560632908e+01  4.5027750956981038e+01  4.4996093842545129e+01  4.5001974883331101e+01  4.4977092054762288e+01  4.5007996355463803e+01  4.5130584410055747e+01  4.5002819674328869e+01  4.5010531976489141e+01  4.4999020562631358e+01  4.5009368664885613e+01  4.5010651097465157e+01  4.5000674713476968e+01  4.5541448458726755e+01  4.5062541822313932e+01  4.4980568291759873e+01  4.5003625877957703e+01  4.5343553639932765e+01  4.4963045931405119e+01  4.5291432482148608e+01  4.4987259791404043e+01  4.4996634113338402e+01  4.4989643247159030e+01  4.5007453600715202e+01  4.4955100698927289e+01  4.4896605345076772e+01  4.5055842233577636e+01  4.4991540113884746e+01  4.5001790434272074e+01  4.5256272133604071e+01  4.5076135203367826e+01  4.5011530514603315e+01  4.4994087568095956e+01  4.4982355553863513e+01  4.4998344750214436e+01  4.5048122500448208e+01  4.4985887752393118e+01  4.5021766209001242e+01  4.4985207163526482e+01  4.5035276814622321e+01  4.4984148769026902e+01  4.5000951017197281e+01  4.4668691445681141e+01  4.5025394298836069e+01  4.5053367668473363e+01  4.5003519118540524e+01  4.5023337102316859e+01  4.4936014415288469e+01  4.4970240931690952e+01  4.5003309842306734e+01  4.4934450762484794e+01  4.4998571865874816e+01  4.5029131823724541e+01  4.4998957500779461e+01  4.4999945526527974e+01  4.4966680790661925e+01  4.5445582767799891e+01  4.5060242245392260e+01  4.5016965424738217e+01  4.5075841042266227e+01  4.4995780581600123e+01  4.5033216560604444e+01  4.4999674124913035e+01  4.4999211819026371e+01  4.5234963648966847e+01  4.4996591037603928e+01  4.4947673293473194e+01  4.5032652737246231e+01  4.5111602142038841e+01  4.4995275777028169e+01  4.4964315398887976e+01  4.5000027310122498e+01  4.4992638170176043e+01  4.4899550772438261e+01  4.4953925940884169e+01  4.4926119447571885e+01  4.5034591161136170e+01  4.5000524697316074e+01  4.4887840379240956e+01  4.5018309571705906e+01  4.4985237162497626e+01  </DataArray> 
</PointData> 
</Piece>
</UnstructuredGrid>
</VTKFile>