<?xml version="1.0"?>
<VTKFile type="UnstructuredGrid"  version="0.1"  >
<UnstructuredGrid>
<Piece  NumberOfPoints="650" NumberOfCells="2073">
<Points>
<DataArray  type="Float64"  NumberOfComponents="3"  format="ascii">7.134238 38.033134 5.162254  5.471139 38.293011 6.257996  6.278216 36.958721 5.996462  6.55705123914489 37.43763158013925 7.155721224225892  2.653628 34.847507 30.597332  3.485443 34.419056 31.911306  1.973563 34.609741 32.497864  2.120902974201627 33.32629723265568 31.73956793842947  4.921835 33.540028 26.260792  5.03504 33.560276 25.179058  3.9426 34.028347 24.826385  4.371099990713065 35.67092091712594 26.13706810087084  4.692637 30.583151 4.861573  3.597645 30.498425 3.925093  3.271394 31.200409 5.96299  3.7392 31.924501 4.6527  2.916744 34.092014 6.696283  3.064003 34.401306 5.170222  1.772542356220217 33.47702460672362 5.233058680193142  1.348408170655507 35.24965815797942 5.69069693769211  5.927545841203485 37.44252580808571 26.4088136695961  5.628606 37.675838 24.062458  4.067003756204165 38.15822251054711 24.79860677123283  6.564009 37.759037 25.363991  3.400465 32.449215 16.763197  4.800648 33.216667 16.499775  4.198258552881716 33.39421215672068 15.14291225398239  3.24898509940653 34.33486442475765 16.42106082231366  4.516026 35.888237 18.611467  3.509808 34.625431 19.140245  2.948680626065284 36.46734769150365 19.40666729323499  3.254995841415359 36.4830360273038 17.63665009741101  2.50017 40.003617 23.075459  1.267499 38.554485 22.550705  2.147431 40.003617 21.532776  2.462447826113686 38.14520302808795 21.69123070199086  2.058006 40.003617 18.939367  1.658614 40.003617 20.244114  0.8298 39.370419 19.70191  2.094449807866842 38.88109055929553 19.69564574016417  2.371933 40.003617 5.941247  3.420663 39.324146 5.545565  3.518383 40.003617 6.822994  2.868937018588673 38.40777353041463 7.086118923181436  4.301918388490042 38.76732505619694 8.142775428778121  5.60376 40.003617 9.540986999999999  4.827529 40.003617 7.914876  4.149047 40.003617 9.753643  4.11617 34.650375 32.975658  4.76998 35.182808 31.785521  6.064605576299736 34.74651541576341 32.59896136681805  4.747394070488325 33.70217112729507 31.95783305032437  1.198119920785469 33.69055522522897 3.730652810167439  1.62176526984662 31.76625787935345 4.654284379555587  2.840045 32.38364 3.48362  4.623353 37.956009 19.887455  3.820722 39.003403 19.38345  4.453475 37.855915 18.371744  3.386178217167082 37.84337071504968 20.00798768298544  5.987033 39.288567 26.532547  7.052782 39.206371 27.422525  5.025211215042855 38.50372039791999 28.13003036437829  8.800796 36.048061 30.072336  9.469277999999999 35.416435 31.13423  8.551897 36.10701 31.823  7.457604497486559 35.0196921044006 31.02297966678735  1.55471591745691 37.60998374455253 20.10910395074165  0.65379 38.70351 18.381653  3.237194 35.565033 22.632822  4.767841 36.346806 23.343134  4.103163 36.756397 21.944866  2.954376348658149 36.97993038885619 23.24698520512901  6.400694 39.279545 6.490054  5.443164956425464 38.02534619565261 7.538158496659907  5.660607195491386 38.93789623218091 7.889121603402454  8.413506999999999 38.118698 30.710207  7.952608 39.143265 29.944914  8.285653999999999 37.477982 29.841377  6.96047521804117 38.30729371696605 30.20678767264546  9.815061999999999 38.669121 11.854831  8.745260217386583 37.18636942460312 10.91343837701522  9.359136085805602 38.51774938447072 10.21770314327276  10.269741 37.14492 11.633819  0.725976 30.255003 29.70612  0.02680700000000003 31.547579 30.259071  0.981898 31.05102 31.047232  1.429528486083722 31.95483307794743 30.15687570847614  2.524228974944827 37.86811110861701 13.48982177907233  4.398735 37.943054 12.925835  3.232654277322181 37.60379873106396 11.66564182543271  3.433657 38.769642 12.510438  3.613894 39.147453 11.217586  4.33093764338707 37.43307901413506 10.37495012246891  2.811140826295371 38.39480187433625 9.454320485460709  10.764468 36.229954 9.460483  10.628813 35.333916 8.609537  11.479316 34.903507 10.013671  9.591999096146756 34.5502019965144 10.41159897394621  2.90877360633878 36.45961293831254 8.072398739649996  4.283804697233704 37.05254321136133 8.227361909889151  1.839679101227398 30.24549023586339 28.10764553433802  1.129670055728285 32.11966442555734 26.78582090306421  2.559787 31.652945 26.983936  1.325141136432241 30.273358576872 26.70909192882823  4.225823 35.728775 7.436896  6.126804736996271 36.43724937713166 8.647707751480747  4.938836 35.103443 8.793277  8.572895000000001 33.53146 27.295223  9.585381 33.650139 29.040327  7.83918297429179 34.29562610138936 29.39668732504326  7.513870149747669 33.0600166744177 28.2559227279302  5.027388599132223 36.33186971571431 28.10008711629326  6.892355414377342 34.88503004115164 28.48684389050279  6.973848193280287 36.49735081323644 29.60953621514694  5.631201588038532 35.07800334322631 30.27663836307641  0.02680700000000003 33.494999 28.056759  0.02680700000000003 32.078873 29.0012  1.689911387890301 32.10180116780366 28.30537259583109  1.479868612274965 33.80603219518191 29.56019955545604  2.542523 32.638454 7.035655  1.555327 32.322655 7.920712  2.020437 33.460739 8.317389  1.164582996718431 33.82683509192301 7.247827324432883  5.896748 35.755142 13.252295  6.086187 35.758133 14.73333  5.045902 37.145004 14.118255  4.821356119810141 35.50527216667835 15.17457355748417  2.832286 33.945087 11.258298  0.674466 33.19537 11.151496  2.19204 32.747021 12.263416  2.181517898003563 34.80176028044504 11.89307923269051  1.10698246789844 34.95990315436637 4.374347645364345  2.720999 34.158966 3.827008  3.895901 35.192017 23.645988  4.970907 35.046379 24.049143  3.484012072566549 36.44397436386654 24.79472961447719  3.729842 35.635014 20.622282  4.660664 36.82283 19.832218  3.965856445130194 37.13967431679739 20.13008836599521  3.47193 33.331932 4.42608  7.069053270435346 38.83505048751886 8.633525061463988  6.449147 40.003617 8.213327  6.863288 40.003617 9.460395  1.904530210588901 34.21532351543812 26.06575883133671  1.415967 35.562401 27.024403  2.004528 36.179787 26.383593  1.090819 34.970406 26.024574  0.02680700000000003 34.163284 10.720107  0.715006 33.622974 9.317588000000001  0.02680700000000003 35.1875 9.859639  1.382802928583611 35.03903680886425 10.38870812650458  3.438446516616402 32.86369351125002 29.70010734725276  4.041749 35.131378 30.465921  5.800328077532436 32.91987331397785 29.68925594399678  1.839134 31.26232 7.305225  2.304214 29.663908 6.663404  0.915312 30.211807 7.211191  1.443989443449543 29.67489401138662 5.519959937240876  0.02680700000000003 36.617828 4.388162  1.456166 36.597904 3.845937  1.371705106356638 37.10610418879917 6.129147011301793  7.438717 36.31918 25.944456  7.398265 38.075985 26.995888  8.553705225564389 37.51780019517781 5.746146460656225  8.080991503902705 35.60890325527839 6.985471778119003  5.805654 34.347828 15.781338  5.289114795471023 34.36018232845525 14.03206523408756  0.02680700000000003 29.191679 27.870087  0.02680700000000003 30.833199 28.181568  6.170963 35.687046 24.649467  6.715104 39.334038 10.748785  8.384216 40.003617 10.190149  8.119088 38.862228 11.697617  7.117256435828892 37.46447633799789 10.40324398324236  6.513864 35.130177 13.829014  2.259838 33.728085 19.586102  1.6622 32.122162 18.904894  1.101594 33.057995 19.858515  1.260919906209859 33.30773815981784 18.38619064067759  8.249909000000001 36.473808 27.387804  5.636549 39.29863 30.141195  4.625766 38.218693 29.38471  4.351255 39.190292 29.12368  1.296752637030619 28.83213515915555 15.02304755513987  0.02680700000000003 29.338303 16.419537  1.465854670522593 28.10945790028404 16.61812587033208  1.235259782833672 29.80025376146078 16.36291976633194  1.522348 35.275826 3.172387  3.300162 38.679321 17.240685  2.510439245385137 38.17603914202802 18.31143808008192  0.653517 32.423904 31.490183  1.706937 31.530283 32.172577  9.086622 32.832382 10.962858  8.472572302442066 33.4262614441977 10.5485138619584  10.68917046202244 33.33347849128401 9.896496263566513  0.02680700000000003 37.473919 21.217199  0.818134 36.748341 22.221983  2.772461 34.255028 9.086269  3.763729 34.939243 9.168168  3.354006 34.797855 7.938902  2.008837749071533 35.6146526243058 9.302219864773726  8.501679460816474 35.61694749344851 9.302524923529381  9.334579688154248 34.40087855923689 8.615662548607892  0.02680700000000003 35.588692 14.214747  0.02680700000000003 37.324421 14.011504  0.02680700000000003 36.985817 15.065514  1.064722861926345 36.81148435466726 14.23196297648947  0.02680700000000003 35.941006 5.97787  0.02680700000000003 37.371044 5.585925  0.02680700000000003 37.013359 7.396872  7.766269 36.893139 31.022118  6.49866 35.972336 32.191906  2.782394 37.46175 27.321535  4.836693 37.050365 29.556269  4.290681 36.036575 29.510868  3.575597 36.87973 28.657701  6.483456545684485 37.7847395118396 28.65712062030336  4.474166 35.665092 11.307182  2.952278042155539 36.06835446388827 10.65419049842323  0.02680700000000003 32.368225 25.392359  0.706825 33.29744 24.381422  0.02680700000000003 33.761696 25.250351  1.156076097754122 33.20147736209875 25.45271994151601  3.295571 33.070198 5.594612  1.447412582882422 32.40384833533199 6.509295081583288  5.140989 36.546619 6.92757  5.546623 35.135143 7.539435  6.160748 35.06995 6.068327  9.940376000000001 40.003617 7.580068  10.523048 39.148335 8.878617999999999  9.338228000000001 40.003617 8.657534999999999  10.149864 38.314201 7.388743  3.493966 38.036556 15.135055  3.831889217031819 36.14031493089808 13.53337809233169  3.606143 38.326382 13.7308  2.515803 32.611198 26.510111  2.19063525933686 33.96970802645856 27.81097793655891  0.02680700000000003 35.119656 4.724266  0.66531 35.77943 3.328223  1.44050688503053 35.33736906196136 7.964622575439726  0.614684 38.080376 15.100587  2.353021 35.55769 4.546065  8.70897696849884 37.73161860604054 8.413236141967584  1.61089 28.618675 26.100693  2.650891 29.040674 26.685246  1.637053 29.932678 25.698561  1.364413218221877 37.25959694255328 18.30338797704225  0.02680700000000003 37.368279 18.96
[...]
<PointData  Scalars="p_CO2"> 
<DataArray  type="Float64"  Name="p_CO2"  format="ascii">4.5045681421583218e+01  4.4961685648079062e+01  4.5112778533342635e+01  4.5189688709913703e+01  4.4991736321288322e+01  4.5002217715955283e+01  4.5031025507684639e+01  4.4887908993416445e+01  4.5029195534073516e+01  4.5018501408615684e+01  4.4968273669153213e+01  4.5000311825701750e+01  4.4834149945625498e+01  4.5046227254793919e+01  4.5002180529726580e+01  4.5339599092559752e+01  4.5044913139532092e+01  4.4976771706482467e+01  4.5073591416948034e+01  4.4932472375552734e+01  4.4978861005066271e+01  4.4997849357978616e+01  4.4985381560114860e+01  4.5021146608615361e+01  4.4979272656909536e+01  4.5005805805370649e+01  4.5030506022453309e+01  4.5001498393454142e+01  4.4995281018070237e+01  4.4995642481731934e+01  4.4965305862294159e+01  4.4960766632484486e+01  4.4887857795803484e+01  4.5039881014273945e+01  4.5087091276897318e+01  4.4902022027766748e+01  4.4979958233474946e+01  4.4968843736214559e+01  4.5082046601801778e+01  4.4956992729582915e+01  4.5045186032143008e+01  4.5044552110419041e+01  4.4945395540733969e+01  4.5006166996871436e+01  4.5070860186985676e+01  4.5027165085873008e+01  4.4998729153837061e+01  4.5000619873895410e+01  4.4940617941194326e+01  4.5019656819633461e+01  4.5041903604967338e+01  4.5046276181878625e+01  4.5016752537225003e+01  4.4874339341716698e+01  4.4952994190559664e+01  4.4988551411621344e+01  4.4998193399655499e+01  4.4986119261548012e+01  4.4922477842466677e+01  4.4988135052807898e+01  4.5066906169011439e+01  4.4926244702632886e+01  4.5007473661853318e+01  4.5095089098898882e+01  4.5121348827145496e+01  4.4684564519901095e+01  4.5097190743256469e+01  4.5014784334392495e+01  4.4898640036040398e+01  4.4863363073601107e+01  4.5105927588949974e+01  4.5234805813346725e+01  4.4984693314887373e+01  4.4932907816563969e+01  4.4825411179486892e+01  4.4954567029502968e+01  4.5057853163376521e+01  4.5225138714971322e+01  4.4631707704806921e+01  4.5010335595113339e+01  4.4934650965203382e+01  4.5051409914403798e+01  4.4971097841192837e+01  4.4949619590180987e+01  4.5000000000923876e+01  4.5067033977541932e+01  4.5088609382140696e+01  4.5003117312458073e+01  4.5013160321733444e+01  4.5200532680243271e+01  4.5040279085242865e+01  4.5007479613121873e+01  4.4685521762341438e+01  4.4933659498510188e+01  4.5056222165768261e+01  4.5063486266663574e+01  4.4861454105730964e+01  4.4979683063324892e+01  4.4920093162707275e+01  4.4984921214585235e+01  4.4998757172349855e+01  4.4869632202643722e+01  4.5016904601378158e+01  4.4910911908495173e+01  4.5077754690035526e+01  4.5112832999099332e+01  4.5172425955203757e+01  4.4989079795983329e+01  4.4996254917388448e+01  4.4961978520837917e+01  4.4991714829580864e+01  4.4994656157608105e+01  4.4972244800659695e+01  4.4984168640992998e+01  4.4994698248018139e+01  4.5000000000923876e+01  4.5000000000923876e+01  4.5048458511972221e+01  4.4992733183764763e+01  4.4954329190326590e+01  4.4969058896025601e+01  4.4986503413254212e+01  4.5162111635313202e+01  4.4943244740819146e+01  4.4996469830804983e+01  4.4851158733903546e+01  4.5008815359890420e+01  4.4943941090806888e+01  4.5015482054422577e+01  4.4971566909118096e+01  4.5036482705372478e+01  4.5021875724637745e+01  4.5010862114590012e+01  4.5139311244135342e+01  4.5036731149073731e+01  4.4983885747599466e+01  4.5003548736565705e+01  4.4945184996936433e+01  4.5001535904938649e+01  4.4915934004187505e+01  4.4959020191062436e+01  4.4981668476915488e+01  4.4984902682727430e+01  4.5195813794148151e+01  4.4975500876667155e+01  4.5009409041030679e+01  4.5045719148208363e+01  4.5000000000923876e+01  4.4969442875608479e+01  4.5000000000923876e+01  4.4942946292069408e+01  4.5046860641089310e+01  4.4980276121481729e+01  4.5041646730510855e+01  4.5046781055774879e+01  4.4968207327346192e+01  4.4904714276828813e+01  4.4989138219417015e+01  4.5000000000923876e+01  4.5025931699512320e+01  4.4997187834582306e+01  4.4982310067868546e+01  4.4996686486925725e+01  4.4945619591570981e+01  4.4952301355893475e+01  4.5009262427618594e+01  4.5001865932553990e+01  4.5000000000923876e+01  4.5000000000923876e+01  4.5047457020766245e+01  4.5036117327502687e+01  4.5001601249649426e+01  4.4962567099159713e+01  4.5179555604213434e+01  4.4963080906653836e+01  4.4948716076078270e+01  4.4994419817716299e+01  4.5021739537441938e+01  4.4965497245426846e+01  4.5015259023891176e+01  4.5023063873582188e+01  4.5063417023376971e+01  4.4962942252300756e+01  4.5111415516492883e+01  4.5000000000923876e+01  4.4746958965209295e+01  4.4803951964831910e+01  4.4972445908911226e+01  4.4979137654245854e+01  4.4993593432923106e+01  4.4930383166909294e+01  4.5021595685223836e+01  4.5014276150892137e+01  4.5077842115646355e+01  4.5082603803862426e+01  4.5000000000923876e+01  4.4962502223195166e+01  4.5015417880787830e+01  4.4966937269136785e+01  4.5095893586530195e+01  4.5057137691978241e+01  4.4949258144586217e+01  4.4973615828072148e+01  4.5000000000923876e+01  4.5000000000923876e+01  4.5000000000923876e+01  4.4953501261603563e+01  4.5000000000923876e+01  4.5000000000923876e+01  4.5000000000923876e+01  4.5613206860411886e+01  4.4968433733905705e+01  4.5048353391767556e+01  4.4983275347403904e+01  4.5003581160770104e+01  4.5042706030458213e+01  4.4914353311099440e+01  4.5246999669370240e+01  4.5043476430105891e+01  4.5000000000923876e+01  4.4998479955367770e+01  4.5000000000923876e+01  4.4958217646433965e+01  4.4976647214817262e+01  4.5033839461898538e+01  4.4668955475109669e+01  4.4909912456579519e+01  4.4915659240516824e+01  4.5036864562005213e+01  4.4958945316137672e+01  4.4980869667164050e+01  4.5058514601066612e+01  4.5071397029427565e+01  4.4703277624721153e+01  4.4953320821939563e+01  4.4999180157626121e+01  4.5018659296177418e+01  4.5000000000923876e+01  4.4928016540568862e+01  4.4943043541113624e+01  4.5049957746578436e+01  4.4988576608741511e+01  4.5030223751199266e+01  4.4991284796512581e+01  4.5033767132531828e+01  4.4952498472310587e+01  4.4919727192850878e+01  4.5000000000923876e+01  4.5000000000923876e+01  4.5000000000923876e+01  4.4880381064414749e+01  4.4981759087012144e+01  4.4984362067835896e+01  4.5004147929438240e+01  4.4980669578525813e+01  4.5004728487316889e+01  4.4963660572279494e+01  4.4978839705602290e+01  4.5006171021738183e+01  4.5018583299649073e+01  4.5038556108728542e+01  4.4945663113579315e+01  4.5019258253476295e+01  4.5005499054966073e+01  4.5059747329062219e+01  4.5044673895947611e+01  4.5000000000923876e+01  4.5000000000923876e+01  4.5000000000923876e+01  4.5000000000923876e+01  4.5000000000923876e+01  4.5000000000923876e+01  4.4926345289757123e+01  4.4991609692812780e+01  4.4996259851807501e+01  4.5011421827419397e+01  4.5000000000923876e+01  4.5208717306360562e+01  4.5053815029026552e+01  4.5027581653295236e+01  4.4961998368609173e+01  4.5000000000923876e+01  4.4887724809028398e+01  4.4984531510767503e+01  4.4990109125194103e+01  4.4955454361586945e+01  4.5004986958035609e+01  4.5020728075304469e+01  4.5000000000923876e+01  4.4936651471120030e+01  4.4980042830304377e+01  4.5030021816394054e+01  4.4925647804510717e+01  4.4938726433022936e+01  4.5018378901434382e+01  4.5059864928172850e+01  4.5000000000923876e+01  4.4910362747110817e+01  4.4974254244414091e+01  4.4996186639438790e+01  4.4861383160188275e+01  4.5116026243003745e+01  4.5042004519116496e+01  4.5015628388133813e+01  4.5040795304135713e+01  4.4832907700242707e+01  4.4927537761981860e+01  4.5019962385369098e+01  4.5191311280723404e+01  4.4965688659610784e+01  4.4983321302676345e+01  4.4869207385852079e+01  4.4899252341774272e+01  4.5064401815447667e+01  4.4986340931714139e+01  4.4984809063330097e+01  4.4730648754573821e+01  4.5000000000923876e+01  4.5000000000923876e+01  4.5000000000923876e+01  4.4965889996845846e+01  4.5047080758353680e+01  4.4963136824053286e+01  4.5027574705462207e+01  4.5026869241808370e+01  4.5129744932979797e+01  4.5073209324956011e+01  4.4988340276620349e+01  4.4986432173187673e+01  4.5032683169218039e+01  4.4881433324644718e+01  4.5193346492322377e+01  4.5006054953942503e+01  4.4924390855339240e+01  4.4954793064730133e+01  4.5000000000923876e+01  4.4620972825094512e+01  4.4946864441791284e+01  4.5000000000923876e+01  4.4996541304072878e+01  4.4946438478066611e+01  4.5000000000923876e+01  4.4981661327734095e+01  4.5042060121081548e+01  4.4966050590991948e+01  4.4995999248734329e+01  4.5072744443791173e+01  4.5206853592440957e+01  4.5176170963825903e+01  4.4912833935532866e+01  4.4754872204602819e+01  4.4972999479700235e+01  4.5035698777313122e+01  4.4999948598085325e+01  4.4987878000465464e+01  4.5139218283568269e+01  4.4958835394797866e+01  4.5024489077731154e+01  4.4938614291628518e+01  4.4852634893802275e+01  4.5202464816853968e+01  4.5000000000923876e+01  4.4939460247132885e+01  4.5316355877202987e+01  4.5060461270425549e+01  4.4959347955415772e+01  4.4854520201877115e+01  4.5074272496194936e+01  4.5014253633203850e+01  4.4971618507676936e+01  4.4938605984340207e+01  4.5032437626009063e+01  4.5000000000923876e+01  4.5000539355833631e+01  4.5029730404395842e+01  4.5000000000923876e+01  4.4976258593308266e+01  4.5043274207723897e+01  4.4941188728615181e+01  4.5064345100190174e+01  4.5167205343213517e+01  4.5037080902153974e+01  4.4951799035856283e+01  4.5000000000923876e+01  4.5065939629924465e+01  4.4949881626203016e+01  4.5130649400163861e+01  4.5009343478302569e+01  4.4912357186758079e+01  4.5010281488142112e+01  4.4947748082830287e+01  4.4966069216380717e+01  4.4462849954465376e+01  4.4948253240440970e+01  4.5013838788115763e+01  4.5009517272420389e+01  4.4992263977690840e+01  4.5073573130148574e+01  4.4995561553936092e+01  4.4982080760431437e+01  4.4912861416501286e+01  4.4966624009171191e+01  4.5012143186920504e+01  4.5058104408848898e+01  4.4976980205848918e+01  4.5067750127797972e+01  4.5003035583228495e+01  4.5000000000923876e+01  4.5076879612467856e+01  4.5040903653447529e+01  4.4939609621174363e+01  4.5016200196094346e+01  4.5107910624761793e+01  4.5001869401037808e+01  4.4984593733310710e+01  4.4999791209346434e+01  4.4851829563947767e+01  4.5000000000923876e+01  4.5000000000923876e+01  4.5000000000923876e+01  4.5000603805710810e+01  4.4986988944573888e+01  4.5042298001797221e+01  4.4727458905499972e+01  4.4913286223176208e+01  4.5000000000923876e+01  4.4928417056034547e+01  4.4970992667624294e+01  4.5000000000923876e+01  4.5000000000923876e+01  4.5128957965714577e+01  4.5001346106990425e+01  4.5053952987898562e+01  4.4847751145268809e+01  4.4902470075015295e+01  4.5000000000923876e+01  4.5037220393881057e+01  4.4956303840047276e+01  4.5070845800994853e+01  4.5038375458536898e+01  4.4973971062092488e+01  4.5050860840253414e+01  4.4971796335584244e+01  4.5085390109343692e+01  4.5001754922077424e+01  4.5005693780330091e+01  4.4988255803445888e+01  4.5008928370138683e+01  4.5071304661473178e+01  4.4797571231850739e+01  4.5038395500260151e+01  4.5010160215375535e+01  4.4962957057279837e+01  4.4953431207267577e+01  4.5015635369701918e+01  4.5025215918108451e+01  4.4994938060498974e+01  4.4994983151371166e+01  4.4996171708655361e+01  4.5023911960817998e+01  4.4953905802207679e+01  4.5000000000923876e+01  4.5000000000923876e+01  4.5000000000923876e+01  4.5043994803492225e+01  4.4948720362015329e+01  4.5086496309255537e+01  4.5073250417197499e+01  4.5203571567270544e+01  4.4989386564422126e+01  4.5020740712469284e+01  4.5000000000923876e+01  4.5000000000923876e+01  4.5000000000923876e+01  4.4992265136088648e+01  4.4967134686030441e+01  4.5024707855944634e+01  4.4987768740950685e+01  4.4972098074734852e+01  4.5013662628386392e+01  4.4979450251615411e+01  4.4996271261500326e+01  4.5000000000923876e+01  4.5000000000923876e+01  4.5066177107048318e+01  4.5058883213854472e+01  4.5060542367124235e+01  4.5002877352783869e+01  4.5011743955548191e+01  4.5301328693688866e+01  4.5000000000923876e+01  4.5024819948239411e+01  4.5076167325444160e+01  4.5013499748018596e+01  4.4941859337664965e+01  4.5000000000923876e+01  4.4846252448987947e+01  4.5000000000923876e+01  4.5000000000923876e+01  4.4979709270914007e+01  4.4998468431884525e+01  4.5023802429297895e+01  4.5000000000923876e+01  4.5005291139088150e+01  4.5052721942809669e+01  4.5000000000923876e+01  4.4992621276926279e+01  4.4941976702142945e+01  4.5055623618091765e+01  4.5007061737976308e+01  4.5006035902667435e+01  4.5027011921169006e+01  4.5017250768969248e+01  4.4983228337084846e+01  4.5000000000923876e+01  4.5094745604223242e+01  4.4982707246035837e+01  4.4969061548832350e+01  4.5000000000923876e+01  4.5040769716354745e+01  4.4970115315177900e+01  4.4841231289648022e+01  4.5125921580808516e+01  4.5000143811799035e+01  4.5017073252330661e+01  4.5044899710401801e+01  4.5029421627753749e+01  4.4966476475390827e+01  4.5061155548252515e+01  4.4977957456166870e+01  4.4964046231516882e+01  4.4933983425333992e+01  4.5000000000923876e+01  4.5028977346299911e+01  4.4976636371850148e+01  4.4972108554409516e+01  4.5000000000923876e+01  4.4975387797264894e+01  4.4974949906923314e+01  4.4958604189493336e+01  4.4961549978278939e+01  4.5026489247525959e+01  4.5184550342702941e+01  4.4938220480845487e+01  4.5000938356376629e+01  4.4929366894651444e+01  4.4758738059606863e+01  4.4976534633638607e+01  4.4943045950617787e+01  4.5081620924807304e+01  4.5011502718871775e+01  4.5276531521959804e+01  4.5532995890994769e+01  4.4963604479950206e+01  4.4937839346943861e+01  4.4957711751287398e+01  4.5037005853732879e+01  4.4933546195283242e+01  4.5003931767530538e+01  4.5011081306511535e+01  4.5035705722191082e+01  4.5020095047560609e+01  4.4998863536248201e+01  4.5000000000923876e+01  4.4963584360789824e+01  4.4982270715075622e+01  4.4989324057132656e+01  4.5057851491561344e+01  4.4976186713316338e+01  4.5265040432828791e+01  4.5000000000923876e+01  4.4907260381938926e+01  4.4955553858806461e+01  4.5052007280867144e+01  4.5000335497682777e+01  4.5020716456699304e+01  4.4997402710558667e+01  4.4997595200678496e+01  4.5018304793306534e+01  4.4983329890398601e+01  4.4948805789884354e+01  4.4976212944087209e+01  4.5149353468721735e+01  4.4965568549528420e+01  4.5004163102253933e+01  4.5000000000923876e+01  4.4986881340915886e+01  4.4964250911378699e+01  4.4991774673751493e+01  4.5024112844250865e+01  4.5014960828095163e+01  4.5010582122144008e+01  4.4891882237525536e+01  4.5033260373472963e+01  4.4981954381753773e+01  4.4922634135260189e+01  4.5099055724496658e+01  4.4955739877219585e+01  4.5000000000923876e+01  4.4997747103528567e+01  4.4865844462180057e+01  4.4975797205882671e+01  4.4952668345369034e+01  4.5002796157919363e+01  4.4985545960535724e+01  4.5184911754882187e+01  4.5069614207064141e+01  4.4973513824632199e+01  4.5012640935034675e+01  4.5142726653255743e+01  4.4810909537653806e+01  4.4990307657441178e+01  4.5142763229308564e+01  4.4939897262215958e+01  4.5010295091569716e+01  4.5015687758157632e+01  4.5000000000923876e+01  4.4960552774972840e+01  4.4974467192949504e+01  4.4993342338018493e+01  4.5003475281899796e+01  4.5029338949874457e+01  4.5004684965005488e+01  4.5029254725953678e+01  4.4980455327168173e+01  4.4989901540554840e+01  4.4964738855868951e+01  4.5011150790863795e+01  4.5035298443524269e+01  4.5079670113232275e+01  4.5009312707002330e+01  4.5000000000923876e+01  4.5019929112518902e+01  4.5016735427024294e+01  4.4786820348347405e+01  4.4935363209131985e+01  4.5030415380255292e+01  4.5002262194623221e+01  4.4995973314659167e+01  4.5005747494481248e+01  4.5055154055305501e+01  4.4869008860864376e+01  4.5007926424136585e+01  4.5000000000923876e+01  4.5000000000923876e+01  4.4950107328750626e+01  4.4914432634648890e+01  4.4967524287924057e+01  4.4959005373126885e+01  4.5044379724720983e+01  </DataArray> 
</PointData> 
</Piece>
</UnstructuredGrid>
</VTKFile>