<?xml version="1.0"?>
<VTKFile type="UnstructuredGrid"  version="0.1"  >
<UnstructuredGrid>
<Piece  NumberOfPoints="620" NumberOfCells="2096">
<Points>
<DataArray  type="Float64"  NumberOfComponents="3"  format="ascii">26.526857 6.359998 10.705928  27.92044328216533 4.953104858799419 8.517145593644903  27.06835159020299 7.082596566346115 8.945796850512522  29.65465881192182 5.923425944602356 9.405615933301883  16.809328 -0.01335700000000001 4.290929  17.893618 -0.01335700000000001 3.426736  16.887096 -0.01335700000000001 2.665009  17.19005962777042 0.9865154810395201 3.468847324527784  20.76408 7.311708 2.439075  20.896225 8.802512999999999 2.861443  21.037191 7.79706 3.814613  22.29990796458043 8.348893107145134 2.879757774698256  25.323948 7.836603 6.169925  24.01925713352778 6.28123624442375 7.503542182038773  25.3873248984183 6.222060445297412 5.713050343394928  25.61437613994522 6.855351154894088 7.442355451602913  17.084988 2.840739 3.323675  17.688803 2.113634 4.364354  18.16325909322191 1.665831259172509 2.190629801551494  27.69529947446319 2.076366729193048 10.39017764971929  26.58378 4.652401 10.922153  28.81973986294469 4.01638785700794 10.60973648107751  26.78140717381392 3.723401753730434 9.041732706833097  29.000549 3.320605 8.554463999999999  20.175013 6.199462 1.567203  20.284212 5.892829 2.777529  19.562344 4.752868 1.996961  21.54985099458173 4.330333068847397 1.912878772279063  25.703373 4.952629 0.9225640000000001  26.441959 6.438513 0.69259  25.26546893250623 7.294513778663734 1.968650285222336  25.42174618775987 5.598554759123193 2.66027614459052  23.651155 9.615437999999999 0.03180900000000003  25.86310131965605 9.434483510941302 1.537524981993732  24.366489 11.168557 2.01503  24.346287 9.857745 2.713108  23.118298 10.231222 2.898875  22.37149 9.673155 4.378044  20.995047 4.80344 6.456675  20.89485 4.036228 7.906526  22.24102055391836 3.610180706052513 5.730000987917365  23.01087933275009 4.297542140655896 7.955847766906648  32.902386 0.679219 9.962210000000001  32.814579 1.754832 8.940807  31.388966 1.480419 9.714605000000001  32.42768770104702 2.821881151409138 10.03330892264288  35.458485 4.456131 6.89063  34.44368983656084 5.858017559869846 5.900184801609003  35.391319 5.247688 5.876731  33.77193908855467 4.73803032053403 6.74477653826616  20.278311 2.755863 7.734007  20.601351 3.338219 6.567168  22.35651076319918 2.088230699872792 7.432879184004477  21.56194547632735 6.198007474179751 1.574599962678183  27.723421 1.452638 8.784215  27.202991 1.816506 7.697396  27.275824 0.7548550000000001 8.404992999999999  26.22806381435569 1.132649924422045 8.41002428015333  33.832432 9.360626 7.638446  36.10772391971128 9.965968214394035 7.274309337755584  34.651909 10.449728 7.813923  35.60785962167256 8.422232895374291 7.73911509217359  24.00145 5.031047 0.03180900000000003  23.410521 3.518879 0.03180900000000003  24.77733 3.801096 0.03180900000000003  24.30895425531581 4.151600945710541 1.735334345900422  20.218065 11.65398 3.026939  21.775484 11.504457 4.239906  22.118135 12.481122 3.499643  20.26207 12.750249 4.456417  20.563757 10.220699 3.569449  18.497854 -0.01335700000000001 4.531456  19.109287 0.775329 5.733486  19.05727 1.995144 5.026016  17.645977 1.036734 5.007983  16.91690851810002 1.423660653576979 1.468502657243572  20.850313 8.619751000000001 1.416296  20.936666 9.809708000000001 0.729368  20.550852 9.944241999999999 1.947997  22.55428195699658 9.451799072351081 1.603181255314754  38.091434 8.661052 8.395061  37.246807 8.615817 7.524701  37.273808 7.56474 8.630637  36.30198031438687 9.156034352919852 9.016178784469194  25.58108265156245 5.533481436582005 8.019850914400662  27.56815944471097 6.087876050150091 6.762448504869062  29.731218 10.038726 2.873748  29.42813627519032 8.702846805249871 1.546174039771821  29.838552 10.797934 1.556685  30.7414342144218 9.369241086604079 1.62625137700024  35.317528 2.564067 0.779415  36.384819 2.796992 1.164871  35.443748 3.601854 1.854967  35.49931 2.425316 1.40374  23.748905 14.283957 0.703887  22.60103481907004 12.84477475492169 1.431456537888246  23.718647 13.011046 1.599547  22.748169 14.602684 2.596738  24.332651 7.784599 5.020685  25.798424 8.040647 4.8933  24.093866 11.840395 0.854064  23.038046 11.804169 2.498424  22.2580019037117 11.08407981214682 1.365355546469298  30.758852 9.886315 3.675044  30.69225545755546 8.572624037112154 3.245659822450889  32.00152131538654 9.417270748143251 3.026551462904916  19.363947 0.699231 3.303506  20.881857 2.950533 9.047829999999999  20.574907 1.317208 9.059314000000001  20.897154747472 1.255765367454622 7.858551360185909  26.63432249978735 4.744287249846321 6.623712191803263  23.122534 8.357752 5.583769  21.055372 7.441794 5.144985  22.86482799283407 6.480875483855963 5.142244340621275  22.42149538644355 7.562117358593766 7.100759172788679  34.839714 8.406475 10.499876  34.109169 7.667312 11.359759  34.504967 7.251663 10.371414  34.49087699294196 6.693951138761522 11.45275685942146  27.875607 2.527586 8.581853000000001  23.4794365344404 5.873896771700125 1.455625102886748  32.851059 10.530567 5.323294  32.99832320252995 8.048484200204888 4.347679573855421  32.957447 9.775411999999999 6.501378  31.715595 9.331649000000001 5.74605  28.757181 5.914578 2.129594  28.687407 6.966165 0.7773  27.642759 6.415171 1.055261  28.18997098843379 7.682128417105586 2.212819651320543  22.305073 15.562874 0.03180900000000003  22.391829 14.082232 0.03180900000000003  28.502094 10.49684 2.369139  28.96925844787232 8.749496643691614 3.101487619603312  27.7203155576911 9.368515260502523 1.851546803170936  23.098213 8.044909000000001 0.03180900000000003  24.402637 8.176868000000001 0.03180900000000003  23.91138727863338 8.661426386763582 1.89120744191234  20.959641 14.69242 0.03180900000000003  20.89909 15.707347 1.219603  19.723749 14.941512 0.869881  20.44670335334206 13.89124727024987 1.121501830816712  34.388672 3.544829 12.461405  34.000252 2.735934 13.306849  34.060978 3.824092 13.477976  33.6064482280206 4.27623586195804 12.76248642573921  23.37693 8.718394999999999 7.395732  22.35057922282553 7.408876543168095 8.669176605462528  23.28389575470231 6.981821673963123 8.582078076796053  25.938894 10.413218 2.679543  20.074871 0.656399 4.963898  25.211905 11.04637 0.03180900000000003  25.546518 9.602563999999999 0.03180900000000003  23.998281 0.640531 1.053849  24.226486 1.291925 0.710168  23.153196 1.134281 0.759613  23.377434 0.906061 2.217416  20.875784 9.007773 4.342227  23.390984 8.18441 4.222922  34.529346 9.690910000000001 11.59514  36.28981119225745 7.7961968066774 12.57633063315916  18.085484 2.015302 0.03180900000000003  17.725058 3.162051 0.992178  19.847559 2.435605 1.032194  19.014679 3.641712 0.805836  20.534122 10.168701 10.194323  20.415691 9.31123 9.447544000000001  21.53985132260048 10.66208417896612 8.595795418020117  21.98145496604939 9.646976527138667 10.05114729867635  22.509493 9.534063 6.225458  22.632891 10.331792 7.388269  21.96459 11.071274 5.877925  21.46501765785554 9.509320138962169 7.320289575155956  21.117359 7.962525 9.202830000000001  22.52318623172647 7.853619845974771 9.686691532602111  22.20043727742905 8.920321915113298 8.576625738491877  19.648598 1.893706 6.586754  20.144379 2.816496 5.511448  21.04247279884476 1.837937630089054 6.147195404397269  32.30631409234718 1.929925830261122 12.89196016983688  32.31241766483846 3.070610958217187 14.22647262924007  33.18121523522437 3.757482323504535 13.62422828497213  32.45758177012177 3.89059775367728 12.73022567443408  20.904448 7.973867 6.597795  21.063635 7.122439 7.81129  21.062445 6.393151 6.452087  19.185934 1.372524 0.865003  22.083502 13.739891 4.12522  19.984276 13.499584 3.452806  21.589428 14.809175 3.822498  21.22381798728584 13.75252024078361 2.198024904739138  29.406429 4.214581 7.405134  30.62392706489289 5.042126050667421 7.732274034487223  30.03511 3.809821 8.360666  25.247566 0.764019 10.295821  24.676807 -0.01335700000000001 8.878318  24.91277669057582 1.218877170063326 8.083986111428505  26.482708 9.525878000000001 3.371922  34.554005 7.331084 2.654474  34.831936 6.107996 3.183077  33.34980052461187 5.579869471434795 4.460540600196472  23.675776 9.760856 8.467257999999999  23.137106 11.161799 8.373047  21.755644 0.8496 5.455263  23.238924 0.701074 5.031  22.17927418852566 2.744000462959235 4.251307843812915  32.652393 2.788443 8.070945999999999  33.02225478103131 4.058837022900045 8.207998295863877  34.07535391290116 3.683282190181028 9.514356777118007  29.294147 -0.01335700000000001 12.180428  30.731598 -0.01335700000000001 11.744096  30.182053 0.6582750000000001 10.624429  29.26906080715577 1.152089163272079 11.35144011113405  34.587673 8.397017 9.218415999999999  34.827007 9.766546999999999 8.569099  35.255009 9.990755 9.831851  23.62093686324942 4.938947458460457 3.697402785420709  24.34186814589603 2.645833645838731 3.687257308712026  24.46400670894689 4.581961232995552 6.029393221864658  20.730265 8.989628 5.652746  20.83330837121228 11.02383776654782 6.747281505721713  35.587177 6.517137 5.266189  35.114952 5.635385 4.357603  33.4126970491058 9.8496527069957 1.820798883935139  34.471928 8.636977 1.837354  34.49745383788247 9.39295315759858 3.020703982044503  33.33462908899337 8.274550294654359 2.369725725169157  26.23348 1.29605 11.339752  26.936234 -0.01335700000000001 10.433573  26.59125026599234 1.261030497117121 9.782954438322172  20.935175 5.616889 5.133441  20.822218 6.438102 3.934302  22.05450515696555 6.504655786250337 3.349616762649385  28.34877400165925 7.215665208784232 4.048203662032921  27.09913446818393 8.458493779014898 3.187059842677092  26.71803685208758 6.745523911606083 3.149377542151496  16.717094 3.256035 1.926538  26.15424755086238 2.155523581314357 9.369744636668962  33.618687 7.986184 0.696816  27.49576 9.252231 4.040142  28.867889 8.900829999999999 4.771009  28.583902 9.619259 3.574524  18.267378 3.566799 2.146348  18.570816 2.974905 3.622145  20.931513 8.715076 10.721838  26.808712 3.
[...]
<PointData  Scalars="p_O2"> 
<DataArray  type="Float64"  Name="p_O2"  format="ascii">9.9934081139941043e+01  1.0005703813369807e+02  1.0006745643840583e+02  9.9924627668443549e+01  9.9958103314565435e+01  9.9918060348580966e+01  1.0002732604590587e+02  9.9959906848895031e+01  9.9997576633687402e+01  9.9997815454169867e+01  9.9971257744500591e+01  1.0001288462570666e+02  9.9991334519620295e+01  1.0001397578691304e+02  9.9982109824621801e+01  1.0001239472945089e+02  1.0002135515372379e+02  1.0003037943562769e+02  9.9888626529059479e+01  9.9993187248765437e+01  1.0001003780670780e+02  1.0003732087933943e+02  9.9994113038170696e+01  1.0001421272129380e+02  1.0005314044301932e+02  9.9979367045407116e+01  1.0024945212939870e+02  1.0011000304523860e+02  1.0001751176822607e+02  9.9983230373044478e+01  9.9989326197106763e+01  9.9974909273083711e+01  1.0000589670850562e+02  1.0006343633091147e+02  1.0005594046472186e+02  9.9990824582075874e+01  9.9975813260815229e+01  9.9995176070700083e+01  9.9980749037144818e+01  9.9977985189408841e+01  1.0002385887146264e+02  9.9970532634153031e+01  9.9994056291610690e+01  9.9999439913978890e+01  9.9991576969348884e+01  1.0001613511665299e+02  1.0000984962064535e+02  1.0000012227579589e+02  9.9996622141128512e+01  1.0001084645247263e+02  1.0002767654305188e+02  9.9965404707404844e+01  1.0006648039194287e+02  9.9957346595324552e+01  9.9984332227471256e+01  1.0003875017112220e+02  9.9981079988517962e+01  1.0000531489427784e+02  1.0003432781751286e+02  1.0002686020210091e+02  1.0000666453470996e+02  9.9962603644195227e+01  9.9996974196264546e+01  1.0001327519977734e+02  9.9987510183848883e+01  9.9995304954286311e+01  9.9961093281235776e+01  1.0014420195096463e+02  1.0001273015919801e+02  9.9854700135759316e+01  1.0001901958447625e+02  9.9994721958169535e+01  9.9707402371468547e+01  9.9815596305744833e+01  1.0012229438793233e+02  1.0019401570101569e+02  9.9997344105662449e+01  9.9976899456396509e+01  9.9998895456849695e+01  9.9963751109281404e+01  1.0004159083586086e+02  1.0005547229481733e+02  1.0006946841058577e+02  1.0029264963013856e+02  1.0004481549541507e+02  1.0001353053852999e+02  9.9992120827902198e+01  1.0004214707095863e+02  9.9937090191747060e+01  9.9961050608687827e+01  9.9999964258553860e+01  9.9999146167669664e+01  1.0000372343421164e+02  9.9999334666471754e+01  1.0006966341340134e+02  9.9912257888391522e+01  1.0017783252507967e+02  9.9902052999625653e+01  9.9986726853011703e+01  9.9978187642071404e+01  9.9982538783635832e+01  9.9947533711685040e+01  9.9954867642716962e+01  9.9955320863430330e+01  1.0000751565476814e+02  1.0000246936491760e+02  1.0000558890124071e+02  9.9994773904903894e+01  9.9981268503384015e+01  9.9934219665115720e+01  9.9973222131395914e+01  1.0005678050851903e+02  1.0001824210831350e+02  1.0001789747516112e+02  1.0002068101432957e+02  9.9999434175927178e+01  9.9964140463079843e+01  9.9859999531129404e+01  1.0004919229137387e+02  1.0000904114395726e+02  1.0008460290725735e+02  1.0000575957209612e+02  9.9995865450050943e+01  1.0000222788548410e+02  9.9997506216482719e+01  1.0002591366132634e+02  1.0001017878356906e+02  9.9999974690173886e+01  9.9976121197376344e+01  9.9984129359476867e+01  9.9920157341126966e+01  1.0002537110359992e+02  9.9988820788582430e+01  9.9888159847696770e+01  9.9994523964393906e+01  9.9983809268279344e+01  1.0002371781150593e+02  9.9982039013353088e+01  1.0008096584167090e+02  1.0003216144275919e+02  1.0003501084342800e+02  1.0008908879402152e+02  1.0002893109049940e+02  1.0013015291154021e+02  9.9895783980872366e+01  9.9964773691767988e+01  9.9878750610091302e+01  9.9813042414281199e+01  1.0000416389951958e+02  1.0011672062019058e+02  1.0001486991568211e+02  9.9975539452727915e+01  1.0001623002680951e+02  9.9977703337428707e+01  1.0009430409986577e+02  1.0007913895786733e+02  9.9995307810303771e+01  1.0003197167817150e+02  1.0008541629047045e+02  1.0020535792377440e+02  1.0017512831723637e+02  9.9680752172659695e+01  9.9998993239792242e+01  9.9981673313884571e+01  9.9971490077970060e+01  9.9995400222418553e+01  9.9996117739866577e+01  1.0001292675476178e+02  1.0001024458253255e+02  9.9950579172338593e+01  9.9970590208847710e+01  9.9971184271678098e+01  1.0001906283095060e+02  1.0011977968250272e+02  9.9929419534896596e+01  1.0013712602591933e+02  1.0007018873914775e+02  1.0000193479626589e+02  1.0001348884406327e+02  9.9983365677588480e+01  9.9999209905648428e+01  1.0001438322203789e+02  9.9985127632845490e+01  9.9946910670408784e+01  1.0000133712655143e+02  1.0007168301126723e+02  9.9976765102177481e+01  1.0002351047329823e+02  9.9993115979511416e+01  1.0022020487389497e+02  1.0002107753861763e+02  1.0006276056980975e+02  9.9992618616937094e+01  9.9997627942692930e+01  9.9974281533436397e+01  9.9982892474738932e+01  9.9985869859360037e+01  1.0003655323889332e+02  9.9999064001826127e+01  9.9996936973910920e+01  1.0009154498680013e+02  1.0002927718590342e+02  1.0002534474637591e+02  9.9947041141258509e+01  9.9970451734092805e+01  9.9981839127304696e+01  1.0003094802122429e+02  9.9951322546096293e+01  9.9992071733734846e+01  9.9971070803424951e+01  9.9991408349104205e+01  9.9975762709148867e+01  9.9971558615880653e+01  1.0001990646716698e+02  9.9993362323161151e+01  9.9979802345561708e+01  1.0004797105738365e+02  9.9996635410051042e+01  9.9943810274227246e+01  1.0000356606824936e+02  1.0001420628011492e+02  1.0002354533110915e+02  9.9905278252999935e+01  1.0009118695583931e+02  9.9962523078038842e+01  9.9945708156089438e+01  1.0002279566386493e+02  9.9989280920540892e+01  9.9977380576978760e+01  9.9974723490546424e+01  1.0003122069344860e+02  9.9986101967196689e+01  1.0002207670529388e+02  1.0001674993682987e+02  1.0004435372481126e+02  1.0007729594046069e+02  9.9949915293283553e+01  1.0015491484941973e+02  9.9984279184062814e+01  1.0001216748386760e+02  1.0002787365886604e+02  9.9728153828082512e+01  1.0007532004006507e+02  9.9966468941714012e+01  1.0005714252158239e+02  9.9983666550358421e+01  1.0002591627503466e+02  9.9986036646323583e+01  1.0000321714758195e+02  9.9958110313076531e+01  1.0000323677529015e+02  1.0001699407396201e+02  9.9895235815472176e+01  1.0001634849037606e+02  1.0005252987773947e+02  9.9993065822552765e+01  9.9978441876582721e+01  9.9871351472187754e+01  1.0000826496704693e+02  1.0001155267392475e+02  1.0005682774106535e+02  9.9983491351965824e+01  1.0002461899221566e+02  1.0001563815620808e+02  9.9964829349962713e+01  9.9956850294084887e+01  1.0007050601268291e+02  9.9983133531902340e+01  1.0000901486169246e+02  1.0001731666901671e+02  1.0001828841817563e+02  9.9805026617812075e+01  1.0000798344832239e+02  1.0002186858261744e+02  1.0002407536661519e+02  1.0001648940673580e+02  9.9960633359162529e+01  1.0001938170101430e+02  9.9978497189290195e+01  1.0002099035157730e+02  9.9999568702682993e+01  1.0000013919039992e+02  1.0000035197761714e+02  9.9977441492805923e+01  1.0000597436652798e+02  1.0006883759875797e+02  9.9990849196250423e+01  1.0002536384565126e+02  1.0000145632058573e+02  9.9985151019178119e+01  9.9999160555097362e+01  9.9999220286990308e+01  1.0042558767167722e+02  1.0000005050530028e+02  9.9995299349358248e+01  9.9996937957419220e+01  1.0001245255221134e+02  1.0003314130290882e+02  9.9975983107047668e+01  1.0001575444547545e+02  9.9991161994112659e+01  1.0001439544642980e+02  1.0001116162917273e+02  9.9961126033907121e+01  1.0005141977473912e+02  1.0001074564985949e+02  9.9973827900192020e+01  1.0003792522815540e+02  9.9982243462029174e+01  9.9917275977733851e+01  1.0000924537858542e+02  9.9983759011346066e+01  1.0001500513087254e+02  9.9985604523791380e+01  9.9996448169939001e+01  1.0001389131747334e+02  1.0001169426473643e+02  9.9975436843369266e+01  1.0005767364644903e+02  1.0004403168391001e+02  9.9997666666409145e+01  1.0000326077528032e+02  1.0001518135399662e+02  9.9999494265186428e+01  9.9994955010506956e+01  9.9997166817518064e+01  1.0000326910531558e+02  9.9995155963783290e+01  9.9988465854118360e+01  1.0002878616951803e+02  9.9958425928882264e+01  1.0002875613664013e+02  1.0002714983436434e+02  1.0007395312181481e+02  1.0006737899558068e+02  1.0004962412757968e+02  1.0001509358908631e+02  9.9991151307204916e+01  9.9990418764818443e+01  9.9975624578929086e+01  9.9982782495303908e+01  1.0001228215878561e+02  9.9919183659250365e+01  1.0018405399289655e+02  9.9940918559784507e+01  9.9988840225130360e+01  9.9980900342073767e+01  9.9988932887197038e+01  9.9971710836636561e+01  1.0001647043245876e+02  9.9990557199616546e+01  1.0000683072734995e+02  9.9942336196582588e+01  1.0000726183462295e+02  1.0002495004060519e+02  1.0000222287693637e+02  1.0002698535563307e+02  1.0002743270506073e+02  1.0004341062039335e+02  1.0000789856497015e+02  1.0008172196591373e+02  9.9953686129860657e+01  1.0003619482822170e+02  9.9738093475616608e+01  9.9705119627844994e+01  9.9894762189878733e+01  9.9725292217929081e+01  1.0006366655829876e+02  1.0008129989536725e+02  9.9947256742687316e+01  9.9913877564915722e+01  1.0001808317244776e+02  9.9983365954399886e+01  1.0000694035253501e+02  9.9958735354346530e+01  9.9997589241217568e+01  9.9949935609915073e+01  9.9979845707046891e+01  9.9981439741304186e+01  9.9988790366670059e+01  9.9930038767086160e+01  1.0006978944249471e+02  9.9961507201784443e+01  9.9937591595827058e+01  9.9954295677678104e+01  1.0008415192661505e+02  9.9990222257020093e+01  9.9996131936373004e+01  1.0001551967611960e+02  1.0004558271398551e+02  9.9979183311450640e+01  1.0002984388147011e+02  9.9968314938461290e+01  1.0004060076194894e+02  1.0000577130139207e+02  9.9987149413642157e+01  1.0004383433165597e+02  1.0029495619322924e+02  1.0029183718095551e+02  9.9969185867025928e+01  1.0001971711060312e+02  9.9983535490582113e+01  1.0000922092209584e+02  1.0000166794906444e+02  1.0005322673059881e+02  9.9989167535803318e+01  9.9912116921596038e+01  9.9993660108355058e+01  1.0001854022071171e+02  9.9936243523498433e+01  9.9993866573278439e+01  1.0012012662931002e+02  1.0011760726154171e+02  9.9911973409224814e+01  1.0016439546189532e+02  9.9949279364037324e+01  1.0001904989171273e+02  1.0002835386426645e+02  1.0014126895332052e+02  9.9950199476097225e+01  1.0001768979368522e+02  9.9987744544918144e+01  1.0001681337931690e+02  1.0001179058039284e+02  9.9999285135311652e+01  9.9971375972703797e+01  9.9992392697284757e+01  1.0003222500235749e+02  9.9841971297742248e+01  9.9972801762325247e+01  9.9994308340085709e+01  1.0000365865113386e+02  1.0006940725844325e+02  1.0001175202861164e+02  9.9933688815854765e+01  9.9992472004529731e+01  9.9984850403187252e+01  9.9894754249460320e+01  1.0001090567764386e+02  9.9992965283377586e+01  9.9928238074299074e+01  1.0002513960056334e+02  9.9887953094195439e+01  9.9988888977263088e+01  9.9983074409580908e+01  9.9942606633871293e+01  1.0023773976487749e+02  9.9866441926778563e+01  9.9975201554624746e+01  9.9918327985050823e+01  9.9988254293507282e+01  1.0003133303333040e+02  9.9959515865808740e+01  9.9997112140453197e+01  1.0001282547011363e+02  1.0001425279356609e+02  9.9995139916757367e+01  9.9983942865952159e+01  1.0001132334682445e+02  9.9991127885216613e+01  9.9992380999965519e+01  1.0000931047963992e+02  1.0003287498826322e+02  1.0013415536648259e+02  9.9920408507864394e+01  1.0001259057724641e+02  1.0001537116070315e+02  9.9866041578478843e+01  1.0000186970567724e+02  9.9985504895822132e+01  1.0001841513514815e+02  9.9942417638300213e+01  9.9997725379969850e+01  9.9963257540568819e+01  9.9981541623788743e+01  1.0001499622956280e+02  1.0002621440458083e+02  9.9998982993748555e+01  9.9945310016532716e+01  1.0012358156837932e+02  1.0003314163531486e+02  1.0006890417147133e+02  9.9987419614035204e+01  9.9804381244994872e+01  1.0004119582357676e+02  1.0001430676925193e+02  9.9991440481431354e+01  9.9994469796829918e+01  9.9998966112370397e+01  1.0004354805578642e+02  1.0000791162361107e+02  1.0003930310181593e+02  1.0000242115399857e+02  9.9995846032134907e+01  1.0005143455293717e+02  1.0002628975003121e+02  1.0000042981352587e+02  1.0009808815678346e+02  1.0004566644332296e+02  1.0003240386360517e+02  9.9962025709489055e+01  1.0002961842397248e+02  9.9976321170646074e+01  1.0002273888968584e+02  9.9993071874401821e+01  1.0009913793929519e+02  1.0000669817621957e+02  9.9982396826571048e+01  9.9986828555276816e+01  1.0001323138109045e+02  1.0008247730966599e+02  1.0002089667874093e+02  9.9967729018515726e+01  9.9947864160276595e+01  1.0007680349578230e+02  1.0001560260250712e+02  1.0002318354874207e+02  1.0001447316753578e+02  9.9988339464674723e+01  1.0000755780574440e+02  9.9966133357852357e+01  9.9982778915655899e+01  9.9925094611729904e+01  1.0014980335458054e+02  9.9993684915130160e+01  9.9979231157851416e+01  9.9999431652239863e+01  1.0006888336334485e+02  9.9978652216578098e+01  9.9975543018314582e+01  9.9980797757324936e+01  1.0002968225435676e+02  1.0036292193279479e+02  9.9919457238421984e+01  1.0000800340819292e+02  1.0000782596204192e+02  1.0004269277180887e+02  1.0000640497433047e+02  9.9991934175545708e+01  1.0003059066578639e+02  1.0006419558017612e+02  9.9981917224305178e+01  9.9997403926721248e+01  9.9991035387751154e+01  9.9995559651277745e+01  1.0001869758889498e+02  9.9924134299650333e+01  9.9874284059447135e+01  1.0000480754346209e+02  9.9995860162733209e+01  1.0001381651476051e+02  1.0000571962203618e+02  1.0001328700981327e+02  1.0000232090860615e+02  9.9972878047837256e+01  1.0000204481465192e+02  9.9995227853061095e+01  9.9994209404722497e+01  1.0012212967253384e+02  1.0005194537716618e+02  9.9999243182077308e+01  1.0000005618469069e+02  9.9917683910437034e+01  1.0003334515318777e+02  1.0000734781989787e+02  9.9914334760778004e+01  1.0000454616763535e+02  9.9978983912703526e+01  9.9981136584647473e+01  1.0000702827803170e+02  9.9973261907460582e+01  9.9982321199702781e+01  1.0000182776309660e+02  9.9999423482142703e+01  1.0004445241965189e+02  9.9995935488755919e+01  1.0006893779873019e+02  9.9822708482892480e+01  1.0039680993478035e+02  1.0022496335467446e+02  9.9976746629364257e+01  1.0014100592382222e+02  1.0004179034268000e+02  9.9991164830577873e+01  9.9936521098529099e+01  9.9980176094483809e+01  1.0003621287057048e+02  1.0000931800956309e+02  9.9982578485017612e+01  1.0000078855914360e+02  1.0000700906285348e+02  9.9903195641276213e+01  1.0001333615946056e+02  1.0002679047549326e+02  1.0003022964398336e+02  9.9994488577912520e+01  9.9756342575768613e+01  1.0002598012288209e+02  1.0002523798451644e+02  9.9990299208699696e+01  9.9983198469714111e+01  9.9727637786737901e+01  9.9996177814191867e+01  1.0002652261210194e+02  1.0002715506316498e+02  9.9949430426948339e+01  9.9987325444117943e+01  1.0002694443629520e+02  9.9875529211860410e+01  1.0003156023736818e+02  9.9973787138706001e+01  1.0002940640124953e+02  1.0001364995153384e+02  1.0000164204874673e+02  1.0000064471218849e+02  1.0000371133463692e+02  9.9988436090702592e+01  9.9906257865554863e+01  9.9990102006543154e+01  1.0000071212387330e+02  </DataArray> 
</PointData> 
</Piece>
</UnstructuredGrid>
</VTKFile>