<?xml version="1.0"?>
<VTKFile type="UnstructuredGrid"  version="0.1"  >
<UnstructuredGrid>
<Piece  NumberOfPoints="10440" NumberOfCells="41783">
<Points>
<DataArray  type="Float64"  NumberOfComponents="3"  format="ascii">30.72780990600586 25.79269027709961 5.608963012695312  30.83317947387695 24.96040916442871 5.327242851257324  30.85519470560805 26.04913078732638 4.499513303350759  31.7207486476426 25.65482647397589 5.156429353593802  31.59518051147461 25.08358001708984 5.936227798461914  30.11992073059082 25.37562942504883 4.829001903533936  31.54273359959832 27.04891728031611 4.763340143577892  32.72768583331695 26.70922341293714 4.925714938128647  32.46904113723465 25.8772973663796 4.299280188946014  33.57593154907227 26.36289024353027 4.933475017547607  32.95919730647265 25.16865742500532 5.390109892887978  33.69029998779297 25.74118995666504 4.583877086639404  32.87577056884766 24.97213935852051 7.30304479598999  32.51303100585938 24.66959953308105 6.335665225982666  33.35221862792969 24.28632926940918 6.655643939971924  33.2155724922308 25.87941527498224 6.413058590062485  33.98273849487305 25.87826919555664 5.397865772247314  34.1456298828125 25.02415084838867 4.939846992492676  33.26342010498047 26.51556968688965 4.005504131317139  32.66243212529546 27.20631396104077 4.036023843103844  29.99832916259766 26.2359504699707 5.261925220489502  30.55108199928149 27.04408732494727 5.140920433003047  29.86743358294969 26.65618849481719 4.365935134365714  32.47250371877674 26.52242127378572 5.896331630307559  31.28330611446669 26.88668406622897 5.930457914573691  31.21566963195801 26.05298042297363 6.374987125396729  31.45639991760254 29.03772926330566 0.1048400029540062  31.55841064453125 30.01943969726562 0.1048400029540062  32.31161880493164 29.67564964294434 0.1048400029540062  31.77128421254234 29.45126470745307 1.053806119763763  32.53094863891602 28.73253059387207 0.1048400029540062  32.88586044311523 29.50435066223145 0.8640409708023071  29.62165069580078 26.01417922973633 4.585062980651855  30.23509210778816 27.33546098249906 4.263957101931374  30.34629058837891 26.60036087036133 5.920845985412598  32.04806900024414 25.37080955505371 6.705502033233643  33.00341033935547 29.53759002685547 1.647655010223389  33.0714111328125 28.74765014648438 1.172067999839783  32.15550838919503 28.96554921915983 2.301396678654728  34.62435150146484 25.32567024230957 5.723087787628174  34.22745448631739 24.81581198344182 6.265077905093335  30.80054092407227 29.83773040771484 0.6896719932556152  33.04275894165039 28.56768989562988 2.179420948028564  34.87422180175781 24.49624061584473 5.282308101654053  35.58712005615234 25.12392044067383 6.192537784576416  29.66749000549316 26.86857986450195 5.511412143707275  29.01742935180664 27.10393905639648 4.412053108215332  28.98838043212891 27.3751392364502 3.573666095733643  29.36067008972168 26.64668083190918 4.840066909790039  29.15029907226562 26.36230087280273 3.912610054016113  35.6425895690918 7.805421829223633 27.36277008056641  35.69223022460938 7.19580078125 26.58629035949707  34.60470692251231 7.36625243761215 26.5142861285684  35.52007950851419 8.251850567500551 27.13849051169577  36.39913940429688 7.861127853393555 26.6499195098877  37.13685989379883 8.569181442260742 26.28104019165039  36.7947998046875 7.939727783203125 25.97591018676758  36.37075892412741 8.932036658771425 26.54225885579558  34.72793960571289 8.664060592651367 28.10000991821289  34.71982955932617 7.873197078704834 27.80454063415527  35.43072128295898 8.299712181091309 27.97384071350098  32.72372817993164 11.34926986694336 25.56191062927246  33.20632934570312 11.99195957183838 25.14351081848145  33.4359016418457 11.55848026275635 25.93277931213379  33.88848035890609 11.01738004293798 24.85209160265559  36.87567901611328 8.419107437133789 25.32357025146484  36.20590535475502 9.702835079947876 25.49954047066108  35.87438730599364 7.928512481523709 25.45673516816795  34.9128303527832 7.159039974212646 27.23946952819824  36.5576286315918 9.299646377563477 24.85242080688477  36.06943893432617 10.96506023406982 24.31126022338867  36.13169860839844 9.98658275604248 24.41679000854492  34.90253026595928 10.4442299558043 24.45587086866067  35.72997212664886 10.9091819133079 25.27166400630987  34.49612045288086 12.85556983947754 23.70204925537109  35.50333023071289 12.68857955932617 24.29021072387695  35.20133972167969 12.19336032867432 23.37294006347656  34.72109337889442 11.85350323099136 24.43751351647833  37.05120849609375 9.096755981445312 25.59375953674316  35.33110777818926 9.203142098470151 27.64647048151715  33.81986249020552 8.367496692297243 27.07898257395482  34.53213424520641 9.620461428709573 26.22548639922018  34.52377913445912 11.33819626906399 25.79539341471861  33.38073120703806 10.50311439200274 25.5105272451344  35.75490188598633 11.92434978485107 23.92411994934082  33.49485015869141 11.0161304473877 26.60416030883789  33.28261947631836 10.58673000335693 27.00785064697266  32.75207138061523 10.93136024475098 26.34918975830078  33.96920013427734 9.204553604125977 27.97221946716309  33.6933708190918 8.239912033081055 28.04070091247559  36.33174133300781 7.290525913238525 25.97731971740723  34.68006896972656 13.06538009643555 24.51547050476074  35.36427935633157 12.32520363328645 25.13113254348877  29.53205871582031 11.21191692352295 33.23213195800781  29.50317931132104 12.34687554127081 34.60804769156135  29.4676565836986 12.94101784890996 33.01410713590946  28.75518277162994 11.23831482914741 34.20020624223484  33.97129821777344 12.15826988220215 26.24456977844238  33.82997894287109 11.46823024749756 26.56545066833496  34.66895680155411 11.30422768325897 27.01298038148052  34.50128936767578 12.98351001739502 25.99725914001465  35.64925072006248 11.95495553765936 26.15524898466283  36.96590042114258 8.19551944732666 27.18042945861816  37.89044952392578 8.856682777404785 27.04892921447754  36.83189560169657 8.875631124629953 27.5000404899507  28.38579633476999 10.94587125992954 38.91910758719599  28.70578271864762 11.76350873159062 38.32443158421099  29.23743845862603 11.0748879156729 39.05488509232327  28.3571532936131 11.66343962317506 39.26552337836791  36.51017264951145 10.88930454600801 26.09442204611858  36.97267452697717 9.829377294750094 26.44020047265373  35.76001628209922 10.34658449500943 26.64331309693011  33.36091995239258 9.988443374633789 27.56896018981934  34.18693161010742 9.988109588623047 27.90727996826172  29.33481025695801 11.70998001098633 37.48682022094727  29.25774955749512 10.99333953857422 37.96107864379883  28.3430789886575 10.98213385565772 37.70276347978689  36.37427139282227 8.124374389648438 27.99474906921387  36.3054313659668 7.972990989685059 27.27345085144043  29.00511932373047 10.2109899520874 37.91268920898438  29.40279960632324 10.3259801864624 38.80858993530273  28.95359992980957 9.408888816833496 38.15987014770508  28.67981292073529 10.26250249094165 38.58335245035968  23.27761077880859 15.05677032470703 39.30820083618164  24.20356941223145 14.55652046203613 39.89208984375  23.64509963989258 14.03020000457764 39.89208984375  23.54950441572135 13.98543015741688 38.73134427860047  26.78860857419974 12.51687203797752 37.14997344568989  26.1080364292967 13.36946305467576 35.87193834639127  25.78936834248817 13.42520970472096 37.4561852151318  25.17332806781042 12.58370672053598 36.06087783163953  20.96418952941895 14.31672954559326 37.27450180053711  20.97517967224121 13.94804954528809 38.15645980834961  20.82745933532715 13.35035991668701 37.20919036865234  21.72238448337987 13.76111481422066 37.24563228633188  36.4788818359375 10.16028022766113 24.95766067504883  28.77976036071777 9.48420238494873 38.9664306640625  24.69143027291434 14.58017658118009 37.64637076189118  24.26098360779201 12.94774935830189 37.74894227505757  24.91430084297609 13.15269303486745 38.88555333842892  36.76506042480469 11.8004903793335 25.27252960205078  36.59117126464844 10.99108028411865 25.06026077270508  37.18141937255859 11.09803009033203 25.6832103729248  26.50811004638672 14.04930019378662 33.00938034057617  26.6605396270752 13.39445018768311 32.98923873901367  27.98662402929056 13.88856093965025 32.68220803933541  26.92860633942992 13.8669118765361 33.79474047689166  29.16246795654297 12.9952278137207 31.78879165649414  29.71247863769531 12.58706283569336 32.05771255493164  29.26602363586426 12.08850860595703 31.80504035949707  28.09148402159686 12.87829522823831 36.32186836495337  28.48608421058178 12.06766735017466 37.07533923002501  29.06043520473216 12.74782407244607 37.13733950814346  28.08802652974654 13.17192799591064 37.44257830527099  28.603696923682 13.92000448234977 34.43523174776142  27.70521528286327 12.57953361774306 33.7596180604661  30.08939933776855 12.4055700302124 38.35985946655273  29.16929255422964 13.07842724978876 38.92719656840762  29.21302188267988 12.42911997773085 37.9910758665107  29.43511129266054 12.11598013894526 39.00522463789517  26.10084915161133 13.20007991790771 33.8538703918457  26.02250740200548 13.58544046112368 34.61506943337133  27.14704424344125 13.22460578869139 34.97360521570682  27.27353401191601 13.80238566373283 36.52286120905399  26.13323974609375 12.48890972137451 34.27767944335938  35.16374969482422 13.25113964080811 25.15073013305664  27.73514197886697 11.35795874035866 36.35883065614445  29.20025924761274 12.4172343838102 36.08609058866542  28.22480089148929 12.19915098382488 35.32481409771921  26.65376091003418 12.62281036376953 33.55836868286133  25.48451995849609 13.78388023376465 34.04896926879883  26.08562088012695 13.96045970916748 33.47072982788086  24.90365982055664 12.75362968444824 34.99987030029297  24.99371226010846 13.38440246870846 35.34156848785967  25.97362266971419 12.79435723286668 35.16138371478304  35.99253418494402 12.80374160376655 25.80514899897457  23.22357126874263 13.83501461600157 37.0859162238446  23.93032873888318 13.36105572133241 36.13258705691803  24.80705619147646 13.70465077913059 36.45
[...]
<PointData  Scalars="c_HbCO2"> 
<DataArray  type="Float64"  Name="c_HbCO2"  format="ascii">4.0261890612007389e-27  4.0847579407897692e-27  4.0164886238871052e-27  4.1161073199761859e-27  3.9503855672794782e-27  4.1505581110723621e-27  4.0642453068687805e-27  4.0543775043095597e-27  4.2098078473964295e-27  4.0271960635634384e-27  4.1156867219528362e-27  3.8977142031912330e-27  4.1719072560522374e-27  4.0958188474417738e-27  4.0390104654817966e-27  3.9897205277824385e-27  4.2491286899359946e-27  3.9376204676991042e-27  3.9598515009982078e-27  4.0288443260749985e-27  3.9552269703146985e-27  4.0319528754057274e-27  3.9917226552150647e-27  4.0130008863738829e-27  4.0601012305500476e-27  4.1644331105388066e-27  4.1777633048761648e-27  3.8834392108640551e-27  4.1847415817245592e-27  3.9830055096910799e-27  4.0665357883668659e-27  4.1580730449600911e-27  4.4446292239869310e-27  4.2061478377728106e-27  3.9820008247766180e-27  4.1745525927118715e-27  4.2240127158544515e-27  4.0006117253572627e-27  3.9995055208345226e-27  4.5646473661233622e-27  3.9454900922990934e-27  4.2052923380322300e-27  4.0159100942510297e-27  4.2249325383365403e-27  3.9621004813568097e-27  4.1886891666537189e-27  3.9759579268186172e-27  3.9110572766961592e-27  4.1011442564469890e-27  4.1414961793508545e-27  5.3786886720809136e-27  3.4973005387778043e-27  4.0793317331168443e-27  4.7782496688071110e-27  3.5471765717198542e-27  4.1841999278545389e-27  2.5901229816659280e-27  3.7913800743838385e-27  2.7169547098176040e-27  4.1558300202312551e-27  -3.9209018337766763e-28  4.2875135123122191e-27  4.3118758211739749e-27  3.7665017778610036e-27  3.7973084362743206e-27  4.0073526075814151e-27  3.9557927949028928e-27  4.1685427932857659e-27  3.5688024745505999e-27  3.6640130916366648e-27  4.0944058443055724e-27  3.8138060702968637e-27  4.1309175385253979e-27  3.8642697250317373e-27  3.9340086603054953e-27  3.6829124394183614e-27  4.8246215386618145e-27  4.2851798072361765e-27  4.8979582859618536e-27  4.4618569290016280e-27  3.8510112688347872e-27  4.0899647249974769e-27  4.5028837185900023e-27  4.4890683584182651e-27  3.0917961540172965e-27  2.6171797224657016e-27  4.9651392460524771e-27  2.6496452259751782e-27  4.5356631133209855e-27  4.2650380081709027e-27  5.0878165072718628e-27  5.2149488016261672e-27  3.9863585308924313e-27  4.2479658005762451e-27  4.1873250881330910e-27  4.0015965735489068e-27  4.0942729173192055e-27  3.9047165391756066e-27  6.3265499823789611e-27  3.5708142951215908e-27  4.1425182949870562e-27  3.8416136839864301e-27  3.9947396334961177e-27  3.5689519299402673e-27  4.3182357538025172e-27  3.8643549636774571e-27  3.8436286621977462e-27  3.8826299984900124e-27  4.3535290346332290e-27  3.7709633120776749e-27  4.1882235883245099e-27  4.2305000504285666e-27  3.6729291381164689e-27  2.7601489942118377e-27  3.9125389320340589e-27  3.9717934461842151e-27  4.1595710571552471e-27  4.4905063226336012e-27  3.6613006671013748e-27  3.9713578811095477e-27  4.2643875996621433e-27  4.1198880313824980e-27  4.0303087696629414e-27  4.1101856227036440e-27  4.2637908472604273e-27  3.6831542630724633e-27  4.1179960102271033e-27  4.1004226359549582e-27  4.0035187842666857e-27  4.0945560442706776e-27  4.0126135346568308e-27  4.3066832042031060e-27  4.1835206172752039e-27  4.0633531097880825e-27  4.0452661708754294e-27  5.1719038960249269e-27  3.9004785320326394e-27  4.0591407546460375e-27  4.0682229532100834e-27  4.0203021825531776e-27  4.2481837183749454e-27  4.0790746039671163e-27  4.5005342331241281e-27  3.9198409109832557e-27  4.1024348878760930e-27  4.1380987471782370e-27  4.0792377857226433e-27  4.1996953921872576e-27  5.5078236497543343e-27  3.8288365304069363e-27  3.9659566091193543e-27  3.9582573179692874e-27  4.7117803500145509e-27  4.1067046530926599e-27  4.0417975114482877e-27  4.1145544601537132e-27  1.9323564189382848e-27  5.1688653479221903e-27  5.1353941235393324e-27  4.0835108181246015e-27  3.8141526798006321e-27  4.1270149068973582e-27  4.0382773970302822e-27  4.1961696578327950e-27  4.0016646872882975e-27  4.0444641999056302e-27  4.1777381369360425e-27  4.2393384049888909e-27  4.0147635126369664e-27  4.3217610357110115e-27  4.0339647684334534e-27  4.0021025564313977e-27  3.8247628214624212e-27  4.0928803013829791e-27  4.1953867433426013e-27  4.5613162188572764e-27  4.0561990605271040e-27  4.0507296825862411e-27  4.0943877527921759e-27  4.0600715065717771e-27  4.3493911725329271e-27  3.5585678048484685e-27  4.0601497038638663e-27  4.0670179515551291e-27  4.0572570325041159e-27  4.2170549806020564e-27  4.1010903356764131e-27  3.9731331746521481e-27  3.7652677707310978e-27  4.0157140590697816e-27  3.9989318167872059e-27  2.2408224517904686e-27  3.5137355551639296e-27  7.1067795440848939e-27  3.9200577742847708e-27  3.9896039477349401e-27  4.0327474931866321e-27  3.6939662865362553e-27  3.6998622681114608e-27  3.7617791115285543e-27  4.2468416328158908e-27  4.2583727000819113e-27  4.1523025055221255e-27  3.9757229750156171e-27  4.0693771014225641e-27  3.9023512005165887e-27  3.9529416065491419e-27  4.0839829150515403e-27  3.7383958847560990e-27  4.3329236889151831e-27  4.0811072419371104e-27  4.0731453796216400e-27  4.1230137747781525e-27  4.0632881311604782e-27  4.4938045267161489e-27  4.0910722450061573e-27  4.1148417414365147e-27  4.0866410438164830e-27  3.1178804741571358e-27  4.0762957710145535e-27  4.0335804466991118e-27  3.9926438953907048e-27  4.0874186182055996e-27  4.3182268511203810e-27  4.1435533599694601e-27  3.8761346089693899e-27  4.0020846368201706e-27  3.9173102976029901e-27  4.1128892464331551e-27  3.6131880794548881e-27  3.8864014769451365e-27  4.0562360526840832e-27  4.0655630556452603e-27  4.1696286831618762e-27  4.2445067338760563e-27  3.9838748655670763e-27  4.2077729275416689e-27  3.7625821215874423e-27  4.2112457439391177e-27  4.6344846739038154e-27  4.0152572364996136e-27  3.7444903872977032e-27  4.0694548527788287e-27  4.0213314247938916e-27  4.0895277002602601e-27  4.1790697067328389e-27  4.1388730623742312e-27  3.7578631737780230e-27  4.0035438816786192e-27  4.0638579392008670e-27  4.1360507099960965e-27  3.9690453521068356e-27  3.8806773422535933e-27  4.1212023399667645e-27  4.4445127132794271e-27  4.0019979562375799e-27  4.4302752595008917e-27  4.6505334478749631e-27  4.2177185229690786e-27  3.7969931525124661e-27  4.0762688285649995e-27  4.0655862764757808e-27  4.2394241620806530e-27  3.9862842828238501e-27  4.4831408169388061e-27  4.7257248611529964e-27  3.8583441011050448e-27  4.1064585934663320e-27  4.0700241692497967e-27  4.0676745512384705e-27  5.6095813672329392e-27  3.8639762711298192e-27  3.6497108688818862e-27  4.0387528964411719e-27  4.0717359508546813e-27  2.5394661922746593e-27  4.7816411953402598e-27  4.1435005319493792e-27  4.1368185336292278e-27  3.9448288197771267e-27  4.3186547761496366e-27  4.0459182925088169e-27  4.0670569238096036e-27  3.8595398241023177e-27  3.8424244968610696e-27  3.5526518115663697e-27  4.0831795038759175e-27  4.2600608957751314e-27  5.8365845316079665e-27  3.8286790915617114e-27  5.1142595495338840e-27  4.0605883680249669e-27  4.1570365993508069e-27  4.1185649188750100e-27  4.1143571512678845e-27  4.1317635997442883e-27  3.2617753357461483e-27  4.2768273258156119e-27  4.2392704422060865e-27  3.9698903920826467e-27  3.8102388906957153e-27  5.4331204754938750e-27  4.0725310633267155e-27  4.4020839330086537e-27  4.1898561931023922e-27  4.1141506624671720e-27  3.7386870259952563e-27  4.1187919861262685e-27  4.0633255689159107e-27  4.0988896726215724e-27  3.6998727312693854e-27  2.7929615071452249e-27  5.7102868861035049e-27  4.8269481112613990e-27  3.8548188131298926e-27  4.5423261750808616e-27  3.9028743976454165e-27  3.6269867628369672e-27  4.0977370223023464e-27  3.9930037847716929e-27  4.1056429112348615e-27  4.0175140133096213e-27  4.0283197723584670e-27  4.1139939124354269e-27  4.0915495441700284e-27  3.9806517973009522e-27  2.9728670034114701e-27  5.2824870276733574e-27  4.2900197934618117e-27  3.1140164402110519e-27  3.9989198251592970e-27  4.2295601487902925e-27  4.1963400389608134e-27  4.2282173185806112e-27  3.9773502950952603e-27  3.7084393199395639e-27  3.7515726745071924e-27  4.1664751686531190e-27  4.0048662246059897e-27  4.0442263132249150e-27  3.9997800727804049e-27  4.0759616021593956e-27  4.4738445195060751e-27  3.8385331041099256e-27  3.9221662382999451e-27  4.1059800002082104e-27  4.0169097073002874e-27  4.0588616803253515e-27  4.0868311757230545e-27  4.0999949092890262e-27  3.9850140282206124e-27  4.0957185677762378e-27  4.0820825076629689e-27  4.0494392598982908e-27  4.0760041256000311e-27  4.1221976979197638e-27  4.1308839738633287e-27  4.0032767937354410e-27  4.0994224237034388e-27  4.1519944779305135e-27  4.0178968042569927e-27  4.1080418158587578e-27  4.1326060921120668e-27  4.4179278154796657e-27  3.9412942736220018e-27  3.8096251942292224e-27  4.1826513657518538e-27  4.0019294974069565e-27  4.1722942340684329e-27  4.0617411785374112e-27  4.0153514398630245e-27  4.0031513739048014e-27  4.0709772452850765e-27  4.1430833257698932e-27  4.0279096303601746e-27  4.6460373393703222e-27  3.9630530801379815e-27  3.9597452142602025e-27  4.1633737105229124e-27  3.7513698211209743e-29  5.6705702905990875e-28  5.4063531836392762e-27  5.0830676574956922e-27  4.0647778799819975e-27  3.9602674765274024e-27  4.3056350708437159e-27  4.1347785457124098e-27  3.8286437040365891e-27  5.1033470051009849e-27  3.8648079781467670e-27  3.9544489177452348e-27  4.4347289847371178e-27  1.7162767804515545e-27  3.2851953934469098e-27  4.1558671900212192e-27  4.1520259491648210e-27  3.9586582124154449e-27  3.9162478195582994e-27  4.1083996724504185e-27  3.8474780816834165e-27  4.1161646898230600e-27  3.8569184720132679e-27  4.0547688886844890e-27  3.8464610311949237e-27  4.0753273103113932e-27  4.0598871732690224e-27  4.0706618128599193e-27  5.3220203721501815e-27  5.6538131138556851e-27  -3.7599543036163913e-28  3.3793381134602753e-27  4.0660028314543660e-27  4.0449072656848416e-27  4.1640790546934373e-27  4.0978126333791342e-27  4.1013143060793370e-27  4.1247041900874656e-27  4.0252261993681939e-27  4.1092221943196042e-27  3.9738927347459888e-27  4.0420500730567615e-27  4.0502268857050771e-27  3.9917439662509854e-27  4.0440296840269476e-27  4.0329121116504062e-27  4.0029429475722191e-27  4.0954325753048169e-27  3.9082851750380779e-27  4.1308172506058834e-27  4.1489520414058489e-27  3.9884463283335111e-27  4.1713198269413121e-27  4.0068226118190087e-27  4.0475933377938520e-27  4.1542526990961943e-27  4.1869131193041837e-27  4.0995650403629646e-27  3.9589231764625709e-27  4.0781019791081161e-27  4.0221517248832467e-27  3.8952221674160979e-27  4.0510152877331373e-27  4.0650602772913021e-27  4.0828983447111687e-27  4.0695798966521238e-27  3.9941438971907270e-27  3.1507250952083758e-27  3.3287093828254855e-27  3.6737770965552439e-27  4.3874445312010345e-27  4.0580400362521600e-27  4.1172342277854518e-27  4.0501521280266218e-27  4.3127546689453627e-27  4.3368960225488669e-27  3.4011695488490872e-27  4.1515832370564708e-27  4.0264672693194270e-27  3.9685181316997289e-27  4.0201976928101062e-27  4.0474902740744183e-27  4.1055615330741314e-27  4.0980710034530288e-27  4.0281232847463009e-27  4.0138516897047450e-27  4.1124697501120492e-27  3.9360821843510788e-27  4.0937061465720324e-27  4.0332341314749201e-27  4.0366464557018571e-27  3.6198461166555287e-27  4.0920266273767272e-27  4.2232530642261385e-27  3.8267303473556956e-27  8.6103743644919036e-27  4.7685994616655005e-27  2.4377822341574873e-27  3.9407807075766891e-27  4.1100518153124805e-27  4.0427296990389285e-27  4.1762348633582386e-27  4.0023075541879970e-27  4.1326864524486406e-27  4.0335412497289624e-27  3.8302320532950667e-27  3.8342650574746941e-27  4.5985830946797790e-27  3.6793248996490752e-27  3.9066258658458750e-27  3.7863392686191530e-27  3.7769000226332746e-27  4.1742672909929422e-27  4.0839435045508684e-27  4.0741944495046366e-27  3.9916628218474727e-27  3.9877525525110201e-27  3.9602892864567237e-27  4.4918682566363664e-27  4.4119862686964878e-27  3.8687865353815596e-27  3.8370754973471856e-27  4.1371334273986073e-27  4.4490276639534203e-27  3.6982698465749670e-27  3.9624658945677286e-27  3.7679131462320865e-27  4.0117019696702698e-27  4.1239150640677877e-27  4.0662635935468966e-27  4.1780520209040525e-27  3.9971987097366515e-27  4.0215434581993328e-27  4.0822848437788104e-27  3.9169004881326615e-27  3.9780720444706211e-27  4.0037235311671599e-27  4.0038431274518666e-27  4.0841442917242537e-27  4.1169566658313643e-27  4.0018753012982791e-27  4.1050426315112217e-27  4.3315697501644838e-27  4.0164264013730625e-27  3.9594064379862465e-27  4.0422986412542381e-27  4.0997455243084612e-27  4.0642089568895489e-27  3.6908015374605241e-27  4.3925326930164345e-27  4.3118897590458916e-27  4.1032132329525705e-27  4.1496765656297053e-27  4.0670603638309879e-27  3.9870182873070843e-27  4.8464286222180018e-27  3.2749331871543012e-27  4.3757035795639269e-27  4.1679616325673308e-27  4.0958790436034156e-27  4.0669987323789141e-27  4.0430962760907990e-27  4.0204896528277047e-27  4.0678899326754365e-27  4.1110138907461164e-27  4.0555027338542903e-27  4.1477019621046074e-27  3.0941014385891550e-27  5.1621581090997101e-27  4.5169026496365623e-27  3.9608292819111748e-27  4.1306698927787266e-27  3.9752252114100876e-27  4.0937931647888371e-27  4.0799461903027816e-27  4.0841858528381278e-27  4.2256402899649894e-27  4.0862989128937798e-27  3.9881361007116477e-27  4.1491804558786151e-27  4.0209950905333092e-27  4.1055050756191386e-27  4.2350312276048508e-27  3.7684782232546246e-27  3.7989668211787435e-27  3.8852300998036792e-27  4.1305624089200367e-27  4.0925999902767226e-27  4.0786819038529787e-27  4.0573013093194375e-27  4.0883250126045923e-27  4.0781912239737976e-27  3.9676353938289883e-27  4.5565085460984977e-27  4.2942951704690651e-27  4.0588332548402117e-27  4.1771263050394767e-27  4.1089084230407130e-27  4.5575097712604752e-27  3.5333839356127978e-27  3.8580391018618575e-27  3.5747085108675153e-27  4.1520695183693120e-27  5.0033902685663219e-27  3.6817473235473944e-27  3.7638366024546573e-27  4.2478137126473362e-27  3.9818659396229137e-27  4.0545850925781892e-27  4.2448535062979127e-27  3.9561469157518786e-27  4.0892167816616765e-27  4.0944306078402039e-27  4.0060613706205139e-27  4.1867106256621530e-27  4.0360770235071279e-27  4.1662131717945171e-27  4.0051502136944864e-27  3.9584826660433546e-27  4.0683013801325819e-27  4.0497250435280556e-27  4.0097660756545309e-27  4.0173271057245663e-27  4.0415780777637659e-27  4.0411918888779255e-27  4.0064067000220521e-27  4.8440322766578672e-27  3.8715933438926831e-27  4.2449130781585592e-27  3.4527317112988631e-27  4.0611717120722190e-27  4.0401286781312657e-27  4.0634872332366161e-27  4.0102139943777428e-27  4.2051907588798603e-27  3.9808388909955490e-27  4.0429484417702328e-27  4.1772209524076126e-27  4.0234531122238165e-27  3.6257025587628096e-27  4.0270966401208144e-27  4.1682919646617782e-27  4.0154632132013320e-27  4.1059905005372301e-27  3.9973499431980451e-27  3.8317615453452401e-27  3.6106521811357106e-27  4.2906592227668663e-27  3.7064820255492942e-27  3.9176819623789752e-27  3.7768409713977810e-27  3.9773359433424615e-27  4.7995836130322575e-27  4.1297432371748957e-27  3.9948630954632425e-27  4.1935875141345246e-27  3.9461850850889665e-27  4.0001002291865428e-27  4.8688606073549779e-27  4.0948300842798505e-27  4.1337421796404497e-27  4.1025335513803458e-27  4.1488197719500137e-27  4.2874306248470726e-27  4.0029997294407010e-27  3.6541123486523916e-27  4.3506914399189475e-27  4.9716310546788221e-27  3.8345079618372179e-27  3.9572791348576164e-27  4.1591765457420717e-27  4.3706898149660412e-27  4.1278853683992384e-27  3.9684340388138444e-27  3.4894204694964856e-27  4.0549046743178792e-27  5.7483480337010913e-27  4.0296985736905133e-27  5.3701311649582714e-27  3.6617913550852013e-27  4.0814586902658654e-27  4.0187676199099713e-27  4.1162675711129049e-27  4.0556851231607138e-27  4.0555107432194157e-27  4.0549381755648255e-27  4.0397043820379007e-27  4.1147480889375820e-27  4.0453402566483112e-27  4.0188364259352388e-27  4.0602442185866935e-27  4.0457472144467226e-27  4.1222018174538467e-27  4.0845375317864745e-27  4.0317214266216075e-27  4.0424468502020514e-27  4.0135672464167722e-27  4.0033873221022324e-27  4.5979685851276556e-27  4.2151236316505530e-27  4.0359225900124846e-27  4.0372072897689401e-27  3.3869766039190537e-27  3.5528283204832246e-27  4.0410942386934744e-27  4.4599816500838260e-27  3.8451791213762662e-27  3.6113658543631093e-27  4.2868906627535149e-27  5.3216557077452546e-27  4.1586262281735108e-27  4.0234076538499651e-27  3.9795343276744928e-27  3.9537132756114223e-27  4.0049488989331242e-27  4.1691581116074353e-27  4.0913601222776131e-27  4.0334809680114682e-27  3.7288648670865971e-27  4.2263941102284717e-27  4.1235465712932400e-27  4.2590428743467257e-27  4.0455374285010151e-27  4.0640726464953169e-27  4.1447516281861481e-27  3.9372649411378119e-27  2.8914083481676837e-27  4.4150599651265793e-27  4.2492883948841056e-27  4.0733628068866711e-27  4.0672305525506155e-27  4.0632817828866582e-27  4.0569224774829905e-27  4.0825318129959471e-27  4.0671529986600816e-27  4.0843345661474704e-27  3.9940120518615310e-27  4.0287292162623513e-27  4.0460163531846512e-27  4.0459939182284934e-27  4.0607610794001515e-27  4.1564571185177038e-27  3.9983717571489489e-27  4.1179176507436434e-27  4.1670371692890738e-27  4.0075274102003612e-27  4.1098819215125000e-27  4.4258402706369211e-27  3.9786079242426677e-27  3.8592299658353827e-27  4.6290546853702665e-27  4.1812412547892247e-27  3.8889430397374116e-27  4.0351948060845324e-27  3.7579866050908101e-27  4.0505594372270103e-27  3.7236377314377403e-27  4.0831391247138101e-27  4.1744455891933603e-27  3.9878590123092563e-27  4.0400929843555672e-27  4.0642243146047373e-27  4.0183836630903491e-27  4.0602771228021147e-27  3.9746104293029200e-27  4.1443820917704872e-27  4.0673362167855909e-27  4.1167260776654763e-27  4.0672753182014775e-27  3.9771886729226209e-27  4.2179371117751008e-27  4.0206151654180076e-27  4.2208699362091050e-27  4.0505888453341407e-27  4.0531100547168654e-27  3.9307458468973596e-27  4.5478464304851662e-27  4.4369721208215281e-27  4.4321597934094350e-27  3.2762755661512852e-27  4.1485785237215525e-27  3.6096381175575216e-27  4.0127563717334782e-27  4.2025844171687276e-27  4.0021601501773690e-27  4.0112505571611083e-27  4.3969546377610922e-27  3.9844554089546910e-27  4.2756548247425585e-27  3.4603965805187591e-27  4.8893334941968552e-27  3.9662548050135065e-27  4.1433876496941739e-27  4.0377123923651976e-27  4.0157740216293384e-27  3.9448274561680986e-27  3.9747662010671872e-27  3.9409812897282433e-27  4.1920614857754005e-27  3.9247696871901808e-27  4.0425559364045649e-27  4.0284527866509833e-27  4.1434154871366433e-27  3.9625705453156920e-27  3.9957377263744415e-27  4.0904372850040994e-27  4.0521194128719097e-27  4.0161328494538744e-27  4.0840829839333369e-27  4.0409862490287072e-27  4.1019387234836295e-27  4.1442573618927900e-27  4.1613531582298294e-27  3.9790737691549970e-27  3.9190260565994029e-27  3.9884187313623171e-27  4.1074646672318199e-27  4.0571483321646557e-27  3.9973915879155993e-27  4.2068348211305650e-27  4.0509604535519046e-27  4.0541137519182416e-27  4.0909149689448100e-27  4.1714228060439394e-27  4.0221772614114968e-27  4.0670819894045046e-27  3.9934580021492293e-27  4.6324025603314613e-27  3.9912014376344512e-27  4.1285569406076955e-27  4.1011866689412146e-27  4.2461976442040655e-27  4.0579778915200855e-27  4.1038206173485888e-27  4.1361856863030683e-27  3.9984515022385925e-27  4.0033061697832475e-27  4.0136001929837309e-27  4.0354871265787457e-27  4.1455753875781114e-27  4.1601729313098820e-27  3.9611434574596740e-27  4.1512811382796211e-27  3.5968954798977596e-27  3.9039738692675791e-27  4.1845786933569120e-27  4.0025766984550897e-27  3.6824592506198564e-27  4.8072849177639923e-27  4.0364278600467350e-27  4.183011197