<?xml version="1.0"?>
<VTKFile type="UnstructuredGrid"  version="0.1"  >
<UnstructuredGrid>
<Piece  NumberOfPoints="8692" NumberOfCells="42495">
<Points>
<DataArray  type="Float64"  NumberOfComponents="3"  format="ascii">1.584525942802429 39.89572906494141 22.92720031738281  1.296501994132996 38.96308135986328 23.04791069030762  1.102702021598816 39.2034797668457 22.40666961669922  2.172826438458049 39.01558168694685 22.92397749628122  2.222645044326782 34.57247924804688 23.95841979980469  3.054007053375244 34.39284133911133 24.12126922607422  3.021562099456787 34.95434951782227 23.48752021789551  2.668604342467219 35.37506095165993 24.13144914552331  3.010827779586177 38.59476783492006 22.05317707796448  1.851581237071958 38.02323505874296 21.73054797125295  1.802563059263481 39.13731176402347 21.60924889462688  2.345204664344611 38.50588804469324 21.3779882840844  2.838828091617264 38.98854103064352 21.02542859691585  2.145292997360229 39.89572906494141 22.33062934875488  1.415325999259949 39.89572906494141 21.89780044555664  2.326702117919922 39.89572906494141 21.55400085449219  3.36172111564547 35.82786513220477 24.36496277545412  2.922481245819577 35.8285159675499 23.46725422811424  2.707720958290537 36.66168292957421 24.05744881734429  1.555577993392944 39.89572906494141 20.99844932556152  2.393112897872925 39.89572906494141 20.65292930603027  3.953044891357422 39.106689453125 21.51358032226562  3.333339929580688 39.89572906494141 21.2407398223877  3.816942930221558 39.16564178466797 20.52388954162598  1.183912992477417 37.35641860961914 22.67318916320801  1.517747114774687 37.68982683418105 22.20186856723048  0.9801430106163025 37.52436447143555 22.3445348739624  1.099124014377594 37.90876960754395 22.52032947540283  1.014335036277771 38.46112060546875 22.36746978759766  1.313977132913573 37.85777269599745 21.87321427798488  0.8953540325164795 38.07671546936035 22.19167518615723  0.776373028755188 37.69231033325195 22.0158805847168  3.533012958667228 38.70507466451684 23.33416424332004  3.145593490723073 37.02014213486978 22.95964750746034  2.37462975617152 38.16369005432385 23.33454991155787  3.078210635154625 37.80745498489492 22.5064122927124  3.026417016983032 39.89572906494141 22.23866081237793  0.9313949942588806 39.08314895629883 21.8414306640625  1.391488115665419 38.55319200752089 21.78598931765773  2.462629079818726 35.14009094238281 23.24271011352539  3.111304044723511 35.49982833862305 22.61152076721191  2.246742891630906 36.12125511192495 22.91182234573746  4.65223503112793 38.71205902099609 23.09604072570801  4.479240894317627 38.01884078979492 22.89916038513184  4.191434860229492 38.72452926635742 22.34094047546387  3.115428924560547 39.89572906494141 23.83518981933594  4.093596935272217 39.89572906494141 23.79755020141602  3.579297065734863 39.89572906494141 23.05838966369629  4.406690120697021 39.30796813964844 23.11808013916016  2.57677698135376 39.89572906494141 23.04541015625  3.996742963790894 36.06644821166992 22.92470932006836  3.940757989883423 36.73067855834961 22.11516952514648  3.633816957473755 36.0791015625 22.13257026672363  2.238357356601137 37.5460589068856 22.80346581520447  4.119826793670654 38.34529876708984 21.10232925415039  1.953369975090027 37.47105026245117 23.6240291595459  1.743314981460571 37.00265121459961 23.32678031921387  4.307643890380859 37.09751892089844 22.78998947143555  4.078267097473145 37.71942138671875 22.11622047424316  2.333142551174577 39.03335389466257 23.96809155112035  2.756477648940844 37.88329226472048 24.06190314196662  2.242550124116022 36.83365700940527 22.85764408047097  3.577369928359985 35.34350967407227 23.2509708404541  3.892817330441312 36.1927893546459 23.79318285166913  2.103097915649414 39.89572906494141 23.85409927368164  4.244437217712402 35.26869964599609 23.62471961975098  4.906332969665527 35.92039108276367 23.7056999206543  1.885360956192017 35.53076934814453 23.53009986877441  4.679370880126953 36.61605834960938 23.31193923950195  3.66961407661438 34.72951889038086 23.85150909423828  1.880733966827393 36.35263061523438 23.71542930603027  1.978116035461426 36.0938606262207 24.59464073181152  1.698654055595398 35.06837844848633 24.5144100189209  1.821529030799866 39.39780044555664 24.76453018188477  2.604947090148926 39.89572906494141 24.49416923522949  1.266963611719115 38.24215685127089 21.57145932650782  1.021668320237151 37.96723359226142 21.79366995561231  0.8483405113220215 38.46109962463379 21.88992023468018  0.8123567700386047 38.07670497894287 21.95290040969849  0.752866268157959 37.88450241088867 21.86500310897827  0.72935950756073 38.07669448852539 21.71412563323975  0.682345986366272 38.46107864379883 21.4123706817627  0.7653432488441467 38.46108913421631 21.65114545822144  0.705852746963501 38.26888656616211 21.56324815750122  0.9746547990426935 38.35161774753486 21.49191500413526  1.036917051015846 38.50713532565986 21.59917999971021  0.8068704903125763 38.77211380004883 21.6269006729126  3.854626893997192 39.38607025146484 22.26719093322754  1.652814030647278 38.87532043457031 24.48550987243652  1.377392053604126 39.30635833740234 24.51633071899414  1.456411957740784 39.32553100585938 23.93504905700684  1.242454522814876 38.79919520391115 21.51080978819479  0.9624002545905742 38.63013692385499 21.46159023497874  3.153340101242065 39.89572906494141 20.13582038879395  2.007601976394653 37.07052993774414 24.18184089660645  1.613644003868103 38.73928833007812 23.6771297454834  1.600852012634277 38.00569915771484 23.18190956115723  1.726216624853118 38.0144671082289 22.45622876620509  1.911190986633301 38.04140090942383 24.00573921203613  2.012203837765004 38.51940837284491 22.32726273376709  0.9045810103416443 39.30941009521484 21.17524909973145  0.7934634983539581 38.88524436950684 21.29380989074707  0.09939099848270416 33.08543014526367 18.85026931762695  0.2536190061949418 32.86479277572052 18.82883553475671  0.2536190061949418 33.05599493941681 18.87679772347742  0.2536190061949418 33.02857203444854 18.61487297982507  0.4078470139071794 32.97171392363341 18.3794766420232  0.4078470139071794 32.80793466490538 18.59343919695484  0.4078470139071794 32.99913682860167 18.64140138567554  0.4078470139071794 33.02655973356993 18.90332612932788  0.4078470139071794 32.83535756987364 18.85536394060718  0.4078470139071794 32.64415540617735 18.80740175188648  0.09939099848270416 32.86680507659912 18.54038238525391  0.09939099848270416 33.05800724029541 18.58834457397461  0.2536190061949418 32.80994696578399 18.30498604745203  0.2536190061949418 33.00114912948028 18.35294823617273  0.09939099848270416 33.03058433532715 18.32641983032227  0.09939099848270416 32.83938217163086 18.27845764160156  0.09939099848270416 32.64818000793457 18.23049545288086  0.09939099848270416 32.89422798156738 18.80230712890625  0.2536190061949418 32.83736987075225 18.56691079110437  0.2536190061949418 32.67359061202423 18.78087334603601  0.09939099848270416 32.70302581787109 18.75434494018555  0.09939099848270416 32.67560291290283 18.4924201965332  0.09939099848270416 32.32062149047852 18.65842056274414  0.09939099848270416 32.5118236541748 18.70638275146484  0.2536190061949418 32.48238844832794 18.73291115731531  0.2536190061949418 32.64616770705597 18.51894860238367  0.09939099848270416 32.48440074920654 18.4444580078125  0.09939099848270416 32.97573852539062 17.80257034301758  0.09939099848270416 32.8119592666626 18.01653289794922  0.09939099848270416 33.00316143035889 18.06449508666992  0.2536190061949418 32.97372622451202 18.09102349252039  0.7163030293316546 32.96768932187619 18.95638294102881  0.562075021619417 32.80592236402677 18.88189234645765  0.562075021619417 32.99712452772306 18.92985453517835  0.562075021619417 32.9697016227548 18.66792979152601  0.09939099848270416 34.99974060058594 17.04997062683105  0.3923423594953594 35.04044345139814 16.61260095211266  0.3923423594953594 35.10680583237959 16.89385119053124  0.09939099848270416 35.36833953857422 16.77501010894775  0.09939099848270416 35.7369384765625 16.50004959106445  0.3923423594953594 35.40904238938642 16.33764043422936  0.3923423594953594 35.47540477036787 16.61889067264794  0.6852937205080146 35.21387106417323 16.73773175423143  0.6852937205080146 35.14750868319179 16.45648151581285  0.6852937205080146 35.08114630221034 16.17523127739427  0.09939099848270416 34.93337821960449 16.76872038841248  0.09939099848270416 35.30197715759277 16.49375987052917  0.09939099848270416 34.86701583862305 16.4874701499939  0.3923423594953594 34.97408107041669 16.33135071369409  0.3923423594953594 35.65970423936201 16.48141041370629  0.6852937205080146 35.39817053316737 16.60025149528978  0.6852937205080146 35.33180815218593 16.3190012568712  0.6852937205080146 35.58247000216151 16.46277123634813  0.09939099848270416 35.48627662658691 16.35627961158752  0.09939099848270416 35.05131530761719 16.34998989105225  0.09939099848270416 35.23561477661133 16.2125096321106  0.3923423594953594 35.15838053941084 16.19387045475244  0.09939099848270416 34.73429107666016 15.92496967315674  0.3923423594953594 34.90771868943525 16.05010047527551  0.09939099848270416 34.98495292663574 16.06873965263367  0.09939099848270416 34.8006534576416 16.20621991157532  1.271196442533325 35.42800152776053 16.4254928816318  0.9782450815206698 35.25457391498544 16.30036207951304  0.9782450815206698 35.32093629596688 16.58161231793162  1.315044045448303 39.29010009765625 17.26902961730957  1.792057037353516 39.32297134399414 17.05549049377441  1.868069200397978 38.90782220578191 18.09779102327207  1.951070124730795 38.34967478586317 17.25078519139213  3.898984909057617 37.61381912231445 16.48582077026367  3.361140966415405 37.89556121826172 15.95306968688965  4.121528148651123 37.55664825439453 15.54621028900146  3.527124938333258 36.90889031574617 15.68013783930626  2.905214427377028 37.97729385228475 18.04969985676358  3.023496833668099 38.75355713789322 17.87629784284689  4.119495868682861 35.43515014648438 19.01412963
[...]
<PointData  Scalars="c_HbCO2"> 
<DataArray  type="Float64"  Name="c_HbCO2"  format="ascii">-6.8483256666539218e-29  -1.1432677658310614e-27  7.9699557539863519e-29  -2.7049257483365769e-28  -6.0955446321888935e-28  1.3668130612683442e-29  1.8983873382820784e-28  -2.6313891663251846e-28  -1.1046836498618309e-28  -7.5803571480684217e-27  -3.4474450329093819e-27  6.0575384689479061e-27  6.6167063917037421e-27  9.0496823606515568e-28  2.1315088320280012e-27  -4.7620388169366067e-28  4.1721901394602660e-29  -1.3604170393552963e-28  -4.2658539734004571e-29  -3.5827462772895035e-27  -8.6970705321934782e-28  -2.7810030586184502e-28  -1.6822441161847870e-27  -2.9813313455092012e-27  3.6093024848680340e-27  -1.0355065249552790e-26  -1.1535885517090395e-25  -2.9144110708029697e-26  8.2132961084957543e-27  9.6876008091423363e-27  -1.1243002106556393e-26  4.6473073107156332e-25  3.5761712405018255e-29  -1.6228026176466966e-28  -8.6007798041400938e-29  4.9139259588197370e-29  -3.7056581866140472e-28  -9.2337071665781079e-27  2.3690191296105577e-27  -6.9400699215973141e-28  7.7668895889042151e-28  9.7753579927097021e-28  -1.1381591756240621e-28  -3.6226752049794977e-29  5.0329944869356440e-28  -2.3463686377395412e-29  1.1033656925590650e-30  3.2327858355579556e-29  -7.1091397440712085e-29  6.6142434339523749e-29  -1.1309645775824062e-28  8.7855005554676339e-28  -2.3718521438719655e-29  1.6481275398737320e-27  -3.4145091910142282e-27  -1.4012282543062856e-28  -8.9573299702460938e-29  -4.1664234773258523e-29  1.6832185791297448e-28  -6.8244954553605122e-30  -1.9386401963250913e-29  -3.3267097556227103e-28  -8.0300492462628152e-29  6.1387331704193763e-29  3.7315674416353945e-29  1.2934430178913045e-29  -3.6697876978383820e-30  -6.6955435343044302e-28  -1.3658514622766321e-30  1.6465169308997603e-29  6.2099833531366300e-28  -2.1670840002936307e-28  4.6179968561947167e-27  -2.0147902243205548e-29  4.6300482241241983e-30  -1.0503870312270089e-25  -2.6603533220444401e-25  -1.1262112890616465e-26  -3.1692271528253427e-25  9.5457178744525987e-25  1.3285769312057529e-24  1.2987351216162655e-24  -3.8890962069344791e-25  9.1078151490841733e-25  -4.9884116435864395e-25  -2.6603514736780535e-28  -1.5747761337469079e-25  1.0351670223232603e-28  -7.9010726641675635e-29  -5.1012022609660288e-29  2.0118267616187584e-28  1.0102184586709878e-25  4.8723803562138254e-26  -2.7705356596586303e-27  -7.3644011070278979e-30  3.8381898087048345e-28  -1.0887123743864124e-27  3.8838017195623214e-27  6.7539586170280640e-29  2.4129200504643947e-28  6.2353519902926768e-27  -2.2921270028669757e-26  6.4000000000014498e-22  -1.2980048929168659e-22  5.5588741562573765e-23  -2.8711912412581637e-22  1.1474222469918950e-22  6.3312539243701483e-23  5.2127384640251374e-23  8.2931481451704861e-23  4.9419167288748463e-23  8.8896813088842886e-23  6.4000000000014498e-22  6.4000000000014498e-22  -2.7247609640169814e-22  -7.5503680735065761e-23  6.4000000000014498e-22  6.4000000000014498e-22  6.4000000000014545e-22  6.4000000000014498e-22  -2.3592389271864157e-22  4.3562273294333903e-23  6.4000000000014498e-22  6.4000000000014498e-22  6.4000000000014564e-22  6.4000000000014498e-22  -1.2333305139946448e-22  -2.7636479472129874e-22  6.4000000000014498e-22  6.4000000000014564e-22  6.4000000000014498e-22  6.4000000000014498e-22  -3.4824608463449441e-22  1.0957095041244988e-23  -1.3906060633631461e-23  -9.4060846980631405e-25  -4.7225454833691771e-23  6.4000000000014536e-22  -3.3027633953562114e-22  -7.4141024650177514e-23  6.4000000000014498e-22  6.4000000000014545e-22  -1.4861874385730299e-22  -1.2290607370193030e-22  2.0807577117345734e-23  5.4028646465001320e-23  5.9094240296710965e-23  6.4000000000014498e-22  6.4000000000014498e-22  6.4000000000014498e-22  -1.1307071152950841e-22  2.8028988743724252e-23  1.3991526914011194e-23  -3.5984767700873253e-24  4.0670641557454675e-23  6.4000000000014498e-22  6.4000000000014498e-22  6.4000000000014498e-22  5.7592492591814076e-24  6.4000000000014470e-22  -2.1221608127479006e-22  6.4000000000014498e-22  6.4000000000014498e-22  6.7911452243995369e-25  -2.4689141290214692e-23  -3.6644015765971976e-24  -1.4797285647895827e-24  2.2581583068566990e-25  2.8693844182470115e-25  -5.1900231456418129e-25  2.4188593578796238e-26  2.1036426895230678e-26  -3.4418815390160719e-27  3.6389477121602692e-28  3.5022148273170040e-27  3.5319297559980898e-26  -7.9804425561149871e-27  3.5338889419743767e-26  -2.9649957843057184e-27  4.0894370482584453e-27  8.5864858347964703e-25  -1.4984991240753821e-25  -5.0028108808300505e-26  -4.3945477949540047e-25  3.4944629266918192e-26  1.2955740017133892e-26  1.6852351293999185e-25  -1.3432800858942067e-24  -6.0261877507623548e-26  7.7242958603566983e-25  8.3169816979622760e-24  -9.7763245628527363e-25  3.6975263525072053e-25  1.6385030225673064e-24  6.4000000000014536e-22  -4.1432408486607432e-24  -1.4627365197374759e-22  -1.9781010128885674e-22  4.5273839343942695e-23  -1.5859236944755773e-23  2.9117904439031360e-23  8.1100837289057651e-23  -1.0551886025110537e-23  3.2457237124972219e-24  -2.6018794848011879e-22  7.3241325524631418e-23  -9.1422567312029464e-24  3.1650306848139204e-23  8.6449013076891174e-24  1.1382068612215003e-24  -9.1706780282603573e-25  -9.1492878694447449e-24  -1.8534136012400970e-24  -1.3628868028588541e-23  -9.3350468615199731e-24  4.6439464560622650e-24  3.7707878597758440e-24  5.3788098645708711e-24  -2.1348968430332752e-24  1.2791573464313461e-24  -1.7460171510425608e-23  1.6374664852652679e-24  -1.0760372410552882e-23  5.0838255359009326e-24  -2.6086428498990658e-24  6.7447833523042822e-25  -1.9271096850692365e-23  -9.5554155072069642e-24  1.9368301399892343e-24  5.2949029833214535e-27  -4.2598918175598178e-26  -7.1839759758985644e-26  -2.4637639185291314e-26  1.9287596885839828e-25  -1.5309621775680372e-25  -3.0242847779361020e-25  9.2356651147947750e-25  1.6762668044755661e-25  3.1995051984281639e-25  -6.9454408428604683e-26  -2.4613883998179556e-25  -3.6385143445405614e-25  6.6159744564350064e-24  -4.0075086129950550e-24  4.3203651109627906e-26  1.5326001675214614e-24  -4.7189124442712173e-25  -1.1373749319393756e-26  4.8686331952180202e-25  -1.6550405598097539e-26  -2.8941385509178242e-25  2.2278650467578697e-25  -1.4709078675763325e-24  4.9250717514019886e-24  -2.1518246136196273e-22  4.3761099654171466e-23  1.8984158721564911e-23  7.4830435708365121e-23  6.4000000000014498e-22  -1.7249487465782989e-22  -1.7955506977759934e-22  6.4000000000014498e-22  6.4000000000014470e-22  -2.5522381198477285e-22  -1.5233791431165310e-22  -2.0775567728746319e-22  3.0941371933464817e-23  3.7852491898011273e-24  5.1513859506374243e-23  6.4000000000014498e-22  -2.2023645523833429e-23  -7.4338888947938527e-24  4.9181637504093081e-24  -1.9836946022349599e-23  -2.6471507770306265e-27  -4.0599795349345924e-26  5.6282512784052800e-26  -5.7656306370065631e-26  1.4006869987244880e-25  1.1941838841106176e-25  1.2875538455922197e-23  -2.5404775041448994e-24  1.4137815607145037e-23  -1.3560145049071831e-25  -1.7720220596694040e-24  6.4000000000014498e-22  6.4000000000014498e-22  -2.7017799983070347e-22  -6.3202326992228219e-23  6.4000000000014498e-22  6.4000000000014498e-22  6.4000000000014498e-22  6.4000000000014498e-22  -2.2329508180103916e-22  -7.2905865933062790e-23  6.4000000000014498e-22  -2.6934030384357418e-22  -5.7228374796756775e-23  4.9281808219177221e-23  7.2192375300734860e-24  8.1546653619965162e-23  6.4000000000014498e-22  6.4000000000014498e-22  -1.0243740984166597e-22  6.4000000000014498e-22  -2.7560517815106213e-22  1.9806913496423351e-23  6.4000000000014498e-22  6.4000000000014536e-22  6.4000000000014498e-22  -2.5045687655197222e-22  6.4000000000014498e-22  -1.0869530107575052e-23  2.3426675759541383e-25  2.2077995351567435e-24  2.4923908698649692e-25  6.4000000000014536e-22  -6.0601052074046228e-24  -1.8058650040250561e-22  -3.3387483940093439e-22  5.7376343115940444e-23  6.5021960630486269e-23  1.7062159485311860e-23  6.0302881462755178e-23  6.4454636758248266e-23  3.4508353145648201e-23  6.4000000000014498e-22  6.4000000000014498e-22  -2.3014292652086266e-22  3.1261674098033090e-23  2.4657427477137468e-25  -2.0042891174444892e-23  -1.1592373650475393e-23  1.5501453588080639e-27  -6.7429765707639426e-27  1.7179277967886650e-27  1.3604305156347115e-27  -1.7431866575380022e-27  -2.3937562982351719e-27  2.9064623895845414e-27  -2.4153491581529580e-27  -1.5678056888951523e-27  -4.2057104091997133e-27  -2.7738222875291912e-27  1.1541478412577881e-26  -1.4262567483387339e-26  -9.3028135557697017e-27  4.5651399806813160e-27  5.8809930553395378e-27  7.8405646672019848e-25  -7.6781777753274210e-24  8.5647746222491338e-25  -6.5707726925809945e-25  8.9801565600674441e-26  -5.2676710583782312e-26  -9.0479064228067396e-25  5.8552118063142699e-24  -5.1773268545739026e-26  2.5668971885145008e-25  6.8074139151823504e-26  6.4000000000014498e-22  6.4000000000014498e-22  -1.5696935870151840e-22  5.3489486874267138e-23  -6.6957080807020147e-23  -2.9428960178826012e-22  6.4000000000014498e-22  6.4000000000014498e-22  6.4000000000014498e-22  6.4000000000014498e-22  6.4000000000014498e-22  6.4000000000014498e-22  -1.6431415693467933e-22  -2.9034752057211129e-22  6.4000000000014498e-22  6.4000000000014498e-22  6.4000000000014498e-22  6.4000000000014498e-22  6.4000000000014498e-22  -1.9785162870855638e-22  6.4000000000014498e-22  3.1536063199061315e-26  -2.7508972988702329e-27  -9.6627871984767902e-26  -6.2586232019018190e-26  -4.8154035702516004e-26  -9.4417320388126867e-26  -2.7324363944388320e-25  -5.1436677225406241e-27  1.8841923513390602e-24  8.4596080795834065e-26  -8.2118745090671657e-25  3.0239819187084693e-24  -3.2357183236079005e-25  -2.7931459217082042e-24  4.7018484379525456e-24  6.4000000000014498e-22  -2.5789204334203935e-22  -2.4994208473012992e-23  -1.6953043910632001e-23  8.6932329831360439e-25  -1.0839114817698281e-23  1.9755480932098856e-24  2.6182717437841107e-24  -8.6498864882428210e-24  7.2096121380648978e-23  -1.0356164763048146e-22  2.0834896682861918e-23  1.4954124672914154e-23  8.2330692482860341e-26  1.2517921470332640e-25  -1.4252174786732845e-24  -3.3318760566591634e-24  -3.8441513344080734e-24  -3.2183675801207592e-24  -6.6951281228152372e-24  4.4169324985488419e-24  1.4004469525410952e-24  -2.6667263128909829e-23  -1.5115195584682300e-24  1.8061479926316527e-24  -1.2867594885200464e-23  1.0714874173374595e-24  -3.2217717388061205e-25  -1.7186411878212820e-25  -2.3977698584370060e-25  2.5926876838286072e-25  9.4523728905202253e-25  -1.2987179032577711e-25  3.6630506283188054e-25  1.2727664430361231e-25  1.1108085405580728e-25  -2.0561249680693275e-25  5.5995060670480932e-25  1.5697100507085631e-24  -3.5051629839190244e-25  5.0154151173090715e-26  4.0791654094803684e-25  -5.7641941508684135e-26  6.9151076808187744e-24  -2.3987067993725221e-24  -3.8123895581671096e-25  -1.0554973462126613e-24  -1.1981959651344253e-24  1.0008197046832694e-23  -3.5118568812646892e-25  -7.7424294627165766e-25  -1.0077364245551058e-24  2.4090270642948771e-23  1.8626152394647147e-23  -9.0218393600444950e-24  1.3338008386029733e-24  4.7542402160590819e-24  -3.2152842083312906e-24  4.2811182863230033e-24  -2.9141713581556707e-24  -2.6791300724976741e-24  8.9374968556833338e-25  -5.7424121448882819e-23  1.0243954676417539e-23  -1.8472627465560675e-22  1.3757985968195168e-23  2.4195782655904617e-23  6.8335933519497529e-23  5.5667545771544882e-23  -2.4145143979893684e-23  -1.7381942033123541e-22  4.5768480553951063e-24  -6.3623864573786909e-24  -9.6710720397121046e-25  1.3623534751497282e-24  -3.8204816465038376e-24  -6.2548975788052591e-26  -3.8441819497175683e-25  -8.0552703699253796e-26  -6.6576767239936417e-25  4.2400948931048517e-24  -1.0014447632078884e-24  5.7076699096489362e-24  -9.3127338775618542e-25  -2.3967717979785247e-24  3.5334117089057778e-25  2.0983258421078214e-24  2.9638137736965986e-24  -1.1636545134864678e-24  5.6426903921990146e-24  -1.7627394180320002e-24  5.4790969828317906e-24  -1.9839972955049457e-24  9.9378932320447054e-25  6.6418589343625454e-24  -1.1258802292186854e-24  3.2818712660463650e-26  5.2549771204343087e-26  -3.0968767966664789e-26  -1.6836226583178414e-25  -2.6343250683572002e-25  1.4370254252736812e-24  -2.0091944245102970e-27  2.5522400711516640e-26  8.9525975566426400e-24  -4.7604917749599241e-25  -1.1579800818456299e-24  -3.0820428154328376e-25  2.1531447347498237e-27  -2.9798901707766444e-25  3.9989182248733607e-25  -5.2959885917651545e-24  5.8711837433531343e-24  -7.3363326845980868e-25  -1.5249714659474653e-23  4.1822073494954926e-24  1.3682550993410345e-23  -1.8849883557498270e-24  1.0609171599423579e-24  3.6887619692344963e-25  -7.7130843849217121e-24  -2.5918272785415615e-24  7.6398610753089894e-24  1.7196459826539788e-26  -8.0975356084242285e-24  -2.3128992257477572e-25  -1.5605628839805940e-23  2.8459612064736789e-24  -2.2169289144119365e-24  -1.2389369462405609e-24  -4.5815645626206567e-25  -1.2069350621551564e-23  -9.7377419664695323e-25  -5.2230355569070266e-25  1.4649142744660254e-23  -2.6646119066698824e-24  -6.4775158249655448e-25  -9.9116197038083184e-25  3.3992697676968570e-25  -1.0093139197347529e-24  -7.4107758629473817e-25  2.7431496565259018e-24  1.4721105665609668e-24  9.5632160813789583e-24  -8.4975709641669381e-25  9.1867157058869931e-24  3.3589588048707287e-24  7.9479225051557521e-25  -1.0869273999129360e-24  -7.5971500872591429e-25  6.4000000000014470e-22  -2.2004414304103964e-23  -1.1717994619197277e-22  -6.2246873636390444e-23  -6.9879895021729638e-25  3.7930311053312119e-24  3.5025818136463947e-23  -4.0111572948179400e-23  -2.6972647992299026e-24  -1.9116178809790968e-24  -5.7214867838004651e-24  2.1060798906725292e-26  1.8546733049727460e-25  -1.3251044411932032e-25  -1.4247566547579342e-25  -1.0423262660408058e-26  7.2996648524416467e-26  -5.4974543551713897e-27  5.6648282886178164e-25  -8.6146645254607207e-26  4.4031049835213389e-25  -6.8190880456686792e-25  5.2211824060898427e-25  -2.3943587433380317e-25  -4.9473810412864920e-25  -1.4453554184477393e-24  -1.8254056489197194e-25  -3.3261628648616864e-25  2.3710179668716476e-24  -2.9086095098766086e-25  6.6210259813904879e-25  -1.4988241015058063e-25  -5.6920428050797748e-25  -1.7780823273411726e-24  -6.5697125374996868e-25  -6.8242382148336439e-27  -1.1764160282091170e-27  4.5079120365896400e-27  -1.4397787368493280e-26  -8.1613167796355039e-27  9.9959128705584150e-26  4.9011133347408925e-25  4.7650192132317003e-27  3.2059562021198347e-27  4.8286714340432628e-27  2.0851105796749925e-24  -1.1810586963364308e-25  2.4475296779964321e-27  2.9132210065274419e-26  7.9896708790325554e-26  -8.8840197882905348e-26  5.2599637086629627e-27  -1.5992834879731189e-27  -9.4126503079887685e-27  1.6299072086554033e-26  -3.9004316619045384e-25  -7.8039887747216365e-26  4.4207557691979576e-27  1.8231549480931734e-24  3.8881026281953795e-25  -2.5665893852840728e-24  -5.6526432801672924e-25  -8.7825935930088624e-26  3.1332511940350245e-24  -3.8329466037065635e-24  -4.3130021904417687e-24  1.3671348588659256e-25  -1.1507089123133698e-23  -2.6654540412322185e-23  -3.9136884284003172e-24  4.5614748683420631e-23  -1.1695102441857548e-22  3.8266373629398663e-25  2.2646801040157652e-23  -2.3244648794894884e-23  -4.8576260936462620e-27  -1.6247223737524544e-29  -2.3126910958820400e-26  -8.6792226540418342e-26  -1.3192493425041305e-25  -9.1936160684681480e-26  3.1895448843156565e-27  -4.1204092920776612e-25  -1.4681037520314000e-25  -1.2615817257939692e-25  -3.4513259992236936e-24  2.2343815333019816e-24  3.9758667623477244e-24  -2.5921838690306521e-24  -1.3600035820471938e-25  -8.8485345924595334e-26  6.4000000000014498e-22  -1.3891384434765004e-22  -1.4680720688450731e-22  -3.4846129292197843e-22  5.5649739424508687e-23  -1.5209936189277368e-23  7.9114201750903944e-23  4.6752831701253141e-24  6.1286333682764090e-23  5.4601317909432151e-23  6.4000000000014498e-22  -2.2240866195440862e-22  6.4000000000014545e-22  -1.0310263251068166e-22  6.4000000000014498e-22  6.4000000000014498e-22  6.4000000000014498e-22  -2.8041214784370076e-22  6.4000000000014498e-22  6.4000000000014498e-22  -3.2430235016775865e-22  6.4000000000014498e-22  6.4000000000014498e-22  6.4000000000014498e-22  -2.3707232854222756e-22  6.4000000000014498e-22  6.4000000000014498e-22  -1.9979495616033993e-22  6.4000000000014498e-22  -2.1286086513346564e-22  6.4000000000014498e-22  6.9523687766459743e-24  -4.2478210478492572e-25  -1.6928975515123156e-23  -1.8040705750099798e-23  4.3275728821602685e-26  1.4544409527606491e-25  7.2735542206338937e-26  5.2468747526728370e-26  9.0094856193922276e-26  -1.3358911637489054e-24  -1.1317414747415641e-24  3.3566661783764241e-26  -3.7278014618230698e-29  2.7048820447200820e-27  4.4699666305666400e-27  1.2581010063551525e-27  3.3126187446960863e-29  -5.0172032119027297e-28  -2.1590100029984823e-24  -4.1176129761963066e-25  2.2359366435875895e-25  4.2129405388474353e-27  -4.4138394436208305e-26  -1.5739241711504546e-24  -4.2300709176117605e-25  -1.0706123092313170e-24  -9.8083233370975695e-25  -7.5697349128147830e-25  -1.3832776480558089e-25  -2.3159693033419494e-25  1.0272667210733176e-24  3.2442146642812290e-25  -5.5905648722400334e-24  -4.6145511675884441e-25  2.2259817959321358e-25  -5.0001366575489107e-24  -3.8652335342090871e-25  -4.1444193204590148e-25  -1.4105603122016590e-24  5.8288287291495846e-27  -6.6717635753104333e-26  7.1156054788045143e-27  3.5645584030071113e-26  -6.7706609362981401e-28  6.1463663457428406e-27  6.4000000000014498e-22  -2.4759957830116268e-22  -5.1276425401846682e-23  -3.2104725494597550e-22  7.7565440709602549e-23  -1.0248234694619001e-23  5.3564111695460356e-23  2.6599340169459401e-24  1.2264542497163189e-23  4.8566873378470297e-23  6.4000000000014498e-22  -2.1504205616044414e-23  -2.6905719483407955e-22  6.4000000000014498e-22  -2.3181326777483837e-22  -8.0519118183989220e-23  9.0505401322443049e-24  4.7716319990829256e-23  -8.7161885119937092e-24  -1.1720355310871739e-23  -1.4407539142789161e-24  3.1974487610827487e-23  2.7871613634958301e-23  1.8537697750711573e-24  -8.2546984298310595e-23  6.4000000000014498e-22  -2.8283883675858806e-22  -1.8881119610262337e-22  -1.0636579703857258e-22  -5.9022381067252781e-24  -1.6147112323980941e-23  -1.7540524696344054e-23  -8.3053218079197246e-26  -9.3152422997349701e-26  -4.4048298426477512e-26  -8.1785413649863034e-26  2.4900346234919431e-25  -2.4872907451574911e-22  -5.0330566658249277e-23  1.2428823234743512e-23  -1.6930252271903642e-23  2.1749711980801446e-23  2.6650734340811565e-23  8.5589938809939135e-23  2.4181858730522623e-25  -1.9382090455408457e-24  -1.5716290267880563e-24  4.4865445875369284e-26  -9.1760540829492391e-24  9.1024519204907004e-24  -4.8340019766647224e-25  -3.9943601339956951e-25  -7.5930684098623355e-24  -7.9568420005475281e-24  6.9813923143885181e-24  -2.0193561266178500e-23  -1.5442025171639541e-23  -2.3223224295677271e-23  -2.7800399620497306e-25  6.4000000000014536e-22  -6.0464923975978073e-24  -2.0412005243369154e-22  -1.7151765111286468e-22  3.4468349835447279e-23  -1.1057115795779771e-23  1.1715865015585482e-23  6.8500089234627859e-23  -4.3024087005458412e-24  1.1364714000966343e-24  -2.2023486493498970e-23  4.3767976644979660e-23  2.2113604159126384e-23  1.2973021864815240e-24  -9.3405811797419294e-24  -2.8009239628672384e-24  6.6739803622829100e-24  -1.8190584742370931e-25  -1.9394110939929080e-23  -1.0519221849373770e-23  -7.6728586864211239e-25  9.8018100182132121e-25  -1.4651923428516220e-23  -2.7916212059949928e-24  1.0974517143647461e-24  -1.4089017944695543e-23  -1.9412622505189532e-23  -5.1490645552229665e-25  -8.8357462850165518e-23  -2.2717116225941336e-22  3.3856125455068130e-23  -2.3608624858543203e-22  6.3026965259650709e-23  5.9541171204737848e-23  5.5392164937078922e-23  -1.3977647981412044e-22  -1.7297632688685307e-23  3.5607308642215543e-24  -7.1840961924568492e-24  -3.5190543541531454e-24  9.455