<?xml version="1.0"?>
<VTKFile type="UnstructuredGrid"  version="0.1"  >
<UnstructuredGrid>
<Piece  NumberOfPoints="8621" NumberOfCells="41516">
<Points>
<DataArray  type="Float64"  NumberOfComponents="3"  format="ascii">2.869144916534424 21.08499908447266 5.50863790512085  2.123054981231689 20.98962020874023 5.170475006103516  2.882909059524536 20.69696998596191 4.709012985229492  2.207303055296281 21.62919601613692 4.901826813196545  1.047256946563721 22.63452911376953 8.223189353942871  1.510460019111633 23.1452808380127 8.004315376281738  1.090086192777086 22.7958365724199 7.69318828704814  0.8420429825782776 23.00354480743408 7.955308198928833  0.6368290185928345 23.37256050109863 7.687427043914795  0.8848722287916431 23.16485226608445 7.425307132034102  1.073644518852234 23.25892066955566 7.845871210098267  1.132915438990452 22.95714403107026 7.163187220153409  1.354293942451477 23.30374908447266 0.6567339897155762  1.719454050064087 22.71690940856934 0.1048400029540062  2.106662528263413 22.90385716895543 0.7704827503803966  1.35608446598053 22.72444915771484 0.6628510057926178  1.357874989509583 22.14514923095703 0.6689680218696594  1.356979727745056 22.43479919433594 0.6659095138311386  1.732268758886498 22.52450319995623 0.719725386125028  1.538664519786835 22.43102931976318 0.3869040124118328  2.650933980941772 21.70751953125 6.282981872558594  2.572755045091413 22.40843445199301 6.099691003599294  2.207839417640494 21.95462983715016 5.869412195886208  2.133973416981262 22.28185574300435 6.381379999906796  1.617012853020752 22.85619195475871 6.479778127255  2.494576109241053 23.10934937273603 5.916400134639995  2.129660481790133 22.65554475789318 5.686121326926909  1.690878853679983 22.52896604890452 5.967810323234412  1.764744854339214 22.20174014305033 5.455842519213823  3.814690955717444 22.63095721344638 2.474953198191114  2.155246797061358 22.80186961941068 2.728749191382462  3.10618288729055 23.6049208264747 2.318021906311197  3.243651392325896 22.96454860973057 3.687338960998316  3.291470050811768 27.63669013977051 3.284817934036255  2.285379886627197 27.84893035888672 3.214215040206909  2.313865900039673 27.22620010375977 3.128704071044922  2.687776306396447 27.57073159318951 3.970657012759646  2.267183402773877 26.54528962422725 4.731130307099011  3.429180746392157 26.71527097844002 4.181740210616193  2.834070199014597 25.76755447581888 4.709922363839223  2.347705929284569 25.7673441624381 4.030340034502282  3.104717016220093 28.57683944702148 5.947904109954834  3.318550137982479 28.64953439961746 4.925388201675194  2.808594531114218 27.5752899157765 5.104433952381353  2.619485352535587 28.54186369909653 5.360193841799676  2.134253688851081 28.50688795117158 4.772483573644517  4.275609016418457 26.92744064331055 3.011322975158691  3.787928104400635 26.03817939758301 2.832231998443604  3.696309995494981 25.74783180077289 3.878422276004921  5.017679214477539 30.21418952941895 3.623939037322998  5.121623039245605 29.30816078186035 3.411648035049438  5.533957004547119 30.00144958496094 3.191241979598999  5.25600855610829 29.20097030935698 4.133788663474957  2.363821983337402 25.67995071411133 6.072202205657959  2.206316947937012 25.0226001739502 6.281230926513672  2.825890064239502 25.11779022216797 5.798962116241455  2.230648523863873 25.23032594568947 5.127633476813802  3.877706050872803 29.1100902557373 4.049064159393311  3.09827995300293 28.85466957092285 3.996702909469604  3.633161396493099 29.5109848355162 4.83998626965302  4.709449768066406 25.27187919616699 1.944295048713684  3.934287071228027 24.66707038879395 1.647001028060913  4.724426102405075 23.84760466834755 1.832677082067402  4.851755540144019 25.05276211173863 2.933153989994024  2.39617395401001 21.66842079162598 1.649862051010132  2.960005339376315 22.85269506941973 1.281409919019418  2.806399079773494 21.96295402295214 2.614103524557668  3.630619892067843 21.59509609715635 1.772520717880032  3.75642991065979 21.37709999084473 6.103961944580078  3.079900086015138 22.106505693199 5.756289131220643  4.136098715460131 22.120130787169 5.907839656903197  3.695895122541888 21.70904777640842 5.084213325685951  4.393383979797363 26.07582092285156 4.975207805633545  5.576756954193115 25.72398948669434 4.96359395980835  4.914422035217285 25.12956047058105 4.985490798950195  4.761005365931828 26.36953530886783 3.92038932720485  3.84682985936961 22.25948205702727 1.021088664009886  1.863005995750427 23.70396041870117 1.680567979812622  1.266634941101074 23.35139083862305 1.3387850522995  2.020483016967773 23.70754051208496 1.04470694065094  1.892082967397092 22.68821490399474 1.680223035458654  0.9589470028877258 21.71195983886719 5.470046997070312  1.439568996429443 21.24867057800293 4.891890048980713  1.602156925384329 21.72520536052663 5.173866284097268  1.336810428087042 22.08068460094411 5.037825834954812  1.174222499132156 21.60414981842041 4.755849599838257  1.36184592861347 21.95684999095876 5.462944758142068  0.9339115023612976 21.83579444885254 5.044928073883057  0.9088760018348694 21.95962905883789 4.619809150695801  3.884988069534302 29.89896965026855 4.048376083374023  4.374251298702776 29.20906866473399 4.585829022883582  5.682435035705566 24.77127075195312 5.199062824249268  5.312380284247419 24.50692329964872 4.306860363109029  3.792725086212158 28.61248970031738 5.621716022491455  3.371462106704712 27.6544303894043 5.731672763824463  4.123013973236084 27.82905006408691 5.29930591583252  1.208276033401489 22.14258003234863 7.786380767822266  0.6482880115509033 22.38686943054199 7.583532810211182  1.17059573619597 22.54986203170945 7.474783993987837  0.8906017252706775 22.67200673080613 7.373360015182295  4.589183807373047 28.68600082397461 3.710092067718506  5.316582202911377 28.40084075927734 3.127971887588501  2.15873908996582 23.37030982971191 0.1048400029540062  3.029272079467773 23.17609024047852 0.1048400029540062  2.509543895721436 22.71301078796387 0.1048400029540062  0.7977592548044236 28.12553924521519 5.017182000110518  0.8210728604307225 28.17557990123917 4.715362635281304  0.8715865330673793 28.38355711339697 4.804330248095711  0.6231671907239937 28.34702451676662 4.861331796370425  0.9454138113303352 28.64157498157875 4.591478496080904  0.8949001386936782 28.43359776942096 4.502510883266497  0.6464807963502925 28.3970651727906 4.559512431541211  0.8443864660570213 28.22562055726316 4.41354327045209  0.891013677309619 28.32570186931114 3.809904540793661  0.8677000716833201 28.27566121328715 4.111723905622876  0.9182137443199772 28.48363842544494 4.200691518437282  0.6697944019765915 28.44710582881459 4.257693066711997  3.879837989807129 22.94013977050781 0.1048400029540062  3.433742046356201 22.26119041442871 0.1048400029540062  1.85311496257782 24.50547027587891 6.873030185699463  1.379928191677549 24.95026129324058 6.768502656468275  1.440836621009072 24.66045224729915 6.609343412398474  1.367937478039834 24.40651128650768 6.886005079797259  0.8827599935018478 24.30755229713645 6.898979973895057  0.9556591364710855 24.56149325792792 6.622318306496272  1.131344092589698 24.62890679518851 6.833741315181665  1.028558279440323 24.8154342187194 6.345656639097486  1.513735763978309 24.91439320809062 6.332681744999689  1.174356565378798 25.32331614030234 5.792333304299915  1.040548993078038 25.3591842254523 6.228154215768502  0.9067414207772778 25.39505231060226 6.663975127237088  0.9676498501088004 25.10524326466083 6.504815883167288  1.210238592377793 25.15472275934644 6.498328436118388  0.9007460639584204 25.12317730723581 6.72272633890158  1.143334806227413 25.17265680192142 6.716238891852681  0.8947507071395628 24.85130230386935 6.781477550566072  0.8887553503207053 24.5794273005029 6.840228762230565  4.609007835388184 27.20220947265625 5.028934001922607  5.428248882293701 26.74814987182617 4.952560901641846  4.432529576976204 27.57204067730201 4.232720880525397  3.73700930338025 21.57253553086276 4.033698442541198  2.634656824786436 21.67369756944247 3.819004475840574  2.733217745473512 22.65761299801094 4.768056640251562  1.969043431390058 22.27451318003216 4.484577812174155  2.248981299906363 22.42967657053063 5.111949579732692  1.747764330911525 22.56078524348886 4.761585665182794  1.730783807483835 22.91983034392739 4.067328811151765  2.031271934509277 24.16527938842773 2.2275550365448  2.589181900024414 24.04355049133301 1.508509039878845  3.38490779031854 24.9027358111869 4.661747096874929  2.584997661860515 25.02091851250308 3.851876732789563  3.838444772266649 23.42890852065772 1.219240585153275  4.50660941528174 25.06264297540628 4.245003991258363  4.351205939185945 23.85391209253079 3.271904821181165  3.514716362322225 24.74752985007873 3.213922947326744  3.212213039398193 26.76349067687988 3.030354976654053  3.028466939926147 24.61762046813965 2.098357915878296  3.392591953277588 24.12626075744629 1.202865958213806  2.745500087738037 23.2721996307373 6.814385890960693  2.932195901870728 22.44339942932129 6.770363807678223  2.27460437744574 22.64979569204 6.625070967466611  2.181256470379394 23.06419579274801 6.647082009107846  0.09939099848270416 24.62545013427734 5.005066871643066  0.4053968403598689 24.43505726616184 4.985708286162245  0.2696892432868481 24.66996002197266 4.761507868766785  0.09939099848270416 24.26642990112305 4.666968822479248  0.09939099848270416 23.90740966796875 4.32887077331543  0.4053968403598689 24.07603703300754 4.647610236998426  0.2696892432868481 24.31093978881836 4.423409819602966  0.439987488090992 24.71446990966797 4.517948865890503  0.5756950851640128 24.47956715385715 4.742149283285963  0.7114026822370336 24.24466439804634 4.966349700681422  0.7805839776992798 24.80348968505859 4.030830860137939  0.7459933299681567 24.52407704155247 4.498590280409681  0.9162915747723006 24.56858692924778 4.2550312775334  0.6102857328951359 24.57946968078613 4.105340838432312  0.439987488090992 24.35544967651367 4.179850816726685  1.051999171845321 24.33368417343697 4.47923169492
[...]
<PointData  Scalars="c_HbCO2"> 
<DataArray  type="Float64"  Name="c_HbCO2"  format="ascii">-9.4257506891057407e-28  2.8145238125613018e-26  2.1498251740793806e-27  -1.7878159038443319e-26  -9.1300762386482062e-25  -7.2105789452001151e-27  -1.0339594421724289e-24  -1.1374743190194062e-24  1.9848099267014793e-24  2.5215641187757739e-24  -6.3545432396798154e-25  9.4315267248098577e-25  -6.9102606283068481e-29  5.2944758685178588e-30  7.3544663812166009e-29  -1.0218859419664248e-29  -4.9977276185796673e-29  9.0542584780424916e-30  -4.6122432870905825e-30  1.7727548782514847e-29  5.4649488309814974e-26  -4.3471624439611744e-26  -1.6197501670111770e-25  -3.6285645737495955e-26  1.3053147792432814e-24  -1.5288910767463217e-26  -3.1696555658712144e-26  -5.9403856291009703e-25  4.8970457904716852e-25  -3.2104567984736206e-28  5.3185154155816759e-27  1.4561935224862142e-27  1.4073429530902029e-28  8.8525862777319706e-29  2.7559029887310677e-27  3.6114930292511232e-27  -2.2141464887798781e-27  1.3240325824342129e-28  -1.9506825096039222e-28  8.2133290279421351e-28  1.3488406391472500e-27  -1.8783148888665177e-27  -3.2137131208677110e-28  1.1667268547689055e-27  -7.3708629783255587e-27  1.2028395759474199e-26  7.1855389433474555e-29  -6.6374566346249400e-28  3.7391206116882187e-28  2.8324917043357994e-29  -1.2023198159007043e-29  -1.6866148451434301e-30  -1.1015508190860386e-29  2.7361465051451309e-26  -2.4863363264726257e-25  9.9059902912319648e-27  -1.3422146697816313e-26  -8.1432450358313753e-29  -8.2682816764009403e-28  2.3128432392867866e-28  2.4167117749636824e-28  -8.2681664943965483e-28  -1.0159258318330725e-28  -1.5413784928013565e-28  4.8035313191268630e-28  -3.4730100525152684e-28  -4.0723711997114504e-28  6.2235793708962294e-29  -2.5270874451617882e-27  -4.6373228190030934e-27  2.5191165560105015e-27  1.0967337775725218e-27  1.7084596445616842e-28  8.5080148959633594e-30  2.5070514214786811e-28  5.6776522110886876e-29  7.8489831193797355e-29  -3.1297763564479447e-28  2.1285206516359938e-29  2.7873809917532120e-28  -4.7595172695729470e-28  1.9464586264029636e-24  -9.4428054667020036e-26  -1.7500932396488191e-25  -3.6117117601229604e-25  -1.6695167560682693e-25  -1.3836037004657626e-24  -1.6757297255908389e-24  1.0604964213116437e-24  -8.4428776951438649e-28  5.6001065240946833e-29  5.1738340776714850e-30  -6.1671385817678944e-30  8.9699785169647528e-29  -2.2239293035021861e-28  1.1403343271196292e-29  -1.8692092438984156e-24  1.0864321967696822e-23  -2.8971296617682500e-24  -2.7483901855634657e-24  -1.2434356360792108e-29  6.3696166703850183e-30  -1.2920871749681954e-28  7.4139731073830863e-29  7.3221184637574029e-29  6.3063425741924607e-24  -2.1397326473755472e-24  7.1155351098605829e-25  -1.1059202212528340e-23  4.5368807677314632e-24  2.6432047936120400e-24  -1.2889967464556699e-23  4.6953009822867407e-24  6.0055903252387184e-24  -2.7745712092776497e-24  -1.7577011129132168e-24  -1.6342854479321575e-23  2.7222974539042267e-29  5.0558587430114527e-29  2.4150573395218516e-25  -7.6307353700376282e-26  -3.7949220336951082e-25  -1.7574678676437481e-25  9.8983709416975459e-24  4.2547650796465521e-24  -2.1265917755206134e-24  1.2046988679207617e-24  -2.0957685474290707e-25  -7.9265745267742349e-25  -6.3173547028489189e-24  9.6089951142725812e-24  -2.6031641702471147e-24  8.7875048723882779e-25  -1.3891558003875842e-24  -8.2783982585317402e-25  5.1097189019781893e-24  -4.1361109878098555e-24  2.7708199314772771e-29  -3.7968889271252418e-29  -2.2308057422371639e-29  -8.2886816745424667e-28  -3.5450982562615099e-27  1.5571065991098709e-26  3.9893810334096493e-26  -7.2022573186789308e-26  -5.6102271153532134e-25  -8.3958662814613480e-26  1.6255680591947726e-27  -5.3849811541725263e-28  2.9502642145607530e-27  -1.0410170544786073e-26  -6.1159847497082625e-29  -9.1458525521215401e-28  4.8952371277195350e-28  3.1390050363651761e-27  7.4842326981777232e-29  1.2926497261359995e-28  -2.0833790248532932e-28  4.0267859579039773e-26  8.3554424488080663e-26  -1.1538417102029862e-25  -1.8124854446713147e-25  6.4000000000014536e-22  -3.4276581981287076e-22  -1.6730789380737910e-22  6.4000000000014498e-22  6.4000000000014498e-22  -2.3143074831394920e-22  -1.6922904315304057e-22  1.8890832710854434e-24  -3.7424613116895632e-23  -4.0206109311348274e-23  1.2550491565139676e-24  -6.1750898604946046e-24  -1.3510808325866787e-24  -2.5929079339907647e-24  2.1195773143694690e-23  -2.4310651929997981e-24  4.0632017216958397e-23  -8.8508583294262128e-24  -7.4789143559231794e-24  6.5560735824305303e-23  -7.0363793215902485e-24  -1.6127060956995078e-22  2.0360201987060493e-23  1.0251808391709295e-22  -5.0034795394798097e-23  -1.0531909272241444e-24  -1.4109266661850155e-23  6.4000000000014498e-22  -3.1816695515319939e-22  -9.3898127380568557e-23  6.4000000000014498e-22  -3.8548559920865917e-22  3.9047453249545604e-23  5.3421229037142085e-25  -1.0291898884044453e-23  4.7053589684923095e-23  -3.7832084478504868e-22  -3.3535985826087479e-22  1.7640379638834958e-23  -4.5541051990424745e-23  -1.0735157183761277e-22  3.9711127862664012e-23  5.8763474666140437e-23  6.3195471790402803e-24  4.2780974865770887e-24  4.9807032744612214e-24  -2.3930801472737193e-23  -7.3881137273654122e-24  -1.3238142877214992e-27  2.5653966953114380e-28  -7.2123043540398431e-26  -6.2862425844736384e-26  2.4992557343213028e-26  -4.1885007746138020e-25  -6.9586745577501675e-27  -9.9260187822006166e-27  1.0509398767830874e-27  -2.8795524847148694e-28  1.5986836804772896e-28  1.0535167968076508e-27  9.6120642673312281e-30  -9.9820717175212064e-30  2.7042040679119296e-27  1.1280638359875082e-27  4.1198877069800083e-28  -3.0156445218819954e-26  1.2852044973482571e-26  8.9674383750905043e-26  5.8599048783564153e-26  6.2463166816707256e-26  -1.4050574125461120e-26  7.5375581669435963e-26  4.7243451416438893e-26  2.1537905685656336e-26  -4.0984747404227269e-25  -4.3948757713869573e-25  -4.4785776019842399e-25  -3.6805715157324170e-25  -1.2610703605562977e-24  -1.0041392817151604e-29  5.1689541697801377e-30  -2.9182187590015193e-29  -1.7191740625906924e-29  1.6185491878677445e-29  -8.3693734657769242e-30  -1.0797169669981869e-27  2.2776622975859071e-27  -1.4401621769195147e-26  -1.2473183850890982e-26  2.1838055639451619e-25  7.4581618356261194e-27  1.3807428595228577e-26  -2.6942781152732018e-26  1.1076544919067485e-26  8.9130510562262951e-29  -7.8812309342775343e-28  -3.4726961845880182e-26  1.0131879091196914e-25  -2.2908029796652871e-25  -7.7747587588310418e-25  1.0316379150717161e-23  -1.7279005920942845e-24  -1.6135359159180231e-24  -2.3044323858211320e-26  -1.4004350344377240e-25  -3.3807156680909965e-29  -3.0843794718387651e-27  7.4283421010654161e-26  3.0143198680230462e-28  -1.9937683944368159e-26  4.5166271946339445e-27  -9.6430540976947848e-26  -3.6416948663038318e-25  -3.6112632422101185e-25  3.7323196440693352e-25  3.3172825672209000e-25  1.3106462440160869e-24  7.2222953433536133e-24  3.2017079821465687e-23  -1.0166788870698171e-23  -5.8282937499375397e-24  5.2801569587788787e-25  -1.1355676766144816e-24  1.2074040410156155e-24  -1.7445425267986718e-24  -1.0638994758741201e-22  -7.1496921325076960e-23  6.4000000000014498e-22  -6.1043301878379886e-26  -3.0390428761182065e-25  3.3659354445418728e-25  -2.1526719882808577e-25  -3.5038805480824771e-26  1.9018353755926830e-25  2.5336443563478679e-25  2.1412729102862530e-24  -1.2216057132325304e-24  -1.5808141562306787e-24  -3.2437360101089877e-25  -4.7594151384808765e-25  3.0804780161227718e-26  9.4606664666309669e-26  7.4373218599655271e-24  4.1194306518914401e-25  3.0740137744301004e-24  1.7155872945251431e-24  1.7521833372849670e-24  3.8928625862554610e-24  2.4506153087335445e-24  -5.2437848255226128e-25  4.5803821470362019e-24  -3.1423947862728884e-24  9.3327591270378103e-25  7.6616212273116918e-24  -4.6087004152609087e-24  -8.1963790541343921e-25  3.0715169000847121e-24  1.2286822852240645e-28  -9.9364965967291559e-28  8.4527045671933548e-29  6.5507961175540839e-31  3.1569470950478650e-30  -1.2455989583612438e-30  2.6461222085385508e-27  -2.4151325973124357e-26  2.1668137360311674e-26  1.9922615174599934e-25  -6.3997582383712057e-25  -6.1080150991538604e-25  4.8634362979751874e-26  -2.9556574507656581e-27  -1.4997180387473452e-26  -3.3893389606563996e-27  -2.2633080031209661e-22  7.1258722905124544e-23  -2.2320013691220288e-22  3.7226502346280395e-23  1.5606849121475928e-23  1.0060081555756491e-22  4.4825543447006875e-23  4.8108201613017722e-24  4.6570228715937720e-23  6.4000000000014498e-22  6.4000000000014498e-22  5.4240928808131416e-23  -3.5956730489242769e-22  6.4000000000014498e-22  -6.6166634923270038e-23  -2.7974415994033631e-22  -1.1138363596127154e-22  2.3989451533360651e-23  -4.9370361357461808e-26  6.4000000000014498e-22  -3.2406185540827345e-24  1.7257500755404070e-25  -1.4744129961451557e-23  -2.5724083039564693e-23  -9.1122813130593365e-27  1.0259844765165952e-27  5.9268944365970634e-27  8.8980171466423201e-30  3.0551048545316742e-26  6.4765232546274074e-28  -1.1266004593323985e-29  6.4000000000014536e-22  -6.1868637927448758e-23  -3.7940743567836806e-22  6.1098995495648355e-23  6.4000000000014498e-22  2.8037965167469881e-23  4.1469190034920087e-23  -9.3987288999564046e-23  4.3238564952139126e-23  7.6718698966273930e-23  4.6423028272903315e-23  -4.4899794358729363e-23  1.8196263080663820e-23  1.8104821246335235e-23  -1.6997070888333433e-24  -1.4930941768541742e-23  -4.4632308936900377e-24  -2.3704059202999220e-24  -2.5457986018678122e-23  -9.1880079690313457e-24  -3.9981251535615006e-24  6.5564770707409999e-24  7.2639690436617307e-24  1.8877504366823284e-24  1.5902562275075115e-24  -6.8219236187008972e-25  4.1947471454414275e-25  7.0280212885833493e-24  -4.0850625946932658e-27  -1.3679253978879679e-30  1.1653529857440323e-29  -1.3885802722792627e-31  -3.8775427383442344e-24  2.7933662517925454e-24  6.4000000000014517e-22  -1.1228543183092069e-22  -4.0312511773972923e-23  -2.9104083226438111e-23  5.9949956671829956e-23  1.9428003105596591e-23  7.4046252736105705e-24  1.0079976194319916e-23  3.3167609638695229e-24  3.0342791336975312e-23  4.1254025794870365e-24  -5.2989079046244785e-24  -6.8401323588800044e-25  3.0231875643605180e-25  3.4923609073544984e-24  -2.4332325215538754e-24  -1.5917408198680735e-24  4.8932929957558472e-25  4.8513504704342393e-25  1.3740904381329870e-25  -2.7720745882420940e-24  -2.4127206703780877e-25  5.0590055714112438e-25  1.3471734296312905e-24  -2.0006498717644810e-24  8.2067557936656241e-25  -7.7200084103638133e-25  9.1817338094901145e-25  2.1993719578536988e-25  -1.3588411411007996e-23  1.9780385774779178e-24  2.8873343366110358e-25  -6.7559201524919375e-24  -1.9172406140201117e-24  -3.5455047965906805e-27  3.0442655747358247e-26  3.2138601995345642e-26  -1.3321750753280062e-25  6.3044869186383070e-26  -4.3313334244780831e-26  2.9926981196650840e-25  8.2549611995517250e-29  -7.2244318055344954e-26  -5.0272466853744069e-25  2.2487068299392409e-25  -3.1458153459107252e-25  6.2806227374505661e-24  -5.6408358792113697e-25  -1.3739125541160924e-24  8.5757304994756220e-26  5.6213894886710652e-25  -9.0841248594904918e-26  -2.2820620697420749e-26  3.9280167532424023e-29  2.2840932203517524e-28  3.6082846219695376e-29  6.4000000000014470e-22  -3.7711794408630328e-22  -1.7690996408200626e-23  -7.0536546080942266e-23  3.3609893080464366e-23  -6.0662462561078488e-24  -4.6812245609182199e-24  -2.5241668350872424e-24  4.5977935725306724e-24  5.9197156413791344e-23  -1.0514505975130658e-23  -1.1384478677319092e-23  3.7885988123945848e-23  6.2939987812135855e-23  6.4000000000014498e-22  1.7812306421648808e-23  6.4000000000014498e-22  -2.3184322901874812e-22  6.4000000000014498e-22  -3.5070020785534292e-22  -2.2141524694005596e-22  -3.1094813730945088e-23  -1.2268181283496308e-23  2.3019463965100135e-23  5.1237978131623674e-23  6.4000000000014498e-22  -1.4711741272096288e-24  -1.7786458609280535e-24  -6.9675563822946098e-24  4.9399754321384328e-24  -1.6581479852034940e-23  -9.8013692227972764e-25  -9.7992873496441963e-24  9.1532223665146829e-24  1.4151288249228256e-24  -1.0756590942926467e-25  -7.0116728541201929e-26  -3.4436210349641400e-27  1.4738272939809004e-25  5.6662396780577575e-26  9.5436496637518607e-27  7.3362103853833319e-25  -7.1603941616703638e-25  3.1336635491710512e-26  3.2793350000494220e-26  -6.6762439632515853e-29  -4.3968439505136563e-29  -3.8140675220447491e-28  8.6116375474093333e-28  1.4362408330585169e-27  -1.1082063918776862e-24  -8.1184124412326930e-24  -1.7708589985263080e-28  4.0620642147904021e-29  -5.5885888562300171e-29  -8.0966279918835226e-24  -6.8385924887010723e-24  4.0688420406870679e-25  2.4532665632037728e-24  2.0123309247628295e-25  -3.9191824858043345e-24  8.3878813253991098e-24  -1.6695022293623626e-24  -1.6078280799737523e-24  -1.2204646779718190e-24  5.7011224656500553e-25  1.0647837807768964e-25  6.9052247882496202e-25  3.9038222980640588e-24  6.4001261077837029e-24  -8.2594644275767363e-25  1.3148840242072995e-25  -2.1621811789580258e-24  7.7671385691438494e-25  3.1733818240955494e-24  -7.7141990502088920e-25  4.8298404814930597e-27  -1.4729037437967847e-26  1.6699959962603669e-26  7.7927317841506561e-27  6.6521725262329743e-27  1.2130092684030851e-25  -3.9814938149361246e-26  -2.7010671592111630e-24  -3.9926142987905882e-25  6.0287572306179482e-30  2.4097922919368344e-31  -1.0897808192118854e-25  -6.2992565542401047e-26  4.6365481740765344e-26  3.7621538099818426e-30  4.5881559052408334e-28  4.6478081090747973e-28  -3.1831392855925030e-25  9.4593726650161007e-26  -1.1566062286133897e-26  9.3368413262577010e-28  -3.5442907474900350e-27  -1.4918436523306591e-28  -1.5110470658425002e-26  1.9259923293773347e-27  2.6350895590897662e-27  -8.9371293681497805e-28  -4.2132844385383802e-29  1.4539260747524354e-28  2.8702428895781948e-28  -2.7487467712646107e-26  2.7112399625000040e-27  7.1406595073315586e-29  -3.9586472143509203e-29  3.2466846782768857e-28  -7.9303879684070649e-29  1.6215480926036805e-29  7.6123945645021686e-29  -1.5557758357627497e-24  -1.2855225742741311e-24  -5.0676393712339559e-25  -4.1759855535643276e-26  -1.4735296969007796e-26  1.9511148742172352e-27  7.9187789070308007e-27  -4.5464950129558951e-29  6.7665566881804096e-26  -1.4262203041067152e-26  -1.0807443999256781e-25  -3.8455465405341285e-26  -1.4710635645858704e-25  1.5758468971898437e-25  -9.0387364796360934e-26  6.0019610792764633e-25  5.0751190214467546e-26  -2.5826707905090180e-25  4.4945251705148960e-26  3.6498489780803795e-25  7.0096310946033708e-25  1.8954008642520871e-25  -9.6824842276931759e-25  -1.0271514431174489e-24  -5.1684184016707215e-24  2.6451060443659600e-24  4.9848420890492947e-24  -7.8764064810331562e-25  3.6671623482178603e-24  6.2590201788666962e-25  -1.9762936181001297e-24  -5.9438681055032161e-25  -3.2517461572224228e-24  -1.2525106713462392e-24  1.0436659286709306e-27  -1.0909990196452495e-28  6.4000000000014498e-22  6.4000000000014498e-22  -4.0611327103193967e-22  -2.3388766642010203e-22  1.5366126270738985e-23  -2.5531680589712647e-22  3.2418551812600747e-23  2.1886791038012003e-23  1.5747008476174141e-28  1.3395004077066134e-27  -1.0991679743979363e-26  -2.2696989216243659e-26  1.1824888648849446e-26  2.7275126547751507e-26  8.2730744634014846e-26  1.8675937919158408e-29  1.0228887895281925e-29  3.9881747927890358e-30  2.5178416734153106e-30  -2.1953190187607866e-30  1.7141849445654397e-30  6.9001661159850897e-30  -1.6833752678316796e-30  -2.9348571057031642e-31  4.0571968921328995e-30  -3.1418865543302424e-30  1.9024226787466915e-30  1.0234407091019937e-30  -1.2071454482000399e-30  -7.7574297153842469e-31  1.1179980801226412e-30  9.8027838616577601e-31  -1.2963097280733526e-30  7.0638661989390189e-31  -5.2656383133204251e-30  -2.7202748487476540e-31  -5.3366618527695224e-31  9.9578143688555375e-30  1.3528270700730087e-29  2.6538561237526196e-24  -7.6501875036555696e-25  7.8405375106426437e-25  -2.9836183053673207e-24  6.4000000000014517e-22  6.4000000000014498e-22  6.4000000000014498e-22  -2.6753060725550170e-22  4.7169330821503348e-23  -2.1634716300017326e-22  -2.1448412833626240e-22  6.4000000000014564e-22  6.4000000000014498e-22  6.4000000000014498e-22  6.4000000000014498e-22  -1.4358770516225039e-22  6.4000000000014498e-22  6.4000000000014498e-22  6.4000000000014470e-22  -4.2108538182393135e-23  -7.2300133257309920e-23  -2.6538671357782483e-22  -1.2155812893408386e-24  3.4085941401763192e-23  3.9311617241319474e-23  8.9267101604349444e-23  5.1305701083440664e-23  6.4000000000014498e-22  3.5069434571716346e-23  6.4000000000014498e-22  6.4000000000014564e-22  6.4000000000014498e-22  -1.7470359478748635e-22  -2.4118239040106776e-22  6.4000000000014498e-22  1.8772202818943695e-24  -1.0224883249689932e-23  -1.5180196471666475e-23  2.0368857013306063e-31  -2.3458819966581907e-30  -1.0125403743318228e-30  -1.6174856486213607e-30  7.7108604411386877e-30  -3.9887598912329307e-25  -2.2953697817412183e-25  2.2275427432393703e-26  -7.8974327007463351e-26  5.4025908187550269e-26  -2.2963610170670100e-26  -7.0588354730315509e-25  2.4650429280073876e-25  -3.1437557699484103e-24  -1.3850551253613544e-24  -8.4202458768552200e-26  -3.4709336224564733e-29  -7.6214249204391972e-30  5.2529551138474920e-28  -4.2157059010103593e-30  -4.9953391595227619e-26  8.3876771238080788e-28  1.9489743098920252e-26  -1.0571643047636660e-26  5.2018129277346689e-27  4.1050062121684261e-26  -1.1406544673533411e-26  -2.7266666225252602e-26  -1.8681637444595778e-26  2.1181654504198629e-26  -7.4345901354379486e-25  -8.2242170574304045e-25  -4.0548613518908997e-25  -6.4978581401663310e-25  -8.1179698347791086e-26  -1.4711658708920913e-25  -3.8583426174455595e-24  7.0185023583181452e-24  -3.3482447965100551e-24  2.2315199333900282e-25  -8.4706535629425235e-25  -1.2992602793066363e-24  -4.0371773542008686e-24  6.2509611318895645e-23  -7.1755160347290264e-24  -6.5593476991988020e-24  -2.0365089439911014e-24  -2.0801936272767575e-25  2.6868246585759553e-25  7.8043871288241231e-25  -1.0060311631436016e-23  2.3968879148752267e-24  4.3404738266767953e-25  1.9337409863607013e-26  -6.1270438789492408e-25  -2.1048354938980208e-28  -1.9719808729207124e-28  -2.4027201234881532e-29  -1.7593606584976091e-27  6.4000000000014536e-22  -2.4095732672544051e-22  -1.7846517011636228e-23  -2.5812155773826308e-22  3.9167781753135146e-23  3.1018585203567251e-23  1.9656178973560216e-23  6.4118122791038730e-23  6.2017637728447980e-23  8.7076791599454347e-23  -9.8946058366385736e-23  4.3203840835884012e-23  3.1309439406599139e-23  4.7200169918884595e-23  6.4000000000014498e-22  -1.2637087169401559e-22  -3.5998133333625206e-23  6.4000000000014498e-22  6.4000000000014498e-22  6.4000000000014498e-22  -2.7158028982865488e-22  -1.6752850228928606e-22  -2.3059342774368662e-23  -1.0613962169693266e-23  -1.1246943848108015e-23  -2.6175741064091850e-23  -1.5667902588897446e-24  -1.1384656240842566e-23  -7.0670083639251444e-24  4.4070434608460128e-30  -3.4250151696302217e-26  2.1685292078923316e-26  -1.1386206882646199e-25  3.8243228082582719e-26  7.2179161793775806e-28  8.6310461517212849e-27  8.2133265366692593e-27  3.5259536947467723e-27  1.5594025900780869e-25  -1.1652915713011017e-23  3.5001886325222893e-24  7.2992668391001458e-24  -5.8154846145043181e-24  1.1968323097070020e-24  -8.0967772406484396e-24  6.1123558597443884e-24  -3.2450723873554129e-24  1.2072655460329535e-23  -5.4666802469283687e-25  3.8879020389995509e-23  -1.2725490871379688e-23  -3.0071170948154575e-24  -3.8203740398885638e-24  3.7421071938431119e-23  -2.6025183183858692e-23  6.6395921988301720e-23  3.2119189877640355e-23  -1.2495943828424454e-23  -1.0648952256019056e-22  4.1092401990739593e-24  -4.0667736199270051e-27  -1.1719710302880110e-27  8.8193721026224465e-29  -1.5999065751759694e-24  -1.3928663256257112e-23  1.5819863727891542e-25  -9.5297228763632367e-24  5.9612067849261897e-23  6.9402269586029035e-24  3.7017463743716275e-23  -5.4403948237029