<?xml version="1.0"?>
<VTKFile type="UnstructuredGrid"  version="0.1"  >
<UnstructuredGrid>
<Piece  NumberOfPoints="8384" NumberOfCells="40865">
<Points>
<DataArray  type="Float64"  NumberOfComponents="3"  format="ascii">0.09939099848270416 37.13388061523438 6.57960319519043  0.4285275947054863 37.26174329657162 6.199159267445001  0.4285275947054863 37.3156564130267 6.451191785831842  0.09939099848270416 37.33441257476807 6.349634647369385  0.09939099848270416 37.53494453430176 6.11966609954834  0.4285275947054863 37.46227525610531 5.969190719623956  0.4285275947054863 37.51618837256039 6.221223238010797  0.7576641909282684 37.49743221081902 6.322780376473254  0.7576641909282684 37.44351909436394 6.070747858086413  0.7576641909282684 37.38960597790886 5.818715339699573  0.09939099848270416 37.0799674987793 6.327570676803589  0.09939099848270416 37.02605438232422 6.075538158416748  0.4285275947054863 37.20783018011655 5.94712674905816  0.09939099848270416 37.28049945831299 6.097602128982544  0.09939099848270416 37.93600845336914 5.65972900390625  0.4285275947054863 37.91725229162778 5.761286142368707  0.4285275947054863 37.66280721563901 5.739222171802911  0.4285275947054863 37.71672033209408 5.991254690189752  0.7576641909282684 37.69796417035271 6.092811828652209  0.7576641909282684 37.64405105389763 5.840779310265368  0.7576641909282684 37.8984961298864 5.862843280831164  0.09939099848270416 37.68156337738037 5.637665033340454  0.09939099848270416 37.73547649383545 5.889697551727295  0.09939099848270416 37.48103141784668 5.867633581161499  0.09939099848270416 37.4271183013916 5.615601062774658  0.4285275947054863 37.40836213965024 5.717158201237115  0.09939099848270416 36.91822814941406 5.571473121643066  0.4285275947054863 37.15391706366147 5.695094230671319  0.09939099848270416 37.17267322540283 5.593537092208862  0.09939099848270416 37.22658634185791 5.845569610595703  0.09939099848270416 36.97214126586914 5.823505640029907  1.415937383373833 37.86098380640367 6.06595755775608  1.086800787151051 37.87973996814503 5.964400419293622  1.086800787151051 37.62529489215626 5.942336448727826  1.086800787151051 37.67920800861134 6.194368967114666  0.09939099848270416 32.59698104858398 12.07849979400635  0.09939099848270416 32.54310703277588 12.20019233226776  0.2957703816390943 32.50187161690855 12.24172513767892  0.246069543548209 32.32410487216936 12.14758248430789  0.3927480886137139 32.05122869575474 12.21666517460943  0.246069543548209 32.27023085636126 12.2692750225693  0.4424489267045992 32.22899544049393 12.31080782798047  0.4921497647954845 32.40676218523311 12.4049504813515  0.2957703816390943 32.44799760110044 12.36341767594034  0.09939099848270416 32.48923301696777 12.32188487052917  0.246069543548209 32.37797888797747 12.02588994604648  0.3927480886137139 32.15897672737096 11.97328009808661  0.4424489267045992 32.28286945630203 12.18911528971905  0.3927480886137139 32.10510271156285 12.09497263634802  0.6861051787447235 31.72097240615793 11.86806040216686  0.589127471770104 32.06386729569552 12.13650544175918  0.5394266336792187 31.88610055095634 12.04236278838815  0.7358060168356089 31.844865135089 12.08389559379931  0.7855068549264942 31.96875786402008 12.29973078543176  0.6388283098609894 32.18776002462659 12.35234063339163  0.589127471770104 32.00999327988741 12.25819798002059  0.5394266336792187 31.93997456676444 11.92067025012674  0.09939099848270416 32.38148498535156 12.565269947052  0.2957703816390943 32.34024956948423 12.60680275246316  0.2957703816390943 32.39412358529233 12.48511021420175  0.246069543548209 32.21635684055315 12.39096756083072  0.4424489267045992 32.17512142468582 12.43250036624188  0.4921497647954845 32.352888169425 12.52664301961291  0.4921497647954845 32.29901415361689 12.64833555787433  0.09939099848270416 32.43535900115967 12.44357740879059  0.8849085311082648 32.21654332188223 12.73140116869665  0.6885291479518747 32.25777873774956 12.68986836328549  0.6885291479518747 32.31165275355767 12.56817582502407  0.6388283098609894 32.13388600881849 12.47403317165304  0.8352076930173795 32.09265059295115 12.5155659770642  1.861300283900059 31.87443785817974 6.183664714588998  0.8530810078481144 31.83699218252408 6.491889857123258  1.435462781175839 31.53006723824677 6.439164099340573  1.483407338008158 31.9860400007012 6.677672254769389  1.105514392116258 32.09764214322267 7.171679794949781  0.9792976999821863 31.96731716287338 6.83178482603652  1.057569835283939 31.64166938076824 6.933171639520965  1.00962527845162 31.18569661831381 6.694663484092149  0.9313531431498674 31.51134440041895 6.593276670607704  1.278918510572334 32.18136280245704 6.236390472371682  1.192216451344296 32.13950247283986 6.704035133660732  0.9010255646804333 32.29296494497851 6.730398012552074  0.6965367372446084 32.48828774673435 6.289116230154367  0.7748088725463613 32.16263996462921 6.390503043638812  0.9877276239084709 32.3348252745957 6.262753351263024  0.09939099848270416 30.65196990966797 5.511184215545654  0.3393346074349244 30.82883880110263 5.448122422028945  0.09939099848270416 30.89116239547729 5.326332449913025  0.3393346074349244 30.80169627638339 5.21539131813185  0.5792782163871446 30.95142264309882 4.919598420718046  0.5792782163871446 30.97856516781805 5.152329524615141  0.3393346074349244 31.04088876219272 5.030539552499221  0.09939099848270416 31.13035488128662 5.141480684280396  0.3393346074349244 31.06803128691196 5.263270656396315  0.5792782163871446 31.00570769253729 5.385060628512235  0.09939099848270416 30.62482738494873 5.27845311164856  0.09939099848270416 30.59768486022949 5.045722007751465  0.09939099848270416 30.86401987075806 5.09360134601593  0.3393346074349244 30.77455375166415 4.982660214234755  0.09939099848270416 31.60873985290527 4.771777153015137  0.3393346074349244 31.30722377272128 5.078418890763686  0.3393346074349244 31.28008124800204 4.845687786866591  0.5792782163871446 31.48409266415594 5.015357097246977  1.059165434291585 31.35944547540662 5.258937041478815  0.8192218253393648 31.15543405925272 5.089267731098431  0.09939099848270416 31.36954736709595 4.956628918647766  0.09939099848270416 31.34240484237671 4.723897814750671  0.09939099848270416 31.07606983184814 4.676018476486206  0.09939099848270416 31.10321235656738 4.908749580383301  0.3393346074349244 31.01374623747348 4.797808448602126  0.09939099848270416 30.54339981079102 4.580259799957275  0.09939099848270416 30.83687734603882 4.860870242118835  0.3393346074349244 30.74741122694492 4.749929110337661  0.09939099848270416 30.80973482131958 4.628139138221741  0.09939099848270416 30.57054233551025 4.81299090385437  3.807672023773193 37.56557083129883 6.368172168731689  3.867981910705566 38.32387924194336 5.947957992553711  3.133226747455965 38.58615209652842 7.179286044527347  4.135698008381985 39.02837283029943 6.767625501179271  1.578778982162476 28.50972938537598 7.391119956970215  1.418609023094177 27.71766090393066 7.260042190551758  2.009350061416626 28.27681922912598 6.645851135253906  1.450646402777366 28.41515767432218 6.798701767127108  1.155275883616142 28.13557851172452 7.105797294776034  1.235360863150291 28.53161275244718 7.171336177985262  0.8919427441381066 28.55349611951839 6.951552399000311  1.063651803644199 28.54255443598278 7.061444288492787  1.023609313877124 28.34453731562146 7.028674846888173  1.171294573457736 28.48432689692028 6.87512708306371  3.726983070373535 36.12815856933594 7.049055099487305  3.742393016815186 36.82728958129883 6.771883010864258  3.545374996441212 36.18540876222839 7.934688708430828  3.075142723555252 36.40454724504626 7.238621662403637  8.957714824891641 37.49830786313663 10.30267498765546  7.863203218989582 36.87299684746243 10.4983720859935  8.351307803771487 36.4058297431467 11.28773276261912  8.506832720904344 37.66768255781447 11.23386668485236  3.067569993728412 37.50982825849002 9.397086602294902  2.267004525284844 37.29590951242675 9.207386308111161  2.348876618482983 37.87946784600578 9.074032173924302  2.400217194742554 38.02834166635273 9.545442280448425  1.466439056841277 37.08199076636348 9.01768601392742  1.599651726298987 37.81442292028946 9.355741986264684  1.548311150039416 37.66554909994251 8.884331879740561  1.630183243237555 38.24910743352154 8.750977745553701  2.04087050711984 38.21316146011061 9.383915066263125  1.681523819497126 38.39798125386849 9.222387852077825  1.732864395756697 38.54685507421544 9.693797958601948  1.666258061027842 38.18063899725244 9.524769972433315  2.066540795249626 38.28759837028409 9.619620119525187  4.97385317958292 37.41856769884397 11.12556542032944  4.365460638827024 37.16800326220852 10.21534901100941  4.865351687009535 36.45109207588059 10.31294315520597  5.513446281349603 36.83365359251457 10.69677101665972  6.908889770507812 35.57080841064453 11.01955032348633  7.821026802062988 35.33567810058594 11.21051025390625  7.647521018981934 34.78340911865234 10.6021900177002  7.004881858825684 35.03334045410156 10.44108009338379  0.09939099848270416 35.25635147094727 6.474819183349609  0.3473690919337517 35.3882423778932 6.246462268069638  0.09939099848270416 35.46321868896484 6.159367561340332  0.09939099848270416 35.67438125610352 6.31580114364624  0.09939099848270416 36.09241104125977 6.156783103942871  0.3473690919337517 35.80627216304945 6.087444228366269  0.09939099848270416 35.88124847412109 6.000349521636963  0.09939099848270416 35.67008590698242 5.843915939331055  0.3473690919337517 35.59510959591078 5.93101064606036  0.5953471853847991 35.52013328483913 6.018105352789666  0.09939099848270416 35.25420379638672 6.238876581192017  0.3473690919337517 35.38609470333265 6.010519665912045  0.09939099848270416 35.4610710144043 5.923424959182739  0.09939099848270416 35.25205612182617 6.002933979034424  0.3473690919337517 36.01528705562757 6.007935208514584  0.3473690919337517 35.8041244884889 5.851501626208676  0.5953471853847991 35.93816306999538 5.859087313086297  0.5953471853847991 35.729148177417
[...]
<PointData  Scalars="c_HbO2"> 
<DataArray  type="Float64"  Name="c_HbO2"  format="ascii">2.0000000000004510e-17  -6.6917914778838065e-18  -7.8715691136889622e-18  2.0000000000004525e-17  2.0000000000004516e-17  -2.5557861958770141e-18  6.8105542838955535e-19  1.7575477270437770e-18  1.2167739425228666e-18  1.3532561883948058e-18  2.0000000000004525e-17  2.0000000000004503e-17  -3.8638793185973965e-18  2.0000000000004519e-17  2.0000000000004500e-17  -5.9261938089851088e-19  -8.8199045317470312e-18  -8.3209178104373383e-18  6.7697803801408930e-19  2.2486750645472086e-18  1.2551409356593550e-18  2.0000000000004519e-17  2.0000000000004519e-17  2.0000000000004519e-17  2.0000000000004516e-17  8.4529521846510018e-19  2.0000000000004510e-17  -9.4282816285078696e-18  2.0000000000004519e-17  2.0000000000004519e-17  2.0000000000004525e-17  5.2081427399998783e-20  1.6252145072532197e-20  -6.5215731245663338e-19  -6.0514985164089700e-19  2.0000000000004503e-17  2.0000000000004519e-17  -2.3744553811703421e-18  -4.0063990924124483e-18  6.9540088540322214e-19  -1.1353687691054741e-18  6.3698806658272603e-19  1.2364289960420633e-18  -6.8455779312703206e-19  2.0000000000004503e-17  -3.0576422043690593e-18  1.1724165770402327e-18  5.3480406998822717e-19  2.5982726668354537e-19  7.4702404280435410e-20  -3.3782776297490311e-19  -1.2139119100660650e-19  2.1744835992222720e-20  9.8685826601666475e-20  -1.6902019413723108e-19  -1.3692754379064898e-20  -1.3760644955798045e-19  2.0000000000004503e-17  -4.5149522676092018e-19  -5.1877195086948136e-18  -3.4460776440112413e-18  7.4324548041700282e-20  1.1926529475252998e-18  1.9612887545532376e-18  2.0000000000004519e-17  2.6047169363197806e-19  -7.2476859093446646e-20  -2.1258670166204206e-19  -4.7399945093603631e-19  2.0762623332663694e-20  2.8676656142190319e-21  2.1266533594815453e-19  -2.3557189762311234e-20  -2.4400364449845180e-20  4.7314630265281600e-20  -6.0980622758656525e-20  2.9224619420027665e-20  6.6188629160317249e-20  -1.8561569203379626e-19  -7.8328240357351999e-21  -1.7962158870243286e-20  -6.3591786677010977e-20  3.1823337288917274e-19  -2.3558837238425074e-19  5.7801334878538365e-20  2.0000000000004500e-17  -1.0795361828537109e-17  2.0000000000004519e-17  -8.7134499170113741e-18  2.0671566224349531e-18  2.2890787711271938e-18  -5.0091276937349255e-18  2.0000000000004494e-17  -6.3653691136271625e-18  8.1864916422494324e-19  2.0000000000004519e-17  2.0000000000004503e-17  2.0000000000004525e-17  -8.7802119961402569e-18  2.0000000000004516e-17  -9.2786133573815670e-18  -7.0416115893296407e-18  4.6359722220193297e-19  1.0790151092405210e-19  -7.7986974833424010e-19  2.0000000000004519e-17  2.0000000000004519e-17  2.0000000000004503e-17  2.0000000000004525e-17  -3.9287539881872528e-18  2.0000000000004516e-17  2.0000000000004510e-17  -9.2606870486636650e-18  2.0000000000004519e-17  2.0000000000004519e-17  1.1096983530529620e-22  6.6482978773351928e-23  1.7513530907694337e-23  -2.2665726452216309e-23  -1.6510057682986532e-21  -2.2576349392295191e-21  -3.3741155218770668e-23  5.4941165305827303e-21  -2.4017078766836196e-21  5.6225366892988157e-21  1.7695303989421605e-19  -1.8933467388694239e-20  -4.0631193035007142e-20  -1.2683435771327221e-20  1.1966696503852058e-22  2.1568727641640534e-22  -1.5603733347429816e-22  1.2860970778546828e-24  3.2666057295932400e-28  -2.0503759736685950e-27  4.4649951735815779e-28  -2.9739520263473768e-27  8.9986145495933743e-23  -2.2320542451350855e-21  -1.4678469594165425e-23  -1.6687498868940728e-21  2.3335643512933754e-20  -2.1343296281228160e-21  -2.4151271108160189e-20  -2.7426108208885465e-21  2.4802351545426720e-21  -4.2266938424279854e-21  6.1209580582600253e-22  -1.7694960319134465e-20  1.0348325084534565e-21  5.8531161088510220e-25  -3.9040856718363532e-24  5.3581190774877776e-24  -8.6867824988612788e-26  -3.9453426478938334e-26  7.7414592941807837e-28  1.2158412326507609e-26  -3.9618500270660613e-26  2.0000000000004510e-17  -8.8595029466059125e-18  2.0000000000004525e-17  2.0000000000004503e-17  2.0000000000004510e-17  -8.8137416609083362e-18  2.0000000000004525e-17  2.0000000000004494e-17  -8.9079169097787744e-18  3.9215132548130097e-19  2.0000000000004525e-17  -6.0651225007271857e-18  2.0000000000004525e-17  2.0000000000004503e-17  -1.0582930280525659e-17  -1.4327716989563394e-18  1.2747222980192134e-18  1.6071588291546668e-18  2.0000000000004503e-17  -5.8419944311462694e-18  -9.1505871721319685e-18  -3.5654650974732267e-18  2.1658870413369290e-19  2.0908234218939313e-18  1.4413135409713492e-18  2.0000000000004519e-17  2.0000000000004519e-17  -6.6928093019235114e-21  -4.4396520466370967e-19  -6.4092226750911495e-19  4.9076249435433048e-24  -7.7172139881510560e-24  8.9013103955986941e-25  2.3594854726475907e-22  -6.0543566270819632e-22  -6.0498266614165212e-22  -2.9770373894834731e-23  -8.7341143049720169e-22  3.6815958969030290e-21  2.0293226465933088e-24  2.4686515990897583e-27  6.7961003261669176e-25  -7.3000335539850479e-25  -2.4372610239274959e-20  1.5330925288877354e-20  1.3788424849879493e-20  3.8457507814375270e-21  5.8874957137681374e-20  3.5237664345314205e-19  -9.5030764650073766e-20  -6.1553917584873491e-20  -9.1141784500216715e-22  -1.9489192153713606e-20  -8.2538372095427501e-25  4.4639747208454318e-25  8.9621045837081833e-26  -1.4735264980760097e-25  -5.0521863667916574e-24  1.5067672090201901e-23  6.0405172507233458e-23  4.2417200986773849e-23  2.0000000000004503e-17  -9.6647939425947208e-18  2.0000000000004519e-17  -3.5091456814838170e-18  1.2769919654357204e-18  -2.6946350889203256e-19  -1.2723505900357910e-18  2.0000000000004510e-17  -3.8804135210553633e-18  2.2537966657286010e-18  3.7115639448918300e-20  -8.4017860667124544e-20  -1.2240654000008554e-19  -1.2934502022597060e-19  -2.1671459612398794e-19  1.8524146032240370e-19  8.7216664478425555e-19  3.4453391177290903e-21  9.6490990841598218e-20  2.0000000000004494e-17  -4.4823413469973931e-18  -7.9188192603891450e-19  -2.1886486127077017e-18  1.1818510229647027e-18  -2.0143803654920446e-19  1.0476058942065166e-18  -9.0223315479823746e-18  1.0155207771783191e-18  -3.5580408868836623e-18  2.0000000000004519e-17  2.0393359472468324e-19  8.7459866601630811e-20  -5.3215982460865666e-20  -5.3681524377821492e-19  -3.7833887365083921e-19  3.0691131587712419e-23  -1.0853126164099060e-22  1.0908161729589437e-23  -8.5576406164249828e-23  -4.0334050563295164e-27  -2.7764442818630821e-26  9.0058567794195120e-27  -1.0373512496244503e-26  -1.3309137112822905e-22  -6.3970325750925872e-23  -3.1935856752127519e-21  1.5239300117818673e-21  7.5518759580868351e-25  -7.3851369417667839e-26  -6.4397275606769890e-26  -3.0627396140894276e-26  2.0000000000004516e-17  -9.9358756038946407e-18  2.0000000000004519e-17  2.0000000000004519e-17  2.0000000000004510e-17  -4.6002391026196609e-18  -1.1301010553148457e-18  2.0000000000004519e-17  2.0000000000004516e-17  1.8648404578419607e-18  -2.8630854798530725e-18  -8.6346486759374790e-20  8.3647661831159783e-19  -3.0273458491398344e-19  9.9273775043972176e-19  1.0011559398088676e-18  1.6251058996402379e-18  1.3590625958422487e-19  2.0000000000004503e-17  -9.9426704086853813e-18  2.0000000000004519e-17  2.0000000000004525e-17  -4.1114389367316188e-18  7.9074413817690565e-20  -1.4727070981753769e-19  -4.4561107647561383e-19  -4.1579835785339775e-20  1.2161121668527084e-19  -2.9882301013589908e-19  1.3782308653396019e-21  -8.5840296096462047e-20  2.8239967660942997e-19  -3.4929851389368616e-19  -7.7782019372881218e-21  -1.6927156567379330e-21  1.8879838970524875e-19  8.4338596623237879e-20  -3.0340060630637620e-21  -2.0799137882870440e-19  4.1514092324465304e-20  1.6690069729234211e-19  2.4684390895863322e-20  -2.3288572092286692e-19  -8.7940608464448747e-20  4.0732475078195776e-22  4.2852410692435650e-22  1.2557007278774522e-20  -7.7584791547876996e-21  -4.7658594867473302e-20  4.1790538778918525e-19  -4.4659389030878128e-21  2.0000000000004494e-17  -6.0499230024382689e-18  -8.9886096141422466e-18  2.0000000000004525e-17  2.0000000000004503e-17  5.5707430616331110e-19  -9.3425303560633938e-18  -4.8239208378059061e-18  2.1095827502747365e-18  1.7588144725622214e-18  2.0000000000004500e-17  1.6045797758163620e-22  -5.4130347361815351e-18  -5.2893122654181214e-18  -4.2822557116636736e-19  7.9067564758813503e-19  2.3876726954127584e-18  -3.1761802147054910e-19  1.7470317177633886e-19  -6.2595539757305890e-18  1.5075976805166125e-19  1.5144569837681117e-18  -2.0750731093230371e-19  -9.0724617724164532e-18  1.1584975059811425e-18  2.0000000000004525e-17  1.9708769338204055e-19  -2.9099141328930574e-20  5.2273496090685709e-20  -4.3941218690294782e-19  -5.9334909269194187e-19  1.9383212513860527e-19  -4.8944489736075290e-20  -3.1348233699587602e-19  -4.7414631771617524e-19  3.3908654354214181e-24  -1.2677555464864778e-23  2.0000000000004510e-17  -3.0800654052948052e-19  -2.2170015653584740e-18  -2.1384944415976399e-18  1.8725617484901333e-20  3.4294351405623163e-19  8.8308825534404326e-20  2.1801204680522751e-18  -1.4039988587039810e-19  -7.7913876992428461e-18  5.6378248735345547e-19  2.9687998591773683e-18  -6.6303206641202479e-19  8.6739737571683614e-20  -3.6205160767203924e-19  -4.5262517428279253e-20  -2.5835794642983504e-19  -5.7653757562022849e-19  3.4279265562838102e-19  -7.2014088756275181e-20  1.2972292375487439e-19  -6.4910693285543482e-19  -8.0513787321010836e-19  -7.8795044379558713e-23  -8.9338531272453755e-23  6.0178586887751864e-23  1.5037207044221441e-22  1.3939485045472833e-23  -1.3069735651637700e-23  -1.0218273218692697e-19  -1.0759416379617229e-19  -3.9358361612851759e-20  -1.8973795181673698e-20  9.5182151191204608e-20  7.2440175326280224e-20  1.5902999620673048e-19  4.7825256620903224e-21  -9.1550046727485257e-20  -1.2858942155692920e-20  -2.1161321543093199e-20  1.7820894406442252e-19  -2.0615612013457766e-19  -2.5988706137233912e-20  1.9482952595073822e-19  -2.9893629994274660e-20  -2.9689387408878689e-20  5.5626189459940582e-20  4.7729723572229697e-20  1.4469049630963129e-19  -1.5424299939681905e-19  -4.7591786906569198e-20  -2.3263085100423467e-20  -1.3700689144579853e-20  -1.3279782819643677e-19  -6.1001107649942108e-20  -3.4604411207032846e-20  2.0000000000004516e-17  -2.0922330672253798e-19  -9.7473114220436825e-18  -3.2797134006549079e-19  5.3182619125843968e-20  1.4177752399160774e-19  -1.7883167908907179e-19  2.2504927147760561e-18  -4.9912001462498214e-19  -6.9497948408700591e-18  1.3439481672727666e-18  -1.5746300227721144e-20  1.0309480586864426e-18  -8.4408348725348442e-20  1.8767469766370957e-19  -5.4928159778538567e-20  -7.6327945394920553e-19  -4.0281148326739826e-19  2.2236047218315020e-20  -3.4560006914151210e-19  -5.1071420247880007e-19  -1.3683016850295801e-21  -5.5569310222144596e-22  7.2928436387292375e-23  5.3946268392351874e-22  -1.6280545486158564e-23  4.0078473086909135e-21  -1.8383962470608357e-22  -2.9999914724329514e-22  1.3083648579628308e-21  6.3880372575945187e-22  -1.7926080294813280e-21  2.0000000000004516e-17  -9.7573905718567846e-18  2.0000000000004519e-17  -8.4965082514802270e-18  3.7363267275421665e-18  1.5061189797152509e-18  -1.8422190236631926e-18  2.0000000000004503e-17  -2.7808874529092478e-18  1.9539250724401284e-18  2.0000000000004525e-17  2.0000000000004516e-17  2.0000000000004519e-17  -3.4834388621079840e-18  2.0000000000004519e-17  -8.0391224607523731e-18  -1.1163006512597400e-17  -4.4513208790266524e-19  1.3229661235454439e-20  -5.6578450888220802e-19  -7.7912493357495874e-19  2.0000000000004519e-17  2.0000000000004525e-17  2.0000000000004503e-17  2.0000000000004519e-17  1.8023459510831743e-18  2.0000000000004503e-17  2.0000000000004519e-17  -1.2482846909257841e-17  2.0000000000004525e-17  2.0000000000004525e-17  -1.3864884242776321e-23  2.4595867864269983e-26  4.8267914962460710e-26  2.8827153386243472e-25  -7.9425040178280480e-27  -2.6249571662122003e-23  8.7960691972518741e-25  -6.4295452352200488e-24  -5.4645389699142340e-25  1.7685289416514243e-19  -3.1009042151885914e-20  -1.2333700459174579e-19  -6.4891550210562366e-21  4.6547426784960355e-22  4.1276171108396907e-21  -2.1889805956287169e-20  3.3146035299151849e-19  -5.0433195378854765e-20  9.2784804919993017e-21  -1.8980604270793202e-19  1.1694273739954225e-19  1.2476852516800699e-19  -2.9436267259300255e-20  -2.8160437943787130e-19  -4.9750805421796470e-20  -8.6753172611407073e-21  -5.2614462269956824e-20  -8.9210919568306929e-20  2.8479112255715938e-19  -2.5159730088588244e-20  2.5835093052305135e-21  7.7261347479130698e-21  -3.3555267035615463e-19  -1.5018674825482946e-19  2.0000000000004516e-17  -1.0934407323481226e-17  -4.1316157019646186e-18  -1.4592792812704601e-18  1.8643226446881641e-19  -7.5604726454745072e-20  -3.7918975173114531e-19  1.9655057454993898e-18  1.0896558363430339e-18  2.2801833718152305e-18  2.0000000000004519e-17  -2.8089219487300021e-18  2.0000000000004503e-17  -2.9934193484735654e-18  -1.0270146127336996e-17  2.2577060654052424e-18  -2.7790716773966439e-18  -9.9932847464107514e-20  2.0000000000004516e-17  1.1826747625614132e-18  -6.8534163268380746e-18  -9.2220449598659006e-18  -8.6273404327914315e-19  1.0582165594147193e-18  1.0965316329122482e-18  -1.4544950399483298e-17  2.0000000000004519e-17  -1.5036752424154377e-19  1.2368527866811088e-19  -6.5282945594200091e-19  -6.2520049051330729e-20  -1.0281244597525494e-18  -2.8756104450417339e-19  -7.3391085896338646e-22  -1.7109780308697687e-23  1.2035750434941083e-22  2.1613845476825511e-22  -6.8723116086863900e-22  4.1518398693084996e-21  9.2527915774530178e-22  -3.1829329783653619e-21  -5.1853424083352053e-22  2.3708596953973912e-21  1.1664978974620284e-21  2.8838052936524136e-21  -4.8489599297599863e-21  -6.2380228023284206e-21  2.0000000000004516e-17  -9.8678227667050434e-18  -7.6105282772499244e-18  2.0000000000004525e-17  2.0000000000004494e-17  7.0624395351825119e-19  -7.0092613263852976e-18  -2.8488760800929850e-18  6.5974627930452835e-19  1.5744232023650080e-18  8.8712419475665026e-21  -1.0136480527193002e-17  4.5976357699184723e-20  1.6051022093048916e-19  -3.7059653893614397e-19  -5.0170469536712619e-18  1.6156388504379481e-18  -3.8872218605734563e-19  1.5152030379894809e-18  -6.0975440523307092e-18  2.1843072366397376e-19  2.0000000000004525e-17  1.8692333554509086e-19  3.2541076528808144e-20  -5.4068692199572436e-19  -8.2956800920799447e-20  -1.5822265130539032e-19  -1.6828244468752225e-20  -1.3825358048831923e-20  -6.5453268120175659e-21  5.4159928631060176e-22  3.5364390592214663e-21  -3.5561464917067855e-20  -5.1718135426902649e-22  -3.1954986707008994e-22  6.3145065138172713e-25  3.8606498463782088e-26  8.3365431841407749e-26  -1.4993705458408429e-21  1.2871280744227998e-19  -4.6835914000146002e-20  -4.7826923304644754e-20  2.6442573286281050e-19  -4.6622040065373342e-20  -4.4648060223933351e-21  6.5628269419027385e-20  1.8849616382193985e-19  -3.4439048548893992e-20  4.4703791626794592e-20  1.3121661034918908e-19  4.0951399171250236e-20  -2.7166686983532402e-20  5.7054925216300203e-20  -1.3700850411892206e-19  -3.5787267774128123e-20  1.0793558803273207e-19  -3.0222732169757567e-20  1.7306466040365525e-20  -1.5740830507746440e-21  2.0000000000004516e-17  -1.0699546893203950e-17  -1.6429506169493315e-18  2.0000000000004516e-17  2.0000000000004510e-17  -6.4614169550799184e-18  6.7531489454871622e-22  -8.1513313991648509e-20  2.5653623795384873e-18  2.0000000000004519e-17  2.0000000000004519e-17  -1.4489623951694660e-18  2.0000000000004494e-17  2.0000000000004525e-17  -9.1830120464279647e-19  2.0000000000004494e-17  2.0000000000004519e-17  2.0000000000004503e-17  2.0000000000004525e-17  2.0000000000004525e-17  -8.9647236835376245e-18  -6.0171643469629852e-23  -9.8475117096440154e-22  5.7143320542832383e-22  -3.7026470536418092e-21  6.6263573514440071e-21  1.0603938945724411e-21  -3.8654587703942385e-21  -2.1362883005854807e-20  -2.0048385451241550e-20  1.6203741299613958e-19  9.0288238337031294e-20  -3.9757519049319791e-20  1.0701688684955173e-19  -2.2102095677607786e-21  6.3616063006303173e-20  -4.4184953647405219e-20  -3.8241206062756792e-20  7.1208704696347388e-23  2.6133170011934284e-22  3.1375593396831376e-21  -1.7612487096030873e-21  -5.5599851006596641e-21  1.4835483882773580e-21  -3.4379989955807040e-21  4.1137740900000366e-20  -3.8506069520022553e-20  2.0000000000004510e-17  -5.2715046120719036e-18  -6.3298414527306863e-18  2.0000000000004519e-17  9.2717942988136462e-19  -1.1334585492981775e-22  -5.0196827063439183e-23  1.1265294455243843e-23  3.3223111588518033e-22  -1.5515963864620963e-21  5.0366293455950904e-20  -5.2838910995486437e-21  -7.4692866703612531e-21  2.0000000000004503e-17  -8.1582881844797161e-18  2.0000000000004519e-17  2.0000000000004519e-17  2.0000000000004503e-17  -3.8468249392357057e-18  1.1592994368035830e-18  2.0000000000004519e-17  2.0000000000004503e-17  1.7955116936582351e-18  -2.4541572635221483e-18  1.0208867703941313e-18  9.9446461156323640e-19  1.6384358639460618e-18  2.0000000000004525e-17  -2.6016637509923606e-18  2.0000000000004519e-17  2.0000000000004503e-17  2.0000000000004500e-17  -9.7182915369145785e-18  2.0000000000004525e-17  2.0000000000004519e-17  2.0000000000004494e-17  -3.8211865663452565e-18  -9.7587112467546461e-18  -1.1886460924859659e-18  1.7797504464867221e-18  1.8316875370209765e-18  1.0232117550452704e-18  2.0000000000004519e-17  2.0000000000004519e-17  2.8328798228185560e-19  -2.2479836875537315e-19  -8.9989041060489684e-19  -8.0615447377749512e-20  -5.6237244177574297e-27  -2.5760159788505149e-27  -5.2518947792747449e-18  -1.0160286542137889e-18  -9.8176458563053225e-21  -7.1518213077375695e-20  1.0617249355090989e-19  -2.5189181527821272e-19  1.5932357684973484e-18  -7.5713313268799186e-21  -1.4104571649256684e-19  -3.1903081629720509e-20  1.0036693394010250e-21  -3.2835021498958091e-19  -3.2456699269887803e-19  -8.0522804341281386e-21  -8.4780099637784871e-20  -1.7708224890740972e-25  -1.9364544440422704e-24  2.5922293088394196e-25  -1.3116062730794211e-25  -3.7474107022439012e-21  6.5435825243452315e-23  1.5430442684853594e-22  5.5456821508291828e-23  -2.4822503647864235e-21  5.1584159876613857e-21  9.4568023266008633e-22  -8.2501696606444351e-21  -5.5942726918649013e-21  -1.9442559493116109e-20  -4.6500293966157984e-26  3.0863894921921374e-21  -3.3073366998556869e-21  4.6434525662974119e-21  -3.7414916921655850e-21  -2.0189476787287621e-22  1.5221995891709198e-21  1.7126326117902507e-24  -1.9215608114110687e-24  2.9284412065272506e-24  3.9217088307320778e-22  6.7928183550797607e-23  -7.4766466842579674e-23  4.8217995708735707e-23  2.0000000000004510e-17  3.5969247121319532e-19  -5.7429312616489991e-18  -1.0399564602428565e-18  1.4000580705436710e-19  2.6088858584095964e-20  -5.6984076725896479e-20  1.6260775351788553e-18  -2.2554495274884957e-19  4.8956016756481794e-19  -6.4537307901590134e-18  1.7124697330139428e-18  9.2923524028062328e-19  -2.8245090998725822e-19  2.3278155647775980e-19  -2.1017983307088172e-19  -1.3352032339317253e-19  -2.3278962918525438e-20  2.1549280932065316e-20  -8.8518308320121301e-20  -3.3760023077679015e-20  1.8376447174482003e-19  -1.3765576353142221e-19  -1.6661218178687080e-19  -3.8512421248637272e-20  -9.4203525745210840e-20  9.5746590667920494e-23  8.4730598087386454e-23  -3.3315581491885223e-23  6.6195573921216893e-23  -2.3251096827548105e-18  -4.6846805099770317e-18  -4.0711235274995031e-18  1.0753259853863201e-18  1.6381196026460692e-18  -9.5582418676036580e-20  8.7408593241501075e-19  1.1696464232077531e-18  1.5564138151184159e-18  2.1938829811470418e-19  1.1903981064040414e-20  3.7295300715924616e-20  -4.5802400650101379e-20  -1.0546206515361970e-19  1.8004781209654795e-19  -4.4817347907576136e-19  -9.2316876687273294e-20  8.1740892648714871e-20  1.6546672332864191e-19  -3.0373152025144187e-19  1.7655694692624980e-19  -1.3475718040377649e-20  -7.5551964208651901e-20  3.0711987189526993e-20  3.9642158250631073e-20  -4.8768962630659776e-20  -7