<?xml version="1.0"?>
<VTKFile type="UnstructuredGrid"  version="0.1"  >
<UnstructuredGrid>
<Piece  NumberOfPoints="4261" NumberOfCells="16819">
<Points>
<DataArray  type="Float64"  NumberOfComponents="3"  format="ascii">19.05031967163086 0.7365310192108154 5.649864196777344  19.36137962341309 1.23549497127533 5.355576992034912  19.19918060302734 0.09558500349521637 5.032588005065918  19.93647855570757 0.9089547279373236 5.022907795265851  20.26560020446777 0.09558500349521637 4.943365097045898  19.59716987609863 0.09558500349521637 4.342583179473877  20.2732105255127 0.8854230046272278 4.061721801757812  18.67819976806641 2.324219942092896 4.370869159698486  19.1392685311078 1.073145216937609 3.529401935230745  19.14717383116193 0.9402977468669977 4.643675149222178  19.72853304118464 1.792240259611226 4.158063189645272  20.42321968078613 2.153357028961182 3.056862115859985  20.14509963989258 2.426968097686768 1.996278047561646  19.88937950134277 1.552579045295715 2.416471004486084  19.3941100060449 2.15420994619029 3.251187908255845  18.19074058532715 3.605962038040161 1.984985947608948  18.97525024414062 4.088799953460693 1.579074025154114  18.4407901763916 3.757492065429688 1.037351012229919  18.99025523670714 2.884090295581587 1.606994576452914  18.05801010131836 1.980746030807495 0.1048400029540062  18.53083992004395 1.277719020843506 0.1048400029540062  18.64771047610651 1.969090266439979 0.9905686647582427  17.47012780768676 1.701508074931415 0.7608204070168626  19.83198928833008 2.397541999816895 1.111250996589661  19.80865382312877 3.705359449326305 1.232473766171006  19.22069249680619 3.186502893674674 0.7718342070078016  18.48961067199707 3.032886981964111 3.544179916381836  18.18413937052957 1.500863480860389 2.923404691430454  18.57653045654297 3.548114061355591 2.937088012695312  18.16083721739016 2.635767682785813 2.230788486273345  18.90897650609069 2.937192512807989 2.682797071564693  19.05195999145508 2.705601930618286 0.1048400029540062  19.69017028808594 2.874499082565308 0.1048400029540062  19.42266082763672 2.115087985992432 0.651075005531311  18.23563003540039 0.4575099945068359 1.116541028022766  18.15815925598145 0.7553780078887939 0.1048400029540062  18.99453926086426 0.6830419898033142 0.6763430237770081  19.62056922912598 1.653440952301025 1.37977397441864  19.06889084034789 1.776776247589474 2.181307911464082  18.80117988586426 2.011250972747803 0.1048400029540062  19.73839960282929 3.045556899019404 3.293024187825285  17.69702403537451 2.369420829175438 1.28266923367582  19.36825942993164 4.001146793365479 3.030821084976196  19.95855548117902 3.33166297388356 2.088280928261182  17.7039909362793 2.721751928329468 3.685894966125488  17.57551956176758 3.127937078475952 2.735167980194092  17.47178077697754 3.165196895599365 1.776800990104675  17.28600007003664 2.460187954552323 2.315593024504958  17.73347091674805 3.189533948898315 1.113216996192932  19.45351982116699 1.839885950088501 5.076220989227295  18.60774993896484 0.09558500349521637 4.235197067260742  18.26956939697266 2.860912084579468 0.1048400029540062  19.53602981567383 0.8964750170707703 1.017917990684509  19.25447082519531 1.347391963005066 0.6034340262413025  18.95021726575598 0.9627739965111395 1.63069194177998  18.49333000183105 0.09558500349521637 3.145654916763306  18.02889244172662 0.9904893333176586 4.353968125246128  17.92811856106248 1.292944965245128 1.750345943397716  19.14953994750977 2.964436054229736 4.126130104064941  19.15452003479004 3.476051092147827 3.653093099594116  18.6827392578125 1.28498101234436 5.088818073272705  18.20400047302246 0.09558500349521637 5.193009853363037  19.47546005249023 0.09558500349521637 3.42432689666748  19.12076950073242 0.09558500349521637 2.51262903213501  19.68767929077148 0.7412819862365723 2.43917989730835  18.9553394317627 3.928592920303345 2.384841918945312  19.65662002563477 4.447084903717041 2.129128932952881  19.67874908447266 3.409518957138062 4.297488212585449  19.66032981872559 2.691711902618408 4.844144821166992  20.15754803165263 2.557690133942651 4.031333831632358  17.22347068786621 2.402237892150879 0.1048400029540062  17.59886932373047 1.397984027862549 0.1048400029540062  20.10082054138184 1.249894976615906 3.268527984619141  16.98605918884277 2.993726968765259 1.170645952224731  19.16004943847656 4.332149028778076 0.8681430220603943  19.68148040771484 0.9721599817276001 1.721393942832947  18.33020973205566 0.09558500349521637 2.126312971115112  19.22723960876465 0.09558500349521637 1.543951988220215  20.36175918579102 2.874850988388062 0.961434006690979  19.10689926147461 3.625221014022827 0.1048400029540062  20.07938957214355 3.560641050338745 0.1048400029540062  20.89454078674316 1.716529011726379 3.899796009063721  17.30558013916016 0.7534440159797668 0.6767539978027344  17.26752090454102 0.09558500349521637 1.609792947769165  16.0167293548584 19.65208053588867 9.494257926940918  16.01547050476074 18.95136070251465 9.619290351867676  15.28486329246458 19.24443754809586 8.916287671183548  15.38164112463957 19.51759499003724 9.891760463022059  16.00230979919434 18.48200988769531 10.20164966583252  15.43904324348342 18.43358900049212 9.62039560855848  15.14983637367457 18.95862264415109 10.7217731672862  15.95631980895996 19.58468055725098 10.37364959716797  16.0600700378418 20.57014083862305 9.764975547790527  15.28563996411126 20.68351935107489 9.341994180021066  13.38041844776689 19.29435334518277 10.88400546184217  15.03156002733568 20.00160776477079 10.75035934387237  14.60629886639473 18.74367753229647 9.908069616624266  14.33185911052115 19.56630174452936 9.491906859271065  16.00746917724609 18.85193061828613 10.97507953643799  18.20722007751465 13.20604038238525 6.206081867218018  18.03483009338379 13.81295013427734 5.650979995727539  18.83437919616699 13.4284496307373 5.725292205810547  18.7471746857121 14.14420490261407 6.231441231745087  18.7586498260498 14.1504602432251 5.214280128479004  13.13794040679932 17.06151962280273 1.132534027099609  13.34521961212158 17.43120956420898 0.6693580150604248  12.89505004882812 16.54416084289551 0.6787459850311279  13.85200945460305 16.67835238935003 1.043712675952529  12.18907509361935 13.92706942214599 4.254980329993743  12.15874779290814 12.83607963278179 3.767538948333254  12.70309577587385 13.65486993001768 2.940822372851311  11.1395714808671 13.83083358894184 3.144857369239292  11.82545301588243 14.16116571689676 2.055669991700803  11.9279052273477 12.5251502565808 2.741348123925475  15.2846097946167 14.40373992919922 4.8353271484375  15.89377975463867 15.27583026885986 4.200256824493408  15.10750961303711 14.63492965698242 4.173038005828857  14.96692339363915 15.46988252360182 4.728387267139263  5.029032230377197 14.8847599029541 3.987458944320679  5.027610778808594 14.73556995391846 2.80851411819458  4.962889194488525 14.08061027526855 3.581546068191528  5.845773986225665 15.06709718352809 3.940505739408904  5.507089138031006 16.2437801361084 2.494242906570435  6.2353483340635 16.41998289487541 2.819949435756182  6.035331366585889 15.29243907282936 2.637526649111614  5.906822201627159 15.6980521280976 1.858480528836236  6.434179774716326 14.44596475379546 1.892441172324593  5.487209876767341 13.80685694551881 1.038923690583583  5.767525862684399 14.97795809945067 0.930650660121183  6.896814925086908 13.79096845181495 1.100438413559271  14.52138042449951 14.04059028625488 4.207091808319092  13.2409203235078 14.57089746815846 4.172099311445621  14.31968337967173 15.16704384213814 4.055390205642914  13.88096026414957 14.64163153414405 5.075699701316489  9.885151383633158 12.74523176753918 2.496268480352233  9.020853687453705 14.07052276522077 1.897825143712975  9.555967190548724 14.68066225460364 2.980042447627115  9.848207783252082 14.07212471706163 1.713953495306989  12.00412122475924 12.82681000998338 0.9245392910888286  12.10484205920934 12.32676862422639 0.6565948989490904  11.99502515792847 12.97802495956421 0.1048400029540062  11.41537801847428 12.54430926243912 0.5800098124908695  13.12057971954346 13.67368984222412 0.9354689717292786  12.58316993713379 13.9614896774292 0.1048400029540062  12.60881996154785 13.19071006774902 0.620635986328125  12.41587257358754 14.29272238207908 1.065794873175779  11.30680315910775 11.36588245349918 2.586180501354935  11.91110925331013 10.78889564755203 3.53458844048941  11.54130272805223 10.25079746090828 2.803809773260822  10.51660843483699 10.85522775904986 3.642763085347382  11.61940002441406 10.10667991638184 0.7012659907341003  10.61118170854637 9.956465045154326 1.303012675379003  11.37889975267141 10.86408257736408 1.661224384263757  10.66959627309099 10.86859131881233 0.8054768664146916  15.34160995483398 15.74367046356201 2.808434009552002  14.57771973674706 16.54844499271137 2.951685003837666  15.18579227391274 16.82940978742248 2.247476143351441  14.79900978542443 15.8440999356894 2.177360257802397  8.413554823848562 12.98464166421776 1.705484686272632  8.178902850067653 13.71081828455101 3.148067075057769  8.110968720635775 13.7555390305543 1.498570473101719  4.956471920013428 15.68332958221436 1.122792959213257  5.042076110839844 15.53524017333984 0.1048400029540062  5.254880905151367 14.8945198059082 0.1048400029540062  4.834314823150635 13.59757995605469 2.820435047149658  5.905607356045549 14.01626650584676 2.985229460351825  5.474810509187394 14.50839338608417 2.084421528775542  12.21652030944824 10.43264961242676 4.369925975799561  12.6427001953125 10.58990001678467 3.706269979476929  12.30350971221924 9.984375953674316 3.818480014801025  7.709475040435791 16.92023086547852 1.208433985710144  6.275257443847663 17.58606145137562 1.580503929689954  6.620324783656835 16.45719706094035 1.392244824496543  6.807947796891263 17.06189184446346 2.294280549240538  8.486980719246835 14.86651094346752 2.298671699234715  8.494705646061993 15.29546803742701 3.140027141744836  14.01447010040283 16.74390029907227 5.286993980407715  13.59770965576172 16.17
[...]
<PointData  Scalars="p_CO2"> 
<DataArray  type="Float64"  Name="p_CO2"  format="ascii">4.4987626649502204e+01  4.5002139383787629e+01  4.5000460632312709e+01  4.5005601308678870e+01  4.4994495024064868e+01  4.5006911693021372e+01  4.4996460095510194e+01  4.4998516693934256e+01  4.4993721441341485e+01  4.4999539819426751e+01  4.4996647305724046e+01  4.5010796134529848e+01  4.5009580734338108e+01  4.5008636350499408e+01  4.4991505606934872e+01  4.4997541834862751e+01  4.5004014987935562e+01  4.4997605102086908e+01  4.4999926079362695e+01  4.5001251618546220e+01  4.4999817027069113e+01  4.4999265677307207e+01  4.4998938119598826e+01  4.5005397050758390e+01  4.4994537293506866e+01  4.5001120648686594e+01  4.4996812260697318e+01  4.5000399845726704e+01  4.5001405761993098e+01  4.5007311874543824e+01  4.4997188871052472e+01  4.4999106307650230e+01  4.5018453368991452e+01  4.5003072288317746e+01  4.4998226890828612e+01  4.5002575524253821e+01  4.5004927258070460e+01  4.5007107008858547e+01  4.4993156149654574e+01  4.5002913207749373e+01  4.5003721258431440e+01  4.5000029595875780e+01  4.4996910127238067e+01  4.5010291561703312e+01  4.5003500006349476e+01  4.5002535916540133e+01  4.4995474796288981e+01  4.4994361809689742e+01  4.4996555083224607e+01  4.5003830279877327e+01  4.4995638880669055e+01  4.4995403840068285e+01  4.4996326666060071e+01  4.4997325121196567e+01  4.4999274768658260e+01  4.5003337374069304e+01  4.4993865874485955e+01  4.4995562128426343e+01  4.4994899030011126e+01  4.5001892133091410e+01  4.4999666222056639e+01  4.5010054525160406e+01  4.5003778492614934e+01  4.5005314050678358e+01  4.4994230547775700e+01  4.4998309526263505e+01  4.5004836694803608e+01  4.5000610466348142e+01  4.5002867649113291e+01  4.5000357349366588e+01  4.4997065322166598e+01  4.4998133235696798e+01  4.5001984029264037e+01  4.5008204783875840e+01  4.5003616597242967e+01  4.4996290372337043e+01  4.5000030069657974e+01  4.4997267029721790e+01  4.4987641208152276e+01  4.5001335275209982e+01  4.4996585822251021e+01  4.5003295022139625e+01  4.4992705910103005e+01  4.5003871056258447e+01  4.5001064680490096e+01  4.5001721714661173e+01  4.5000148654691365e+01  4.4999817052136969e+01  4.5001838165206188e+01  4.4997988932609516e+01  4.4998556254195222e+01  4.4999412788553038e+01  4.5000880826586112e+01  4.5000377537779499e+01  4.5001895608328446e+01  4.4999850176430598e+01  4.4999020368872380e+01  4.5001109374231852e+01  4.5000367407955899e+01  4.5001840240522377e+01  4.5001445056244407e+01  4.5000366729207599e+01  4.5002451816471407e+01  4.5003124352399219e+01  4.5000782514814652e+01  4.5001563652347691e+01  4.4999923045668758e+01  4.5001269963241839e+01  4.5001989393406859e+01  4.4998412126831319e+01  4.4996928458357189e+01  4.4996187711586636e+01  4.4995938237051583e+01  4.5000401565202246e+01  4.5003341020990064e+01  4.4994504175886178e+01  4.5003768803235772e+01  4.5004237869640747e+01  4.5000409834760625e+01  4.4999380032185876e+01  4.4998419642993390e+01  4.5000336463993911e+01  4.5000500171104797e+01  4.5001113887279004e+01  4.4998509093602195e+01  4.4998824888814575e+01  4.4999621733124677e+01  4.5001440641529520e+01  4.4998550681078093e+01  4.5002709270129060e+01  4.5000600522558969e+01  4.4999499396677017e+01  4.4999332189523663e+01  4.4994732764566528e+01  4.5001060223687929e+01  4.5001640302384565e+01  4.4997957602117189e+01  4.5000542639061877e+01  4.4996254756486877e+01  4.4999355893059409e+01  4.5002055026180273e+01  4.5001332267737013e+01  4.4998048336442118e+01  4.4997851844998877e+01  4.5003881764062740e+01  4.4999721136987759e+01  4.4999533080664584e+01  4.5000966714207571e+01  4.4999716120146871e+01  4.4997992244773030e+01  4.4999811564740511e+01  4.5000309374640729e+01  4.5000024248496835e+01  4.5000735895427894e+01  4.5000252776095017e+01  4.5001952607824101e+01  4.4996400028298922e+01  4.4996909400540794e+01  4.4999909880066717e+01  4.5001016015246762e+01  4.5003568253171892e+01  4.5000539701983968e+01  4.5001229059760000e+01  4.5001781249528186e+01  4.4989101782735482e+01  4.5002256691095731e+01  4.5008574192143200e+01  4.5000230821559505e+01  4.4999352762301754e+01  4.4999606390216023e+01  4.4999987540942278e+01  4.5000618104128982e+01  4.4999966081382155e+01  4.5000048658374233e+01  4.4997960061693909e+01  4.4999078622680713e+01  4.5001548968710999e+01  4.5000795371186243e+01  4.4988466565129578e+01  4.5003161415716846e+01  4.5005113897295004e+01  4.4998538531437724e+01  4.4999870845002995e+01  4.5001934212575556e+01  4.4998917833142535e+01  4.4998439639526637e+01  4.5000373162607282e+01  4.5000010141189243e+01  4.4999137035117514e+01  4.5005165012043207e+01  4.5000327002231167e+01  4.5002052811749103e+01  4.4999470999063675e+01  4.4990158511173306e+01  4.5000397316922324e+01  4.5001886521283382e+01  4.4999359534224268e+01  4.5001570659647911e+01  4.5001549359068946e+01  4.4998367699064310e+01  4.4998784422574580e+01  4.4998217913229581e+01  4.4999066410412354e+01  4.4996899874386436e+01  4.4988191270817971e+01  4.5000554786406077e+01  4.4999340704996456e+01  4.5001019851699219e+01  4.4996752215358043e+01  4.4997916263660692e+01  4.5003007257701881e+01  4.5002947298621017e+01  4.4997611468036602e+01  4.5001185333582356e+01  4.5000474625620356e+01  4.4999489752551845e+01  4.5000054282252535e+01  4.4999033561598281e+01  4.4998952079211328e+01  4.4999449088881811e+01  4.5003388405867298e+01  4.5003578974044196e+01  4.4999335696804039e+01  4.5000863163873973e+01  4.4999869305294439e+01  4.5000419122223811e+01  4.5000621424737396e+01  4.5000204907007792e+01  4.4996935270360254e+01  4.4997536634080411e+01  4.5000537440911906e+01  4.5002401925538599e+01  4.4998669719338530e+01  4.4998685684580089e+01  4.5000597634798659e+01  4.5000581803729716e+01  4.5000223718414404e+01  4.5000816666690824e+01  4.5000850363920804e+01  4.4998355945891859e+01  4.4997573413684613e+01  4.5002619760708022e+01  4.5000338771038834e+01  4.5012654475054966e+01  4.4992335955603053e+01  4.4995207007195688e+01  4.5000630121334254e+01  4.5000317607786108e+01  4.4997795648772097e+01  4.4999190979402748e+01  4.5000667043745196e+01  4.5001560913413073e+01  4.4998755257152808e+01  4.5003123058761737e+01  4.5000258129606138e+01  4.5000279383197601e+01  4.4998889919065363e+01  4.4994599811841219e+01  4.5001805124842065e+01  4.5003485434418117e+01  4.4997413335781836e+01  4.4997128670402411e+01  4.4998984121951914e+01  4.5000090056137175e+01  4.5000089773648988e+01  4.4999102680701782e+01  4.5000486036039725e+01  4.5000568226824527e+01  4.4999427212924495e+01  4.5000375193724317e+01  4.4999931621382650e+01  4.4998751274330971e+01  4.4994483791075162e+01  4.5002650905367979e+01  4.5001403139253839e+01  4.4998244207490757e+01  4.4997634466958544e+01  4.5003326765312430e+01  4.5006827163676292e+01  4.4998342065190094e+01  4.5004382896165957e+01  4.4998519226955807e+01  4.5001122287423840e+01  4.4999637676019859e+01  4.5000060512592185e+01  4.5003169945411308e+01  4.4999780934962196e+01  4.5001191114668686e+01  4.4998566473975330e+01  4.4997832783389221e+01  4.4997941847474777e+01  4.4997899382555666e+01  4.4997837539531361e+01  4.5000842617331770e+01  4.4998868313335443e+01  4.5004035485690906e+01  4.4993284921006193e+01  4.5001420415789646e+01  4.5000912893620495e+01  4.4999132053582521e+01  4.5001664828114414e+01  4.4997733210016300e+01  4.4996864874914799e+01  4.5000021788724794e+01  4.4999799537948746e+01  4.5003094997125231e+01  4.4999444554015305e+01  4.5000457791648884e+01  4.5000173150862970e+01  4.4999952674186844e+01  4.4999661745719401e+01  4.4999539053391416e+01  4.5003166187384551e+01  4.5004390780543268e+01  4.4999234086774216e+01  4.4998065330661625e+01  4.5002316783717205e+01  4.4998604658921408e+01  4.4999383232818381e+01  4.4999561827038519e+01  4.5011362854302909e+01  4.5000468234169659e+01  4.4997638147726754e+01  4.4998178854929698e+01  4.5001452880567633e+01  4.5000293146635222e+01  4.5000375563797000e+01  4.5003198220454266e+01  4.5001433949748169e+01  4.4999324884023203e+01  4.4998829826813690e+01  4.4999518064706116e+01  4.5000681566229098e+01  4.4996315773296985e+01  4.4999049225573451e+01  4.4999374417292877e+01  4.5000072689412590e+01  4.5001849139651192e+01  4.4999927771353747e+01  4.5000593569835083e+01  4.4998605523858807e+01  4.5000437025673271e+01  4.5000512146305866e+01  4.5002298621239518e+01  4.4999059370456060e+01  4.4997502795125996e+01  4.5000115070948638e+01  4.5002025026452699e+01  4.4999880846517158e+01  4.5001274031076171e+01  4.5000105062563392e+01  4.4998451467957821e+01  4.4998856851309753e+01  4.4998303440387666e+01  4.4999066097247500e+01  4.4995752476795460e+01  4.4997996631612146e+01  4.5000263352820973e+01  4.4999885426132963e+01  4.5000196737989071e+01  4.5000286392218321e+01  4.4999654217645379e+01  4.4999016389104661e+01  4.5003564607212830e+01  4.4999722910362657e+01  4.4999262077208734e+01  4.4998935894221347e+01  4.5001389124473000e+01  4.4998713145141032e+01  4.5001325850118214e+01  4.5001408568389387e+01  4.5001043642065305e+01  4.4999814023556297e+01  4.4997542433853226e+01  4.5003713063878067e+01  4.5001222978624057e+01  4.4998785047458398e+01  4.5001385424477789e+01  4.5002301337140274e+01  4.5001341412865784e+01  4.4998988927075871e+01  4.4999555878691019e+01  4.4999785025505126e+01  4.4997907112581842e+01  4.5000005237582656e+01  4.4999398349887230e+01  4.5000822730402398e+01  4.4999626468170312e+01  4.5000092927419928e+01  4.4995976427312719e+01  4.5001368991353054e+01  4.5001702074856098e+01  4.4999766385717265e+01  4.4996665582823290e+01  4.4998534427489950e+01  4.4997313786625121e+01  4.5003244920580414e+01  4.4998447788337778e+01  4.4999700267809366e+01  4.5000837233288230e+01  4.4998370005446603e+01  4.4996863382566538e+01  4.5002702246985606e+01  4.4998995391438172e+01  4.4999778145160498e+01  4.4999569681489248e+01  4.4999495873166474e+01  4.5001162760961229e+01  4.4999304779136537e+01  4.4999715263698029e+01  4.4998820694236997e+01  4.4999933157017828e+01  4.4999400249641056e+01  4.5001600426668347e+01  4.5003489055266591e+01  4.4998021845096801e+01  4.4986388501666312e+01  4.5000942597891061e+01  4.5000548487978776e+01  4.5000023549038744e+01  4.5000453695284122e+01  4.4998843074428287e+01  4.5001061435404118e+01  4.5003264451533482e+01  4.4999119048702227e+01  4.4999418462498717e+01  4.5003087001903175e+01  4.4997188315603864e+01  4.5001031810570623e+01  4.5000136032985523e+01  4.4998301949994101e+01  4.5000301928092924e+01  4.4999644159875906e+01  4.5000532943568118e+01  4.4999842442678506e+01  4.5001855077221308e+01  4.5004032919939881e+01  4.5000215899578428e+01  4.4999854172011929e+01  4.5000701957348738e+01  4.5000332728505114e+01  4.5000598182952324e+01  4.4999947047056978e+01  4.5001087085185134e+01  4.5001907007133333e+01  4.5000762801833268e+01  4.5002820511858772e+01  4.4998999123062028e+01  4.4999366031928240e+01  4.4998524279467759e+01  4.4997161903507035e+01  4.5000268904283139e+01  4.5001408649013811e+01  4.4997769376662248e+01  4.5000608213596713e+01  4.5000115775382405e+01  4.4998722848169763e+01  4.4998654848743534e+01  4.5001125582092513e+01  4.4999419443145719e+01  4.5004357274989268e+01  4.4996560893230729e+01  4.4998672812391057e+01  4.4999049576074746e+01  4.5000450812018393e+01  4.4998757768413235e+01  4.5001377202478416e+01  4.4999281224509154e+01  4.4999854799296529e+01  4.5000712450221435e+01  4.5000128236290557e+01  4.4999571404225769e+01  4.4999213079339370e+01  4.4999880930414434e+01  4.4999029317290791e+01  4.5000658102916105e+01  4.5001017777474637e+01  4.4998613664870113e+01  4.5001135057674297e+01  4.5001898286798998e+01  4.5001559206353122e+01  4.4997990512354619e+01  4.4999772817738453e+01  4.5000729366061407e+01  4.5000544464782642e+01  4.4998936888911850e+01  4.4997363557610733e+01  4.5001814377630552e+01  4.5001248754273576e+01  4.5000113559710833e+01  4.4996904029131542e+01  4.4998922114198493e+01  4.4999731578924461e+01  4.5007570106644863e+01  4.4999136623569214e+01  4.4999626243450876e+01  4.5002988993440397e+01  4.4998548340606781e+01  4.4999373076460280e+01  4.5000112530703440e+01  4.5000597106929114e+01  4.5001660760288019e+01  4.5000448239121170e+01  4.5000689952904153e+01  4.5000018527473266e+01  4.4998231800463316e+01  4.5006020793412823e+01  4.5000749521774878e+01  4.5000815798275006e+01  4.5001505911654114e+01  4.5005580098810583e+01  4.4999940186304663e+01  4.4999998665406082e+01  4.4998971913256490e+01  4.5000964073184612e+01  4.4999853544900020e+01  4.5002609130040838e+01  4.4999109731875571e+01  4.4999509917693693e+01  4.4998981718029675e+01  4.5000460134506525e+01  4.5000051803206738e+01  4.5000511905668652e+01  4.4998981439150718e+01  4.4999419194292201e+01  4.5000309875654835e+01  4.5001220659230519e+01  4.4998334675311462e+01  4.5000692322615777e+01  4.5005717508658449e+01  4.5000302453180538e+01  4.4999400233753924e+01  4.4994302513361738e+01  4.5000139666470396e+01  4.4999426858561762e+01  4.5000390845910374e+01  4.5001357802612752e+01  4.5002295543829007e+01  4.5002251410091993e+01  4.5003504354766086e+01  4.4999393258000573e+01  4.4986080129417154e+01  4.4999975836697509e+01  4.5000909670366788e+01  4.5000445782248846e+01  4.5000002530009560e+01  4.4998702709278959e+01  4.4997877114776209e+01  4.4990355734850198e+01  4.4997277666440731e+01  4.5003515532983101e+01  4.5000373276657257e+01  4.5009447539413749e+01  4.5010599265540790e+01  4.4998399396597300e+01  4.5000724096059194e+01  4.4994306020336296e+01  4.4995231709502740e+01  4.5001315007303965e+01  4.5002381299570224e+01  4.4999536166626591e+01  4.5000532626516282e+01  4.4995403887039444e+01  4.4999529822835655e+01  4.5000250134381226e+01  4.4998984303300560e+01  4.4999485573584089e+01  4.4999795482327549e+01  4.4996316743440850e+01  4.5000750779546948e+01  4.5002913705707925e+01  4.5000500415304039e+01  4.5001110668664296e+01  4.4999868130228940e+01  4.5000317206107205e+01  4.4999440881163814e+01  4.5003177455595647e+01  4.4998775237514657e+01  4.4999028344586989e+01  4.4999963410467686e+01  4.5000188553318672e+01  4.4988411535836512e+01  4.4999903997992710e+01  4.5000437210243163e+01  4.4998971194010167e+01  4.5001671725526919e+01  4.5000841140064615e+01  4.4998422584149090e+01  4.5006632857475310e+01  4.5001664388700078e+01  4.5009787411019538e+01  4.4997316174601792e+01  4.5001885653473423e+01  4.4997172322895743e+01  4.5000266153355525e+01  4.4996438198072653e+01  4.4996967475232111e+01  4.5001355776584546e+01  4.5003130989513913e+01  4.5001402847952555e+01  4.4999641737944415e+01  4.4999817826053835e+01  4.5000688218012897e+01  4.4999936235370306e+01  4.4998284358080873e+01  4.5001232097502616e+01  4.5001010453527336e+01  4.5002781052502527e+01  4.4996501055877950e+01  4.4997625583288979e+01  4.5002998606984214e+01  4.5008013570645957e+01  4.4990899017332048e+01  4.4999368479712231e+01  4.5000760214130096e+01  4.4999816055797972e+01  4.4998403262079755e+01  4.5003866956624705e+01  4.4998720371144529e+01  4.4996347297957172e+01  4.4996958120982463e+01  4.4996477955863028e+01  4.5000164278239389e+01  4.4998876163527441e+01  4.4999027432317604e+01  4.4999371428665576e+01  4.4997045860648541e+01  4.4998767397341624e+01  4.5001538048155950e+01  4.5000406020836934e+01  4.5000649002962234e+01  4.5000771217272010e+01  4.4999917360993372e+01  4.4999636902636070e+01  4.5004261250747710e+01  4.5004787724038259e+01  4.4996263888234729e+01  4.5003471849475460e+01  4.5000861225703545e+01  4.4999274267741598e+01  4.4994920588479111e+01  4.4998677498958699e+01  4.4999920670978085e+01  4.5001722716098470e+01  4.5005618002040947e+01  4.5000055904160362e+01  4.4999278896106631e+01  4.4999688798872533e+01  4.4999434703042631e+01  4.4995658112380781e+01  4.4996958323237614e+01  4.5000596126349386e+01  4.5000378927867743e+01  4.5002249297855151e+01  4.4999660533962334e+01  4.5001255852457625e+01  4.4996416282817819e+01  4.4999951547162496e+01  4.4995851957372921e+01  4.5000300297660019e+01  4.4998746788457964e+01  4.5001827786355342e+01  4.4999752880344339e+01  4.4999751240833703e+01  4.4999442263969208e+01  4.4998588488330860e+01  4.5003838621238124e+01  4.5001983976272335e+01  4.4998144015374528e+01  4.5000469220795907e+01  4.4992782878655760e+01  4.4997157819694806e+01  4.5000578984307765e+01  4.4997963313713484e+01  4.5001199176315268e+01  4.4997185719295516e+01  4.5001972190048839e+01  4.5000597154053040e+01  4.5004369377896126e+01  4.5003254706125425e+01  4.4999598852066896e+01  4.5001000570319142e+01  4.5005939745938697e+01  4.5001430331253566e+01  4.4995408552898276e+01  4.4999590455550127e+01  4.4998859585348967e+01  4.5000821339559394e+01  4.5000606355326937e+01  4.5000144293662693e+01  4.4999457747759557e+01  4.5000860722192634e+01  4.5000341108638182e+01  4.5001042609874247e+01  4.4998933347825684e+01  4.5000209119738194e+01  4.5000192099437257e+01  4.5000390990707402e+01  4.4999679906827048e+01  4.4999059245208571e+01  4.4999230007536568e+01  4.5001853348617658e+01  4.4997389257164130e+01  4.4999571900823000e+01  4.5000588771607063e+01  4.4997359358358146e+01  4.5001711353030792e+01  4.4998513078684645e+01  4.5002493708966107e+01  4.5003998525737273e+01  4.4997325940230091e+01  4.5003679337888613e+01  4.4997486189459714e+01  4.4994767354797077e+01  4.4999105235280162e+01  4.5002001138398825e+01  4.5002855944409234e+01  4.4996655501690107e+01  4.5000396105802196e+01  4.4996397404272841e+01  4.4998906556635276e+01  4.4999882172512059e+01  4.4998727766471838e+01  4.5002692504958574e+01  4.5004828997973149e+01  4.5005059378025038e+01  4.5004502052578225e+01  4.4998487683294591e+01  4.5000422214303278e+01  4.4999735947149816e+01  4.4996700539119267e+01  4.4999314813738401e+01  4.5001333771230868e+01  4.4999386485350165e+01  4.4997923832641987e+01  4.5002550222982578e+01  4.5001143781344425e+01  4.4998451187472568e+01  4.4999321461830824e+01  4.5003620449840774e+01  4.4999949286255287e+01  4.5000254514054149e+01  4.5003840485412439e+01  4.5000324938039768e+01  4.5000721353301472e+01  4.4999308144704969e+01  4.4997066703353184e+01  4.5004625599485870e+01  4.4999461380719715e+01  4.4998969038310307e+01  4.4999001353803301e+01  4.4992985997779577e+01  4.4998311971267178e+01  4.5000547643614311e+01  4.4996427440739012e+01  4.4996083340203924e+01  4.4999471653467239e+01  4.5005093247862952e+01  4.4993002292288971e+01  4.5000703558589279e+01  4.5001218392114318e+01  4.5000240528295407e+01  4.4999510771326939e+01  4.4998874909269709e+01  4.5000519553575266e+01  4.5000777261432290e+01  4.5000299375811863e+01  4.5001638195899197e+01  4.5000461346401629e+01  4.4997880148991591e+01  4.4997802537954641e+01  4.4997723911062302e+01  4.5002339773671373e+01  4.4997375327728818e+01  4.5001608422909882e+01  4.5001364150192970e+01  4.5001440078592005e+01  4.4999297681624356e+01  4.4992108955196301e+01  4.4991058647721452e+01  4.5002230592461430e+01  4.5002089472390402e+01  4.4998348686915584e+01  4.4998291676960797e+01  4.4998298170793468e+01  4.4999896659933086e+01  4.4999109789931055e+01  4.5000121013496184e+01  4.5000416754670738e+01  4.4999363373198605e+01  4.4996708718190895e+01  4.4999105369639956e+01  4.5001663201292317e+01  4.4997791987723048e+01  4.4992935249125352e+01  4.5000409493185984e+01  4.5002824861484989e+01  4.5001020706937922e+01  4.5003565890957717e+01  4.4997042845595892e+01  4.4997641450495124e+01  4.5003543404785546e+01  4.4998960013259278e+01  4.4999778605898598e+01  4.5000668500594706e+01  4.5000387919374724e+01  4.5010386305802527e+01  4.5001840674051252e+01  4.5001235545809742e+01  4.4989192661302333e+01  4.4998410137176378e+01  4.5002250044997993e+01  4.5000922073073390e+01  4.5002184268712078e+01  4.5001433023454709e+01  4.5005894720591989e+01  4.5004028321085421e+01  4.4997335481570758e+01  4.5007458953459683e+01  4.4999962096316921e+01  4.5000844272625507e+01  4.4997983197614381e+01  4.4991578732811981e+01  4.5000923409315767e+01  4.5001494394743531e+01  4.5003701515192809e+01  4.4997642886208055e+01  4.5003034690506396e+01  4.5003795765103511e+01  4.500353465994200