<?xml version="1.0"?>
<VTKFile type="UnstructuredGrid"  version="0.1"  >
<UnstructuredGrid>
<Piece  NumberOfPoints="10436" NumberOfCells="41878">
<Points>
<DataArray  type="Float64"  NumberOfComponents="3"  format="ascii">21.00355911254883 2.595230102539062 1.628700971603394  20.36175918579102 2.874850988388062 0.961434006690979  21.07645034790039 2.752063989639282 0.72154301404953  20.84861203156106 3.692124628484151 0.9315539270021167  21.9540901184082 2.000858068466187 1.894482016563416  21.64191055297852 1.985077977180481 1.055714964866638  21.9579613357161 2.97375382137029 1.189585329139248  22.79132416309668 2.109449131111028 1.151119891189051  18.67819976806641 2.324219942092896 4.370869159698486  19.1392685311078 1.073145216937609 3.529401935230745  19.14717383116193 0.9402977468669977 4.643675149222178  19.72853304118464 1.792240259611226 4.158063189645272  25.53210067749023 20.91554069519043 3.662621021270752  24.64022121913131 20.52479818049426 3.111516921622141  25.40014418965537 19.7409081813928 3.504540786081332  25.47844600587739 20.93652764537671 2.782781689627657  24.6813793182373 0.09558500349521637 9.153931617736816  24.24528213683056 0.8895589116712234 9.690121324708137  25.10379966220598 0.7033389447626808 8.836821846408681  24.04974076333729 0.7127872542465727 9.059231839275931  21.83608055114746 2.473937034606934 0.1048400029540062  22.80558967590332 2.323617935180664 0.1048400029540062  22.87336971871895 2.874293393925115 0.8080907307833194  26.87431907653809 20.6636905670166 3.65421199798584  26.71198081970215 20.06856918334961 3.971155881881714  27.47262954711914 20.01498985290527 4.042460918426514  27.50098789353097 19.95275240646035 2.825362778490787  25.21023941040039 20.48649978637695 4.294004917144775  25.56393051147461 19.82011032104492 4.613272190093994  24.84669286125188 19.12699579537363 4.308475955158785  24.49600028991699 1.643203973770142 0.6151660084724426  24.75922012329102 0.8718330264091492 0.9860039949417114  24.17094039916992 0.5042539834976196 1.077556967735291  24.21706008911133 0.8792170286178589 0.1048400029540062  25.34629970724916 5.078290154608209 6.113070574674821  26.71964435875859 5.48186334281896 6.283361949407814  26.06085342951072 5.320064093264697 5.299764904574618  25.88458173619295 6.183497291753255 6.326775978460693  24.25124931335449 16.9232292175293 3.839155912399292  23.62079219411703 17.71635839041461 3.438934459050593  24.91794444712747 17.969963950701 3.674418218386297  24.26508219196842 17.91474954301271 4.45968573537196  28.33801860440941 24.43915098377149 1.700614038449218  29.89511287650388 24.21992619940635 1.238483075251617  29.48224097945836 23.13189122010324 1.972468821542309  29.11044654147979 24.17859015002179 2.667358907914216  28.76135063171387 5.556865215301514 2.946438074111938  28.81509971618652 5.902900218963623 2.284902095794678  29.24104006668901 6.367414284542483 3.431150525372625  27.947688436318 6.646667158415074 2.611573535559833  22.67933234638663 10.08755740002254 1.590970188871872  21.64203050307565 10.14059424866588 0.9169025268993827  22.50221411192436 9.432760705291107 0.90497770679404  21.4219662332419 9.693391148561698 1.735405966663015  24.92174080711989 9.355205660378592 1.875175238386219  26.22339422693641 8.289407279389222 1.682318234816384  26.03381706172394 9.244460376688616 2.329518734025226  25.23385092431901 8.304668630912973 2.425504580460105  22.41316579832372 5.883991519274248 8.793263898605858  22.69445965649212 7.16281079828927 8.269381179309946  22.51987224701572 7.079338883244692 9.16487902770468  21.74802334371101 6.487796087347767 7.970303094680163  22.73111915588379 11.07773971557617 0.1048400029540062  23.58580017089844 10.87411975860596 0.1048400029540062  22.93919944763184 10.29082012176514 0.1048400029540062  22.54791090743854 10.59635640318724 0.8081405986525223  23.70779037475586 0.6432449817657471 3.83535099029541  24.31006050109863 0.09558500349521637 3.626425981521606  25.29481724196222 0.8337792547159328 3.381900798472769  24.32163653590938 0.8421867065467026 2.684605259538535  23.89421081542969 2.057183980941772 10.22861957550049  23.25609970092773 1.117529034614563 10.10007953643799  24.22606086730957 1.256044983863831 10.60750961303711  22.34967041015625 10.5523796081543 3.336554050445557  21.45617041592499 10.23442946638536 3.435721739456259  21.95220532722593 10.60180196323753 2.3190440031208  22.22945184260638 9.788683527677206 3.105627033629253  28.70745086669922 23.73998069763184 0.1048400029540062  28.5433292388916 22.62194061279297 0.1048400029540062  29.27704048156738 22.32172012329102 0.8813980221748352  28.37358321811812 23.05342941311557 1.870081996146004  25.40210055016541 18.7005834953907 4.245071725913613  26.10738115021834 19.38786728368807 3.878585753574675  23.63150605620061 11.52211237263001 1.004130951951623  23.46878917199833 10.46041066299933 1.419127277505042  21.81518471119973 2.280171635626965 8.953579482165214  20.69303212202182 1.99359166312263 7.40878372851521  21.32558350520877 3.095632128149187 7.891991382804905  21.9680045612947 1.832696972183135 7.522502144687516  24.22241973876953 16.82268905639648 0.1048400029540062  24.96740913391113 16.9923095703125 0.1048400029540062  25.10088182776962 16.32859386412962 0.6982931597809763  24.43066641118309 17.26933488711345 0.7030903730699314  22.70553970336914 18.96254920959473 3.76114296913147  22.86960029602051 18.0958309173584 3.376245021820068  23.08367986406609 17.88379882902383 4.218324751064866  23.7565240844104 18.636424928622 3.840160079712152  25.78784942626953 17.10840034484863 0.1048400029540062  26.71636009216309 17.31826972961426 0.1048400029540062  26.09200087350222 16.59334048441956 1.401187053006029  25.36249413455128 17.69333778070426 0.9995273993844134  23.50580796895439 16.6007886504894 1.381349100362961  24.14055961891436 15.86831180802774 0.7475654527574324  27.41514631241733 20.926719962632 2.218434162242338  26.36919697999709 20.25769919244069 3.042712584387993  29.45257949829102 12.76799964904785 1.468587040901184  30.24287033081055 12.73651027679443 0.9212070107460022  29.61045803332827 13.5226187945875 0.8160877267749818  29.06628887530764 12.56784726220402 0.811227702122711  29.29715919494629 8.409397125244141 0.1048400029540062  29.21450042724609 7.689752101898193 0.1048400029540062  29.92503929138184 7.967307090759277 0.1048400029540062  29.7914330287247 7.427235814350977 0.7771189500792854  19.20918083190918 13.46945953369141 1.89089298248291  19.00679969787598 14.28242969512939 1.600618958473206  18.62632942199707 13.82606983184814 1.079893946647644  19.50119364367857 14.0663551373179 0.9911492234476839  25.06821245801283 3.356782220639062 6.283301584260518  24.02294674283863 1.603618206866594 6.33386434853761  24.05864677944431 3.608461994904031 7.39742723316322  23.60036735406522 3.403422608672777 5.497646748607576  22.96799522198897 1.148184944593153 7.668303992440766  23.19703875885041 0.8151837322125832 8.764534602496839  23.49033609704912 2.019540356187899 9.133375990188684  22.50491130289305 1.564103546642223 8.476623696622459  23.09914047707167 2.639789539705464 7.837650292184776  25.17019781627886 1.715519209042146 7.165789886447835  28.01869010925293 13.91119956970215 0.1048400029540062  28.76751126026056 13.93554049855051 1.080089475939135  27.43951359815384 13.92032025020783 1.19129260237523  28.14981070168313 13.1912812127267 1.190558193421666  24.35792922973633 9.975032806396484 2.695013999938965  24.20834922790527 9.168869972229004 2.942611932754517  24.94442939758301 9.151081085205078 3.120096921920776  18.84859085083008 13.03553009033203 1.244271993637085  19.35742950439453 12.57773017883301 1.701922059059143  19.90829947998148 13.15524337153953 1.096393136324147  20.2960090637207 14.98252964019775 3.696310043334961  19.81876945495605 14.33977031707764 3.114063024520874  20.33176040649414 14.95921039581299 2.85887598991394  20.97857083401565 14.02984470929367 3.467493774729083  21.06538009643555 0.699176013469696 5.330423831939697  21.02841949462891 1.0990149974823 4.676497936248779  20.37703769630343 1.797506153085269 4.911888064839869  20.87639164387007 1.844810822627567 5.80613067171587  23.76893997192383 7.870101928710938 5.686017990112305  24.66049003601074 7.70625114440918 5.76677417755127  24.37851905822754 7.71634578704834 5.109724998474121  23.67311263500847 6.95265974248438 5.099559468375024  28.1489200592041 4.916399955749512 4.519930839538574  29.13146209684912 5.735455759737021 4.423225796966435  27.71302153896789 6.682433190706866 4.921702054621189  28.63469838436874 5.870821540880875 5.549606262627536  26.74007987976074 10.67206954956055 2.791598081588745  27.16518020629883 9.990222930908203 3.251425981521606  27.31572771958262 9.955024776702736 2.416406049954992  26.62846555235886 9.816856649573834 2.561146948917843  20.42321968078613 2.153357028961182 3.056862115859985  20.14509963989258 2.426968097686768 1.996278047561646  19.88937950134277 1.552579045295715 2.416471004486084  19.3941100060449 2.15420994619029 3.251187908255845  22.52633569912602 2.060883991442814 6.235971322686222  21.66004811035904 3.455832101982835 5.313740299982866  22.10817408007092 1.947287030925356 4.990252835106175  21.2780381763655 2.73648163371025 5.97389214161325  29.71916007995605 10.64521026611328 1.756943941116333  29.92705391259712 9.823137223672534 1.268268756343741  29.5830657021517 10.65677753827415 0.693325491548488  30.37431983910581 10.84337068310037 0.8740233718822554  24.60283088684082 20.78594017028809 4.613077163696289  24.71673011779785 21.21346092224121 3.982189893722534  29.66408920288086 22.11300086975098 1.535061001777649  28.42863272136852 22.20335563458377 1.348468469141856  29.11039169224728 22.1741009386947 2.325393248728374  26.95037555815718 7.095673370019627 3.754253755964811  28.01863451650276 6.00170244410275 3.703040684620363  26.86006461182933 6.390616220948879 2.787499961201464  21.06745910644531 8.184585571289062 0.7288209795951843  21.8
[...]
<PointData  Scalars="p_CO2"> 
<DataArray  type="Float64"  Name="p_CO2"  format="ascii">4.4979917666814899e+01  4.4987629152272333e+01  4.4995679330209910e+01  4.5009608911799191e+01  4.5003462966285689e+01  4.5004782826492608e+01  4.5013958946267252e+01  4.4994773340314310e+01  4.4998515240301032e+01  4.4993715341861872e+01  4.4999539384316776e+01  4.4996643952119186e+01  4.5002517597407881e+01  4.4997965431566712e+01  4.5001555647838572e+01  4.5000696862204343e+01  4.5000089927288251e+01  4.5000737503123766e+01  4.5000082323800463e+01  4.5000448245659840e+01  4.4997184708949845e+01  4.4997934087238221e+01  4.5001494552315961e+01  4.4999550809240731e+01  4.4996560375516296e+01  4.5000386274309768e+01  4.4998665761452180e+01  4.4999843705522593e+01  4.4998965701329780e+01  4.5009547008619037e+01  4.4999485944926406e+01  4.5000344482548634e+01  4.4999093318857717e+01  4.4999361202799797e+01  4.5000303440417220e+01  4.4999041329712384e+01  4.4999755536666413e+01  4.4999512543604027e+01  4.4998417389378055e+01  4.5002371505577209e+01  4.4999754683152972e+01  4.4999375782187037e+01  4.4997103155468004e+01  4.4998955580908415e+01  4.5000601338053826e+01  4.5002329678351288e+01  4.4999710425235030e+01  4.4998455144301467e+01  4.4998310313832405e+01  4.5000320047167186e+01  4.4999833716484829e+01  4.5000004998405586e+01  4.4999553255159519e+01  4.5000442173016452e+01  4.5000106856276268e+01  4.5001327331918738e+01  4.4997661763116099e+01  4.5002388782525244e+01  4.4999705042505227e+01  4.5003781118062541e+01  4.5002865648817497e+01  4.5001210679657341e+01  4.5000433452832588e+01  4.5001282157951650e+01  4.4999997041909957e+01  4.5000030064339292e+01  4.4999931048442207e+01  4.5001084417987720e+01  4.4999916703933110e+01  4.5000645227706620e+01  4.4999393477422345e+01  4.5000421480184123e+01  4.4998559161873317e+01  4.4995882826870300e+01  4.5005533870016549e+01  4.5000705789706558e+01  4.5002778726249588e+01  4.5005885890579556e+01  4.4997666554392559e+01  4.5001306589084798e+01  4.4999534394594072e+01  4.5008297879188731e+01  4.4995402671373547e+01  4.4999008896647069e+01  4.4999350140075791e+01  4.5000500509224963e+01  4.4998468321671403e+01  4.5000943874377150e+01  4.4997760194333772e+01  4.5000213094032219e+01  4.4999945027157317e+01  4.4999871478816267e+01  4.5000681141289682e+01  4.4999227116323326e+01  4.4999721243128882e+01  4.4994910961497929e+01  4.4999404295359874e+01  4.5000933754123416e+01  4.5000527838575799e+01  4.4999390656532107e+01  4.4999130101800461e+01  4.5002427209702056e+01  4.4999231884353144e+01  4.4999103660707625e+01  4.5000936842036239e+01  4.5001293397017434e+01  4.5000806079722345e+01  4.4994420540570822e+01  4.4997743994673378e+01  4.4998234646022816e+01  4.4997993676922519e+01  4.5002493822309710e+01  4.5003593219084365e+01  4.4999981984456163e+01  4.4998533906202944e+01  4.5000016102184496e+01  4.5000416112330626e+01  4.4999725014378988e+01  4.5001739298934375e+01  4.4999223639949257e+01  4.4997881611620741e+01  4.5000055077037963e+01  4.4999599672834279e+01  4.4999160505335048e+01  4.4999258533688021e+01  4.5000587906689752e+01  4.4998128169397852e+01  4.5000431337337297e+01  4.5000315846019802e+01  4.4998763552936168e+01  4.4999021361815018e+01  4.5000359839473482e+01  4.4999367207880937e+01  4.4999291753587109e+01  4.5000030480369489e+01  4.5000732327964982e+01  4.5000311252096971e+01  4.5004123067511010e+01  4.4985226851880036e+01  4.4989279806931748e+01  4.5019840138523428e+01  4.5003443502625906e+01  4.5007995073160913e+01  4.5001534022863432e+01  4.5003101094034548e+01  4.5002857719286560e+01  4.4999247211593605e+01  4.5000297147306945e+01  4.4998673065250337e+01  4.4999905084537232e+01  4.5001806823857159e+01  4.5000375236467406e+01  4.4999585091832031e+01  4.5001079117081368e+01  4.4998271882606716e+01  4.4998214711076514e+01  4.5000069605066138e+01  4.5010806730775265e+01  4.5009590152691970e+01  4.5008644723167663e+01  4.4991497239095921e+01  4.4999501235021093e+01  4.5005151617675104e+01  4.5002246525884459e+01  4.5003846593622121e+01  4.5002008412358329e+01  4.4999834583069770e+01  4.5002447765929851e+01  4.5002061094767285e+01  4.5001156983694813e+01  4.4999437373209098e+01  4.4999144896395471e+01  4.4994656356963226e+01  4.4996329981928312e+01  4.5000282952737599e+01  4.5001818286991274e+01  4.5000163495556222e+01  4.4999118941220189e+01  4.4999495106591375e+01  4.5000007558521325e+01  4.5002366033288801e+01  4.5000186012263832e+01  4.4999630742143708e+01  4.5000141383935244e+01  4.5000006677592673e+01  4.4999694313163509e+01  4.4997539447378045e+01  4.5004018906852394e+01  4.4997602760669366e+01  4.4999925970281801e+01  4.5000129266912673e+01  4.4998375825610353e+01  4.5001650427819264e+01  4.4998828395365351e+01  4.4998623001719672e+01  4.5003473231963035e+01  4.4999995698753438e+01  4.4999146918496528e+01  4.4996717192969022e+01  4.5000597999337707e+01  4.5000512725230685e+01  4.5000799365133581e+01  4.4999097020352544e+01  4.5004256149697156e+01  4.4998698826730262e+01  4.4990043311921362e+01  4.5000487726361968e+01  4.5001600940002355e+01  4.5001304691299218e+01  4.5000856130499344e+01  4.4999448748036464e+01  4.5001011605166198e+01  4.5000559146474849e+01  4.5001178626963274e+01  4.5000525071116797e+01  4.5000282236601400e+01  4.4999552424143296e+01  4.4998693712981435e+01  4.5001090846338073e+01  4.5001427644040156e+01  4.5004308025781434e+01  4.4997326772811576e+01  4.5000702381044256e+01  4.5002209679019508e+01  4.4998821054326953e+01  4.5006135691794242e+01  4.4999146617278292e+01  4.5000122656544164e+01  4.5003220958923592e+01  4.4997645056866695e+01  4.5001591952527335e+01  4.5000891760746953e+01  4.5000743512646054e+01  4.4999658292684749e+01  4.4997490994850224e+01  4.4998675576177085e+01  4.5000314236244357e+01  4.5000770337703372e+01  4.5001520413359373e+01  4.4997338603766408e+01  4.4998211392748864e+01  4.5003182901320834e+01  4.5000415599428869e+01  4.4999872007215956e+01  4.4997584019280559e+01  4.5000213359787793e+01  4.4999762479330855e+01  4.5000471157474344e+01  4.5002870435523526e+01  4.5001734350696353e+01  4.4999778861601889e+01  4.5000801715626594e+01  4.5001011872210583e+01  4.5001202237468455e+01  4.4998884603902688e+01  4.5001260631922221e+01  4.4998850633822464e+01  4.4999674484421000e+01  4.5002848738579168e+01  4.5001399551718421e+01  4.4999069796516153e+01  4.5001220088992923e+01  4.4999361124240735e+01  4.4999705241071794e+01  4.5001597285150957e+01  4.4999597879664890e+01  4.4999962264052229e+01  4.4998996555783648e+01  4.5001580422102357e+01  4.4998927188605165e+01  4.4998801436145833e+01  4.4999294062281706e+01  4.4998903249004229e+01  4.4999707573400570e+01  4.4999681117389734e+01  4.4999574396274085e+01  4.4997710792283662e+01  4.5007430014742717e+01  4.5000245598375756e+01  4.4999531112463515e+01  4.5000137597591369e+01  4.5000618806794982e+01  4.4999961994866432e+01  4.4999505743760253e+01  4.5010099979674493e+01  4.5002542166280598e+01  4.4996886824537178e+01  4.4999286938702468e+01  4.5000640950127533e+01  4.4999748326331776e+01  4.5002141411896091e+01  4.5000461142527946e+01  4.5005606722831892e+01  4.5001383560794622e+01  4.4999719628010098e+01  4.4997844257673179e+01  4.4999937596705550e+01  4.5000701036787547e+01  4.4999729180691538e+01  4.5001456978620503e+01  4.4998923532839761e+01  4.5000345517320980e+01  4.5003188487919715e+01  4.4998836359271323e+01  4.5008811119092201e+01  4.4999149387422378e+01  4.5000370627369236e+01  4.4998311481554126e+01  4.4998868814551265e+01  4.5001989097693496e+01  4.4997641026622041e+01  4.4999447447797863e+01  4.4997747106364592e+01  4.5000876206283763e+01  4.5002201289305724e+01  4.5000078996369481e+01  4.5000177239630503e+01  4.4997605454794673e+01  4.4997830846247041e+01  4.5003357866541023e+01  4.5003180146839384e+01  4.5000944023756858e+01  4.5002233167872348e+01  4.5000334738572676e+01  4.4999453121436957e+01  4.4999419054221953e+01  4.4998841900213655e+01  4.4999970809883941e+01  4.4998960196642699e+01  4.4998183010499382e+01  4.4998938067916690e+01  4.5000516564081465e+01  4.4998979795814222e+01  4.5001302929218618e+01  4.5000111760886853e+01  4.5001000778018820e+01  4.5002738034798313e+01  4.4986687039823416e+01  4.4996593120278504e+01  4.4998150224763286e+01  4.5000930412672680e+01  4.4999710852709732e+01  4.4998688316570878e+01  4.5011168957688234e+01  4.4992525721560483e+01  4.5001924132431036e+01  4.4996438057505024e+01  4.4994784574820194e+01  4.4993556263777322e+01  4.5005402338414733e+01  4.4994531944872797e+01  4.5001121688144579e+01  4.5001521349582177e+01  4.4999060946328555e+01  4.4999229358030256e+01  4.4997982276858664e+01  4.5000992466969819e+01  4.5000417672156509e+01  4.5007196525715159e+01  4.4997873584678466e+01  4.4999637184802637e+01  4.5000856106336272e+01  4.4999537341715623e+01  4.5001207615330742e+01  4.4999122010577835e+01  4.4999936878537532e+01  4.5000887919609667e+01  4.5001151556691632e+01  4.4995981219062294e+01  4.5002674443054836e+01  4.5004668975512843e+01  4.4999834025721213e+01  4.5000561054178959e+01  4.4999771857117253e+01  4.4998283296330037e+01  4.5000563439965809e+01  4.4996809151657722e+01  4.5000400246751084e+01  4.4999367376099194e+01  4.5001247165568799e+01  4.5001407127959105e+01  4.5007318985455548e+01  4.4997186100345616e+01  4.4998865281090303e+01  4.5000428162332135e+01  4.5001946711359714e+01  4.5000253312231621e+01  4.4999105428502894e+01  4.5018471415182745e+01  4.5003075276714611e+01  4.4997850525010044e+01  4.5001420917642577e+01  4.5001054578069130e+01  4.5001101265513576e+01  4.4998884514493461e+01  4.5000011175807124e+01  4.5000108289783647e+01  4.4998018572992891e+01  4.4994086199100032e+01  4.5000528443555702e+01  4.4997379759856969e+01  4.5000312971941490e+01  4.5000174226476560e+01  4.5000588615725164e+01  4.5001523476902385e+01  4.4997412578433142e+01  4.5000799400280378e+01  4.5000895730270571e+01  4.5002258050603437e+01  4.4997530090180483e+01  4.4999132342300186e+01  4.4999691089564074e+01  4.4998926056586704e+01  4.5000622544432318e+01  4.5000892201383202e+01  4.4999526860882789e+01  4.5000665040627766e+01  4.5000215788702974e+01  4.5000811047299571e+01  4.4995538974049566e+01  4.5000474776946987e+01  4.5000584030123846e+01  4.4999967645758950e+01  4.4997599546790561e+01  4.5002525247838221e+01  4.5001513771697731e+01  4.4999000884911382e+01  4.4998855148111055e+01  4.5008967769924546e+01  4.5000210037204369e+01  4.4997890707073402e+01  4.5000551606732344e+01  4.5007113917988463e+01  4.4993149423516996e+01  4.5000024096727692e+01  4.4996770542115790e+01  4.5003384711431870e+01  4.4955708482141169e+01  4.5011217207715717e+01  4.5001388694331418e+01  4.4998869191190131e+01  4.4998283338824635e+01  4.4998850731892361e+01  4.5000981449287139e+01  4.4998407904193542e+01  4.5000440574683594e+01  4.4999930672761415e+01  4.5000604622889881e+01  4.4999766507094456e+01  4.5000081671533472e+01  4.4998381426014227e+01  4.5002377956499949e+01  4.5000369511366365e+01  4.4998697367070505e+01  4.4998981287898097e+01  4.5001253947307745e+01  4.5001014547932570e+01  4.5000810726093093e+01  4.5001051382548702e+01  4.4999195085856826e+01  4.4999773737139108e+01  4.5001241497013375e+01  4.4999077829578773e+01  4.5000809212313058e+01  4.5001926129365700e+01  4.5000575931016670e+01  4.5000198926458289e+01  4.5000646436140393e+01  4.5002061467084161e+01  4.5000346092234473e+01  4.4996213042559333e+01  4.4999604549099132e+01  4.5000792379918259e+01  4.5001273593188131e+01  4.5000931594777811e+01  4.4999067996044609e+01  4.4998057292274595e+01  4.4999454868415121e+01  4.5000629738940120e+01  4.5000829531237919e+01  4.4999086144075051e+01  4.5000497770203950e+01  4.4996160197300561e+01  4.5010301630133860e+01  4.4996900593018296e+01  4.5001437374045025e+01  4.4998010236562664e+01  4.5002111573321187e+01  4.4998718137488645e+01  4.4999973441692845e+01  4.5001238436785862e+01  4.5001687380319453e+01  4.4999998466198619e+01  4.5002194749503687e+01  4.5000177494198915e+01  4.4999353888232612e+01  4.5002695900701752e+01  4.4997737203947764e+01  4.4998909813259154e+01  4.5004186320601661e+01  4.5000251491905075e+01  4.5001475502414984e+01  4.4999892745381743e+01  4.5001621966620206e+01  4.5000822711204655e+01  4.5002497959059816e+01  4.5003055708602112e+01  4.5006668982214592e+01  4.5004259796625256e+01  4.5000147437710957e+01  4.4997955403229732e+01  4.4999562254482534e+01  4.4999251210077283e+01  4.5000360605144628e+01  4.4996348800895731e+01  4.5001761017706265e+01  4.5001128702925051e+01  4.4994960511911437e+01  4.4999835320931517e+01  4.4999294390122316e+01  4.4999728279778353e+01  4.4998223389839808e+01  4.4999089603872797e+01  4.5001001622029975e+01  4.4997696414511246e+01  4.5000778347729423e+01  4.5002147376351751e+01  4.5000073363891296e+01  4.4999538299917674e+01  4.5000239709838496e+01  4.4998739865707286e+01  4.5002570100045673e+01  4.4997097299259167e+01  4.5004000647404943e+01  4.4997350308266199e+01  4.5004438595793019e+01  4.4998662490344245e+01  4.5001371472761519e+01  4.4999426181102265e+01  4.5001252832398777e+01  4.5002916048352503e+01  4.4999816846971164e+01  4.4999264938841719e+01  4.5001048800443996e+01  4.4999869135094215e+01  4.4999326849180740e+01  4.4999559995894806e+01  4.5000290868604942e+01  4.5000921804098184e+01  4.4999628529817045e+01  4.4999809954900670e+01  4.5000691848268971e+01  4.5000953683414522e+01  4.5000021496669767e+01  4.4998380981177583e+01  4.5000265149031058e+01  4.5001820847943613e+01  4.4998350901438229e+01  4.4999874976799170e+01  4.5000358313655624e+01  4.5000213157625524e+01  4.5000277765149782e+01  4.4999875361144134e+01  4.5001890694119936e+01  4.4998456760102144e+01  4.5004736447535883e+01  4.4999734497733719e+01  4.5000082530968449e+01  4.5000000297282597e+01  4.5000090317772155e+01  4.4999577181181209e+01  4.5000518375876368e+01  4.5000542539171640e+01  4.4999608975569679e+01  4.4998895016120528e+01  4.5000529334717619e+01  4.4999471119667973e+01  4.4999156713903865e+01  4.4999823495600133e+01  4.4996991625397136e+01  4.5000246468174929e+01  4.5002249292938615e+01  4.5000280347666575e+01  4.5004574552856326e+01  4.4996076020297174e+01  4.4999987821231016e+01  4.4999820416769609e+01  4.5001039367661008e+01  4.4999694162704479e+01  4.5002492996051444e+01  4.5000289947218945e+01  4.5000025583891777e+01  4.4999991273024840e+01  4.5000178320254953e+01  4.4998582298958027e+01  4.5001347863664392e+01  4.4999612469593380e+01  4.5000164160407969e+01  4.5001895656269845e+01  4.5000375416449046e+01  4.5000324010172108e+01  4.4999742767449753e+01  4.4999515823977426e+01  4.5002299218961596e+01  4.5001836751981308e+01  4.4999574367926478e+01  4.5004879683080141e+01  4.4992975410418225e+01  4.5000396041889353e+01  4.4998941836788987e+01  4.5003033787221426e+01  4.4994622078156446e+01  4.4999915357029117e+01  4.5000535533842069e+01  4.5000816299601013e+01  4.5001777427475758e+01  4.4999877812503328e+01  4.5001962052888175e+01  4.5000006357007145e+01  4.4999255577780673e+01  4.5003150963445798e+01  4.4996274231524779e+01  4.5001875698032300e+01  4.4998824951670926e+01  4.4998539375813309e+01  4.5000926586521764e+01  4.5000199900412568e+01  4.4996023709653599e+01  4.4999696242042617e+01  4.5000486230220709e+01  4.4999957884936386e+01  4.4999833725697265e+01  4.5000568358498896e+01  4.5000105384723106e+01  4.4998525386599383e+01  4.5001145243975117e+01  4.5000545492215039e+01  4.5002670703130462e+01  4.5000044598908751e+01  4.5001293368597608e+01  4.5000176043911637e+01  4.5000561568618970e+01  4.4995375597353338e+01  4.5001365406914751e+01  4.4998244018108110e+01  4.5005004866856780e+01  4.5001235116690395e+01  4.4997951853971998e+01  4.4998864157049098e+01  4.4998843460376840e+01  4.4999533926148722e+01  4.5000772505697512e+01  4.5001731394491372e+01  4.5000549106100010e+01  4.4996891960650089e+01  4.5000641851388501e+01  4.4999563236646424e+01  4.4999017525510254e+01  4.5000205957992677e+01  4.4999229063294678e+01  4.5000580413015832e+01  4.5000146760632113e+01  4.4996428786155064e+01  4.4997199407498059e+01  4.4998514126283126e+01  4.4998861414990593e+01  4.4999735277996528e+01  4.5004145808299207e+01  4.4999974706855788e+01  4.4999187664332183e+01  4.4999853938926520e+01  4.5001131589431623e+01  4.4999637623055442e+01  4.4999743724631834e+01  4.4999430118838319e+01  4.5002237873315309e+01  4.4999799721750186e+01  4.5001600033485225e+01  4.5000370055246115e+01  4.4998758977955603e+01  4.5000058643970114e+01  4.4997878510679584e+01  4.5002854657939643e+01  4.4999384549294717e+01  4.4999437754590147e+01  4.5000320975914633e+01  4.4997544074388387e+01  4.5000186571608680e+01  4.5000117234667805e+01  4.5001636996332550e+01  4.4997829523646068e+01  4.4999791596797529e+01  4.4995316452853842e+01  4.4996095054114434e+01  4.5004970432729621e+01  4.4997397454363025e+01  4.5000201733339473e+01  4.5000342685256037e+01  4.4996595021210403e+01  4.5011112717498492e+01  4.4999777573807165e+01  4.5001921033739492e+01  4.5001556397719966e+01  4.4991021591797121e+01  4.5000381442937915e+01  4.4995984066135364e+01  4.5000403345296782e+01  4.4998709556816451e+01  4.5001028070402043e+01  4.5002947120662448e+01  4.5001487349999543e+01  4.5002961064640964e+01  4.4993206599590820e+01  4.4999988090353611e+01  4.4999566374073027e+01  4.5000862174246990e+01  4.5000787921036576e+01  4.5000770784551563e+01  4.5002947070063456e+01  4.4999769715574459e+01  4.4999540548871479e+01  4.4996158377033140e+01  4.4999583524256074e+01  4.5001042240548905e+01  4.5000976634787655e+01  4.4999056816955907e+01  4.4999263877573711e+01  4.5000479408144628e+01  4.4999710901541384e+01  4.4999769326156347e+01  4.5010038098473849e+01  4.4993093661956735e+01  4.5004313185671613e+01  4.5000755878787814e+01  4.4999871265403073e+01  4.5001288791450271e+01  4.5001935831784863e+01  4.5004154768196464e+01  4.4996661868129962e+01  4.5002394437455806e+01  4.5000454066578889e+01  4.5000344077655733e+01  4.5000046263559661e+01  4.4998057344626879e+01  4.4999304830566835e+01  4.4996067118052956e+01  4.5000519551967450e+01  4.5001755939788893e+01  4.4999367851815869e+01  4.5001529535937294e+01  4.5005047429669581e+01  4.5001344543810731e+01  4.4999426209319630e+01  4.4999876583839914e+01  4.4999091531832988e+01  4.5000602150052117e+01  4.4999235309374747e+01  4.4999457561044025e+01  4.4993628186511408e+01  4.5005528789219852e+01  4.5000236183345685e+01  4.5002929719607046e+01  4.5001372301581725e+01  4.5000857735269662e+01  4.5000997509217619e+01  4.5000263595253791e+01  4.5000189145732222e+01  4.4990347675052746e+01  4.5003684251174789e+01  4.4996526077437423e+01  4.4999797547514490e+01  4.5000264249338208e+01  4.4999427189501105e+01  4.4999968999286473e+01  4.5001147862164146e+01  4.5001424606498077e+01  4.5000901635297282e+01  4.5000804088482546e+01  4.5001574456640114e+01  4.5011667597661550e+01  4.4998145047550274e+01  4.4988204944907750e+01  4.4998712230852213e+01  4.4999365749372743e+01  4.5003724838821775e+01  4.5001783172524114e+01  4.5002513953373338e+01  4.5001506018616077e+01  4.5001048001463715e+01  4.4999219292896008e+01  4.5000026419042932e+01  4.5001324297361876e+01  4.5001109853449208e+01  4.4999938594578190e+01  4.4993894335581160e+01  4.5001136681519363e+01  4.5009018839775216e+01  4.5007114648028832e+01  4.5001595924533753e+01  4.5000071287226845e+01  4.5000599358809858e+01  4.5002507713218002e+01  4.5002621711483009e+01  4.4996642501272817e+01  4.5001941284071727e+01  4.4999980632861018e+01  4.5001505071826323e+01  4.5000671362220707e+01  4.5001209871198611e+01  4.5001280659664729e+01  4.5002140300553478e+01  4.5003413915998884e+01  4.5001083494968938e+01  4.4999802438816836e+01  4.4998016627485022e+01  4.4999992423512367e+01  4.4999610283612597e+01  4.5001483098675664e+01  4.5000886334927124e+01  4.5000442768729414e+01  4.4999610150184871e+01  4.5000262356554728e+01  4.4996485793823894e+01  4.4999047170916469e+01  4.5001022127093407e+01  4.5001857759930111e+01  4.5000242910144173e+01  4.4998883967340376e+01  4.4999876877976924e+01  4.499945996418426