<?xml version="1.0"?>
<VTKFile type="UnstructuredGrid"  version="0.1"  >
<UnstructuredGrid>
<Piece  NumberOfPoints="9277" NumberOfCells="42493">
<Points>
<DataArray  type="Float64"  NumberOfComponents="3"  format="ascii">13.00804042816162 31.26049041748047 31.82843017578125  13.68900966644287 30.93679046630859 31.40644073486328  13.79193348024008 30.98411229337798 32.67922743374642  12.99602042634161 30.22571293579004 32.28677705478716  20.26705932617188 39.31787872314453 31.79626083374023  20.37162971496582 39.89572906494141 30.88445091247559  20.87800322035305 38.79101211507489 30.83838374607323  20.12434620241509 38.47179813791236 31.2854590277715  17.63603973388672 34.65597152709961 30.66024971008301  18.00079917907715 35.23210906982422 30.18979072570801  17.95768074046124 36.0315615766994 31.48870460766748  18.79401200612851 34.87092202474092 31.34233167230294  12.13492965698242 31.03425025939941 31.9976806640625  12.80070018768311 32.08922958374023 32.01473999023438  13.04992180780408 31.5801857403581 32.7794648773795  16.39119911193848 36.16661834716797 30.36432075500488  16.92569923400879 36.93539047241211 29.83596038818359  17.44850921630859 36.02951049804688 30.08160972595215  16.80391475543644 37.01583841893435 30.97981701325925  15.35112953186035 39.30651092529297 28.3628101348877  16.29574966430664 39.33050155639648 28.2886905670166  15.8022403717041 38.80398941040039 28.38336944580078  16.28116843005941 39.11157929287998 29.05521530582607  14.09774017333984 32.31330108642578 31.47513961791992  14.3654203414917 31.5649299621582 31.25040054321289  14.96020030975342 32.3661994934082 31.04862022399902  14.81510371967476 31.86691946648455 32.10215639169268  16.28589057922363 38.11605834960938 28.97397994995117  16.87784869509557 38.6756057776641 29.6572625991855  17.16213343478083 39.03939019539221 28.94322658909471  17.97884941101074 39.89572906494141 29.62936973571777  18.22528082834914 38.86224360413352 29.01499407493326  17.67786341337652 38.49569737357825 29.83652393495318  18.90535003986779 39.09508569272877 29.76203025896658  19.72389030456543 38.70315933227539 32.18294143676758  19.8824291229248 37.85113906860352 32.03170013427734  20.68168067932129 38.61412811279297 32.07749176025391  18.82771810273954 38.01338475511994 30.23646405773498  17.85825018711017 37.09935353873725 30.1713695712531  18.50510259159006 37.84467610775336 29.07415087762626  14.17415046691895 30.57364082336426 33.87179183959961  14.95135974884033 31.10330963134766 34.02595901489258  14.88776969909668 29.9446907043457 33.74237823486328  14.8678296274189 30.51765075632808 33.01119331695331  17.14320945739746 39.89572906494141 29.5290699005127  17.72019004821777 39.89572906494141 30.43910026550293  16.80017563861864 39.02173525282436 30.67212638099258  19.55521965026855 39.89572906494141 31.4399299621582  19.36429929367039 39.04544628132852 31.08873208469945  12.34961986541748 30.05709075927734 32.90365982055664  13.04170036315918 30.20487022399902 33.29772186279297  12.96990966796875 29.52252960205078 33.06512069702148  19.62741019690914 38.87723294360626 28.89953356634037  12.23122978210449 29.33480072021484 32.5967903137207  12.7397403717041 28.74015045166016 32.84658813476562  12.89667635152767 29.36877656332067 32.12096030116941  17.72833061218262 39.89572906494141 28.90280914306641  16.78335952758789 34.19979095458984 30.93103981018066  17.65298080444336 33.98303985595703 30.74554061889648  17.90085518397094 33.81899303439243 31.95112479931063  17.57153644000192 35.02639274667995 32.05363087402795  17.67817894358649 37.89455132808037 31.37509990657653  17.77996214758153 36.79573094158592 32.36859223123444  18.26450540933923 37.99705781300869 32.22972896118088  17.64637281620519 37.97859677974919 32.89005560624117  18.30537384346512 39.08979969908533 30.67943158666117  13.0179500579834 29.51866912841797 31.23880958557129  14.03971441236892 29.77042725826568 32.18038178490642  20.81147003173828 37.76161956787109 31.95858955383301  15.14200019836426 31.37912940979004 30.95593070983887  16.05360985985977 31.44908189979424 31.88913120892624  15.85468489642378 32.41087541743295 31.43822320490867  17.05417999946088 32.83458632251079 33.71036174420318  16.38828555482736 32.26741406134252 33.07750519299269  17.18658899485676 31.97511624707255 34.06865837940255  16.87825175299405 31.49507552066715 33.26582488961084  13.8326301574707 29.88338088989258 33.41753005981445  18.59408950805664 39.89572906494141 29.17872047424316  18.26692962646484 39.89572906494141 28.26544952392578  12.17926979064941 29.26547050476074 31.85172080993652  12.39640998840332 29.72879981994629 31.45754051208496  12.5279598236084 29.30125045776367 31.36042022705078  18.94098541752983 35.88714676170471 30.69658927901882  18.93663769707753 36.99710397327349 31.318058511924  12.14099979400635 31.48862075805664 33.28501892089844  13.08790969848633 31.52018928527832 33.67819976806641  12.58813953399658 30.79932975769043 33.24718856811523  16.7409496307373 38.6021614074707 28.09523963928223  17.25300979614258 39.33549880981445 28.07773971557617  14.08341979980469 33.1809196472168 33.76750946044922  15.20139026641846 32.99538040161133 33.94298934936523  14.30587907216122 33.1115209239658 32.75075269269932  15.05469753636678 34.03979490897895 33.04965961137734  12.29975986480713 28.73142051696777 32.3509407043457  17.25868034362793 37.85559844970703 28.64812088012695  19.55328941345215 39.27505111694336 32.26198959350586  19.74996694682837 36.42101599364874 30.43059153833115  18.84833149718251 36.81680281354924 29.81837667387509  19.82182230862363 37.24892810627608 30.5790496945252  18.10848999023438 34.12118148803711 34.06201934814453  18.28248023986816 34.58679962158203 33.39759063720703  18.75900077819824 33.9830207824707 33.47782897949219  17.41715973321824 33.99223724152655 33.20354114799721  15.11660957336426 33.38526153564453 31.04134941101074  15.55546224833395 32.85086013101765 32.26202353489973  16.27779960632324 37.57345962524414 29.69799041748047  16.95433044433594 37.60195159912109 29.34288024902344  16.76133287837083 37.84997469667388 30.27667016569853  17.78502082824707 38.21186065673828 33.70854187011719  18.55102920532227 38.42885971069336 33.13484954833984  18.05804568014551 39.08062156607136 32.8486741692626  18.18078994750977 35.49190902709961 33.25119018554688  17.83012962341309 34.74583053588867 33.774658203125  17.19192718325177 34.94756753298658 33.47657966132768  12.92866992950439 28.63505935668945 31.74618911743164  12.84393978118896 28.07571983337402 32.54024124145508  14.06612482112653 28.61205816320158 32.19560532996336  14.633620262146 34.02962875366211 34.00790023803711  15.73943042755127 33.63648986816406 34.13050842285156  11.99260997772217 30.02845001220703 32.15658950805664  12.8255500793457 30.36689949035645 31.53861999511719  17.64501341688056 38.68192191344464 28.36818773771585  16.54385440524781 37.31602110561512 32.85828531479324  16.21242451784935 38.31035473853278 31.55257137881402  14.66963958740234 30.5282096862793 30.97960090637207  15.06729293062683 30.62868176831991 31.82953120616592  17.98092079162598 36.60073089599609 33.44728088378906  18.70587921142578 36.5040397644043 32.70817947387695  17.87589073181152 39.89572906494141 32.39879989624023  18.83000946044922 39.89572906494141 32.04917144775391  18.53642340700149 38.93365320580217 31.9848807129144  17.10617065429688 37.67776870727539 34.01321029663086  17.20611953735352 36.79251861572266 34.13943099975586  17.7197093963623 37.37427139282227 33.7010612487793  15.77643013000488 37.00233840942383 30.1017894744873  15.7703181054388 37.98011066564293 30.56700034853327  16.93242073059082 35.24760055541992 30.6577205657959  13.42218017578125 30.68931007385254 33.68436813354492  13.99610996246338 31.32353973388672 33.97393035888672  14.12207123680415 31.72317224374616 33.28820803330633  13.68082046508789 28.94412040710449 33.05477905273438  17.52626037597656 36.01322174072266 33.90742874145508  16.6009220417721 35.49181246481392 33.89613920901457  16.95232136204077 35.86675885171597 32.96279801293574  15.62193965911865 30.81266021728516 30.67977905273438  14.31902027130127 32.93952941894531 31.33379936218262  15.06944723782559 34.02392955016519 32.00123813019143  16.30854908395836 34.63353890177032 32.53767895179055  15.43516757725466 35.1936476050992 31.86470157577187  16.13957565678552 33.68834457207021 31.86184288220018  15.98055176314686 33.49882052331221 33.18451402474524  17.15944410291308 32.93428035835824 32.8214763093554  16.95321201835794 32.62652335957255 31.51925087574577  17.33082823127145 31.48492832902943 32.10346972452071  13.93371087960895 32.1705273927686 32.31187786926611  17.47207069396973 37.96609878540039 27.88431930541992  17.00735092163086 38.77883148193359 27.22149085998535  15.93812698432643 38.80551527134794 33.39911683855025  17.18088242671353 38.83050705019354 32.34644674610629  16.28758990179186 39.32596790517887 31.90181228722493  18.1661491394043 38.85707855224609 33.69075012207031  13.74240970611572 29.9748706817627 31.11850929260254  17.26308059692383 39.89572906494141 31.99000930786133  17.92107963562012 39.89572906494141 31.47953033447266  17.48064449852537 39.11080560908844 31.62649567440781  15.62512969970703 32.01805114746094 34.05023956298828  16.00671005249023 31.1789493560791 34.38442993164062  15.82632999867651 31.16337627662589 33.27162330223247  19.48247909545898 39.89572906494141 30.48769950866699  16.35578918457031 34.05279159545898 34.50603866577148  16.07062876052722 34.8057393935506 33.64087299756764  16.80832829136004 33.98884103342544 33.72075085038354  16.36305999755859 32.0053596496582 34.28440093994141  19.86963595612546 39.11204180781596 30.10659137933527  19.85087416647979 38.08343863148352 30.19187696272411  17.62107086181641 37.2835693359375 29.16459083557129  18.65312004089355 39.89572906494141 30.98440933227539  16.6503791809082 39.31779098510742 34.36063003540039  16.84893035888672 39.89572906494141 33.76615905
[...]
<PointData  Scalars="p_CO2"> 
<DataArray  type="Float64"  Name="p_CO2"  format="ascii">4.5001070891034942e+01  4.4997293366058315e+01  4.5002493167798818e+01  4.5004598463054649e+01  4.5002209407009182e+01  4.4999189388731111e+01  4.5004110283312663e+01  4.5000244690035409e+01  4.5000682227947102e+01  4.5000881075204120e+01  4.4996162482738328e+01  4.5002733758368926e+01  4.5009019897141293e+01  4.5001834764879895e+01  4.5005686319661599e+01  4.5000086904850356e+01  4.4999516629791472e+01  4.5000416353656107e+01  4.5000347775105226e+01  4.5002543854304911e+01  4.5004809845242519e+01  4.5004249689751802e+01  4.5001970260514092e+01  4.4997265045467969e+01  4.5001594753216125e+01  4.5001635376288718e+01  4.4999896975646720e+01  4.4997016461182241e+01  4.4999341370668482e+01  4.4988206031006463e+01  4.5001910774315924e+01  4.5002413670801921e+01  4.4998586058416521e+01  4.4999663616882593e+01  4.5001554999554266e+01  4.4999507119309378e+01  4.4997287361213573e+01  4.5000210373722823e+01  4.4999361888050288e+01  4.5002248688181517e+01  4.4997847691944777e+01  4.5001083551105367e+01  4.5001052728272462e+01  4.4999702820562014e+01  4.4999408609070265e+01  4.4998866885290298e+01  4.4999308638554055e+01  4.5001686070790342e+01  4.4996931086557311e+01  4.4991835474086784e+01  4.5000162162798347e+01  4.5006870054432845e+01  4.5000500199611487e+01  4.4992466183915049e+01  4.5001161549993682e+01  4.5005930562560181e+01  4.4997954858752244e+01  4.5003498912585279e+01  4.4999184175604583e+01  4.5001197608985265e+01  4.4997620027865352e+01  4.4999322477383593e+01  4.4998022580960715e+01  4.4999729549494070e+01  4.5001158264091103e+01  4.4997909308143356e+01  4.5004604830579979e+01  4.4999500538396397e+01  4.4998189139693807e+01  4.5000863646339326e+01  4.5000249335854988e+01  4.5000752643225674e+01  4.5000422815452971e+01  4.4997539283904743e+01  4.5000898862347952e+01  4.4998582270609141e+01  4.4997838117456666e+01  4.5000997551392430e+01  4.4999885467895574e+01  4.5009710154823921e+01  4.5003023188730296e+01  4.4999440344742091e+01  4.5000292840341061e+01  4.5000207489796146e+01  4.4997737653189887e+01  4.4998047881115980e+01  4.4997526723430248e+01  4.5001976573888221e+01  4.5002638207300613e+01  4.4993698540761791e+01  4.5000495562864288e+01  4.5004586998041745e+01  4.5004252571104765e+01  4.4997527615506705e+01  4.5001462265804754e+01  4.4999173857618345e+01  4.4999562505395602e+01  4.4999904716479207e+01  4.4999920320885266e+01  4.4998379944575397e+01  4.4999099274606642e+01  4.5001250086499937e+01  4.5003320606464399e+01  4.5002149141729852e+01  4.5002256339298150e+01  4.5002430570609370e+01  4.4996867717315141e+01  4.4999400780454110e+01  4.4999891275861700e+01  4.4998219355587608e+01  4.4997857445368744e+01  4.5000922740933497e+01  4.5000087966358087e+01  4.4996430231227251e+01  4.5000843656573750e+01  4.5001424814113449e+01  4.5000106284228252e+01  4.4995245632205410e+01  4.5004541912882324e+01  4.4988646349916806e+01  4.4992625553135703e+01  4.5006464115773063e+01  4.5000861266395603e+01  4.4999063394426699e+01  4.5003247150884810e+01  4.4998706437964771e+01  4.4999096230639864e+01  4.5000970496494517e+01  4.4998282046903462e+01  4.5001233339063390e+01  4.4997868896316710e+01  4.4998901428040853e+01  4.5001590931714972e+01  4.5000714754012606e+01  4.5001151881671142e+01  4.4998777507210363e+01  4.4999343164976636e+01  4.5005150056646364e+01  4.4996942097241302e+01  4.4998090711584936e+01  4.4999051884920554e+01  4.5001202500032072e+01  4.4999537651235741e+01  4.4999555179366830e+01  4.4999359909512279e+01  4.4999537754346306e+01  4.4998686055366043e+01  4.4998335210898851e+01  4.4999485486982870e+01  4.5000231541167871e+01  4.5001258899279001e+01  4.5000986862735374e+01  4.4999660033731296e+01  4.5000620542597680e+01  4.5003779810705730e+01  4.4998489209726031e+01  4.4987090140968881e+01  4.5001270081647007e+01  4.4999607095044112e+01  4.4999947847590555e+01  4.5000123757825016e+01  4.5002555997537584e+01  4.5000203149142671e+01  4.5000078919415778e+01  4.4999363055995865e+01  4.5004638316566272e+01  4.4998777202932466e+01  4.4999361524739328e+01  4.4998484151797150e+01  4.5008913585282691e+01  4.4999178021437309e+01  4.4999174178177810e+01  4.5001531403174319e+01  4.5000019450849223e+01  4.5000267838511469e+01  4.5001324441407021e+01  4.5001751064207312e+01  4.4999961671389741e+01  4.4999526987733283e+01  4.4999301225036547e+01  4.5000298778956598e+01  4.4997472573055440e+01  4.4998401359675029e+01  4.5005631090083270e+01  4.5001335258579672e+01  4.4996712506614479e+01  4.5003066314948036e+01  4.4998361953588258e+01  4.4999638110642955e+01  4.5000085686196307e+01  4.5000587754745787e+01  4.4999293011189813e+01  4.4998493554703394e+01  4.4998822487916605e+01  4.5001703039857901e+01  4.5004430417707731e+01  4.5001413864471907e+01  4.4999403372343373e+01  4.5000750868957432e+01  4.4999642824231252e+01  4.4999110913187820e+01  4.4999827949823761e+01  4.5002685850390790e+01  4.5001229775829948e+01  4.5000894162826349e+01  4.5002982657123574e+01  4.5005916717454809e+01  4.5001130463954453e+01  4.5001297181224288e+01  4.4999182391873113e+01  4.4999964131891431e+01  4.4998226219133429e+01  4.4997464213929177e+01  4.5003413750318707e+01  4.5000352012753460e+01  4.5000679173922272e+01  4.4999888964872994e+01  4.5000448359325311e+01  4.4996695370928229e+01  4.4999711954961299e+01  4.5000680513574657e+01  4.4999469639758004e+01  4.5000585723333323e+01  4.4990400716919680e+01  4.4999826765370500e+01  4.4995874525696820e+01  4.5000366809231451e+01  4.5001086649601802e+01  4.5000720305852347e+01  4.4999476910000908e+01  4.5001481952933361e+01  4.5000359007232369e+01  4.5000081241391051e+01  4.4998452038637438e+01  4.5000477590235576e+01  4.5006466629430605e+01  4.5003352962341737e+01  4.5000306881026155e+01  4.4998321635546091e+01  4.5000966050018285e+01  4.5000807553604581e+01  4.4999337640080228e+01  4.4999747963923895e+01  4.4999718568400915e+01  4.5004652426779579e+01  4.4998166447103323e+01  4.5001407064171069e+01  4.4999380017439684e+01  4.4997244053580950e+01  4.5003541561543855e+01  4.5001568320048094e+01  4.4992516169873817e+01  4.4999534437179591e+01  4.4990815974405280e+01  4.5005205246675047e+01  4.5004337332485775e+01  4.5000860582887540e+01  4.4998582797578599e+01  4.4999397125469969e+01  4.5001048246340346e+01  4.4999715387729744e+01  4.5000877044298385e+01  4.5001301104434113e+01  4.4998905916475159e+01  4.4999050931281182e+01  4.5000580819999293e+01  4.4999051692926251e+01  4.5000583673456660e+01  4.5000814779560670e+01  4.4999831900283176e+01  4.4998114355075764e+01  4.5000060213580682e+01  4.5000757651757326e+01  4.4994741006228750e+01  4.5000741117639265e+01  4.5000821255945745e+01  4.4999475000008054e+01  4.4996812646019464e+01  4.4999993344305182e+01  4.5000879640079766e+01  4.5001724233978614e+01  4.4998983815237402e+01  4.4999604257072455e+01  4.5002448072182794e+01  4.5004898095937314e+01  4.5002455201897753e+01  4.4999210008903795e+01  4.4999065543041191e+01  4.4995775627180578e+01  4.4998565603081104e+01  4.4995104751863593e+01  4.5000877975275877e+01  4.4998278823650914e+01  4.4998897006309647e+01  4.4991534653909895e+01  4.5007799302221656e+01  4.4985801606102797e+01  4.4993345492581319e+01  4.4997660346120703e+01  4.5000022241053458e+01  4.4999719794866564e+01  4.4999818700383010e+01  4.4999940474673231e+01  4.4998665715512260e+01  4.5003906240885279e+01  4.4994200900051808e+01  4.5000705994573693e+01  4.4996950863854408e+01  4.4999735078315410e+01  4.5002222218690143e+01  4.4998231539816970e+01  4.4998468691306243e+01  4.4999301258832908e+01  4.4999558727579625e+01  4.4998689103991062e+01  4.4999505279395422e+01  4.5014310487011556e+01  4.5006446678639229e+01  4.4990819781457901e+01  4.4996197330275550e+01  4.4997209412938595e+01  4.4999752029999492e+01  4.4999295371678542e+01  4.5001664531320955e+01  4.4998367678136411e+01  4.4999599726335695e+01  4.5001160597021801e+01  4.5000485173081870e+01  4.5008057442194080e+01  4.4999170138923425e+01  4.4999480148095913e+01  4.4996896618089984e+01  4.4999564377089094e+01  4.5002994905853612e+01  4.5000577754393362e+01  4.4999651053174986e+01  4.4997740226570308e+01  4.5003137483032390e+01  4.5001054790797006e+01  4.5010636283738435e+01  4.5000488740595493e+01  4.4998684512639599e+01  4.4994297562657501e+01  4.4994670266915968e+01  4.4998091804511127e+01  4.4989431391092985e+01  4.4997656921736045e+01  4.5003315554140002e+01  4.4997521943768447e+01  4.5003031997890766e+01  4.4997227578345687e+01  4.5004555902313001e+01  4.4993023735536418e+01  4.5003687853997640e+01  4.4998329475033842e+01  4.4996858451984814e+01  4.5000458784473388e+01  4.4999494917223203e+01  4.4999806270586539e+01  4.5000312199476625e+01  4.4999964225752763e+01  4.4999977690982739e+01  4.5000118637448729e+01  4.5000162318957599e+01  4.5000851253474245e+01  4.4998717661217810e+01  4.5000091855785826e+01  4.5001593410745386e+01  4.4999939120216737e+01  4.4999933698141881e+01  4.5000172830776798e+01  4.5000043441209435e+01  4.5002128533209799e+01  4.5000070068262950e+01  4.4999132680958184e+01  4.5001064477022553e+01  4.5001575484234436e+01  4.4993278162921747e+01  4.5001153192859327e+01  4.4999866569864530e+01  4.4999700131665108e+01  4.4999933337726290e+01  4.5000543015955792e+01  4.4998241828243415e+01  4.5005943896775527e+01  4.5001233929343549e+01  4.4995169188831191e+01  4.4996748583009619e+01  4.5002049282546608e+01  4.5000915893337641e+01  4.4996606298373727e+01  4.5001439665026290e+01  4.4999976071959708e+01  4.5000787489081958e+01  4.4999478514666869e+01  4.4999617713229725e+01  4.4999300360787259e+01  4.5000580435676980e+01  4.4999839938304014e+01  4.4999391583252546e+01  4.4998817506467766e+01  4.4999610132607401e+01  4.5001679859286874e+01  4.4999876585407506e+01  4.4999993914660109e+01  4.4999981275735621e+01  4.5000024848513917e+01  4.4999934074897695e+01  4.4999992529379647e+01  4.4999938272758790e+01  4.4999871662542162e+01  4.4999875664296859e+01  4.4999913311364459e+01  4.5000020052890854e+01  4.4999992237318992e+01  4.4999971446109200e+01  4.4999920156921782e+01  4.4999919967481119e+01  4.4999933619390738e+01  4.4999969608198434e+01  4.4999863501822659e+01  4.4999994333557943e+01  4.5000126919115630e+01  4.4999904588052971e+01  4.5000200073423009e+01  4.5000020324131007e+01  4.4999775052334627e+01  4.4999851155127025e+01  4.4999875958089035e+01  4.4999948321153965e+01  4.5000001682766261e+01  4.4999951987989249e+01  4.4999571777092001e+01  4.4999554386342723e+01  4.4999891117836256e+01  4.4999987241875395e+01  4.4999906543839714e+01  4.4999919230740140e+01  4.5000526198230823e+01  4.5001490454153561e+01  4.4999423021994268e+01  4.4997662262842866e+01  4.5000147191833797e+01  4.5000223560015449e+01  4.5000824075155926e+01  4.5003303978982551e+01  4.4998757717882320e+01  4.4998033929273021e+01  4.5000630688568101e+01  4.5000331347265323e+01  4.4999807783002090e+01  4.5000507098823640e+01  4.4999860210143119e+01  4.4999690432737175e+01  4.5000751672568043e+01  4.4999971792061245e+01  4.5000186785422343e+01  4.4999942820537179e+01  4.4999613620456053e+01  4.4998176426408833e+01  4.5010257362044150e+01  4.5003891220578950e+01  4.4999853860728912e+01  4.4999385700777822e+01  4.5000181404851141e+01  4.4998936041308212e+01  4.5000043598165441e+01  4.5000030197052631e+01  4.5000530009806987e+01  4.4999181758999534e+01  4.5000479428768017e+01  4.5000127089939497e+01  4.4999878938899350e+01  4.5000108724378642e+01  4.5002466708689077e+01  4.5000529651595400e+01  4.5001380953563327e+01  4.4997686135249005e+01  4.5000557879072922e+01  4.4998459884526021e+01  4.4999974718264788e+01  4.5002691623350685e+01  4.4997353533419826e+01  4.5000148285850429e+01  4.4999907514923088e+01  4.4999887772573622e+01  4.4999254433109229e+01  4.5009388865649150e+01  4.4997784754237351e+01  4.5002384000318344e+01  4.4999746877424137e+01  4.4999251069341668e+01  4.4999318689693297e+01  4.5000171513036697e+01  4.5001883294772561e+01  4.5001589101983662e+01  4.5000848513882168e+01  4.4999194422102512e+01  4.5002600603956708e+01  4.4999323855334374e+01  4.4999251600921724e+01  4.5000117902467778e+01  4.5000607359475616e+01  4.5000187363161920e+01  4.4999862429363098e+01  4.4999468080294399e+01  4.5000506404857120e+01  4.4999885910940783e+01  4.4999720190665599e+01  4.4999967171156634e+01  4.4999482577786829e+01  4.4999885685490661e+01  4.4999392761697344e+01  4.5000652815570604e+01  4.5000982114282856e+01  4.5002749396839135e+01  4.4999218616935210e+01  4.4998772887035429e+01  4.4999166719169409e+01  4.5000179185780461e+01  4.5000268602370546e+01  4.5000077737437017e+01  4.5000071566288440e+01  4.4999947089587629e+01  4.5002595735786720e+01  4.5001857146902196e+01  4.5001593028195977e+01  4.4999483112071253e+01  4.4998214409871593e+01  4.4999324646305851e+01  4.4999365369791747e+01  4.5001370521729527e+01  4.4999287828850910e+01  4.4999963263077269e+01  4.4998101996128639e+01  4.5001910520665909e+01  4.4997675008904238e+01  4.5000208014808315e+01  4.4997817717842317e+01  4.5002587648729225e+01  4.5000508244733474e+01  4.5001047448816429e+01  4.5003983381612628e+01  4.4997768617627649e+01  4.4994796980791669e+01  4.4998774883117179e+01  4.4997925999844917e+01  4.4999186850932702e+01  4.4999989802300334e+01  4.5001299817666961e+01  4.4998067601505952e+01  4.5002008255363933e+01  4.4999379390874338e+01  4.4999693692421161e+01  4.5000558563471778e+01  4.4998417873055395e+01  4.4996624204200174e+01  4.5000578353490312e+01  4.5000018311478229e+01  4.4996390490905732e+01  4.5000387144111222e+01  4.5001844835038483e+01  4.4991728782808259e+01  4.5011670950598642e+01  4.4984553321680700e+01  4.5008786025148815e+01  4.4999229650136023e+01  4.4999671794123550e+01  4.4999429947113271e+01  4.5000532954523948e+01  4.5000223595418703e+01  4.5000155649699565e+01  4.4999875050794707e+01  4.5000172905284025e+01  4.4999742499142933e+01  4.5000016139126785e+01  4.4999825737534792e+01  4.5000327581402644e+01  4.4999803545016178e+01  4.4999915523520173e+01  4.4999855216023029e+01  4.5000019286282800e+01  4.4999991259598531e+01  4.5000116201481504e+01  4.5000187566567554e+01  4.4999904169971742e+01  4.5000159836617264e+01  4.4999805079837628e+01  4.4999937424141571e+01  4.4999865943361897e+01  4.4999859503854971e+01  4.4999031824017770e+01  4.4999463791957652e+01  4.5000765503993193e+01  4.4998165168637314e+01  4.5004480895290655e+01  4.5002154977635904e+01  4.4998802433113163e+01  4.5000075119765214e+01  4.5001637920347655e+01  4.4998985534901060e+01  4.5003856506333328e+01  4.4996647264499714e+01  4.5003785991413061e+01  4.4998606313043041e+01  4.4995211056581148e+01  4.5000248885975012e+01  4.4999822207233386e+01  4.5000359723568998e+01  4.4998362038244260e+01  4.5000186573244825e+01  4.4999995799731593e+01  4.4999622212051115e+01  4.5000456594905927e+01  4.5000221682458388e+01  4.5000325655628302e+01  4.5000692444053499e+01  4.5000267954597177e+01  4.4999803030948364e+01  4.5000620596846424e+01  4.4999788744349267e+01  4.5000376737292896e+01  4.4997227302390840e+01  4.5000517797570382e+01  4.5001645180762374e+01  4.4999516803441239e+01  4.4999417725192210e+01  4.5000674068182448e+01  4.4999500713756071e+01  4.4999973639386994e+01  4.5001161852793217e+01  4.4997131857519896e+01  4.4999499147776788e+01  4.4997277417339120e+01  4.5003671538644170e+01  4.4998921986006316e+01  4.5003967517646579e+01  4.4996712029747663e+01  4.4990573713034493e+01  4.5000000000000000e+01  4.4999231388127228e+01  4.5000000000000000e+01  4.4999002872227912e+01  4.5000057054002433e+01  4.4999795319317350e+01  4.4999940168467390e+01  4.4999817582244091e+01  4.5000000000000000e+01  4.5000009349195480e+01  4.5000000000000000e+01  4.5000000000000000e+01  4.5000000000000000e+01  4.4999078312448333e+01  4.5000000000000000e+01  4.5000000000000000e+01  4.4998815410439057e+01  4.5000000000000000e+01  4.5000000000000000e+01  4.5000000000000000e+01  4.5000274678027296e+01  4.5000000000000000e+01  4.5000000000000000e+01  4.4999179054597114e+01  4.4999589768856133e+01  4.4999947054654541e+01  4.4999917709805558e+01  4.4999789055875411e+01  4.5000135078308034e+01  4.5000000000000000e+01  4.5000000000000000e+01  4.4999942279255350e+01  4.5000154206467997e+01  4.4999857636137357e+01  4.4999817343681045e+01  4.5005379543973284e+01  4.4998437009362732e+01  4.5003976133619283e+01  4.5000214287090117e+01  4.5000002216309063e+01  4.5000294332096068e+01  4.5000447159790880e+01  4.4999614516668288e+01  4.5000100955732364e+01  4.5000079712741588e+01  4.5000598620775044e+01  4.5000075829008779e+01  4.5000832463610948e+01  4.4999996630276669e+01  4.4999759773764197e+01  4.5000068312403215e+01  4.5000507714098255e+01  4.4999561505824566e+01  4.5000215399915326e+01  4.4999934648254509e+01  4.5000216492896982e+01  4.4999877832601484e+01  4.4999460505778025e+01  4.4998339985884435e+01  4.5006242968930529e+01  4.5005529365748650e+01  4.5001003172101690e+01  4.5000503741341603e+01  4.4998585448027249e+01  4.4998416982942437e+01  4.5001607406656291e+01  4.5001659626871309e+01  4.5000577772774129e+01  4.4998821775769990e+01  4.4999943485199047e+01  4.5000286498310629e+01  4.5001237518716025e+01  4.5001761552884680e+01  4.4999213663905763e+01  4.4999954248654582e+01  4.4999899913093202e+01  4.4998288273374932e+01  4.5000000000000000e+01  4.5000736050445767e+01  4.4999307209574233e+01  4.4998864755746673e+01  4.4999946972815579e+01  4.5000172035023311e+01  4.5000078533158131e+01  4.4999955421856711e+01  4.4999902350326387e+01  4.4999898705930256e+01  4.5000403858195810e+01  4.4999631702821070e+01  4.5000244896743837e+01  4.5000041317009988e+01  4.4999631505850076e+01  4.5000167674257028e+01  4.4999930848146633e+01  4.4999918238814132e+01  4.4999859358819947e+01  4.5000148894717825e+01  4.4999926810866548e+01  4.4999932303070366e+01  4.5000029734449924e+01  4.4999080553182353e+01  4.4999963101535343e+01  4.4999926685805605e+01  4.4999782226632540e+01  4.4999871926626184e+01  4.5001093973598557e+01  4.4999606910513279e+01  4.5003626533591174e+01  4.4999855643899487e+01  4.5000580159056248e+01  4.4999756886139821e+01  4.4999385058023968e+01  4.4983919063942423e+01  4.5003868828692525e+01  4.5000033202400459e+01  4.5000043337117312e+01  4.4999970397846383e+01  4.5000026905274204e+01  4.5000065151816038e+01  4.5000034630982206e+01  4.5000178514300138e+01  4.4999977390715138e+01  4.4999813639597726e+01  4.5000055295811627e+01  4.5000072823126359e+01  4.5000034579614649e+01  4.5000043609607097e+01  4.5000025806907018e+01  4.5000043538942855e+01  4.4999979667099907e+01  4.4999941071326226e+01  4.5000071632217953e+01  4.4999968479988439e+01  4.5000042167553033e+01  4.5000046730143090e+01  4.4999981425576763e+01  4.5000057310130153e+01  4.4999911606210397e+01  4.5000138427814917e+01  4.5000092483137550e+01  4.4999940145549630e+01  4.5000383821530022e+01  4.5003964795600055e+01  4.5000235968932543e+01  4.5000217515545941e+01  4.5000456764570572e+01  4.5001127175561450e+01  4.5000916210506944e+01  4.4999822484682717e+01  4.5001013209851664e+01  4.4999968935689935e+01  4.5000153254892744e+01  4.5000727498158284e+01  4.4999267329682780e+01  4.4999675697070963e+01  4.4999813928024174e+01  4.4999927951481034e+01  4.5002663434811573e+01  4.4999499937745703e+01  4.5001847519216156e+01  4.4999161162568740e+01  4.5000657931169407e+01  4.5000180577599565e+01  4.4999519519952621e+01  4.4999380468656085e+01  4.4999523157343020e+01  4.4999568484331725e+01  4.4999805115463857e+01  4.4999851073613215e+01  4.5000018306126343e+01  4.5000863224064716e+01  4.4999981121495949e+01  4.4999987222301641e+01  4.5000022142228332e+01  4.4999929621184705e+01  4.5000814226458836e+01  4.4999802860172494e+01  4.4999877710530363e+01  4.4999897629076131e+01  4.4999751429559396e+01  4.4999752379483127e+01  4.5000008099811737e+01  4.4999953834513569e+01  4.4999818750035317e+01  4.4999914762316777e+01  4.4999936560786338e+01  4.4999716623726016e+01  4.4999788349999669e+01  4.4999969643985622e+01  4.5000293784996984e+01  4.500046031477380