<?xml version="1.0"?>
<VTKFile type="UnstructuredGrid"  version="0.1"  >
<UnstructuredGrid>
<Piece  NumberOfPoints="655" NumberOfCells="2221">
<Points>
<DataArray  type="Float64"  NumberOfComponents="3"  format="ascii">31.31392399354751 5.370051060948815 13.92144484527223  30.14500777071176 5.385095346664645 16.52108386735743  31.30551338810937 3.497919517932927 16.17317850628635  32.32424647429752 5.891158506403991 15.71173902672302  21.81671 11.211244 14.824056  22.936161 12.164712 14.380956  23.181126 10.926866 15.076006  23.17435826175766 11.06619040507711 13.39639557629791  23.08029919302011 8.851834776029254 14.48241704233135  21.62580670348767 10.11792219249332 13.54447171308322  30.52501634551106 9.300981218256927 18.19156910364351  28.886112 10.600979 19.106813  30.27834014244917 10.923794256542 17.5321441608837  28.75354646183022 9.593903365274535 17.02333060000726  36.57758226395166 9.372131664999268 11.11998831463894  38.59035122513054 7.85110429963694 11.12933208986667  37.27836385543984 8.427196610590263 9.960908367004926  38.62084255912791 9.600852303774248 10.67132321659795  27.823887 7.225966 16.799591  26.509388 6.733491 16.880165  27.688261 6.047368 17.039831  27.69665119613392 7.006973644800686 18.23865862353044  20.449337 11.165722 14.040042  20.684761 11.143955 12.476002  21.442913 12.527428 14.07056  24.91920416848686 10.81313430405584 11.59479699534994  26.063704 10.322753 9.501659  25.28210283526597 8.871352822646489 10.62860355186257  24.20034123096929 11.08050780969391 10.25791138268063  20.14632 1.417538 16.398058  21.563847 1.274047 16.475145  21.10154800269757 3.304820249120732 15.71656266714377  21.36802341077921 2.761692078790119 17.34451091965136  33.32228150208384 8.857902833208124 16.94437947391137  33.12809158699898 10.61267319290463 19.2508073444275  33.93600494179065 7.980855802996144 19.82655945431772  35.14350187958795 10.1237867007591 19.0859482054303  29.4396 9.550471 13.215157  28.907068 10.505606 13.179383  28.0062724750763 9.436803802493726 13.05054022112304  28.68831230475 9.607189079791368 14.38665337715866  36.327717 10.102358 20.19528  37.253044 9.052194999999999 19.219507  35.89476415285398 8.232259854650176 19.09614560694681  35.648342 12.122204 18.201172  36.14079256621203 9.900268293919675 17.79703404302705  35.773781 11.441383 19.265192  27.31666724112722 9.103187521217436 18.3611459043992  29.151602591431 7.841878047286384 17.29569422957857  24.28077168563594 2.564697732426421 22.96016400750684  25.859442 4.479366 22.256742  25.3784364547228 1.973702945363697 21.59051210458852  24.94205639185635 4.317296471411528 21.24113309824257  22.433735 2.192615 15.670708  22.53464238030225 4.028910368198624 17.72750398751279  23.925081 2.944424 16.912939  23.099922 3.774462 15.474267  21.67882915363332 3.4409097273366 19.54719762209974  22.03663154072899 2.04944053016664 18.45710314244266  22.40279677083951 7.085333707839973 17.8523181460271  21.14790622373773 5.658094308426587 18.87020719565848  20.76425835847693 5.317885679614571 16.04477776296784  22.78470960790574 5.377866607485695 16.56812650784422  35.387215 1.690005 20.197649  34.721458 2.78978 20.607763  34.16024323081374 3.142668806262301 19.03803930494172  33.69816411114873 1.887611425642358 19.76799761039265  30.861441 8.207053999999999 11.160952  30.719357 7.467805 10.10896  32.006432 6.991808 11.046397  31.06615568585304 6.962969925151841 12.02556469889314  33.285652 -0.01335700000000001 15.307424  33.13671711827426 1.757974100449609 15.981062958538  33.924545 1.289379 13.892946  32.18005861029752 1.225585561533016 14.98153278120363  25.312609 3.999865 17.068291  26.733423 4.885454 16.968513  26.34337086016807 5.359257242343681 18.45848687468995  26.65094556251888 3.038867329475486 18.15236328428396  20.118837 7.086507 12.401903  21.3338646021924 6.425149307700539 13.73688047451719  21.94308910419287 7.208987701849465 12.17960903327517  20.85632101822024 8.265486571858334 13.64869845461472  36.734386 0.664435 17.000975  36.166256 0.763164 16.1175  35.542912 -0.01335700000000001 16.647608  36.21412762465548 1.336119059012096 17.22281733842196  38.815998 9.566703 8.252136  38.61697446485172 8.515737283415563 9.819575183881602  37.55922298128556 10.23343087778711 9.79328483576861  37.69494326502508 9.573856933320572 8.598216312654996  23.178837 9.108328 16.970816  24.302628 9.261188000000001 17.410379  24.23863799354614 7.357542248176745 16.89889007848264  24.34786202410493 8.592690553801589 15.8420870975027  32.87566194398603 6.440241916117235 17.98843294743188  35.43615977314406 7.297413907556042 17.12256579439988  34.90697329047502 6.297776570868377 18.76139701071323  29.028032 11.390832 14.201345  28.003204 12.146575 13.367476  26.87303710820998 10.88413753811409 14.4536299895986  30.812319 12.39261 16.682713  30.433645 11.486131 14.885845  29.53088046176575 10.45430075352786 15.46981302964418  36.28981119225745 7.7961968066774 12.57633063315916  38.35755820632652 9.082597788818591 12.53144431618168  33.6064482280206 4.27623586195804 12.76248642573921  34.060978 3.824092 13.477976  33.70607091859011 4.68261673299255 13.58706836419869  33.18121523522437 3.757482323504535 13.62422828497213  32.08315406674546 6.969014000329196 13.14554317945436  31.19956085438279 5.534925601087664 11.54795183392781  32.99451035645485 6.092050435675348 12.12074732456102  38.95195 10.662038 13.966292  38.292603 9.278586000000001 14.684197  38.149288 11.028185 15.490355  37.46537310487492 10.07142073773421 13.6306757274376  37.846889 10.109624 17.835796  36.85915 12.090572 17.264286  38.49184 10.98822 16.923073  36.59047758572004 11.21305507350777 16.24869916200015  24.757528 9.430399 18.524368  25.537321 10.554787 17.282837  25.86011719439936 8.41186644043953 17.33966662222625  24.4790948189595 3.683268625209525 18.70497809232079  23.22726060069639 1.977871855119085 18.91291391008665  23.316109 0.849531 22.15468  23.51137241322994 2.880101117821482 20.87223383595384  31.82784935179606 8.694924865075818 19.01804632389348  35.951279 6.609458 19.783981  24.47357076770903 4.45396730521469 23.12251026726088  24.066252 13.173302 9.107924000000001  23.10207675311761 13.97065235471449 10.95289502630386  22.3105529992216 11.83880805892438 10.13531144505095  24.6808045589112 12.60641599301379 10.86781945620977  22.591206 6.882457 10.306619  22.725136 6.441765 11.431832  24.037994 7.116853 10.615119  22.86664854984575 8.066102927321321 10.88176070743918  28.20553468038491 2.645943561042436 17.21885597521874  28.02117 3.344675 18.942553  27.86416101807226 4.320903665811782 17.63201349659855  24.073502 5.829741 15.851364  24.03363 6.85431 14.737873  24.977922 6.9707 15.989449  39.381535 4.844565 13.992858  39.95923699999999 5.595038 13.244763  39.288441 4.153998 12.738214  38.40718729247392 5.983692608383204 12.75159210068179  37.766106 7.529643 15.054073  38.534317 8.085724000000001 14.267514  38.89246 6.565812 14.188453  22.78316930568153 4.624447230597121 22.37619631001856  22.77487746820396 6.168227636504969 20.35582613890765  24.75390989630648 6.069662195717622 21.96427130743814  30.274652 6.187439 18.422001  30.833214 4.847325 18.318628  31.12238218620339 7.42424074748144 16.99757493554089  31.20594 7.204595 19.750298  34.16263242666541 7.03650493785439 15.14752698127628  34.74351256851129 5.331617453797089 16.19506350074932  24.67121133310294 7.552619862085008 18.84998131579135  24.56888 9.318452000000001 19.888395  24.42555728364329 7.924703931399338 20.9257239943911  26.0240660483714 8.833281431557097 20.22034309841773  20.016367 9.766667999999999 13.040743  20.360241 8.459818 12.150245  20.800371 9.863859 11.67307  21.74880147919727 13.03782109483492 12.40333712932949  20.393381 14.708741 12.698272  21.42123464615937 14.48977455321212 11.06109435974706  20.83612097146757 13.30548385874959 10.79089213277073  30.443815 3.840267 18.212605  31.661118 3.670487 19.373205  30.429928 2.669286 18.590878  32.03129527583151 3.604944231357318 17.5602872904941  28.563173 5.807103 18.582928  28.93315261939825 5.933509159559444 17.39665835042514  24.924725 8.068334999999999 14.612294  25.879112 8.877039999999999 14.979661  24.7961987104767 9.976463972612002 14.27281144495721  34.24205 -0.01335700000000001 16.310421  34.848 1.034203 15.399918  25.673498 10.163596 19.171387  36.27438 5.856181 17.44977  36.603264 6.88014 18.492367  35.396206 5.705095 20.065811  33.8009093861905 4.992861092399875 19.46394889471827  33.71407342800229 6.255736374091215 20.30968474184848  34.551323 12.153619 19.022036  33.6446 12.397755 20.146729  33.298996 12.653248 18.742809  24.135799 10.140332 16.002005  25.62928660658151 9.646256044955061 15.9826482960773  33.25805932682426 4.808533205125584 17.80031607833712  34.90712002283411 5.043478987895973 17.97267700361439  30.308556 0.63522 18.327953  31.375715 1.542598 19.11385  30.13450109959582 1.781195734761269 16.72805544910381  29.185642 4.323772 18.12468  27.697443 4.553406 19.109724  26.132885 3.771261 23.150356  26.326265 3.748574 21.481291  26.635754 10.800408 19.825016  27.5994556503979 10.77932190871546 17.9738994334235  26.409721 11.041096 18.457232  27.566368 11.348647 18.793251  27.938736 1.325439 15.404446  27.237934 0.740746 16.637749  28.08431381409496 1.380234698502957 17.97192680739122  25.593794 7.161047 11.430346  26.52678908660804 9.630516262572561 12.203420788931  25.467127 7.840042 12.931916  25.75414058229087 1.559903469441207 19.58597660956983  37.17318 8.373889999999999 17.719465  31.21163 9.944516 13.959174  30.24198796991607 9.063522666207369 14.35999971601161  29.838474 10.034221 13.883567  24.11469124034784 5.46665478554641 18.00920530622165  24.117748 4.554443 16.543989  24.196436 11.665897 14.855594  24.060129 12.857358 14.190489  25.63169753637458 12.05829836455069 12.90941681285461  36.324089 3.351004 18.204479  34.51204140633231 3.428178133252822 16.8882567691128  24.190546 7.12033 12.020358  24.24678473062414 8.706566994527986 12.46840892775545  22.37725163105704 8.696208432325264 
[...]
<PointData  Scalars="p"> 
<DataArray  type="Float64"  Name="p"  format="ascii">8.3819713304695629e+00  8.4148589201557087e+00  8.3970510456203371e+00  8.3702473093620835e+00  8.6128204115966565e+00  8.5902062274520699e+00  8.5838806890030597e+00  8.5838858028521443e+00  8.5918088211670103e+00  8.6122783964902148e+00  8.4094499707049390e+00  8.4515269540430182e+00  8.4091396891669365e+00  8.4513606720474534e+00  8.1735339567011120e+00  8.1127451531860260e+00  8.1634052475595027e+00  8.0870728557980680e+00  8.4760182236053154e+00  8.5240578674571115e+00  8.4819944492819506e+00  8.4941166466222047e+00  8.6360837348453998e+00  8.6120722929462836e+00  8.6209731736917945e+00  8.5518159361358048e+00  8.5260244067744928e+00  8.5259120889748488e+00  8.5674240260764112e+00  8.6349515253406537e+00  8.6268037474645087e+00  8.6342901566451467e+00  8.6273796313891271e+00  8.3470762399560812e+00  8.3696221766081909e+00  8.3659329424524866e+00  8.3424016732664956e+00  8.4410104310653900e+00  8.4690607799190829e+00  8.4736944361973290e+00  8.4533404906183609e+00  8.3468228301688185e+00  8.3324909228524948e+00  8.3423317065556102e+00  8.3138797204613919e+00  8.3120966238183094e+00  8.3350531243856096e+00  8.4954467385545573e+00  8.4428137653816204e+00  8.5914740794129294e+00  8.5795194548275688e+00  8.5746495086269103e+00  8.5803561470565910e+00  8.6252735827015155e+00  8.6134959297659961e+00  8.5922777641653365e+00  8.6195008359109551e+00  8.6245831414349734e+00  8.6126668362307051e+00  8.6188373239685561e+00  8.6451498164814353e+00  8.6447349275702727e+00  8.6133619225472060e+00  8.3737842469223160e+00  8.3742991804939777e+00  8.3735082140210579e+00  8.3782527572142254e+00  8.4066970291103509e+00  8.4016361007742333e+00  8.3657528032093573e+00  8.3862722578935287e+00  8.3835564108035179e+00  8.3807504542646090e+00  8.3749140346455562e+00  8.3886202264240062e+00  8.5541689332634601e+00  8.5103785643210337e+00  8.5343482891166609e+00  8.5204558235821555e+00  8.6274470359975464e+00  8.6260973340906535e+00  8.5981472185662220e+00  8.6303044696011710e+00  8.3672375361902240e+00  8.3660107629304417e+00  8.3707658118225989e+00  8.3666388443302537e+00  8.1083685846217968e+00  8.1075518857903468e+00  8.1241269595959889e+00  8.1394234723744088e+00  8.5951479713440833e+00  8.5599053386977246e+00  8.5773190400002584e+00  8.5679881270812324e+00  8.3710615615119135e+00  8.3262497033863028e+00  8.3553814526326065e+00  8.4616284506875061e+00  8.5038974087027981e+00  8.5045952600990145e+00  8.3755809688356830e+00  8.3849042874285242e+00  8.4292200338802008e+00  8.2231398757719418e+00  8.1321902530449997e+00  8.3416126770350036e+00  8.3444261498107863e+00  8.3386805263745476e+00  8.3586276505458503e+00  8.3602132847476369e+00  8.3791120073339105e+00  8.3371079687831156e+00  8.1495045050254351e+00  8.2036785383752111e+00  8.2299098603850869e+00  8.1850929289305174e+00  8.2934499480299539e+00  8.2799250054300249e+00  8.2741873323680117e+00  8.2662867256179862e+00  8.5460508925916177e+00  8.5158050135699508e+00  8.5306999866333157e+00  8.5752597302842517e+00  8.5929189209922416e+00  8.5876900446868980e+00  8.5939127867189082e+00  8.3867709759124711e+00  8.3540392670301049e+00  8.5926275845942044e+00  8.6003698932921147e+00  8.6096638349170060e+00  8.5991044135417667e+00  8.5756555708679496e+00  8.5583692917818315e+00  8.5840109013552937e+00  8.5481758530103757e+00  8.5672945939720861e+00  8.4667969414737918e+00  8.5015731199858990e+00  8.4828058277752696e+00  8.5965785576281029e+00  8.5930841055580256e+00  8.5700699489514029e+00  8.1819155267646781e+00  8.0000000000000000e+00  8.1833540643758180e+00  8.1619635650649389e+00  8.2355467172275638e+00  8.1863647705766400e+00  8.1704823377039908e+00  8.6150552870886337e+00  8.6130618570914752e+00  8.5820268866819855e+00  8.4146534949095990e+00  8.4020441019260979e+00  8.3952097161285746e+00  8.3891347391464457e+00  8.3225551802091164e+00  8.3374427487596883e+00  8.5660483848419240e+00  8.5566040789905191e+00  8.5739986533017838e+00  8.5354726293094512e+00  8.6353928782056126e+00  8.6148087795031927e+00  8.5997656283710295e+00  8.6183416611025478e+00  8.6512476033864232e+00  8.6313354970264466e+00  8.6291845485179124e+00  8.4124760626910042e+00  8.3865964095941870e+00  8.4154462900675657e+00  8.3892201055040356e+00  8.4770249279330461e+00  8.4494133179965711e+00  8.5619076666767331e+00  8.5291307633467408e+00  8.5499720085599620e+00  8.3770836074799426e+00  8.3714973087487383e+00  8.5214593830365253e+00  8.3348214911953580e+00  8.3385040749783066e+00  8.3632667357449328e+00  8.3710682337951603e+00  8.3723011626876840e+00  8.3463966039909891e+00  8.3808110592446887e+00  8.3639005524175722e+00  8.5601755798808927e+00  8.5283630979845331e+00  8.3712274186804390e+00  8.3564997809042278e+00  8.4264880534911502e+00  8.3988978833621850e+00  8.4219605576820893e+00  8.4501839604153908e+00  8.5138350417570283e+00  8.5826358467103887e+00  8.5701841778762482e+00  8.5089616073705123e+00  8.4788465367811803e+00  8.4975903626759717e+00  8.4810377684608493e+00  8.4393176932937930e+00  8.4767197933447473e+00  8.4806556835457858e+00  8.5087922068948636e+00  8.5094973629177293e+00  8.5301610974791835e+00  8.5526365700018285e+00  8.3147151462574822e+00  8.3692998656194018e+00  8.4075415101722708e+00  8.4262886363281222e+00  8.5839188524925198e+00  8.5933313030613299e+00  8.5586787937843294e+00  8.5712741201340741e+00  8.5449786755732422e+00  8.3646087275604000e+00  8.3630164207585249e+00  8.5602355267889418e+00  8.5572035013361791e+00  8.5880726600948449e+00  8.4254315758751286e+00  8.4491990066610576e+00  8.4239949400472156e+00  8.4305841694583386e+00  8.4574070972633901e+00  8.4318387659445087e+00  8.4827101160786018e+00  8.4547855886551542e+00  8.5033895353290738e+00  8.5296752364667743e+00  8.4187816280422307e+00  8.4067137375896266e+00  8.4075144191148041e+00  8.2994130968768616e+00  8.3372886459423388e+00  8.3445269493930905e+00  8.3771690297184271e+00  8.3726708059696495e+00  8.3593514204073660e+00  8.5078667121685054e+00  8.4953315909371145e+00  8.5404839417899474e+00  8.5544699838858556e+00  8.5577606960949559e+00  8.3514873991887288e+00  8.3641862270557450e+00  8.3523574902101956e+00  8.6923028899191195e+00  8.6509638886796978e+00  8.6612216820728918e+00  8.6582694286748261e+00  8.5706125626029817e+00  8.6079172658563774e+00  8.5971297610907218e+00  8.5897492329282166e+00  8.4674631895921291e+00  8.5084571839948229e+00  8.4806386400234643e+00  8.2818854427600694e+00  8.3551030362658008e+00  8.2959168151473595e+00  8.3130481645244583e+00  8.5612443037811872e+00  8.5401901072131885e+00  8.5630915702610473e+00  8.4509098193027921e+00  8.2612028130349948e+00  8.2567660739736350e+00  8.3701248303260343e+00  8.4875481828534038e+00  8.5148275096875157e+00  8.4593996146691595e+00  8.4376535104992580e+00  8.4267617005180320e+00  8.6479774818086987e+00  8.6427230807062667e+00  8.4794280106892135e+00  8.4997155118817531e+00  8.5506790133450021e+00  8.3457635040139699e+00  8.3009839203137403e+00  8.3334064710470557e+00  8.4407109630285859e+00  8.5351248099027952e+00  8.5606872381456274e+00  8.4997265527305714e+00  8.4846302426009501e+00  8.6816070975999740e+00  8.6686000776845535e+00  8.6565368240575520e+00  8.5762572751468582e+00  8.4857554034396845e+00  8.5633063325126422e+00  8.5648988090638891e+00  8.5890444569687840e+00  8.5838701282344125e+00  8.5288694316057647e+00  8.4595552413453543e+00  8.4769294624216585e+00  8.4937394394880315e+00  8.4631714756253178e+00  8.3421241009223284e+00  8.3606110423760711e+00  8.1387322623066503e+00  8.1558281002030295e+00  8.3836918102006024e+00  8.5283688740938288e+00  8.4126001447205816e+00  8.6472894768015998e+00  8.3909088084233030e+00  8.4635767995094575e+00  8.4982148795495025e+00  8.6169223635719856e+00  8.5307777413873431e+00  8.5306507976880095e+00  8.2456250327425273e+00  8.3681087958364593e+00  8.3744018401401981e+00  8.5356911237404489e+00  8.4667829345440069e+00  8.4315461898019493e+00  8.4306140204458195e+00  8.5979354184700210e+00  8.6247931680332002e+00  8.6055818752713833e+00  8.2982429683376715e+00  8.2481433452044204e+00  8.2408466745037590e+00  8.1939839626056816e+00  8.2279045152454504e+00  8.6656832165614315e+00  8.6386121980585209e+00  8.6028637239202812e+00  8.6276082651144588e+00  8.5866749545236889e+00  8.5607738409740683e+00  8.2686776730062839e+00  8.3225008297995853e+00  8.2966868837001613e+00  8.2734499721771364e+00  8.6120594405029021e+00  8.4598295990824894e+00  8.4288298062609375e+00  8.3916483933547994e+00  8.3717312167156130e+00  8.5921810680168704e+00  8.5996938265607046e+00  8.6107690875708212e+00  8.5911224308464273e+00  8.4339000508227926e+00  8.4562977838692017e+00  8.5677868266942667e+00  8.5624090863014093e+00  8.2831835605062842e+00  8.6727564058958144e+00  8.6295926096553828e+00  8.6571549907200449e+00  8.5631700233225274e+00  8.6112229418037565e+00  8.6140717352035772e+00  8.3871927897770959e+00  8.3767899540273429e+00  8.3813080908207276e+00  8.3831908265313775e+00  8.5348388789316729e+00  8.5278258311520343e+00  8.5365520019814642e+00  8.4985825840228966e+00  8.3574470651108292e+00  8.4494425077835906e+00  8.4440220908904742e+00  8.3818981883628734e+00  8.3779567674694899e+00  8.3797131240853009e+00  8.3777264815668104e+00  8.4699125753726108e+00  8.4912156184853540e+00  8.5226541028150411e+00  8.4472734012405066e+00  8.5764749136721559e+00  8.6935737603626162e+00  8.6794980011714369e+00  8.6914794775969035e+00  8.6222069577199818e+00  8.3259263686002924e+00  8.3325937435225121e+00  8.3584982802244223e+00  8.3091345716852132e+00  8.1751175296139351e+00  8.1010975754304759e+00  8.1828846496637180e+00  8.3241214043226570e+00  8.3986365081624879e+00  8.6326302964548915e+00  8.6367873791471137e+00  8.6332466535553500e+00  8.2972784527459229e+00  8.3310817235370234e+00  8.2507579124714319e+00  8.3592248910397160e+00  8.5043334861717597e+00  8.6662888864658072e+00  8.0000000000000000e+00  8.0000000000000000e+00  8.0000000000000000e+00  8.3713163757329294e+00  8.4210025460507243e+00  8.4376801013494287e+00  8.4156796464729631e+00  8.3998846191867926e+00  8.1371991258370677e+00  8.1215725014509221e+00  7.9999999999999991e+00  8.4311247782759775e+00  8.4596150151769862e+00  8.2274280239350244e+00  8.2904311201857954e+00  8.5053357544287849e+00  8.4104345950914379e+00  8.1834289312629860e+00  8.3838740488658434e+00  8.3647065816199451e+00  8.3501960116178413e+00  8.3591048866959472e+00  8.3703541154419518e+00  8.6782932598692764e+00  8.6645592250663164e+00  8.6992979834484867e+00  8.6879236356946574e+00  8.6316511359668500e+00  8.6152601079492293e+00  8.5917882658931148e+00  8.3749524826703148e+00  8.2267028023898519e+00  8.5528891932300581e+00  8.6413950184424451e+00  8.6521588746629146e+00  8.5879934419239135e+00  8.5768489670899211e+00  8.6577316459781457e+00  8.6334621513481391e+00  8.3930937326773574e+00  8.3627681894127708e+00  8.4692387276662942e+00  8.6369612686608548e+00  8.6243130133664394e+00  8.4841120476230376e+00  8.4125418333320230e+00  8.4327398072645554e+00  8.2220913038777592e+00  8.2632557086091474e+00  8.2646639572600922e+00  8.2437609890536070e+00  8.2250507645860971e+00  8.2235510689950093e+00  8.2227374809448630e+00  8.6400249398865760e+00  8.6715468066385384e+00  8.3666597045406910e+00  8.2728149439809719e+00  8.2621613452827223e+00  8.3075155342213396e+00  8.4433609694452105e+00  8.4387113658611970e+00  8.5743658586918770e+00  8.3028500987916178e+00  8.5626188917248633e+00  8.6792862914044786e+00  8.7079583299167744e+00  8.6710833541404639e+00  8.3204428222786060e+00  8.6298581143248239e+00  8.3704780576072029e+00  8.3687937482164525e+00  8.4170416130181351e+00  8.4004662085300836e+00  8.5532990869291829e+00  8.2877615766140682e+00  8.6006557783834818e+00  8.6284121495313553e+00  8.4065192850896597e+00  8.3238430560153311e+00  8.2671525457768631e+00  8.2199126734681194e+00  8.2508108069098309e+00  8.2185134234351906e+00  8.5706536797673039e+00  8.5308824247181203e+00  8.5358562448592519e+00  8.4692586027265211e+00  8.3646473365372316e+00  8.3774007762292086e+00  8.3715809866143758e+00  8.3707619589829978e+00  8.3110869755114845e+00  8.5338483340621405e+00  8.4371784620623984e+00  8.3126681360268666e+00  8.3842812747934978e+00  8.2878302996424313e+00  8.4115878438826712e+00  8.3854912555375787e+00  8.4321215449540770e+00  8.4037033931605016e+00  8.2338655472419831e+00  8.2054920975338899e+00  8.6238341098425746e+00  8.3688175588691003e+00  8.6053062588761815e+00  8.6187770583182957e+00  8.5908341014349627e+00  8.3946116687256023e+00  8.7116138484407841e+00  8.6367185067390011e+00  8.2202365995154985e+00  8.2499397431351920e+00  8.5704647260753219e+00  8.5843397694881407e+00  8.2568597618799959e+00  8.7061265900680667e+00  8.6085866970486702e+00  8.6258357974092146e+00  8.5843488873003455e+00  8.5788691394894592e+00  8.5236064123960578e+00  8.4792996183069853e+00  8.3777751210485807e+00  8.3286094516697702e+00  8.1388924820460016e+00  8.0963410975449861e+00  8.1454939969271773e+00  8.0999387257460835e+00  8.1304673147542257e+00  7.9999999999999991e+00  8.6230645447427268e+00  8.3966063121531640e+00  8.4514697315281460e+00  8.6225747806880388e+00  8.3545425247925156e+00  8.2256082214983088e+00  8.3751189949038825e+00  8.3765888374017923e+00  8.3586248987367231e+00  8.2783275028560013e+00  8.2785069352665293e+00  8.2807301311706745e+00  8.2783720807378707e+00  8.3673327953033567e+00  8.3662073068024370e+00  8.7334538126654131e+00  8.4279356467382396e+00  8.6638884091598669e+00  8.2328656428284006e+00  8.5888633832807226e+00  8.3481812589982098e+00  8.4811880160232711e+00  8.5545701553309641e+00  8.3789581788046430e+00  8.3573688810792106e+00  8.6731188933231298e+00  8.6582261631804851e+00  8.4399307979343874e+00  8.5404344523769602e+00  8.5979600206563074e+00  8.6111935055582602e+00  8.5618721596476473e+00  8.5860346447206375e+00  8.5894138802627200e+00  8.6312684281583856e+00  8.3986910566615496e+00  8.4064851535336658e+00  8.2687927430271966e+00  8.3730929834444190e+00  8.4915274480134766e+00  8.5014490285051316e+00  8.2939691343823334e+00  8.5852924452858304e+00  8.6107461771157023e+00  8.6030311526483541e+00  8.1807066013011571e+00  8.6079313086399551e+00  8.5331496509089000e+00  8.6371091166029377e+00  8.2743785897001416e+00  7.9999999999999982e+00  8.1798415137809002e+00  8.1496342704628617e+00  8.1851990689238736e+00  7.9999999999999991e+00  8.1099320404167923e+00  8.7419758652863280e+00  8.3702049849457474e+00  8.3945982453363044e+00  8.3632492429510492e+00  8.3630216713343266e+00  8.0000000000000000e+00  8.4130398547498011e+00  8.1936960238156704e+00  8.3795301550543915e+00  8.6445791250067803e+00  8.3926925685730023e+00  8.3968428735366452e+00  8.5456982861651287e+00  8.5795157003905391e+00  8.4404936166915885e+00  8.4842460781246984e+00  8.5187323234791403e+00  8.6907102850875528e+00  8.6422327529010907e+00  8.3913441405245646e+00  8.2882679141367870e+00  8.4963487375334061e+00  8.1926101875244228e+00  8.3728444967178799e+00  8.1484086605297232e+00  8.5814037489078672e+00  8.6381114550948670e+00  8.5616829806135737e+00  8.6492795700817684e+00  8.6898160937279822e+00  8.6995374377382628e+00  8.3439685040628859e+00  8.5582464855989855e+00  8.6413508611232324e+00  8.7027655222174296e+00  8.6932106471066710e+00  8.3389755465972151e+00  8.3958592326645345e+00  8.2789396033302189e+00  8.5502108449251573e+00  8.5495056986582547e+00  8.4156567042494999e+00  8.7106451431366256e+00  8.6435293958094448e+00  8.3416982847262968e+00  8.2897157522368143e+00  8.2608078681719963e+00  8.7386691543563888e+00  8.7401144917141114e+00  8.2414413719515291e+00  8.2388128470595134e+00  8.2302975452149507e+00  8.2537333985535337e+00  8.3414010051161700e+00  8.2554956824501460e+00  8.2212684486392593e+00  8.2441994418824347e+00  </DataArray> 
</PointData> 
</Piece>
</UnstructuredGrid>
</VTKFile>