<?xml version="1.0"?>
<VTKFile type="UnstructuredGrid"  version="0.1"  >
<UnstructuredGrid>
<Piece  NumberOfPoints="4422" NumberOfCells="19763">
<Points>
<DataArray  type="Float64"  NumberOfComponents="3"  format="ascii">16.5394955584 35.1418264865 4.1179790523  17.5587952012 35.15789681845 3.9551957059  17.09830786215 34.6585538763 3.9792226858  17.0914806441 35.22381158825 4.382738874799999  16.99998289745 35.64116942865 4.0939520724  17.6434657298 35.30579669 4.6474986973  17.65029294785 34.74053897805 4.2439825083  17.55196798315 35.7231545304 4.3587118949  17.4604702365 36.1405123708 4.0699250925  17.6571201659 34.1752812661 3.8404663193  26.1297896295 26.3785423893 2.4529972339  26.41851612395 26.16261971145 0.8969483787500001  25.93777167685 26.6758667806 0.8969483787500001  25.69526960425 26.0785408125 0.8969483787500001  25.7457537242 26.9731911719 -0.6591004764  19.2691862896 31.5216880885 2.2483112603  19.93484217695 30.72152946975 3.1608311264  19.855927566 30.60804121595 2.7948948825  19.467563389 31.16574255395 3.33347085075  19.73646507755 31.0774750043 2.07567153595  20.2037438655 30.6332619201 1.9030318116  20.32320635395 30.16382813175 2.62225515815  19.6659404884 30.8097970194 4.4186304412  20.0543046654 30.2520956814 3.88005447295  20.4426688424 29.6943943434 3.3414785047  22.4652994496 29.3914099923 5.8539817566  23.19359083235 30.32954101705 5.62174455035  23.36467123255 29.66359563075 5.72443254805  23.1328646634 29.72591319365 5.066346547649999  23.8004298772 30.060416395 4.2787113387  23.86115604615 30.6640442184 4.8341093414  24.03223644635 29.9980988321 4.9367973391  24.2640430155 29.9357812692 5.5948833395  24.0929626153 30.6017266555 5.4921953418  23.9218822151 31.2676720418 5.3895073441  16.0536295173 35.1837784693 -0.6591004764  16.49953755805 35.3536939607 0.7277923226  17.1117852793 34.9833827286 0.15689059605  16.57734736215 35.43611992185 -0.6591004764  16.58806743445 34.73104127605 0.15689059605  15.9758197132 35.10135250815 0.7277923226  17.1225053516 34.2783040828 0.9728816685  16.51025763035 34.6486153149 1.54378339505  17.101065207 35.6884613744 -0.6591004764  15.8980099091 35.018926547 2.1146851216  21.3420415534 38.2958338497 4.3120531276  20.8456354146 37.64480675835 4.1312474242  20.4199624359 37.9168510517 3.907632578999999  21.21858460775 38.23610476175 3.73167191945  21.0951276621 38.1763756738 3.1512907113  20.72217846895 37.5850776704 3.55086621605  20.29650549025 37.85712196375 3.32725137085  19.4978833184 37.5378682537 3.5032120304  19.9235562971 37.26582396035 3.7268268756  20.3492292758 36.993779667 3.9504417208  17.9792266128 35.0099073308 -0.6591004764  18.89258686595 35.0526288569 0.6156651904499999  18.32496750645 35.32386385105 0.6156651904499999  18.22007959715 34.80202373285 0.6156651904499999  18.6517338816 35.26051245485 -0.6591004764  18.0841145221 35.53174744899999 -0.6591004764  18.1890024314 36.0535875672 -0.6591004764  18.7566217909 35.78235257305 -0.6591004764  19.3242411504 35.5111175789 -0.6591004764  18.4609325815 34.5941401349 1.8904308573  20.0797135534 39.1958643923 9.052366102100001  20.66408803275 39.4375595408 7.67411344425  20.12838275415 39.4869170814 8.16973168925  20.467602975 38.70749986200001 8.313942817499999  20.27619861115 39.9259240711 8.41253672885  19.9318976964 38.75685740260001 8.8095610625  19.7840818394 38.3178504129 8.5667560229  20.319787118 38.2684928723 8.071137777899999  20.4726836689 40.6559837499 7.7727073556  20.8554923966 38.2191353317 7.5755195329  24.0040318089 26.0980398944 3.932886651  23.29370660035 26.58535559585 3.22208213645  23.84321409385 26.4946559417 3.0500780108  23.04363220345 26.0594820277 3.24835223855  22.083232598 26.020924161 2.5638178261  22.3333069949 26.54679772915 2.537547724  22.8828144884 26.456098075 2.36554359835  23.6823963788 26.891271989 2.1672693706  23.1328888853 26.98197164315 2.33927349625  22.5833813918 27.0726712973 2.5112776219  15.3814582796 37.8458138747 2.6021688954  15.5391191165 38.5454298346 1.864969717  15.2477822616 38.34729688435 2.30513477775  15.7735776688 38.49250919455 2.4290946575  16.165697058 39.1392045144 2.2560204196  15.9312385057 39.19212515445 1.6918954791  15.6399016508 38.9939922042 2.13206053985  15.1141062436 38.848779894 2.0081006601  15.4054430985 39.04691284425 1.56793559935  15.6967799534 39.2450457945 1.1277705386  22.2057491803 25.6242367656 -0.6591004764  23.33609128965 25.005542188 -0.6591004764  22.81578479285 25.4598957092 0.67452832735  22.5831577992 24.98308630425 -0.6591004764  22.95868267075 25.64669264935 -0.6591004764  23.7116161612 25.6691485331 -0.6591004764  23.19319341175 24.81874524785 0.67452832735  23.5687182833 25.48235159295 0.67452832735  22.9605664181 24.3419358429 -0.6591004764  23.4258204054 25.2955546528 2.0081571311  20.4198737784 29.6733509919 6.9693172074  20.6735921307 29.22751778625 5.7277428088  21.0529717372 29.5516356308 6.30812236785  20.6134093647 29.8408648137 6.18162071545  20.4800565444 29.06000396445 6.51543930075  20.8594361509 29.384121809 7.0958188598  21.2989985234 29.0948926261 7.2223205122  20.9196189169 28.77077478155 6.64194095315  20.5402393104 28.446656937 6.0615613941  20.806944951 30.0083786355 5.3939242235  16.9105141719 29.078731954 3.4455781416  17.32529567985 29.60852596725 3.8706570747  17.80278171465 29.05746676725 3.495901172  17.7811686845 29.0537830155 4.213960958  18.6518231971 29.028834077 4.9823437744  18.2175632226 29.5872607805 3.9209801051  18.19595019245 29.58357702875 4.6390398911  18.67343622725 29.03251782875 4.2642839884  18.6950492574 29.0362015805 3.5462242024  17.7400771878 30.1383199805 4.2957360078  25.2752672007 30.3494689449 3.4664096663  24.9817813795 30.14488256415 2.63016293025  24.43147598755 30.40035364485 2.7006292796  25.21545481315 30.66259104135 2.8708840669  25.1556424256 30.9757131378 2.2753584675  24.92196899195 30.4580046606 2.03463733085  24.3716636 30.7134757413 2.1051036802  23.5876847744 30.4512383448 1.9348488929  24.13799016635 30.1957672641 1.86438254355  24.6882955583 29.9402961834 1.7939161942  21.9327586923 31.2136003579 5.5485679694  21.49542911525 32.1322380719 5.52700504705  21.8208160392 31.8266872026 4.811067716  22.1995970289 31.838703674 5.5023362396  21.22859077865 31.5071347558 5.57323677685  20.84980978895 31.4951182844 4.88196825325  21.5539777026 31.2015838865 4.8572994458  21.1751967129 31.1895674151 4.1660309222  20.524422865 31.8006691537 5.5979055843  22.4664353655 32.4638069901 5.4561045098  21.0906468761 30.8614549359 0.9431104008  22.27305656935 31.35761740755 0.8514750101000002  21.9231869257 31.66778812345 0.8514750101000002  21.6622153743 31.23069572925 1.6525804487  21.70148807115 30.9883766142 0.1420049622  21.3516184275 31.2985473301 0.1420049622  21.6125899789 31.7356397243 -0.6591004764  21.96245962255 31.4254690084 -0.6591004764  22.3123292662 31.1152982925 -0.6591004764  22.2337838725 31.5999365226 2.3620504966  17.6397558072 27.0454206452 5.1135345491  18.84530350425 27.1305106324 5.5474586257  18.43804941895 26.9176988667 6.035128841600001  18.04900899725 27.3759292024 5.9248686428  18.45626308255 27.5887409681 5.4371984269  18.0287962289 26.5871903095 5.2237947479  18.4178366506 26.1289599738 5.3340549467  18.4582621873 27.7064377596 6.7362027365  18.8655162726 27.9192495253 6.2485325206  19.2727703579 28.132061291 5.7608623047  20.5409536615 26.5445159154 8.554510347300001  20.26292870335 26.1820261665 8.13766842085  20.8649427181 26.2878536512 8.23165542275  20.6343515153 26.6747734474 8.178888548750001  20.7277493691 26.8050309794 7.8032667502  20.35632655715 26.3122836985 7.7620466223  20.9583405719 26.4181111832 7.8560336242  21.1889317747 26.031191387 7.9088004982  20.58691775995 25.9253639023 7.814813496299999  19.9849037452 25.8195364176 7.7208264944  24.3862538675 26.6872622361 -0.6591004764  24.87397427385 26.87971784605 0.57224728825  24.28236831555 27.2456611387 0.7540844471000001  24.62593108145 26.4233238199 0.57224728825  24.6342970599 27.14365626225 -0.6591004764  24.03432512315 26.78926711255 0.7540844471000001  24.8823402523 27.6000502884 -0.6591004764  24.2740023371 26.52532869635 1.98543221175  24.8656082954 26.1593854037 1.8035950529  22.7903006023 33.8331116984 1.596079328  21.7142247079 32.8476842662 0.6790394558000001  21.5601959033 33.5344240547 0.6790394558000001  22.0606038748 33.4763226082 1.806629358  22.4439214354 33.2044733564 0.4684894258  22.2898926308 33.8912131449 0.4684894258  21.7894846593 33.9493145914 -0.6591004764  21.9435134639 33.2625748029 -0.6591004764  22.0975422685 32.5758350144 -0.6591004764  21.3309071473 33.119533518 2.017179388  23.6940573258 30.2558273699 3.1067801158  24.25786226425 30.6730155522 3.36893688035  24.53784853895 30.20494266995 3.8725605025  23.5204436025 30.52848927725 3.77508771655  23.4140710511 30.72390025215 2.60315649365  23.2404573278 30.9965621595 3.2714640944  22.8057565889 37.1838722752 7.3489701582  22.2975834447 36.56206411515 7.441403023299999  22.92771466185 36.69375693815 7.07015712815  22.47554273935 36.91353462505 6.868978286  22.1453288898 36.6431969749 6.3889864138  22.41954151765 36.0719487781 7.16258999325  21.96736959515 36.291726465 6.9614111511  22.5975008123 36.42341928800001 6.59016525595  23.0496727348 36.2036416011 6.7913440981  21.7894103005 35.9402559551 7.5338358884  20.6039305801 32.14882153945 4.51633582265  20.0951816767 31.30523308655 5.00826801275  19.8201724157 32.0305801988 4.38887868  20.1746893918 31.6533854723 3.9266982511  20.6834382952 32.4969739252 3.434766061  20.3289213191 32.8741686517 3.8969464899  19.974404343 33.2513633782 4.3591269188  20.249413604 32.52601626595 4.97851625155  22.1033766149 29.9152085033 4.1465924248  21.77137857645 30.1711924977 3.37766905585  21.27302272865 29.80480142335 3.74403546475  21.94821617605 29.42910852265 3.34998457045  21.7930557372 28.943008542 2.5533767161  21.6162181376 29.68509251705 2.5810612015  21.1178622898 29.3187014427 2.9474276104  20.9410246902 30.06078541
[...]
<PointData  Scalars="p"> 
<DataArray  type="Float64"  Name="p"  format="ascii">8.1710194296720537e+00  8.1624435111000349e+00  8.1666437320453493e+00  8.1645792005950746e+00  8.1665382004229414e+00  8.1577937119428690e+00  8.1605597505993703e+00  8.1596362029245597e+00  8.1616935059879143e+00  8.1621740677475216e+00  8.1078968033078027e+00  8.1019033766651880e+00  8.1071561446702276e+00  8.1066777844330442e+00  8.1091584695582366e+00  8.1456958263805976e+00  8.1398317629258514e+00  8.1397811964836801e+00  8.1437485770153764e+00  8.1409692125972803e+00  8.1369318128819135e+00  8.1361314420178683e+00  8.1411969274452503e+00  8.1380601938118993e+00  8.1349046582450999e+00  8.1223482633441932e+00  8.1198230960771802e+00  8.1187394027978623e+00  8.1218817083865424e+00  8.1219912964607026e+00  8.1203331159520182e+00  8.1192663719414355e+00  8.1157568272982932e+00  8.1167967145378483e+00  8.1180575507521517e+00  8.1919449611532631e+00  8.1839203204753304e+00  8.1769564634791614e+00  8.1853611025304165e+00  8.1849796611443058e+00  8.1902985931187224e+00  8.1744997163421669e+00  8.1817935468022984e+00  8.1783581652678361e+00  8.1873110340824553e+00  8.1411941422904963e+00  8.1432895724265926e+00  8.1459499943182756e+00  8.1455334653992448e+00  8.1495922916514498e+00  8.1471682207341267e+00  8.1497462417259090e+00  8.1515086554522682e+00  8.1484290207137882e+00  8.1453911133947514e+00  8.1671108870516278e+00  8.1613793481037842e+00  8.1658366183208777e+00  8.1652871482566312e+00  8.1639653851625109e+00  8.1684822274234605e+00  8.1688994246811149e+00  8.1646049259427009e+00  8.1608724827662957e+00  8.1614453763169799e+00  8.1132695152770733e+00  8.1187291759831837e+00  8.1177294529339257e+00  8.1157330508127732e+00  8.1161045124416304e+00  8.1145125086522292e+00  8.1160533638583043e+00  8.1173177112348984e+00  8.1191802531697839e+00  8.1186051386937912e+00  8.1197934537839718e+00  8.1207651051543177e+00  8.1188397781761950e+00  8.1208136836046325e+00  8.1222045546113488e+00  8.1222859500148097e+00  8.1204315338159851e+00  8.1187077935207146e+00  8.1206190951644110e+00  8.1224277861995020e+00  8.1912321076653107e+00  8.1897027725350924e+00  8.1931607200863894e+00  8.1847432035880470e+00  8.1786158524422579e+00  8.1825019969656214e+00  8.1861858286170133e+00  8.1951974681641175e+00  8.1915791621810605e+00  8.1873040066083291e+00  8.1174892655197333e+00  8.1134631671571054e+00  8.1166259989560370e+00  8.1152031445232851e+00  8.1158766296438873e+00  8.1137705758980747e+00  8.1143142075450037e+00  8.1144319644277783e+00  8.1127952381161368e+00  8.1162691549034900e+00  8.1324851162561966e+00  8.1320258817803008e+00  8.1291052158896662e+00  8.1321950388969029e+00  8.1323771028837566e+00  8.1294053229844376e+00  8.1258049208465959e+00  8.1296550821289539e+00  8.1319805701259753e+00  8.1323322267251150e+00  8.1520164685506735e+00  8.1531093913193544e+00  8.1467809497201102e+00  8.1478544534093356e+00  8.1430090322139321e+00  8.1469379672644155e+00  8.1473641683073943e+00  8.1426625468849529e+00  8.1420341878866331e+00  8.1524518426207457e+00  8.1217962822392007e+00  8.1228110327019909e+00  8.1240407418926672e+00  8.1233102444650829e+00  8.1245657931592881e+00  8.1239610356195318e+00  8.1253609560141200e+00  8.1264542545662124e+00  8.1248083370195392e+00  8.1232721444961484e+00  8.1265297602428976e+00  8.1295403451732628e+00  8.1297601315314125e+00  8.1256066641831470e+00  8.1306501498395090e+00  8.1345080671844521e+00  8.1304062719133476e+00  8.1336711597180731e+00  8.1352139296743964e+00  8.1247158264144357e+00  8.1330649010306804e+00  8.1321036921387027e+00  8.1340134677082929e+00  8.1335190036218474e+00  8.1316523517107768e+00  8.1337679710717019e+00  8.1340137577957421e+00  8.1327560393985259e+00  8.1308396866208330e+00  8.1324241974503515e+00  8.1419522270954836e+00  8.1373129872875847e+00  8.1387336150275846e+00  8.1416447566949728e+00  8.1401533298528221e+00  8.1388385556387011e+00  8.1358150082787937e+00  8.1405216578543911e+00  8.1391917216786904e+00  8.1377044635280598e+00  8.1260664412301598e+00  8.1287772302476089e+00  8.1269885326947779e+00  8.1290137778390985e+00  8.1303531903637332e+00  8.1299347579953629e+00  8.1289996763160524e+00  8.1276715386295955e+00  8.1287226247097806e+00  8.1305072252321651e+00  8.1139777931728290e+00  8.1130158550889515e+00  8.1164171044527507e+00  8.1126918223671716e+00  8.1145074773649579e+00  8.1159509864480714e+00  8.1153926399745160e+00  8.1157845947676019e+00  8.1122641625345633e+00  8.1381732594481075e+00  8.1392426939834035e+00  8.1424958922776671e+00  8.1390486231735597e+00  8.1382605853910928e+00  8.1413818314670401e+00  8.1438095302621694e+00  8.1410594354376187e+00  8.1368835879070662e+00  8.1404961077078042e+00  8.1247646314840249e+00  8.1237167091486935e+00  8.1214993576516434e+00  8.1243804194042060e+00  8.1268760202890533e+00  8.1268334225150110e+00  8.1102369963390242e+00  8.1132656053908807e+00  8.1119496460208680e+00  8.1157451386350967e+00  8.1217052999037662e+00  8.1149186791974071e+00  8.1184834358935856e+00  8.1178269209164373e+00  8.1142147365951445e+00  8.1157435185517350e+00  8.1374493299744444e+00  8.1386531887486484e+00  8.1423546303299563e+00  8.1402075614935132e+00  8.1397093737696515e+00  8.1414123485142138e+00  8.1428659557684089e+00  8.1389237913691694e+00  8.1278395300768640e+00  8.1302655652450504e+00  8.1314382421696223e+00  8.1284063398349531e+00  8.1279324945831348e+00  8.1299977470464153e+00  8.1311537583134275e+00  8.1334263807989249e+00  8.1322629030875824e+00  8.1214953074650822e+00  8.1236031716801396e+00  8.1294957848294107e+00  8.1252465730731753e+00  8.1261947564565489e+00  8.1199800948558529e+00  8.1299629208817272e+00  8.1242295662218087e+00  8.1287458389502802e+00  8.1338618934848235e+00  8.1342104143004939e+00  8.1346256035237836e+00  8.1342316236814796e+00  8.1326342138917180e+00  8.1320248518658858e+00  8.1318042299277202e+00  8.1176999824661475e+00  8.1205496884108470e+00  8.1233706596267972e+00  8.1207579081338501e+00  8.1218163102401721e+00  8.1215204346299732e+00  8.1237254337118241e+00  8.1275721189752161e+00  8.1247765085510117e+00  8.1223395870006296e+00  8.1681295752278373e+00  8.1654524940099620e+00  8.1615888882730339e+00  8.1667501504369095e+00  8.1631877031868285e+00  8.1659923163037913e+00  8.1589923712120687e+00  8.1613952919141912e+00  8.1642882962494827e+00  8.1653282821864117e+00  8.1508620378725070e+00  8.1501172524763188e+00  8.1500145243934483e+00  8.1471737575986989e+00  8.1458928052259445e+00  8.1453935958193142e+00  8.1478072725333437e+00  8.1482435316769930e+00  8.1484463095087456e+00  8.1379440805402368e+00  8.1375805425111736e+00  8.1396345781111297e+00  8.1371959096261772e+00  8.1354428336494671e+00  8.1337483030201216e+00  8.1356969025804684e+00  8.1609561453323849e+00  8.1666755309927428e+00  8.1562872116397163e+00  8.1598289783779414e+00  8.1577692652429228e+00  8.1610952209611600e+00  8.1637599873515470e+00  8.1555014873511951e+00  8.1708156709560775e+00  8.1517420214955649e+00  8.1493580422167522e+00  8.1516422176915757e+00  8.1555684495759220e+00  8.1519115152231407e+00  8.1551288635350048e+00  8.1522219788047217e+00  8.1491541324102830e+00  8.1462792478744177e+00  8.1638834556627575e+00  8.1641582654277389e+00  8.1683272303060708e+00  8.1572747469768814e+00  8.1578746148365120e+00  8.1673416571664070e+00  8.1637596488103785e+00  8.1500395977230244e+00  8.1473653647065731e+00  8.1429616348498861e+00  8.1425511166365698e+00  8.1452478459940423e+00  8.1139545816876204e+00  8.1123780102655854e+00  8.1096005484606390e+00  8.1111275786349939e+00  8.1101921659685505e+00  8.1100755346383711e+00  8.1302328903744687e+00  8.1297749539700384e+00  8.1282858350199767e+00  8.1301166631842108e+00  8.1297611702956392e+00  8.1278866508207734e+00  8.1323716600881859e+00  8.1327858768322976e+00  8.1345409807162650e+00  8.1365708234878316e+00  8.1343808681052074e+00  8.1308101319751689e+00  8.1285637303687306e+00  8.1403124436484351e+00  8.1383278777058319e+00  8.1374692583602055e+00  8.1389343339971560e+00  8.1427715283966116e+00  8.1374041206135068e+00  8.1381203666859534e+00  8.1432086857075880e+00  8.1417470772797316e+00  8.1371439585210652e+00  8.1356580223309081e+00  8.1482314020778048e+00  8.1295110871992584e+00  8.1300714009184176e+00  8.1293688450367370e+00  8.1259755181621500e+00  8.1271346172339527e+00  8.1325259614667171e+00  8.1361694104972777e+00  8.1225795938276288e+00  8.1237478031189934e+00  8.1510503516911470e+00  8.1547520705259764e+00  8.1624050039563194e+00  8.1541461759283127e+00  8.1483796097691830e+00  8.1423965138725602e+00  8.1454598096002506e+00  8.1423343952045339e+00  8.1430773187895866e+00  8.1444240144036630e+00  8.1460066399647530e+00  8.1444217464495754e+00  8.1434315282490637e+00  8.1443769908762054e+00  8.1434461545188519e+00  8.1409667628142621e+00  8.1460696413164779e+00  8.1408006607467041e+00  8.1383806559006988e+00  8.1385767800911086e+00  8.1490690460158710e+00  8.1392065013555381e+00  8.1184205912060836e+00  8.1237008268520299e+00  8.1227685109207961e+00  8.1238079300046007e+00  8.1289172664179770e+00  8.1284512556985096e+00  8.1276347034342162e+00  8.1261935134713550e+00  8.1274669133913893e+00  8.1124840936875824e+00  8.1130925395515980e+00  8.1096527684356339e+00  8.1138374846727803e+00  8.1087377712953010e+00  8.1076872584854218e+00  8.1132216394090566e+00  8.1311938949100284e+00  8.1313602938492267e+00  8.1305211085196980e+00  8.1333622400768597e+00  8.1285245110926603e+00  8.1369680307682746e+00  8.1332959607174526e+00  8.1364305112713033e+00  8.1324905091870594e+00  8.1324641412047569e+00  8.1359165061660885e+00  8.1354169624630170e+00  8.1330942207707135e+00  8.1300172421276251e+00  8.1350841543457815e+00  8.1346259131977803e+00  8.1341340419125832e+00  8.1352990596433070e+00  8.1312719062791192e+00  8.1367656786226146e+00  8.1332780706075578e+00  8.1338265544797395e+00  8.1302766294144764e+00  8.1325780396038958e+00  8.1337136479495946e+00  8.1316370647632201e+00  8.1296191009538994e+00  8.1332080898843788e+00  8.1318153165545279e+00  8.1334719115641487e+00  8.1882506290811428e+00  8.1785124953356014e+00  8.1877789151185230e+00  8.1899462016104749e+00  8.1784803019648056e+00  8.1884425893897017e+00  8.1892739375614845e+00  8.1804130978307033e+00  8.1708730062759667e+00  8.1136781696923173e+00  8.1184650817263790e+00  8.1175543386058227e+00  8.1223129847285467e+00  8.1310791325618936e+00  8.1261760715017246e+00  8.1254587890567116e+00  8.1198861125154291e+00  8.1212321844183109e+00  8.1352284171252371e+00  8.1341912928668076e+00  8.1349167934014979e+00  8.1367146398241594e+00  8.1374465786543784e+00  8.1343840641968637e+00  8.1355875439077927e+00  8.1357937093277073e+00  8.1343167771305716e+00  8.1217969744057719e+00  8.1220979260044501e+00  8.1220726206192122e+00  8.1230260353973289e+00  8.1207531391690821e+00  8.1211675782595414e+00  8.1244435815591753e+00  8.1234170350808750e+00  8.1224045267625105e+00  8.1536465644346485e+00  8.1555487455129736e+00  8.1555242871453135e+00  8.1563968998822745e+00  8.1522380774473717e+00  8.1510482410476861e+00  8.1540951163448643e+00  8.1594592847552860e+00  8.1585122301928408e+00  8.1569665558805458e+00  8.1090231729545259e+00  8.1133169949687325e+00  8.1133673292742028e+00  8.1095306327037218e+00  8.1084367915999724e+00  8.1004925616461794e+00  8.1049864603859945e+00  8.1193831237882890e+00  8.1201324247948286e+00  8.1205969535065563e+00  8.1211742482871703e+00  8.1231301420933946e+00  8.1231237625843811e+00  8.1220350907305612e+00  8.1212371995546082e+00  8.1224538150459171e+00  8.1475565129395253e+00  8.1455852487137363e+00  8.1478551217953399e+00  8.1500016235212005e+00  8.1435674106619977e+00  8.1412738004913461e+00  8.1451226497576226e+00  8.1392338807476285e+00  8.1527330898530384e+00  8.1207397454490629e+00  8.1203086232073574e+00  8.1200399941084775e+00  8.1198188991520972e+00  8.1186282177644582e+00  8.1188803292822147e+00  8.1193803714875816e+00  8.1159800194015794e+00  8.1190626604852554e+00  8.1197189236323588e+00  8.1170600332647904e+00  8.1183525233190643e+00  8.1202494823226505e+00  8.1206346398362719e+00  8.1792215578420873e+00  8.1728771599014713e+00  8.1711581004005875e+00  8.1770037167856184e+00  8.1732966203956643e+00  8.1742506797928520e+00  8.1680273262801002e+00  8.1697936176219450e+00  8.1699597838493059e+00  8.1327628450506850e+00  8.1365999256991604e+00  8.1322217594855246e+00  8.1352613179706346e+00  8.1457483437077443e+00  8.1514522591471792e+00  8.1466680192135161e+00  8.1415695241967079e+00  8.1454093864293942e+00  8.1500575119189893e+00  8.1467169945283544e+00  8.1417254098195997e+00  8.1296699490190552e+00  8.1306308859669407e+00  8.1297838525546329e+00  8.1316778205042617e+00  8.1288719433643024e+00  8.1250343006815342e+00  8.1241934557723656e+00  8.1256559910430877e+00  8.1238853031245331e+00  8.1235333541729027e+00  8.1251773514662151e+00  8.1268118629295270e+00  8.1313615620518043e+00  8.1303576489580838e+00  8.1305073450323366e+00  8.1308130341581197e+00  8.1323353191903589e+00  8.1337215857359428e+00  8.1306940279482998e+00  8.1317696665537582e+00  8.1301958478357239e+00  8.1277564588717937e+00  8.1280066261682222e+00  8.1248366226308022e+00  8.1262406364982471e+00  8.1266853360275206e+00  8.1246753733839796e+00  8.1286105989209556e+00  8.1253071931350078e+00  8.1231567225140502e+00  8.1229611781827611e+00  8.1256185767516591e+00  8.1219054466286718e+00  8.1256304544427849e+00  8.1235965402088421e+00  8.1475870847298300e+00  8.1522007666613430e+00  8.1477426780941933e+00  8.1516866449419432e+00  8.1474218593822876e+00  8.1558297509554798e+00  8.1521800858015077e+00  8.1531248248939203e+00  8.1543938235791593e+00  8.1542914618669382e+00  8.1502339410246449e+00  8.1467555271110079e+00  8.1515902717744702e+00  8.1515588290860723e+00  8.1575767779524462e+00  8.1567625242861439e+00  8.1789322929551673e+00  8.1816837465143752e+00  8.1857880672325880e+00  8.1848854692420066e+00  8.1862653350682137e+00  8.1907522112462061e+00  8.1844677136719834e+00  8.1800262040981266e+00  8.1393230901010725e+00  8.1385507674182307e+00  8.1378809456395231e+00  8.1405727375038062e+00  8.1391959881137925e+00  8.1431459939477975e+00  8.1324966657061744e+00  8.1308921795850058e+00  8.1320965186643477e+00  8.1315105885779531e+00  8.1296632339954744e+00  8.1289114141876162e+00  8.1301626042371566e+00  8.1304477664163173e+00  8.1296838594160796e+00  8.1285080690437574e+00  8.1244171879327958e+00  8.1209598609001628e+00  8.1233737980272362e+00  8.1234932234633543e+00  8.1217029040199602e+00  8.1228284365901580e+00  8.1225596139419096e+00  8.1211734217276668e+00  8.1203708393042611e+00  8.1220763268350211e+00  8.1443716954615706e+00  8.1444721269206521e+00  8.1468449782885486e+00  8.1483825103821559e+00  8.1526498086356387e+00  8.1470083142473708e+00  8.1510931568214922e+00  8.1495097444341535e+00  8.1460863706113358e+00  8.1213581615611776e+00  8.1202815688301246e+00  8.1204300255768995e+00  8.1195998466359427e+00  8.1177708210253563e+00  8.1192330310678642e+00  8.1183492854457953e+00  8.1186370177497320e+00  8.1196114680193947e+00  8.1193533691318667e+00  8.1739488912790641e+00  8.1773655339111695e+00  8.1722747235163755e+00  8.1689444441729471e+00  8.1714610484939705e+00  8.1802706843668851e+00  8.1755721674528044e+00  8.1643303499072744e+00  8.1616173964830061e+00  8.1606497345159426e+00  8.1634667694214613e+00  8.1626016290773311e+00  8.1616810924892640e+00  8.1591996273861049e+00  8.1603329600298071e+00  8.1580082891743597e+00  8.1554242422004055e+00  8.1448443266801309e+00  8.1431813230095482e+00  8.1412810390763095e+00  8.1442555286655534e+00  8.1106559463997812e+00  8.1118630783257224e+00  8.1323724671606126e+00  8.1323550512300109e+00  8.1365703204145774e+00  8.1354111540003977e+00  8.1309799388920094e+00  8.1182341680275485e+00  8.1186136798305313e+00  8.1179249386707077e+00  8.1168992975440251e+00  8.1172903955010991e+00  8.1187049527977813e+00  8.1630275555607472e+00  8.1547825792236583e+00  8.1547159675199268e+00  8.1597845411898042e+00  8.1565865045783674e+00  8.1524543856828764e+00  8.1172558786496012e+00  8.1151291346098287e+00  8.1168304241342160e+00  8.1184831009388372e+00  8.1176319647030244e+00  8.1163018342908373e+00  8.1166748608208437e+00  8.1638241990100973e+00  8.1606189687912316e+00  8.1611790632577836e+00  8.1645170369389355e+00  8.1677265762786302e+00  8.1646736875984338e+00  8.1674917524676385e+00  8.1709429561483482e+00  8.1208868345471998e+00  8.1222282252320426e+00  8.1260606891719505e+00  8.1172649492930020e+00  8.1245211960372909e+00  8.1242003149180171e+00  8.1241398554558035e+00  8.1197313464440040e+00  8.1147795590637930e+00  8.1195566190671453e+00  8.1198428676735563e+00  8.1244222292125201e+00  8.1242473036863530e+00  8.1205178073113515e+00  8.1158190007230466e+00  8.1206522546905973e+00  8.1162002947851537e+00  8.1128883643134699e+00  8.1177806485852866e+00  8.1226645285225292e+00  8.1248193662118577e+00  8.1222889698301710e+00  8.1238972076505274e+00  8.1235094780814308e+00  8.1233982495777894e+00  8.1222085044720469e+00  8.1228263548595390e+00  8.1219609235996408e+00  8.1222424092243610e+00  8.1230945227400486e+00  8.1415623224339377e+00  8.1458303045868323e+00  8.1451862826053354e+00  8.1413277941177640e+00  8.1457420157057641e+00  8.1502887484667692e+00  8.1500038162833537e+00  8.1049595556516891e+00  8.1590061167223933e+00  8.1612154461614619e+00  8.1591659463848618e+00  8.1577530635947646e+00  8.1569442195940507e+00  8.1605010547342829e+00  8.1550420185049450e+00  8.1564087925240312e+00  8.1556795662893418e+00  8.1561291240668865e+00  8.1567377689321408e+00  8.1568904353003688e+00  8.1563453148766651e+00  8.1561961940263608e+00  8.1563010811996595e+00  8.1573929353909378e+00  8.1496906243777314e+00  8.1455195955537452e+00  8.1512435873933615e+00  8.1504281534139960e+00  8.1342841498897975e+00  8.1363080789563078e+00  8.1379240892073543e+00  8.1322338451647305e+00  8.1297650659047171e+00  8.1340777649740748e+00  8.1359225465914484e+00  8.1390057006845264e+00  8.1373435262463172e+00  8.1165843411714818e+00  8.1159329657797930e+00  8.1204119890335082e+00  8.1157005793415316e+00  8.1168740871305296e+00  8.1172141377134519e+00  8.1204535344077939e+00  8.1794456989437929e+00  8.1807221047778143e+00  8.1689217338569478e+00  8.1661690082541529e+00  8.1634276409054713e+00  8.1655595310523630e+00  8.1690617592682297e+00  8.1666099517800657e+00  8.1652486692472888e+00  8.1634544158409099e+00  8.1667656270894096e+00  8.1256064451160750e+00  8.1233167599119138e+00  8.1247025075932449e+00  8.1232028901138822e+00  8.1257123211023590e+00  8.1254207346091913e+00  8.1241799813753772e+00  8.1544120363265833e+00  8.1582649794486031e+00  8.1522295480935316e+00  8.1533253238339416e+00  8.1490628616201732e+00  8.1548529173681903e+00  8.1571650040162318e+00  8.1500233393931385e+00  8.1211920267103874e+00  8.1203524418797617e+00  8.1216733288867307e+00  8.1206810292850946e+00  8.1209559565924536e+00  8.1217379375296783e+00  8.1315160162514157e+00  8.1307286210311531e+00  8.1281956642449806e+00  8.1345681436684920e+00  8.1311913222475418e+00  8.1215435816036781e+00  8.1199099421319740e+00  8.1255288853254619e+00  8.1253120834520391e+00  8.1395775529407572e+00  8.1437792647037597e+00  8.1642845689110128e+00  8.1622302425992128e+00  8.1654238071266576e+00  8.1651920507355413e+00  8.1609276323024389e+00  8.1613812631695879e+00  8.1577205758105418e+00  8.1550661477008148e+00  8.1552605674264509e+00  8.1546349798487423e+00  8.1568050405885000e+00  8.1539483267012098e+00  8.1564819021554893e+00  8.1584798075934764e+00  8.1620807823236188e+00  8.1637462689944833e+00  8.1607042934235690e+00  8.1588113659572521e+00  8.1217243990281567e+00  8.1223627539326220e+00  8.1226160621499570e+00  8.1210392093155654e+00  8.1231597813797460e+00  8.1204530412320537e+00  8.1235568368939521e+00  8.1206669729248002e+00  8.1213940381686474e+00  8.1207833588188052e+00  8.1187439121805109e+00  8.1317839603117026e+00  8.1286425463255121e+00  8