<?xml version="1.0"?>
<VTKFile type="UnstructuredGrid"  version="0.1"  >
<UnstructuredGrid>
<Piece  NumberOfPoints="4488" NumberOfCells="19163">
<Points>
<DataArray  type="Float64"  NumberOfComponents="3"  format="ascii">16.6841076934 22.5649175251 22.6988106653  15.9933519367 23.7863900207 22.8382315494  16.88493351945 23.35540841235 22.6801819561  16.40445319845 23.16166354925 23.23034487225  16.27300643165 23.18964399655 22.30669734245  15.8619051699 23.814370468 21.9145840196  16.4738322577 23.9801348838 22.28806863325  16.1247987035 23.7584095734 23.7618790792  16.6052790245 23.9521544365 23.21171616305  17.0857593455 24.1458992996 22.6615532469  15.2689830719 19.997964108 26.3152755059  16.38314808195 20.53339846595 26.1897961089  16.04752387055 19.51841826895 25.7983612922  16.15602598365 20.09229594175 25.55575333355  17.0430688954 20.1866277755 24.7962311612  16.9345667823 19.6127501027 25.03883911985  16.8260646692 19.0388724299 25.2814470785  13.2464670662 25.7034560792 22.8488615181  13.4148928774 24.8058695193 22.5393018208  13.14262937785 25.48039966715 22.38583477825  12.80269282965 25.27820905625 22.7459338839  12.3589185931 24.8529620333 22.6430062497  12.6988551413 25.0551526442 22.28290714405  13.0387916895 25.2573432551 21.9228080384  14.8127994991 24.2540348469 24.5701064876  14.20334552385 23.8686340757 23.92361875725  14.6418333304 24.5064059261 23.50285193975  14.86978060275 23.52126610535 23.91891206425  14.9267617064 22.7884973638 23.2677176409  14.2603266275 23.13586533415 23.2724243339  14.69881443405 23.77363718455 22.8516575164  14.4708671617 24.7587770053 22.4355973919  14.03237935515 24.1210051549 22.8563642094  13.5938915486 23.4832333045 23.2771310269  16.97674047875 23.324788043 23.31096914955  17.2563949737 22.72804201885 22.7794349426  17.828682254 22.8911665126 22.8600592199  17.45722079975 23.5185329061 22.7608062334  15.39433343815 23.3014339159 22.59115083025  14.42245239065 23.02503641905 22.30074552555  15.1057941575 25.3508775358 24.3623799226  16.33157484675 24.6704025016 24.5041903491  16.0855562736 25.2130497667 24.08241266595  15.5974314045 25.3757786954 24.9726740718  15.35181273065 24.8082302707 24.78415760575  15.5978313038 24.2655830056 25.2059352889  14.5879279966 23.2160091651 24.9714466438  14.6783285074 22.27920521255 24.0841469451  15.1358789951 22.4669146683 24.49220919715  14.7573448515 23.00225326445 24.11958214235  14.5089116525 22.4929611132 24.93601144655  14.9664621402 22.68067056895 25.3440736986  15.3449962838 22.1453319728 25.7167007534  14.8874457961 21.95762251705 25.30863850135  14.4298953084 21.7699130613 24.9005762493  14.5270889953 22.341576952 21.1696645351  15.1944970826 23.07797371 21.54212427735  14.72692535085 22.5650371579 22.218691088  15.35289168945 22.1161620073 21.59695683845  16.1786943836 21.8907470626 22.0242491418  16.02029977675 22.8525587653 21.9694165807  15.552728045 22.3396222132 22.64598339135  15.6152964305 24.5546435546 24.0621295009  15.86131500365 24.0119962895 24.48390718405  15.7869008955 22.4047678901 24.1298015398  15.6174840406 22.61852379075 24.98166604125  15.9960181842 22.0831851946 25.35429309605  16.6470400846 22.0210384164 24.9918854387  15.81321648025 21.46859236905 25.25329174755  16.258546096 21.5975631895 25.7082349963  15.6075241956 21.6597099677 26.07064265365  15.16219457985 21.53073914725 25.6156994049  15.8700521074 21.1740879626 26.4245845539  15.42472249165 21.04511714215 25.96964130515  14.9793928759 20.9161463217 25.5146980564  15.8527367364 23.292043203 25.9437882406  16.2498884105 22.6565408097 25.46783683965  16.8142139513 22.92824574955 25.8761800245  16.02551515455 22.83451452905 26.2785254958  16.1982935727 22.3769858551 26.613262751  16.42266682865 22.19901213575 25.80257409485  16.98699236945 22.4707170756 26.2109172797  15.77164492825 22.26115891395 26.1649817522  16.03417284005 21.77553690885 26.51892365245  15.5384676965 21.89547573885 24.946230844  16.50735805945 23.6020534586 24.3550391262  16.73333852205 24.27833688855 24.47425024015  16.97761790255 24.2604596707 24.37532229125  16.8899174154 23.4456973438 24.9481991732  15.8054346999 22.67670744445 22.9832641531  16.43259681175 22.0489603948 22.87071144635  16.4314010385 22.22783229385 22.36152990355  16.1810859301 21.5330032645 23.0426122274  15.55392381825 22.16075031415 23.15516493415  16.17989015685 21.71187516355 22.5334306846  17.1654731876 22.082262518 23.5905992742  17.0276953015 22.7639799309 24.2693992237  17.5878500505 23.00310289415 23.75770129475  16.64513594555 22.9203360457 23.6762391767  17.06751280845 23.84117642185 23.84334119725  15.35636335005 23.48720936925 24.3666628615  15.0928796502 23.74079608535 25.08869096635  15.20531540145 24.25980892625 24.88802088825  15.4687991013 24.00622221015 24.1659927834  14.70036374785 23.735022006 24.7707765657  15.738922706 23.33085325445 24.9598229085  16.38591939405 22.8897239949 24.37688225895  16.76847875 22.7333678801 24.97004230595  16.9062566361 22.0516504672 24.29124235645  14.9592968283 24.80245619135 24.4662432051  17.4970777208 22.4867145153 23.22532924705  16.9247904405 22.32359002155 23.14470496975  13.4026435296 23.90774819615 22.4107807652  12.97640507085 24.1680976689 22.9600686383  12.78515705185 24.59261256055 22.0937183766  13.2113955106 24.3322630878 21.5444305035  15.52578020495 23.2734534686 23.51479836005  14.0909097726 23.3496212348 24.12428883535  16.2438743596 23.8556401747 25.07706723105  16.4698548222 24.53192360465 25.196278345  15.2203323665 23.25402618405 25.4576174422  16.3713270759 23.3688702734 25.4459937069  15.8584763355 20.03585025715 26.917106585  15.56951758965 20.5860260353 26.3699300299  15.2978329326 24.25859328935 23.09873823555  14.7883306596 25.05482727055 23.39898865725  16.92166058235 22.64948478185 22.2839798385  17.1592134713 22.7340520386 21.8691490117  17.1224864084 23.4399756691 22.2653511293  16.67216534435 23.9181841479 25.59547460565  17.6175040001 22.9141557917 24.4343688298  17.7552818862 22.2324383788 23.7555688803  18.3450905848 22.3826142396 23.9205384864  16.01123088565 20.5513870486 25.1554646088  16.4565605014 20.68035786905 25.61040785755  16.84505449 21.10383309595 24.89405829995  13.8571402182 25.5354405468 23.7185547254  13.0963492775 24.6798918285 23.49719292525  13.7255158834 24.50933692565 23.49784287615  13.84546009005 25.02113108525 24.0349671631  13.10802940565 25.19420129005 23.18078048755  13.8337799619 24.5068216237 24.3513796008  13.71383575525 23.9950274641 23.81425531385  16.25679841475 23.36625949195 26.44023300615  17.49394786265 22.8126092756 22.3646041158  15.5988665101 22.7186875879 25.830244497  14.4697870597 24.92884957975 24.3568797617  14.33496985865 24.89473769685 24.1443306065  14.48146718785 25.4431590413 24.040467324  14.3232897305 24.3804282353 24.4607430442  13.4201793074 24.59334469185 23.0629962725  16.05561950735 24.62151126375 23.184172309  15.54611723435 25.41774524495 23.4844227307  15.9864403112 25.4846129541 22.6064655388  15.92417274055 24.64949171105 22.2605247792  14.21085397925 23.8614153944 24.6614131223  15.1241879739 20.45705521485 25.91498678115  13.75601731175 23.3724043894 22.30545221855  17.3328042908 23.00507281995 25.3783854908  16.41406300735 21.77702084045 24.01724883305  16.1529423168 22.64570641895 23.4022456533  16.67327955885 21.80763289125 23.3166057508  16.63701713415 19.5563044181 26.4001923713  13.5518036422 25.619448313 23.28370812175  17.4960653347 22.201826328 24.45621196255  14.1523235618 24.6327993145 23.39348849635  14.16400368995 25.14710877605 23.07707605865  13.12509360005 24.79480317145 21.73361927095  13.9063020465 25.9800968177 22.9203477865  14.2116386225 25.8960890515 23.35519439015  14.5661370268 26.2567375562 22.9918340549  12.4819477936 25.5673079951 24.0685903752  12.42043319335 25.2101350142 23.35579831245  13.1695440059 25.55137427095 23.8935725503  13.15786387775 25.0370648094 24.209984988  12.8642074299 25.63538203715 23.45872594665  15.7252840201 23.7788131043 25.57486176475  14.70464409215 21.3430296915 25.20763715285  18.0868864194 22.6368903761 23.39029885315  16.02612228855 24.3281269788 25.7243426635  16.66895392745 22.3123995506 21.94669907675  17.5337336351 21.6482074756 24.12261034605  18.1235423337 21.7983833364 24.28757995215  17.9019940826 21.2141524332 24.6546214179  17.2745170836 21.6175954248 24.8232534283  14.83596559215 25.803807546 23.67710698875  15.276288669 25.87067525515 22.79914979685  16.84780333235 21.7229093395 26.33878973145  4.0615716 29.8930198483 28.6854855174  3.3406546853 29.15663821525 29.0561449678  3.78912890995 29.1700984968 28.44113052765  4.0933120965 29.3812785584 29.02828946355  4.125052593 28.8695372685 29.3710934097  3.3723951818 28.64489692535 29.39894891395  3.82086940645 28.6583572069 28.7839344738  3.5166862199 28.4471771453 28.1967755379  3.06821199525 28.43371686375 28.81178997805  2.6197377706 28.4202565822 29.4268044182  7.7643412812 29.2053588285 34.9841072045  6.73673307505 29.09746517125 35.17970150470001  7.02064234375 29.3201863475 35.71507184005  7.03012316095 29.61937673885 35.0811341486  7.4709511953 28.6834472609 35.0826745606  7.754860464 28.90616843715 35.61804489595  7.7453796468 28.6069780458 36.2519825874  7.4614703781 28.38425686955 35.71661225205  7.1775611094 28.1615356933 35.1812419167  6.2959050407 30.0333946492 35.1781610927  6.680444033600001 29.5041464606 34.43252308965  7.11030191745 30.0891826819 34.4509803964  7.41466215385 29.09012855025 34.33549614555  7.844520037700001 29.67516477155 34.3539534523  7.0649830265 28.974898272 33.6868850866  3.1806401618 29.5815511844 27.5688789056  2.1224701555 29.55297909835 27.23992693625  2.56328203145 29.73273974975 26.71697120925  2.8844338704 29.3237307161 27.08403982565  2.44362199445 29.1439700647 27.60699555265  2.85948832285 29.99056021805 27.2018102892  2.5383364839 30.3995692517 26.8347416728  2.588227579 29.0659102478 26.5992007457  2.14741570305 28.8861495964 27.1221564727  1.7066038271 28.706388945 27.6
[...]
<PointData  Scalars="p"> 
<DataArray  type="Float64"  Name="p"  format="ascii">8.9480713668026404e+00  8.9472617668028001e+00  8.9316443775909153e+00  8.9426901193484074e+00  8.9502831593164824e+00  8.9512551750502656e+00  8.9355642204444674e+00  8.9381657479392373e+00  8.9275218548676900e+00  8.9185398693168008e+00  8.9953509319073177e+00  8.9482203189069853e+00  8.9864575283622958e+00  8.9737608605626882e+00  8.9515855950625038e+00  8.9626577562061467e+00  8.9747455416309982e+00  9.0117476752444929e+00  9.0138386188424704e+00  9.0051170815452739e+00  9.0367783260241836e+00  9.0673290193865395e+00  9.0283593814607759e+00  8.9990613375827397e+00  8.9711258581288380e+00  9.0119823787139524e+00  8.9807535570729531e+00  8.9844245825664490e+00  8.9915264895132427e+00  9.0122106010691443e+00  8.9853377341605860e+00  8.9759708291983955e+00  9.0054350778509669e+00  9.0380895969803952e+00  8.9248133141963706e+00  8.9274091060229654e+00  8.9101346007990880e+00  8.9158368320154047e+00  8.9695880800541747e+00  8.9967467696138765e+00  8.9375178015797605e+00  8.9100994348550717e+00  8.9135746510089291e+00  8.9058133384191880e+00  8.9297013082163588e+00  8.9242280282604529e+00  8.9925225026536140e+00  9.0064941762258197e+00  8.9819482109517796e+00  8.9950052028136813e+00  9.0036602025177945e+00  8.9681331469466929e+00  8.9542751795638971e+00  8.9808861895534662e+00  9.0130740062550423e+00  8.9838344784769912e+00  8.9718842329869233e+00  8.9927067164223509e+00  8.9819909460422664e+00  8.9760492693480369e+00  8.9612133575460824e+00  8.9793401205404866e+00  8.9387993619124639e+00  8.9340656013051962e+00  8.9642920338157914e+00  8.9549317716840520e+00  8.9444603234931304e+00  8.9323390278060089e+00  8.9619323939806623e+00  8.9388276571523182e+00  8.9473495316311507e+00  8.9721298511083596e+00  8.9439793759106827e+00  8.9675669897336547e+00  8.9934188627294702e+00  8.9180913221766485e+00  8.9265289753306458e+00  8.9009687942110958e+00  8.9129786237537996e+00  8.9096655383841732e+00  8.9228459105709259e+00  8.8978747032382781e+00  8.9308243205343434e+00  8.9256709304396260e+00  8.9686555530713967e+00  8.9229750290468210e+00  8.9065247249703976e+00  8.9024539600214716e+00  8.9068400904046765e+00  8.9673957380705591e+00  8.9645256887598812e+00  8.9639471010051412e+00  8.9800475699978595e+00  8.9814819889042692e+00  8.9806539206344258e+00  8.9323287843682682e+00  8.9204526230205499e+00  8.9079165977133012e+00  8.9355750198731361e+00  8.9116416055219112e+00  8.9614557006583482e+00  8.9556211628445581e+00  8.9455732161567116e+00  8.9516835367191625e+00  8.9830696023624039e+00  8.9411693474674312e+00  8.9358998984040756e+00  8.9191047980768676e+00  8.9333389226696784e+00  8.9549710713199513e+00  8.9191916510918805e+00  8.9405118113890563e+00  9.0242919707900722e+00  9.0545495739867228e+00  9.0273150371159510e+00  8.9999376395719075e+00  8.9650880327801072e+00  9.0244995895975162e+00  8.9156664523609042e+00  8.8971452319340223e+00  8.9500116539124210e+00  8.9131473782050481e+00  8.9659497811811537e+00  8.9674988131866851e+00  8.9598457725656431e+00  8.9655895312806084e+00  8.9430525370637994e+00  8.9391735259096645e+00  8.9280709046694948e+00  8.8949526693601495e+00  8.9008587661960554e+00  8.9098715832003279e+00  8.8896580603979949e+00  8.9749369279400675e+00  8.9515186860593570e+00  8.9419303688045950e+00  9.0045380029644431e+00  9.0573562965073524e+00  9.0247799323196851e+00  9.0173902892980262e+00  9.0403285391833297e+00  9.0317085184965400e+00  9.0360026576520927e+00  8.8959701702737224e+00  8.9239293541190801e+00  8.9363568454707227e+00  8.9800073529847193e+00  8.9883645604219566e+00  8.9716524676822402e+00  8.9991367542988634e+00  9.0297118173958015e+00  8.9326896085664078e+00  8.9321683330288835e+00  8.9254546779606887e+00  8.9390877837728127e+00  9.0155993079898273e+00  8.9928079615817875e+00  9.0142869617899830e+00  8.8951272329703812e+00  8.9562464524170693e+00  8.9560801559706729e+00  8.9569058865408007e+00  8.9579196880582810e+00  9.0125537753484650e+00  8.9115635980001731e+00  9.0000722126643904e+00  8.9878440209362367e+00  8.9995984693498876e+00  8.9799351107086149e+00  8.9745000639593311e+00  8.9511239452285700e+00  9.1286811574398907e+00  9.0851642210187133e+00  9.0574751610499540e+00  9.0742245322627078e+00  9.0578454018843821e+00  8.9220549454903537e+00  9.0002654872652936e+00  8.8998294473207498e+00  8.8998318830655911e+00  8.9581618702010317e+00  8.9205697589723965e+00  8.8980704498334067e+00  8.9081244837090345e+00  8.9215642918824525e+00  8.9485388932827519e+00  8.9362142506088222e+00  8.9106871310751732e+00  9.4000689796182524e+00  9.4040660684637523e+00  9.4093856512504637e+00  9.3950902389058388e+00  9.3879043337282972e+00  9.3958686588939617e+00  9.4017825180012302e+00  9.4130308594509398e+00  9.4080226015228501e+00  9.4042701462107559e+00  9.2803486467301894e+00  9.2857014528772233e+00  9.2777318128196118e+00  9.2802893223877074e+00  9.2845328758762111e+00  9.2780015274807575e+00  9.2753338922881081e+00  9.2822334068142425e+00  9.2892391553837488e+00  9.2811982634327634e+00  9.2892233376320306e+00  9.2804514638534119e+00  9.2872465835816786e+00  9.2802833814274113e+00  9.2958673070887219e+00  9.4323539151296334e+00  9.4501589361743541e+00  9.4527104346635973e+00  9.4413139611291452e+00  9.4380617517842680e+00  9.4444883930495251e+00  9.4575543151629873e+00  9.4475483698459257e+00  9.4452435472841501e+00  9.4441747596611343e+00  9.2884136546897693e+00  9.2864311739020291e+00  9.2877290092147469e+00  9.2925348199137066e+00  9.2920341267131743e+00  9.2825556004494754e+00  9.2781325205359053e+00  9.2961394787989082e+00  9.2957087624695571e+00  9.2950354162602213e+00  9.3098639702645247e+00  9.3153300570900228e+00  9.3201607346263593e+00  9.3176203494126888e+00  9.3137292987773641e+00  9.3122482424525383e+00  9.3148363446231102e+00  9.3251589656875442e+00  9.3211290661550610e+00  9.3185273541682783e+00  9.2502610593230674e+00  9.2600000825444617e+00  9.2656613421570846e+00  9.2605902288735376e+00  9.2683007614386490e+00  9.2677536813730761e+00  9.2735388814534208e+00  9.2763358819373600e+00  9.2702571237778333e+00  9.2474750352388320e+00  9.2463120682620801e+00  9.2499768217681311e+00  9.2465193565188439e+00  9.2588270514800701e+00  9.2579982710687894e+00  9.2546485675182328e+00  9.2603213725874429e+00  9.2497477259597112e+00  9.2521947189079619e+00  9.2425096926917902e+00  9.2527497437462642e+00  9.2440636529118105e+00  9.2622805956134862e+00  9.3677354998970443e+00  9.3567343969575951e+00  9.3656322548265312e+00  9.3505667368911745e+00  9.3629952629258906e+00  9.2258470381820867e+00  9.2336348889928068e+00  9.2219675786590241e+00  9.2260468206626989e+00  9.2390832272008812e+00  9.2375594644836561e+00  9.2254449194551000e+00  9.2224392197432810e+00  9.2198355649498733e+00  9.1937028566775538e+00  9.2136255645554890e+00  9.2092166983822104e+00  9.2080491227314010e+00  9.2024893310363858e+00  9.1988002776171935e+00  9.2061135456910321e+00  9.2071090721080751e+00  9.2093385234120753e+00  9.2516704999953330e+00  9.2586381282734767e+00  9.2658180846915528e+00  9.2570031228448926e+00  9.2622034266680640e+00  9.2556413992397086e+00  9.2619000299184577e+00  9.2696077271743089e+00  9.2581426182920090e+00  9.2398139577429887e+00  9.2450440670626204e+00  9.2516051019450618e+00  9.2474988837207022e+00  9.2345230048928340e+00  9.2522661047527297e+00  9.4276023532960362e+00  9.4199194384065024e+00  9.4229178749977240e+00  9.4302991293645988e+00  9.4300894657146568e+00  9.4383409829148217e+00  9.3048209587033206e+00  9.3003055631676350e+00  9.2931636562739968e+00  9.3010760814336670e+00  9.2868783164900020e+00  9.3146608743062700e+00  9.3015797390058523e+00  9.3100180174582778e+00  9.3098467882094003e+00  9.2249228685533655e+00  9.2362356229338936e+00  9.2271096204710119e+00  9.2296337648840083e+00  9.2316247556117510e+00  9.3853073306875192e+00  9.3861402746092928e+00  9.3921016172437053e+00  9.3952436850085377e+00  9.3762794688687503e+00  9.3738959152680881e+00  9.3824618462615170e+00  9.3782226230809549e+00  9.3693333317314806e+00  9.2692604448989115e+00  9.2707243494419966e+00  9.2687541716416870e+00  9.2612237362878673e+00  9.2641639847812733e+00  9.2629431433201646e+00  9.2780016214452132e+00  9.2123868183854611e+00  9.2196012148457811e+00  9.2171395499471913e+00  9.2087032006779026e+00  9.2148618117613932e+00  9.2150699889512246e+00  9.2172746813022925e+00  9.2293498517004942e+00  9.2338885471988323e+00  9.2329228805462993e+00  9.2279473601060644e+00  9.2259087353532916e+00  9.2391427285486039e+00  9.2316561216591904e+00  9.2328614483816445e+00  9.2397653448447041e+00  9.2925978230546384e+00  9.3004349078102830e+00  9.2916858467678534e+00  9.2970191878418298e+00  9.3000578035543668e+00  9.2896983465431475e+00  9.2089059841244989e+00  9.2214763329853700e+00  9.2125583050673381e+00  9.2184360880121794e+00  9.2067714578723869e+00  9.2145616681539924e+00  9.2263526794967117e+00  9.2538883129749703e+00  9.2650614706430670e+00  9.2597750897606712e+00  9.2670852616791315e+00  9.2618711330255383e+00  9.2721021048349765e+00  9.2793744588084550e+00  9.2746317757873875e+00  9.2798268441283867e+00  9.2709744416491979e+00  9.2834717151366526e+00  9.4992771554810869e+00  9.4728642773079290e+00  9.4658854483881569e+00  9.4593780879140539e+00  9.4506134431733688e+00  9.4428829105920968e+00  9.4558192637432317e+00  9.2646147715942195e+00  9.2297554056019244e+00  9.2313866680238288e+00  9.2378396847546345e+00  9.2363624888936595e+00  9.2243132670967132e+00  9.2198501214378243e+00  9.2319510843234855e+00  9.2421138899804340e+00  9.2425848799796775e+00  9.2717729987495119e+00  9.2673723467300633e+00  9.2751921323850048e+00  9.2731963357739051e+00  9.2813548230102771e+00  9.2156933169896043e+00  9.2105103657945673e+00  9.2129955506469123e+00  9.2154192311437022e+00  9.2245238845116404e+00  9.2269220792561750e+00  9.2265922227647543e+00  9.2239636740785258e+00  9.2236257105519162e+00  9.2211455566123064e+00  9.2462864649956682e+00  9.2638120859438899e+00  9.2472015124379201e+00  9.2520776534477438e+00  9.2599206542966837e+00  9.2580536856619773e+00  9.3613055782640942e+00  9.3588021206861125e+00  9.3658323745856205e+00  9.3709699444642975e+00  9.3561300528125990e+00  9.3511626073042411e+00  9.3421409960073323e+00  9.2971449080999147e+00  9.2924136338988443e+00  9.2933319536578995e+00  9.2895747683412324e+00  9.2970027599397103e+00  9.2913247147889813e+00  9.2884368707651763e+00  9.4460857822746078e+00  9.4704518299440839e+00  9.4561225432833194e+00  9.4518803649988854e+00  9.4647956095941570e+00  9.4382123202800550e+00  9.4894566017627753e+00  9.3067418693385768e+00  9.3127932507759432e+00  9.3110801101139540e+00  9.3007360981626821e+00  9.3167038314570068e+00  9.3267490988265322e+00  9.2531952779608329e+00  9.2493028436302502e+00  9.3083397909366852e+00  9.3142072313077087e+00  9.3038844321066350e+00  9.3076770660219985e+00  9.3144290156087308e+00  9.4324114022852683e+00  9.4366378889607283e+00  9.4235967715062170e+00  9.4368424576679057e+00  9.4320681840349927e+00  9.4299418156544608e+00  9.4235363569751982e+00  9.4307503223552374e+00  9.4169730878413258e+00  9.2698440121589343e+00  9.2649499363522221e+00  9.2760932597477286e+00  9.2811975538166855e+00  9.2855786083064036e+00  9.4728928934757608e+00  9.5081379350662498e+00  9.5093256960323753e+00  9.4814605327778487e+00  9.1821251409495410e+00  9.1962407965672579e+00  9.1772899047057859e+00  9.1969955718099534e+00  9.1860031981847694e+00  9.1822731594534961e+00  9.1664394282308557e+00  9.3281817655583996e+00  9.3448272325026540e+00  9.3385174191273972e+00  9.3244619735274661e+00  9.3514772172127500e+00  9.3347170188083695e+00  9.3241057301878545e+00  9.2664765663320914e+00  9.2692242414850377e+00  9.2721173801219372e+00  9.2634563064644322e+00  9.1953725583399546e+00  9.2178617350162728e+00  9.3239397501996510e+00  9.3223126731108792e+00  9.3250517832416104e+00  9.3346352271425026e+00  9.3004394755318121e+00  9.2977943214302901e+00  9.2729761475028241e+00  9.2682337966100334e+00  9.2800928385459134e+00  9.2707879572172640e+00  9.4140633421661128e+00  9.4230821010474486e+00  9.4233283553220897e+00  9.4509152396737388e+00  9.4429599243586271e+00  9.4520195041071666e+00  9.4390347283663250e+00  9.4547185126274833e+00  9.4826708511222755e+00  9.4769410236779823e+00  9.4583119932645410e+00  9.4670683521272760e+00  9.4744668055617733e+00  9.4749006418091639e+00  9.4632652126497270e+00  9.4600282290712876e+00  9.4999431379097974e+00  9.4937894698138852e+00  9.4665569052325935e+00  9.4670234799969482e+00  9.4425099293123864e+00  9.4560285398614994e+00  9.3696877818308728e+00  9.3733809613627148e+00  9.3784406375256477e+00  9.3667955418159696e+00  9.3748208852772414e+00  9.3823862640253850e+00  9.3070831666059401e+00  9.2941482174195489e+00  9.2714817133895178e+00  9.2768954984857732e+00  9.2949508454298648e+00  9.3113809009099331e+00  9.2020673708609930e+00  9.2319872637997786e+00  9.2263276705603623e+00  9.3910466194791429e+00  9.3972498427329185e+00  9.3841070746655451e+00  9.4015386197054287e+00  9.4046651925856910e+00  9.3883379618411773e+00  9.4180690263326383e+00  9.4329887232246268e+00  9.5019952934518059e+00  9.4314909648641478e+00  9.4006981123792333e+00  9.4315482909159094e+00  9.4143988489797668e+00  9.4151544791717878e+00  9.3071612707644285e+00  9.1991919012937178e+00  9.1967331114471911e+00  9.1990728296453330e+00  9.2007032403359279e+00  9.1870762136573152e+00  9.1843079366617495e+00  9.1978756389604861e+00  9.2013302688013745e+00  9.2744496008258395e+00  9.2089451130354796e+00  9.2209421968678704e+00  9.2140962846003411e+00  9.2175024918805857e+00  9.4180280881322460e+00  9.4326669245647228e+00  9.4249605110770176e+00  9.4178049457100652e+00  9.4241407834221551e+00  9.2751803389307401e+00  9.4514008240089957e+00  9.4225621661382757e+00  9.4368658503814480e+00  9.4103012414979936e+00  9.4319020134114417e+00  9.4443533626626905e+00  9.4170195283747997e+00  9.4113338299803253e+00  9.4053153484161829e+00  9.4256598946732719e+00  9.3379949693878395e+00  9.3335326968337711e+00  9.3307870764687291e+00  9.4173784156830784e+00  9.4329743476806858e+00  9.4683403192976225e+00  9.4965497567546020e+00  9.4648223291860436e+00  9.2629662126879406e+00  9.2571324637497057e+00  9.2602131959266725e+00  9.3079274032672998e+00  9.3094412135496185e+00  9.2327289309847949e+00  9.2708119918611924e+00  9.4785177518650787e+00  9.4871658660775360e+00  9.4802570255954315e+00  9.4661614513298176e+00  9.2847807460643601e+00  9.4444330923956574e+00  9.2190120302824923e+00  9.2161524657465854e+00  9.3539647093967275e+00  9.3461623098233577e+00  9.2579431648027448e+00  9.2466158672372849e+00  9.2535358567461241e+00  9.2267824325342271e+00  9.2220723035191039e+00  9.3001684482009352e+00  9.3033536736767228e+00  9.4447352200557972e+00  9.2698573303606135e+00  9.2872249393145196e+00  9.3527543469204506e+00  9.1892391395311446e+00  9.3003346231961252e+00  9.2660530307208528e+00  9.5122782935482899e+00  9.4791499818252287e+00  9.5004645520501398e+00  9.5074057816670035e+00  9.4141248696768081e+00  9.4273430338499598e+00  9.4103696994634376e+00  9.4072231378365156e+00  9.2797399836538013e+00  9.2291126972435116e+00  9.4400922184681022e+00  9.3893247114848304e+00  9.2843757502536963e+00  9.3736338527152352e+00  9.4041282968101196e+00  9.2780978235789355e+00  9.2831681980585294e+00  9.2800112131403143e+00  9.2782232681378485e+00  9.4745547726573971e+00  9.2437856016951496e+00  9.2436402555140980e+00  9.2393403436736090e+00  9.2468977050295305e+00  9.2332887907806622e+00  9.2366689440010248e+00  9.2306540573447933e+00  9.2367069603141090e+00  9.2366801307556514e+00  9.3017516553781725e+00  9.3021986919244011e+00  9.3177964856843172e+00  9.3047345294985675e+00  9.2849826902231491e+00  9.2837198959800826e+00  9.2841949922863591e+00  9.4774998303221167e+00  9.2488589675370676e+00  9.2436931701665070e+00  9.2505536603939138e+00  9.1982011702023527e+00  9.3348646480528430e+00  9.2883326087753577e+00  9.2956164151224829e+00  9.2963098593821254e+00  9.2928082578694742e+00  9.2752907117365702e+00  9.2780840561603863e+00  9.2877914768542666e+00  9.2679523576911738e+00  9.2886350547063365e+00  9.5163651840261139e+00  9.3283724095223821e+00  9.2933179834341590e+00  9.3667497934381068e+00  9.2077591061342652e+00  9.2093588588044746e+00  9.2158496144922921e+00  9.2097406793644581e+00  9.2050285477476983e+00  9.2056618707250433e+00  9.2032828867246153e+00  9.2068425408077275e+00  9.1500436424455280e+00  9.1720901654512694e+00  9.1623193899318434e+00  9.4252164054153464e+00  9.3759067413395307e+00  9.1921755690808045e+00  9.3371532218935940e+00  9.3413920969958557e+00  9.4924348054461607e+00  9.3784003147455319e+00  9.3836247483858344e+00  9.4469665649295891e+00  9.3145178267672488e+00  9.3312348968430925e+00  9.3231624526493579e+00  9.3563654300503547e+00  9.3718766441585455e+00  9.4476774617657746e+00  9.2882734861498726e+00  9.3979697248971235e+00  9.2181585978865250e+00  9.2651523033540517e+00  9.2338299794599212e+00  9.3025419629539812e+00  9.2406918408111398e+00  9.4464448093823474e+00  9.2918575222522986e+00  9.3008045050837875e+00  9.3018622946863427e+00  9.2953204322735008e+00  9.2946236422546455e+00  9.3078335001362849e+00  9.2996820805765417e+00  9.4218699591399613e+00  9.4227141747024419e+00  9.4170117224720045e+00  9.4387159335028059e+00  9.4276070145594701e+00  9.4705721417376676e+00  9.4378987036621620e+00  9.4481881347301400e+00  9.4338104188108662e+00  9.4128058995414143e+00  9.3915960248559252e+00  9.3754240704085170e+00  9.3844644190281805e+00  9.3846155218110496e+00  9.3794510035783656e+00  9.3940689616748259e+00  9.3692852501890496e+00  9.3959332203657482e+00  9.3881125654651516e+00  9.3801481781219298e+00  9.3262970549579318e+00  9.3276632905551313e+00  9.3314178922381785e+00  9.3280651445890932e+00  9.3286701063430009e+00  9.3261432378815137e+00  9.3296187829679109e+00  9.3326232523488066e+00  9.3259185836057608e+00  9.3300482660130371e+00  9.3523250238895148e+00  9.3559722899494755e+00  9.3481197283972222e+00  9.3546676694112953e+00  9.3633156063006187e+00  9.3530915007151041e+00  9.3489858019598060e+00  9.3608396741923379e+00  9.3699055091006098e+00  9.3440569683723798e+00  9.3100239611370768e+00  9.3147914397518470e+00  9.3150367572607475e+00  9.3113787024607291e+00  9.3133597457273556e+00  9.3140360346928581e+00  9.3165595761325068e+00  9.3164984035444540e+00  9.3166560818295547e+00  9.3136808340692792e+00  9.2713494087477013e+00  9.2694860645809634e+00  9.2669978648154085e+00  9.2783428143767761e+00  9.2730686353067266e+00  9.2754018898456749e+00  9.2807909823567094e+00  9.2852872845997840e+00  9.2741390884310437e+00  9.2627399699454003e+00  9.3129821075907788e+00  9.3176930831374154e+00  9.3152263965233608e+00  9.3158376076170395e+00  9.3165264111124237e+00  9.3175498725664028e+00  9.3170414474646766e+00  9.3179113617875515e+00  9.3185959474333551e+00  9.3170480353445377e+00  9.3260075667666715e+00  9.3275515235990696e+00  9.3255506917926159e+00  9.3267665178117554e+00  9.3276532197313138e+00  9.3286735682127375e+00  9.3267106768269485e+00  9.3252240236465731e+00  9.3275599635597874e+00  9.3297770970385496e+00  9.3258857223661948e+00  9.3222016187043710e+00  9.3224754149251225e+00  9.3225448522170016e+00  9.3188467243166890e+00  9.3183780661806566e+00  9.3193176017706012e+00  9.3199620116943045e+00  9.3190569955035514e+00  9.3180883307553994e+00  9.3272559643917976e+00  9.3277278835141306e+00  9.3272078496944548e+00  9.3273134963307207e+00  9.3276893070158948e+00  9.3280996947629244e+00  9.3276679972912468e+00  9.3273364083859285e+00  9.3272908940039105e+00  9.3272717180120370e+00  9.3218922608854324e+00  9.3262036399881971e+00  9.3162198099407068e+00  9.3249124399171972e+00  9.3350701843080977e+00  9.3325004210715417e+00  9.3232350829139694e+00  9.3125253453868009e+00  9.3225667335630593e+00  9.3311893956126166e+00  9.4004355572661762e+00  9.3999537839397362e+00  9.4057154023927314e+00  9.3985190338514801e+00  9