<?xml version="1.0"?>
<VTKFile type="UnstructuredGrid"  version="0.1"  >
<UnstructuredGrid>
<Piece  NumberOfPoints="4524" NumberOfCells="20098">
<Points>
<DataArray  type="Float64"  NumberOfComponents="3"  format="ascii">2.6294519017 0.9035404793 16.6780513243  1.6470420625 0.9532102270499999 16.84533514205  2.2445225477 1.7401050855 16.805161648  2.15560505695 1.3351328597 17.3811491044  1.55812457175 0.54823800125 17.42132259845  2.0319714165 0.11664562085 16.71822481835  1.4344909313 -0.6702492376 16.7583983124  1.8595931937 2.5766696917 16.9322719717  2.4340519678 0.11664562085 17.2840497606  2.3718009774 3.9364420369 15.6003075586  2.72127067615 2.67344976125 14.7904587933  2.06177037135 2.8993000482 15.05057755085  2.78839611355 2.7444797859 15.4631950152  3.0313012822 3.71059174995 15.34018880105  3.690801587 3.484741463 15.0800700435  3.44789641835 2.51862949895 15.20307625765  3.2049912497 1.5525175349 15.3260824718  2.4783655075 1.7073377972 14.91346500745  1.7517397653 1.8621580595 14.5008475431  3.2564544145 3.4568084844 16.7424824697  2.7860034374 2.5456778968 16.4215973509  3.04210732925 3.2255640694 15.75561514435  3.4844340478 2.98574729315 16.3267025999  2.11569708555 3.2565558643 16.26628976515  2.81412769595 3.69662526065 16.17139501415  3.7124136811 2.5146861019 15.9109227301  -0.6561989643999999 1.3719184794 15.2044131399  0.4327588838 1.48924278255 15.57859212815  0.18235158215 0.3508346208999999 15.38199523275  0.656077805 1.01781603405 15.25025104755  1.9683545744 0.6637135887 15.2960889552  1.27130943035 0.46815892405 15.756174221  1.7450356532 1.1351403372 15.6244300358  1.49462835155 -0.003267824450000012 15.4278331404  1.0209021287 -0.6702492376 15.5595773256  1.521716732 1.6065670857 15.9527711164  -0.6561989643999999 1.728594174 16.4582353752  -0.002921964699999946 1.0802073137 15.72957083005  -0.002921964699999946 1.258545161 16.3564819477  0.4327588838 1.66758062985 16.2055032458  -0.6561989643999999 1.5502563267 15.83132425755  0.650355035 0.788496148 16.2547285202  1.0860358835 1.19753161685 16.1037498183  2.5322922217 2.0645936133 16.12917722175  3.4587024654 2.0336018184 15.61850260095  1.0653099796 3.7884566113 16.0347739338  0.6016971146500001 2.65989066065 16.2962924272  0.6016971146500001 2.79911627125 16.93221468325  1.46245158665 3.1825631515 16.48352295275  0.2045555076000001 3.40500973105 16.4834656643  0.2045555076000001 3.26578412045 15.84754340825  -0.6561989643999999 3.0215628508 16.9321573948  -0.6561989643999999 2.8823372402 16.29623513875  -0.6561989643999999 2.7431116296 15.6603128827  3.5728186477 1.6636787244 16.7900077727  2.7162059207 2.12017420805 16.8611398722  2.54726768985 1.63512290505 16.37138944455  3.1011352747 1.28360960185 16.7340295485  2.07558431685 1.2550537825 16.31541122035  1.69065496285 2.0916183887 16.44252154405  1.8903296451 3.9927768901 16.8407451001  1.7185554785 3.8624493241 15.8175407462  2.13106531125 3.9646094635 16.22052632935  1.47781981235 3.8906167507 16.43775951695  -0.6561989643999999 1.9711879348 17.7034111481  0.6016971146500001 1.75835015055 17.10085667945  0.6016971146500001 2.27392881325 17.3178415599  -0.6561989643999999 1.8498910544 17.08082326165  -0.6561989643999999 1.4556092721 17.48642626765  0.6016971146500001 2.15263193285 16.69525367345  -0.6561989643999999 1.3343123917 16.8638383812  -0.6561989643999999 0.9400306094000001 17.2694413872  0.83562858185 0.05912345520000001 15.9071529229  3.3889049487 1.60809812965 16.05804512225  3.6426161644 2.08918241315 16.3504652514  0.5127796239000001 1.35337792475 17.67684413585  0.2411996413 0.1348906859 17.696877613  0.3891459834500001 0.1348906859 17.0139198498  0.4327588838 1.27329884755 16.6111062518  0.4327588838 2.17483935765 15.80654199955  -0.6561989643999999 2.2358529018 16.05927412895  -0.6561989643999999 1.0949626615 18.2789360036  -0.6561989643999999 1.01749663545 17.7741886954  1.9467588547 2.7715045613 15.7765393375  2.36335399085 1.5795423103 15.6394267941  1.63672824865 1.7343625726 15.22680932975  1.47810383165 0.46815892405 16.3555847144  1.22769653 -0.6702492376 16.158987819  1.70142275285 -0.003267824450000012 16.0272436338  0.54777040045 1.61703826945 14.8526303415  1.86004716985 1.2629358241 14.89846824915  2.62728842995 1.71520198225 17.4371273286  -0.6561989643999999 2.3750785124 16.695196385  -0.6561989643999999 2.4963753928 17.31778427145  1.04242298315 0.05912345520000001 16.5065634163  1.2935133558 2.6975118485 15.9937725251  3.9277051287 2.4684223402 15.20515136455  3.91689908165 2.95345002075 14.78972502125  3.70160763405 2.99971378245 15.4954963868  3.673993913 1.9873380567 14.9127312354  4.1429965763 2.4221585785 14.499379999  0.54777040045 2.30263484455 15.0805802129  -0.6561989643999999 2.0575150545 15.4323630113  0.8578010065 3.33977683325 15.63031022065  2.58667291205 1.1081155618 15.3110857135  2.5733920298 3.72479268725 16.7916137849  3.47362800075 3.4707749737 15.9112762566  2.29890323805 0.783627034 15.98707013975  3.00294552235 0.93272525245 17.240420375  2.9172215757 1.2280290071 16.00206689805  -0.002921964699999946 0.8642633787 16.7620849537  11.8328817158 -0.6702492376 17.6310485251  11.68960198835 0.56448033925 18.2651957321  11.8066182746 -0.6702492376 18.3207390966  11.13471073245 -0.6702492376 18.21393647945  12.9463304494 1.4099465652 18.0786483322  12.85739734065 1.04576429985 17.7230129935  12.3896060826 0.3698486638 17.85484842865  12.8280829939 0.3698486638 18.21272317595  12.7098355384 -0.6702492376 18.3467980197  12.73914988515 0.005666398449999999 17.85708783725  12.2713586271 -0.6702492376 17.9889232724  12.30067297385 0.005666398449999999 17.49921308995  12.7684642319 0.6815820345 17.3673776548  12.2636857563 2.5664535713 17.9909173863  12.24632635515 1.60457824065 18.48899563565  12.60500810285 1.98820006825 18.03478285925  12.9245469896 1.9723603244 18.6572220871  8.5122396289 2.3774114853 2.3689680072  8.694810014449999 0.8535811238500001 2.0405559707  8.0270774082 1.5354151718 2.278668413  8.611255337100001 0.8535811238500001 2.687766272  8.710271045300001 -0.6702492376 3.0065645368  8.79382572265 -0.6702492376 2.3593542355  8.1260931164 0.01158481035000003 2.5974666778  7.5419151875 0.6934188583000001 2.1883688188  8.209647793749999 0.01158481035000003 1.9502563765  8.8773804 -0.6702492376 1.7121439342  7.9542566735 1.5461291167 7.4357333678  8.9217149444 1.6227349694 6.6580612379  8.9918896394 1.5870741403 7.25299199915  8.720780286549999 2.04497299535 6.7718906982  7.884081978499999 1.5817899458 6.84080260655  7.8139072835 1.6174507749 6.2458718453  8.650605591550001 2.08063382445 6.17695993695  9.487303899600001 2.543816874 6.1080480286  9.758413252450001 2.08591801895 6.589149329550001  10.0295226053 1.6280191639 7.0702506305  12.2563506551 1.2810439079 -0.6591004764  12.5580827748 2.14417608335 0.40727694275  11.99277140965 1.70260580835 0.4395835845  12.6881246336 1.50949534395 0.6190318108999999  13.1198986121 1.73794678 1.8971640982  12.9898567533 2.3726275194 1.68540923005  12.42454538815 1.9310572444 1.7177158718  11.7291921642 2.1241677088 1.5382676454  12.29450352935 2.5657379838 1.50596100365  12.8598148945 3.0073082588 1.4736543619  9.708528656 -0.6702492376 5.3642316238  9.710632684650001 0.55250391645 4.6560626009  9.01269869605 0.4196648897 4.714593032950001  9.359159228700001 0.4196648897 5.24450210345  10.0570932173 0.55250391645 5.1859716714  9.362068123349999 -0.6702492376 4.8343225533  9.0156075907 -0.6702492376 4.3044134828  9.0097898014 1.509579017 5.1247725831  9.707723789999999 1.64241804375 5.06624215105  10.4056577786 1.7752570705 5.007711719  12.0440239269 4.5101168211 7.0652960799  11.71469497475 3.40992172195 6.3449740776  11.25250414335 4.339131977499999 6.37378235395  11.69310974345 3.75127777925 7.040097872600001  12.0656091582 4.1687607638 6.370172284900001  12.0871943895 3.8274047065 5.6750484899  10.9015899599 3.58029293565 6.348584146649999  11.27408937465 3.9977759202 5.67865855895  11.34219556 2.9924387374 7.0148996653  10.4609843598 4.1681471339 5.682268628  11.1845584677 2.9320167522 5.3042858907  10.82277141375 3.55008194305 5.49327725935  11.26337701385 2.9622277448 6.159592778  11.6358764286 3.37971072935 5.4896671903  13.1002903511 4.8585932854 4.9043360992  12.6544261848 3.98804574915 4.538778753  13.48047271495 4.3995280312 4.775611513199999  13.22769683295 4.517665249949999 5.211734202100001  13.3551033148 4.1767372145 5.519132305  12.78183266665 3.6471177137 4.8461768559  13.6078791968 4.05859999575 5.0830096161  13.8606550788 3.940462777 4.6468869272  13.03460854865 3.52898049495 4.410054167  12.2085620185 3.1174982129 4.1732214068  11.9892266969 -0.6702492376 4.8193907565  11.4102581039 0.5292184868000001 4.32561827965  12.04825026055 0.5292184868000001 4.4937480718  11.19744223775 0.55250391645 4.913551237749999  11.35123454025 -0.6702492376 4.65126096435  10.7132423836 -0.6702492376 4.4831311722  10.5594500811 0.55250391645 4.7454214456  11.2564658014 1.75197164085 4.587908553049999  12.1072738242 1.7286862112 4.1681053871  10.4792191671 -0.6702492376 2.0765104174  11.16507935145 0.6000452031 2.12868411995  11.59511716515 0.007283409150000031 1.64963111145  10.87963317445 0.007283409150000031 1.57027785355  10.44959536075 0.6000452031 2.04933086205  11.1947031578 -0.6702492376 2.1558636753  11.9101871485 -0.6702492376 2.2352169332  11.2800471818 0.6848160559000001 1.0640452897  10.8500093681 1.27757784985 1.5430982982  10.4199715544 1.8703396438 2.0221513067  9.3682204426 5.0995808526 5.3179239994  8.6012463941 4.563831976 5.07102948655  9.049330867150001 4.765704507500001 4.514331443550001  9.170408765000001 4.38399919755 5.301850411749999  8.799058071699999 5.27941363105 5.0871030742  9.61849323805 4.58587172905 4.74515236875  8.2298957008 5.4592464095 4.856282149  9.8687660335 4.0721626055 4.1723807381  9.420681560449999 3.870290074 4.7290787811  8.972597087400001 3.6684175425 5.2857768241  10.3381591091 2.3226533159 3.6929734317  10.34563782235 1.6980
[...]
<PointData  Vectors="u"> 
<DataArray  type="Float64"  Name="u"  NumberOfComponents="3" format="ascii">1.9062094199725952e+00 -6.2614250544311489e-01 5.6674569910992414e+00  1.2457462293848665e+00 -6.5326764061278242e-01 4.5070075310579210e+00  1.9184271954542984e+00 -3.0656795151336313e-01 5.2343974355284413e+00  2.3631231718638350e+00 -2.6997816338213459e-01 4.2513378182926038e+00  1.5361010717270258e+00 -5.9342865431932978e-01 3.4875778132724840e+00  1.7493162335316603e+00 -1.0404684734893979e+00 4.6910014521256151e+00  4.9017649293676807e-01 -8.4511129440491983e-01 4.0973860924045686e+00  1.8024288796375403e+00 -2.2589295538950030e-01 5.0054072568582972e+00  2.1482823954602539e+00 -5.7603931162526545e-01 3.6828426052093208e+00  5.7920558852646055e-02 -1.6935419609784390e+00 7.3290406943130177e+00  1.2657162392028326e-01 -1.0089860905238794e+00 5.0317713286144476e+00  1.8703300336171197e-01 -1.2530432048961138e+00 5.5841535570512528e+00  2.7248249140586950e-01 -9.2925225447818827e-01 6.4887245513936733e+00  -3.0106086344541177e-01 -2.6339416970904028e+00 7.1881056121666020e+00  -1.3855360782121169e+00 -2.2427809550289086e+00 5.2348971541439600e+00  -1.2609621222406993e+00 -5.6077360831238732e-01 6.1862299853222709e+00  -6.3058611208253534e-01 -4.0886656714399776e-02 7.0580964043918897e+00  -1.9222439837505853e-01 -2.3122644169463184e-02 5.4271114236117377e+00  7.3661184065448915e-02 -5.2882657881293660e-01 4.9781835699732415e+00  5.1073871428621471e+00 -1.0785883879157024e-01 9.0818357189799226e+00  2.0349338184020080e+00 -5.6121832318450204e-01 6.9237080716177051e+00  -5.8196302884366613e-01 -1.2925518400976406e+00 7.3837018805314196e+00  1.6520975522021961e+00 -3.0424683026700317e+00 1.1648923981504804e+01  7.9702254968992137e-01 -5.5605502224849368e-01 6.1721351486133891e+00  5.1420182426725303e-01 -1.4512453056656565e+00 7.6965444577117861e+00  7.0216851941634872e-01 -1.6758934077699590e+00 1.0364363109419864e+01  4.1041526514291032e-01 -3.5877034462867963e-01 3.8859006671376775e+00  6.2564966951577994e-01 -2.5212084446237842e-01 4.7728022786998983e+00  1.5322598121015591e+00 -1.3054880377612958e+00 1.1263375867638796e+00  7.0535299151737271e-02 -1.9256468735404084e+00 4.6530364697275273e+00  -6.5648066068546140e-01 -4.5237563214234250e-01 6.9380315318867591e+00  8.3112332649278065e-01 -1.3997832898664633e+00 4.4970285036071109e+00  2.9959787400977206e-01 -8.4689836819859610e-01 5.5453049804756747e+00  6.5936137458831579e-01 -2.1832579127240370e+00 2.9357583438544976e+00  1.5042616056140190e+00 -8.4554442700542654e-01 1.6755192956387881e+00  7.0001596292145341e-01 -5.1744548025257520e-01 5.3315560411303746e+00  -1.5415352591081335e-02 -5.8787800858623163e-01 4.8523287362269363e+00  1.7836982472133354e+00 1.3695356851487288e+00 3.9973643148321725e+00  4.6598094445098998e-01 -9.3017182137703991e-01 6.5902478995639857e+00  5.1641955240142301e-01 -5.5306792879706013e-01 4.6604678504707886e+00  3.1541639130076332e-01 7.9475675611811303e-01 4.7921602885010932e+00  8.9277853146568698e-01 -4.3239284480845741e-01 6.2556936703963792e+00  7.2757153622000914e-01 -6.7560821326087195e-01 5.6591919264735777e+00  1.3835460102692705e+00 -4.6529878062227192e-01 6.2847009428973060e+00  -5.3723875639160357e-01 -6.9055164127289970e-01 8.5242220609214137e+00  -7.5588499261506251e-02 4.9893142996579314e-02 6.1244227189934772e+00  3.0829739670120265e-01 -9.0995952782206818e-02 4.6287059785014808e+00  5.8965847909441060e-01 9.2393994234141200e-02 3.9763915651235684e+00  8.1552051218512922e-01 -7.7885229150182284e-02 5.2661635567835763e+00  -1.9360809619513061e-01 7.8920687865096306e-01 4.2917910780140520e+00  -4.7351298414908083e-01 1.9593638317703763e-01 5.7642980828976960e+00  -1.6623692502688212e-01 5.1393725226284670e-01 3.5391376304971094e+00  -2.4289062069650877e-01 8.1445922309318064e-01 4.3605921785564412e+00  -2.6795976883721390e-01 2.9449653087726047e-01 5.1364846615619522e+00  4.3569176902421516e+00 5.9436498670002924e-01 7.6384939245767498e+00  2.7163048377331744e+00 -6.2945636305164990e-02 5.9644201579472229e+00  1.3759923017488449e+00 -3.5819161007633149e-01 6.1466818582836344e+00  2.5245071564387880e+00 -1.2898280513897390e-02 7.0238073120999056e+00  1.0474563632718599e+00 -6.0791542155470057e-01 5.4208376643835461e+00  1.2141417307567559e+00 -4.2153112324812742e-01 5.1322697059406606e+00  8.8507216414436229e-01 1.3275723790188024e-01 5.4067190226474580e+00  2.3190382939597215e-01 -5.5550684968535713e-01 7.2160609358732755e+00  -2.3166284418389832e-01 3.4754450424711664e-01 6.4475938410011056e+00  5.4382989603314269e-01 7.6993439269719421e-01 5.5980380152238700e+00  3.1049309443166840e-03 -2.2644552046607852e-01 2.4566277237033876e+00  6.9925758059150656e-01 -5.3143669857641473e-01 3.6058397428051201e+00  8.1051668640888541e-01 -2.2637842050484241e-01 3.3474959035930563e+00  -4.9939824534606561e-02 -7.9234542330582336e-01 3.2615895288890200e+00  -2.1085888553302928e-02 -5.8949914799440084e-01 2.4169931393165904e+00  5.3216284272292491e-01 -3.8898556853159078e-01 4.1615540334137542e+00  -4.2371989105108698e-01 -1.9879047908990826e+00 2.8722302007050891e+00  -2.6095198680802134e-01 -1.1326542069914893e+00 1.6431472462016354e+00  2.6766203693938180e+00 -4.6654219725812440e-01 3.9478650753650197e+00  1.6958220390296810e+00 9.9823535190113347e-02 7.8374454002869500e+00  3.8612517267340425e+00 4.5536103033694930e-01 9.1390478601810550e+00  9.3255956755599156e-01 -5.9535288759312488e-01 2.7062634287309737e+00  8.8039976437344514e-01 -8.1219722722238930e-01 1.7504732938820087e+00  -5.4045251624950530e-01 -1.6593387857858202e+00 2.2652421384281345e+00  5.5469233255555563e-02 -1.4477914480736951e+00 4.3582660706988339e+00  3.1432618161150416e-01 -3.5413932652857422e-01 4.8767401643792088e+00  -1.0080078429769700e-02 1.3219877330512211e-01 4.6855641992527275e+00  3.8807357845688834e-01 4.4498317059847116e-02 1.2584006877926743e+00  2.6927208870415587e-01 -2.0207069836881453e-01 1.7785790837503943e+00  6.6946177957799513e-01 -7.6851530066033458e-01 5.8950814933655016e+00  5.4737636291230318e-01 -4.1960222705459516e-01 6.1470078251784361e+00  2.7402839391339523e-01 -5.2023583102668758e-01 5.2722285595965497e+00  7.1113914159614577e-01 -9.9046912371199647e-01 4.8893470762888587e+00  1.9260723964594306e+00 -3.7837866985331835e-02 4.6905117048055347e+00  7.8508297324099841e-01 -1.0196146147547707e+00 4.5081717932009981e+00  1.5282258632565704e-01 -6.2441121083822093e-01 5.0750554999268180e+00  -4.1930433240794407e-01 3.0849057961377568e-01 5.5942918458024460e+00  3.2570596611309779e+00 2.3918448013840582e-03 4.7274265753032871e+00  -3.0997044674144419e-02 -2.6076292632062511e-02 3.9096797588572412e+00  -3.1403977087113816e-02 1.2074567786985221e-02 3.1145611929277703e+00  -2.3554537420220695e-01 -6.5820332740410259e-01 6.4944149724746527e+00  4.8375255378115034e-01 -5.0503245586828638e-01 5.2614377333829738e+00  -2.0081039140857744e+00 -1.2264826525597665e-01 5.8492855510150843e+00  -1.2669919397042515e+00 -1.2604647557174673e+00 3.3149935081835689e+00  -1.6379097350052736e+00 -1.4634544107760965e+00 6.9764478907327199e+00  -1.8614927510141448e+00 3.5620835530652695e-01 4.8203687610319923e+00  -5.4226552934052485e-01 3.2816448534112175e-01 2.3422669848272810e+00  9.5189974617018086e-02 -7.3181350006362633e-01 5.0844938687335288e+00  2.2974471012511429e-02 -2.3428061698340257e-02 4.9094353128145167e+00  4.9740050071181818e-02 -6.9593269334806118e-01 5.7364802170784248e+00  -2.5302843050519264e-02 1.3414218692112728e-01 7.2760751535129558e+00  2.2091980605154404e+00 -1.0177591725557751e+00 7.0730135070079081e+00  -1.6410467923486791e+00 -1.0008407859827042e+00 7.7708248288358694e+00  7.8714678486332323e-01 -1.1981032046425792e+00 5.6857874902561178e+00  3.0675094307320503e+00 -7.9637159782443304e-02 4.9302808801658280e+00  8.1467596432715439e-01 -3.9061642987376338e-01 6.6172466491210269e+00  -1.5209977331006233e+00 -3.0531101788386819e+00 1.7622894144621930e+00  2.4056772843430387e+00 1.5513513950663210e-01 1.0438344275867736e+01  3.5635756404513574e+00 -8.9710861827199595e-01 9.0061552131750950e+00  4.1890569128921067e+00 -1.3144056401106369e-01 8.6597322794263842e+00  3.3425651208319329e+00 -7.3795727139512518e-02 8.1950870310586943e+00  3.9672354341165326e+00 -6.5470538880067131e-01 1.2725576069667142e+01  -1.7696395970557353e-02 -9.7571446559129349e-01 1.2113714060412725e+01  3.0201215793505747e+00 -1.7465039785515841e+00 1.0328033306752319e+01  3.8773573504808438e+00 -8.0035117706735437e-01 1.1306399399735616e+01  3.2134333062325462e+00 -4.2290970410612083e-01 7.5485927513781768e+00  5.1480443237654141e+00 -5.9914163600831865e+00 6.0624937514350732e+00  6.0277347004318642e+00 -1.2479889102991553e+00 7.3765056253255219e+00  1.2536794378765592e+00 7.6944319237126568e-01 1.3771067118999692e+01  4.2207789520490796e-01 -3.2287665659429554e-01 1.0741973583551614e+01  3.6807593462008983e+00 -2.6563237733453779e+00 1.1469783102752283e+01  4.6727797014160473e+00 -8.7520592839966260e-01 1.0365430726246258e+01  3.6296853466699432e+00 -1.3774834580586577e+00 1.2710812709829687e+01  6.7848113850700873e+00 1.0401613142492308e-02 1.0993253462811136e+01  5.8199975205307297e-01 -3.7177913133890650e+00 -6.6248168225957302e+00  2.2090838801717143e+00 -1.0225558580469352e+00 -2.8217532682972979e+00  7.4854364146277341e-01 -1.1392669608596018e+00 -3.9778778876021859e+00  2.1258823788356476e+00 -1.6052248313851840e+00 -3.2594184959985828e+00  2.5591923456157599e+00 -1.7627835086141644e-01 -2.8132978871341234e+00  1.5657345772919329e+00 -6.9362587521883390e-01 -2.4947317596364655e+00  2.3261860891009816e+00 -7.7948568988747913e-01 -3.1860938398542160e+00  7.8276065448764431e-01 -3.3052640455482818e-01 -3.1552125023903019e+00  1.5013651640278882e+00 -1.2616580661347017e+00 -2.5194390963966811e+00  1.1674931068967660e+00 1.3830954261901313e-01 -5.7630232942657089e-01  1.5862537490058402e+00 -5.7978493704656247e+00 -4.2041761657289882e+00  3.0459134455523418e+00 -5.4919580101930316e+00 -4.1570070104275780e+00  3.0368967470304149e+00 -5.1889953178119370e+00 -3.9617714563964084e+00  3.1738590270577847e+00 -6.5120726523069932e+00 -3.9916322613477186e+00  1.3023508336783174e+00 -6.4372669910838267e+00 -4.4216318344327332e+00  6.8262677440920860e-01 -6.8848463823009975e+00 -4.6100107746239241e+00  3.0150910520014191e+00 -6.7854689920074502e+00 -4.2450682867985172e+00  4.7470650237331879e+00 -6.7303414431343027e+00 -4.1097476047762820e+00  4.5710494699103341e+00 -5.5510347643752374e+00 -4.1600049063436542e+00  4.4240999947482624e+00 -4.3735846616481329e+00 -4.2104866120671751e+00  6.9853766463094376e+00 -1.6267697023934917e+00 8.0172526792830601e-01  1.1358713448324796e+01 -3.5912051595173913e+00 -1.2354238520590335e+00  9.4552924717320028e+00 -2.7263246437541060e+00 -1.4346344317375128e+00  1.2046255470262148e+01 -1.4140659459877523e+00 1.2021524502309829e-01  1.5708503765601288e+01 -4.6184966131720309e+00 -3.0952734532082986e+00  1.4070850208902300e+01 -6.2036159678830494e+00 -3.3695752118423639e+00  1.2057201444134311e+01 -4.4295001426763809e+00 -3.3290001421016910e+00  9.5041445450151976e+00 -4.3350557736764372e+00 -3.7279429579429659e+00  1.0988631666190368e+01 -5.8548164285832529e+00 -3.6934610658331963e+00  1.2678056457256023e+01 -7.5552406354577881e+00 -3.7087129882813108e+00  3.5681918139479718e+00 -4.3084972140247452e-02 -4.2262718465193831e+00  4.2001293879057116e+00 -2.5727994219383148e+00 -4.3701766750785689e+00  2.8027935038022442e+00 -2.3838484151356947e+00 -4.4509763765746682e+00  3.2094429599422303e+00 -2.5485411444136377e+00 -4.2254326469832426e+00  4.7317829030767014e+00 -2.5772921299359468e+00 -4.6386153850198797e+00  3.1499900291506857e+00 -3.4101995284038372e-02 -4.2650144032499915e+00  1.8037097322748770e+00 -5.1579969021371597e-01 -3.9514526739682205e+00  2.9650572733391631e+00 -5.0569088863701488e+00 -4.6535814721745989e+00  4.5192977654223627e+00 -4.9801077827903102e+00 -4.6491719624431802e+00  5.9211922208978471e+00 -4.9470113381869396e+00 -4.8729400784070256e+00  8.6398030673105257e+00 -5.5707369152205537e+00 -2.4285227648621999e+00  7.6390739358606838e+00 -6.3212231193794510e+00 -4.2065946646487680e+00  7.9683337907611964e+00 -7.5848283746831608e+00 -2.6620318664760330e+00  7.5010669019515595e+00 -5.6966327798185308e+00 -3.4984516563845931e+00  8.5225699393470542e+00 -6.6933170191756171e+00 -3.0700187638158281e+00  8.5578130120719091e+00 -7.6864973805298549e+00 -3.9855382314902923e+00  6.9934489110371825e+00 -7.0163206993744254e+00 -3.5960164302554811e+00  7.7807735278370105e+00 -8.1986597579443856e+00 -3.5177490370596263e+00  6.6137864955700341e+00 -5.2896823860960591e+00 -4.1767040842948102e+00  7.0645872969940768e+00 -8.8190652583420253e+00 -3.2472098487527852e+00  7.4827766564189417e+00 -6.8366466650311652e+00 -4.7109854186707523e+00  7.1733606713266163e+00 -7.7976536438726001e+00 -3.9832041710486790e+00  7.1113012146858221e+00 -6.1264272772690935e+00 -4.4318293458801845e+00  8.1066885610461483e+00 -7.3160067641646194e+00 -4.4535189509979221e+00  9.4244181329682259e+00 -1.1525333318789233e+01 -3.0348524990098240e+00  9.9056820956197171e+00 -9.9579975860852432e+00 -4.8844317846744270e+00  9.7786444039323559e+00 -1.1016596466988707e+01 -4.8025604226473080e+00  9.1467918538766657e+00 -9.4383945678629342e+00 -3.2504231167108135e+00  9.2327456557470295e+00 -8.6280756684799869e+00 -4.4882352539342714e+00  1.0045309713917378e+01 -8.9310784785145998e+00 -5.4147444185818943e+00  1.0187143813395554e+01 -1.0210277527538933e+01 -5.3416845356116793e+00  1.1223725303900419e+01 -1.1809533530612015e+01 -6.3120384068341702e+00  1.1195959258917201e+01 -9.5700838464824045e+00 -5.9577838463632293e+00  1.0054034161112027e+01 -8.0943655826575363e+00 -5.4736969799430657e+00  9.5984657041239920e+00 -4.1264180636563256e-03 -6.2879474887108309e+00  8.5222027366231252e+00 -2.2868522917143235e+00 -5.2612928346132177e+00  1.0145052280447603e+01 -2.3235542239009233e+00 -6.0887800732651334e+00  7.4789028687975483e+00 -2.3848812077735455e+00 -5.4496925514188677e+00  8.1107685121843520e+00 1.3690552971525824e-03 -5.3848320914217149e+00  6.5714554172754704e+00 4.3941293978093220e-03 -4.7066237864930107e+00  6.0777451484599121e+00 -2.4221527475595654e+00 -4.8668312021796458e+00  7.8809250602413172e+00 -4.8162445590063330e+00 -5.2863305424291003e+00  1.0498303091836314e+01 -4.9069781298208515e+00 -5.8031406467410820e+00  6.7801613986077438e+00 8.7676462473855243e-01 -2.4970278880384372e-01  9.3814260377968814e+00 -1.0349955714121222e+00 -2.7036780124331554e+00  1.3805759737123383e+01 -5.1888874927724382e-01 -3.7819509882307352e+00  8.8046831807372250e+00 2.1647968119451213e+00 2.3948178573718365e-01  6.8201760929860518e+00 -6.6308068101722228e-01 -2.2440111278410684e+00  1.0120188809184260e+01 1.4895664344372497e+00 2.3848989141629778e-01  1.2413728678150367e+01 -3.0646956897764738e-01 -4.0675507662704469e+00  1.1192590333420364e+01 -1.6280799312605851e+00 -2.8594337507158505e+00  7.8312012237863238e+00 -1.5377883303451341e+00 -2.7876528890470200e+00  6.0697770470014785e+00 -3.0184416326393637e+00 -4.3135305537127238e+00  6.4988295551267674e+00 -1.0618434225599515e+01 -2.6813019921471231e+00  6.0230062314232722e+00 -1.0775272144356705e+01 -3.3152374807770020e+00  6.1971675166336482e+00 -1.1181093741989750e+01 -3.2572560054464668e+00  6.1052305229467470e+00 -1.0098303297146632e+01 -3.3178597860185803e+00  6.2746512805593753e+00 -1.0987210514014853e+01 -2.7607318273687009e+00  6.5023322250482494e+00 -1.0564627942734797e+01 -3.3082312771775686e+00  6.0005914608365369e+00 -1.1214198845987049e+01 -2.9295972933094645e+00  6.4966264314868072e+00 -1.0411835671026074e+01 -4.2280711947988880e+00  5.8407276307572706e+00 -9.7787314053100722e+00 -4.0118727855484675e+00  5.4042831976473176e+00 -9.5282528260405641e+00 -3.9537543513545370e+00  6.2002893131782599e+00 -6.0683584974841613e+00 -5.0833354313885319e+00  6.1041940176728620e+00 -4.0993100730153120e+00 -4.5957539984371589e+00  7.4220695844659703e+00 -5.1972294490481215e+00 -4.8899054323253708e+00  6.0575345281557507e+00 -4.8145878280128445e+00 -5.0916755805812626e+00  4.8826012916109978e+00 -5.0591241347511779e+00 -4.9319586348082218e+00  7.4589452766148474e+00 -3.9667316334498604e+00 -4.4445806119114550e+00  4.7655461994478712e+00 -3.3845535776888380e+00 -4.5889883389106085e+00  3.5153782485689868e+00 -3.8764243424801288e+00 -4.6548842047650485e+00  8.9001304262102341e+00 -4.5116519183373684e+00 -4.7119237856316696e+00  9.0445886509696436e+00 -8.9837414374442996e+00 -6.9489548980849958e-01  7.7238632783433570e+00 -8.8645607282001624e+00 -2.2168546206924584e+00  7.6296032850999644e+00 -8.1112672297802870e+00 -2.0194801484959819e+00  7.2995183806346216e+00 -9.8915665848563084e+00 -2.0214781013071641e+00  6.7640034635857562e+00 -9.8518275253337499e+00 -2.9254494608271755e+00  6.6425957278652596e+00 -9.2912752765663278e+00 -2.6636228320974906e+00  6.5691350608219778e+00 -7.8535049084872073e+00 -2.6710281900229154e+00  6.7858236757853252e+00 -8.2734550237545612e+00 -2.9439579003747318e+00  1.2835008394876560e+01 -1.4458458189152097e+01 -6.2879811812911024e+00  1.2645997599214422e+01 -1.0789755419218466e+01 -5.0405668648982225e+00  1.4127330220596093e+01 -1.1982632321391270e+01 -6.6878562372029906e+00  1.3527706984679446e+01 -1.3608165495915308e+01 -6.7799327828964699e+00  1.5426434051755521e+01 -1.4621677305351213e+01 -7.2051479655945014e+00  1.4910704738267908e+01 -1.0710899333757521e+01 -4.6024932758201347e+00  1.6646562977856831e+01 -1.4102185553920220e+01 -5.4101652206615469e+00  1.5380964130936722e+01 -1.3178578544966593e+01 -3.8763065474799254e+00  1.4497434268246606e+01 -1.0436303079293630e+01 -3.8561735546485663e+00  5.7561526265476788e+00 -6.9283777312753063e-03 -5.3057400921904900e+00  5.8278371707823426e+00 -2.4486246543801267e+00 -5.0361598015485285e+00  6.2749842669421376e+00 1.0671323776397413e-02 -5.1101926031501979e+00  7.5797457400965618e+00 6.3430345300566245e-03 -5.7857649305955459e+00  1.8379154542208898e+01 -3.2831459136729633e+00 5.5858435505904080e-01  1.5759038442751297e+01 -3.3598157548472547e+00 -3.1613478040383969e-01  1.8182038087779084e+01 -6.2347967794685388e+00 -9.6653539663727905e-01  2.2333148889759805e+01 -2.9742431454982610e+00 -6.0956562556434161e-02  2.2595514761866447e+01 -1.9255042788074637e+00 -7.0151784822457297e-01  1.7824247293610810e+01 -2.1243862358906953e+00 -9.0829963428089833e-01  1.9262193006784869e+01 -4.6397567514635103e+00 -2.1423406339408255e+00  2.2106774063015443e+01 -7.1627253961733190e+00 -2.6490305924974229e+00  1.8183848533024346e+01 -5.9344102776426437e+00 -3.0069972006314876e+00  8.1903181799927101e+00 -5.6037130004897886e+00 -4.9287738907415006e+00  6.5166629191831493e+00 -4.5817464029538320e+00 -5.1334741143032252e+00  6.5660729921257550e+00 -5.7639770594996174e+00 -5.4535920158572573e+00  7.4570458329413052e+00 -8.4328488987966566e+00 -5.8388970997125549e+00  7.1650704580877367e+00 -7.5963629270138684e+00 -6.1343040527261987e+00  8.0334161203392203e+00 -6.2523530255523969e+00 -5.1821062377934597e+00  6.8736263973482421e+00 -6.5988495844874890e+00 -6.0111627685368969e+00  9.2842376379717599e+00 -1.5580236108755539e+01 -1.6074284676421562e+00  7.3911880737446314e+00 -1.3847428682398480e+01 -5.3351756256234795e-01  7.4387934420052346e+00 -1.3437039918489003e+01 -1.9995618501813488e+00  7.7453929781108091e+00 -1.4468091608413873e+01 -2.6954545794672864e+00  7.5626060654559213e+00 -1.4286709350464998e+01 -2.6112899651629493e+00  6.8160436490924132e+00 -1.3936563081567146e+01 -1.6467784889121102e+00  7.0240852169829004e+00 -1.3108072384928420e+01 -2.4104460287605667e+00  6.5251680167003885e+00 -1.2352254790154182e+01 -2.2585254117164064e+00  6.3041125020268378e+00 -1.2890715253039920e+01 -1.5649500868499111e+00  5.8990392182948552e+00 -1.3222963136011046e+01 -8.8064609050398224e-01  5.6514046832166160e+00 -1.2462508760226047e+01 -4.3295577101177756e+00  4.595474916679