<?xml version="1.0"?>
<VTKFile type="UnstructuredGrid"  version="0.1"  >
<UnstructuredGrid>
<Piece  NumberOfPoints="4292" NumberOfCells="19225">
<Points>
<DataArray  type="Float64"  NumberOfComponents="3"  format="ascii">33.6816034388 26.200656614 21.1420558417  34.56737164545 25.79136657725 20.7519801203  34.0027959012 25.5253707414 21.15249883065  34.1680064848 25.8646693185 21.6007356642  34.6544095308 25.528682023 22.0594154867  35.05377469145 25.45537928175 21.2106599428  34.4891989472 25.1893834459 21.61117865315  34.3239883636 24.8500848688 21.1629418196  34.88856410785 25.11608070465 20.76242310925  35.4531398521 25.3820765405 20.3619043989  37.9845370204 29.4831600809 21.8700378255  37.1350972264 28.40853123245 21.3560515466  37.30274367605 29.5181400512 21.5728546057  37.9265270588 28.87505964995 20.87714884555  37.81689057075 28.37355126215 21.6532347664  37.6492441211 27.2639424434 21.4364317073  37.75888060915 27.7654508312 20.66034578645  37.8685170972 28.266959219 19.8842598656  37.24473371445 28.91003962025 20.57996562575  36.6209503317 29.5531200215 21.2756713859  40.6758673128 30.6959344635 24.432222725  40.01172062035 30.1526901441 23.12232112185  39.41533842360001 30.7374037296 23.63294312135  40.6758673128 30.73930286665 23.56141696045  40.01172062035 30.10932174095 23.9931268864  39.3475739279 29.5227090184 23.5540310478  39.41533842360001 30.78077213275 22.7621373568  38.75119173115 30.15079100705 23.19384728275  40.6758673128 30.7826712698 22.6906111959  38.1548095344 30.7788729957 22.8336635177  32.8592593209 36.5438880004 17.9508692722  33.02108263475 36.5074962033 16.8165371511  32.44011315655 36.17677080555001 17.01007708915  33.18908405815 36.2347187151 17.4094991243  32.6912578975 36.8166654886 17.357907299  32.5232564741 37.0894429768 16.7649453258  32.76993789380001 35.86760152025001 16.46870694125  32.27211173315 36.44954829375 16.41711511595  33.5189087954 35.9255494298 16.8681289764  32.0209669922 35.8096536107 16.0692849061  29.4367583435 34.0015700652 18.1073270956  30.36127183175 34.1293045379 18.04094205475  29.7753642847 34.57873238335 17.86534417905  30.02888803915 34.85850835615 18.5190430484  30.6210177348 35.7154466471 18.9307590012  30.9534015274 34.98624282885 18.45265800755  30.36749398035 35.4356706743 18.27706013185  30.1139702259 35.1558947015 17.6233612625  30.69987777295 34.70646685605 17.7989591382  31.28578532 34.2570390106 17.9745570139  35.9104852523 26.9547537603 17.2706190131  37.0452559459 26.1483213529 16.3335824244  36.5057212145 26.1994982688 17.19227734745  36.03546267625 26.3017205746 16.81666816595  36.4500199837 26.9035768444 16.41192409005  36.9895547151 26.8523999285 15.553229167  36.57499740765 26.2505436587 15.9579732429  36.1604401002 25.6486873889 16.3627173188  36.63069863845 25.5464650831 16.7383265003  37.1009571767 25.4442427773 17.1139356818  31.5601957801 29.9625182678 19.4275957578  32.4607290928 29.9750570671 19.8172616696  32.25255732185 30.3792105047 19.58492950645  32.1705047918 29.91631987095 20.2607626787  31.76836755105 29.5583648302 19.65992792095  32.7808138035 29.8701214741 21.0939295996  32.86286633355 30.33301210785 20.41809642735  32.37867656275 29.51216643335 20.49309484185  31.976539322 29.1542113926 19.8922600841  32.9449188636 30.7959027416 19.7422632551  30.8477231711 36.2103789112 15.5599198361  30.42541578435 35.6329685666 15.22964979575  30.7849180227 35.94930263705 14.88713734175  30.8998692825 35.29037596995001 15.16524424125  30.9520153939 34.3703730287 14.7705686464  30.47756189575 34.71296562535 14.8349742009  30.8370641341 35.0292996958 14.4924617469  30.7221128743 35.6882263629 14.2143548474  30.36261063595 35.37189229245 14.5568673014  30.0031083976 35.055558222 14.8993797554  32.2374223773 31.0616909015 21.285384858  33.0114931657 31.94225538725 21.2828380068  32.8903383506 31.52981759005 20.4944090872  32.8819131386 31.24859064885 21.2855019844  32.3670024044 31.7553556399 21.2827208804  32.4965824315 32.4490203783 21.2800569028  33.0199183777 32.22348232845 20.4917451096  33.5264038999 31.4354903962 21.2856191108  33.5348291119 31.7167173374 20.4945262136  33.5432543239 31.9979442786 19.7034333164  33.1714654543 25.4602997775 17.935463587  33.9673513191 25.8338049199 17.94298145225  34.06219901945 25.1976296657 17.3366614732  33.8658458838 25.88030168615 17.1868025333  34.5602263133 26.3003035948 16.4381414796  34.85808488425 25.5711348081 17.34417933845  34.6617317486 26.25380682855 17.19432039855  34.75657944895 25.61763157435 16.5880004195  34.9529325846 24.9349595539 16.7378593594  34.7632371839 26.2073100623 17.9504993175  37.7335556683 27.5177770888 17.1817891363  37.40832491215 26.5006754192 17.86774969225  36.95082625485 27.0559945402 17.8996848795  37.4172564225 26.48100993305 17.14786240905  37.09202566635 25.46390826345 17.833822965  36.63452700905 26.01922738445 17.86575815225  36.1680968414 26.5942119916 18.6175806227  36.6255954987 26.0388928706 18.58564543545  37.083094156 25.4835737496 18.5537102482  38.2078468784 26.85927485025 15.65596395055  37.80935804105 27.0328157043 16.075606395  37.56426092335 26.53414087935 16.08873803665  37.63314067015 27.1775338994 15.1204550809  38.2767266252 27.5026678703 14.6876809948  38.4529439961 27.3579496752 15.6428323089  38.1389671316 26.2158818302 16.6242469063  38.3840642493 26.71455665515 16.61111526465  38.629161367 27.2132314801 16.597983623  28.2933300737 30.8938776771 21.6980946355  29.20451415455 30.98903263475 21.338533092  28.81176222425 31.33277191905 21.71259674435  28.5660832188 31.04207091355 21.15987886235  28.686082004 30.5501383928 21.32403098315  28.8388363639 31.19026415 20.6216630892  29.08451536935 31.4809651555 21.1743809712  28.9588351491 30.69833162925 20.78581521  29.0788339343 30.2063991085 20.9499673308  29.3301943748 31.771666161 21.7270988532  39.1250908464 39.1206854753 26.7588527095  39.4659348305 38.2613898801 25.50475913435  39.15213171365 37.94610560285 26.0408524258  38.6905465973 38.69733441065 25.92705151255  39.9004790796 38.68474094475 26.3365603313  38.37674348045 38.3820501334 26.463144804  40.6758673128 38.2487964142 25.9142679531  37.6283961145 37.6434147915 26.1674368985  37.94219923135 37.95869906875 25.63134360705  38.2560023482 38.273983346 25.0952503156  35.7595930901 34.6009293154 19.7087006922  35.21276476745 34.007273083 20.34381692245  35.08376050885 34.5815320843 20.06741011635  35.7677788425 34.22303292905 20.60501280115  35.7759645949 33.8451365427 21.5013249101  35.22095051985001 33.62937669665 21.2401290314  35.09194626125 34.20363569795 20.9637222253  34.4079279276 34.5621348532 20.4261195405  34.5369321862 33.9878758519 20.7025263466  34.6659364448 33.4136168506 20.9789331527  40.6758673128 26.7660518999 22.5880089096  39.41800881385 25.89391430605 22.463230783  39.42715480455 26.31625071055 21.9168979441  39.41800881385 26.5408915259 22.9067398311  40.6758673128 26.11907468005 22.1444998615  40.6758673128 25.4720974602 21.7009908134  39.42715480455 25.6692734907 21.473388896  38.1601503149 26.3157311519 23.2254707526  38.1692963056 26.09109033655 22.2356288656  38.1784422963 25.8664495212 21.2457869786  33.5679762587 33.0009699189 21.5406010496  34.5541163439 32.39543054805 21.1124656765  34.1311438379 31.91118871225 20.73472169215  34.1519300173 32.6939284736 20.86221266155  33.54719007929999 32.21823015755 21.4131100802  33.9701625853 32.70247199335 21.79085406455  33.9493764059 31.919732232 21.66336309515  34.3723489119 32.4039740678 22.0411070795  34.7358837759 32.3868870283 20.1838242735  33.2682638057 32.5904749548 18.5296767162  32.76874509685 33.370689534 17.68119075775  32.9246490478 33.16168654675 18.59177340265  32.9981789787 33.55615702815 18.05586653415  33.11235985475 32.79947794205 17.6190940713  32.9564559038 33.0084809293 16.7085114264  32.84227502775 33.7651600154 17.14528388925  32.7280941517 34.5218391015 17.5820563521  32.6545642208 34.1273686201 18.1179632206  32.5810342899 33.7328981387 18.6538700891  35.2508191377 28.7078955182 19.5634993014  34.94223213655 28.20501750685 18.9034389788  34.7934617073 28.98740627465 18.4216962923  35.52398136905 28.79683214305 18.5829430961  35.7971436004 28.8857687679 17.6023868908  34.48487470615 28.4845282633 17.7616359697  35.2153943679 28.2939541317 17.9228827735  35.06662393865 29.0763428995 17.441140087  34.3361042769 29.2669170311 17.2798932832  34.6336451354 27.7021394955 18.2433786562  33.4017431986 37.4344564714 22.3226295832  34.3004959933 37.50411913315 21.8832116672  34.04476439105 38.1010086016 21.94023872405  33.60317252025 37.71329856334999 21.84859576095  33.8433350694 37.82216650965 22.4142725463  34.09906667165 37.2252770412 22.35724548945  34.2849269402 38.2098765479 22.5059155094  34.54065854245 37.61298707945 22.44888845255  33.8046018419 37.9921406553 21.3745619387  34.7963901447 37.016097611 22.3918613957  33.004302088 26.9690481717 17.5588745161  33.7545933156 27.3706836696 17.15229571015  33.78226420065 26.63467588325 16.99850799785  33.08824321085 27.0245069563 16.91095459785  33.1721843337 27.0799657409 16.2630346796  33.83853443845 27.4261424542 16.5043757919  33.8662053235 26.69013466785 16.3505880796  34.53255542825 27.03631138115 16.5919291919  34.5048845432 27.7723191675 16.7457169042  35.46566701265 26.40076102695 18.2840399701  35.4008709884 27.14817574355 18.43047963945  35.3368612181 26.5810319113 17.6105591653  36.03929104685 26.77448287595 17.9440998179  35.27206519385 27.3284466279 17.75699883465  34.69844115965 26.9547247789 18.09693898685  35.6547903351 39.1957096817 24.054337607  36.483145605 38.5245267536 24.0198934461  36.5363214471 39.37296094875001 24.59392385935  36.076133369 38.64282391465 24.38288922615  36.0618025711 39.07741252065 23.69134182695  36.52199064920001 39.80754955475 23.90237646015  36.11497841320001 39.92584671580001 24.2653722402  36.5751664913 40.6559837499 24.4764068734  36.4688148071 38.9591153596 23.3283460469  36.4974764029 38.0899381476 24.7114408453  32.42369
[...]
<PointData  Vectors="u"> 
<DataArray  type="Float64"  Name="u"  NumberOfComponents="3" format="ascii">-2.3670877737335285e+00 -5.3064246703485041e-01 -2.9217559094790970e+00  -2.5560756433698519e+00 -6.4624636811954794e-02 -4.6349316384705448e+00  -3.6178846427156492e+00 -3.6766961883249777e-01 -4.1154088264856306e+00  -3.3020000342344011e+00 5.6170863919858438e-01 -3.6770494627512025e+00  -4.0916539907070133e+00 1.4993442458927524e+00 -4.6413998848337359e+00  -3.1511118618236282e+00 8.8654087808886173e-01 -5.1713679560515873e+00  -3.9014868568964785e+00 8.6224674996367989e-01 -4.6392019103363165e+00  -3.7898825970375838e+00 8.8672366376810952e-01 -4.9509052966352556e+00  -2.9132449973689245e+00 6.4756244999258339e-01 -5.5775013861219547e+00  -2.5488939769137535e+00 4.0588757127402847e-01 -6.0550962028441058e+00  -1.3793442509994160e+00 -1.1940585072735388e+00 -2.7536878223873478e+00  -1.7125822403999125e+00 -5.6894261433795368e-01 -3.7286071734069446e+00  -1.6061289927284335e+00 -1.4346833133273569e+00 -2.9101110579447584e+00  -1.3839774643067690e+00 -1.2499778727427278e+00 -3.9435768207698820e+00  -1.5806224700709364e+00 -1.4680951876688611e-01 -3.6919816278404323e+00  -1.7270080010229005e+00 7.4312576254902507e-01 -4.7995823911672186e+00  -1.4466419399415522e+00 -2.9365629717203307e-01 -4.8465288994426059e+00  -1.1961169903434583e+00 -1.1572111672797869e+00 -5.4148448430264269e+00  -1.4610233016979970e+00 -1.4653659118694664e+00 -4.0683911118765907e+00  -1.6230263385637806e+00 -1.6895827748283090e+00 -3.0144936266203390e+00  -4.8634971823934070e-01 -9.2082397701578800e-01 -1.0351989747851520e+00  -7.0388337705579207e-01 -2.2368711732484008e+00 -2.8193605097391883e+00  -7.6264243576227453e-01 -1.8042715278726045e+00 -1.8729015620748046e+00  -6.1451930269440802e-01 -6.7354261244381286e-01 -1.9654273946795868e+00  -1.5896501214065422e+00 -1.1131425854804105e+00 -1.7619466674985493e+00  -2.3022363352194058e-01 -1.7970397375583216e+00 -1.7918773865341580e+00  -5.9631523623363758e-01 -1.9808403228086386e+00 -1.9015141648110523e+00  -7.9266124879818201e-01 -1.5955964398302622e+00 -1.8716606869210908e+00  -1.1631241531378607e-01 -1.9803276538612926e+00 -2.1108095812263223e+00  -1.0698999698329867e+00 -2.0458752807236253e+00 -2.0618692284475220e+00  -4.5082067357616856e-01 5.3046527439905300e-01 2.0960529658413121e+00  2.2180022553121592e+00 -2.5795097408842431e+00 4.2450660642947485e-01  2.2631978669164070e+00 -1.7114077711128111e+00 9.5803835229804657e-01  1.3399299271406038e+00 -1.3860292848993301e+00 7.5379690068990951e-02  1.1549698435472433e+00 -1.6633035702967394e+00 2.4666105612541016e+00  1.8729376946909184e+00 -3.3306823442686637e+00 2.4880147597882374e+00  2.8775877972904143e+00 -2.7562547433876832e+00 -7.2171377498281120e-01  2.9183160360155314e+00 -3.0748356017801437e+00 9.0511757823459260e-01  2.1014468975322860e+00 -2.2616212541564868e+00 -1.2557160371688556e+00  3.7336705450111030e+00 -3.3998454875767181e+00 -5.5632098754278536e-01  3.3304050626352635e+00 -1.9048984236130746e+00 -3.9421659763282366e+00  4.2013065026284773e+00 -2.6862401675688774e-01 -2.4704071374965819e+00  4.7217738501938236e+00 -1.2353980687132500e+00 -1.5644649320916586e+00  5.6644204428522444e+00 1.6631509537327700e+00 -1.0480609501678784e+00  5.2556618348181612e+00 7.3843289929972693e+00 3.5441701783379456e+00  3.9618438917536887e+00 2.3331491787898231e+00 2.5480999840681466e-02  5.5680893871599002e+00 2.4226099619803461e+00 1.4284634203946582e+00  5.4080119676611034e+00 -5.7765758605093409e-01 3.1263444282443370e-01  4.1915980852967385e+00 -7.6160493487971589e-02 -8.6198557339388371e-01  3.5037222145882363e+00 1.8494354811086858e-02 -1.8550090080795711e+00  -1.4422215595993813e+00 -2.6634316153514197e+00 -6.2483299244058648e+00  -2.7620213814085539e+00 -2.4233224070030945e+00 -5.9753447668949180e+00  -2.2689493454788505e+00 -2.4053156270289806e+00 -6.5988572382138546e+00  -2.3057632588689749e+00 -3.2236412592209494e+00 -6.5690331771407298e+00  -1.8154180993507225e+00 -2.6557729292802073e+00 -5.8250559863738962e+00  -2.2274475160609213e+00 -2.4613629094879110e+00 -5.1809656089017340e+00  -2.8387537782479582e+00 -3.2042717880405989e+00 -5.9159788969334066e+00  -3.3806107815839672e+00 -3.9918167704214214e+00 -6.8809932222241832e+00  -3.4297549735290649e+00 -2.9675369864981120e+00 -6.9462638110931003e+00  -3.1619646611578096e+00 -1.9602547197983691e+00 -6.8813867157374347e+00  7.0255909980697888e+00 -1.6146040986432586e+00 -4.4188329983520749e+00  5.0192676535817187e+00 -2.6355522308961494e+00 -3.5926856914471959e+00  5.0756494815489068e+00 -2.0688641306659070e+00 -3.8950120181260628e+00  6.1630075690240229e+00 -2.6203125828193139e+00 -3.0318139462197879e+00  7.6360087839611284e+00 -2.3841078487436178e+00 -4.1299647243262818e+00  5.2781315064275258e+00 -3.2798917123319615e+00 -3.1840643374047645e-01  4.3366760235207451e+00 -2.4152578940352138e+00 -2.2515209383690009e+00  6.0533868978893679e+00 -3.3287034458577303e+00 -2.3436449796068728e+00  6.9404556093476000e+00 -3.4981340014650777e+00 -3.4488128438129846e+00  3.5800735590110144e+00 -2.1082336725481658e+00 -3.2328992589295074e+00  5.5818158585930968e+00 -4.1009128277828681e+00 4.7185730678561064e-02  6.6851539758942389e+00 -4.6810728480517731e+00 -1.0393034073087088e+00  6.0705482752236950e+00 -5.1892476675562271e+00 -1.4790736623300240e+00  5.7626282694813282e+00 -4.7990620850265682e+00 -2.1353565250873268e+00  5.5687150081647907e+00 -4.9536934378691519e+00 -3.7958402290578439e+00  6.5881031627144022e+00 -5.3585969330180347e+00 -3.0757187970288613e+00  6.2793946480393013e+00 -5.5476940097613427e+00 -3.8097052069047170e+00  6.6251786473893270e+00 -6.6315320599598735e+00 -3.7100179331814411e+00  7.5669927664579522e+00 -5.6068445754711780e+00 -3.0602899496543539e+00  7.8129033759781601e+00 -5.6117967953694947e+00 -1.8058133295842511e+00  7.3763729961109830e+00 -1.3995598945935270e+00 -2.1676679040041749e+00  3.3753082963825753e+00 -1.2086426489916611e+00 3.1850472282265113e-01  3.6535325699317815e+00 -1.4792196307881289e+00 -2.0042851738972569e+00  4.6697697566298819e+00 -1.5480613634756710e+00 -2.2092174674928486e-01  7.0787200321783441e+00 -8.7820791227315842e-01 -1.7661079273037437e+00  5.3202516861163271e+00 -7.9545047893124318e-02 -1.0523169947173960e+00  2.8138775769964131e+00 -9.6010749402070406e-01 -2.1292419647239926e+00  1.5270330800440290e+00 -2.1401578642537831e+00 -3.0317439794894258e-01  1.9658145514666352e+00 -1.6739544485496518e+00 -2.1051766391087243e+00  1.8766330159203339e+00 -1.5616133468789624e+00 -3.1298942503287122e+00  5.0709896122464437e-01 -3.3530811916508676e+00 -9.3320837590505654e+00  -6.1430741709845627e-01 -3.5017345251601233e+00 -8.0456511033805285e+00  -8.0081982511124161e-01 -5.1323017229266119e+00 -9.8595039514532115e+00  -9.5028255980565401e-01 -5.0086855082320696e+00 -8.4353526121903375e+00  -1.8675071292993239e+00 -5.1427371667879545e+00 -7.2873114414756257e+00  -2.2073004278641806e+00 -4.4823496596832584e+00 -8.2748626333533348e+00  -1.5201121753757429e+00 -4.1742097639602314e+00 -7.3779319647817045e+00  -2.6439413075874039e+00 -5.6510533002187504e+00 -7.9742880341168858e+00  -3.5285530746999321e+00 -6.5291471581941725e+00 -9.0526063378359432e+00  -1.2430490575801845e+00 -3.0704270548330772e+00 -7.1745302382991296e+00  -9.4988056700690071e-01 -1.0171128644527145e+00 -5.6339714305369233e+00  -1.6556391114097528e+00 -1.1129821038302747e+00 -6.2751478606468378e+00  -1.3452479611239461e+00 -1.4107668739946122e+00 -6.0532445452431443e+00  -1.8358461272339892e+00 -1.4802780702498817e+00 -6.0721859078330880e+00  -2.7163583884242266e+00 -1.3060142743266474e+00 -7.1832668256846839e+00  -2.2008939199216844e+00 -1.7483917363508663e+00 -6.8674055524286439e+00  -1.5887149300396306e+00 -1.4517554512216533e+00 -6.2893653391923223e+00  -2.0245150743875140e+00 -1.0607453547018162e+00 -6.7573593038829705e+00  -2.3966029979640990e+00 -6.0997235837695185e-01 -7.2775865548061045e+00  -1.7618880347496986e+00 -1.0065455304760245e+00 -4.7129738471125613e+00  -1.6012985527136139e+00 -1.2706361127429804e+00 -5.1064504243645068e+00  -2.2423233068037551e+00 -1.6679880571195225e+00 -5.3535457701140157e+00  -1.8304906383400050e+00 -1.5293480986879153e+00 -4.5754624764060399e+00  -1.2858042590011862e+00 -5.8404606527993819e-01 -4.1505797831693645e+00  -1.1559015358051759e+00 -6.3782129261649811e-01 -4.6536960538511316e+00  -1.9211424303182538e+00 -1.0448591326073748e+00 -5.4213888571837074e+00  -1.4493838683567868e+00 -8.6942728523376245e-01 -5.2866643117947820e+00  -9.6438938346136371e-01 -6.2966967332450030e-01 -5.2322381876215385e+00  1.2415240969945016e+01 -6.9881836900972774e+00 -9.4722613310875801e+00  7.8522227506626248e+00 -2.9689384524404603e+00 -6.7253096388364533e+00  1.0984798481825059e+01 -3.6562174317975944e+00 -8.1813536969729856e+00  8.0642952468259477e+00 -5.0592385223692808e+00 -9.1650704727491821e+00  6.5697568034849123e+00 -5.1726910472583860e+00 -7.3334866389069724e+00  7.0225983841843167e+00 -2.7603052753854858e+00 -7.0614692144270235e+00  9.1601286983293608e+00 -2.3091123219760576e+00 -7.4145259619077102e+00  5.9183989132228980e+00 -2.7819967594772099e+00 -5.9193179950185986e+00  5.4462539381218749e+00 -2.8785154508559914e+00 -4.9241236182554067e+00  1.0328293529606130e+01 -1.4302818193715738e+00 -7.0621350767312041e+00  6.5537181448167114e-01 8.1448471025193980e-01 -2.4346985004293664e+00  2.3356022460882742e-01 -6.3118926354620009e-01 -2.8838571677057878e+00  3.3039480632975560e-01 -5.3720301948241744e-01 -3.5575198028724366e+00  5.6304708965010775e-01 -3.6977465078875710e-01 -2.9649360994531175e+00  3.6305880496418297e-01 1.9620743602442547e-01 -3.2100016411939278e+00  8.8043683289420915e-01 1.5624630661070194e-02 -3.6438712607970380e+00  1.3950430531263225e-01 1.3495783439954509e-01 -2.8890143712693086e+00  6.8947183873996609e-01 -1.0410622702112271e+00 -4.9374014884560138e+00  2.6937087674065346e-01 -1.3202489081931352e+00 -4.1514512522094398e+00  -8.3999012252203437e-02 -1.5619570404409837e+00 -3.4187025616992428e+00  -3.0810506155260620e+00 -2.5500492649104691e+00 -2.9946055600541230e+00  -1.7255147115131542e+00 -1.8664516077243591e+00 -3.0033232173322046e+00  -2.2245632966579785e+00 -1.6976451973109246e+00 -3.0898209427418499e+00  -2.1559894305415579e+00 -2.1916356142925966e+00 -2.6899723657442047e+00  -1.6940448237713917e+00 -2.1851659776653598e+00 -2.7331146462864897e+00  -1.5211063253958419e+00 -1.9718938093943772e+00 -2.7540690986969762e+00  -1.8581548240996073e+00 -1.7090687867891277e+00 -2.8290281208979300e+00  -1.8093168650092162e+00 -9.5712738117492713e-01 -2.8823767704140955e+00  -1.3490148638477886e+00 -1.3106900519148690e+00 -2.7761383346549451e+00  -1.0942459446333201e+00 -1.7007315883924610e+00 -2.6675671566733428e+00  1.0133864279301237e-01 2.9945168452456397e+00 -6.3206644968791652e+00  -1.0880800184521033e+00 2.5771586759217837e+00 -5.7520347479441698e+00  -9.2755459143637786e-01 2.1858793610868923e+00 -5.5563413148946834e+00  -1.1943312647385962e+00 2.3302128451086608e+00 -5.9507011734595219e+00  -4.2996436330828475e-02 2.6396424002498460e+00 -5.7295993486112513e+00  -3.6473224266658905e-01 3.9187765962691206e+00 -5.7632712685752701e+00  -1.1308159674618081e+00 2.4841866227591223e+00 -5.9978931819431560e+00  -1.9312233779966848e+00 2.5789541161883269e+00 -5.8721328147217164e+00  -1.8101084869034141e+00 2.1866280046490187e+00 -5.6676885395836294e+00  -1.8249032600796116e+00 1.8393904667929584e+00 -5.9652292172626273e+00  -5.0400053781889331e-01 -1.4382557137670042e+00 -1.1197463043735005e+00  -6.5026800273052521e-01 -2.0931408585277933e+00 -2.2926503058657275e+00  5.2347119234637529e-01 -1.9641117285249801e+00 -2.1265271017471297e+00  -3.3751388782338208e-02 -1.6513546873516822e+00 -2.1700954422013443e+00  3.5567117303810264e-01 -1.7961914212831467e+00 -2.3296799675518423e-01  -1.2612679663037416e+00 -2.3635804827289628e+00 -1.9602352958909905e+00  -7.3006929317135694e-01 -2.2990310941308159e+00 -9.4000932952473137e-01  -1.3722006440393282e+00 -2.5844619363596664e+00 -2.3037655580724379e+00  -2.3514974589710516e-01 -2.0213886195818374e+00 -3.0810288525100211e+00  2.1271517030852296e+00 -1.3444048594049967e+00 -3.8588135668602841e+00  2.4706871977389673e+00 -1.3437331982486167e+00 -3.6286611580284234e+00  2.1702967690413022e+00 -8.3576706077778040e-01 -3.4397350974748262e+00  2.0626639227728529e+00 -1.0169131391352833e+00 -3.4210230318644470e+00  2.3268966364717332e+00 -1.7496119179152942e+00 -4.1452086910419199e+00  2.6105314305046234e+00 -2.2948936407439464e+00 -4.2465462250907047e+00  2.5447262204679597e+00 -1.7870675743491251e+00 -3.4150446006467901e+00  2.1783919125952620e+00 -9.7390253264113336e-01 -2.3146721635524963e+00  2.0786420748846810e+00 -5.1398392413678728e-01 -2.6689789641080481e+00  2.1697161163428555e+00 -1.4185311119503535e-01 -2.8962934452323941e+00  -3.9615208199060004e-01 -2.0805363211072048e+00 -4.2929043636060493e+00  -2.3448338271593591e-01 -2.3439468290974714e+00 -4.9097505625441791e+00  4.0380379627142676e-01 -2.6518664818993258e+00 -4.9704383977187199e+00  -1.0909012643226262e-01 -2.2098578795641695e+00 -5.1144186201102402e+00  9.0668491917744107e-02 -2.2618757848406603e+00 -5.4312638978410384e+00  3.0813004640820946e-01 -3.1271137306099726e+00 -5.4650195027016935e+00  -1.7629857512769800e-01 -2.6143822072798435e+00 -5.4861004500216151e+00  3.9829111951389290e-01 -2.7408530111474096e+00 -5.3925399426575469e+00  8.8985656001447488e-01 -3.1898362323500447e+00 -5.4296722355820135e+00  -2.7042608844516774e-01 -2.8284411871336275e+00 -5.6210619190724032e+00  -4.5827444133138897e+00 -1.0482504525563499e+00 -4.8853336366396869e+00  -4.1789573898292174e+00 -1.5487570990993182e+00 -4.1814749288916362e+00  -3.2186659623531275e+00 -2.2858061817224864e+00 -4.8289404654871966e+00  -5.8166225956131878e+00 -1.4372832246786933e+00 -5.2520014978657414e+00  -3.8312385399578921e+00 -2.0216647671393999e+00 -3.6333774352500949e+00  -4.0466470208408740e+00 -1.3016333853137374e+00 -4.2017078423592888e+00  -4.1421043659360439e+00 -1.3644577477339839e+00 -3.5333604151046774e+00  -4.0395384683401128e+00 -1.4794126923991997e+00 -4.0919166619617826e+00  -5.7775091901897282e+00 -1.4677486227827463e+00 -4.5182924339410047e+00  -3.6157717463724435e+00 -1.6753079030707103e+00 -4.0481499254493150e+00  4.9715697883892784e-01 -4.0833197282265701e+00 -6.8370527514076755e+00  -2.6382800520092266e-02 -4.1947698118641545e+00 -6.4845243516036222e+00  -4.8951652751937313e-01 -4.7313512632977552e+00 -7.4085667434409403e+00  5.8265250991523032e-01 -4.9917843155191566e+00 -7.0170451882541158e+00  1.6232661576677970e-01 -5.6756503333366828e+00 -7.7138030135758102e+00  -2.8199029376837637e-01 -4.6659724548041996e+00 -6.7222455136403676e+00  -9.7694608219443702e-01 -5.3288793959713727e+00 -7.4582420726286118e+00  -1.0596624040413896e+00 -4.2900194282425970e+00 -6.6764943032104611e+00  -3.9100998269761694e-01 -3.8419584834331135e+00 -6.1355662784171203e+00  -1.5097027140442392e+00 -2.2474582989009870e+00 -6.6829226703652580e+00  -9.8897617913432623e-01 -2.1536978568974496e+00 -5.9349818790787081e+00  -1.4797575040208995e+00 -3.0047406938259784e+00 -6.6796449013621251e+00  -1.5057734664954647e+00 -2.0982646806877159e+00 -6.3302066816838147e+00  -8.5841356367192523e-01 -2.7436828983913695e+00 -6.0418003459004321e+00  -7.6213914809176109e-01 -2.8475521701475768e+00 -6.2840628861105019e+00  -6.4046465988760914e-01 -4.9368074128436561e+00 -5.0853140447832752e+00  -1.1688812674584155e+00 -3.3115302062080634e+00 -4.5850225741683222e+00  1.7287161869798426e-01 -2.5091274189066670e+00 -3.2366119639902324e+00  -7.4851993960747798e-01 -3.2953724246957639e+00 -5.1000390182394231e+00  -1.5121831626314031e+00 -5.0344411536428018e+00 -4.6833068106239226e+00  1.1562559255260192e-01 -3.4987066095973041e+00 -1.9138441092613581e+00  1.0008903376523186e+00 -2.6474960125236988e+00 -2.0211464175270231e+00  3.4925375014690252e-01 -9.1135375602326008e-01 -9.8085929639543723e-01  -1.5078092724134879e+00 -4.3386088853620866e+00 -4.6166188496792833e+00  -5.5748006359538504e-01 -2.8901096168979481e+00 -5.1825784408909534e+00  2.8673704568195122e+00 -1.4373282329242545e+00 -4.0393300527378662e+00  2.8761546819248029e+00 -9.9777772567932710e-01 -3.8190063338802256e+00  3.6896738808743135e+00 -5.0345439526188318e-01 -3.9815508821232912e+00  2.9430147555771553e+00 -3.0760631088062784e-01 -3.4007713021042081e+00  1.5767686348272478e-01 8.0347188110750312e-01 -5.2578854080555608e+00  -1.9610324651345112e-01 5.6569521870705952e-01 -3.7815885672100897e+00  -5.3088505665395469e-01 4.3281010744858844e-01 -4.1989507844384439e+00  -3.0564909430725390e-01 -1.7054585018554422e-02 -4.4051429634570640e+00  -2.3387013220222988e-01 9.0327521369048513e-01 -5.7576343408397248e+00  9.9550683911969451e-01 1.5664963997057781e+00 -3.5614565905928637e+00  1.5342795720428104e-01 1.0490370798001145e+00 -4.7531614026774767e+00  2.9400761998476177e-01 1.6473823385267705e+00 -3.5589916717291259e+00  1.8143983302517447e-01 8.3486994095448042e-01 -3.1891693500678722e+00  -3.9058407773983184e-01 -7.5833880772515916e-01 -4.8261952423478052e+00  -7.7853652767888759e-01 -2.3754423807497566e-01 -4.7464758188880856e+00  -5.4114605899649360e-01 -2.9688598068163430e-01 -5.1401682468097976e+00  -4.9054889171507854e-02 -5.4669795019230194e-01 -4.7395474272634850e+00  -6.0336104810093216e-01 -1.1248990027056065e+00 -4.8811724647464079e+00  5.8151494392135260e-02 -3.1359773595147877e-01 -4.1566886149720004e+00  -5.0908979874725646e-01 -4.2941324323378688e-01 -4.7735719558148970e+00  3.1803376896779513e-02 -5.5188482430779617e-02 -4.3753181923840199e+00  3.5144394798561844e+00 -5.9890623289183997e+00 -1.4299183301548830e+00  3.6837936254183412e+00 -4.6922015410496956e+00 -3.7336202389972777e+00  3.9896786347970679e+00 -5.1052578988622654e+00 -3.1744317812298237e+00  3.7218631790262338e+00 -4.3971722470395980e+00 -2.5635176030205922e+00  3.8227731523327568e+00 -6.4722771927726850e+00 -3.2955067580867108e+00  4.3040319046910049e+00 -7.3027095883794839e+00 -1.9254824241725579e+00  3.8577242818154405e+00 -7.9659490626010241e+00 -2.2888075959251202e+00  4.2751669515764830e+00 -7.3559564437475924e+00 -2.8143955752883820e+00  4.7549057136025228e+00 -5.6586991793178845e+00 -4.9231581491577883e+00  3.7837819783236175e+00 -3.5451475385910336e+00 -3.1120484111979252e+00  -3.7723679921449613e+00 8.2434862163865805e+00 -1.9106140973256538e+00  -1.7701047482210990e+00 2.6209324394329130e+00 -7.0379357903000772e-01  -1.0170955965943640e+00 3.3537278629235456e+00 -1.8096145812093920e+00  -4.0813644748695568e+00 3.8133470810506416e+00 -1.8612322191008166e+00  -3.2443788687165337e-01 5.6300415619800503e+00 -1.0869532143911442e+00  1.8309598368081503e+00 4.3216881542830086e+00 -1.2367769037023422e+00  -1.4330208822840729e+00 1.7797272895837100e+00 -1.9686617589565560e+00  1.2302888580985469e-01 2.1487997202435225e+00 -1.7644113687767349e+00  -3.5760008101275766e+00 1.4586055316286692e+00 -3.1434224505153838e+00  -1.7602276657411278e-02 8.4248803101200265e-01 -2.2862440522907135e+00  3.3366936748165594e+00 -4.2733950113088621e+00 1.6130275321626428e-01  2.8934416114009078e+00 -3.7799606499988370e+00 7.4072511041490940e-01  2.4991941734672509e+00 -4.5116010916460043e+00 1.2029181494954471e+00  3.2891879976045759e+00 -4.2453320161064427e+00 -5.7288503426316917e-01  3.2323072450960812e+00 -3.8086020564226661e+00 -5.7379559585837192e-01  2.8024257992867048e+00 -4.8263114240865912e+00 3.3576721725069880e-01  2.8515327600603375e+00 -5.2546891615666720e+00 7.7660612929767758e-01  5.2244881622296457e+00 5.1164083745924072e-01 -6.6166950621242080e+00  7.7068076743897462e+00 2.1864084700369131e+00 -6.0528808105209349e+00  5.4668377991257007e+00 8.4514133000785896e-01 -7.6895671790748779e+00  6.9487126133543899e+00 9.8255356498739166e-01 -7.9358640900787281e+00  -1.0091613294689181e+00 -2.9662187324260021e+00 -2.4057838901596877e+00  -8.3126724848610845