<?xml version="1.0"?>
<VTKFile type="UnstructuredGrid"  version="0.1"  >
<UnstructuredGrid>
<Piece  NumberOfPoints="4425" NumberOfCells="19782">
<Points>
<DataArray  type="Float64"  NumberOfComponents="3"  format="ascii">26.2975190772 35.2002027258 19.8340358259  26.7916215254 36.00129236905 19.97107852725  26.58035594685 35.9487763094 20.6897567704  26.1121330348 36.3188108123 20.0080505129  25.9267469924 37.4374188988 20.1820651999  26.606235483 37.11990045555 20.14509321425  26.39496990445 37.0673843959 20.8637714574  26.8631928165 36.697349893 21.5454777149  27.07445839505 36.74986595265 20.82679947175  27.2857239736 36.8023820123 20.1081212286  30.2602512613 36.4305961299 21.4144617823  30.4128536669 35.93462263235 19.75190040515  30.21916987105 36.7709028092 20.46067658325  30.77273871035 36.47451496710001 21.16406414015  30.45393505715 35.59431595305 20.7056856042  31.2852261594 36.5184338043 20.913666498  30.7316573201 36.81482164640001 20.2102789411  30.9664225062 35.63823479025 20.45528796205  30.647618853 34.7580357762 19.9969094261  30.1780884808 37.1112094885 19.5068913842  25.2729266165 31.5242353129 21.9594533477  25.9406214242 32.32533643105 22.2601006544  25.47045341975 32.24028706805 22.80930699345  25.6854613885 31.3332717941 22.4425431034  26.0979961605 31.1423082753 22.9256328591  26.3531561962 32.13437291225 22.7431904101  26.6083162319 33.1264375492 22.5607479611  24.6107869188 40.6559837499 18.8857967679  25.1984106272 39.46769188055001 18.68932480255  24.91968595635 39.46769188055001 19.15857369685  25.1699517972 40.6559837499 18.83955536865  24.88951158965 40.6559837499 18.4165478736  25.7291166756 40.6559837499 18.7933139694  25.47885083475 39.46769188055001 19.1123322976  25.44867646805 40.6559837499 18.37030647435  25.1682362605 40.6559837499 17.9472989793  25.2285849939 38.2794000112 19.4313506258  26.32338541405 39.3196988742 17.9964960923  25.77404767215 39.1645598832 17.4162991326  25.7289268062 39.3196988742 18.31968397785  25.76269486835 40.6559837499 17.62411109375  25.1795890643 39.1645598832 17.73948701815  26.3571534762 40.6559837499 17.3009232082  25.1909418681 37.6731360165 17.531675057  25.74027961 37.8282750075 18.1118720167  26.2896173519 37.9834139985 18.6920689764  26.3568848664 34.7521274594 23.9506639978  26.29716346085 34.5412441934 22.79870375295  26.9575219371 34.48316101375 23.41588173375  26.6935305439 34.85018622245 23.55223118515  26.6208762596 34.3851022507 23.8143145464  25.96051778335 34.44318543035 23.1971365656  26.8848676528 34.018077042 23.677965095  26.22450917655 34.07616022165 23.0607871142  27.0301762214 34.9482449855 23.1537983725  25.5641507003 34.1342434013 22.4436091334  25.0304555493 40.6559837499 21.20913378  25.7988040201 39.20828802605 21.3750009095  25.3308992533 39.20828802605 21.62058715815  25.7897585375 40.6559837499 21.5698290526  25.4983603161 40.6559837499 20.96354753135  26.5490615257 40.6559837499 21.9305243252  26.0902022415 39.20828802605 21.98128243075  26.2576633043 40.6559837499 21.32424280395  25.9662650829 40.6559837499 20.7179612827  25.6313429573 37.7605923022 22.0320405363  28.4766208365 33.1893638398 20.0214118293  29.5209046784 33.71793502195 19.77582334  29.02908497275 34.3413477946 19.9410233009  28.9721847881 33.7502160853 20.3490674319  29.08224091145 33.74821448575 19.0401236064  29.0253407268 33.15708277645 19.4481677374  28.53352102115 33.7804955491 19.6133676983  28.5904212058 34.3716272584 19.2053235673  29.4677487397 34.3110683308 20.6767230345  27.6959469902 33.9369898675 23.089652556  27.43510946595 33.64236327915 21.98151307545  27.9789248451 34.0476394383 22.2459653729  27.54301638885 33.37930947785 22.0388045367  27.15213161105 33.53171370835 22.82520025855  27.3900857875 32.8216290882 20.9879565174  27.82599424375 33.48995904865 21.1951173536  26.9992010097 32.97403331869999 21.77435223925  28.2619027 34.1582890091 21.4022781898  29.4738654075 40.6559837499 17.3327193486  29.4858531068 39.26373678415 17.82074241535  29.4201143892 38.99212097265 16.9798106587  30.13632560055 39.95187251425 17.52883411865  30.7987857936 39.2477612786 17.7249488887  30.14831329985 38.5596255485 18.0168571854  30.08257458225 38.288009737 17.17592542875  29.3663633709 37.3282581954 16.6269019688  29.4321020885 37.5998740069 17.46783372545  29.4978408061 37.8714898184 18.3087654821  26.2646589769 35.913813296 23.6922518407  26.25491215395 35.6524249523 22.9009002148  25.7504568319 35.6446844292 23.3198187369  25.9306229115 35.84463342145 22.68491622945  26.76911429895 35.9215538191 23.2733333186  27.273569621 35.9292943422 22.8544147965  26.43507823355 35.85237394455 22.26599770735  25.5965868461 35.7754535469 21.6775806182  25.4164207665 35.57550455465 22.31248312565  25.2362546869 35.3755555624 22.9473856331  28.0953434124 35.0023519925 14.3215760812  27.71993758615 35.9419348141 14.7079577521  28.6081433789 35.38638297365 14.4545439255  28.2154041276 35.9199330275 13.78859772815  28.3354648428 36.8375140625 13.2556193751  28.23273755265 36.32596579525 14.8409255964  27.83999830135 36.8595158491 14.17497939905  28.7282040941 36.30396400865 13.92156557245  29.1209433454 35.7704139548 14.5875117698  27.3445317599 36.8815176357 15.094339423  26.00936701375 39.3196988742 18.7426914729  25.7591011729 38.13140700485 19.0617098011  27.4481690754 35.9150125242 17.9322630002  27.53387903115 36.58024163125 18.29129744955  27.86087552685 37.0115433196 17.75666314215  27.23423235315 36.8459238915 17.43890283645  27.0202956309 37.7768352588 16.9455426727  27.3199423089 37.51115299855 17.7979372858  27.6469388046 37.9424546869 17.2633029784  28.2735819783 38.108074115 17.5810632841  27.9465854826 37.67677242665 18.1156975915  27.6195889869 37.2454707383 18.6503318989  23.7689801865 36.8890285967 22.8761394986  24.5631467071 36.29735912370001 22.95993667895  24.33298202235 36.40263059500001 23.53799062715  24.48873236605 36.85626254265 22.96706675135  23.84339452755 36.33012517775001 22.8690094262  23.9178088686 35.7712217588 22.8618793538  24.4073963634 35.84372717605 23.53086055475  25.2084845456 36.8234964886 23.0579940041  25.0527342019 36.36986454095 23.6289178799  24.8969838582 35.9162325933 24.1998417557  26.8548769338 40.6559837499 18.7011828265  28.0903337909 39.38202893245 18.52628275685  27.9692385564 40.6559837499 18.62542496645  27.44313422155 40.6559837499 18.2402652649  27.56422945605 39.38202893245 18.1411230553  27.38098126865 40.6559837499 19.08634252805  27.9070856035 40.6559837499 19.4715022296  28.0313915093 40.6559837499 17.7793477033  28.1524867438 39.38202893245 17.6802054937  28.6445188963 37.3456986593 19.7704211067  28.5587148965 37.55848027835 18.4795486905  28.1320539416 37.2955846988 19.2103765028  28.4590504373 37.72688638715 18.6757421954  29.0711798512 37.60859423885 19.0395932944  28.8857113922 37.9897819667 17.9449143831  30.2015993836 37.5527324925 12.502129961  29.2915114518 37.8562139577 12.56919723655  29.88407279905 37.8761165452 12.14470667945  30.15127839375 38.08562627605 12.60342123165  30.1009574039 38.6185200596 12.7047125023  29.24119046195 38.38910774125 12.6704885072  29.8337518092 38.40901032875 12.2459979501  29.5665462145 38.1995005979 11.7872833979  28.97398486725 38.1795980104 12.211773955  28.38142352 38.1596954229 12.6362645121  29.20910590395 36.2083595813 21.2486139714  29.65365050565 36.10731569005 20.6269852597  29.4523850788 36.8881473946 20.5924414445  28.40123972145 36.665910846 20.4265936336  28.84578432315 36.56486695475 19.8049649219  29.04704975 35.7840352502 19.8395087371  28.6025051483 35.88507914145 20.4611374488  28.1579605466 35.9861230327 21.0827661605  29.7753186957 40.6559837499 13.4351751694  29.07837110785 39.4078395864 13.03571984075  29.9381380498 39.63725190475 13.06994383585  29.52627656875 39.94880820085 12.8396306962  29.2772344418 39.2416326518 12.244086223  28.8293289809 38.70066403735 12.44017536755  29.68909592285 38.9300763557 12.47439936265  25.9468762739 40.6559837499 15.0901338752  26.649269429 39.4395818485 15.19150159815  25.89025162945 39.4160990127 14.5133673098  26.04091099735 39.1560855144 15.16423805865  26.1349457208 37.6561872789 15.2383422421  26.59264478455 38.1996971113 14.61473503275  26.74330415245 37.939683613 15.2656057816  25.9842863529 37.9162007772 14.58747149325  25.833626985 38.1762142755 13.9366007444  27.3516625841 38.2231799471 15.2928693211  25.7527274485 35.7790399797 18.8185128659  25.17242647145 37.28994191995 18.9362017182  25.4906562212 37.02921999545001 19.12493174585  26.0211724002 36.8812269891 18.75529092115  24.90398151975 36.18775491055 18.99942366295  24.055235591 36.5964698414 19.18033446  24.64191029245 37.4379349263 19.3058425429  26.8661253744 36.8021912155 23.1141186654  27.43268814495 37.53637672075 22.31191521095  26.8664843306 37.53340801595 22.55531853275  26.86465909545 36.74977055425001 22.32979819015  27.43232918875 36.8051599203 22.8707153436  27.9985330031 36.8081286251 22.6273120218  27.4308629098 36.75273925905 22.08639486835  26.86501805165 37.48098735470001 21.7709980575  26.8668432868 38.2646248164 21.9965184001  27.4371410194 35.9416715351 16.8279145168  28.1933295009 37.55254672709999 16.78622232075  27.91170351805 37.09838609115 16.4885947389  27.22871832515 36.85925339695 16.88672859475  28.40175219515 36.63496486525 16.7274082428  28.8763146938 37.7916794213 16.3880884649  27.7032808238 38.015967953 16.54740881685  28.3862660167 38.2551006472 16.149274961  25.4729470557 34.3857934372 19.9032514632  25.07494696295 35.5021307483 20.2528464284  25.5347669509 35.08062349205 20.7904160407  25.88523306645 34.7929980815 19.86864364455  25.4872329737 35.9093353926 20.21823860975  25.94705296165 35.48782813635 20.75580822205  25.13676685815 36.19696080315001 21.1400110059  24.6769468702 36.6184680594 20.6024413936  23.8401561338 34.7289324578 23.2124328795  24.18650499095 34.60343183505 22.50985775725  24.70215341705 34.43158792955 22.82802100645  23.8565341229 34.1289105878 22.9449400769  23.8
[...]
<PointData  Vectors="u"> 
<DataArray  type="Float64"  Name="u"  NumberOfComponents="3" format="ascii">1.4221056754855329e+01 6.1702036603314161e+00 -2.8200796742030572e+00  1.4834425920257670e+01 3.4450048451187594e+00 -4.8414041719028651e+00  1.3819107580710495e+01 3.5182713274911102e+00 -6.5019979838160635e+00  1.1985519067688639e+01 3.4227621117893929e+00 -4.4232788613561871e+00  1.0969924085220800e+01 1.9234125479015702e+00 -5.2856052323344205e+00  1.3937537646033686e+01 2.1678582124909571e+00 -4.7951992742422060e+00  1.3516533381768138e+01 2.2255552744099174e+00 -7.3705479127171394e+00  1.6001620280636708e+01 2.6292785142232860e+00 -9.1209552019236568e+00  1.6252794832248060e+01 3.0248069550090095e+00 -6.5754817417320641e+00  1.6608087493129734e+01 2.8781549556329815e+00 -4.0980785880604955e+00  1.6105328324842066e+01 3.4915190215001296e+01 -7.8136201597277397e+00  8.7124520800326604e+00 1.6300883409940912e+01 6.1193380495812901e+00  2.6292573777251551e+01 4.9893716138611943e+01 7.5935950612334029e+00  -1.0002792680986536e+00 4.8330283066342218e+01 -3.9660407525922468e+00  9.0543674194448140e+00 1.7232929862681065e+01 -3.0686977840653564e+00  -1.6667354576478360e+01 3.4370510925027972e+01 -9.3638608017874925e-01  -9.5884402372792632e+00 4.7888106827783858e+01 2.0920570494288182e+01  2.3582479406985724e+00 1.6215341609090952e+01 -5.3424990491521474e-01  5.7572035807916713e+00 6.6369680359378327e+00 -2.1780931335634275e+00  1.9453211636839733e+01 2.5419182816404962e+01 2.5502164227648848e+01  2.1311441479497182e+00 7.8598787697488326e-01 -4.7566601511263622e+00  8.9973477285214098e+00 2.3752892473269487e+00 -7.9215337587408072e+00  5.8335179950092817e+00 8.5462416239459804e-01 -1.2076070714280750e+01  3.8559780578711136e+00 1.3887406231130297e+00 -6.7146400032333675e+00  1.0137540527194092e+01 6.7630962942334771e-01 -1.0739898918221286e+01  1.1859395900683657e+01 1.2650473460565779e+00 -1.1286264443902688e+01  1.3288122026278701e+01 2.0342524878514330e+00 -1.1287754184990900e+01  4.7333764100070201e+00 5.0233425861840403e-02 -1.4826979234640469e+00  6.9352167864341361e+00 9.5687406617116688e-01 -1.4103966456219279e+00  5.9643746074901367e+00 1.1832039845648747e+00 -2.4402389039103936e+00  6.5590176050792044e+00 -2.6202645998119622e-02 -1.7099570115656382e+00  5.8203846850469558e+00 3.4182350773349669e-02 -1.0116505502757147e+00  8.0278506564859793e+00 2.5026440367357631e-02 -1.6150602749876990e+00  7.8745502037547244e+00 8.2936700903786686e-01 -2.4035227651549951e+00  7.2506613540293827e+00 7.1947102648872968e-02 -8.9508497069004034e-01  6.4254672416982235e+00 1.1191242656560398e-01 -4.6315711139404253e-01  7.7744108301882653e+00 1.6401002223367884e+00 -3.1605848916926198e+00  9.2771883940502686e+00 4.9758696978744438e-01 4.7616182048495193e-01  7.9847751675765348e+00 1.0063932384333074e+00 9.3528426819563704e-01  8.3312223361257303e+00 8.4637865952516034e-01 -5.5658407975251856e-01  7.4977845689422296e+00 5.2933703534305092e-02 1.9447702466301306e-01  6.9779413410428148e+00 1.3419298195376708e+00 3.4105685111343964e-01  8.1726425517448540e+00 7.4501120083932240e-02 1.1934501234403938e+00  8.1729227049909490e+00 2.4277638369211361e+00 8.8915205354869109e-01  9.3970305338146272e+00 1.7130756617323868e+00 -9.2584088803589037e-02  1.1073000237816837e+01 1.1532987435171553e+00 -9.5034905825299809e-01  1.1644713614148426e+01 1.0719027068157971e+00 -2.3948028716291446e+01  1.2405760032067537e+01 2.5284173280035325e+00 -1.3748082559135604e+01  1.8064682616956713e+01 3.3539594272077453e+00 -1.7206960457339331e+01  1.6065963487631983e+01 2.8359886492444968e+00 -1.9089625402249833e+01  1.4476711618539634e+01 2.9242181621407424e+00 -2.2504271073981229e+01  1.0427233301295566e+01 1.7283276240626511e+00 -1.6081321864127492e+01  1.5572664446042097e+01 2.4689520452476490e+00 -2.1481016875956776e+01  1.1444517944554407e+01 1.9633575308671576e+00 -1.5300049629943038e+01  1.8261868714898569e+01 3.7272743694883057e+00 -1.4726920993882011e+01  7.9524338931612606e+00 2.0342416270390653e+00 -1.1902856569833125e+01  5.0895800744820310e+00 7.8674918231105540e-01 -1.2911612460507648e+01  1.0354184359639909e+01 2.8968746878896290e-01 -1.0740341362328500e+01  8.4713245296387019e+00 2.5112671107653295e-01 -1.2340802497656057e+01  9.7951337441350770e+00 -1.1429899331207374e-01 -1.2337472553532903e+01  7.5170727022197701e+00 1.4329237191450658e-01 -9.7692563104382444e+00  1.4771598798686631e+01 -4.0407524810028733e-01 -1.6487485680988939e+01  1.2008908989022462e+01 -6.2061501915624873e-01 -1.3439522658562195e+01  1.2197539824322369e+01 -7.2745153598566675e-02 -1.0662037063954738e+01  9.8469080997767762e+00 5.1273625672910203e-02 -8.1858346712009045e+00  1.0699585772080145e+01 7.6086987959557140e-01 -1.3090057038696573e+01  1.0406741215602244e+01 6.4323387554820277e-01 -9.7366398738833215e+00  7.7068076743897462e+00 2.1864084700369131e+00 -6.0528808105209349e+00  9.8770600430838957e+00 3.1995715599796188e+00 -6.3414711257641887e+00  1.0411111636121419e+01 2.3799439015709014e+00 -7.4910372638470824e+00  5.4668377991257007e+00 8.4514133000785896e-01 -7.6895671790748779e+00  6.9487126133543899e+00 9.8255356498739166e-01 -7.9358640900787281e+00  9.2581178104573301e+00 1.2057109412487714e+00 -9.6376858972229726e+00  7.5982752203419368e+00 4.8913481510781359e-01 -8.3368901181746740e+00  1.0361454623428623e+01 4.8655812576370145e+00 -5.8694869401696197e+00  1.8623115353782218e+01 3.9230134980066484e+00 -1.2092387092243030e+01  1.5177371738449112e+01 2.9457884068477038e+00 -8.9219881271852550e+00  1.5691140387099578e+01 3.5468320927764703e+00 -8.5096300754482179e+00  1.5374413143882219e+01 2.3743866036351577e+00 -8.8607653232299057e+00  1.5557982526421943e+01 2.3749328698054892e+00 -1.2560245576904160e+01  1.8719813689721551e+01 1.2208761394880803e+00 -8.2636811335811302e+00  1.5058596078283191e+01 2.0858186445832660e+00 -8.6019720073648660e+00  1.5324468269697952e+01 2.4723410697147714e+00 -7.6126974359366741e+00  1.4401220611548007e+01 3.6993350452842892e+00 -7.9912442106278085e+00  4.0621665006562200e+00 -1.6547468740788176e+00 5.6653077458425658e+00  9.7903719978881245e+00 -3.6754911626286342e+00 8.9094268568411437e+00  7.6513990377690426e+00 -2.4250056859027866e+00 5.5391870762365194e+00  4.4705909004326942e+00 -4.5321675121262848e+00 9.5172531827746543e+00  2.6247967802703669e+00 -5.3529163226881584e+00 1.2420464874858990e+01  8.6609061907592597e+00 -3.1789197616233871e+00 1.4059884228571693e+01  6.6150249559444969e+00 -2.2810852886851354e+00 7.9230841404010333e+00  8.4019185971490682e+00 -1.8125163795909260e+00 4.0101700383068026e+00  9.6663614833959528e+00 -9.0559055698572788e-01 6.6855433844703747e+00  1.3195072615670105e+01 1.5319560551347713e+00 1.2619844667851650e+01  1.4184171556243315e+01 1.3645299457869982e+00 -2.3679401124191724e+01  1.3799962024989403e+01 2.1871502330231865e+00 -1.5473874136264971e+01  1.0738107887073800e+01 1.2490063695129521e+00 -1.8284779572143680e+01  1.1997054659003767e+01 1.9125552241843686e+00 -1.4527645777154314e+01  1.8475510007368587e+01 2.7988097031446721e+00 -1.5867098650327497e+01  2.0380142527700361e+01 4.1171189537280650e+00 -1.1856369059724166e+01  1.4027317729948187e+01 2.7078144244312776e+00 -1.2028355988755134e+01  9.3333458294112717e+00 2.4975407744025087e+00 -9.9331010890852784e+00  8.4941649690774881e+00 1.7878376147806292e+00 -1.2906473356406432e+01  7.7262421005128452e+00 1.0648675418600078e+00 -1.6027677992952569e+01  2.1562909179347560e+01 -1.3073206028673294e+00 4.9228571127418341e+00  1.5466144672607609e+01 -4.1750686289791378e-01 3.1937914739362068e+00  1.4986443961661797e+01 -5.0035577618623712e+00 1.7074279032361079e+00  1.6335170036068597e+01 -1.2811945051569018e+00 -3.5323155621232588e-01  1.3831303586053609e+01 -2.5730369505822486e+00 -1.9974262091676880e+00  1.2713939688292315e+01 -2.2053894342665008e+00 1.8919890532770023e+00  1.3036122723727074e+01 -1.0526399680128868e+00 1.0853260030310932e+00  1.3070697743816678e+01 -3.4945955775298114e+00 -1.0082775710752814e+00  1.1512869988634044e+01 -4.7738339422698530e+00 1.7339691962186574e-02  1.2573005370710517e+01 -4.0508830752151753e-01 2.9501679550865334e+00  9.3757806557669241e+00 5.8419997977995208e-01 -1.2847042286045733e+00  9.5261230661146286e+00 1.4716877906286847e+00 -2.0922012626688149e+00  1.3663428263061588e+01 -5.0863782137808071e+00 -1.8290210409361046e-01  1.3391187386191501e+01 -9.2235105920033789e-01 1.4008533991525202e-01  1.2366738104664643e+01 -8.6260433081478194e-01 2.1223305830744961e+00  1.2317483713428818e+01 -9.9548809035653996e-01 1.4587860533939891e+00  1.0841438819397261e+01 9.3478415152362451e-02 2.3244317707991446e+00  1.2108422925286851e+01 -2.4504187846319761e-01 1.5316796598247817e+00  1.1016028252887750e+01 -5.2373971254172780e-01 2.7182847909201979e+00  1.1373911826510597e+01 -3.6700901234538330e-01 4.5352626876938213e+00  1.3223961639393325e+01 1.5581336877066090e-01 3.1308885441629135e+00  1.4511070227744838e+01 6.9600823091045694e-01 9.4448627313045719e-01  8.5316122027426058e+00 -2.3973794056746049e+00 -2.2608691584894203e+01  6.3981968955452784e+00 3.8305152538010194e-02 -1.7572669139940992e+01  8.3829314234938366e+00 -2.9996519695022444e-01 -1.8300364452604835e+01  6.6488981892338774e+00 -3.0906289599440462e-01 -1.8230400234332475e+01  2.3702932426252530e+00 -2.2261983375087011e+00 -2.4835934037947098e+01  9.0353571074114225e-01 -1.1036125221436626e+00 -2.0793694462124904e+01  7.2690615010117456e+00 -3.0167670177814648e-01 -1.8751662111967565e+01  9.2136929913236454e+00 5.2145522531198840e-01 -1.7494953313692349e+01  8.0451790187725223e+00 4.7826483657758212e-01 -1.8560952355017687e+01  6.4924836616272010e+00 2.8157948903674079e-01 -1.8360032380977309e+01  1.0585110062334591e+01 4.2918051946724267e-02 -4.3122899053946090e-01  1.2985230597959415e+01 -1.5555574190014287e+00 3.3236255128197660e+00  1.2579597070948727e+01 -2.2696844702337664e-02 2.6047329281761153e+00  1.0618393552573719e+01 4.3502150810798598e-02 1.2558132967847047e+00  1.1752663387855979e+01 -6.8949021266244759e-01 2.2864172153774285e+00  1.2815067929199154e+01 1.3073364660120693e-01 -1.1979321565383276e-01  1.2832527727997283e+01 -3.9848875593412503e-01 -1.1525602909736063e+00  9.7646271490626173e+00 -7.6455170826225688e-02 3.0030303822823785e+00  1.0817252013020227e+01 -1.1742781363424548e+00 3.8277271671329780e+00  2.5376740455561880e+01 6.1962561711282360e+00 4.9449894502905583e+00  1.4994533638079336e+01 6.5667601638951312e-01 4.9921973426956798e+00  1.7438409025371520e+01 1.9486446132846413e+00 1.6516438913307550e+00  1.6444169442707118e+01 7.9872687961836886e-01 5.4262138268462516e+00  2.1303161693786965e+01 5.9917162603936456e+00 1.4797045780762568e+01  1.2655025640294566e+01 -3.6843291229740621e-01 7.3098331634859246e+00  2.7012857536532406e+00 -1.0407510740683001e+01 -1.8781160002532069e+00  6.9076984703526261e+00 -6.4742446457003755e+00 -3.4764490098244250e+00  9.2046648869551606e-01 -9.5378625868052218e+00 -2.2498984400907158e+00  2.7802123988876541e+00 -7.1070100923449813e+00 2.7108171093777877e-01  3.4049452114574095e+00 -5.5770165126879654e+00 7.0753929806082372e-01  6.2205275636638291e+00 -5.2578903245663771e+00 -1.6501391749483008e+00  1.8282991046628654e+00 -6.3266636000644576e+00 -7.8185351433583727e-01  1.0745793908320345e+00 -8.9021036693275608e+00 -6.3224262942088671e+00  7.5438887858365398e+00 -5.7438277278375711e+00 -5.3937204012511391e+00  1.0363410969287955e+01 -3.4016523770710179e+00 -2.7456080929561741e+00  2.2292237760056054e+01 1.6055959896390092e+01 -7.5697145754366479e+00  1.7950573678767000e+01 2.2861849060553759e+01 -1.2761010490677325e+00  3.2043367005028934e+01 1.8703027599174252e+01 -1.9981291633031308e+00  2.1863081923302015e+01 7.7310965182032856e+00 -2.7040504498660343e+00  2.0251593407967828e+01 9.3101568105274435e+00 3.2088385042452576e+00  1.4682596542465287e+01 8.2484757764775516e+00 -7.3420353298762564e-01  1.6835959042094949e+01 7.4485903732095702e+00 -4.0106829229790453e+00  1.7793140514885394e+01 6.3993498642144004e+00 -6.5375078190782485e+00  3.5475795955451344e+00 -5.5917437901654954e-01 2.4449025427612359e+00  6.1226166404100484e+00 -3.0362049380686931e+00 6.8110953676928931e-01  4.1818613135236875e+00 -3.1753208102116361e+00 2.0544868312953053e+00  4.6766983489740408e+00 -1.2112060032822305e+00 1.0179637267421155e+00  3.9438467062890976e+00 -5.3667441331043220e+00 -6.1869928552253517e-01  7.4006829757596533e+00 -4.5933192165428238e+00 -2.9420668110184112e+00  3.5575029657284740e+00 -5.6174826965014866e+00 2.2582829328790116e-01  7.1871186393506328e+00 1.0062730122605283e-01 3.4881330445760637e+00  8.5945702773832195e+00 4.1163960854724618e-01 2.8356427037295968e+00  8.5549746034638066e+00 1.0857459811685923e+00 3.8873005069841291e+00  8.3888037016066477e+00 1.1063756071864308e+00 3.2651212522659705e+00  1.0443347272403098e+01 1.6943406497449087e+00 3.3423373861249233e+00  1.0534867175765161e+01 8.3159887711986447e-01 2.9893957294108668e+00  1.0472680260190288e+01 6.8761650656777495e-01 2.9072976554516963e+00  1.0492125609658400e+01 1.8417954731950137e+00 3.7431219869063010e+00  1.1044453555573122e+01 1.7982326139702598e+00 4.4082946108287233e+00  1.0009218856355734e+01 -2.4476716893660441e-01 2.5788601591073217e+00  1.1901817278961587e+01 5.9372633474657972e+00 -1.5807917233492637e+00  8.2183933338290096e+00 2.5732456050785717e+00 -1.8104911876406726e+00  9.3797674138642062e+00 2.6432194965805196e+00 -2.3528639900941517e+00  1.1263688356459731e+01 2.3897071025386869e+00 -1.4088336488610012e+00  7.1995990804264434e+00 4.5139442166177766e+00 -1.3222134397180614e+00  4.3889997508806866e+00 3.4620802198005141e+00 -1.3594696790459104e+00  6.0521349228442460e+00 2.6966846158026225e+00 -2.4186039004753908e+00  2.0889875115600621e+01 1.4306491421584455e+00 -1.5632900775708158e+01  2.0537964518465643e+01 7.3337798124683384e-01 -1.0778139014054332e+01  1.8341537407832991e+01 3.2880071435886793e-01 -1.2922138048966991e+01  1.7804428920304606e+01 2.0629170699340817e+00 -1.1461486204544423e+01  2.1870973561609166e+01 1.7144765349535969e+00 -8.6209715133142613e+00  2.1073931100885449e+01 3.1077958147213738e+00 -1.0057215263370342e+01  1.9089896757112047e+01 2.8696963171000860e+00 -9.5672006150777325e+00  1.6762723276786751e+01 1.2610284040009592e+00 -1.0437442657882357e+01  1.7368412302517918e+01 -1.8683552358500846e-01 -1.2421247720070630e+01  1.2922403572102910e+01 -4.7380260093413531e+00 2.5490837115954896e+00  1.0446225735919187e+01 -1.2066276942383549e+00 3.0771006697914571e+00  1.0848582620109662e+01 -1.6255195319078692e+00 2.7162071801874461e+00  1.2057217931685926e+01 -1.1346365934397815e+00 2.3074813564026995e+00  1.0279623591331717e+01 -2.5114745726034933e+00 2.7627520935478689e+00  8.9404651212050155e+00 -1.7250692941346624e+00 3.5408040087686645e+00  1.0180869323730208e+01 -7.7938439384150371e-01 2.6780049055272630e+00  9.1595854508041494e+00 -1.2634292965631997e+00 3.1365994163743869e+00  6.4341599856700862e+00 7.3643319817334660e+00 4.4878110146505196e-01  6.7313280150289243e+00 4.1426180961910193e+00 -3.7966819150796942e+00  8.5293581518722767e+00 4.2106230997165150e+00 -5.2162417935629879e+00  1.0061999623809326e+01 7.9255357506178079e+00 6.4477592074481074e-02  8.8746117033893430e+00 3.9737794769968526e+00 -4.1969086222270295e+00  1.0895173367830440e+01 4.1497052858897288e+00 -5.8225197860475504e+00  7.1685152978723110e+00 2.5267564398926847e+00 -8.0503398668422079e+00  5.2191136353685454e+00 2.5323984165165667e+00 -6.1217206511574025e+00  1.4529857068592007e+00 -1.9677949928895788e+00 -2.2833779617920413e+01  -5.1298898014521299e-01 5.2398266458489340e-01 -1.3386090134928045e+01  3.7827154754068313e+00 7.5213614155395780e-01 -1.5069368969441319e+01  -4.5919682741342793e+00 3.6582231980047974e-01 -1.8700067591841492e+01  -3.9679460473023616e+00 1.5887268386337736e-01 -1.4159053965692420e+01  -6.1531975566953512e-01 9.5954752994361647e-01 -1.0552142482773114e+01  3.0034443389412631e+00 1.1217964019007218e+00 -1.2546365799774827e+01  5.1813717881984456e+00 1.9435434771066482e+00 -1.0490691316274789e+01  2.4754887400667043e+00 1.9974498350775207e+00 -8.8968133012863841e+00  1.8009447630266635e+01 1.5163754587942268e+01 8.8215158388514148e+00  1.2622689242094911e+01 5.1928782227490071e+00 7.9075125883460649e+00  2.5787697087116911e+01 1.7939605623703347e+01 1.7107674797028121e+01  1.5814125997414397e+01 3.4700547279889280e+00 4.6696561023873464e+00  1.0437826381819656e+01 -1.1037197326479622e-01 3.3800359002718747e+00  1.2312655032828827e+01 3.7089326975715284e+00 2.0155309102297085e+00  1.1481304638897376e+01 -1.4488058472266532e+00 2.4477351863039032e+00  1.0000109193714728e+01 -1.1115691539590391e+00 4.6014862166859238e+00  6.9583490509342552e+00 8.7741962836127785e-01 -6.0189591359920094e+00  8.9641860466002470e+00 7.2823210966291829e-01 -7.2525692297394517e+00  8.2793077090875400e+00 -7.2167296296413247e-02 -8.7849741440671227e+00  2.2569599076149149e+00 5.4842217886477229e-01 -1.4756131791787674e+01  3.6443850529197679e+00 1.6283575640102526e+00 -1.0876404575772913e+01  5.0076427179625593e+00 4.0936003268857220e-02 -1.7275772372465418e+01  -3.7922508765414964e+00 -3.3363496667525756e-02 -1.5157361816494088e+01  4.7397498295611289e+00 1.0572336263747117e+00 -1.3252828819532656e+01  -3.8906462720025345e+00 1.4699323895959160e+00 -1.0678971319312591e+01  7.2534728945226199e+00 2.9946185095719349e+00 -4.6883579321148092e+00  8.4099887556144051e+00 6.1175865779678338e+00 -4.1672732546280065e+00  7.5951639008682879e+00 4.5220482750999267e+00 -4.7602919415265470e+00  9.1482074608095303e+00 2.3911191026147529e+00 -5.9454515070575349e+00  1.1167687984146694e+01 6.1464352847024262e-01 2.6701840772291603e+00  1.1661990540662174e+01 6.5692804353608669e-01 2.6968051641420967e+00  1.1308768226631670e+01 -6.8385087345798146e-01 1.3644273069758575e+00  1.0520408869878240e+01 -4.2515677552991593e-01 2.2032393315796694e+00  8.2591575829380606e+00 -4.9953607384534464e-02 2.1112638312915948e+00  1.0150905119657072e+01 -7.7396346097636304e-01 1.2473707255683077e+00  9.3557729916410235e+00 -7.9669574466484649e-01 1.7144705639971733e+00  8.7382843263445142e+00 -1.6562108654312084e+00 7.1966919175717925e-01  8.9833490872853652e+00 1.1837481693580530e-02 1.6454688267157216e+00  9.6077422751699775e+00 -2.0101375972091132e-01 1.1293012902773543e+00  9.8528519511945198e+00 -1.9416525749898412e+00 -8.7349974762220817e-01  1.1369399181406418e+01 -1.8597126819221959e+00 -3.7977931439280727e-01  8.0912714925681435e+00 -3.9808848894028977e-02 2.8728507535570476e+00  7.8995481488687114e+00 -8.9598631324504940e-01 2.7465375087497312e+00  8.5032774381693059e+00 -6.6329304231951614e-01 3.0716235272277670e+00  7.6564836703584316e+00 -5.0157544876256330e-02 3.1526944896851443e+00  7.8816029569983277e+00 -1.4401377398463547e-02 2.7406621290444462e+00  6.1296504039635566e+00 -3.0949813781252302e-02 3.2192310265597186e+00  7.5170677726143875e+00 -1.2172453226446887e+00 3.2889212066933644e+00  6.9184653775800697e+00 4.0928087686925426e-03 2.8005089879373228e+00  7.3479491507508383e+00 1.0705275326323396e-02 2.5123061648901284e+00  1.3421209564449963e+01 1.3027520018577441e+00 -2.5493760623295348e+01  1.5257940057012565e+01 -9.9852503298930362e-01 -1.8077984840445549e+01  1.5661235264668726e+01 -2.9511335208256345e-01 -1.4840391300335797e+01  1.1672277513557622e+01 4.4447228689183266e-01 -2.0086150645997499e+01  2.0452721550450427e+01 -2.0916085695396660e+00 -1.7737090812652436e+01  1.2986363471202305e+01 3.5311650886508861e-01 -1.6740816677089228e+01  2.1183533971829949e+01 -3.5916020857415942e+00 -1.8090918114976283e+01  1.0518914716590391e+01 2.9555634259954489e-01 -1.5989211564097699e+01  9.9809928365512093e+00 1.8260463654774042e-01 -1.7990963633926793e+01  7.6368735050399543e+00 1.5689958621095417e+00 -9.7569171454195480e+00  8.0733994935667805e+00 1.6845379446978335e+00 -7.0748083343014327e+00  8.3121054420457