<?xml version="1.0"?>
<VTKFile type="UnstructuredGrid"  version="0.1"  >
<UnstructuredGrid>
<Piece  NumberOfPoints="4330" NumberOfCells="18982">
<Points>
<DataArray  type="Float64"  NumberOfComponents="3"  format="ascii">22.0471701257 22.1011995108 18.5206643085  22.5761685861 23.34622042835 19.1745590854  22.0416435016 23.35510733735 18.89297584945  22.4884997547 22.41041152495 18.32494162215  22.5816952102 22.0923126018 18.80224754445  23.1162202947 22.0834256928 19.0838307804  23.0230248392 22.40152461595 18.6065248581  22.9298293837 22.7196235391 18.1292189358  22.4829731306 23.6643193515 18.6972531631  22.0361168775 24.6090151639 19.2652873904  20.9394747063 26.3231522409 18.0481785599  21.450450719 25.8133294019 18.76953791715  20.85676180115 26.3164028102 18.85814142885  21.8043269684 26.09906515795 18.85199399195  21.53316362415 25.8200788326 17.9595750482  22.6691792305 25.874978075 19.655809424  21.72161406325 26.09231572725 19.6619568609  22.39801588625 25.59599174965 18.76339048025  22.126852542 25.3170054243 17.8709715365  20.774048896 26.3096533795 19.6681042978  24.6760292624 26.2021863689 19.7880777511  24.14588971595 26.0501876732 19.18586830445  23.67260424645 26.03858222195 19.72194358755  23.9540670003 26.864295333 19.6229230372  23.2321047382 27.5264042971 19.4577683233  23.42392745385 26.7122966373 19.02071359055  22.95064198435 26.70069118605 19.55678887365  23.1424647 25.88658352625 19.1197341409  23.6157501695 25.8981889775 18.5836588578  23.70499135 22.9997234052 17.2758876515  23.41470173405 24.026668728 16.85803985245  24.04101452825 23.8659018315 16.6711634588  23.4636712664 23.1380058651 16.62887696115  23.2223511828 23.276288325 15.9818662708  24.0086051874 28.4019736604 20.52285734  23.993014396 28.0163174028 19.3612566676  23.6203549628 27.96418897875 19.99031283165  24.33409278865 27.9224266116 20.2225267909  24.3812646206 28.45410208445 19.89380117595  24.6595803899 27.4428795628 19.9221962418  23.94584256405 27.48464192995 19.68998228255  24.70675222185 27.97455503565 19.59347062685  24.7539240538 28.5062305085 19.2647450119  22.3195672103 30.5985196802 20.9890245652  22.40967862645 30.60407395015 19.67753487765  21.9148724194 31.00089930095 20.2145832938  22.0977465705 30.28152941555 20.35803386905  21.8759259307 29.9645391509 19.7270431729  21.6930517796 30.6839090363 19.58359259765  21.5101776285 31.4032789217 19.4401420224  19.4334194053 28.0137063475 14.852995806  19.2293150524 29.2223321925 14.8476574685  19.5581249294 28.9516866305 14.35043757355  19.1428493857 28.37968275535 14.4352911659  18.8522793661 28.7456591632 14.0175865258  18.9387450328 29.58830860035 14.4299528284  19.2675549098 29.31766303835 13.93273293345  19.6828304535 29.8896669135 13.8478793411  19.3540205765 30.1603124755 14.34509923605  19.0252106995 30.4309580375 14.842319131  21.2454866863 25.3021161595 16.4280641625  21.69408746335 25.8203503455 16.64405498755  22.1849494022 25.17786510515 16.43412810795  21.8838487628 25.7607006225 15.7938663927  23.1244121181 25.0536140508 16.4401920534  22.63355017925 25.69609929115 16.650118933  22.8233114787 25.63644956815 15.79993033815  22.1426882404 26.3385845315 16.8600458126  22.33244953985 26.2789348085 16.00985721775  21.5269361222 26.1007347481 21.0968174056  20.8553082541 25.4188501486 19.9613681599  21.80287342135 25.20151249635 19.955220723  21.1504925091 26.2051940638 20.3824608517  21.2317518672 25.3143908329 20.6757247138  22.09805767635 25.98785641155 20.3763134148  20.9365676122 24.5280469177 20.254632022  22.4703507862 26.740540987 18.4269889175  22.87921920495 26.1183867545 17.7218523352  22.8608875958 26.78514416345 17.24644189745  22.3065195133 26.53956275925 17.64351736505  23.59741856035 26.56494638645 18.10824842005  23.04305047785 26.31936498225 18.50532388765  23.0247188687 26.9861223912 18.0299134499  23.5790869512 27.2317037954 17.6328379823  23.5835529598 22.750764943 19.8517411469  23.5642996919 22.555152514 18.9094772066  23.79796602445 22.8888221391 19.29343238985  23.25669117175 22.73519424105 18.99048004135  23.34988662725 22.4170953179 19.46778596365  23.4711042364 22.87325143715 18.4321712843  24.0123790891 23.0268793352 18.7351236328  24.10136923305 27.3510935612 19.1965019697  24.86227889085 27.8410066669 19.099990314  24.8151070589 27.30933119405 19.42871592895  24.9706337279 27.1757828253 18.9352356161  23.85410399735 28.2058483384 18.8487864006  23.5436615028 28.712259602 19.0248780761  24.61501365515 28.6957614441 18.7522747449  24.4761032565 28.8852923797 18.2398044779  23.40475110415 28.9017905376 18.5124078091  22.3333989518 28.9182886955 18.7850111403  22.782751845 28.2223464963 19.1213897318  22.03795460595 25.7680078348 21.0741949217  22.02721516415 26.276403073 21.04766022245  22.5274942061 26.4520713979 20.9985030393  22.5983367183 26.16352473645 20.32715623165  22.5382336479 25.9436761597 21.02503773855  22.5489730897 25.4352809215 21.0515724378  22.6090761601 25.65512949825 20.3536909309  21.376670567 24.1590897341 17.1293124983  21.8969788909 24.25214201775 17.86473653395  21.7517615545 24.7380475792 17.5001420174  21.70639372225 24.384052449 18.19729994435  21.5218879034 23.67318417265 17.49390701485  21.6671052398 23.1872786112 17.8585015314  21.85161105865 23.89814688755 18.5618944609  22.08148470975 24.9630102941 18.56812946345  20.5800907547 26.4565118309 16.4625081592  21.54108147335 26.3308683862 17.45411218625  21.0924806963 25.8126342002 17.2381213612  21.36138949755 26.3975481812 16.6612769859  20.7597827305 26.3898320359 17.25534335955  20.9127887205 25.8793139952 16.44528616085  24.7732059602 24.067890437 18.9654872775  24.0260354805 23.8317154598 18.2189655561  24.0461757674 24.163829007 18.87323422085  24.39279252465 23.5473848861 18.85030545515  24.7530656733 23.7357768898 18.31121861275  23.66576233185 23.6433234561 18.7580523985  24.37265223775 23.2152713389 18.1960367904  24.7329253864 23.4036633426 17.656949948  23.3191455746 24.259767577 18.7809811642  23.4513492672 23.50526626 19.31636115555  23.12448747915 23.48969555805 18.45510005  24.0710316852 23.8885741117 19.9209687622  23.6950886299 24.07417084435 19.3509749632  24.04170538715 23.45772672345 19.3280461975  24.4221188227 23.97823227435 19.44322801985  19.715227424 29.73694808055 15.3761084704  20.07154328205 28.8955373996 14.8612763932  19.07710354725 28.85511702845 15.3678278832  18.7207876892 29.6965277094 15.8826599604  18.87299919435 30.06374287345 15.3624895457  20.7096671588 29.7773684517 14.8695569804  19.86743892915 30.1041632446 14.8559380557  19.4878049564 32.7681789496 16.452648487  20.31703477715 32.2424490187 15.9040025002  20.17313278595 32.37260014085 16.60244516375  19.7515734021 31.8576797908 15.9893627567  19.6317069476 32.63802782745 15.75420582345  19.7756089388 32.5078767053 15.0557631599  19.8954753933 31.72752866865 15.29092009315  20.0153418478 30.947180632 15.5260770264  20.43690123165 31.46210098205 16.13915943345  20.8584606155 31.9770213321 16.7522418405  24.7934498225 27.5196241885 16.8955204391  24.348363704 26.6943994095 17.4260017784  24.29127283305 26.2525764722 16.7578708879  24.1291775159 26.93384105465 16.5960483202  24.18626838685 27.37566399195 17.2641792107  24.95554513965 26.83835960605 17.0573430068  25.1176404568 26.1570950236 17.2191655745  23.4649052093 26.3480579208 16.2965762013  23.52199608025 26.7898808581 16.9647070918  20.7593598234 30.5389716744 20.8544175863  21.13476872595 30.97112529805 20.14727980435  21.31764287705 30.25175541265 20.2907303796  20.77323394085 30.43042235745 19.82218634135  20.7871080583 30.3218730405 18.7899550964  21.1486428434 30.8625759811 19.1150485594  21.3315169945 30.1432060957 19.25849913465  20.1835449872 31.3854779319 20.4675615483  21.0265336219 31.2392844303 20.8144594448  20.7386262038 31.66253755905 20.6210314258  20.84686130785 31.3943784268 19.95385178535  20.4714524053 30.96222480315 20.6609895673  21.2937074204 31.9395971862 20.7745013033  21.40194252445 31.67143805395 20.10732166285  20.6879753361 31.83717320565 15.5420055971  20.3127763108 31.59921781195 14.8364878923  19.5011560702 31.4717098911 14.0513155961  19.758248959 31.20944526155 14.78869631125  19.950098073 31.25406379575 13.9888132496  20.055683422 31.8614824415 14.09910717715  20.3990400758 31.0364177004 13.9263109031  20.2071909618 30.9917991662 14.72619396475  19.2325876478 32.0266668819 20.286905905  19.9984875314 32.1076238036 19.4859775521  19.6510125348 32.51373196355 19.28478815375  19.5481304792 31.9317729409 19.4755110283  19.6829447 32.2025177446 20.2973724288  19.3354697034 32.60862590455 20.09618303045  19.438351759 33.1905849272 19.9054601559  19.7858267556 32.78447676725 20.10664955425  20.1333017522 32.3783686073 20.3078389526  19.8636733106 31.8368789999 18.6641161516  23.1257232726 27.2915343841 20.938942019  23.3943094717 26.4350782058 20.1024059625  22.89745125155 26.58325622955 20.2973757215  23.38868237375 26.6339588368 20.8406119534  23.62258149275 27.14335636035 20.74397226  23.6516414749 25.9763832895 20.7422818878  23.1604103527 25.92568068225 20.1990456559  23.8855405939 26.48578081305 20.6456421944  24.1194397129 26.9951783366 20.549002501  22.80983491865 23.67989005345 19.55851426865  22.67763122605 24.43439137045 19.0231342773  21.36864890585 22.93874515785 18.7551883192  21.1786164629 23.48178470805 18.42410693065  21.85713768275 22.644239061 18.18958291995  21.36312228175 24.1926529844 19.12749986015  20.690127686 23.7762908049 18.9897123299  22.2986016641 26.02877320565 18.148980227  21.70491274625 26.53184661395 18.2375837387  22.1347703912 25.8277949779 17.36550867455  24.4732136457 29.929943705 18.9002616618  23.76327878345 30.0609655585 18.7501215101  23.70832248395 30.5867762272 19.2641441221  23.745510466 30.7760499253 18.79333336105  23.0533439212 30.191987412 18.5999813584  21.596259781 27.0334687879 17.31350850555  21.4165678052 27.1001485829 16.5206733052  22.2530448557 27.7437853349 16.5788384512  22.19786654805 27.0411849332 16.7194
[...]
<PointData  Vectors="u"> 
<DataArray  type="Float64"  Name="u"  NumberOfComponents="3" format="ascii">1.1039908294393615e+02 6.8859028790387697e+01 -2.1529102566822409e+01  7.2054688298512531e+01 5.2021409382818362e+01 -3.2249037608584402e+01  9.0222757002419499e+01 5.6980962689383325e+01 -2.7718205827827141e+01  9.9077080437065163e+01 7.4083283801374819e+01 -4.6626040008680640e+01  8.2418834843917537e+01 6.2087728997718237e+01 -2.8342394185135941e+01  5.7397769268088730e+01 5.8766699366797887e+01 -3.3674305846784129e+01  6.3380420890309324e+01 6.8526748111191949e+01 -4.6198849355891710e+01  8.9937042775259272e+01 6.8050631147098755e+01 -8.8278569122594334e+01  8.0211623325508512e+01 4.7606216126831804e+01 -4.5215105900673223e+01  7.3893916070271189e+01 4.6327849250076781e+01 -2.4918423480240453e+01  9.4449591353824985e+01 5.1168965326439825e+01 -2.7012111989685081e+01  8.0127842443731822e+01 4.9644369335981906e+01 -2.5032609235208145e+01  8.3783273118930367e+01 5.4150322691049041e+01 -1.5261751780600383e+01  7.2326641577863199e+01 4.8675174728718908e+01 -2.6296579467311521e+01  8.7752098469661235e+01 4.3690155985628287e+01 -4.0720333462708489e+01  5.4604155345133556e+01 4.6196417892906013e+01 -2.4921914890732424e+01  6.7480291107467409e+01 5.0953834912377978e+01 -1.7798653855151922e+01  6.6642331757491007e+01 4.2259992872580540e+01 -3.5796332474445137e+01  8.2753470486520314e+01 3.7751626490341316e+01 -5.3727909721757946e+01  7.6429851472679317e+01 5.4616948794156869e+01 -1.2352633644297713e+01  1.4704418269449983e+01 3.6633029628092309e+01 -2.2216051945987690e+01  2.7415603321605147e+01 3.4673128953219511e+01 -3.4310271538879917e+01  3.6060742382567774e+01 4.1604524046697925e+01 -2.6283961285038977e+01  2.4999038471931240e+01 4.5278373397496949e+01 -2.1723417010290813e+01  3.5974416199153190e+01 5.7029910050470377e+01 -1.7865313852048050e+01  3.7996282045794615e+01 4.3138039601414235e+01 -2.9142977616391306e+01  4.5524593771149050e+01 4.9536859253637331e+01 -2.1792263094417727e+01  4.8627189256924680e+01 4.0304402742475382e+01 -3.3214138678966059e+01  4.2081455169448510e+01 3.2201900790818840e+01 -4.3502561666285487e+01  6.7924809146388441e+01 1.8351598667978031e+01 -1.1085351168695976e+02  6.4159356113879866e+01 8.1838334193621112e+00 -8.9390139686773267e+01  6.7427220129057389e+01 5.2994212980750124e+00 -8.9752407533590215e+01  5.2932415500992668e+01 9.9861763799845427e-01 -9.8842745253725880e+01  4.6799087162092007e+01 -9.1251421725508077e+00 -9.9573390889116212e+01  1.3389090853855643e+01 9.1967798370995069e+01 -3.8685987419705725e+00  1.3767639993248915e+01 6.1424372374971362e+01 -1.5242379560781947e+01  2.3973473875372751e+01 6.8420524858379352e+01 -1.3331730966173089e+01  -4.0946861473371632e+00 6.0151485044543222e+01 -1.7971210801935904e+01  5.7590645747657518e+00 8.6153435586637173e+01 -7.1631842029822943e+00  3.5054428772993589e+00 4.3892701548244915e+01 -1.7944370466524255e+01  1.9882770264507108e+01 5.3704731610488480e+01 -1.7495320690936730e+01  -3.6195900500874703e+00 5.5153344266687419e+01 -2.1288471536921175e+01  -1.0771541465172257e+01 6.8554731492809097e+01 -5.8945910879490770e-01  9.3974131154900974e+01 1.2797232238457846e+02 7.0031180483337740e+00  7.3744162387505227e+01 1.0834030980696885e+02 1.4799329976550329e+01  9.1383966436269816e+01 1.1274535477775737e+02 1.0692991145400672e+01  7.9655761592451569e+01 1.0734114808979081e+02 5.3186494803905733e+00  7.4767219301090435e+01 9.3519411794600586e+01 1.8159443711694658e+00  8.3580512187878966e+01 1.0062842464666704e+02 6.6968778688528054e+00  9.1205271890075224e+01 1.0713854789098220e+02 1.1703180746476654e+01  2.3328602774941660e+02 -4.0025170312218023e+01 -4.6670823094427291e+01  1.8948691951616513e+02 1.4886198291739870e+01 3.0053013146542273e+01  2.4920089274556150e+02 -2.9299165879771728e+01 -2.5886238066298997e+01  3.1847600351355140e+02 1.2539874372184389e+01 3.2605978778983548e+01  2.6384366315933204e+02 4.2974715544875394e+01 1.3812546335948971e+02  1.9840062851474673e+02 1.5260484882492753e+01 8.2879489985654530e+01  3.2216641646444702e+02 -4.1973606478984870e+01 1.1506546584629072e+02  3.1204009860357212e+02 -1.1403421490200053e+01 4.8152192911211706e+01  2.2594016791031609e+02 2.0173471200278982e+01 8.2492910373125497e+01  1.9120560331065943e+02 3.0750224179726835e+01 7.3677915424136174e+01  1.1377769331645308e+02 2.0935838348405397e+01 -1.3100144986364404e+02  8.5389245932985105e+01 2.2005432945847023e+01 -8.6141890174999418e+01  7.0136526513248100e+01 1.0121201317791735e+01 -9.0751058188090880e+01  5.0621999120045786e+01 -3.7067037870200226e+00 -8.2712859019155303e+01  6.1280104771546178e+01 7.4008682541750730e+00 -7.7239418645866067e+01  6.6364888875637888e+01 1.6630984105319154e+01 -6.9790387017471843e+01  5.7861754578586854e+01 4.1569226703341027e+00 -6.8166435310916995e+01  7.3480056014056700e+01 2.5439816499113935e+01 -6.1301098656649017e+01  6.4073860040263583e+01 1.1738616622309655e+01 -6.5057852957763430e+01  6.7817026532683030e+01 5.5818251966309688e+01 -2.1822554284936380e+01  7.4125041717704008e+01 4.7296533688441649e+01 -9.3519980789107748e+00  6.5678259261181807e+01 4.4260639968943387e+01 -1.6544648541070405e+01  7.0191240300273748e+01 5.3437091055347381e+01 -1.4631663077330483e+01  6.5376969113207551e+01 4.0083227177982039e+01 -1.2267564870875304e+01  5.9602704595748413e+01 5.1401204528466742e+01 -1.5234094559886156e+01  7.3488207296488952e+01 4.1933307208302701e+01 2.1432675784516766e+00  5.9386232644837335e+01 4.4568872102387878e+01 -3.2621794735033212e+01  5.9172530009058796e+01 3.0820697535970165e+01 -5.0292874839123328e+01  5.6416783903488913e+01 3.0412040397737389e+01 -4.9455007029124111e+01  6.7569980678537760e+01 3.6415751524507726e+01 -4.4773500562920873e+01  3.8613235786067790e+01 3.1371031753227680e+01 -4.3808638791142137e+01  5.0473503045928915e+01 3.8481009889089222e+01 -3.8119303403171692e+01  4.7927438956776655e+01 3.8890781834601725e+01 -3.8059960369017432e+01  3.3863747627429362e+01 3.1600921151932013e+01 -4.3558131954004722e+01  3.8745108743377372e+01 5.3384256713384843e+01 -3.5288461639613729e+01  5.4875095929476679e+01 7.6547392797186617e+01 -3.4986070098005371e+01  4.6181626386642940e+01 5.6634541251797955e+01 -5.3980446930479410e+01  6.2275311253530589e+01 6.2594683662959810e+01 -3.9690689819864964e+01  5.0506090389087078e+01 5.8653035278146859e+01 -3.2315809946058963e+01  7.7817664014720421e+01 6.6769385373687854e+01 -9.0668379994885072e+01  6.7306147334176856e+01 5.3183593530000692e+01 -7.7778766148320287e+01  1.7983314602464432e+01 4.5767802057370076e+01 -2.2008693537384243e+01  -4.3736825041177783e+00 4.4901765577299081e+01 -1.4519214025066740e+01  4.9587865221454974e+00 4.0248341149230441e+01 -2.0520816060014006e+01  -3.5037867816126961e-01 3.1004212061770364e+01 -2.3469916578971667e+01  1.6060265403483552e+01 5.9008805069541033e+01 -1.4820602473381685e+01  2.5671529944776754e+01 7.3276350653956513e+01 -7.6106798643849203e+00  -1.3549931092518646e+01 6.6672500562146780e+01 -7.9641405219230832e-01  -1.5844000085107611e+01 6.1344557455900571e+01 -3.7241273187123665e+00  2.6811659602624374e+01 7.1302325604655735e+01 -1.0619057754301139e+01  5.5950397493800374e+01 7.2740774241065225e+01 -9.5217276860916300e+00  4.4658135971577742e+01 6.6312401143521072e+01 -1.3758619933531183e+01  6.2823916145175041e+01 5.4477002863723889e+01 -2.2173878150074142e+01  6.4922298933841986e+01 6.0871486492378857e+01 -7.8861809464361636e+00  5.2755646262528224e+01 5.8039046350280763e+01 -8.3346123541640065e+00  5.2562917470547504e+01 5.1539739620208366e+01 -1.6711223209796984e+01  5.2566789856744343e+01 5.6836706189612926e+01 -1.0639271296432268e+01  5.4178703612022289e+01 5.0409968007773813e+01 -2.1791099306742595e+01  5.3999780839433825e+01 4.7887363736152821e+01 -1.8705529171928251e+01  1.5518647733024818e+02 4.5872603253281007e+01 -9.8717939149849443e+01  1.0249389188766682e+02 4.4215868263661747e+01 -6.3652542855187825e+01  1.0549917320222087e+02 3.7313845290482533e+01 -7.2697405642186368e+01  1.0085289777559777e+02 5.0429999647812053e+01 -4.4956992114093282e+01  1.6650875967557744e+02 6.1660907369756714e+01 -8.2806473768571593e+01  1.4496411065406858e+02 7.6906005201807361e+01 -6.5761642273169770e+01  9.6132653659897827e+01 5.3332371929631428e+01 -3.9208842343150238e+01  7.9198890372719234e+01 4.4375130791094861e+01 -3.9425641762567764e+01  1.3642838929472785e+02 3.0030837414911041e+01 -9.2753452074344409e+01  8.7845433638791448e+01 3.9894786399689380e+01 -4.6379338226904601e+01  1.1297168080747221e+02 4.5304979208478422e+01 -5.5673675793084172e+01  8.9975998064413133e+01 2.6236495296946920e+01 -7.3714905618151960e+01  1.1259038141981321e+02 4.7447624197204235e+01 -4.2568153419067066e+01  1.3885278139706833e+02 4.6607780384088699e+01 -1.3642694210867231e+02  3.6591199548587994e+01 2.0122129374061856e+01 -5.8269419631330734e+01  5.8644155768788636e+01 2.8217306876006024e+01 -7.4840140693769044e+01  5.1515896149077378e+01 3.0118652059981834e+01 -5.5165762487010355e+01  5.7403018679923427e+01 3.2682772696227808e+01 -5.8316931892222101e+01  4.4904557840144236e+01 2.3735846330553024e+01 -7.9036862231845461e+01  6.1953800449215947e+01 4.1627594102205855e+01 -6.1584635164014436e+01  5.7865709590273639e+01 3.0708842642178922e+01 -8.2315252284221458e+01  6.2633392819711467e+01 1.9655331877472065e+01 -1.0133859613561454e+02  6.0481121061756568e+01 3.8068504040222798e+01 -5.1548736136958773e+01  5.3522499516303085e+01 5.0500726611197642e+01 -4.2782074538996952e+01  7.3410213434840927e+01 4.4318665949628638e+01 -6.5505484304870748e+01  4.6676678621228483e+01 4.5350707226911197e+01 -3.6687578864321253e+01  5.1818797230197831e+01 3.9777106970028825e+01 -4.4477321183974418e+01  5.8187447901868204e+01 5.2210818608388891e+01 -5.5420989943716300e+01  4.8946380645467727e+01 2.7506458305557263e+01 -4.7311446892191498e+01  1.6242586443354932e+02 4.0407183704182764e+01 2.0961004876515783e+01  1.5693035152092415e+02 7.3188377251964916e+00 -2.0031908925787452e+01  1.6551662110602206e+02 3.4481335731656664e+01 2.6765116057794685e+01  1.4289296595095573e+02 4.1456083974103024e+01 4.6370664910149877e+01  1.6299134425352770e+02 3.8302480411037379e+01 5.8089853062552123e+01  1.4738306035378071e+02 4.3623462021398112e+01 -2.1448027890798684e+01  1.8667756333615199e+02 3.7707596666845753e+01 2.1201747078736098e+01  1.6877663197417283e+02 1.7314967695501568e+02 1.8544137733001989e+01  1.4064345136722059e+02 1.3233087080465199e+02 5.4321107132743407e+00  1.3000053100445496e+02 1.3250711114555600e+02 4.8598200813578734e+00  1.7030805886497708e+02 1.0866036373680861e+02 3.3641281541583702e+01  1.8980329579796754e+02 2.1273313877264471e+02 2.1002985783724814e+01  2.4438684851161912e+02 1.8389537379740440e+02 3.4118221627734044e+01  1.9541578495961343e+02 1.0111627371038161e+02 2.7406725248647003e+01  1.6756586925364655e+02 7.4410216968494680e+01 2.1216438389359904e+01  1.3618001346134108e+02 9.7578524751874724e+01 7.7746299027498198e+00  1.0970194264044325e+02 1.0972034380891905e+02 -1.5682934126564763e+00  4.2694473040049123e+00 5.2339339083810561e+00 -7.1372214193448997e+01  2.3667408181666158e+01 1.5292657300464718e+01 -5.9390412980320846e+01  4.3311656319337104e+01 7.1694071688195695e+00 -6.9780628083492743e+01  3.6739723505570673e+01 1.3618655430586093e+01 -6.5009557850671740e+01  1.7870297124133423e+01 2.0100842058364368e+01 -5.3968350275469852e+01  8.3071313533650368e+00 -2.3409111619937475e+00 -8.2341479076866321e+01  2.5261028885207324e+01 -7.6567058627434443e+00 -8.6077972356838060e+01  5.3698404777060489e+01 1.3407714136871407e+01 -6.2640277979220201e+01  4.5272169123489064e+01 2.0817256679100339e+01 -5.6450845944266163e+01  1.1064950674368434e+02 9.5222458673024803e+01 -1.2616098561740465e+01  9.7391749543882071e+01 1.0562438162204690e+02 5.9923567171057268e+00  8.8528882287297179e+01 9.5508484120045452e+01 -2.8084117212987458e-01  9.3133976130948213e+01 8.8445823058384903e+01 -1.8544684984067774e+00  8.9798393820184586e+01 8.3252058288001365e+01 1.4706981896311253e+00  8.9984255886572626e+01 9.4746163823549125e+01 4.6234149020796593e+00  8.1681883040349277e+01 8.7763586441049767e+01 8.6231179581086725e-01  1.3392788645520645e+02 1.0904414509473965e+02 -1.6907019392339922e+01  9.9596867008741754e+01 1.2155802100552714e+02 7.3957170136596107e+00  1.1111673561858301e+02 1.2649427595398885e+02 2.0614049734740370e+01  1.0460327334891535e+02 1.0749476427058298e+02 9.3277090308634758e+00  1.3478981269491007e+02 1.0746134816411291e+02 -1.7194078929699767e+01  1.0193791760569393e+02 1.3162441091772851e+02 2.4095483505570293e+01  9.8885750865922191e+01 1.1577311131995542e+02 1.6214330672871998e+01  1.4110918749738269e+02 1.1180045730555723e+02 -2.0769231044844063e+00  1.8787076585093286e+02 1.0646728772691554e+02 2.6189957053327446e+00  3.4781619658111185e+02 5.9530942646221753e+01 1.2234532955726031e+02  2.2137869012867753e+02 7.5603944365739522e+01 4.0555997888897949e+01  2.9293544631334697e+02 8.4875566456934280e+01 -1.8068496400305332e+01  2.4055873350540358e+02 1.4442594690034466e+02 1.3198833183673795e+00  2.3415436479206795e+02 6.9168675054552338e+01 -3.8913385051353764e+01  1.9821513608269919e+02 7.3240781231419490e+01 1.0413765483818208e+01  1.2960763409409040e+02 7.4278315498980703e+01 -5.2239961767504980e+01  1.2214867738186517e+02 1.0271781275478656e+02 1.9525010529904261e+00  1.2811988231914802e+02 1.0096351652506236e+02 3.8006360270284967e-01  1.1952782142539428e+02 9.3386513645326531e+01 -9.3374802002351787e-01  1.6281220355643143e+02 1.1365415994539127e+02 -3.9940951624564351e+00  1.8272946288262625e+02 9.6702955931720268e+01 -2.8170491518903706e+01  1.8284299337213858e+02 1.2823789418104047e+02 6.1561447920975203e+00  1.5876618719636642e+02 1.3759938211725782e+02 4.1058569588670736e+01  1.3270959081930067e+02 1.2914259490172989e+02 3.1683263091948323e+01  1.1311687086091538e+02 9.6263599004700126e+01 6.1332223809914357e+00  3.1538426157880021e+01 5.6147516760780860e+01 -1.0432807191367482e+01  3.8158087458467023e+01 4.8219504376707569e+01 -1.8528450585875600e+01  4.5996301377023052e+01 5.3001437584459495e+01 -1.4133078169322751e+01  3.4710970893327449e+01 5.0729462258780607e+01 -6.6219065949447806e+00  2.8588140120428307e+01 5.3293993197264854e+01 -1.2540063093569398e+01  3.2179525772559799e+01 4.7769731683510926e+01 -1.3473153515434664e+01  4.4605680391410985e+01 4.7174337446402014e+01 -1.9292494974697792e+01  2.8948080865172017e+01 4.9139230413342240e+01 -1.3999111176901909e+01  1.9858495476402343e+01 4.6820973795763287e+01 -1.3277572502611829e+01  6.1499088842189195e+01 4.6656809984852345e+01 -2.7072943419215910e+01  6.7285587440634259e+01 4.3298334048564307e+01 -3.8162780621058950e+01  1.1017907500372743e+02 6.9813787730623730e+01 -5.2734323436542141e+00  1.1809571393480815e+02 7.2532662998978736e+01 -1.6090630780013967e+01  1.3060020734793133e+02 8.4276580170774224e+01 -3.1326177243091063e+01  8.8512236971896129e+01 5.3998801930118994e+01 -1.3574130710345367e+01  1.0246583985927488e+02 6.5128389074768094e+01 2.4699253184168590e+00  6.9082839870628177e+01 3.9340043735589155e+01 -4.1855521036768828e+01  7.6651952204153304e+01 4.6694163146340664e+01 -3.1845214784251919e+01  7.7731962866718419e+01 3.1409673253856621e+01 -5.9638670274149867e+01  -3.7251428355245206e+00 1.1144541306877821e+02 2.4495925784673343e+01  2.1563839358179070e+01 1.0242714570281879e+02 1.4704528961741680e+01  3.5251106769487599e+01 1.1774497067730059e+02 3.1117061972788402e+01  3.0866302339499814e+01 1.1379032042237486e+02 2.8645787107048847e+01  4.3105086598728249e+01 9.5718520080736013e+01 6.2514677285904767e+00  8.1472202717861848e+01 3.9679462218223478e+01 -4.0244852562606169e+01  8.4142963905178590e+01 2.2959702190112502e+01 -5.5995429386143812e+01  6.8025328294127476e+01 3.4960695448202614e+01 -4.3352281755087532e+01  6.9638400488365264e+01 2.8525351613032221e+01 -5.1064597056430529e+01  1.4881861092262576e+00 1.0444839720865100e+02 2.1532097588419667e+01  7.4442474516844968e+01 1.6242104853760765e+01 -5.7334002055229007e+01  7.1706899009027723e+01 -1.1983889878949281e+01 -1.2363920679084080e+02  4.4009537671910465e+01 -2.3018112961628660e+01 -9.4117761551012293e+01  7.4117302340134330e+01 1.1996521259110780e+01 -7.7142385915203349e+01  8.7323984625131118e+01 1.0807450232512660e+02 4.9267422797400231e+00  7.7531583695613335e+01 9.7494781656326580e+01 4.7879810333106683e+00  8.8931801637788851e+01 1.0574894944771704e+02 1.0506973496193947e+01  9.1174057194254900e+01 9.6611074090589469e+01 5.2846342746241053e+00  7.7695259497674542e+01 9.9820479028227282e+01 -2.0343736886588440e-01  8.1366632998240362e+01 8.6398390850545084e+01 -9.4559176035587844e-01  6.7407231217873885e+01 8.8461912321173884e+01 -8.8622580538001756e+00  1.1053012943005258e+02 6.7025870174798229e+01 -5.8635653403875376e-01  9.0663832204934963e+01 7.0996507873579176e+01 -6.7291520116755015e+00  8.9606810207852220e+01 7.7973024989340004e+01 -7.8897724062984231e+00  9.6260912964611165e+01 7.6341381863898988e+01 7.1241432584529696e-01  8.2784978132666595e+01 7.9706797072445909e+01 -1.8163529975607953e+00  7.2182032339582122e+01 8.0917440421166290e+01 -7.6492529462462118e+00  7.6254283506046420e+01 7.4495018324463473e+01 -7.2625343110577010e+00  1.1075835610289357e+02 1.4880456333802547e+02 -7.9875124601897616e+00  6.8434823025031676e+01 3.0596082898033831e+01 -8.0307513681923339e+01  6.7826260877587558e+01 2.5724549202035458e+01 -9.0271761130460490e+01  8.4217062201412588e+01 3.1864037538676211e+01 -1.0189615410460721e+02  2.8992421558974318e+01 4.5954675038601586e+01 -2.1166439398221410e+01  2.1343223012272837e+01 4.0670762480617071e+01 -1.5743603630713736e+01  8.9762403632473124e+01 1.8230337571260513e+01 -1.2130236871670769e+02  7.9189277184188441e+01 3.6171515015166825e+01 -7.5825891450344372e+01  8.6680145739600675e+01 2.9927754527574653e+01 -7.9828477544440133e+01  7.0675172501207498e+01 2.0120628487542060e+01 -8.4074840423149936e+01  5.5294578788205534e+01 1.7455177625818365e+01 -7.1456669434861070e+01  7.0383216949998072e+01 3.6722133588453325e+01 -5.2337608451394317e+01  5.8719764752298964e+01 2.8473815936467169e+01 -6.3092531402374256e+01  6.5898029990271453e+01 2.7628632310069253e+01 -6.2437913586729465e+01  1.5835961406283658e+01 4.7395426442807853e+01 -2.2866216302891143e+01  -1.3381054259856983e+01 4.2408319448133128e+01 -1.1078645125329766e+01  -7.4631437574832535e+00 3.1334706947561294e+01 -2.6007352173870053e+01  -1.1597939958713733e+01 2.6886648891051536e+01 -2.5821572799532731e+01  5.2559106588387081e+01 8.8306970706476690e+01 -3.7307828227682731e+00  3.7019452987330133e+01 8.0214128619933348e+01 -5.8394599334099855e+00  4.2146986308193931e+01 7.3827036256605638e+01 -1.0735486501957789e+01  5.5157395169344142e+01 8.2115445132748675e+01 -4.0627689186498790e+00  3.9001121222843828e+01 9.6201835382063294e+01 -8.3205781913035430e+00  1.1347357341038905e+02 7.1261402509375301e+01 -8.9673845801058732e+01  8.5189919866155435e+01 6.0887401661332405e+01 -1.5741252565784800e+01  9.3366466623357041e+01 5.8108909517874622e+01 -2.2767031976844603e+01  1.0348791192899030e+02 5.6657722320086634e+01 -1.2586107742903902e+01  8.0512517628462618e+01 7.2224454132852955e+01 -1.3907295239998247e+01  1.0142489979731295e+02 6.9161777755298274e+01 -1.1461293470320001e+01  8.8996889443140034e+01 7.2118597889153946e+01 -2.1861889202889682e+01  9.7166221355406265e+01 4.4962669696574331e+01 -2.5949819256689100e+01  6.4469609814537279e+01 6.7547431285088166e+01 -4.7077342746257891e+00  5.7689489252862188e+01 5.6012260600876850e+01 -1.4096614211993371e+01  4.9976960365724310e+01 6.2473642947788562e+01 -1.0239000419312505e+01  5.8843011101323739e+01 6.2446758450001482e+01 -7.0342880270603487e+00  4.4165984165124982e+01 5.6331469720283522e+01 -1.3258544627662557e+01  1.0145369961310573e+02 3.2424477997928044e+01 -7.3775169479253123e+01  7.6801435968541952e+01 1.1765889113968209e+01 -9.7702067296