<?xml version="1.0"?>
<VTKFile type="UnstructuredGrid"  version="0.1"  >
<UnstructuredGrid>
<Piece  NumberOfPoints="4373" NumberOfCells="19510">
<Points>
<DataArray  type="Float64"  NumberOfComponents="3"  format="ascii">19.4590499385 9.0673018965 18.925589728  18.8406087547 7.7989744419 18.7507709241  18.6006840423 8.2471516642 18.2513209455  18.5990573904 8.8717096948 18.74147078645  18.8389821028 8.4235324725 19.24092076505  17.7390648423 8.6761174931 18.5573518449  17.9789895547 8.2279402708 19.0568018235  18.2189142671 7.7797630485 19.5562518021  17.2117398164 5.280754722 19.416975698  18.33605376295 5.8379637507 19.3093883192  17.671579458 5.7175414704 18.89764922925  17.29279574945 5.9641309048 19.39257446  17.3738516825 6.6475070876 19.368173222  17.8853179114 7.8427301415 18.37319949855  18.92762699945 9.11588522365 18.01578354495  17.64184175055 5.63796246375 20.04159953785  18.5066730871 18.5859701435 19.1706299286  18.18879539955 19.20187058485 18.8675226281  18.71202784525 19.782414722 18.7804963703  18.27912221445 19.83981213405 19.29738113575  19.0299055328 19.16651428065 19.0836036708  18.596999902 19.2239116927 19.60048843625  17.870917712 19.8177710262 18.5644153276  18.61808128545 19.3010006497 18.33812649775  18.935958973 18.68510020835 18.64123379825  19.3652448589 18.7842302732 18.1118376679  17.6013925911 19.1881566933 20.0953457029  17.73615515155 19.50296385975 19.32988051525  17.62325679715 20.07387362755 19.6413017905  18.0540328391 18.8870634184 19.63298781575  18.1454289759 6.887466627 20.1112375899  17.7963829748 7.213635068049999 19.46221251205  17.6295557206 7.676980932799999 19.94351051625  15.0682284423 15.8940500146 22.8937474425  14.29239671035 15.2134056813 22.0107999639  15.1901980776 15.7251421364 22.2201949631  15.0211608288 15.250175294 22.55891512985  14.33946432385 15.8572804019 22.34563227655  13.6107002054 15.8205107892 21.7975171106  14.46143395915 15.6883725237 21.67207979715  14.9740932153 14.6063005734 22.2240828172  15.1431304641 15.0812674158 21.88536265045  15.3121677129 15.5562342582 21.5466424837  14.1382484086 14.69180169715 21.69808600075  13.45655190365 15.29890680505 21.48480314745  13.3045817768 15.2036612992 21.99463088135  12.9984633482 14.5868118092 22.1917446521  13.15043347505 14.68205731505 21.6819169182  13.3024036019 14.7773028209 21.1720891843  14.6275808953 14.17376571535 21.54177557525  15.09191231575 14.178991774 21.9903035259  15.11767771075 14.5497030058 21.72961744315  15.2612622062 14.4931054382 21.2351520691  14.74539999575 13.74645691595 21.30799628395  14.77116539075 14.11716814775 21.0473102012  15.2354968112 14.1223942064 21.49583815185  15.2097314162 13.7516829746 21.7565242346  14.2810685753 13.7412308573 20.8594683333  14.3072856574 15.16676853955 21.359365834  14.28183290405 14.63520412955 21.2036206267  15.28671495955 15.0246698482 21.3908972764  14.3400991619 17.1893846532 22.0788774645  14.4402720865 16.39071895055 21.89435529375  13.97539968365 16.5049477212 21.93819728755  14.7041638021 16.5417173339 22.4863124535  14.80497156475 17.07515588255 22.0350354707  15.16903620495 16.42748856325 22.4424704597  15.2698439676 16.9609271119 21.9911934769  13.0236645672 13.7491351147 21.1529063879  14.1315190835 13.77931057095 21.90009026085  13.5779306902 13.2378091562 22.01464898765  13.65236657125 13.745182986 21.0061873606  13.727480182 13.19972944255 20.9740270601  13.09877817795 13.20368157125 21.1207460874  13.1738917887 12.6582280278 21.0885857869  13.63976596175 14.16402133325 21.5256064927  13.0110639577 14.16797346195 21.67232552  13.7462834787 14.05965473585 20.4694350249  13.11758147465 14.06360686455 20.6161540522  13.256950992 14.57769071765 20.6257454504  13.16303408455 14.2632189678 21.1624977861  13.7917360886 14.2592668391 21.0157787588  13.2114983821 14.3780786144 20.0794017165  14.5064086341 15.4845707047 21.04171067635  13.65567488035 15.6167089702 21.1671479898  13.5015265786 15.09510498605 20.85443402665  13.7006495553 15.4129071512 20.536778869  13.9908590653 14.57706900425 20.69812360115  13.4560739687 14.8954928828 20.30809029275  14.48095588075 14.9530062947 20.88596546905  15.0146075315 17.2514523892 22.5389024253  14.91379976885 16.71801384055 22.9901794081  15.29100584025 16.25858068505 21.7689179803  13.94040619405 12.80907809985 21.3070155885  13.70785210155 13.36744614245 20.28267875155  13.0791500975 13.37139827115 20.42939777885  13.15426370825 12.8259447277 20.39723747835  13.1346356278 12.9936614276 19.7058891698  13.17306700495 13.685870021 19.89264544315  7.8034251045 12.033940228 17.1502177374  9.05455249615 12.5496084144 17.0188941674  8.270108484550001 12.59653070515 17.3850426375  8.29939582145 12.70140188505 16.64482494125  8.5878691161 11.98701793725 16.7840692673  8.7953665384 13.3688635421 16.1394321451  8.7660792015 13.2639923622 16.87964984135  9.08383983305 12.6544795943 16.27867647115  9.3723131277 11.9400956465 16.4179207972  8.736791864600001 13.1591211823 17.6198675376  8.065594399 9.838767364300001 16.4463600325  8.582173021799999 10.23196337285 15.58537305975  8.405181184 9.4376450222 15.66986690635  8.7028639182 10.20458116165 16.0531003478  7.9449035026 9.8661495755 15.97863274445  7.8242126062 9.893531786700001 15.5109054564  9.0424507032 9.803458819549999 15.27660722165  8.284490287600001 9.465027233400001 15.2021396183  9.3401334374 10.570394959 15.6598406631  8.744767969 9.036522680099999 14.8933737802  10.827203566 12.0035052105 15.8425304645  10.1366729019 11.1944723358 16.2510414574  10.09975834685 11.9718004285 16.13022563085  10.0836685017 11.28695008475 15.7511855638  10.86411812105 11.2261771178 15.96334629105  9.356223282550001 11.25524530275 16.03888073015  10.12058305675 10.50962199205 15.87200139035  10.9010326761 10.4488490251 16.0841621176  7.8103949161 8.9496063565 15.933866311  7.985814556699999 8.714123939549999 14.9881506239  8.666077116450001 8.2432100458 15.39191442395  8.27758144255 8.993064518299999 15.4136200456  7.518628030249999 8.670665777749999 15.5083968893  7.2268611444 8.391725199 15.0829274676  8.374310230600001 7.96426946705 14.96644500225  9.133263642900001 8.2866682076 14.87166815855  9.521759316800001 7.5368137351 14.8499625369  7.6786568541 16.8656328443 14.7310433764  8.005714117450001 15.71511849615 14.4488842123  8.39361493575 16.0864498245 14.42524991815  7.4687424501 15.89057668045 14.31697539465  8.21562852145 16.69017466 14.86295219405  8.752600188800001 16.5147164757 14.9948610117  8.9305866031 15.9109916402 14.5571587358  7.2588280461 14.9155205166 13.9029074129  8.183700531749999 15.11139366065 14.0111819364  9.108573017399999 15.3072668047 14.1194564599  9.198416892999999 10.9947727191 20.3690670812  9.310779335299999 11.17266696135 19.67041218855  9.533045533899999 11.8762992586 19.692280527  10.11249877565 11.7476674647 19.9196672748  9.867674174799999 12.7578257981 19.0154939728  9.6454079762 12.05419350085 18.99362563435  9.4231417776 11.3505612036 18.9717572959  8.418130227100001 11.7967428903 11.731586233  8.450957396 10.94308724605 12.82500165805  8.8159970239 11.58197244355 12.6239288665  8.105583848849999 11.48564356245 12.715589377  8.763503774250001 11.2541865739 11.84099851405  9.1088773214 10.7116302575 11.9504107951  9.16137057105 11.03941612715 12.73334114755  7.7930374706 11.1745442346 13.699592521  8.50345064565 11.2708731157 13.6079320105  9.2138638207 11.3672019968 13.5162715  7.9121141233 15.8519262866 15.8482165784  8.03418512965 15.17251871695 15.72049107955  8.480060408050001 15.56988791205 16.0894121256  8.16509091825 15.50521156495 16.3246342105  8.418067713199999 15.1584968433 16.8010518426  8.602131414399999 14.8904803424 15.96168662675  8.287161924599999 14.8258039953 16.19690871165  8.733037202999999 15.2231731904 16.5658297577  9.0480066928 15.2878495375 16.3306076728  8.156256136 14.4931111473 15.5927655807  8.31945711895 12.0263484077 16.26966756055  8.0309838243 12.7407323555 16.1304232345  7.53501310735 12.07327069845 16.63581603065  7.2666011102 12.1126011689 16.1214143239  8.4460743875 13.895122476 14.2110777511  9.062661696549998 14.1403308819 14.70742293945  8.30116526175 14.19411681165 14.9019216659  8.62072046295 13.63199300905 15.1752549481  9.237307771999999 13.87720141495 15.67160013645  8.4758113372 13.9309873447 15.8660988629  8.917752570799999 14.43932521755 15.39826685425  9.679249005599999 14.3855392878 15.2037681278  8.6324145767 14.900188976 14.8561110203  8.777323702449999 14.60119464035 14.1652671055  9.393911011499998 14.84640304625 14.66161229385  10.24886403 8.577217168400001 18.3371682063  10.13548029455 8.2767608667 17.50968095305  10.39097477015 9.00026885115 17.3153870208  9.7784314974 8.34124079805 17.8522746169  10.60591282715 8.512737237050001 17.99457454245  10.033925973 9.064748782500001 17.65798068465  10.9629616243 8.4482573057 17.6519808786  9.818987915999999 9.552280396600001 16.978793163  9.563493440399998 8.82877241215 17.17308709525  9.307998964799999 8.1052644277 17.3673810275  9.383000490200001 10.32143817135 19.56445060245  8.627060759799999 10.77424326025 19.28143087775  9.5675840874 9.648103623600001 18.7598341237  9.495362932500001 10.4993324136 18.8657957098  5.4854015325 15.5973287166 16.4400213205  5.406342407349999 14.6913628443 16.12729496685  5.11963766625 15.17120285645 16.38277769705  5.5947753099 14.93891380305 16.64884478425  5.7041490873 14.2804988895 16.857668248  5.0405785411 14.26523698415 16.0700513434  5.51571618475 14.03294793075 16.3361184306  5.22901144365 14.5127879429 16.5916011608  4.7538738 14.7450769963 16.3255340736  5.3272832822 13.785396972 15.8145686132  11.0248221738 13.1567704417 19.3184683817  10.79543623025 12.37492085015 18.831215023  10.507400707 12.4857458373 19.2293921289  11.0859747065 12.6852181591 19.38087933335  11.37401022975 12.57439317195 18.98270222745  11.1471272392 12.2136658765 19.443290285  11.43516276245 12.10284088935 19.0451131791  11.7231982857 11.9920159022 18.6469360732  8.7626856031 10.0597368776
[...]
<PointData  Vectors="u"> 
<DataArray  type="Float64"  Name="u"  NumberOfComponents="3" format="ascii">2.1355422662649300e+02 -1.0811348786206895e+02 -4.3755741763097362e+01  1.7790726667214366e+02 -7.6556629542938452e+01 -2.6852432851476095e+01  1.8001073651090604e+02 -8.1007517926396162e+01 -2.4547676726795920e+01  1.6976231533574691e+02 -9.5511717364828485e+01 -3.1368603317229699e+01  1.7477884669411580e+02 -9.4464351369750673e+01 -3.7245102814497940e+01  1.5959362155337755e+02 -8.3436610509487139e+01 -1.1252864513477535e+01  1.5752095648930415e+02 -8.0878204069517722e+01 -1.9154911518867365e+01  1.5926764670422079e+02 -7.8836140809628290e+01 -3.0066013269541468e+01  1.6177592262177663e+02 -9.7709966698105632e+01 -6.5184551873773955e+01  1.5703952974402713e+02 -7.9353056153037940e+01 -4.4061708955073968e+01  1.5894983565329557e+02 -1.0327020913706450e+02 -4.1216258914126669e+01  1.5701527157463212e+02 -7.8192880685720368e+01 -3.4874357465175073e+01  1.5259642781542556e+02 -7.1913062517644477e+01 -2.1544437504698500e+01  1.7298161721814057e+02 -7.6596338986983810e+01 -1.2869509309853051e+01  1.8767592017779876e+02 -9.8087189693365772e+01 -3.4507560628263562e+01  1.5379155571774561e+02 -6.7245504410975144e+01 -6.0420428560898856e+01  4.7441471404910047e+01 1.1790027984615912e+02 2.8056029258494004e+01  5.1040958875196033e+01 1.0534313359434827e+02 3.7573036150709562e+01  5.8495901071497585e+01 1.1270375107690175e+02 5.0659995017123080e+01  6.6581631926101608e+01 1.0636031929136396e+02 4.5510500909783673e+01  5.4301068424346539e+01 1.1997937225278429e+02 4.4440333818202618e+01  5.9769413330153725e+01 1.1482811975429792e+02 4.8187705188929101e+01  5.1251510139853806e+01 9.8315743658018505e+01 4.2253461365820563e+01  4.4628878762784879e+01 1.0186707996513981e+02 4.8778547704484545e+01  4.2582713806578440e+01 1.2144944810655481e+02 4.5360626440400416e+01  2.2979019322777912e+01 1.0848508330510025e+02 5.2072886849502069e+01  6.5408821897064755e+01 1.1939100283019413e+02 1.0785127683870591e+01  5.6362874185401395e+01 1.0495675998679157e+02 3.1542387740227412e+01  6.3756480578871340e+01 1.0171502840135815e+02 2.9856278973955764e+01  6.4285470560940354e+01 1.2841837336370151e+02 2.3559131056728219e+01  1.5642556626809576e+02 -6.7586480935969476e+01 -4.0561438020752355e+01  1.5467989709970783e+02 -7.1740998387505911e+01 -2.4949129558577344e+01  1.3839735883465687e+02 -6.8870107681141960e+01 -2.6654145037490760e+01  8.2093812272474800e+00 3.1273351183272634e+01 -2.0893277385488038e+00  3.1864620466999408e+01 3.5723396150010892e+01 -3.0255465260981143e+01  1.0240913052283442e+01 3.8912009429396733e+01 -4.1418384602953438e+01  6.8664170970462912e+00 3.7054572899396881e+01 -1.7151579127212450e+01  3.4599128399350448e+01 3.7798215006464005e+01 -2.5562895341202285e+01  3.7770470053475805e+01 3.4069158267343241e+01 -4.3547548306729340e+01  3.1235614574155555e+01 4.2362859107668882e+01 -3.3713500195340458e+01  9.6982429906979899e+00 2.9425289736638764e+01 -2.1079691500317082e+01  1.7172589521661482e+01 4.2441126949727163e+01 -3.6990033307403905e+01  3.2985187765884753e+01 5.1285493220074940e+01 -3.9925387707263639e+01  2.8560659798063313e+01 3.0555171569100136e+01 -2.7037099030194099e+01  2.3405036640184555e+01 3.6941380449067204e+01 -3.6060454280112829e+01  3.6718864840112339e+01 3.4900885019607550e+01 -5.2182165012224786e+01  6.0137619847505121e+01 2.9933990941658358e+01 -7.6868756148293741e+01  2.2160423877311178e+01 3.0098092769835947e+01 -4.8294088403713189e+01  1.7746484825245581e+01 3.0363613163305580e+01 -2.8400111300839662e+01  2.2682834594521733e+01 2.1694001646261153e+01 -2.6553652250845687e+01  2.4748784746835328e+00 1.8602622562238142e+01 -2.7470842502641233e+01  1.4234530110015664e+01 3.4825511108985879e+01 -3.4725371880150902e+01  2.2884250870716851e+01 3.4674113491649223e+01 -3.1552274579284930e+01  2.2187392029155163e+01 1.3057387194047289e+01 -2.1313651240732689e+01  2.4690083688793688e+01 2.3579797337575240e+01 -2.1085947720418535e+01  1.0476222358814734e+01 2.0203516049847334e+01 -3.7129570992961085e+01  9.1102899408101408e+00 7.6577351040452175e+00 -2.9359513330950641e+01  2.3719572664178234e+01 1.4710129423116427e+01 -1.2845396222493628e+01  2.9466172724121996e+01 3.9142750156798805e+01 -2.6420731040834625e+01  2.7596197828881735e+01 3.1238092803772311e+01 -2.2365222038690199e+01  3.0672135123514600e+01 4.5199576830683966e+01 -3.5622285174988676e+01  5.4188990139412752e+01 2.5923700706865670e+01 -7.3840869839484370e+01  3.6760112110874914e+01 4.5582969558966802e+01 -4.5597518682302180e+01  5.5764721913705635e+01 3.0763420216980180e+01 -4.4012083353585176e+01  2.2600208911976722e+01 2.0943913739010267e+01 -3.9246112224254219e+01  4.9367616012856082e+01 6.2404708352292268e+01 -1.1212656568596108e+02  5.2022158325392294e+00 3.2039589523818144e+01 -5.4159571952825601e+01  5.7435507293313009e+01 7.6600090521403615e+01 -8.0520676930309264e+01  7.1063004072641229e+00 1.5524968101028927e+01 -3.1733908725644582e+01  3.4415557034381827e+01 1.6409909066276182e+01 -3.0643501493052675e+01  3.7122385095431603e+01 7.8768929161475238e+00 -5.1944183159401341e+01  1.8968318215417405e+01 1.4301866232688539e+01 -2.0041293474981845e+01  1.9930834445525509e+01 5.4552267523918809e+00 -1.6021590703176226e+01  5.5938673997080013e+00 3.8287143201169047e+00 -3.3139954822370484e+01  7.4165773216770141e+00 -9.2525964096390449e+00 -2.5848259728247683e+01  2.8012252067611321e+01 2.3563552364137472e+01 -3.2380409134773082e+01  1.1911783993597060e+01 2.0359293392846975e+01 -5.4219725047355055e+01  2.0202838028724738e+01 2.3374177091089603e+01 3.3059509946923056e+00  2.3080512106467985e+00 2.1141513488868739e+01 -5.9958264526791840e+00  1.1064383029743283e+01 2.6423169447235608e+01 -7.5882255640530669e+00  1.0379628497219429e+01 2.3628980173515522e+01 -3.0275174485722708e+01  2.1540571054711425e+01 2.4611973571620926e+01 -1.9200685700707535e+01  9.4603925993192384e+00 2.9957289132275637e+01 1.8204636590103782e+01  3.1856679278956882e+01 4.5980830739166201e+01 -2.3181096676618758e+01  2.6339324364360856e+01 3.8820516924434422e+01 -2.7834781927640702e+01  2.0443695966558380e+01 3.6912833882975519e+01 -1.7585267480453343e+01  2.4988796265556818e+01 4.5095993932603527e+01 -1.1452660144596049e+01  2.5177505376195274e+01 3.1997227027276708e+01 -9.5502205293679818e+00  1.9174838115963624e+01 3.8105869415241152e+01 2.2969609175162176e+00  2.8988817510762630e+01 3.8524471375753642e+01 -1.7250825077560364e+01  2.0026797107746690e+00 -3.4581617025737806e+01 -3.9458655991100656e+01  2.0588775729763378e+00 2.2704094609705866e+01 1.9911016540470485e+00  3.8276219681942656e+01 6.1884756552386477e+01 -6.2685920458657819e+01  2.3789341402304828e+01 -3.2933006115014067e+00 -2.5289761609269068e+01  1.8602461714589023e+01 1.0765702611096035e+01 1.7150853422607867e+01  -4.7701381516013042e+00 9.1727785197153953e+00 7.0704678564273902e+00  -1.5770718542274336e+00 -4.8485249828610515e+00 1.0899168234060859e+01  1.8680455916562224e+01 1.2722154155001601e+01 8.1657572700217557e+01  9.7291917912730830e-01 2.5262002162751504e+01 3.8951016895193220e+01  5.2853790269108423e+01 -9.3172526432215392e+01 -6.4164325750641273e+00  1.1549366037941601e+02 -3.4342165142591966e+01 -2.6536038674156746e+01  9.6556894450178959e+01 -6.9913395998666701e+01 -3.2062536733618153e+01  1.0548307840715763e+02 -5.0735728338385101e+01 -1.7764925557642766e+01  8.5022452196307754e+01 -4.3708963605864838e+01 -8.8891974979199500e+00  1.3204751535115273e+02 -2.6784934294488568e+01 -2.0464538082011032e+01  1.2899477919651301e+02 -4.0271191978997273e+01 -3.4277223798559945e+01  1.2080931720996315e+02 -2.3866301190434452e+01 -1.2677000656923264e+01  1.1061598392080502e+02 -1.6971211930292725e+01 -7.4598798904414387e+00  1.2629375582621657e+02 -5.4880951117903322e+01 -4.7171942940104898e+01  1.3232579825972511e+01 4.2149487078567782e+00 2.8276680261990769e+01  6.8790017639902743e+01 -7.2323267103875288e-01 3.5929311808364623e+01  5.3923244126838199e+01 1.4934604107189399e+01 4.1266435075738549e+01  6.1293947370390406e+01 3.5068788340947860e-01 2.4030509466716193e+01  1.6361233994953029e+01 1.5505507487050565e+00 5.4230141361416585e+01  4.6078923326271180e+01 1.4252525873128110e+00 6.7570612145322542e+01  8.5078286932896631e+01 1.1877934310554837e+01 3.1184235532532625e+01  6.7183306236696708e+01 1.2532113580420312e+01 4.9607944805637736e+01  9.4358100062947400e+01 3.0153235654694299e+00 1.9322649507142295e+01  8.0901932781880973e+01 1.9366718280329486e+01 4.2907833962576923e+01  1.4744468238881777e+02 9.4038965356490234e+00 6.0520255275893504e+00  1.2060863090191451e+02 3.1538256852965874e+00 -1.3664627132850033e+00  1.3219452987149162e+02 -8.3149973730451898e-01 -3.6650395962182349e+00  1.2150741813565394e+02 4.9908256275516782e+00 8.1099310526747264e+00  1.4187325091977812e+02 1.1295845065626089e+01 6.5528634254547944e+00  1.0054800625611121e+02 -7.1140369218255355e+00 6.7704198946289944e+00  1.1453286613350228e+02 1.0498692070875043e+01 8.6512250834248068e+00  1.3892425724250324e+02 1.6142388288544730e+01 5.3980657457901149e+00  2.8299462665066510e+01 2.6663874153087939e+01 5.1223541647562854e+01  6.6058407660641890e+01 2.1279633381984937e+01 5.7994088811051363e+01  7.0561717023582958e+01 2.6582631190759923e+01 3.4013255769003287e+01  5.8294532084718981e+01 2.0730829956353116e+01 4.6138340497579009e+01  4.0403354746405505e+01 2.5583191402112938e+01 6.8891193057836574e+01  5.6817562354748915e+01 1.7302896810885294e+01 8.0218983456452861e+01  7.0462313645544157e+01 2.6771616138835299e+01 4.5799180830250762e+01  8.6796906901515129e+01 2.6555090761045044e+01 3.5672853946504468e+01  9.2397368618894220e+01 3.1776623323926525e+01 2.9854263122206799e+01  2.0196364387655035e+02 -3.3734747044507820e+01 -1.3327995643768681e+01  1.6806737590015800e+02 -1.6773168305559484e+01 -1.7464249613596991e+01  1.7662608277461558e+02 -9.9068960262109833e+00 -1.5344115302999189e+01  1.7011758847353445e+02 -2.8462135713284397e+01 -2.1323168084691975e+01  1.9020762859692547e+02 -8.8500649569172936e+00 -1.1848207973410965e+01  1.8883994773737396e+02 1.8114587416152512e+00 -1.5206812450659260e+01  1.7613090431882358e+02 2.1767896999230265e+00 -1.4639288954090818e+01  1.4888208953324508e+02 -2.4479352112036992e+01 -1.7694595729378509e+01  1.5624760383442080e+02 -9.7473051433195135e+00 -1.4714225931560074e+01  1.6383080170842064e+02 5.3151370055260516e+00 -1.2171598725156731e+01  8.6481597973620680e+01 -2.9276485184545351e+01 -8.0880280748095910e+00  7.7177429365302345e+01 -2.7721933651738333e+01 -2.8976519641957779e+01  8.9922774216287010e+01 -3.5593629939738740e+01 -3.6007783324156115e+01  6.5095840768688305e+01 -2.5253286923983111e+01 -2.5155877936770544e+01  1.1446618504501120e+02 -3.7012638357153477e+01 -5.8957412794811965e+01  9.5705307622688082e+01 -3.2388382918568560e+01 -4.9088557250135800e+01  7.7854951518877598e+01 -2.6988445154716175e+01 -4.3700752856818056e+01  9.4343131477942606e+01 3.4724287843626264e+01 6.8101329671409403e+01  9.8508526151431099e+01 1.7961048547902884e+01 4.9116540728465729e+01  1.0760052383305624e+02 2.5448020201931335e+01 4.6777123224985800e+01  9.8514999140972023e+01 1.6976992335901301e+01 4.3354236801546577e+01  1.0570520232955670e+02 3.4619574432110738e+01 7.1496101035516133e+01  9.9409095161368128e+01 3.4156928800548954e+01 7.7394867864143919e+01  1.0618539378319107e+02 2.4021772609881634e+01 5.6207134101716257e+01  9.5396051767897688e+01 2.5505833937697382e+00 4.1676874874959537e+01  1.0302342102285935e+02 9.3194994247439897e+00 3.9605395393189397e+01  1.1243946362110474e+02 1.6688623454687878e+01 3.9548594157436469e+01  1.6718924040851738e+02 -1.0368367631327644e+01 -3.0354446542667148e+01  1.5710380213369402e+02 -1.8673165162636916e+01 -3.2198134940123175e+01  1.8071593679385853e+02 2.0996616334357618e+00 -4.7884275530295703e+01  1.6666913415832153e+02 -3.3086204707961073e+01 -7.5716672237486932e+01  1.7569363331675186e+02 -3.1140011383201905e+01 -7.4568760057285971e+01  1.6036449241188274e+02 -1.3094346779124187e+01 -3.4913194504170733e+01  1.5589973793374830e+02 -2.2956121343613365e+01 -4.2801821244533848e+01  1.7980489353300618e+02 -8.0760786862687404e+00 -5.3032697764556694e+01  1.7740498076773542e+02 4.7277144278349281e+00 -3.8875456868933377e+01  1.4705940832231624e+02 -2.3004801504601996e+01 -2.4688055327307922e+01  8.6861266838812966e+01 -4.3441262083516186e+01 5.3877158652899944e+00  1.0586249724530836e+02 -4.7237558399161450e+01 -4.8433177762228921e+00  6.8835456666268655e+01 -9.3468469000316745e+01 1.1177121202627573e+01  8.0003667595796614e+01 -7.5514511472080500e+01 2.3913453820293164e+01  1.3787963603002731e+02 -5.5470735874845429e+00 -2.7338870394899666e+00  1.4664439494025586e+02 -8.0066506925555569e-01 -7.9693033106495621e+00  1.4284591877985238e+02 -1.5288462460777000e+01 -1.1377792091588551e+01  1.3491162115638193e+02 -1.5540949164487309e+01 -8.0146592856220913e+00  1.4637847732047641e+02 -9.0835645116837469e+00 -1.7782270981969312e+01  1.3941116599673134e+02 -2.5424815050293311e+01 -2.3159592731748653e+01  1.5236628409126359e+02 -8.2548453006492988e+00 -1.9127072274158092e+01  1.5659719780439610e+02 5.0060105261693728e+00 -1.3288253916807831e+01  1.5658965803911590e+02 -6.8731759566151061e+00 -1.6529165374959149e+01  1.5089767433515101e+02 -2.6994105243804661e-01 -9.1269792199667563e+00  1.5928987284396237e+02 6.6824430515828697e+00 -1.2268762277738420e+01  5.5692732165280034e+01 3.9786506482246089e+01 -5.9440327974399040e+01  8.1789975280565812e+01 3.7976476003559128e+01 -3.6704118018106165e+01  1.0204236421633809e+02 2.9188012023667511e+01 -3.2516651668479973e+01  5.9173987895629821e+01 3.4030533401759477e+01 -3.2100996678670832e+01  8.6048124583379618e+01 5.1733667177115706e+01 -6.2528755098843916e+01  8.0553456617068846e+01 2.6295526496361120e+01 -3.4419943306763066e+01  1.2824390514383714e+02 4.2367151111974955e+01 -6.5535296502088613e+01  8.7154778314570493e+01 1.8194990235736050e+01 -1.4099295776281505e+01  7.1204836053571483e+01 2.6363501444460969e+01 -1.5123773363538305e+01  5.7868821975470333e+01 3.3676211762686826e+01 -1.4585611503732530e+01  6.0376597643365940e+01 -1.3089576298218887e+01 -2.4898299328492524e+01  5.7408118277831441e+01 -3.3207185255506893e+01 -4.6254249200422009e+01  4.9889085233237196e+01 8.6766712462187385e+00 -3.3999177622839824e+01  6.2977857550811507e+01 -8.2711757999282298e+00 -3.8962209172007952e+01  2.8862673950138281e+02 -1.5499522586489300e+02 -1.5653014900601255e+01  1.8231157620805084e+02 -9.6890381160625665e+01 3.5378884687240010e+01  3.0162335122074899e+02 -1.6108632146665025e+02 -5.8694389424150216e+01  1.3330292052395129e+02 -6.1546228281782710e+01 1.6308424143601098e+02  7.0353603774597971e+01 -6.1153343780804740e+01 1.8958813999166736e+01  2.0991960483679335e+02 -1.2813121626197301e+02 3.9707454988980309e+01  1.3483961278071004e+02 -1.0031679362322772e+02 4.1296902359796832e+01  1.8852181871358474e+02 -1.1130836840940435e+02 1.2854948491851374e+02  2.7575995915257243e+02 -1.2292487108162608e+02 -8.3165286089224651e+01  1.5828735039448969e+02 -9.6086706423919765e+01 2.2575480107135682e+01  1.1677691992248548e+02 -2.7750689918264271e+01 -1.1725918747850203e+02  1.2109245338548136e+02 -8.4027856525118256e+00 -9.0364223006445755e+01  9.6882664635910771e+01 -2.2032517022078075e+01 -7.8166637521741222e+01  1.1066363984210254e+02 -1.0048310461992076e+01 -1.1640087741046375e+02  1.2393787805610194e+02 1.2804652344499954e+00 -1.4463798829521059e+02  7.2520424560304079e+01 7.6445261690595934e-01 -1.1923406961580200e+02  1.3358452507893765e+02 1.0150114407997274e+01 -1.5214614605046847e+02  2.1284534342126045e+02 1.2232308349262196e+01 -1.5581418345558833e+02  9.6401179871376570e+01 1.3913401212927901e+01 4.7165006279193143e+01  1.0051818845579352e+02 1.9424343314890621e+01 5.5212726067100711e+01  9.4516743037149723e+01 2.0169821538169966e+01 4.9643315787551757e+01  1.0414000407585716e+02 1.8569858087383910e+01 4.5817410846183236e+01  8.9405475944596418e+01 1.6158342021073263e+01 5.3143692571596191e+01  9.3473730070607488e+01 1.6399265009706919e+01 5.4068814460458569e+01  8.5945698661149109e+01 1.9084521341824363e+01 5.6579789567600550e+01  8.7717475280078659e+01 1.8489343346203352e+01 5.6121099016635014e+01  1.1463226531487688e+02 2.2638061069634073e+01 4.3172908509745000e+01  8.6695177900096937e+01 1.8112610249164231e+01 5.8197228937775726e+01  9.9949844177156741e+00 -2.7536194292163344e+01 -1.5670496157183765e+01  9.9745890352254946e+01 2.5337759751547657e+00 -9.1152103082879403e+00  6.6051496167071562e+01 -1.3399029166741151e+01 -2.6268792549889234e+01  5.2577204604054891e+01 -1.9859272751120657e-01 -1.1310289807268649e+01  5.6545375756459620e+01 -1.2548025661390914e+01 7.2989374049546294e+00  9.0569409878811882e+01 1.0078230575044994e+01 4.1443269486498577e+00  9.3650524790354282e+01 1.1091748562623660e+01 -2.7632062029414875e+01  1.0160268307263637e+02 3.6401152426933439e+00 -4.2631745248543901e+01  6.5889531852264994e+01 -1.0769138319126992e+02 -5.7946391791667487e+01  9.1256143967853575e+01 -4.4664022689085037e+01 -2.9448039920309057e+01  1.0399126258720179e+02 -7.8830674786809510e+01 -4.8577420098159124e+01  9.2804262032857579e+01 -5.2260506322814258e+01 -4.3699500040780137e+01  4.6887590096993478e+01 -1.1373389171443989e+02 -3.0595564534701065e+01  1.2190632252428736e+02 -2.0950063274329217e+01 -4.4968289728429852e+01  1.2032994008647245e+02 -3.8026974645892864e+01 -4.3866417994516738e+01  8.0947045953137319e+01 -8.2904546878915568e+01 -8.1454193584818597e+01  1.0576533952480166e+02 -6.8309690555227007e+01 -2.6950116002874687e+01  1.1426713357253720e+02 -7.3510640659069921e+01 -4.0772813321878751e+01  1.1155860371688547e+02 -7.8550724044696764e+01 -6.4218650786773836e+01  1.0428009199613989e+02 -8.5052329344507768e+01 -5.3806660627181621e+01  6.1257742889636098e+01 -7.4602333446069963e+01 -2.9201988531368141e+01  9.8690876310748990e+01 -9.8228522056249489e+01 -2.5602733072530850e+01  9.6942291845059117e+01 -8.5792070509771506e+01 -2.0688284022901634e+01  9.3668417107189541e+01 -8.4245328767915467e+01 1.0151791201343398e+01  1.2743622262637000e+02 -6.5309772172010696e+01 -6.0230664809429939e+01  9.9031688425416419e+01 2.0525887696290269e+01 4.0279317343011229e+01  1.0535251811855404e+02 1.5844992394050271e+01 3.1609968614366757e+01  8.9571842250792201e+01 1.5285889812741116e+01 4.6255247367140825e+01  9.6423702335191209e+01 8.5473416004158196e+00 3.4542830618845954e+01  1.6920810554024700e+02 -1.1039824938780993e+02 -1.3305348738029321e+02  6.5811635633110257e+01 -7.4656481330354652e+01 -9.9156309226055470e+01  9.6125698827565955e+01 -8.1505526291292171e+01 -8.3346037053749271e+01  9.7560424593774869e+01 -9.6156161393496262e+01 -1.2636981234963081e+02  1.1795723956137287e+02 -1.4653561453446247e+02 -1.8125280369633867e+02  8.4961777719022436e+01 -7.1155830034901271e+01 -1.7031563040375792e+02  1.1006709255921149e+02 -5.8894688409511005e+01 -7.4185571251166067e+01  8.5968257893637826e+01 -4.6037675173586877e+01 5.0120599557229845e+01  1.0467069805568673e+02 -3.7880141725283515e+01 2.5035189748962154e+01  1.0265611678720030e+02 -1.9217179038184550e+01 2.7098895766847480e+01  9.0965209367290726e+01 -1.3055849346296680e+01 3.8837516105228573e+01  8.5317238539672914e+01 8.2267044286838242e+00 3.6152760809004647e+01  9.8203618058680647e+01 -8.3807926178803669e+00 1.9916351158481092e+01  9.7809329601824828e+01 4.9724771489243427e+00 3.0313612307927450e+01  1.1181976371391023e+02 3.8908412814222841e+00 2.0986405259444972e+01  1.1154730299144529e+02 -1.1920189268333226e+01 1.2039777115679724e+01  1.1708269321496564e+02 -2.8399337128410789e+01 1.3043005827081764e+00  1.0758609316934746e+02 3.3381321523263900e+01 -9.0508547388457714e+01  1.3023123920525271e+02 2.3082826167710934e+01 -3.5575212229481401e+01  1.3906424243994795e+02 3.7304076159026067e+01 -7.4054808034698652e+01  1.6020542530765056e+02 4.1398457784726602e+01 -8.3492964306