<?xml version="1.0"?>
<VTKFile type="UnstructuredGrid"  version="0.1"  >
<UnstructuredGrid>
<Piece  NumberOfPoints="4314" NumberOfCells="19759">
<Points>
<DataArray  type="Float64"  NumberOfComponents="3"  format="ascii">23.4205436128 14.5684208465 26.0099344765  23.4230590788 13.9823510829 27.04471894085  23.55141964525 14.0735000749 25.9925444817  23.0528816717 14.0791284739 26.130008697  24.9616924817 17.4965728663 24.9459909645  25.85510027805 16.4426442738 25.24778621625  25.4875529006 16.64237662695 24.3378112514  25.48886945715 17.27529458495 24.4934990044  25.8564168346 17.0755622318 25.40347396925  24.96037592515 16.8636549083 24.7903032115  24.9590593686 16.2307369503 24.6346154585  26.0160464326 17.0540163036 24.0410070443  26.38359381005 16.85428395045 24.95098200915  26.7511411875 16.6545515973 25.860956974  21.2877087775 15.3594340119 27.9593877945  22.1581953926 14.8663513418 27.77810936265  21.7645774224 15.126345889 27.22149035515  21.3088827191 14.91762326305 27.62464358475  21.7025006893 14.65762871585 28.18126259225  21.7434034808 15.56815663785 27.5562345649  22.1990981841 15.7768792638 27.1530813353  21.3300566607 14.4758125142 27.289899375  21.7236746309 14.215817967 27.8465183825  22.1172926011 13.9558234198 28.40313739  22.9063080703 14.1676195561 30.2775501868  22.74880305085 13.56503385505 29.2263355016  22.5118003357 14.06172148795 29.3403437884  23.16594130755 13.7819504377 29.178526796  23.14331078545 13.6709319232 30.1635419  23.3803135006 13.1742442903 30.0495336132  24.4117680985 13.9423981968 30.0918746467  24.85656866235 13.7490615479 28.8143527827  24.3770414451 14.2762525285 29.1428766575  24.9607015337 14.10073502865 29.7979573251  24.89129531575 13.4152072162 29.7633507719  25.5096349689 14.2590718605 29.5040400035  24.9259748803 14.43458936035 28.8489593359  25.44022875095 13.57354404805 29.4694334503  25.370822533 12.8880162356 29.4348268971  24.3423147917 14.6101068602 28.1938786683  24.0189319373 16.6238048917 25.5111302976  24.53309940665 17.29880978665 25.84878223475  25.1069640132 16.8513207758 25.95398498135  24.81595376745 16.51703218445 26.39358569615  25.6129755976 16.4102594772 27.2760410947  25.3301212368 17.1920370794 26.7312376333  25.90398584335 16.74454806855 26.8364403799  26.1949960891 17.0788366599 26.3968396651  25.62113148255 17.52632567075 26.2916369185  25.047266876 17.9738146816 26.1864341719  24.12748406845 14.9686804282 29.9777940626  23.8188480258 14.6954966765 29.45007554625  23.37475405435 15.08129110785 30.07063183265  23.6590380844 14.05500887645 30.18471241675  23.0661180117 14.80810735615 29.5429133163  23.2259279531 15.4485951562 28.8082764458  23.53456399575 15.7217789079 29.33599496215  23.8432000384 15.9949626596 29.8637134785  24.9213806754 15.71863818265 27.1112810956  25.465326265 15.71363864705 26.7375263402  25.8728492481 15.88383075345 27.3349855444  26.1327228986 15.3574020297 27.3939299941  25.1812543259 15.1922094589 27.1702255453  25.7251999155 15.1872099233 26.7964707899  25.3176769324 15.0170178169 26.1990115857  24.7737313428 15.0220173525 26.5727663411  24.2297857532 15.0270168881 26.9465210965  24.07451069585 16.9923662542 26.25239471315  24.871532526 16.88559354695 27.1348501117  24.5886781652 17.66737114915 26.5900466503  24.1300894544 17.3609276167 26.9936591287  24.3981985389 13.14214877745 28.75716515115  23.91867132165 13.66933975805 29.08568902595  24.28396475785 13.2393540502 29.9010202487  24.1561614172 12.5363099036 29.7101658507  23.7682374589 12.85527709695 29.87984973195  23.89604079955 13.55832124355 30.07070412995  22.3902705049 14.5975112463 26.6249501462  22.53774511775 14.0936736738 26.43751653185  22.90792252485 13.9968962828 27.3522267757  22.90540705885 14.5829660464 26.31744231135  22.6852197306 13.5898361013 26.2500829175  23.0553971377 13.4930587103 27.16479316135  23.4255745448 13.3962813193 28.0795034052  25.2899049471 15.8034181593 28.2642197354  24.75984535015 15.4152175237 27.60537041595  25.71131392285 15.5804100945 27.82907486475  25.45144027235 16.10683881825 27.77013041505  25.243035453 15.3059344805 29.2094538935  24.5431177457 15.65044857005 29.536583686  24.82740177575 14.62416633865 29.6506642701  24.23448170305 15.37726481835 29.00886516965  23.8774678606 18.1615278462 25.5780624851  24.0037786575 17.76122773145 26.2858608069  23.94819989895 17.39266636895 25.54459639135  24.4623673683 18.0676712639 25.8822483285  26.4533523518 18.6780448494 25.4336269726  26.51325457675 17.7587075821 25.0313957796  26.77062183195 18.0685268513 25.36380345055  26.69596740315 18.2828964296 24.83888266285  26.1959850966 18.3682255802 25.10121930165  25.9386178414 18.058406311 24.7688116307  26.43860014795 17.9730771604 24.5064749919  26.9385824545 17.8877480098 24.2441383531  27.0132368833 17.6733784315 24.7690591408  27.0878913121 17.4590088532 25.2939799285  25.45015516155 17.77748958865 24.8574012976  26.34487951445 17.35647895415 25.31488430235  25.977332137 17.5562113073 24.4049093375  26.33881744345 13.91325715025 28.7289963921  25.704746639 13.7348701463 28.92586941705  26.0742995554 13.751931052 29.27256042535  25.77415285695 14.42039795875 28.96047597025  26.038670745 14.581724057 28.416911937  22.80790827505 15.14118212365 26.43247457905  23.21444196865 15.40194807595 27.0498012159  22.2946843445 15.18719525505 26.88901574075  22.71232211465 15.7308661324 26.6965401736  23.2255460452 15.684853001 26.2399990119  23.31002812905 14.8122640672 26.78573562135  23.7276658992 15.35593494455 26.5932600542  23.88394466825 14.00319408975 28.13669103675  20.5274229323 15.1129099968 28.9222350899  20.99213199465 14.8036166904 28.101132576  21.09227777845 14.68038608075 28.58059590165  20.61198907205 14.68035468285 28.5825562237  20.9075658549 15.23617200435 28.4408114422  20.71213485585 14.5571240732 29.06201954935  20.8968467794 14.0013381496 29.2018040088  20.7967009956 14.12456875925 28.72234068315  20.6965552118 14.2477993689 28.2428773575  21.5034202345 16.3744379695 27.6967128515  22.3646740938 15.91151656285 28.25249464865  21.8512592093 16.07565861665 27.4248970934  21.395564506 15.8669359907 27.828050323  22.2568183653 15.40401458405 28.38383212015  22.7125130686 15.61273721 27.98067889055  24.9409185938 16.2711310851 29.3412515217  24.4285258407 16.20728234445 28.45916927325  25.11541177045 16.0372746222 28.80273562855  25.01719306735 16.60669492 28.79486740755  25.0934675409 16.9422587549 28.2484832934  24.50480031425 16.54284617935 27.9127851591  25.191686244 16.3728384571 28.2563515144  24.60301901735 15.97342588155 27.9206533801  23.9161330876 16.1434336038 27.5770870248  25.19049276835 14.5959154586 28.30539530265  25.1275063695 13.8126088448 27.0482615647  24.67864606135 14.41981286645 26.9973913306  23.827680149 14.2116491037 27.51301225085  23.95604071545 14.3027980957 26.4608377917  21.3843212207 13.51099517665 27.55058073475  21.40692390645 14.10181139435 28.32300737375  21.06757049625 13.396988604 28.027069726  21.01330593625 14.36180594155 27.76638836625  25.23751884515 14.98375444495 27.7939043312  24.8161098694 15.20676250975 28.22904920185  25.66428784605 15.19257110815 28.3405658362  26.0856968218 14.96956304335 27.90542096555  22.808099229 15.02305320125 27.716613296  22.253781553 14.27666733305 27.5140437681  22.6716102771 14.702209288 28.6057069179  21.8601635828 14.53666188025 26.9574247606  21.2768842539 15.1724199168 30.0636678392  21.6970884275 14.5641216683 29.2334026146  21.49163366175 14.51303471135 29.9496936552  21.08686551665 14.5868790332 29.632735924  21.91183783535 13.90473646285 29.1194284306  21.50706969025 13.9785807847 28.8024706994  21.3016149245 13.92749382775 29.51876174  21.7063830696 13.8536495059 29.8357194712  24.7645543426 16.2768465405 27.42656405975  24.0729594204 15.58522524595 27.26180406065  26.55196887235 17.2565125784 24.6674934864  26.9195162498 17.05678022525 25.57746845125  25.5783442854 17.2877047631 25.6714153148  26.4730686383 16.8666941286 26.12889831955  26.06680696525 17.56862148545 25.5828256479  26.6414437006 17.26892275655 25.8454097968  26.47731444355 17.4708821567 24.1425726987  23.624311431 14.38886320815 29.23571442755  23.32575124895 14.42243823775 28.4438899255  23.7841213724 15.0293510082 28.50107755705  25.57702772885 16.6547868051 25.5157275618  24.48899565295 16.427270921 25.07287287805  24.4903122095 17.060188879 25.22856063105  22.40125616585 13.77282976055 27.32661015375  22.77143357295 13.67605236955 28.2413203976  24.2579164501 15.62600665775 28.5362480906  24.08342327345 15.85986312065 29.07476398375  23.57103052035 15.79601438 28.1926817353  22.6089360988 13.5341303912 30.0391359674  22.30634556995 14.010634531 30.056634829  24.79267512235 14.95802067035 28.7016662809  25.26647020005 15.5546763199 28.73683681445  25.640853099 14.94382926875 28.81318291525  21.68470559085 14.9317831118 30.150726303  22.0925269278 14.6911463068 30.2377847668  22.10490976445 14.3234848633 29.3204610784  21.8994549987 14.27239790635 30.036752119  23.05761563585 15.9601564338 27.36508418005  23.5708395664 15.9141433024 26.90854301835  22.9629501221 16.970454541 26.3988703727  23.43954160485 16.5569440724 26.98797869875  23.09424808365 16.327653771 26.3194346923  22.5810241531 16.3736669024 26.775975854  21.63820718405 13.3064318505 28.7938511378  23.96753251245 16.38361924775 26.5441086612  23.6778177498 16.52289030885 26.6168290703  23.62223899125 16.15432894635 25.87556465475  24.023111271 16.75218061025 27.28537307675  23.54651978825 17.16569107885 26.6962647507  23.42020899135 17.5659911936 25.9884664289  23.4909410297 16.79712971635 25.95500033515  24.41958017115 17.82905035625 25.2620267248  25.00447967885 17.73519377395 25.5662125682  24.1929884297 15.21795647285 26.1528337686  23.323044829 15.12663692375 26.1249667442  23.6908685757 15.5468745293 25.7995727263  23.825164683 14.7977188673 26.4782277865  23.7883673595 14.98865845205 25.6845404586  24.1561911062 15.4088960576 25.3591464407  22.2514061035 15.3105075365 29.435972142
[...]
<PointData  Vectors="u"> 
<DataArray  type="Float64"  Name="u"  NumberOfComponents="3" format="ascii">6.0075372748751967e+01 2.9683130877879305e+00 -3.8310001937102314e+01  5.5982040960759456e+01 8.6029058886519671e-01 -2.1606685104055536e+01  7.2857357070281637e+01 8.4433260026140591e+00 -3.2502081125466376e+01  5.6175856292180619e+01 1.2204902846405398e+01 -2.2656447465219504e+01  6.7505638514350110e+01 -6.1884247036870271e+01 -5.6376750288625374e+01  6.7287615889485807e+01 -3.4712551053375719e+01 -5.9484744984639526e+01  7.6488557273584590e+01 -3.4522121829602021e+01 -6.7739898246604824e+01  7.5161737920079929e+01 -4.7506290883581833e+01 -7.4219164352701696e+01  6.6058287542685719e+01 -4.8499550755562510e+01 -6.2425943138988778e+01  6.3210525343799361e+01 -4.3712877419421233e+01 -6.1331729089624012e+01  6.3886395927892089e+01 -3.0843473555706499e+01 -6.1247683174780320e+01  8.4950755153785167e+01 -2.9179344665035654e+01 -9.3482353975645026e+01  8.0066575553772694e+01 -3.5747364788707529e+01 -7.0684295823569101e+01  8.7876921916210819e+01 -4.2948370093954765e+01 -6.4948703960251066e+01  1.0365490410984965e+02 -1.1230093194193736e+02 -7.0588366448566319e+01  5.2618665689509356e+01 -2.8344777113012494e+01 -3.0126558524919794e+01  2.5884368798004761e+01 -1.8257849686865416e+01 -4.4041871500080447e+01  2.0567514164309856e+01 -3.9132025010365879e+01 -6.2589844448901452e+01  5.4376002859798540e+01 -4.6981845815773767e+01 -3.1739117404418646e+01  6.6196596805487388e+01 -6.5724395235171542e+01 -7.4976617753464950e+01  6.1579009955078270e+01 -4.3703525973449388e+01 -5.0571921462903525e+01  1.9406413553950156e+01 -1.4873421102117589e+01 -3.0228202710054408e+01  3.5741089036086528e+01 -2.1186525683427394e+01 -2.0592400527369133e+01  4.3248920503162140e+01 -1.9014224561549856e+01 -1.0142465320135566e+01  4.6456816907561588e+01 -1.9717935204880974e+00 6.8451061472439161e+00  4.3503396090704435e+01 -8.5401236388701793e+00 1.2627866773421215e+00  5.0199749117737149e+01 -1.7431275690244309e+01 1.9326085992314075e+00  4.6631691473474170e+01 -6.6160058751724273e+00 -1.5499595250971521e+00  3.6664509142270539e+01 -6.4080935946118158e+00 2.9915363278095908e-01  3.5889526257355335e+01 -2.8450445946508691e+00 -1.7827116122990141e+00  3.0204902100348995e+01 -2.6946907192091416e+00 -1.0056512989024284e+01  4.6879698188374448e+01 -1.1039149861001709e+01 -1.6676548503071754e+01  4.0891160088583320e+01 -5.9861757182815323e+00 -9.3091912234595231e+00  3.0658723418554583e+01 -1.0153135111516194e+01 -1.9424157092901201e+01  4.1413632628885686e+01 -1.0911185775737199e+01 -2.0574985799557680e+01  3.3746760970952963e+01 -2.5098806705087192e+01 -2.3356592938598659e+01  3.8265707448037311e+01 -1.3661458234846801e+01 -1.7209654424835513e+01  5.1761297382803420e+01 -1.9940895398547148e+01 -2.5164826271155604e+01  6.4646030762713522e+01 -2.3344046335109596e+01 -1.6649735784731686e+01  4.7390789255680950e+01 -1.1332971260548756e+01 -1.6761715817600432e+01  5.5098859263118932e+01 -4.0708748975283477e+01 -4.6430962775697935e+01  5.6385552125674145e+01 -4.7094277502446957e+01 -3.6168805632099328e+01  5.6732250049567263e+01 -4.0796776099784772e+01 -4.6089134197476284e+01  5.2586842751122283e+01 -3.3230814973967362e+01 -3.9755748498403612e+01  4.1259328462890636e+01 -3.8235454246554980e+01 -4.3495312490870795e+01  3.8656726654467157e+01 -3.7853662116232847e+01 -3.7228187016264471e+01  4.7270983842553967e+01 -4.9202255490610213e+01 -5.3304393745670595e+01  5.2197847044105366e+01 -5.5073576016099537e+01 -5.9568864614785248e+01  4.5610391846652547e+01 -4.9362139918228621e+01 -4.4810127180796187e+01  4.7548255653608258e+01 -4.8770838077036082e+01 -2.6529584341375664e+01  3.0237088954253522e+01 1.8537014182776016e+01 1.0657311880962883e+01  4.4231656462828440e+01 1.1827790187395055e+00 4.3336905042530223e+00  5.4326306616372300e+01 1.3151142078684526e+01 2.0709928554408805e+01  3.9826904226028113e+01 3.3079610659592125e+00 -2.7498190941843587e-01  5.7346087333478962e+01 -6.7592696922796378e+00 9.6389632488360490e+00  6.5143404268135981e+01 -1.3376247807600027e+01 4.0702000285791797e+00  5.8435788726026011e+01 1.1338059836142890e-01 2.3201049198016655e+01  5.1866902861689191e+01 1.7053370477522812e+01 4.5608975149568778e+01  4.9247487008883873e+01 -2.3136185809770200e+01 -3.4031969128332669e+01  5.4157284924881800e+01 -2.5310038695134800e+01 -4.3151643111984917e+01  5.0404043945687192e+01 -3.0453247873630769e+01 -4.4415678559761645e+01  5.3671532122556144e+01 -2.3815346894556168e+01 -4.5963237636311938e+01  5.1469168809140832e+01 -1.9377632936834910e+01 -3.5764898989306168e+01  5.6682080859004856e+01 -1.9093468735533751e+01 -4.3343300504024732e+01  5.8565149200292495e+01 -1.5137067828190441e+01 -4.6155198413688716e+01  5.5889153540200034e+01 -1.5035625909688932e+01 -3.9353219006881268e+01  5.4382973621836044e+01 -1.3106994608195945e+01 -3.1517051007603868e+01  5.3563776103834293e+01 -3.8636789569932148e+01 -3.6051802416111236e+01  4.1602114099019957e+01 -2.9715389352268936e+01 -2.6840931507409930e+01  5.0013509338747625e+01 -3.8938474183846139e+01 -2.1398728880386592e+01  5.4986590573895015e+01 -3.1689390925145808e+01 -1.5722835687015356e+01  5.2291848748043542e+01 -4.8473945361752762e+00 -1.2480460998699865e+01  4.6027968399957047e+01 -4.5311652763554662e+00 -7.3673591151258391e+00  3.9525651535900906e+01 -4.3965387483888874e+00 -1.1223297264362257e+01  4.4782426747318510e+01 -3.3791582116959864e+00 -9.8801992955783255e+00  3.9776614367469058e+01 -1.5656709285270596e+00 -5.9756592509785973e+00  3.7662694061675886e+01 -1.6294518405536512e-01 -5.3377302814446645e+00  4.6774622948611054e+01 -1.7711530738500876e+00 -2.9676878270596323e+01  5.4566893722146929e+01 9.5416306382522578e+00 -2.1678750983942596e+01  5.1365855952439709e+01 -1.0163258814252254e+00 -1.7346050597189755e+01  5.3332635450939911e+01 -1.7557885994415920e-01 -2.9958520440770734e+01  5.7090467329297155e+01 1.8080770234166447e+01 -1.5395917590635101e+01  5.4537588401270192e+01 7.7888269996495900e+00 -1.4857571945082279e+01  5.1579568639948988e+01 1.0515287466174930e+00 -9.5914298759389673e+00  2.6388645962263290e+01 -2.6542182427064699e+01 -2.6381704632426153e+01  4.6986178822581586e+01 -1.8782674697909030e+01 -2.6270281674151747e+01  4.3488119508095807e+01 -2.7363850579757028e+01 -3.7804363339967061e+01  3.5519433483473286e+01 -3.5491618388719054e+01 -3.7194320532992357e+01  1.3297202404800068e+01 -1.3186319204576483e+01 -1.0360551573245599e+01  2.0714462950194179e+01 1.0635733406529971e+01 2.1881558932376411e+01  2.3188164532081100e+01 -3.4668211949091257e+00 -1.0500141025590148e+01  3.8860834319999867e+01 -4.9343950042814324e+00 2.4500739956565880e+00  6.1731468967558612e+01 -6.7430955555799528e+01 -1.9079223614328210e+01  5.8569240498025067e+01 -4.4853688530115718e+01 -2.1947929861892227e+01  5.1889761505128952e+01 -5.1540300872126927e+01 -3.4096229043945584e+01  5.6837920819810940e+01 -5.6672482948916389e+01 -2.4181721521575341e+01  3.9502053814291600e+01 -1.0966519197645661e+02 -6.9099466929511195e+01  7.3135185769728636e+01 -7.9144847573437488e+01 -9.3850107816167124e+01  5.8485255376191219e+01 -8.7654277695583133e+01 -7.8314950206085825e+01  3.9492426962653617e+01 -9.0882965980078509e+01 -1.1623343721866016e+02  9.1784299517515521e+01 -9.0123247282052560e+01 -8.1247980327077528e+01  8.7640846186245682e+01 -8.0998840335287298e+01 -7.5625374351966940e+01  1.0155685385908870e+02 -7.4317784882044592e+01 -9.7962963108946411e+01  1.2031153654697563e+02 -1.6641437330477380e+01 -1.2183301525041320e+02  1.4374623008189701e+02 -4.8480878872857076e+01 -1.0041645312910630e+02  1.1525637564354535e+02 -6.2093513236091923e+01 -8.8988581756169921e+01  7.5294024259695007e+01 -7.9883916339904999e+01 -6.6515671109561296e+01  7.2894045164363931e+01 -5.9841966771422612e+01 -7.5008536167426129e+01  8.3430167859742184e+01 -6.1401582531184403e+01 -8.1840604230895579e+01  4.1152144557479851e+01 -3.4305826624281160e+01 -2.8022985835791427e+01  4.8205988648735577e+01 -2.4609729628386745e+01 -2.1437461635490816e+01  4.8522353324482403e+01 -3.4664086866630051e+01 -2.4200944376549106e+01  3.7654615611694879e+01 -2.9428859282944806e+01 -2.6514546350162000e+01  4.0854523830303854e+01 -2.7013203211822379e+01 -3.2658384492374395e+01  4.5595008029054291e+01 -5.9303247151549225e+00 -3.5897844849157451e+01  5.4941806955928300e+01 -1.9092977684119880e+01 -3.1902685594104263e+01  4.8231433135014910e+01 -1.6554904963690738e+01 -4.1452108909150105e+01  4.7886609481856205e+01 -2.9486475126901180e+01 -4.5786414650206382e+01  5.0559067371229453e+01 -2.1663094056880979e+01 -4.4465777366229048e+01  5.5277776010168417e+01 -8.1287875788805302e+00 -2.9625224258285044e+01  5.4488820095113958e+01 -1.6391298291165004e+01 -3.5915097933974423e+01  5.1145072894818028e+01 -5.4499546869005115e+00 -1.3993174760620638e+01  3.5191065025807961e+02 -2.4050881536441997e+02 -4.9302457342292676e+01  -8.3624501100274440e+00 -7.2095200214614451e+01 -8.1358894713530447e+01  3.6383106313374718e+01 -9.5606663375357698e+01 -4.7827519290769793e+01  -1.1254576249349993e+01 -1.2866799408948049e+02 -1.1291528294365851e+02  1.3904723314857608e+02 -2.1748700051567727e+02 -1.0469278584290025e+02  1.8559701839406436e+01 -1.6938764896258243e+02 -3.4050277964531852e+00  1.1767195912431598e+01 -6.5502899215172150e+01 -3.1329421859531107e-03  3.6738607721775187e+00 -6.8272951651805727e+01 -1.6095525204898273e+01  2.3427066656373086e+00 -4.8642921553538912e+01 -3.0247812865889983e+01  1.6112948312634671e+02 -6.7967561078462637e+01 -5.0781038238567398e+01  9.4937029183887191e+01 -3.2932377247518630e+01 -1.4282119861879510e+01  9.2065636425564236e+01 -6.5946826407888281e+01 -6.6519291288959607e+01  1.6695180547600123e+02 -9.4026183824708781e+01 -6.8746346966995688e+01  8.6707462405302351e+01 -4.0281356037467148e+01 -1.7287144675550337e+01  7.5278408353936882e+01 -2.8904307347444384e+01 -1.8034635224863113e+01  3.6759190454820150e+00 7.5987137828617399e+00 3.3022897883940480e+01  3.5918417720754526e+01 -1.0942779747490007e+01 1.4596897498075165e+00  4.9456204211272814e+00 -1.5784047804649413e+01 -4.3988083007710737e+00  1.9732835950194600e+00 -5.2465532414994023e+00 1.3557436088592322e+01  7.6783068522477285e+00 -1.1663951880902200e+01 -4.1806442864563840e+00  3.8879793040705756e+01 -1.8427129536057794e+01 -9.1178339632336645e+00  1.2088431649197073e+01 -2.4041130960539864e+01 -1.9936546626804951e+01  4.0365688874331305e+01 -1.9845581638049872e+01 -1.6940832784886624e+01  5.3579382866293209e+01 -2.1490806695152170e+01 -1.7606820401346990e+01  4.3079565934608070e+01 -1.7956383137857106e+01 -2.5074379270277355e+01  5.7721511904491898e+01 -5.2770313092675023e+00 -3.1543650532784611e+01  5.5740491427621379e+01 -8.7759090552673307e+00 -3.1903047056108463e+01  5.3917889367346199e+01 -5.4808196722532232e+00 -2.0522348460266318e+01  5.9808906605815778e+01 -2.3453521425284163e+00 -3.4037039813161243e+01  2.3647552590448360e+01 5.8036876458722171e+00 -7.0925203442801896e+00  3.1335306063490492e+01 -3.2787286027180876e+01 -1.7753017637706151e+01  1.5228685206656996e+01 -1.0137366617201228e-01 -3.4596221087550365e+00  9.5203891103183551e+00 -2.6315534755972397e+01 -3.7020036830026818e+01  4.5421133209221935e+01 -1.8878757487941311e+01 -2.9846587718975666e+01  3.9977023193741026e+01 -1.5997171627701043e+01 -1.9148204470066439e+01  3.4993074477239858e+01 -2.5917359581381717e+01 -3.4846258632155418e+01  4.6644145821150282e+01 -2.3443027641231112e+01 -4.0867662194908071e+01  5.7707661386862306e+01 -2.0615659418885134e+01 -2.3164403970504832e+01  4.5074720538240300e+01 -1.0953934397886329e+01 -2.0176248214521170e+01  6.1264397495722314e+01 -2.1918228110815640e+01 -7.6125289187889589e+00  3.7291756351371468e+01 -1.0086893614691673e+01 -2.7910531730344768e+01  1.6344173724324003e+02 -8.7464055822378185e+01 1.6276702089381885e+01  6.6940294221561061e+01 -5.5930704572271388e+01 1.5555754811828786e+00  5.6928986568246785e+01 -6.1757344441986291e+01 8.6157250065694715e+00  6.5830329275118853e+00 -1.1506550301141756e+02 2.8625753893761857e+01  4.1025703703410514e+01 -2.7399464667159510e+01 4.8767025242007933e-02  3.7339406815550781e+01 -3.5729857321052691e+01 -5.2309360050796387e+00  3.0923582964105293e+01 -4.4475556070853372e+01 4.8886198279190767e+00  3.6270697870872134e+01 -3.2006625706498397e+01 6.5902219873139245e+00  4.2553993434875132e+01 -2.5346927233426996e+01 -2.6351699014544668e+01  5.3113890467250371e+01 -1.9562880331106534e+01 -2.6641398300332522e+01  8.9649968355292700e+01 -4.6173625992895658e+01 -8.4408658662471993e+01  1.0558841047730412e+02 -5.5087894771664118e+01 -7.1126510012573021e+01  5.8986869809414941e+01 -5.1782209070039869e+01 -5.2872787678979648e+01  6.8564754319674861e+01 -5.3834455985312061e+01 -6.5055596994195113e+01  5.9264757978974039e+01 -6.3521299343763971e+01 -6.4364355681973876e+01  6.2038865147883307e+01 -7.7247502651133260e+01 -8.5087496409707612e+01  1.0171383107916060e+02 -3.5259579722750701e+01 -1.2220575907392606e+02  4.5761926126415098e+01 -5.4949020550961336e+00 -1.4402558527049294e+00  5.3642517043200847e+01 -1.0865146068533740e+01 -8.8978536896755216e+00  5.0636100039748463e+01 -1.1011130957370229e+01 -6.9529074243159235e+00  6.4011041817831696e+01 -3.8631911757300607e+01 -5.6513496673504335e+01  5.8102335698421918e+01 -3.4864820004195963e+01 -5.5898280865407642e+01  6.3105308203854776e+01 -5.4445157164014788e+01 -5.0729418801930926e+01  4.5338319270188187e+01 1.7679604184468516e+00 -1.3301261444168251e+01  4.6990982602079441e+01 -4.3664349704379326e+00 -7.1666113287705979e+00  4.2234852124398429e+01 -1.0836482265299281e+01 -2.9545724456970452e+00  4.3311458254120566e+01 -8.6020372548787272e-01 1.6351570891305787e+01  6.0900478653755627e+01 -1.7267734483785421e+01 -6.7246619793334617e+00  3.7054899967310945e+01 -9.6249116625376487e+00 6.6840028782323948e+00  4.8957405475520424e+01 -2.0118562029222325e+01 8.0424860064799706e+00  3.5229155923192302e+01 -1.2551412098918727e+01 -1.3152486080413231e+01  1.9577703594380591e+01 -2.3882446173083942e+01 -1.8666698081109825e+01  2.7260781862745244e+01 -2.6142110563675562e+01 -2.9528697112919989e+01  9.3791350202944287e+01 -5.1393157438130451e+01 2.1979873992272022e+01  7.3368855057083209e+01 -2.3282011120330893e+01 2.0359803841788786e+01  5.7490835584608384e+01 -3.2466553666805162e+01 1.3812989837151340e-01  5.1309076152449265e+01 -3.3001484570002127e+01 9.5643896735152278e+00  6.6295154571652844e+01 -2.7408504318724894e+01 -2.7364764014736977e+01  5.6063457692680267e+01 -2.4761563481444668e+01 -3.1577612758692648e+01  6.9094199094994465e+01 -5.0010408313674937e+01 -4.0449621230469944e+01  6.2372133164674750e+01 -3.2173665828834615e+01 -2.7561059849341618e+01  5.2077344726045830e+01 -3.5266034630676771e+01 -4.6479806259706123e+01  6.6494249080925400e+01 -4.5218906028195455e+01 -4.6857679534112286e+01  2.7995219732690835e+01 -9.1828086316135362e+00 2.3709109943869175e+00  5.5206627716961947e+01 -3.1155954332623931e+01 -3.4999470630576617e+01  5.7673016617618515e+01 -3.2656307862217979e+01 -3.3594177111807156e+01  5.1127086476334966e+01 -3.0883716526971764e+01 -4.6495026333333414e+01  5.4036112148148867e+01 -2.6304627231161227e+01 -1.7920829901898053e+01  6.4311873598361927e+01 -3.7738119543474141e+01 -2.4646053738444820e+01  6.6966621526234789e+01 -5.5346352358833315e+01 -3.5747907409119023e+01  5.0665323485050656e+01 -3.9783133904897753e+01 -4.4415646222587050e+01  6.0584707178437000e+01 -6.0158063056484636e+01 -4.0911828122465359e+01  5.6984302815234692e+01 -5.7316811754947558e+01 -4.1906739987333417e+01  5.5451012310378054e+01 -1.4868100945670216e+01 -4.2174141046785884e+01  5.7485005183140203e+01 -8.0636708466308935e+00 -4.3403835152884682e+01  4.9103382071428541e+01 -1.8033110639454726e+01 -4.9144384442845208e+01  5.6792035784571652e+01 -8.1168845530075195e+00 -3.6262272828683827e+01  5.5894809983093452e+01 -4.8995778239765722e+00 -4.1010708690462813e+01  5.7382460971250126e+01 -1.6482652253884563e+01 -5.0682553131921019e+01  9.3945853246985820e+01 -2.8843327928618677e+01 1.6626326367425087e+01  7.3432402168514528e+01 -1.4839585657067651e+01 1.2934224150227433e+01  1.8236095315413760e+01 -1.4401080184989068e+01 -3.3847753717396198e+00  3.4101222433954256e+01 -1.6585069608875198e+00 -1.3355649851353748e+01  3.7890060349382360e+01 8.5556566699860674e+00 -1.3216612009427893e+01  5.4569832412080771e+01 -2.3811499235306197e+01 -4.1618788395879882e+01  5.2647610956318090e+01 -2.7971600836975504e+01 -5.0927679887716913e+01  1.9403825054413844e+01 -1.7778874670596291e+01 -2.1931713408926640e+01  5.1768403534127465e+01 -1.2320245565365630e+01 -2.3450665043052958e+01  4.9209073675628844e+01 -1.5090898562656195e+01 -1.6817675455750884e+01  5.3886772630355971e+01 -7.8947029743431241e+00 -1.9016042364202860e+01  5.0613815026432441e+01 -1.4662960111551980e+01 -3.0363219599062308e+01  5.2682899957109143e+01 -9.3051713580282414e+00 -2.5038971483200001e+01  1.4104441121102397e+02 -1.0706698401654900e+02 -1.0703536559823265e+01  2.4029728788807969e+02 -2.0769473155588719e+02 -1.8283514680502694e+01  5.9081718961979234e+01 -2.4204148460840667e+01 -5.3415488954188987e+01  5.6786995052520211e+01 -2.4998999338709403e+01 -4.7103751657761592e+01  6.0953710820366751e+01 -2.2521158449796381e+01 -5.3014892969327512e+01  5.8945094953797351e+01 -1.6784548409604689e+01 -4.7812570347325547e+01  7.5350406351175195e+01 -3.2909572342538333e+01 -2.1746237223276289e+01  6.0681164824478735e+01 -2.9757719395698484e+01 -4.8842766959171904e+01  1.8217786984102407e+01 -3.0329350604097048e+01 -3.2416696952064619e+01  5.4309363433444993e+01 -1.0711008622528807e+01 -2.3062874958432214e+01  5.9976421653133251e+01 -7.0284701412115425e+00 -3.9892631228545966e+01  6.4119188630712983e+01 -1.3489366350989220e+00 -4.4549703747907422e+01  4.0115713494594914e+01 -2.1253507555257759e+01 -8.7625083836279227e+00  5.4690936837835153e+01 -1.5637983575311230e+01 -1.6290074184689292e+01  1.3682963242807884e+02 -5.6320338052536485e+01 -4.4048576059440840e+01  7.8362865327501041e+01 -3.4847966793629496e+01 -2.3807724254599854e+01  7.8833296089994207e+01 -6.1451718078377205e+01 -5.6298131511996701e+01  8.3410270974189686e+01 -5.1657177774849522e+01 -4.2828955663461763e+01  5.5114047831800463e+01 -9.2624446571048118e+00 1.4066186089245395e+01  4.6160043550446709e+01 -1.1915706343127889e+01 1.3249562926861641e+01  7.6507457276887635e+01 -1.4957837226005854e+01 1.8288785830222125e+01  6.4346910342099562e+01 -2.3410649353861142e+01 9.9540403144023171e-01  6.3703561332671853e+01 -2.1216871991537573e+01 -1.4470110209738634e+00  1.0112409326899282e+02 -3.0164605201770083e+01 -6.1710159066008394e+00  7.6846520312388051e+01 -3.2394089149359594e+01 -1.1909365297970446e+01  5.2998227506992713e+01 -1.4433388325690185e+01 -3.6992836752985390e+01  1.1178632033808216e+00 4.2349595622291680e+01 4.1765380519554945e+01  3.0932144536971993e+01 2.8663476081492565e+01 4.6839863629663164e+01  9.8179307481192826e+00 1.2885038649205679e+01 -1.7317488844200238e+01  -2.5540442693608423e+00 5.2064838906413975e+00 4.9968829191573247e+00  5.1498900061658706e+00 -8.9917426743674920e+00 -1.2226276483152784e+01  5.7152817537634114e+01 -9.5920266109242736e+00 -3.9469475317464443e+01  6.0946452843415599e+01 -2.2979624973325685e+00 -4.0398258957391768e+01  5.6431718516537202e+01 -1.3510992286817587e+00 -2.0480973452441869e+01  1.8758428405440883e+00 -5.2743610722280758e+00 6.2320173948434956e+00  3.1027179666488330e+01 1.4712781442429174e+01 4.0570540639904266e+01  4.1531637767573759e-01 2.6452604121545743e+01 4.3085550068174228e+01  1.5125284332870288e+02 -7.3138533655551669e+01 -6.1219274971461047e+01  6.5035321135383086e+01 6.4356642446487854e+01 -2.0623399265422389e+01  5.8942614364321003e+01 5.2720998970891451e+01 -1.6399782949609278e+01  6.2056410762444422e+01 6.2569142371752321e+01 -2.2317326676187580e+01  6.3326388823516332e+01 5.2230454813667890e+01 -1.9789583127358636e+01  6.1443551815398784e+01 