<?xml version="1.0"?>
<VTKFile type="UnstructuredGrid"  version="0.1"  >
<UnstructuredGrid>
<Piece  NumberOfPoints="4542" NumberOfCells="19917">
<Points>
<DataArray  type="Float64"  NumberOfComponents="3"  format="ascii">8.976965589200001 5.2206148947 40.6433994556  9.4171990214 4.5865644464 40.6433994556  8.948992079949999 4.6507628332 39.14949869605  8.6713315814 4.5789664025 40.6433994556  8.3656975736 3.9373179103 40.6433994556  9.389225512149999 4.0167123849 39.14949869605  9.1115650136 3.9449159542 40.6433994556  8.643358072150001 4.009114341 39.14949869605  8.921018570699999 4.0809107717 37.6555979365  9.8574324536 3.9525139981 40.6433994556  11.4144459649 1.6394084982 40.6433994556  11.7967872492 0.5606561356 38.62005008385  11.84617716495 1.7154850035 39.3869837092  11.18523392425 0.4845796303 39.4179478162  11.36505604915 0.4845796303 39.87646583025  11.3156661334 -0.6702492376 39.1095322049  11.1358440085 -0.6702492376 38.65101419085  10.9560218836 -0.6702492376 38.1924961768  11.6169651243 0.5606561356 38.1615320698  12.277908365 1.7915615088 38.1305679628  8.854758523499999 1.8228010503 38.0578059871  9.001416078949999 0.48028349755 39.85463971365  8.941006499099998 0.57627590635 38.5618429794  8.5234553195 1.3277707636 38.2836292899  8.915168103349998 1.7268086415 39.35060272135  8.975577683199999 1.6308162327 40.6433994556  8.583864899350001 1.2317783548 39.57642602415  8.192152115500001 0.8327404769 38.5094525927  8.609703295100001 0.08124561964999999 38.7876662822  9.027254474699999 -0.6702492376 39.0658799717  12.6948979923 1.8873040204 40.6433994556  12.48640317865 1.8394327646 39.3869837092  12.42309126555 1.33378988225 39.97640129325  12.0546719786 1.7633562593 40.6433994556  11.78286525185 1.20984212115 39.97640129325  12.1512845388 0.7802757441 39.3094031309  12.2145964519 1.28591862645 38.71998554685  4.7207679857 8.726771792399999 37.4790361172  4.34767586485 7.74113438485 37.61809179945  4.285769445650001 8.119752545799999 38.32074505175  4.885547687100001 8.3546977755 38.07653662785  5.0503273885 7.9826237586 38.6740371385  4.51245556625 7.36906036795 38.2155923101  4.45054914705 7.7476785289 38.9182455624  3.8507709056 7.5127332992 39.1624539863  3.9126773248 7.134115138249999 38.459800734  3.974583744 6.7554969773 37.7571474817  9.5517813841 5.1047726981 36.7607378691  9.86440155525 4.8119168643 37.49293832775  10.52576298145 5.0339860751 37.1615072423  9.91162032225 4.45972685175 36.8626949842  10.2714592604 3.8146810054 36.9646520993  10.2242404934 4.16687101795 37.59489544285  10.8856019196 4.38894022875 37.2634643574  11.4997445788 4.9631994521 37.5622766155  10.8383831526 4.7411302413 37.89370770095  10.1770217264 4.5190610305 38.2251387864  13.0336244256 2.5004133018 35.7586537037  13.4079563253 1.90430699785 36.93085110635  14.05719540535 2.44310676405 36.40908979115  13.22307166735 2.548233607 36.6917436742  13.21850908355 1.85648669265 35.99776113585  13.4033937415 1.2125600835 36.236868568  14.2420800633 1.7991801549 36.6481972233  13.4125189091 2.5960539122 37.6248336447  14.2466426471 2.49092706925 37.34217976165  15.0807663851 2.3858002263 37.0595258786  4.2838649715 9.5594521201 38.2055571887  4.5023164786 9.143111956249999 37.84229665295  3.90158869105 9.190753419850001 37.57101562504999  4.1891635547 9.6356181431 37.84688912635  4.0944621379 9.711784166099999 37.488221064  4.12004019815 8.774413255999999 37.2077550893  4.4076150618 9.219277979249998 37.48362859060001  3.80688727425 9.26691944285 37.2123475627  3.5193124106 8.822054719600001 36.9364740614  6.5959676042 6.7997740612 37.5843139408  7.3029540932 5.52377588605 37.48247973035  7.25609491735 6.31691487325 37.9373048848  7.0346540487 6.318585360549999 37.23195835595  6.64282678005 6.006635074 37.12948878635  7.4733404932 5.8373966599 36.8796027711  7.69478136185 5.835726172599999 37.58494929995  7.08151322455 5.52544637335 36.7771332015  6.6896859559 5.2134960868 36.6746636319  7.9162222305 5.8340556853 38.2902958288  2.1594904187 8.2023135765 36.4706798066  2.9484864027 7.617973574400001 36.90200560705  2.43273263925 7.87462477925 37.08526544755  2.24729877685 7.325923924750001 36.611663902  2.67524418215 7.94566237165 36.2874199661  3.1909979456 7.6890111668 36.1041601256  2.7630525403 7.069272719900001 36.4284040615  2.335107135 6.449534273 36.7526479974  2.5205409974 6.9982351275 37.22624954295  2.7059748598 7.546935982 37.6998510885  -0.6561989643999999 5.5260527185 37.3348556951  0.8394540853 5.9162106209 36.3664833964  0.8394540853 5.98779349575 37.04375184625  0.7758011804000001 5.2141659481 36.7071957328  -0.6561989643999999 5.45446984365 36.65758724525  -0.6561989643999999 5.3828869688 35.9803187954  0.7758011804000001 5.14258307325 36.02992728295  2.2078013252 4.9022791777 36.0795357705  2.2714542301 5.67590672535 36.41609188395  13.176955056 3.1232859282 40.6433994556  13.64811849125 2.32109361825 39.13411655015  13.8541738885 2.8369858648 39.13411655015  13.29473698255 2.8596699202 39.13411655015  13.5303365647 2.58470962625 40.6433994556  13.73639196195 3.1006018728 40.6433994556  14.2958288679 3.0779178174 40.6433994556  14.08977347065 2.56202557085 40.6433994556  13.8837180734 2.0461333243 40.6433994556  2.8551504667 3.5370450282 40.6433994556  3.4487422402 3.2343711687 38.98034046914999  3.0909101878 2.98488088165 40.6433994556  3.48814156005 3.46598066255 40.6433994556  4.1211326534 3.3949162969 40.6433994556  3.6845019613 2.68220702215 38.98034046914999  4.08173333355 3.16330680305 38.98034046914999  3.72390128115 2.913816516 40.6433994556  3.3266699089 2.4327167351 40.6433994556  4.0423340137 2.9316973092 37.3172814827  11.1965958975 4.1952963696 35.7074491055  11.53048165655 4.006622404 36.94410950475  11.9743737917 4.23099194585 36.1657502214  11.34817023815 4.57924791085 36.63486286049999  11.3789073159 3.62267086275 36.01669574975  11.5612187343 3.0500453559 36.325942394  12.1566852101 3.658366439 36.47499686565  12.12594813235 4.6149434871 37.0931639764  12.7521516859 4.2666875221 36.6240513373  3.0225829405 4.461320193 34.5350274079  2.1022390815 3.2863091759 34.9976570547  2.3727709943 3.94335733225 35.32240841475  1.18319198805 3.92749365685 34.86270765245  2.7520510277 3.80427203665 34.21027604785  -0.6561989643999999 3.3936671207 35.190387897  0.53338004185 3.4095307961 35.6500886593  0.9126600752500001 3.2704455005 34.5379562924  2.4815191149 3.1472238803 33.8855246878  1.7229590481 3.4253944715 36.1097894216  2.9292743273 3.65021102 38.8212022373  2.55518883115 2.9186566751 38.95817790895  2.2552271956 2.300268322 37.2729563623  3.14878060465 2.6159828156 37.2951189225  2.62931269175 3.0318226669 37.13598069065  3.0033981879 3.7633770118 36.999005019  3.5228661008 3.3475371605 37.15814325085  0.8162651516 2.721606878 39.1871914574  0.5079690162 1.86653145935 38.5220586591  0.1602221554000001 1.6507590507 39.65622823309999  1.2442010742 2.38699163295 38.7811258825  0.08003309360000005 2.2011467044 38.92812423399999  1.324390136 1.83660397925 39.5092298816  0.8964542134 2.1712192243 39.9152954565  0.9766432752 1.6208315706 40.6433994556  -0.6561989643999999 1.6806865308 38.6690570106  1.6721369968 2.0523763879 38.3750603076  7.3108700956 6.481241633 40.6433994556  7.2042889061 5.80217434425 39.46684764219999  7.61354616305 6.15764865915 39.46684764219999  7.4143279598 5.8007963161 40.6433994556  6.90161283865 6.125767318099999 40.6433994556  6.4923555817 5.7702930032 40.6433994556  7.00507070285 5.4453220012 40.6433994556  7.517785824 5.1203509992 40.6433994556  7.71700402725 5.47720334225 39.46684764219999  4.4494661857 7.8029479198 36.6431654227  4.72121445815 7.07950182355 37.6179000905  4.21202496485 7.27922244855 37.20015645220001  4.712121813850001 7.330767602050001 36.5771380349  4.958655679 7.6032272948 37.060909061  5.4678451723 7.4035066698 37.4786526993  5.22131130715 7.13104697705 36.9948816732  4.974777442 6.8585872843 36.5111106471  4.474680593 6.8070421308 37.1341290644  8.977987686100001 7.1320921664 36.9672452459  9.774228414100001 6.48759031785 36.90384392825  9.569701424950001 6.54229181895 37.49753863055  9.2648845351 6.11843243225 36.8639915575  10.0611252631 5.4739305837 36.80059023985  9.856598273949999 5.5286320848 37.39428494214999  10.1614151638 5.9524914715 38.0278320152  10.36594215295 5.8977899704 37.4341373129  10.5704691421 5.8430884693 36.8404426106  6.7428694189 5.42482001905 38.122766052  6.08274210575 5.907679207 37.769775108  6.129601281599999 5.1145402198 37.31494995355  5.5695166073 5.0155843528 37.9552362752  13.4860140094 3.9231201282 39.3225160416  13.77859018945 3.3984589923 39.75413779335  13.3314845327 3.5232030282 39.9829577486  13.93311966615 3.7983760923 39.09369608634999  13.44926645925 3.2595870202 38.47367484314999  14.3802253229 3.6736320564 38.8648761311  13.896372116 3.1348429843 38.2448548879  12.0567837866 1.7660838768 36.5719956961  12.1673460758 1.7788226928 37.35128182945  12.1653790728 1.22805579995 36.85367679295  11.64001569585 1.47957576345 36.9270731258  11.2232476051 1.1930676501 37.2821505555  12.275941362 1.24079461595 37.6329629263  11.75057798505 1.49231457945 37.70635925915001  11.74861098205 0.9415476866 37.20875422265  12.273974359 0.6900277231 37.1353578898  2.1853732072 7.87958313585 36.01002128035  2.70112697065 7.622931931 35.82676143985  2.2112559957 7.5568526952 35.5493627541  2.27318156535 7.003193484100001 36.15100537575  3.7794332763 8.863091409500001 38.865005404  3.87700851015 7.8092941934 38.31107644285  3.81510209095 8.187912354350001 39.01372969515  4.250100631 8.794931600950001 38.17202076060001  10.58306129555 3.4749351997 38.35472970335  9.886605899700001 3.6647143071 37.9937058278  9.933824666700001 3.31252429455 37.36346248424999  10.63028006255 3.12274518715 37.7244863598  9.596190073000001 2.8103675837 37.7622728692  10.29264546885 2.6205884763 38.12329674474999  10.9891008647 2.4308093689 38.4843206203  5.3165133137 2.636331129 36.6023968401  4.38388467175 2.31235201775 36.86441296135 
[...]
<PointData  Vectors="u"> 
<DataArray  type="Float64"  Name="u"  NumberOfComponents="3" format="ascii">1.1463294363352855e+01 -1.2287299296543137e-01 -1.8883823020641188e-02  1.1584145801087384e+01 -1.0102505648728544e+00 -3.6324970893090336e-02  1.2881758355119262e+01 -3.6260034168451943e-01 -1.2472415512835171e+00  1.2459169351044833e+01 -2.7583743341164946e-01 -5.1030137077616812e-02  1.3136388957540182e+01 -2.1271786292005324e-01 3.6642944606480647e-02  1.3040615445105097e+01 -1.0207975641407161e+00 -1.5872112725631140e+00  1.2663449438272005e+01 -8.1878059292886463e-01 -1.3435073482755128e-02  1.3729538369634591e+01 -2.1582115783547229e-01 -7.5295013080245765e-01  1.8073992573591916e+01 -3.3767859672372585e-01 -3.2088532569803503e+00  1.1611643918292328e+01 -1.6495951063839953e+00 -8.0045958518265140e-02  7.5113678510699424e+00 -1.5540264811342785e+00 -1.1172965479413266e+00  9.8204346211556732e+00 -1.6830900859248845e+00 -4.4986633091396939e+00  1.0745502795823592e+01 -2.1941602394423434e+00 -3.1717373100389152e+00  7.3764746117223110e+00 -4.6154569570435617e+00 -1.7786925949804262e+00  9.8810961615854920e-01 -2.8522116058363931e+00 -2.9901172885461191e+00  1.6449599204646916e+00 -1.5129493702571799e+00 -2.5285682465278967e+00  2.6220405939500648e+00 -2.1101945155438862e+00 -7.4515779360598722e-01  4.0341694489623592e+00 -2.1134167410702127e+00 -5.6103379239099127e-01  1.0197433076691270e+01 -1.6951876067248171e+00 -3.4071366422667144e+00  1.1353485572468470e+01 -2.3299297273168191e+00 -4.5161973337767192e+00  1.9363082017290928e+01 -1.7950170334979774e+00 -2.0695550191147718e+00  2.5900388642571150e+00 -2.3717771068200642e+00 -5.1902854150679623e-01  1.2095427683175782e+01 -1.3154340818410402e+00 -1.1252677604053372e+00  2.0176977019611957e+01 -3.3237907649369602e+00 1.6803625698266531e-01  1.5315741998713859e+01 -2.0451087811111766e+00 -1.1421726847924676e+00  1.0787477334502928e+01 -9.3098304433846546e-01 -1.5645602488028794e+00  1.6447786938347381e+01 -5.2311376386998978e+00 -9.0747893228339094e-01  2.0287017254990701e+01 -7.2120338466651770e+00 1.6547777027233312e+00  -2.5749834498406743e-01 -5.9325082938446050e+00 1.9286871019573020e+00  -1.3716337760791066e+00 -3.8792191012063565e-01 7.1821702162651635e-01  9.3439178317818303e+00 -7.3799969450252378e-01 -1.2446884611781552e+00  1.0263678268339840e+01 -2.3799786429147289e+00 -3.5573397784082728e+00  1.0272222255604268e+01 -9.4635403346610958e-01 -3.5394113107203262e+00  9.5665695824734591e+00 6.6994439544221199e-02 -9.7208645876471389e-01  8.0810759515310835e+00 2.5469424953673148e-01 -4.3438792566400233e+00  1.1087420424181524e+01 -1.1954892473864411e+00 -4.8932782376437682e+00  1.0949401598428636e+01 -2.6027888221167186e+00 -3.8485910367657010e+00  2.4635651721043028e+00 -2.9718956015521565e+00 8.5086402903938851e-01  5.5184437587453710e+00 -2.9458617604562400e+00 2.9338965735840783e+00  5.0925336039765483e+00 -4.5200751251992122e+00 1.4743289770055563e+00  2.9203638812222938e+00 -6.1342390975160521e+00 1.9486196179178794e+00  8.6477101213202943e+00 -7.2641039215909915e+00 5.4715377889085604e+00  7.8546051902892104e+00 -3.8801805997096004e+00 3.7077327906688318e+00  9.0865152448069111e+00 -6.3000048941449283e+00 4.9767007438617288e+00  7.9128507769015677e+00 -4.3045323006895693e+00 3.9958943351749903e+00  7.4928372891304305e+00 -2.4726280448502531e+00 3.5042099682396279e+00  7.8792964258529565e+00 -1.5523940339355111e+00 4.1361659435874474e+00  1.2665911024169114e+01 -2.4359386788484936e+00 -6.6162362577827718e+00  1.2237312768084355e+01 -2.0255671277898064e+00 -5.5363614567071737e+00  1.0408501297444413e+01 -2.9587478398735678e+00 -5.7854051786344698e+00  1.1995084825590485e+01 -2.9099322560050864e+00 -8.2831492929810224e+00  1.1503482718803003e+01 -2.8444439524438185e+00 -7.1357211426940710e+00  1.2072621884226749e+01 -2.5188782926626354e+00 -5.5217519886922037e+00  1.0504819540472528e+01 -3.1275017095606983e+00 -5.7599335439905239e+00  9.6493314000178589e+00 -3.7989522373287192e+00 -5.5462571442014097e+00  1.0353132878161565e+01 -3.0253289573565252e+00 -4.8112831526529147e+00  1.1823598106583523e+01 -2.0983789385051681e+00 -4.0711448135538140e+00  1.0719754634663264e+01 -3.5469003117833329e+00 -4.7333400714309493e+00  1.1741298198091151e+01 -2.6998482942439543e+00 -4.5316681680634572e+00  1.1771058726640183e+01 -2.9129926630439078e+00 -3.7506543091619733e+00  1.1490814101146055e+01 -3.0145764533308670e+00 -4.4733483268474785e+00  1.1909369910911398e+01 -3.1655742010030652e+00 -5.5710809875966367e+00  1.1132245986154080e+01 -3.0175279869242164e+00 -5.5337584967754232e+00  1.1920342731695886e+01 -2.4242050641638371e+00 -3.9547374489720704e+00  1.1902102528752929e+01 -2.9729557076628397e+00 -4.9565979833554996e+00  1.3003018515270114e+01 -2.4268266270522378e+00 -4.5134697748613384e+00  1.4431475893085690e+01 -1.7267815364295147e+00 -3.1461153423672745e+00  8.1893654875861910e-01 -1.4677974816294550e+00 4.2436716729814680e-02  1.3246649662345864e+00 -2.3211652571881869e+00 5.9722512767694980e-01  1.9234570165352720e+00 -4.6442381855942777e-01 5.5415732445469501e-01  6.8801927134092600e-01 -1.0352971583322024e+00 2.7242671235471960e-01  4.4594138264435595e-01 -3.9519105723256692e-01 -3.8669460188805106e-02  3.2258858172218159e+00 -9.5899675459787470e-01 1.1495361643961106e+00  1.4249508831994391e+00 -1.7729407274562476e+00 2.9088504817611699e-01  1.4549554864625649e+00 5.3874582885636546e-01 5.5788399425243540e-01  3.2808260826935807e+00 1.3274545779337459e+00 1.4873492475062935e+00  2.1091990998865004e+01 -1.3321397819024783e+00 2.2455758315559899e+00  1.8023774214198280e+01 4.0684877177201102e+00 1.0499394414015062e+00  1.7349911250054745e+01 1.7314234077654103e+00 -1.0899011716692448e+00  2.5893347757783893e+01 4.3360085443153853e+00 2.5041030190858442e+00  1.8317380806352727e+01 6.0437940488949460e-02 3.9152343757445291e+00  2.6768078318557812e+01 9.7753202490964402e+00 -9.0965895965909080e+00  1.7483755183694822e+01 3.8375047995227867e+00 -3.1890791762038848e+00  1.9435144754894111e+01 5.6374779240698976e+00 7.2036963045465807e+00  1.5743993001983176e+01 3.7586815884718412e+00 4.6820375585630032e+00  1.4896361049883835e+01 1.6426883606316838e+00 -1.5577922259203734e+00  5.9355598096662980e+00 4.0136958136816920e+00 5.9226863518322670e+00  6.0909502311068113e+00 1.5402992856917421e+00 4.6014427447726147e+00  5.3166042749877693e+00 2.0431594600617791e+00 4.0237908220938312e+00  5.7775839886562776e+00 1.7833938104580191e+00 6.8643922280882999e+00  7.0144378663871585e+00 4.5042150527492835e+00 5.4358993439704424e+00  7.5946690030764064e+00 3.5254574703239721e+00 5.7239131897804505e+00  6.8975658014285282e+00 1.7663673436811058e+00 6.8381597927978417e+00  5.9924164697471669e+00 4.5368251514257185e-01 7.2600691352194904e+00  5.8275053371559293e+00 5.9178169057308438e-01 5.2029101153754684e+00  5.4551535020450990e+00 2.7353878604180892e-01 3.5007147791544027e+00  8.9292929207079832e-02 1.7590576525858434e-01 5.0830808676824280e+00  2.7158814402277738e+00 1.5092284993930799e-01 8.2507069755844036e+00  2.9573428204507328e+00 1.6405466391589757e-01 6.2796956243876245e+00  2.8273839901631996e+00 -2.1948157097179422e-01 7.2203433088800058e+00  1.1290405913245883e-02 1.2114857541045315e-01 7.0648769840132468e+00  1.0788290134415067e-02 -2.2196754464718657e-01 8.7474405833816959e+00  2.5222302065959994e+00 -4.7532588904600820e-01 8.8338555793591649e+00  5.8770742421567741e+00 -6.0031749744885676e-01 9.3075429542579258e+00  5.9352436070795553e+00 -1.2884873346881059e-01 8.2874098853769933e+00  9.9636820581587653e+00 -3.7442114484139606e+00 -3.4067636692643155e-01  9.7560613649227488e+00 -2.6540348516147558e+00 -5.2811263772553056e+00  1.0075354015810687e+01 -3.0560730783157579e+00 -5.5875355154359987e+00  1.0362128000266834e+01 -3.3799982704604572e+00 -4.3296742216030193e+00  7.4752816105155784e+00 -1.7606628205430768e+00 -5.5579815122442933e-01  7.3996719360288798e+00 -3.0272927026874746e-01 -2.4918198630739782e-02  2.9183255986022480e+00 -7.5103450216712409e-01 -2.0904581959345645e+00  3.2425390519008142e+00 -1.0068833554036880e+00 -2.1427613075296170e+00  6.3543566498697688e+00 -3.1549197062665355e+00 -1.8774619273077684e+00  5.1056590677692313e+00 3.7657583948816442e-01 2.0830727870863400e-01  6.9050735499391784e+00 2.6390943822352037e-01 2.7441188197142132e+00  5.6083623410767114e+00 5.4366058501233239e-01 2.1795520502916152e-02  6.7055012568296819e+00 3.7775668140897989e-01 4.0345519775575586e-02  7.9127298474951511e+00 5.1652373028159881e-01 -2.2745409538061120e-03  7.2078796168307964e+00 5.0597694831400486e-01 2.5412865544456213e+00  8.0475555509883865e+00 4.5346010107773110e-01 2.5482002408456865e+00  7.1263108056211317e+00 7.1099269675525911e-01 -5.9561352299947390e-03  6.0532953835410499e+00 9.5539264523846756e-01 -8.5357648660858501e-03  8.4744526597000611e+00 1.5267614453435049e-01 4.5670569243364145e+00  8.4750626233785127e+00 -3.4813506059800536e+00 -5.9165988647153629e+00  1.0097851776489970e+01 -3.4245980904309103e+00 -5.5159862622403093e+00  9.7695639188101673e+00 -3.4661053494468996e+00 -5.0251749686681695e+00  9.6738772036551044e+00 -3.4501400135828999e+00 -5.6441720110299878e+00  8.9669344378180842e+00 -3.3975841903552699e+00 -5.4985491856474153e+00  9.7330835664523381e+00 -2.7737014501922306e+00 -5.4228182062587917e+00  1.0258282379616729e+01 -3.3114355079149274e+00 -4.9477054165784775e+00  1.0215097427483951e+01 -3.8815692988668973e+00 -5.5614570358386413e+00  1.0985863312286389e+01 -3.7402980459611239e+00 -4.9965068738356031e+00  6.0039721828369279e+00 -8.5297136447875854e-01 1.7053602980097075e+01  4.7220352282045157e+00 -1.4110882359911343e+00 1.2360378833093320e+01  5.9705158509826308e+00 -1.0919675624341416e+00 1.1310025349876742e+01  2.5639211233763626e+00 -1.2279968360391835e+00 1.0737709354516326e+01  2.7792638806878665e+00 -1.1488406599650107e+00 1.7029687236899683e+01  4.6449257866582210e-02 -1.1138139881611231e+00 9.3270759848339253e+00  2.0351506495986573e+00 -1.0157290451143808e+00 9.1084767914598128e+00  1.7127111217408464e+00 -1.1798845974557139e+00 1.0865405293153840e+01  9.5189297735714462e-01 -7.8439487738886071e-01 1.5679674885584022e+01  4.7294667821369938e+00 -9.4770348017980877e-01 8.6918591051410488e+00  6.2225075048394736e+00 -1.2760020468850287e-02 3.2556029186912236e+00  5.3689271701032295e+00 1.4037113535328163e-01 3.0500006163430005e+00  5.4464051327101339e+00 -5.8587631673447560e-01 5.5154400652595790e+00  7.0077957769328068e+00 -2.3944232512023433e-01 5.0448435141190817e+00  6.3411005503854101e+00 -4.8837580608996883e-01 5.7524621658819015e+00  7.2958214725762893e+00 -4.8986930477616675e-01 6.0774347542679266e+00  8.0303932739846786e+00 -2.4369879560734212e-01 5.2570003985361540e+00  3.5540231674344396e+00 -1.4521597511613277e-01 3.9821463942670254e+00  2.9372555403897853e+00 -6.2738662529006939e-01 3.6026180851770309e+00  2.6824663824411177e+00 -1.3101996959687440e-01 3.2741380377287488e+00  3.6993214956943898e+00 -3.4540013555938920e-01 3.7171593173656787e+00  2.9813633939979973e+00 -1.0115648231670376e+00 3.6733815527169678e+00  3.1635733634149035e+00 -1.0581089331588345e-01 2.6301183578380463e+00  2.6294458424459992e+00 -2.8972214331160540e-02 2.5503333551496619e+00  1.6820758819102799e+00 -2.4183416280916814e-01 1.2472714262917739e+00  1.4455487635320730e+00 -3.5363317633330327e-01 2.5211095420087912e+00  4.1586099870089654e+00 -4.5056521122831722e-01 3.8915693237719524e+00  1.4031036787010027e+01 -2.0568853410938419e+00 -1.1980864774538753e+00  1.3767193853311484e+01 5.5702831446517720e-01 1.7876536810977608e-01  1.3673492773248586e+01 8.6412647307271784e-01 -2.9925965004349875e-01  1.3226077588474917e+01 3.1368362654154219e-01 4.0714658721817738e-02  1.2641338729583396e+01 -6.8504769024322276e-01 -2.4413725946879011e-01  1.2132617794460531e+01 -4.4618564351228357e-01 -8.8642392738227438e-02  1.2640413348311922e+01 -1.0170589774748152e-01 -1.4848256278474400e-01  1.2751678943295499e+01 2.2123103309498501e-01 -1.0674522649172472e-01  1.3464826904609556e+01 4.3549120826963056e-01 -6.6088510600063474e-02  5.5929295380267732e+00 -9.2154341101386050e-01 3.0326882847894066e+00  8.5745210853344069e+00 -3.4949958828069891e+00 4.2900186853390423e+00  7.0531889809527062e+00 -1.6556305994577829e+00 3.9943786373910144e+00  6.6360576598453607e+00 -2.3226162970279214e+00 4.2478749321998395e+00  6.2807900384913093e+00 -4.3366644480244867e+00 4.2688124992692282e+00  1.1367610724161558e+01 -6.5372079532339242e+00 4.9529731453013728e+00  9.7791360747541702e+00 -5.0118929975239217e+00 5.5192576569870369e+00  9.2779802778630565e+00 -3.0093810644011025e+00 5.1096287842455821e+00  8.5684358741105644e+00 -1.9753246101643163e+00 4.5927377911068534e+00  8.1986192263697770e+00 -3.0837514730060001e-01 -6.1353916190918953e+00  9.8269772463251943e+00 -1.3955674479631921e+00 -4.9655518314303668e+00  9.5124319742682619e+00 -1.3094200521747066e+00 -4.6159808788070675e+00  1.0240359982963554e+01 -6.0855673368919516e-01 -5.4353760631990049e+00  1.0821947498894646e+01 -2.8016153251684153e+00 -5.6724882669687826e+00  1.1161535191986767e+01 -1.6237737035678206e+00 -4.9950535020775773e+00  9.6578043663586506e+00 -1.8568780463621206e+00 -4.0976373130009032e+00  9.8637051755484766e+00 -2.3854420280137063e+00 -5.0687959826886679e+00  1.0004826996158213e+01 -2.6426656102560822e+00 -5.5542244917284851e+00  1.5010018201997562e+01 1.2955641503907738e+00 1.6634388687015633e+00  1.4537196477188562e+01 -8.1265604389184154e-01 3.0915880944424683e+00  1.3774986229424188e+01 9.2805173833869947e-01 4.2280906046979805e+00  1.1981855837209945e+01 1.2787724799899985e-01 3.4552069183944618e+00  1.1480597130679007e+01 -6.1021847463408108e+00 -3.9448700711030136e+00  9.0110612516433903e+00 -2.0061444137901687e+00 -2.1861888741198880e+00  1.2546909931118082e+01 -5.0178758602900908e+00 -2.3966151538551417e+00  1.1596735081045789e+01 -4.0214456548267448e+00 -4.6811025764488958e+00  1.1464053806296997e+01 -3.6118662714768677e+00 -5.1381249176595540e+00  1.1179435017468482e+01 -3.4214115199219646e+00 -7.0888472179915665e+00  1.2247807078552915e+01 -3.2614587544911124e+00 -5.6426111293518408e+00  1.0712159933717546e+01 -2.1063572734039693e+00 -4.6880570049744508e+00  1.1047484850157270e+01 -2.3827146501673648e+00 -4.5459043559237218e+00  1.1805462423189800e+01 -1.9196771393527836e+00 -4.1928644166888027e+00  1.0385060184014380e+01 -1.2283511832758471e+00 -4.7721892630357718e+00  1.0582806454252808e+01 -1.8257377666380348e+00 -4.5581410809811240e+00  1.1411473760918257e+01 -2.0729525186859918e+00 -4.3188663218696188e+00  1.1088983155315281e+01 -2.2221106792285790e+00 -4.4257338316448021e+00  1.1413109683558451e+01 -1.2033379077358353e+00 -3.9999565107687380e+00  1.3209804645406031e+01 -2.2975742567203095e+00 -4.9271097528376178e+00  6.8982220434964008e+00 4.9783318352335302e+00 8.4086477956539536e+00  8.6559545008094805e+00 4.5790461910157392e+00 8.3704590150976053e+00  7.6796647433770255e+00 2.8118789939040001e+00 1.3864234605546784e+01  6.3461397274877829e+00 1.8872429204095986e+00 9.0043997997624139e+00  2.4977083670750559e+00 -1.8123270437853001e+00 1.4968056517596837e-01  5.8275322326347831e+00 -2.8521939979603990e+00 2.2549608051703114e+00  4.1325493126078632e+00 -3.5743593150752306e+00 -9.1518537458781787e-02  2.3359150820203718e+00 -2.6440448035726862e+00 7.7410162235028690e-01  1.1946426024826168e+01 -2.6104749990970690e+00 -4.1822399663863035e+00  1.3354540440166042e+01 -2.1549339882208689e+00 -5.1583611582285522e+00  1.2972974094558346e+01 -2.8716927819478375e+00 -7.0261969862225087e+00  1.1702362210820640e+01 -2.7802560571920680e+00 -5.5124016035629806e+00  1.5983971177622903e+01 -1.5359255803519853e+00 -5.7518689161684380e+00  1.3311674526096128e+01 -2.3733088643995286e+00 -5.1186578101119729e+00  1.2432334979241848e+01 -2.7225764230032081e+00 -4.0120697437829174e+00  9.6395273319793358e+00 1.5493487594854025e+00 4.3578405364719277e+00  8.5327375430096772e+00 4.8325699478776563e-01 4.3428817520769076e+00  8.5680856578070088e+00 1.1827078942262439e+00 4.2828961373530294e+00  9.2092405579247867e+00 6.4481353634085503e-01 4.3540346614106644e+00  8.0100373036430685e+00 1.6240124042144386e+00 4.6953769074433698e+00  9.4725077406564075e+00 1.2795771602169828e+00 4.0574532513662263e+00  7.7922955917474024e+00 8.1134039860103968e-01 4.3621247286566360e+00  9.8257344770955086e+00 1.1564307223636077e+00 3.4276360003818556e+00  8.7164338534243164e+00 7.8471158126436391e-01 3.6869771347776141e+00  1.0327752569210119e+01 -6.2437380306226442e-01 5.9705377031695654e+00  8.4135414187228541e+00 -4.0657087476643544e-01 5.3449948935066409e+00  9.0598363124260572e+00 -9.4102269553051260e-02 5.1016566756878508e+00  8.6286506516623724e+00 -2.7499270234328721e-01 4.1137471223852886e+00  9.9080783656342160e+00 -1.2119602548272534e+00 6.3959144104319243e+00  9.1436879827743631e+00 2.7451813925221391e-01 4.4072388086243093e+00  9.1421834786785663e+00 -1.3928715016522832e+00 7.2837242385376211e+00  1.3540498670684125e+01 -2.1420635392312906e+00 4.1385033168455800e+00  1.1519715392440180e+01 -2.9170482002280327e+00 4.6977450723414185e+00  1.1909171297527262e+01 -4.2275902107282706e+00 4.3287583291545557e+00  1.3458338311078933e+01 -4.4226243397471663e+00 6.2648295470269391e+00  1.1442340751899438e+01 -3.4595289561382274e+00 5.3861156747023200e+00  1.5141802759085451e+01 -2.6118658034271611e+00 5.3953522823434765e+00  1.2548457724644891e+01 -1.8458453927889740e+00 3.0390426196941696e+00  7.7010499760922917e+00 9.5046313674056671e-01 -6.7996068529418618e-01  7.0160604993324007e+00 7.5735542733497396e-01 -4.7303224577798648e+00  1.4022767023403132e+01 -2.4221565850476797e-02 -5.1122810776293468e+00  1.1444833813097690e+01 -1.9086683286113748e+00 -4.0084843977160283e+00  1.0074209549679061e+01 -4.9898756351773196e-02 6.6692871458359185e-02  1.0211857067094485e+01 2.7444129932840490e-02 1.9128860082094230e+00  1.0398163455270618e+01 2.1570425701516019e-01 -2.5285676419530109e-02  1.0925179770539907e+01 3.9809728414335601e-03 -1.2253309809449936e-02  1.0955240376073275e+01 -2.0126734065370538e-01 1.7985913888375120e+00  9.6764099811404964e+00 7.9240278321716165e-02 2.6553956273132718e-02  9.0213455530688655e+00 2.1366853570224120e-01 6.6028146540389058e-03  1.1384088386423270e+01 2.4338594048833312e-01 -3.7870761364684645e-03  1.1446011364052627e+01 2.6270415657472401e-01 1.5768090930379477e+00  7.8883328057806130e+00 5.4656065420413658e-01 4.1576951698743603e+00  7.4916144297049811e+00 5.3592858886690009e-01 3.3870622651604330e+00  7.8594143577261022e+00 3.6263716311706784e-01 3.9929047289340489e+00  8.2410762490749363e+00 9.4769907208065263e-01 3.2771152453012786e+00  9.5884038073280191e+00 3.4916514674841065e-01 1.9046149746186856e+00  9.8460969443270017e+00 4.4202107055871492e-01 2.4991184969504161e-02  8.4623202778471303e+00 3.3423686159485044e-01 -1.4654826180063132e-02  8.9801178263362829e+00 4.8962870968617678e-01 1.9512137696380547e+00  9.3083512559513348e+00 6.2172039136435864e-01 -1.0506223612494021e-02  1.0448729789420398e+01 8.0418221771373311e-01 2.5924355218415060e-02  1.0175989289232431e+01 7.9426290775624075e-01 1.8764323906056934e+00  1.0028584468893703e+01 6.8998822641428248e-01 3.6208644837972579e+00  1.7297061559320674e+01 -2.2940364661665531e+00 -6.7957711032040811e+00  1.6971279151607622e+01 -1.1395968724652554e+00 -1.7302136685490499e+00  1.7966282498005000e+01 -1.0803408967136794e+00 -2.8937810498021239e+00  1.5863304596392174e+01 -1.8807180171014986e+00 -4.2628598308756782e+00  1.5644775157093104e+01 -1.7465157869577013e+00 -2.8150964075641149e+00  1.9044796144340385e+01 -1.4706497501432825e+00 -4.7915692458613988e+00  2.2603881423266500e+01 -4.9352171286381663e-01 -3.7279526338315203e+00  1.3893255565723925e+01 -1.8267472048731728e+00 -1.9077015912498911e+00  1.3554076821442468e+01 -1.9334743657654283e+00 -7.4578686804357908e-01  6.0176249953985010e+00 -2.221410