<?xml version="1.0"?>
<VTKFile type="UnstructuredGrid"  version="0.1"  >
<UnstructuredGrid>
<Piece  NumberOfPoints="4543" NumberOfCells="20318">
<Points>
<DataArray  type="Float64"  NumberOfComponents="3"  format="ascii">29.7672571339 11.557346359 19.0291379607  30.3026597229 10.6221330023 18.24276387885  30.3471191381 10.84013010925 19.0755340808  30.2506709871 11.56915970565 18.77841101095  29.8637052849 10.8283167626 19.32626103055  29.8192458697 10.61031965565 18.4934908286  29.9601534359 10.0992871662 19.6233841004  29.9156940207 9.88129005925 18.79061389845  29.8712346055 9.663292952300001 17.9578436965  30.7340848403 11.5809730523 18.5276840612  30.1479260027 12.1529462565 17.809328635  29.89409918175 11.0705025923 17.9064043526  30.4410054215 11.8669596544 18.1685063481  29.92150292375 11.6472428883 18.29074066595  29.49007780635 10.6884028383 18.0058204836  30.6454019994 11.11804069375 17.36421767845  31.1428779961 10.083135131 16.9191067219  30.9384814182 10.83205409165 17.72339539155  28.9431633285 10.5500083168 19.0645227093  29.407198967 10.10665063455 18.5111832029  29.0845835844 9.700388072399999 19.18122033845  29.4516583822 10.3246477415 19.34395340485  29.5930786381 9.475027497100001 19.460651034  29.2260038403 8.850767828 19.2979179676  29.5486192229 9.25703039015 18.62788083205  29.3552102312 11.0536773379 19.046830335  29.9575915683 11.85514630775 18.41923329785  29.43808907055 11.63542954165 18.5414676157  29.02604216785 11.13176052055 18.55915999  30.5070563008 9.873214041650002 17.4384752092  31.7477558157 11.2047463189 18.3946628361  31.54802895445 10.37479118425 18.73792966905  31.95866996755 10.4746200725 18.2191709025  30.8094952106 10.4340196356 18.1762532663  31.3371148026 11.10491743065 18.91342160265  31.02040936245 9.703893389200001 18.0007613327  30.3988541975 10.33419074735 18.69501203285  30.9264737895 11.0050885424 19.4321803692  32.1695841194 9.744493826099999 18.0436789689  35.9495090285 8.633364867799999 21.9082272479  35.8504644231 8.75197359295 20.49274409475  35.4367746391 8.739658512649999 21.17346456485  35.97647724215 8.142422091749999 21.34196257725  36.3631988125 8.6456799481 21.2275067778  36.0034454558 7.6514793157 20.7756979066  35.46374285275 8.248715736599999 20.6071998942  36.39016702615 8.15473717205 20.66124210715  36.7768885965 8.6579950284 20.5467863077  34.9240402497 8.845952157499999 20.4387018818  30.9980897868 12.9611088695 18.0017937545  31.5013073131 12.4325188184 18.79958886015  30.86608731355 12.2710409609 18.26473890785  31.1187725499 12.5659599942 19.00592627115  31.63330978635 13.122586727 18.5366437068  32.2685297859 13.2840645845 19.0714936591  31.75399254945 12.7274378517 19.54077622345  31.239455313 12.1708111189 20.0100587878  30.98677007665 11.8758920856 19.2688714245  32.1450836938 7.9259698776 18.1027235138  32.7035977052 8.782219135849999 18.4917641823  32.1573339066 8.835231851850001 18.07320124135  31.9521206222 8.368718499149999 18.6636411905  31.7591575506 8.8114671207 19.2245588672  32.51063463360001 9.2249677574 19.052681859  31.964370835 9.2779804734 18.63411891805  32.715847918 9.6914811101 18.46224190985  33.2621117166 9.6384683941 18.8808048508  32.3712070625 13.1148864495 17.5897525673  32.40002767615 12.55195089245 17.0682635175  32.6313085923 12.474702432 17.72718561255  32.0594814391 12.1598163842 17.9922077017  32.08830205275 11.59688082715 17.4707186519  32.3195829689 11.5196323667 18.12964074695  32.8914101221 11.8345184145 17.8646186578  32.66012920595 11.91176687495 17.20569656275  32.4288482898 11.9890153354 16.5467744677  30.3399764527 7.945933745 19.3979297625  30.2106730545 8.071150655949999 18.62035759915  31.24253007325 7.9359518113 18.75032663815  30.34478350425 7.471817790899999 19.0388439329  30.3495905558 6.9977018368 18.6797581033  30.21548010605 7.597034701849999 18.26127176955  31.2473371248 7.461835857200001 18.39124080855  31.11322667505 8.061168722249999 17.9727544748  30.0813696563 8.196367566899999 17.8427854358  32.8005919394 12.8810700191 18.27726265855  32.579969954 12.5592914995 18.46805615845  32.7492533011 12.9656590866 19.01813320445  32.3198684242 13.199475517 18.3306231132  33.2299768163 12.6472535887 18.9647727498  33.0606934692 12.2408860016 18.4146957038  33.6666905398 8.4500569924 19.4549407243  32.47585247705 8.023164984799999 19.83070309215  33.42961897165 7.842459920650001 19.9458940207  33.0870768444 8.539320604650001 19.9718398784  32.7129240452 8.630762056550001 19.33974979575  32.507463149 8.6285842169 20.4887390325  32.85000527625 7.9317235329 20.4627931748  32.1333103498 8.7200256688 19.85664894985  33.1925474035 7.2348628489 20.4368473171  30.7644131909 7.10570471565 19.3052857238  30.75960613935 7.579820669749999 19.6643715534  31.179235826 7.2137075945 19.9308133443  31.6621597599 7.56983873605 19.01676842905  32.7382868399 10.247988443 20.443772354  31.7239150265 9.869272981350001 20.66885547165  31.5628245246 10.5314175807 20.6171772766  32.14673332365 10.09064787855 20.1796989541  32.31546854275 10.0266135458 20.93292887155  32.15437804085 10.68875814515 20.8812506765  31.5704692418 11.1295278473 21.318728999  31.7315597437 10.46738324795 21.37040719405  31.8926502456 9.8052386486 21.4220853891  31.5551798074 9.9333073141 19.9156255542  32.8343907033 8.5030081993 17.87423372485  33.5236977128 9.080046521 17.6457439359  33.3929047147 9.359257457550001 18.26327439335  32.8466409161 9.412270173549999 17.8447114524  32.18589161475 7.2242852217 20.1838303307  31.8433494875 7.9211459057 20.2097761884  31.4691966883 8.012587357599999 19.57768610575  31.8623819634 9.8389005701 18.97965226155  30.71320720645 9.798300133200001 18.93673462535  31.657168679 9.3723872174 19.5700922107  30.81519607805 9.237380036499999 18.59120128185  34.06538224865 8.16852851945 18.9702017031  34.0282562804 7.69927819785 19.47181019245  34.68991194580001 8.297062864299999 19.22832349215  34.4640739575 7.8870000465 18.4854626819  35.0603260979 11.553004186 20.1898227768  35.34546120985 10.8459646114 19.5230738081  34.84427638435 11.20416422035 19.26041545545  34.96192213960001 10.81002756255 20.0407731876  35.44386516815 11.58894123485 19.6721233973  34.4607373141 11.1682271715 19.77811483495  35.8274042384 11.6248782837 19.1544240178  33.8611485303 10.783450157 19.3664068931  34.3623333558 10.42525054805 19.62906524575  34.8635181813 10.0670509391 19.8917235984  36.24501097415001 8.4010318823 19.77424628385  35.8582894038 7.89777402595 19.8887020833  36.5117672241 7.57297173395 20.28629073505  33.5951941263 8.7650517567 18.5503423301  34.30507625 9.13913172685 19.0155911969  34.9434619602 9.828206461300001 18.5762416695  34.70376795884999 8.857603253900001 18.5308521757  34.2335798365 9.454126491149999 18.1109928027  33.99388583515 8.483523283749999 18.0656033089  32.50493376615 10.4216073565 18.63773384345  31.65146781155 10.5690268165 19.15514419515  32.408645762 9.7858878541 19.3982152025  34.7013759837 11.7028922674 21.3241841323  34.40382511449999 10.90628393365 21.30581406775  35.1379829145 11.2360940794 21.25277586125  34.9877414439 11.33689815555 21.65821805615  35.2741069041 10.9709040437 21.99225198  34.8404320453 10.43948574565 21.2344057967  34.6901905747 10.5402898218 21.6398479916  35.4243483747 10.87009996755 21.5868097851  35.5745898453 10.7692958914 21.1813675902  34.1062742453 10.1096755999 21.2874440032  31.24847151565 11.06730819485 20.3754546841  32.0515629235 11.31531702465 20.47983724475  32.5326566052 11.501106202 19.6409454905  32.0439182063 10.71720675805 19.77828552235  31.72956519735 11.2530973722 19.53656292985  31.24082679845 10.46919792825 19.6739029617  34.0582938266 8.040407503199999 20.43777459945  34.65693113535 7.897225780399999 19.9636907712  34.29536539475 8.648004574950001 19.94682130305  34.389822021 6.9484994033 19.4886796606  33.79118471225 7.091681126099999 19.96276348885  32.8161621222 12.963041368 20.3592761258  32.93933425615 12.1024249336 21.0085162368  32.6744093637 12.232073785 20.00011080815  32.193315682 12.04628460765 20.8390025624  32.79758149765 11.3714573506 20.64935091915  32.31648781595 11.18566817325 21.4882426734  33.0625063901 11.2418084992 21.6577563478  32.0313214782 9.2809457655 20.20218229335  32.62287499445 9.438286329949999 20.46625569325  32.2000566973 9.216911432749999 20.9554122108  35.98575782295 7.065133211999999 20.26183804625  32.0278087176 12.56692624345 20.1846674568  31.8860559591 11.83595866045 19.82550213915  31.4049622774 11.6501694831 20.6643938934  36.5812917452 9.830485673 19.8486652028  36.1472125485 8.9872772046 19.4251857314  35.75266599744999 9.33821891525 20.1436835423  36.67909017085 9.2442403507 20.19772575525  35.31858680075 8.495010446849999 19.7202040709  35.7131333518 8.144068736199999 19.00170626  35.9833712498 10.7706835476 20.1032907383  35.72240496325 9.948768306049999 19.8701944006  35.7623768527 9.82934606715 19.21245343615  35.42344471555 10.41886724335 19.99750716835  36.2823314975 10.3005846103 19.97597797055  35.463416605 10.29944500445 19.3397662039  34.90349007075 9.947628700199999 19.23398263395  30.19228406765 9.31303783505 18.9838159195  30.23674348285 9.531034942 19.81658612145  29.86966868505 8.906775272899999 19.65385305505  30.5133335298 8.9627827178 20.0097881425  30.6470883769 7.6372425059 17.7546501257  29.81784473335 7.294923658049999 17.91912745655  32.8973841609 10.56978729805 19.26087517065  33.00019927825 9.94322841855 19.6622886024  33.2997176851 10.5157193 19.90508962355  32.63547172255 10.8745473225 20.04235892225  33.56163012345 10.21095927555 19.12360587195  33.19690256775 11.1422781795 19.5036761918  31.04956700165 8.37870043285 19.31124431485  32.14020621045 11.35292626045 19.0178041633  31.08296455125 11.58794983065 19.7211195785  32.0081428008 12.2444054517 18.7330782476  32.488866316 11.9259999538 18.67971779295  32.40059319555 12.39258539325 19.3562195748  32.54234595405 13.12355297625 19.71538489245  34.5743246312 12.1948793728 18.9108837023  34.90579103535 11.63005671
[...]
<PointData  Vectors="u"> 
<DataArray  type="Float64"  Name="u"  NumberOfComponents="3" format="ascii">6.6879455249918209e+01 3.3244220792308369e+01 1.8051220464346514e+01  1.5538721697401007e+02 2.2240142113021236e+01 -1.5457999311366153e+01  1.0330086992178947e+02 7.1953849161917462e+00 7.3637464405799236e-01  9.2495850804264705e+01 2.3850640915100328e+01 -1.5802987359760534e+01  8.8175465295372447e+01 2.9543899488494286e+01 5.9705307889494605e+01  1.6406339993971551e+02 2.8127932186631295e+01 7.9087752729409821e+00  1.0046300267810521e+02 1.0339393655564349e+01 6.6538240120679632e+01  1.4985211300180282e+02 1.6432501582348838e+01 2.9979412047456485e+01  1.6828741139064570e+02 1.5249597494091505e+01 -1.0365664682107168e+01  1.0792207436257669e+02 1.1017390898908713e+01 -4.3719852204559089e+01  1.3717482137536825e+02 6.7951606605270939e+01 -2.7617806317862193e+01  1.6761587760507928e+02 3.0050255038701653e+01 -6.3276380344911924e+00  1.1416837428111371e+02 3.4761123300038541e+01 -4.2146577488161519e+01  1.4474255966138048e+02 5.7621566955045616e+01 6.2040221041573078e+00  1.8194937089683884e+02 3.2727980154606541e+01 6.5568675355075081e+00  1.6548783864396117e+02 3.4750488645628124e+01 -4.1534068476685682e+01  1.5972388670692186e+02 2.9973722850616173e+01 -4.3203362222612341e+01  1.4309929676979854e+02 2.5727410661494467e+01 -4.1073149579089836e+01  2.6354911669792409e+02 3.1967935144986686e+01 -5.0033749996970442e+00  1.8005990506960921e+02 2.2827599909578044e+01 7.2310485895649323e+00  2.7756369735479325e+02 4.2971462972483430e+01 1.7861791003865957e+01  1.8762428014343666e+02 3.1217902938783489e+01 9.4692846697696041e+01  1.7641171116739869e+02 3.0283701622436812e+01 1.0464836805944235e+02  2.9713669115616852e+02 3.5005247565161447e+01 3.8219314767117538e+00  1.8642028040833765e+02 1.9737210446202010e+01 9.6992290128908696e+00  1.6415397370159627e+02 1.0060652095935988e+02 7.3006756303554909e+01  8.3560256158987698e+01 8.2416963862187515e+01 -4.0853771791033129e+00  1.5062857203816492e+02 6.7275738561091913e+01 8.7753618719309472e+01  2.8289130717828044e+02 3.4775765217252719e+01 2.3025851739115964e+01  1.5928822940837392e+02 1.8708592065443980e+01 -2.4602056100899809e+01  1.1517856690921643e+02 6.2120806745677690e+00 -6.6824036309407404e+01  1.0998092971058985e+02 2.8115985305497389e+00 -3.7504660941546774e+01  1.1803761626798530e+02 1.3009876881120411e+01 -5.6662396999696547e+01  1.3600935208383839e+02 1.6896202496765351e+01 -2.5884130299241093e+01  1.0460525186356222e+02 -4.4281998394473945e+00 -4.6598087847211147e+01  1.3808280518303016e+02 1.4613535633654580e+01 -2.4213727573164103e+01  1.3587193489046996e+02 1.4973720774759451e+01 -7.9759509436509279e-01  8.9505571465435381e+01 -1.2202090439176930e+01 -2.9064631394384996e+01  1.1675895130854269e+02 1.5344922811337387e+01 -4.9323006587881032e+01  1.1995880753345935e+01 1.1867453224299425e+01 -2.2564874754765185e+01  3.9486017916949287e+01 8.6545170045283601e+00 -5.1818209891426811e+01  3.7580232555008315e+01 9.0277402885638356e+00 -3.5027473746603569e+01  3.5932271152851072e+01 7.8793096548262254e+00 -4.1983936915275869e+01  3.0612067457752428e+01 5.0817553319290214e+00 -4.8650573528697741e+01  4.5237962529924950e+01 1.1165236316445307e+01 -4.6348462732650951e+01  4.3548943659976203e+01 1.1937924620907996e+01 -4.5805602898264404e+01  4.4972187413406779e+01 2.0797784729984934e+00 -5.0734762663763178e+01  3.1772725844908784e+01 -4.1283138600032405e+00 -5.1558497734183568e+01  5.0850293311359614e+01 9.4906620073878436e+00 -4.6079519085022127e+01  9.5150017818708847e+01 -4.4168763237739078e+01 -1.2777376771233509e+02  9.8966978560770343e+01 -3.7551331807278146e+01 -8.7402394051209825e+01  9.8702997578729992e+01 -4.4178419660805384e+00 -8.4533943762325279e+01  8.7395750181600263e+01 -4.4113447157185874e+01 -7.4143428741456390e+01  1.1073329336799102e+02 -7.7242956349593697e+01 -1.1559491259318345e+02  1.0085948375401973e+02 -1.0108073406671521e+02 -1.0905148813086704e+02  8.6451986071701853e+01 -6.5620904721155384e+01 -7.3911318010968373e+01  8.1323689508348295e+01 -4.6160413122955354e+01 -5.4273005919223912e+01  8.5017304567190308e+01 -2.5293361457393644e+01 -5.7367753780366051e+01  1.0414442280644751e+02 7.9693119176113125e+00 -2.4248176432255732e+01  9.6354271246716692e+01 1.0751839558399810e+01 -4.1132233257381522e+01  1.1257276663793562e+02 1.2651799774325008e+01 -3.5624010476870374e+01  9.8918700997624271e+01 8.5415670389960363e-01 -1.8097156521638670e+01  9.1247459540988686e+01 -6.5160339533516103e+00 -1.2376593635180511e+01  9.1000076728138552e+01 2.6749487128241247e+00 -3.7353862568567962e+01  1.0451711799396746e+02 4.2330291358738332e+00 -3.1261120064511232e+01  1.0210526665859723e+02 1.2067111517230341e+01 -5.3487660416982855e+01  8.9735708727426669e+01 9.0940563050512573e+00 -5.7112554566874586e+01  1.5180472753422399e+02 1.4015173270778631e+01 -2.2147880062690678e+02  1.3495757511415911e+02 7.1319733111141161e+01 -1.5708993344440933e+02  1.3489500637209400e+02 1.8174868700819726e+01 -1.5143736759229509e+02  1.2770825041705403e+02 2.7073749988619276e+00 -1.1712409620753498e+02  1.3407172271035242e+02 3.5665481265271417e+01 -1.0100781805935749e+02  1.1952071758680195e+02 1.1247094892752058e+01 -9.1975553522436002e+01  1.2154043897614031e+02 2.0259804669509375e+01 -1.1606357296239491e+02  1.3205737026331636e+02 4.6995008318261313e+01 -1.2581360781466240e+02  1.4361390760596561e+02 7.7784807683786710e+01 -1.2875571585505296e+02  1.4310655191717188e+02 -2.6529756865475182e+01 7.2642696967966373e+01  1.6895545748765039e+02 -2.2687483628351024e+00 1.8886171252723894e+01  1.0894398725977034e+02 -1.1463039429407598e+01 1.2446513784851412e+01  1.8115197565742398e+02 -4.0834714278363805e+01 7.1622550134394658e+01  1.6801334842871924e+02 -4.1448982481473884e+01 5.3294203193140582e+01  1.7533647044727013e+02 -3.2363522157457147e+00 7.0084164738484143e+00  1.1305236491525929e+02 -1.0121369707367935e+01 1.0266560762615269e+01  1.3253153244119750e+02 1.7615017009392773e+00 -1.0302285261030567e+01  1.6817021093513276e+02 3.8659952083687195e+00 -1.0879950209042381e+01  1.5806413217316160e+02 -2.5991483011303469e+01 -1.7080863900946480e+02  1.2508832884794336e+02 -4.4733872124815278e+01 -1.3186423158639508e+02  1.0857603460294233e+02 -8.2641808577804483e+01 -1.1595869742025037e+02  1.1850802405825411e+02 -7.6173837689818427e+01 -1.5286384689316742e+02  1.2800671626648295e+02 -3.8279769345017343e+01 -1.3133597031538702e+02  1.2207617916755946e+02 -4.9128286617049205e-01 -1.2506535745309900e+02  6.8849609206527077e+01 8.8652298797750291e+00 -4.4225700506194862e+01  6.3718436844034358e+01 -6.3064126979699600e+00 -2.0785777220159897e+01  5.7628673525980290e+01 3.8233784849390551e+00 -3.3201311169803738e+01  6.6504109403037788e+01 -7.9288803692685395e-01 -3.3407949066264969e+01  7.8487078849807943e+01 6.8058522052236825e-01 -3.1438467931881227e+01  6.1236255402863407e+01 -1.1620613175501475e+01 -2.6788157241875986e+01  5.3115881720146824e+01 -6.2392803505035337e+00 -2.6539546428385812e+01  7.2059848464922212e+01 -1.0966376120956864e+01 -2.0066514554368446e+01  4.4551697324483008e+01 -1.4411983991485033e+00 -2.6026110268312973e+01  7.6931221209108202e+01 -4.7209225299990166e+01 6.5028610795061454e+01  7.2813915431942704e+01 -4.1525838204361804e+01 5.7026254248820571e+01  4.1971710320613923e+01 -3.3789706689056530e+01 2.9686487248853940e+01  8.3651981583170453e+01 -1.0614381442931210e+01 4.0126596786147122e+00  8.0398727203405812e+01 -1.5470035686979253e+01 -3.8768221655550931e+01  7.3032378810096716e+01 -2.5239974511367166e+01 -3.0987960177284226e+01  8.0415135869316629e+01 -2.9505719874716846e+01 -3.7196388393048878e+01  8.0069261439779694e+01 -1.7044647719535128e+01 -3.5262903168089281e+01  7.6272154045220631e+01 -2.1769087098590266e+01 -3.2916178008733070e+01  8.3859666814753837e+01 -2.7233485174572760e+01 -3.6278540570987722e+01  8.9637927074957474e+01 -3.6756742248637202e+01 -3.6781923913779160e+01  8.3828109287162178e+01 -3.0708827822465796e+01 -3.6538788482296582e+01  7.6265997848132940e+01 -2.6105415151726866e+01 -3.6429458691422340e+01  8.0585604842503045e+01 -1.7940988650814102e+01 -2.4328977983613868e+01  1.0402893560259528e+02 1.8538043834029317e+01 -4.6383790862970763e+01  1.0316487860945381e+02 2.7191020915859806e+01 -6.8014846484909810e+01  9.6095388578712246e+01 1.8618510957155745e+01 -6.2521094390084698e+01  1.1030890970314040e+02 2.1478072864918765e+01 -5.8543170727825405e+01  4.0479846943678297e+01 -1.5030175694458666e+01 -8.8101550195255118e+00  4.7276494312189278e+01 -2.1097583914769196e+01 -4.4322444511009609e+00  7.2312291076232853e+01 -1.9136328625818695e+01 1.0227695154019381e+01  1.0054134880314358e+02 -5.1306052412640091e-01 -3.3881381742136654e+01  1.2117160609182294e+02 3.3221820357973919e+00 -4.9949288042823142e-02  8.4502549810896568e+01 -1.0888591375900765e+01 -1.6681134153690611e+01  1.3522150721729429e+02 4.7690045624557538e+00 -6.3850267689910218e+00  6.9846485645581254e+01 1.7217939688167871e+01 -5.1898422079793292e+01  5.9819337217991304e+01 1.3355905115407154e+01 -4.2175415355811595e+01  6.1373572847196037e+01 1.8353359552279031e+01 -5.7016856332979295e+01  7.0336457247462903e+01 2.4820996367110137e+01 -6.0879274758327121e+01  6.5762476165426435e+01 -1.5144389688568120e+01 -9.1652574229368355e+01  6.9548451142619243e+01 1.1578432637410721e+01 -9.2263673684958391e+01  8.1565363347791290e+01 7.7143130642205531e+00 -9.5421220410366843e+01  6.4063936605414781e+01 -2.3883292708122772e+00 -7.5782983594691856e+01  7.8522791546316427e+01 9.4968235337882643e+00 -1.0262282708157993e+02  7.8045447777327510e+01 -6.9849245784568650e+00 -7.9828302829979023e+01  8.2282286270190468e+01 2.3432153732905334e+01 -1.1706886550272601e+02  8.5872005300477710e+01 -8.5044057821875563e-01 -7.5593480502331090e+01  7.4490632057621127e+01 2.6384212756851282e+00 -6.9700639041110833e+01  6.2524332619862058e+01 5.7351756596091583e+00 -6.6372921175772390e+01  3.8185302140588064e+01 1.4652348704456069e+01 -5.7318852270390046e+01  4.5458444844326792e+01 1.6048976233531317e+01 -5.1239302200194878e+01  5.1182710421777578e+01 4.8985566288291356e+00 -3.6949987447050830e+01  8.5114246944338234e+01 1.6662962855689248e+01 -5.5241293481403758e+01  7.3333527664422206e+01 1.6150735425408705e+01 -6.3989697318879976e+01  7.6511477926548878e+01 2.4458271226875631e+01 -8.6732691182147065e+01  7.2657859876257831e+01 2.4464452998570845e+01 -7.3147088857842704e+01  8.8738711681599582e+01 2.5562564032028469e+01 -7.8365458060095776e+01  8.6524572888485821e+01 2.4598394272434014e+01 -6.4675756091145047e+01  1.0559665823241794e+02 6.9864168552136192e+00 -5.9888325865130525e+01  1.0067495838969138e+02 -6.1840858006630910e+00 -4.0285072592429117e+01  8.9364647432387358e+01 -3.8989013472605958e+00 -4.0059504317787479e+01  4.6471560884059024e+01 -4.0515521649442498e+01 -1.8644224283862432e+01  5.9439793763362381e+01 -1.8453647796681224e+01 -2.0106792100139053e+01  3.5279592684816841e+01 -3.1616958971820718e+01 -3.3367305639386693e+01  2.7685173414749318e+01 -3.5738102429300916e+01 2.7780452331211030e+00  1.6366653844189383e+01 -2.1742302694017578e+01 2.4260839282592968e+01  4.7999761785088218e+01 -1.0626472084136763e+01 -2.6562998117322355e+01  4.8321883589199274e+01 -1.0921255295364789e+01 -3.6606568693585224e+00  2.0223113884915257e+01 -2.2125765937119304e+01 -1.5436305733587654e+01  2.6567321856938381e+01 -1.8319307411825196e+01 -4.3134095958601058e+01  6.3416467350208883e+01 -6.5855285523534386e+00 -2.2253385911509298e+01  8.2180268169297293e+01 -3.1498083966661852e+01 -4.0427148159033173e+01  8.6644421536113271e+01 -3.3952975045202372e+01 -4.3959363821542659e+01  9.4272660872496289e+01 -2.6634764769080277e+01 -6.6165321690813556e+01  8.8844421065169399e+01 -1.7848426848600820e+01 -4.5399332661634759e+01  9.1708706533317283e+01 -2.2366174421038330e+01 -5.1764124759762069e+01  8.5156650052872124e+01 -1.7083124805780287e+01 -2.6697978201058103e+01  5.3550326942693502e+01 7.3563950469646970e+00 -3.7036508016291982e+01  5.1915995110193194e+01 1.4782087729458079e+01 -4.5408562578244876e+01  5.9706450934555455e+01 9.3606026950364978e+00 -4.6405128725154427e+01  5.0821064346380851e+01 1.8174437167093000e+01 -4.0655379291880095e+01  4.8748061304901263e+01 8.7677548039326769e+00 -3.2628015390241337e+01  8.6322636153532528e+01 -9.0323018427772865e+01 -5.8722637735290462e+01  8.5525168117574083e+01 -5.3088736138813424e+01 -3.3080571893868282e+01  9.0145472846741569e+01 -5.4878142999944828e+01 -6.6081003520770466e+01  8.8157557802128906e+01 -5.0645078342803217e+01 -4.0905576159088881e+01  8.5104025912178244e+01 -3.3434550002626771e+01 -4.1097302551376671e+01  9.1997513599535708e+01 -3.2435321755158775e+01 -2.4825512112783695e+01  8.8989377009429276e+01 -2.9614908313290911e+01 -1.1736208629842139e+01  7.1469501438915074e+01 -1.6002308736212129e+01 -2.4544392289157656e+01  7.1318351423721410e+01 -1.1701369970939796e+01 -3.2783410292179340e+01  6.6902763788099747e+01 -1.8535488163559020e+01 -3.0207580340584734e+01  5.6767901840337345e+01 1.8117185086443882e+01 -4.2083943739983447e+01  8.4847342790181727e+01 -6.3812010983245294e+01 -5.7067013820105949e+01  8.9706137693272765e+01 -3.8639916162750573e+01 -5.8702769155519569e+01  8.5652769981156510e+01 -4.0998853476654610e+01 -4.5798088893191725e+01  3.1697065034180902e+01 2.3113112933274074e+01 -8.8611932131088466e+01  3.8103111638651050e+01 2.2115728617861578e+01 -7.4291187243139873e+01  4.1029960772024367e+01 1.0745422379160482e+01 -6.3091954366103188e+01  2.5039972506854102e+01 7.2272682792396035e+00 -6.8442960833675073e+01  5.0227656274215384e+01 1.7014982068814280e+01 -5.8275409923006684e+01  4.7812601726042423e+01 2.6460494643697430e+01 -6.7483224974995139e+01  4.9964339313816268e+01 8.7043281782821929e+00 -9.6296199943046318e+01  4.8860117750262340e+01 1.1678830416540272e+01 -7.7615794183511909e+01  5.6494208591067519e+01 2.3819923054215668e+01 -8.6759835904829245e+01  5.4971731601241252e+01 5.5650115426532789e+00 -7.9120531450062316e+01  4.4747776375934443e+01 1.8740217599145378e+01 -9.6276717213228309e+01  6.5122960253757725e+01 1.8022777060973581e+01 -8.7944228788230760e+01  6.9080967515228338e+01 1.5235181341403921e+01 -7.7234758506388587e+01  1.4669212512146203e+02 6.3156099667516195e+00 2.9380069779272009e+01  8.9110939961970772e+01 -1.8332867149614196e+00 6.5782828830824698e+01  1.5335587835013672e+02 -4.6290386032764491e-01 8.8304447117229032e+01  8.2836570385253481e+01 -1.9690208613274407e+01 5.8623137031606390e+01  1.4801309266464312e+02 -2.6736360610428672e-01 -9.0086266943857982e+00  1.9087324981257473e+02 -5.5824784598290575e+00 -1.0925227431829422e+01  9.3505684068773789e+01 -3.1766633506338495e+00 -5.9989198972499580e+01  8.3059431453784953e+01 -3.8316194906251910e+00 -4.7703554877972984e+01  8.2873567407201548e+01 -9.4985538985386437e+00 -5.4564835590223083e+01  8.7125165320550067e+01 -2.0510553661562209e+01 -4.9888586456972533e+01  8.7337264633279347e+01 5.6689080639100018e+00 -6.5895379099170640e+01  9.2248171913010736e+01 -1.3705222040954157e+01 -7.0111510007328292e+01  9.8629992481620505e+01 -1.7902528496598066e+01 2.2399240935974838e+01  1.0260517487761815e+02 -1.0529789486080071e+01 -6.8721117429710660e+01  8.4835784827940188e+01 -3.0659615241547698e+01 -4.8728958894885913e+01  1.0833040477501756e+02 -3.2450294056743907e+01 -9.2352843973854078e+01  1.1054808548111001e+02 -1.5801741631262523e+01 -9.8152663601438121e+01  9.9382968129523334e+01 -4.8970948940320262e+01 -8.6442929237650361e+01  1.0113414294645148e+02 -9.9452992733845008e+01 -8.7780711432977157e+01  1.0125164834685303e+02 6.6442064505679399e+00 -1.2381698510783814e+02  9.1408630295577169e+01 3.1535080892649493e+01 -1.1855022159703569e+02  1.0110503114389584e+02 2.1397020066093919e+01 -1.1327226313265004e+02  9.8752947372411882e+01 2.9963026920545619e+01 -1.2422459793076682e+02  9.4146793809758179e+01 2.7898931557732549e+01 -1.1439443351366573e+02  8.4949077924918953e+01 3.4916537329865257e+01 -1.3795712404973276e+02  9.9034414614130768e+01 3.6040069056276074e+01 -1.2654735357117745e+02  8.1747992651719557e+01 2.5252863303981435e+01 -1.2350544846399646e+02  8.2565793298144357e+01 2.5206253190602283e+01 -1.1503936737834339e+02  1.0453936033778204e+02 3.3603534808445929e+01 -1.0780766086620291e+02  8.9453334439396841e+01 2.4591014540670578e+01 -1.0906726478930946e+02  9.2342244628862488e+01 1.8812471682947720e+01 -1.1852941064407898e+02  8.7572694897879799e+01 2.8614939526586340e+01 -1.1198620510817376e+02  1.0273774021423741e+02 -3.5301093554760122e+01 -9.0654002014977593e+01  4.2511482430380518e+01 1.4005379888643266e+00 -5.9498571103105512e+01  2.8185828128314963e+01 -5.0474125919269515e+00 -7.3460661067314632e+01  2.2081365158473403e+01 -9.3485830681731290e+00 -5.0231967528005292e+01  3.5202129438592550e+01 -8.2384310413369821e+00 -7.3242004934059423e+01  4.7279421079850515e+01 -5.6434050960045195e+00 -5.8192924250672029e+01  2.3059945042438066e+01 -4.3019949718293224e+00 -5.0281924047402953e+01  5.3755987936006235e+01 5.7377437347970544e+00 -3.3772068382932659e+01  4.5935057059179584e+01 1.0412271902916533e+01 -2.8811265088794560e+01  4.4511880156041869e+01 3.0526277574433709e+00 -3.3022368061772440e+01  5.2539424211866752e+01 -2.5542416982960825e+00 -3.2268134289934245e+01  9.9173111966669623e+01 -9.2230522348248876e+00 9.3084547149496100e+00  8.8196999043003046e+01 -1.6832172262767241e+01 1.3587695528402396e+01  8.7507378548601423e+01 -5.0448803544688957e+01 -7.9847659684916223e+01  1.0163369138621744e+02 -9.8023097147440499e+00 -9.4711070215900591e+01  8.8234694784869774e+01 -1.8042342493740470e+01 -7.8055699364405996e+01  9.6251566847774271e+01 -1.2193209101381726e+01 -1.0287463892847694e+02  1.1422748959320822e+02 -5.1216667021198653e+01 -1.0638502487768783e+02  1.0950289478850115e+02 -2.4890395377229027e+00 -1.2635509104049116e+02  9.1934083777681266e+01 -3.2836308029943556e-02 -9.7114392106598757e+01  7.1875079357157389e+01 -2.4146740991483163e+01 -4.1943564368608044e+01  8.3486850551378666e+01 -2.5200331885931014e+01 -5.1746891561054930e+01  7.1608949476708148e+01 -8.5776061353575130e+00 -4.9115511164833357e+01  7.3765688568105787e+01 -1.1173155365383971e+01 -3.2650357206290607e+01  8.5663275720158595e+01 1.7004641430117818e+01 -4.4384433633943587e+01  8.3188606474663956e+01 8.2492850379976019e+00 -3.5281803338475655e+01  8.9308143219695566e+01 -5.5667178291636423e+00 -1.0531494099983910e+02  7.7919519938929014e+01 -2.7024747508531174e+01 -8.6218484399908704e+01  9.7706756857502768e+01 -6.8918545039276680e+01 -8.9931679530703420e+01  8.4804333660433798e+01 -6.7999601748940677e+01 -6.6735578008430423e+01  9.1670479072245541e+01 -3.8345779984252694e+01 -7.0469967492550438e+01  6.6964334987760139e+01 8.9071176240287286e+00 -5.4783722802030944e+01  6.5444565859857036e+01 1.8647089067978966e+00 -4.1302990830338182e+01  5.5626965766705240e+01 6.8855205484258573e+00 -5.4669620874095905e+01  5.5449967035789847e+01 1.9886074962451465e+00 -3.4954059513590906e+01  6.0420643073028614e+01 -3.1993057571219272e+00 -4.4487352931188568e+01  1.0585259726772672e+02 1.2735480547742856e+01 -7.9434504065387102e+01  9.9164292434440625e+01 1.9887949177625405e+01 -8.1553047940812377e+01  1.1190098612302320e+02 2.5098539350798625e+01 -7.9303112573773916e+01  1.1206912142537914e+02 2.9774071368734475e+01 -1.1019678527696018e+02  1.1862483356026328e+02 2.0444918738027415e+01 -7.6886027794864290e+01  1.3889611562706318e+02 2.6763743886064734e+01 -8.7754892912832929e+01  1.1543789692138793e+02 5.0294893694578213e-01 -9.0108443873027781e+01  1.3752329626965377e+02 -4.5414001738024886e+01 -1.6256838269862075e+02  1.6059104420576989e+02 6.3632650487965954e+01 -1.8830427089477638e+02  9.7210119868373553e+01 8.0986462117652529e+00 -1.1832433445061903e+02  1.8189133943003810e+02 8.4007427425844838e+01 -1.1573831452690200e+02  1.3430244635150561e+02 8.5287868627492198e+00 -1.8817199985891623e+0