<?xml version="1.0"?>
<VTKFile type="UnstructuredGrid"  version="0.1"  >
<UnstructuredGrid>
<Piece  NumberOfPoints="3890" NumberOfCells="19071">
<Points>
<DataArray  type="Float64"  NumberOfComponents="3"  format="ascii">25 17.5 25  25 17.5 26.25  25 16.25 26.25  23.75 16.25 26.25  25 17.5 27.5  23.75 17.5 26.25  25 18.75 26.25  25 18.75 25  23.75 18.75 26.25  23.75 18.75 25  25 20 25  25 20 26.25  25 20 27.5  25 18.75 27.5  22.5 15 7.5  22.5 16.25 8.75  22.5 16.25 7.5  21.25 16.25 8.75  22.5 17.5 7.5  22.5 17.5 8.75  22.5 17.5 10  22.5 15 8.75  22.5 15 10  22.5 16.25 10  21.25 16.25 10  22.5 18.75 8.75  22.5 18.75 7.5  21.25 18.75 8.75  22.5 20 7.5  22.5 20 8.75  22.5 20 10  22.5 18.75 10  21.25 18.75 10  22.5 16.25 11.25  21.25 16.25 11.25  22.5 17.5 11.25  22.5 17.5 12.5  21.25 17.5 11.25  22.5 18.75 11.25  21.25 18.75 11.25  22.5 20 11.25  22.5 20 12.5  22.5 18.75 12.5  21.25 18.75 12.5  22.5 21.25 11.25  22.5 21.25 10  21.25 21.25 11.25  22.5 22.5 10  22.5 22.5 11.25  22.5 22.5 12.5  22.5 21.25 12.5  23.75 17.5 13.75  22.5 17.5 13.75  23.75 16.25 13.75  22.5 17.5 15  23.75 17.5 15  25 17.5 15  22.5 18.75 13.75  21.25 18.75 13.75  22.5 20 13.75  22.5 20 15  22.5 18.75 15  21.25 18.75 15  23.75 18.75 13.75  23.75 18.75 15  25 18.75 15  25 20 15  23.75 20 15  23.75 20 13.75  22.5 21.25 13.75  21.25 21.25 13.75  22.5 22.5 13.75  22.5 22.5 15  22.5 21.25 15  23.75 21.25 13.75  23.75 21.25 15  25 21.25 15  25 22.5 15  23.75 22.5 15  23.75 22.5 13.75  23.75 23.75 13.75  23.75 23.75 15  25 23.75 15  25 25 15  22.5 18.75 16.25  21.25 18.75 16.25  22.5 20 16.25  22.5 20 17.5  22.5 17.5 16.25  22.5 17.5 17.5  22.5 18.75 17.5  23.75 18.75 16.25  25 18.75 16.25  25 20 16.25  25 20 17.5  23.75 17.5 16.25  25 17.5 16.25  25 17.5 17.5  25 18.75 17.5  23.75 18.75 17.5  23.75 17.5 17.5  23.75 20 16.25  23.75 20 17.5  23.75 21.25 16.25  25 21.25 16.25  25 22.5 16.25  25 22.5 17.5  25 21.25 17.5  23.75 21.25 17.5  23.75 22.5 16.25  22.5 22.5 17.5  23.75 22.5 17.5  22.5 22.5 16.25  23.75 23.75 16.25  25 23.75 16.25  25 25 16.25  25 25 17.5  25 23.75 17.5  23.75 23.75 17.5  23.75 18.75 18.75  25 18.75 18.75  25 20 18.75  25 20 20  25 17.5 18.75  25 17.5 20  25 18.75 20  23.75 18.75 20  23.75 20 18.75  23.75 21.25 18.75  25 21.25 18.75  25 22.5 18.75  25 22.5 20  25 21.25 20  23.75 22.5 18.75  23.75 23.75 18.75  25 23.75 18.75  25 25 18.75  25 25 20  25 23.75 20  25 18.75 21.25  23.75 18.75 21.25  25 20 21.25  25 20 22.5  25 17.5 21.25  25 17.5 22.5  25 18.75 22.5  22.5 17.5 22.5  23.75 18.75 22.5  23.75 17.5 22.5  23.75 17.5 23.75  23.75 16.25 23.75  25 17.5 23.75  23.75 18.75 23.75  25 18.75 23.75  25 20 23.75  22.5 23.75 15  22.5 25 15  23.75 25 15  22.5 25 12.5  23.75 25 13.75  22.5 25 13.75  23.75 26.25 13.75  23.75 26.25 15  25 26.25 15  25 27.5 15  23.75 25 16.25  23.75 26.25 16.25  25 26.25 16.25  25 27.5 16.25  25 27.5 17.5  25 26.25 17.5  23.75 27.5 16.25  25 28.75 16.25  25 28.75 15  23.75 28.75 16.25  25 30 15  25 28.75 17.5  26.25 21.25 21.25  25 21.25 21.25  26.25 21.25 22.5  25 21.25 22.5  25 22.5 22.5  26.25 22.5 22.5  27.5 22.5 22.5  26.25 21.25 23.75  26.25 22.5 23.75  27.5 22.5 23.75  27.5 22.5 25  25 21.25 23.75  26.25 21.25 25  25 21.25 25  25 22.5 25  26.25 22.5 25  25 22.5 23.75  26.25 23.75 23.75  27.5 23.75 23.75  27.5 23.75 25  27.5 25 25  26.25 23.75 25  25 25 25  26.25 25 25  28.75 23.75 23.75  28.75 22.5 23.75  28.75 23.75 25  28.75 22.5 25  30 22.5 25  30 23.75 25  30 25 25  28.75 25 25  26.25 21.25 26.25  26.25 22.5 26.25  27.5 22.5 26.25  27.5 22.5 27.5  25 21.25 26.25  26.25 21.25 27.5  25 21.25 27.5  25 22.5 27.5  26.25 22.5 27.5  25 22.5 26.25  26.25 23.75 26.25  27.5 23.75 26.25  27.5 25 26.25  27.5 25 27.5  27.5 23.75 27.5  26.25 23.75 27.5  26.25 25 26.25  25 25 27.5  26.25 25 27.5  28.75 23.75 26.25  30 23.75 26.25  30 25 26.25  30 25 27.5  28.75 22.5 26.25  30 22.5 26.25  30 22.5 27.5  30 23.75 27.5  28.75 23.75 27.5  28.75 22.5 27.5  28.75 25 26.25  28.75 25 27.5  31.25 23.75 26.25  31.25 23.75 25  31.25 22.5 25  32.5 22.5 25  32.5 23.75 26.25  32.5 23.75 25  32.5 25 25  31.25 22.5 26.25  32.5 22.5 26.25  32.5 22.5 27.5  32.5 23.75 27.5  31.25 23.75 27.5  31.25 22.5 27.5  31.25 25 25  33.75 23.75 26.25  33.75 22.5 26.25  33.75 23.75 27.5  33.75 22.5 27.5  35 22.5 27.5  26.25 26.25 26.25  26.25 26.25 25  26.25 21.25 28.75  26.25 20 27.5  27.5 20 27.5  27.5 21.25 28.75  27.5 21.25 27.5  27.5 22.5 28.75  26.25 22.5 28.75  28.75 21.25 28.75  28.75 22.5 28.75  26.25 23.75 28.75  27.5 23.75 28.75  28.75 23.75 28.75  30 23.75 28.75  31.25 23.75 28.75  33.75 23.75 28.75  30 15 15  31.25 15 15  31.25 13.75 15  31.25 13.75 13.75  32.5 15 15  31.25 15 16.25  31.25 13.75 16.25  32.5 15 16.25  32.5 15 17.5  30 15 16.25  30 15 17.5  31.25 15 17.5  35 15 15  36.25 15 16.25  35 15 16.25  36.25 13.75 16.25  35 15 17.5  36.25 15 17.5  37.5 15 17.5  30 16.25 16.25  28.75 16.25 16.25  30 16.25 17.5  30 17.5 17.5  28.75 16.25 17.5  27.5 17.5 17.5  28.75 17.5 17.5  31.25 16.25 16.25  32.5 16.25 16.25  32.5 16.25 17.5  32.5 17.5 17.5  31.25 16.25 17.5  31.25 17.5 17.5  35 16.25 16.25  33.75 16.25 16.25  35 16.25 17.5  35 17.5 17.5  33.75 16.25 17.5  33.75 15 17.5  33.75 17.5 17.5  36.25 16.25 16.25  36.25 16.25 17.5  37.5 16.25 17.5  37.5 17.5 17.5  36.25 17.5 17.5  26.25 17.5 18.75  26.25 17.5 17.5  26.25 16.25 18.75  27.5 17.5 18.75  27.5 17.5 20  26.25 17.5 20  26.25 16.25 20  30 16.25 18.75  28.75 16.25 18.75  30 17.5 18.75  30 17.5 20  30 16.25 20  28.75 16.25 20  28.75 17.5 18.75  28.75 17.5 20  31.25 16.25 18.75  32.5 16.25 18.75  32.5 17.5 18.75  32.5 17.5 20  32.5 16.25 20  31.25 16.25 20  31.25 17.5 18.75  31.25 17.5 20  33.75 16.25 18.75  35 16.25 18.75  35 17.5 18.75  35 17.5 20  35 16.25 20  33.75 16.25 20  33.75 17.5 18.75  33.75 17.5 20  36.25 16.25 18.75  37.5 16.25 18.75  37.5 17.5 18.75  37.5 17.5 20  37.5 15 18.75  37.5 15 20  37.5 16.25 20  36.25 16.25 20  36.25 17.5 18.75  36.25 17.5 20  26.25 18.75 18.75  27.5 18.75 18.75  27.5 18.75 20  27.5 20 20  26.25 18.75 20  26.25 20 20  28.75 18.75 18.75  30 18.75 18.75  30 18.75 20  30 20 20  28.75 18.75 20  28.75 20 20  31.25 18.75 18.75  32.5 18.75 18.75  32.5 18.75 20  32.5 20 20  31.25 18.75 20  31.25 20 20  33.75 18.75 18.75  35 18.75 18.75  35 18.75 20  35 20 20  33.75 18.75 20  33.75 20 20  36.25 18.75 18.75  37.5 18.75 18.75  37.5 18.75 20  37.5 20 20  36.25 18.75 20  36.25 20 20  27.5 17.5 21.25  27.5 16.25 21.25  26.25 16.25 21.25  27.5 17.5 22.5  27.5 15 22.5  27.5 16.25 22.5  26.25 16.25 22.5  26.25 17.5 21.25  26.25 17.5 22.5  30 17.5 21.25  30 16.25 21.25  28.75 16.25 21.25  30 17.5 22.5  30 16.25 22.5  28.75 16.25 22.5  28.75 17.5 21.25  28.75 17.5 22.5  32.5 17.5 21.25  32.5 16.25 21.25  31.25 16.25 21.25  32.5 17.5 22.5  32.5 16.25 22.5  31.25 16.25 22.5  31.25 17.5 21.25  31.25 17.5 22.5  35 17.5 21.25  35 16.25 21.25  33.75 16.25 21.25  35 17.5 22.5  35 16.25 22.5  33.75 16.25 22.5  33.75 17.5 21.25  33.75 17.5 22.5  37.5 16.25 21.25  36.25 16.25 21.25  37.5 17.5 21.25  37.5 17.5 22.5  37.5 15 21.25  37.5 15 22.5  37.5 16.25 22.5  36.25 16.25 22.5  36.25 17.5 21.25  36.25 17.5 22.5  26.25 18.75 21.25  27.5 18.75 21.25  27.5 20 21.25  27.5 20 22.5  27.5 18.75 22.5  26.25 18.75 22.5  26.25 20 21.25  26.25 20 22.5  28.75 18.75 21.25  30 18.75 21.25  30 20 21.25  30 20 22.5  30 18.75 22.5  28.75 18.75 22.5  28.75 20 21.25  28.75 20 22.5  31.25 18.75 21.25  32.5 18.75 21.25  32.5 20 21.25  32.5 20 22.5  32.5 18.75 22.5  31.25 18.75 22.5  31.25 20 21.25  31.25 20 22.5  33.75 18.75 21.25  35 18.75 21.25  35 20 21.25  35 20 22.5  35 18.75 22.5  33.75 18.75 22.5  33.75 20 21.25  33.75 20 22.5  36.25 18.75 21.25  37.5 18.75 21.25  37.5 20 21.25  37.5 20 22.5  37.5 18.75 22.5  36.25 18.75 22.5  36.25 20 21.25  36.25 20 22.5  27.5 21.25 21.25  27.5 21.25 22.5  28.75 21.25 21.25  30 21.25 21.25  30 21.25 22.5  30 22.5 22.5  28.75 21.25 22.5  28.75 22.5 22.5  31.25 21.25 21.25  32.5 21.25 21.25  32.5 21.25 22.5  32.5 22.5 22.5  31.25 21.25 22.5  31.25 22.5 22.5  33.75 21.25 21.25  35 21.25 21.25  35 21.25 22.5  35 22.5 22.5  33.75 21.25 22.5  33.75 22.5 22.5  36.25 21.25 21.25  37.5 21.25 21.25  37.5 21.25 22.5  37.5 22.5 22.5  36.25 21.25 22.5  36.25 22.5 22.5  27.5 16.25 23.75  26.25 16.25 23.75  27.5 17.5 23.75  27.5 17.5 25  27.5 15 25  27.5 16.25 25  26.25 16.25 25  26.25 17.5 23.75  26.25 17.5 25  30 17.5 23.75  30 16.25 23.75  28.75 16.25 23.75  30 17.5 25  30 16.25 25  28.75 16.25 25  28.75 17.5 23.75  28.75 17.5 25  32.5 17.5 23.75  32.5 16.25 23.75  31.25 16.25 23.75  32.5 17.5 25  32.5 15 25  32.5 16.25 25  31.25 17.5 23.75  31.25 17.5 25  35 17.5 23.75  35 16.25 23.75  33.75 16.25 23.75  35 17.5 25  35 16.25 25  33.75 17.5 23.75  33.75 17.5 25  37.5 16.25 23.75  36.25 16.25 23.75  37.5 17.5 23.75  37.5 17.5 25  37.5 15 23.75  37.5 15 25  37.5 16.25 25  36.25 16.25 25  36.25 17.5 23.75  36.25 17.5 25  26.25 18.75 23.75  27.5 18.75 23.75  27.5 20 23.75  27.5 20 25  27.5 18.75 25  26.25 18.75 25  26.25 20 23.75  26.25 20 25  28.75 18.75 23.75  30 18.75 23.75  30 20 23.75  30 20 25  30 18.75 25  28.75 18.75 25  28.75 20 23.75  28.75 20 25  31.25 18.75 23.75  32.5 18.75 23.75  32.5 20 23.75  32.5 20 25  32.5 18.75 25  31.25 18.75 25  31.25 20 23.75  31.25 20 25  33.75 18.75 23.75  35 18.75 23.75  35 20 23.75  35 20 25  35 18.75 25  33.75 18.75 25  33.75 20 23.75  33.75 20 25  36.25 18.75 23.75  37.5 18.75 23.75  37.5 20 23.75  37.5 20 25  37.5 18.75 25  36.25 18.75 25  36.25 20 23.75  36.25 20 25  27.5 21.25 23.75  27.5 21.25 25  28.75 21.25 23.75  30 21.25 23.75  30 22.5 23.75  30 21.25 25  28.75 21.25 25  31.25 21.25 23.75  32.5 21.25 23.75  32.5 22.5 23.75  32.5 21.25 25  31.25 21.25 25  31.25 22.5 23.75  33.75 21.25 23.75  35 21.25 23.75  35 22.5 23.75  35 22.5 25  35 21.25 25  33.75 21.25 25  33.75 22.5 23.75  33.75 22.5 25  36.25 21.25 23.75  37.5 21.25 23.75  37.5 22.5 23.75  37.5 22.5 25  37.5 21.25 25  36.25 21.25 25  36.25 22.5 23.75  36.25 22.5 25  30 23.75 23.75  31.25 23.75 23.75  32.5 23.75 23.75  33.75 23.75 23.75  35 
[...]
<PointData  Scalars="c_HbCO2"> 
<DataArray  type="Float64"  Name="c_HbCO2"  format="ascii">1.3542423709137862e-31  8.0130062263964685e-32  7.8085272724235255e-33  -4.1883469910527749e-31  1.3552307620998744e-31  -2.4789246289924474e-31  7.7962942920850341e-33  8.0142590965190145e-32  -4.1884965051058317e-31  -2.4793429441608441e-31  1.3545819907894299e-31  8.0193894184890281e-32  1.3550417852631923e-31  8.0212593653327278e-32  1.2946203324672833e-30  7.4753033551427120e-32  7.6619667639087966e-31  -4.0018270799994789e-30  1.2946250100302628e-30  7.6620053434153401e-31  1.2946180236362196e-30  7.6619838488334830e-31  1.2946205948326899e-30  7.6619546512692022e-31  -2.3684059209960936e-30  7.4754861741367521e-32  7.6621264785027569e-31  -4.0018231435499014e-30  1.2946286354792780e-30  7.6618979945736461e-31  1.2946091921817810e-30  7.6619163676474223e-31  -2.3684050731590943e-30  7.4750388922079314e-32  -4.0018277150342179e-30  7.6619710272099696e-31  1.2946212929730877e-30  -2.3684071976440926e-30  7.4750687299034531e-32  -4.0018272974080230e-30  7.6618806719891614e-31  1.2946225357245308e-30  7.6619943747287914e-31  -2.3684040800360248e-30  7.4762541989197534e-32  7.6617729294087742e-31  -4.0018323112171667e-30  1.2946376123498205e-30  7.6623141434686332e-31  1.2946365437035431e-30  7.6621172719008337e-31  -2.4786864943444575e-31  7.6620205344850303e-31  -4.1881854577891886e-31  1.2946226347705732e-30  -2.4180730139472167e-32  1.3548918274190911e-31  7.4755091637503031e-32  -4.0018254552808825e-30  7.6619893115248145e-31  1.2946218869586413e-30  7.6620152061173614e-31  -2.3684059825834582e-30  -4.1881913692192451e-31  -2.4786931333058443e-31  8.0186974498495509e-32  1.3549155106080888e-31  -2.4180593738312507e-32  -2.4787133981973548e-31  7.4756148440509684e-32  -4.0018250665297464e-30  7.6618929970452579e-31  1.2946112007200569e-30  7.6620747351598967e-31  -4.1881865387169423e-31  -2.4787163823229071e-31  8.0188429210270400e-32  1.3548983573638620e-31  -2.4182962691441550e-32  -2.4786881010499946e-31  -4.1882848266613068e-31  -2.4789985885865315e-31  8.0189338657235435e-32  1.3548965586978691e-31  7.4747948015629718e-32  -4.0018278851487616e-30  7.6618845175163940e-31  1.2946154272070185e-30  7.6619988555415754e-31  1.2946427905205175e-30  7.6619670750745142e-31  -4.1882199887419916e-31  7.8214636573201518e-33  8.0188762103312409e-32  1.3549643314274135e-31  -2.4787139360640287e-31  8.0184711564443231e-32  1.3548578211626739e-31  8.0187294027763637e-32  -2.4787273125684391e-31  -2.4182301121864726e-32  -2.4788356413280910e-31  -2.4184822465812669e-32  -4.1881152782388182e-31  7.8176269242453612e-33  8.0181939469913022e-32  1.3549813647275951e-31  8.0196137224895531e-32  -2.4782986211974782e-31  -2.4789178255553410e-31  1.2947586414485937e-30  -2.4206780376769287e-32  7.6624315067623390e-31  -4.1885006276181635e-31  7.8008622509482361e-33  8.0152902532517275e-32  1.3544576751993506e-31  8.0159894403928877e-32  -2.4784966659107660e-31  -4.1883330150598265e-31  7.8225074835148320e-33  8.0194301922855307e-32  1.3547985576563856e-31  8.0192240741759285e-32  1.3548554576443908e-31  8.0174540852577485e-32  -2.4789835793120507e-31  -2.4783815935652570e-31  -4.1875559098097650e-31  7.8485262941719440e-33  8.0202533471859770e-32  1.3547581354211132e-31  8.0188123797132478e-32  -2.4785095693963021e-31  -4.1883694434608248e-31  7.7965399466397315e-33  8.0120158225469120e-32  1.3542660682026306e-31  8.0126021530374517e-32  7.8131423544506960e-33  -4.1882882245505781e-31  8.0183200652370259e-32  1.3547955569090848e-31  8.0186626642302854e-32  1.3549191029535073e-31  8.0185916857476805e-32  1.2946543109636244e-30  -2.4787200532332885e-31  -2.4180691421732322e-32  -2.4791839729611295e-31  -4.1877540792593246e-31  8.0180200265788003e-32  -4.1883508172231519e-31  7.8072466610845290e-33  8.0171567086361821e-32  7.6613058821761238e-31  1.2945548671004242e-30  -2.4171460913551106e-32  1.2946291803805965e-30  -2.4787394237978789e-31  7.6616245955152553e-31  -4.1882670905055177e-31  -2.4790663732003423e-31  8.0183266341033882e-32  1.3548596194195195e-31  -2.4794564667103943e-31  -4.1887597164319674e-31  7.7921650283519305e-33  8.0182205970066456e-32  1.3549532790288494e-31  8.0195375500262841e-32  -2.4785788529669818e-31  7.8190147702535137e-33  8.0197836617782978e-32  -4.1881036794895816e-31  1.3549249181789506e-31  8.0182655804188003e-32  -4.3835868778151834e-32  7.8138580322312246e-33  -2.5940763981209235e-32  8.0190824559593340e-32  1.3549279150239289e-31  -2.5289808263296915e-33  1.4180896853073653e-32  -4.3838805979183047e-32  -2.5941566558877501e-32  8.3926451842947181e-33  1.4181015724555289e-32  7.8160856756362405e-33  -2.5946478363893245e-32  8.0166414627454086e-32  1.3548569854937362e-31  -2.5306984013529401e-33  8.0189444940671441e-32  -4.3829421333133358e-32  8.1740215360118187e-34  8.3912375138206219e-33  1.4177309253003156e-32  -2.5940083937353498e-32  1.3549280792381215e-31  -2.5333152766940781e-33  -4.5875892111376577e-33  -2.7151534760478632e-33  -2.7151742670400375e-33  -2.6507238920616423e-34  1.4839826719563367e-33  8.7831711493616210e-34  1.4847130109616197e-33  -2.6349246426223791e-34  -4.3836658669117685e-32  -2.5940931984204581e-32  8.3934225283134910e-33  1.4178623095758188e-32  7.8192252548307146e-33  -2.5945176531497122e-32  8.0189644939766403e-32  1.3548660349734247e-31  -2.5332622731085560e-33  8.0184822202340592e-32  -4.3832575070837579e-32  8.1817152727189515e-34  8.3906979451446578e-33  1.4181653308003599e-32  8.3918618747177882e-33  -2.5943029406737213e-32  -2.5940505567116982e-32  1.3549195666179320e-31  -2.5284289357092715e-33  -4.5875125586767254e-33  8.5695158574302458e-35  8.7856512486101614e-34  1.4840151045009935e-33  -2.7147574477481087e-33  8.7855490223293169e-34  1.4842679690802535e-33  8.7833819078455201e-34  -2.7149187412468409e-33  -2.6398572552819982e-34  -2.7145245179039614e-33  -2.6460479323493785e-34  -4.7997400897185649e-34  -2.8416618816058916e-34  -2.7678712750759736e-35  1.5531963693394079e-34  8.7535347679681573e-36  9.1797808849766015e-35  1.5510977221400634e-34  -2.8403121123059243e-34  9.1926596223276771e-35  1.5522667489618180e-34  9.1699936965528837e-35  -2.8422804618508553e-34  -2.7822052749341420e-35  -2.7843922937066323e-35  -5.0393448501287031e-35  -2.9692904503797612e-35  -2.9872743522657485e-35  -2.8873897049852091e-36  1.6230598304354200e-35  -4.3834427239928712e-32  -2.5953641134942034e-32  -4.3838059767915365e-32  -2.5262934796993810e-33  1.4176397684023026e-32  8.1532301017135090e-34  8.3884898987031174e-33  8.3910727393213105e-33  -2.5946372913983815e-32  -4.5875322034497962e-33  -2.7153741091273867e-33  -4.3833501292299215e-32  8.1830932517072939e-34  -4.5870925660299898e-33  8.5207793401324415e-35  -4.8020845167305832e-34  -5.0198953405096646e-35  1.4839357934532086e-33  -2.7752489967854615e-35  -2.8415115817016033e-34  -4.8013188763016082e-34  1.5527911306288685e-34  -2.8433047877258268e-34  -4.8012350751923139e-34  9.1876378187213776e-35  1.5519655281590963e-34  8.7805554118471583e-34  1.4838547436562758e-33  -2.7889096136664788e-35  1.6255526982774680e-35  -3.1129991000135942e-36  9.6223074498117227e-36  -5.2580795174008899e-36  1.6244850022504299e-35  -3.0099895328013010e-37  1.7005110840040423e-36  8.5767867552435871e-35  -4.5883784019846645e-33  8.7901357507801450e-34  1.4845287472061944e-33  -2.7142255041488516e-33  1.4176968066734970e-32  -2.6566317842009298e-34  -4.8020375498052088e-34  8.9183199956257341e-36  9.1935744410871033e-35  1.5533784085324025e-34  -2.8420857812425409e-34  -2.7756960378111247e-35  9.4358604354901319e-37  -5.0259605915852733e-35  9.6221300005657547e-36  1.6253732897680390e-35  -2.9756484710794195e-35  -2.9330079282281048e-36  -2.8830730592071839e-36  -5.2586017130561494e-36  -3.1167106059186365e-36  1.0028086125418213e-36  1.6993489979109218e-36  -3.0604725484248821e-37  -2.5941838092569626e-32  -2.5358320267128259e-33  -4.3844521562176609e-32  8.3872220959535906e-33  1.4177685779700194e-32  -2.5286725212664900e-33  -2.5954699319809708e-32  8.5897756362250653e-35  -4.5860398536263289e-33  8.7888048954890985e-34  1.4840625920960232e-33  8.7745420165453625e-34  -2.7151131940827290e-33  -2.7163826830580913e-33  -2.6354285522570601e-34  -4.8047446061719753e-34  8.8634276997672845e-36  9.1977796628007940e-35  1.5513525203485308e-34  9.1374453424136396e-35  -2.8440589583849480e-34  -2.8413174668330981e-34  -2.7575489402339078e-35  -5.0284341914133609e-35  9.3362743935911980e-37  9.6304921590909499e-36  1.6255572555136541e-35  9.6231566910239949e-36  -2.9873047602542398e-35  -2.9719533316781026e-35  -2.8138351457647776e-36  -5.2633548238099607e-36  1.0241719749874239e-37  1.0075372826471746e-36  1.6919065711314235e-36  9.9674879995256050e-37  1.7510535904319760e-36  9.9783711896654067e-37  -3.1276942285269875e-36  -3.1126011225220159e-36  -3.2506627442785876e-37  -4.3835255941410968e-32  8.1792071478196685e-34  8.3942235189818203e-33  1.4181207098078728e-32  -2.5939578365961205e-32  -2.5351871465832537e-33  -4.5880549437842184e-33  8.5791455697758535e-35  8.7838713521330536e-34  1.4839646573138231e-33  -2.7145230147459988e-33  -2.6470844782954805e-34  -4.8010973702418887e-34  8.9586266196700220e-36  9.1975999463720226e-35  1.5529685835245262e-34  -2.8413671260336798e-34  -2.7749397107360183e-35  -5.0237261165482790e-35  9.4040227966421381e-37  9.6090996813460606e-36  1.6254608070211930e-35  -2.9717825633831148e-35  -2.9184126120657414e-36  -5.2560534792940486e-36  9.9281366682209392e-38  9.9136201239731414e-37  1.6988169561845741e-36  -3.1174873987776595e-36  -3.0412857964339539e-37  8.3941525923377672e-33  8.1898020649558144e-34  -4.3846101303404959e-32  1.4181351191831768e-32  1.4176018563645335e-32  8.3891106420524692e-33  -2.5958701801695855e-32  -2.5936041923202466e-32  -2.5298001687873041e-33  8.7848436006884094e-34  8.3899817777898751e-35  -4.5905349071825491e-33  1.4831880365538716e-33  8.7364252426983367e-34  -2.7171670562994354e-33  -2.7141308441026014e-33  -2.6358263374710275e-34  9.1720544257755956e-35  7.5051705488935534e-36  -4.8152322975781821e-34  1.5483372069353441e-34  9.0121772797334052e-35  -2.8889918990275473e-34  -2.8323533613160929e-34  -2.8015752284181252e-35  9.6055895982396240e-36  1.1039792724647294e-36  -5.0348158520221889e-35  1.6221432154257604e-35  1.0241374724650920e-35  -2.9512080250926068e-35  -2.9602474921637605e-35  -2.7321479182356111e-36  1.3591377044270673e-37  -5.2480698346359530e-36  1.0010656806101746e-36  1.7200699511490311e-36  1.3183806063873807e-36  1.9572585183403231e-36  1.0255724524346824e-36  -3.2576042162450928e-36  -3.0913614966299670e-36  -4.1814891591674030e-37  -4.3833400983761066e-32  8.1978733109347706e-34  8.3930409887495667e-33  1.4181325967586735e-32  8.3933763153730955e-33  -2.5941438770424673e-32  -2.5947589323836294e-32  -2.5343872416518018e-33  -4.5872412675749268e-33  8.5649622234210062e-35  8.7812151273870573e-34  1.4840528135500238e-33  8.7838559156918337e-34  -2.7148234672262656e-33  -2.7147158549146316e-33  -2.6443085127507070e-34  -4.8003477798657477e-34  9.0287643012384076e-36  9.1929068770580224e-35  1.5523343305613314e-34  9.2191341079367904e-35  -2.8418110326870726e-34  -2.8412201419994031e-34  -2.7721691850365176e-35  -5.0215397605066036e-35  9.5214255780379427e-37  9.6168772880394111e-36  1.6263092740669148e-35  9.4435915255167696e-36  -2.9688602464143700e-35  -2.9720790856734909e-35  -2.9511633255800658e-36  -5.2521522433779774e-36  8.1700850525176931e-38  1.0052276202802767e-36  1.6951866885500118e-36  1.0254925004285707e-36  -3.1315676574387347e-36  -3.1068148409326212e-36  -2.9250919493527169e-37  8.1976734819678094e-34  8.3927983074262260e-33  -4.5874054036872900e-33  8.5625385653805579e-35  8.7830482958144858e-34  1.4840341948093336e-33  -2.7148366503817666e-33  -2.6536059950088314e-34  -4.8007822404580667e-34  8.9666384510121606e-36  9.1893512193888185e-35  1.5531962964372085e-34  -2.8417656649685061e-34  -2.7663856600783547e-35  -5.0246639680037797e-35  9.3539138017599778e-37  9.6277982264283680e-36  1.6256610980731031e-35  -2.9748870227249501e-35  -2.8988182189268828e-36  -5.2629174186941558e-36  9.3253409018643805e-38  1.0262609867819902e-36  1.7090779999810242e-36  -3.1200977897598578e-36  -3.0793293533926344e-37  8.2133361544428931e-34  -4.3841499407269932e-32  8.3931829894906941e-33  1.4193030414998513e-32  1.4204505871050258e-32  8.4061968337616915e-33  -2.5944033504196952e-32  -2.5958564860371743e-32  -2.5628694026739794e-33  8.8219274540435195e-34  8.4225107034124945e-35  -4.5802819218025565e-33  1.4893622567751367e-33  8.7653376250693086e-34  -2.6910442506897401e-33  -2.7132657997020717e-33  -2.4999706650084015e-34  9.0497470283061145e-35  8.0886190077220629e-36  -4.8443073261144897e-34  1.5540325214177261e-34  1.5675480685731709e-34  9.3831564014473983e-35  -2.8589298256313725e-34  -2.8874397731553093e-35  9.7047604927390922e-36  2.7848566905418243e-36  -4.7348809730435134e-35  1.6440407851763345e-35  1.1821518059755389e-35  -3.0140792299711753e-35  -2.3003868460154934e-36  -8.9587730193910165e-38  -5.1636697724697689e-36  7.5662390284223002e-37  7.8754375655762786e-37  2.2244285230690218e-37  6.7030714740983754e-37  -3.7258747453999578e-37  -3.6353935116567443e-36  -3.2848389073158328e-36  -1.5273611309107964e-36  -4.3841765228616594e-32  8.2488152181070841e-34  8.3941614765169787e-33  1.4183735720158587e-32  8.3944015296612973e-33  -2.5958885142234433e-32  -2.5944094406166290e-32  -2.5375282565446405e-33  -4.5887672492277185e-33  8.4683287904802153e-35  8.7878391604224360e-34  1.4835187400940476e-33  8.7559975622265193e-34  -2.7168772083783847e-33  -2.7162694582437649e-33  -2.6541690387751625e-34  -4.7939316491869949e-34  9.2713891370749886e-36  9.1939931695405083e-35  1.5556740069895425e-34  9.2137484224401950e-35  -2.8375384221580970e-34  -2.8419853753104311e-34  -2.7835809807036866e-35  -5.0106649335631601e-35  9.0154664662271119e-37  9.6770243937555284e-36  1.6280699932312241e-35  9.5469400775392966e-36  -2.9525227006402236e-35  -2.9746082748560222e-35  -2.8629831328773365e-36  -5.3337955510875134e-36  -2.8889711998133540e-37  1.0711005211221537e-36  1.6821587806710357e-36  6.2309204859714854e-37  -3.5782407962157289e-36  -3.0046460794708659e-36  -2.5426606435432336e-37  8.2075307625678486e-34  8.3956062526626738e-33  -4.5875882973752472e-33  8.5684225809329115e-35  8.7834256323611332e-34  8.7820916042706853e-34  -2.7150759977993685e-33  -4.8000470866361458e-34  8.9989615534828114e-36  9.1912932904313986e-35  9.2045453947037033e-35  -2.8401084140177667e-34  -2.8412527802065844e-34  -5.0227858916071910e-35  9.2809408325070726e-37  9.6259604808457324e-36  1.6260540272772558e-35  9.6276066978273173e-36  -2.9656357670211005e-35  -2.9715162744659427e-35  -2.8855889361943708e-36  -5.2687073418069496e-36  1.4909675481779128e-37  1.0978465091857361e-36  1.8096267785463360e-36  1.0625249758346375e-36  -3.0512507893891015e-36  -3.1080956328660445e-36  -2.4246413084715765e-37  8.5851354288665201e-35  -4.8014621830643789e-34  8.9116158514433913e-36  -5.0267484524590439e-35  9.4462833104568763e-37  9.6100501399381425e-36  1.6188332910001196e-35  -2.9740184467223074e-35  -3.0599936212288052e-36  -5.2477448435454503e-36  1.0775799921996668e-37  -3.1226327477516112e-36  8.3346975791729283e-34  -4.3821307022748063e-32  -2.5941250860600343e-32  -4.5712394198717908e-33  -2.7124533984357041e-33  -4.3833220378867812e-32  8.2153557929615356e-34  8.3931009959917441e-33  -2.5949002618526364e-32  -4.5843287684235021e-33  -2.7139710348902066e-33  8.7811404886874820e-34  1.4838180718338109e-33  -2.6646693235482628e-34  8.1938525552878326e-34  -4.5875567018349423e-33  8.5967608422448812e-35  8.7835594200336856e-34  -2.7154360267748368e-33  -4.8005141140559433e-34  8.9538981855037729e-36  -5.0224078100796033e-35  9.1684490739196703e-37  9.6539570160535304e-36  -5.1762310079477736e-36  2.0625506620068371e-37  1.0341402008733540e-36  1.6789354310952664e-36  -3.0369295726038280e-36  -3.4046472091526840e-37  -3.0242018936586472e-36  9.4683465554660781e-37  -5.2923809882360016e-36  -5.3200709746660836e-36  1.7092147598483207e-36  -3.0166289254239033e-37  -1.8811315351862468e-38  -5.3867876620683486e-37  -3.2504689675858457e-37  1.8928488478104480e-37  -5.2847936041274208e-37  -3.1176171700029282e-37  -3.0145509889342208e-38  -5.8984473272832041e-37  1.8037762074951615e-37  1.1596053692231823e-37  2.1416314574201041e-37  5.8550339021675974e-38  -4.1050551142173916e-37  -5.3232734565339434e-37  -3.5697552409790452e-37  -2.1807535089964487e-38  2.1394228265047613e-37  -3.1784910897681511e-37  -5.4129266922854068e-37  -3.4309058252070792e-37  -3.4975440603197717e-38  1.8767941798758587e-37  -1.3948835385709950e-37  -3.9250925886841377e-37  -3.3444163205418001e-37  -2.3447164043455025e-37  3.3048886330203416e-37  -4.6198952460823105e-37  -3.3728815059112153e-37  1.0490193953682092e-37  1.2588942605774271e-37  -2.5914183752622592e-37  -6.4152700257113343e-38  -5.5259940649442195e-37  1.8109252361267813e-38  1.1361670993915143e-37  1.8606001855730493e-37  -2.6985082463266070e-37  3.7468614514154778e-39  -7.8613488973080882e-38  -2.2536342097554583e-37  -8.7054216684720570e-38  -7.3885524507749312e-37  -3.1854094250361852e-37  -4.6384566625122102e-37  -1.8705864151764774e-37  5.9176529914436312e-38  1.7631990833075610e-37  1.6616384703437127e-37  2.0885904696153817e-37  -2.5157570212805392e-37  3.8935486424487476e-38  -5.4437801559145799e-37  -5.1520909469569454e-37  1.4840501724705155e-33  8.5699592225029220e-35  8.7830860445573118e-34  -4.5873742390453275e-33  -2.7149698869134236e-33  1.4840465907511284e-33  8.7830636654076195e-34  1.4840478887088557e-33  1.4180096924004395e-32  -2.7149636307209471e-33  -2.6487380668193299e-34  8.3922301065304880e-33  1.4180095761890602e-32  -2.6487193763424205e-34  1.5531672945314621e-34  8.9682700354747644e-36  9.1924073605666386e-35  -4.8009516391722838e-34  -2.8412371359398425e-34  1.5531575541671201e-34  9.1920455853270851e-35  1.5531605334538442e-34  9.1924977928546910e-35  -2.8412913424182096e-34  -2.8413963220218988e-34  -2.7722801502443018e-35  -2.7720056608361372e-35  1.6254166778266830e-35  9.3845106955184548e-37  9.6218934468722198e-36  -5.0245643708682693e-35  -2.9737870431904329e-35  1.6255291243786530e-35  9.6201454692964656e-36  1.6255152198679816e-35  9.6203418915196278e-36  -2.9736952733387895e-35  -2.9737338807274069e-35  -2.8995188775321053e-36  -2.9007775690050981e-36  1.7011531144543067e-36  9.8181810161796240e-38  1.0069018171606011e-36  -5.2584241524152878e-36  -3.1126563676627381e-36  1.7012447224843941e-36  1.0068206864839899e-36  1.7012375172718516e-36  1.0069261576974975e-36  1.7012944549879065e-36  1.0069763324858242e-36  -3.1122090686612518e-36  -3.1123420745322572e-36  -3.0365626380667083e-37  -3.0355220450430633e-37  1.2946199515449784e-30  -4.1881956646680914e-31  -2.4787077041050397e-31  -2.4182954839417547e-32  1.3549129187888947e-31  7.8232097137553443e-33  8.0187949443071058e-32  1.3549129480264417e-31  8.0188106107875623e-32  1.3549124935140243e-31  1.3549126505894446e-31  8.0188147282027423e-32  -2.4787038734151243e-31  7.6619786059911766e-31  1.2946201861390227e-30  -2.4787069186877532e-31  -2.4183083979149992e-32  1.2946201634311023e-30  -2.4182823195025466e-32  8.1871761620872030e-34  8.3922412827909278e-33  -4.3832559772830792e-32  -2.5941591938468385e-32  1.4180132301542004e-32  8.3922463243495903e-33  1.4180126970482523e-32  8.3922449766561922e-33  -2.5941498802340630e-32  -2.5309562385158630e-33  -2.5941526610618655e-32  -2.5309032730577172e-33  -2.5308994401473335e-33  -4.5873740758050951e-33  -2.7149446599143011e-33  8.5690055222676624e-35  8.7830498489672788e-34  1.4840505184480174e-33  8.7830715937088844e-34  1.4840507073195220e-33  8.7830689232560842e-34  -2.7149501906553147e-33  -2.7149551915646851e-33  -2.6487990805120423e-34  -2.6487976737964937e-34  -4.8010084183946657e-34  -2.841382141812