<?xml version="1.0"?>
<VTKFile type="UnstructuredGrid"  version="0.1"  >
<UnstructuredGrid>
<Piece  NumberOfPoints="4055" NumberOfCells="19818">
<Points>
<DataArray  type="Float64"  NumberOfComponents="3"  format="ascii">27.5 50 17.5  27.5 50 18.75  26.25 50 18.75  26.25 48.75 18.75  27.5 50 20  27.5 37.5 0  27.5 37.5 1.25  27.5 36.25 1.25  26.25 36.25 1.25  27.5 36.25 0  26.25 36.25 0  27.5 37.5 2.5  27.5 36.25 2.5  26.25 36.25 2.5  26.25 37.5 1.25  26.25 37.5 0  25 37.5 2.5  26.25 37.5 2.5  30 37.5 0  30 37.5 1.25  30 36.25 1.25  28.75 36.25 1.25  30 36.25 0  28.75 36.25 0  30 37.5 2.5  30 36.25 2.5  28.75 36.25 2.5  28.75 37.5 1.25  28.75 37.5 0  28.75 37.5 2.5  32.5 37.5 0  32.5 37.5 1.25  32.5 36.25 1.25  31.25 36.25 1.25  32.5 36.25 0  31.25 36.25 0  32.5 37.5 2.5  32.5 36.25 2.5  31.25 36.25 2.5  31.25 37.5 1.25  31.25 37.5 0  31.25 37.5 2.5  35 37.5 0  35 37.5 1.25  35 36.25 1.25  33.75 36.25 1.25  35 36.25 0  33.75 36.25 0  35 37.5 2.5  33.75 37.5 1.25  33.75 37.5 0  33.75 37.5 2.5  33.75 36.25 2.5  36.25 37.5 1.25  36.25 37.5 0  36.25 36.25 1.25  36.25 36.25 0  37.5 37.5 0  37.5 37.5 1.25  37.5 37.5 2.5  36.25 37.5 2.5  27.5 38.75 1.25  27.5 38.75 0  26.25 38.75 1.25  26.25 38.75 0  27.5 40 0  27.5 40 1.25  27.5 40 2.5  27.5 38.75 2.5  26.25 38.75 2.5  26.25 40 1.25  25 38.75 2.5  25 40 2.5  26.25 40 2.5  28.75 38.75 1.25  28.75 38.75 0  30 38.75 1.25  30 38.75 0  30 40 0  30 40 1.25  30 40 2.5  30 38.75 2.5  28.75 38.75 2.5  28.75 40 1.25  28.75 40 0  28.75 40 2.5  31.25 38.75 1.25  31.25 38.75 0  32.5 38.75 1.25  32.5 38.75 0  32.5 40 0  32.5 40 1.25  32.5 40 2.5  32.5 38.75 2.5  31.25 38.75 2.5  31.25 40 1.25  31.25 40 0  31.25 40 2.5  33.75 38.75 1.25  33.75 38.75 0  35 38.75 1.25  35 38.75 0  35 40 0  35 40 1.25  35 40 2.5  35 38.75 2.5  33.75 38.75 2.5  33.75 40 1.25  33.75 40 0  33.75 40 2.5  36.25 38.75 1.25  36.25 38.75 0  37.5 38.75 1.25  37.5 38.75 0  37.5 40 0  37.5 40 1.25  37.5 40 2.5  37.5 38.75 2.5  36.25 38.75 2.5  36.25 40 1.25  36.25 40 0  36.25 40 2.5  40 40 0  40 40 1.25  40 38.75 1.25  38.75 38.75 1.25  40 40 2.5  40 38.75 2.5  38.75 38.75 2.5  38.75 38.75 0  38.75 40 1.25  38.75 40 0  38.75 40 2.5  41.25 40 1.25  41.25 40 0  41.25 38.75 1.25  42.5 40 0  42.5 40 1.25  42.5 40 2.5  41.25 40 2.5  41.25 38.75 2.5  27.5 41.25 1.25  27.5 41.25 0  26.25 41.25 1.25  26.25 41.25 0  27.5 42.5 0  27.5 42.5 1.25  27.5 42.5 2.5  27.5 41.25 2.5  26.25 41.25 2.5  25 42.5 0  26.25 42.5 1.25  26.25 42.5 0  25 41.25 2.5  25 42.5 2.5  26.25 42.5 2.5  28.75 41.25 1.25  28.75 41.25 0  30 41.25 1.25  30 41.25 0  30 42.5 0  30 42.5 1.25  30 42.5 2.5  30 41.25 2.5  28.75 41.25 2.5  28.75 42.5 1.25  28.75 42.5 0  28.75 42.5 2.5  31.25 41.25 1.25  31.25 41.25 0  32.5 41.25 1.25  32.5 41.25 0  32.5 42.5 0  32.5 42.5 1.25  32.5 42.5 2.5  32.5 41.25 2.5  31.25 41.25 2.5  31.25 42.5 1.25  31.25 42.5 0  31.25 42.5 2.5  33.75 41.25 1.25  33.75 41.25 0  35 41.25 1.25  35 41.25 0  35 42.5 0  35 42.5 1.25  35 42.5 2.5  35 41.25 2.5  33.75 41.25 2.5  33.75 42.5 1.25  33.75 42.5 0  33.75 42.5 2.5  36.25 41.25 1.25  36.25 41.25 0  37.5 41.25 1.25  37.5 41.25 0  37.5 42.5 0  37.5 42.5 1.25  37.5 42.5 2.5  37.5 41.25 2.5  36.25 41.25 2.5  36.25 42.5 1.25  36.25 42.5 0  36.25 42.5 2.5  38.75 41.25 1.25  38.75 41.25 0  40 41.25 1.25  40 41.25 0  40 42.5 0  40 42.5 1.25  40 42.5 2.5  40 41.25 2.5  38.75 41.25 2.5  38.75 42.5 1.25  38.75 42.5 0  38.75 42.5 2.5  41.25 41.25 1.25  41.25 41.25 0  42.5 41.25 1.25  42.5 41.25 0  42.5 42.5 0  42.5 42.5 1.25  42.5 42.5 2.5  42.5 41.25 2.5  41.25 41.25 2.5  41.25 42.5 1.25  41.25 42.5 0  41.25 42.5 2.5  45 40 0  45 41.25 1.25  45 41.25 0  43.75 41.25 1.25  43.75 41.25 0  45 42.5 0  45 42.5 1.25  45 42.5 2.5  45 40 2.5  45 41.25 2.5  43.75 41.25 2.5  43.75 40 2.5  43.75 42.5 1.25  43.75 42.5 0  43.75 42.5 2.5  47.5 40 0  47.5 41.25 1.25  47.5 41.25 0  46.25 41.25 1.25  46.25 41.25 0  47.5 42.5 0  47.5 42.5 1.25  47.5 42.5 2.5  47.5 40 2.5  47.5 41.25 2.5  46.25 41.25 2.5  46.25 40 2.5  46.25 42.5 1.25  46.25 42.5 0  46.25 42.5 2.5  50 40 0  50 41.25 1.25  50 41.25 0  48.75 41.25 1.25  48.75 41.25 0  50 42.5 0  50 42.5 1.25  50 42.5 2.5  50 40 1.25  50 40 2.5  50 41.25 2.5  48.75 41.25 2.5  48.75 40 2.5  48.75 42.5 1.25  48.75 42.5 0  48.75 42.5 2.5  26.25 43.75 1.25  26.25 43.75 0  27.5 43.75 1.25  27.5 43.75 0  27.5 45 0  27.5 45 1.25  27.5 45 2.5  27.5 43.75 2.5  26.25 43.75 2.5  26.25 45 1.25  25 45 2.5  26.25 45 2.5  28.75 43.75 1.25  28.75 43.75 0  30 43.75 1.25  30 43.75 0  30 45 0  30 45 1.25  30 45 2.5  30 43.75 2.5  28.75 43.75 2.5  28.75 45 1.25  28.75 45 0  28.75 45 2.5  31.25 43.75 1.25  31.25 43.75 0  32.5 43.75 1.25  32.5 43.75 0  32.5 45 0  32.5 45 1.25  32.5 45 2.5  32.5 43.75 2.5  31.25 43.75 2.5  31.25 45 1.25  31.25 45 0  31.25 45 2.5  33.75 43.75 1.25  33.75 43.75 0  35 43.75 1.25  35 43.75 0  35 45 0  35 45 1.25  35 45 2.5  35 43.75 2.5  33.75 43.75 2.5  33.75 45 1.25  33.75 45 0  33.75 45 2.5  36.25 43.75 1.25  36.25 43.75 0  37.5 43.75 1.25  37.5 43.75 0  37.5 45 0  37.5 45 1.25  37.5 45 2.5  37.5 43.75 2.5  36.25 43.75 2.5  36.25 45 1.25  36.25 45 0  36.25 45 2.5  38.75 43.75 1.25  38.75 43.75 0  40 43.75 1.25  40 43.75 0  40 45 0  40 45 1.25  40 45 2.5  40 43.75 2.5  38.75 43.75 2.5  38.75 45 1.25  38.75 45 0  38.75 45 2.5  41.25 43.75 1.25  41.25 43.75 0  42.5 43.75 1.25  42.5 43.75 0  42.5 45 0  42.5 45 1.25  42.5 45 2.5  42.5 43.75 2.5  41.25 43.75 2.5  41.25 45 1.25  41.25 45 0  41.25 45 2.5  43.75 43.75 1.25  43.75 43.75 0  45 43.75 1.25  45 43.75 0  45 45 0  45 45 1.25  45 45 2.5  45 43.75 2.5  43.75 43.75 2.5  43.75 45 1.25  43.75 45 0  43.75 45 2.5  46.25 43.75 1.25  46.25 43.75 0  47.5 43.75 1.25  47.5 43.75 0  47.5 45 0  47.5 45 1.25  47.5 45 2.5  47.5 43.75 2.5  46.25 43.75 2.5  46.25 45 1.25  46.25 45 0  46.25 45 2.5  48.75 43.75 1.25  48.75 43.75 0  50 43.75 1.25  50 43.75 0  50 45 0  50 45 1.25  50 45 2.5  50 43.75 2.5  48.75 43.75 2.5  48.75 45 1.25  48.75 45 0  48.75 45 2.5  27.5 46.25 1.25  27.5 46.25 0  26.25 46.25 1.25  26.25 46.25 0  27.5 47.5 0  27.5 47.5 1.25  27.5 47.5 2.5  27.5 46.25 2.5  26.25 46.25 2.5  25 47.5 0  26.25 47.5 1.25  26.25 47.5 0  25 46.25 2.5  25 47.5 2.5  26.25 47.5 2.5  28.75 46.25 1.25  28.75 46.25 0  30 46.25 1.25  30 46.25 0  30 47.5 0  30 47.5 1.25  30 47.5 2.5  30 46.25 2.5  28.75 46.25 2.5  28.75 47.5 1.25  28.75 47.5 0  28.75 47.5 2.5  31.25 46.25 1.25  31.25 46.25 0  32.5 46.25 1.25  32.5 46.25 0  32.5 47.5 0  32.5 47.5 1.25  32.5 47.5 2.5  32.5 46.25 2.5  31.25 46.25 2.5  31.25 47.5 1.25  31.25 47.5 0  31.25 47.5 2.5  33.75 46.25 1.25  33.75 46.25 0  35 46.25 1.25  35 46.25 0  35 47.5 0  35 47.5 1.25  35 47.5 2.5  35 46.25 2.5  33.75 46.25 2.5  33.75 47.5 1.25  33.75 47.5 0  33.75 47.5 2.5  36.25 46.25 1.25  36.25 46.25 0  37.5 46.25 1.25  37.5 46.25 0  37.5 47.5 0  37.5 47.5 1.25  37.5 47.5 2.5  37.5 46.25 2.5  36.25 46.25 2.5  36.25 47.5 1.25  36.25 47.5 0  36.25 47.5 2.5  38.75 46.25 1.25  38.75 46.25 0  40 46.25 1.25  40 46.25 0  40 47.5 0  40 47.5 1.25  40 47.5 2.5  40 46.25 2.5  38.75 46.25 2.5  38.75 47.5 1.25  38.75 47.5 0  38.75 47.5 2.5  41.25 46.25 1.25  41.25 46.25 0  42.5 46.25 1.25  42.5 46.25 0  42.5 47.5 0  42.5 47.5 1.25  42.5 47.5 2.5  42.5 46.25 2.5  41.25 46.25 2.5  41.25 47.5 1.25  41.25 47.5 0  41.25 47.5 2.5  43.75 46.25 1.25  43.75 46.25 0  45 46.25 1.25  45 46.25 0  45 47.5 0  45 47.5 1.25  45 47.5 2.5  45 46.25 2.5  43.75 46.25 2.5  43.75 47.5 1.25  43.75 47.5 0  43.75 47.5 2.5  46.25 46.25 1.25  46.25 46.25 0  47.5 46.25 1.25  47.5 46.25 0  47.5 47.5 0  47.5 47.5 1.25  47.5 47.5 2.5  47.5 46.25 2.5  46.25 46.25 2.5  46.25 47.5 1.25  46.25 47.5 0  46.25 47.5 2.5  48.75 46.25 1.25  48.75 46.25 0  50 46.25 1.25  50 46.25 0  50 47.5 0  50 47.5 1.25  50 47.5 2.5  50 46.25 2.5  48.75 46.25 2.5  48.75 47.5 1.25  48.75 47.5 0  48.75 47.5 2.5  26.25 48.75 1.25  26.25 48.75 0  27.5 48.75 1.25  27.5 48.75 0  27.5 50 0  27.5 50 1.25  27.5 50 2.5  27.5 48.75 2.5  26.25 48.75 2.5  26.25 50 1.25  25 48.75 2.5  25 50 2.5  26.25 50 2.5  28.75 48.75 1.25  28.75 48.75 0  30 48.75 1.25  30 48.75 0  30 50 0  30 50 1.25  30 50 2.5  30 48.75 2.5  28.75 48.75 2.5  28.75 50 1.25  28.75 50 0  28.75 50 2.5  31.25 48.75 1.25  31.25 48.75 0  32.5 48.75 1.25  32.5 48.75 0  32.5 50 0  32.5 50 1.25  32.5 50 2.5  32.5 48.75 2.5  31.25 48.75 2.5  31.25 50 1.25  31.25 50 0  31.25 50 2.5  33.75 48.75 1.25  33.75 48.75 0  35 48.75 1.25  35 48.75 0  35 50 0  35 50 1.25  35 50 2.5  35 48.75 2.5  33.75 48.75 2.5  33.75 50 1.25  33.75 50 0  33.75 50 2.5  36.25 48.75 1.25  36.25 48.75 0  37.5 48.75 1.25  37.5 48.75 0  37.5 50 0  37.5 50 1.25  37.5 50 2.5  37.5 48.75 2.5  36.25 48.75 2.5  36.25 50 1.25  36.25 50 0  36.25 50 2.5  38.75 48.75 1.25  38.75 48.75 0  40 48.75 1.25  40 48.75 0  40 50 0  40 50 1.25  40 50 2.5  40 48.75 2.5  38.75 48.75 2.5  38.75 50 1.25  38.75 50 0  38.75 50 2.5  41.25 48.75 1.25  41.25 48.75 0  42.5 48.75 1.25  42.5 48.75 0  42.5 50 0  42.5 50 1.25  42.5 50 2.5  42.5 48.75 2.5  41.25 48.75 2.5  41.25 50 1.25  41.25 50 0  41.25 50 2.5  43.75 48.75 1.25  43.75 48.75 0  45 48.75 1.25  45 48.75 0  45 50 0  45 50 1.25  45 50 2.5  45 48.75 2.5  43.75 48.75 2.5  43.75 50 1.25  43.75 50 0  43.75 50 2.5  46.25 48.75 1.25  46.25 48.75 0  47.5 48.75 1.25  47.5 48.75 0  47.5 50 0  47.5 50 1.25  47.5 50 2.5  47.5 48.75 2.5  46.25 48.75 2.5  46.25 50 1.25  46.25 50 0  46.25 50 2.5  48.75 48.75 1.25  48.75 48.75 0  50 48.75 1.25  50 48.75 0  50 50 0  50 50 1.25  50 50 2.5  50 48.75 2.5  48.75 48.75 2.5  48.75 50 1.25  48.75 50 0  48.75 50 2.5  27.5 37.5 3.75  27.5 36.25 3.75  26.25 36.25 3.75  27.5 37.5 5  27.5 36.25 5  26.25 36.25 5  26.25 37.5 3.75  25 37.5 5  26.25 37.5 5  25 37.5 3.75  30 37.5 3.75  30 36.25 3.75  28.75 36.25 3.75  30 37.5 5  30 36.25 5  28.75 36.25 5  28.75 37.5 3.75  28.75 37.5 5  32.5 37.5 3.75  32.5 36.25 3.75  31.25 36.25 3.75  32.5 37.5 5  32.5 36.25 5  31.25 36.25 5  31.25 37.5 3.75  31.25 37.5 5  33.75 37.5 3.75  33.75 36.25 3.75  35 37.5 3.75  35 37.5 5  33.75 37.5 5  33.75 36
[...]
<PointData  Scalars="c_HbO2"> 
<DataArray  type="Float64"  Name="c_HbO2"  format="ascii">1.7874927079653083e-34  6.6436741224233175e-35  -4.3122474229797235e-34  -1.1176295332543457e-33  1.8054670800066168e-34  1.7931691729663352e-34  6.4962178609732512e-35  1.1821355047463046e-35  -1.1230636724360749e-33  7.1478210810440638e-35  -4.4083941595886317e-34  1.8247088308860981e-34  6.5323615190094393e-35  -4.3949589441004790e-34  -4.2532641444727107e-34  -5.3909443548029835e-35  6.9045345089260816e-33  -1.7793266412934543e-35  4.9938232129814730e-36  2.9488056810323643e-36  8.3401396057816972e-38  -2.7980653551645638e-35  1.8080502589231509e-36  -1.2555397618888441e-35  3.4506277582662142e-36  3.0435124653980237e-36  -1.4406242142149955e-35  -1.4391053232864058e-35  -8.9003307519724445e-37  1.0593608180388676e-36  -1.1325753798736856e-37  -1.7238670052055860e-37  4.1038751042981835e-37  -3.9667588999457644e-37  -6.3809251617240124e-37  -1.0795059068547891e-36  1.1173737305938452e-37  1.7208648717564561e-37  5.8878033009444408e-37  -4.3966586373150008e-37  -5.4612589852140905e-37  8.6549075471719939e-37  -4.4145014438519632e-38  7.7347121689323007e-38  -2.1775381585088789e-37  4.6295862363450611e-38  5.2468601025699188e-38  -1.7381321359864641e-37  4.9684301885124821e-38  1.0182521293581747e-37  -4.7326781008741501e-38  1.4973257825307081e-37  3.0352928474077356e-38  4.1123275876170783e-38  2.2243600189004101e-38  4.2437376605069953e-38  -6.6428603946777406e-38  -2.0380363855264418e-38  -1.9569201196151863e-38  8.8949784695608545e-39  -8.4718287925087742e-38  2.3261740115738025e-36  7.2208999072480760e-35  -1.1202871441545092e-33  -4.2567220855424473e-34  1.8054366299787192e-34  6.8259038482523680e-35  1.7923700705099132e-34  6.7497435152337995e-35  -4.3256570589202229e-34  -4.3530991118936747e-34  2.6852069458622445e-33  6.8832228964032433e-33  -2.0647886768630372e-35  -2.8904413399019527e-35  -1.0927608971897734e-35  9.1009938556077969e-37  1.5229205853908477e-36  4.8076793045410924e-36  1.3988211692882916e-36  5.8155353752414941e-36  3.2896040762769413e-36  -1.1287521210342891e-35  -1.2825957245160948e-35  -2.8507755586758363e-36  1.1993780065200053e-36  -7.9670887737092428e-37  -8.8113765309598513e-37  -9.5476958645442477e-38  -2.0273541583388646e-37  -1.0977092585421419e-38  1.2293935188882063e-38  -3.1362704863279217e-37  -1.5369847766977119e-37  -3.7768063518703017e-37  -4.4309954097647715e-37  4.1593440591635804e-38  -9.3314852352674770e-37  -1.2645541626472371e-38  3.2911341560945500e-37  8.3687459721752546e-38  1.5344918972863692e-37  -8.5732279501922736e-39  -2.0838389561288636e-39  1.6032067100220621e-37  2.6496363907653049e-38  6.6564090036186337e-38  3.7394474328171666e-37  3.5344347258009204e-37  3.1897686872890595e-37  -3.8894037651004926e-39  -8.7628166140941113e-38  2.1738619469754802e-38  2.9898730279183538e-38  3.9897833462854235e-39  3.6395945126427200e-38  1.4464733223633455e-38  2.9813290462332352e-38  -4.8304028904304465e-38  -1.0057874469428803e-37  -2.1386252688562861e-38  -6.1200269756097076e-38  -3.3749580997104959e-38  -1.6117593392835155e-38  7.0940082090135188e-39  1.7705145354472215e-38  -4.7315555561233664e-39  -2.3495030785589987e-38  2.6780783283939660e-38  -1.9359377461099855e-38  3.6614417088669562e-38  2.1736538466811672e-38  5.1758715927781083e-38  -1.8567317070744370e-38  3.5237424675170384e-38  6.7858052881197363e-39  4.8832283314194774e-39  5.5126664910975000e-39  1.0954738208398538e-38  -3.0577347945346487e-38  -2.1925575301668949e-39  4.3451923717444785e-36  6.9314293647458698e-35  -1.1180402291196101e-33  -4.2930577249981107e-34  1.8015407935371461e-34  6.6216781703913697e-35  1.8114630624035221e-34  7.0148125822117888e-35  -4.2878609828597274e-34  6.9059833647342907e-33  -4.3692492240791980e-34  -2.0091331678427721e-35  2.6808379834129706e-33  6.9133121620854010e-33  -2.7045847205269349e-35  -2.8698214694634752e-35  -1.0174194849841261e-35  9.7141086997955885e-37  2.4636313834997924e-36  3.8675317226403233e-36  1.5148072758771949e-36  4.7336740848033804e-36  6.2612111089995463e-37  -1.0903895332031882e-35  -1.0100917365129731e-35  6.4814208072172235e-37  -1.6530769367957528e-36  -1.0572737532745184e-36  -9.3733127900273982e-37  -4.4814707393117207e-37  -1.4403537177290603e-37  1.1135570278817558e-37  -3.9362395337223025e-37  2.4159877633223921e-37  -3.8003377488658556e-37  1.0730105658908607e-39  -9.8541358656030282e-37  -3.5476097151751982e-37  2.7301691337781894e-37  1.3932792147390247e-37  7.0377227104031095e-37  1.3691792610206959e-37  1.9552549598537019e-37  -7.5114225682092844e-38  1.8736443436197237e-37  -2.2241342576638690e-38  2.8956780201955943e-37  1.6782419990339470e-37  -3.4586963219950517e-38  8.4927068806069518e-38  -2.5911315917547566e-37  -1.5824357718405811e-38  -2.5263407864929057e-37  8.0751318031150142e-39  8.2146290853459921e-39  1.1088516421320300e-38  -1.3132035276121655e-38  -3.2751297695638277e-39  5.4996159660673371e-38  1.1664166966012082e-39  -5.0322063988901750e-38  8.1093453849292678e-39  -6.2964258803760197e-38  3.0483065666336912e-38  6.9847416553121336e-38  -4.7196172788247102e-38  -3.0580376493936378e-38  -2.5147621633701012e-39  -4.3010323342058144e-38  9.0525003511570238e-39  -5.7060797171574236e-39  4.7206608101069546e-38  3.0887260950805628e-38  7.9081015965973161e-38  9.8286115900712071e-38  -7.7375192421424002e-39  -9.8493183899899685e-40  1.4239657873335996e-38  1.7824411213044601e-38  2.4796175212120923e-39  1.1540522177599606e-38  1.7249088738818572e-39  5.4876633109367008e-40  -2.7724712094697271e-38  -2.7218058609181457e-38  -2.5038773458747056e-38  -5.2135781319888892e-38  -1.1783205181634551e-39  -2.0799461945342081e-39  2.1883388295327600e-40  -6.1150836494796469e-40  3.5539273795315071e-39  4.9771792589568929e-40  -1.0536336758972501e-39  -1.2655086603651071e-39  -2.0942998080679857e-39  -2.6949977273756258e-39  7.7050506675507848e-39  -2.4486485567560585e-39  5.2612320357355257e-39  -8.2380813441022165e-40  1.1448631626066432e-38  3.7114697756426250e-40  1.3642751513541417e-39  5.3426029518135561e-40  -1.2887810884276593e-39  1.3817979962657477e-39  2.3795064794053324e-40  1.2873937259685489e-39  5.2505465514816769e-40  1.6726885893322437e-40  1.3800901128162915e-39  6.2733815452598805e-40  -1.4533753971344978e-39  7.1653571088239176e-40  1.3660278700529601e-39  7.7074161996029588e-40  -3.8300691112755946e-41  2.4527914949623941e-40  6.4813223021152619e-40  -7.7396310243154572e-40  -2.5137814261687132e-41  9.9603803661160627e-41  -4.9629174169328366e-40  -4.8181015063342482e-40  8.5551251768343449e-40  -1.3403364569005696e-40  -8.2607914193672011e-40  -9.1227595715027149e-40  -5.7927835377460892e-40  -1.7741329282351013e-40  -2.0671019589682770e-40  -1.6890948877582561e-39  -1.1130501190479653e-33  -4.2812490083067999e-34  6.4396957866760746e-36  6.1958990124695329e-35  1.9007618236020355e-34  6.6998485070449864e-35  1.8059687371432198e-34  7.6827934605797464e-35  -4.3075399679345749e-34  -4.3531504368207200e-34  6.8905489578057334e-33  -2.2243067848604245e-35  -2.8425821306041593e-35  -1.0967087416115964e-35  4.9276573716950357e-38  2.1873407313477548e-36  4.5795244706210377e-36  2.5235731569761474e-36  4.6299561718097077e-36  2.5961060681410478e-36  -1.1129434419254296e-35  -1.2919406493937096e-35  -1.1917133684241020e-36  -2.4696547216085778e-36  -4.4720101477964213e-37  -1.8989111876249835e-37  -4.4463964408593921e-37  -3.9643683233501922e-37  2.5565926885249682e-37  1.7081910549158691e-39  3.9522463112781029e-38  -5.5589271096784958e-37  4.5753332838982924e-37  5.0360990629776864e-37  7.2531772242452403e-38  4.0188595499256279e-37  -1.1435211619139398e-38  2.4862420195882762e-37  1.9272384531749697e-37  1.5500043371808064e-37  -1.7788827180587697e-38  2.5010199202319681e-37  6.0273158034594873e-38  2.7458659014429082e-37  -4.7018060989052187e-37  1.7804968422673224e-37  -3.1761010373192898e-37  -1.5711760539816223e-37  1.2045611753694400e-38  -6.0901225677288799e-38  -3.7202699955263857e-38  2.8538187582040961e-38  2.4841912567922107e-38  -8.5615386877543893e-38  -4.3840331352489909e-38  -1.1481141027084164e-37  3.5941789559138056e-38  -8.3551498304800564e-38  -2.7866641336906318e-38  8.0085361562061651e-38  1.6455086977408130e-38  3.6975866074905751e-39  -4.1041320153010937e-38  -2.4575782415342311e-38  1.5588177761631065e-39  -4.2448606983072489e-39  1.2014746355917784e-38  2.0598529306202762e-38  3.0672956521618288e-38  1.5404034754199821e-38  5.0604449534758008e-38  -3.2205231904798695e-38  -1.2452040162404608e-38  -7.0742538984785994e-39  1.8669935468722629e-38  1.0894365567126315e-38  4.5752050593300173e-39  1.1836858829850016e-38  1.8682164101506157e-39  -2.7449365651563345e-39  -2.3665270614672135e-38  -1.1410799132977596e-38  -2.1029164586483234e-38  -3.6455296048632119e-39  4.8877631502226821e-40  -4.1329103382426725e-39  -6.4864248463404200e-39  -3.9548911729186343e-39  -6.4791986635503775e-40  -4.8810803751482108e-39  -1.0599399584080622e-39  -5.7732323960697389e-39  4.2678967184662330e-39  5.5279717714741126e-39  4.4425807734562933e-39  3.5189643143759681e-39  -1.2041814603175967e-40  2.7595759200991146e-39  2.5475495470132241e-39  1.2171107890949005e-39  2.2902581437909199e-40  1.0492474429294273e-39  2.5583470726599877e-40  4.1555948329180578e-39  2.1094407794995809e-39  -7.7075817622746366e-40  7.8976505239610664e-40  1.4478045046987074e-39  -3.6593708640977299e-40  -6.0200637006722774e-40  -1.7843107595809715e-40  -2.4352331763918653e-40  2.5200881563202977e-41  -9.9944044621242986e-40  -6.0997222120942664e-40  -2.3134165426321485e-39  -1.7215687046704269e-39  -1.1010050131244314e-39  -1.1603752450843637e-39  -3.2928168782959613e-39  4.3623432668739639e-36  6.2389200774518218e-35  -1.1141922381524743e-33  -4.3410898518212629e-34  1.8112581562058139e-34  7.3457182668527194e-35  1.8391910152842095e-34  7.5143109701956156e-35  -4.4209288687143893e-34  6.8911797542598760e-33  -4.3940646287952883e-34  -2.7092910570301531e-35  2.6362223314781199e-33  6.9124836771231252e-33  -3.1080452917225085e-35  -2.7470560656616324e-35  -1.6000546787974084e-35  -5.1309147245133930e-37  2.0026737863828431e-36  4.5914031851794051e-36  2.0361451230913917e-36  4.1012258845824169e-36  2.1693585120942011e-36  -1.2626166623365741e-35  -1.2802831573694698e-35  -2.6434425304939283e-36  -2.6418068354443326e-36  -5.1203426633338532e-37  3.1254824559183393e-37  3.3949946906642141e-37  -2.5957493269918010e-37  1.8456297082332528e-37  -6.3002827707647819e-37  3.2794759188027752e-37  6.2170806481815292e-37  6.3384791589075652e-37  -4.7602730662948387e-38  1.2140453255169685e-36  2.7391806348733812e-38  -1.5106873949116760e-37  1.9906616961034780e-37  1.5790355379464385e-37  1.3660103818602501e-37  -1.0847834511354767e-37  9.0522571201141423e-38  -4.9070301398942504e-38  2.0476777831233193e-37  -2.6060357963796603e-37  3.1832547301825236e-38  -1.7310418748946694e-37  -2.7073728519270434e-37  -2.9863367209172288e-38  -1.1089111965531751e-37  -1.1844482085038494e-37  5.7631725462842163e-39  1.0764439473805130e-38  -3.4860062304562836e-38  -1.3278163064257984e-38  -2.2807972843903761e-37  1.0276196299405545e-37  -5.6351271879128777e-38  -9.3470475871886064e-38  9.4780684768402240e-38  1.6536904259448167e-38  5.8141143701975391e-38  1.4928209481492054e-38  -4.7823529733312273e-39  1.6244868125084896e-38  -4.8388303529005463e-40  1.9567968800502410e-38  9.8457725065057362e-38  -4.7328165934242046e-38  -1.0422313290380762e-38  5.7460791617231150e-38  -2.3436442315929482e-38  -1.4623299429573079e-38  -3.2022462789364094e-38  4.6050690819658640e-39  6.6611734923715655e-39  2.3753291092212813e-39  2.8564026462049911e-39  -2.2283796090777047e-39  -2.9876010305596640e-38  -9.3329406115346363e-39  -2.3024925604505578e-38  -2.7900955040102051e-38  -1.8587889195039520e-38  6.7011930909295042e-39  1.0188944642530886e-38  -2.8279988276541101e-39  -3.0622935459068404e-39  -1.2148843247784605e-39  -1.6013169598528176e-39  8.3167657138113161e-41  4.5300031527870461e-39  1.1624534588897286e-38  1.1685169927665204e-38  6.6442964705701367e-39  7.6663620769340056e-39  -4.2433322637106767e-40  -3.4917471376929399e-40  7.6411183030605334e-40  8.9979071293147825e-40  2.2562354410855583e-40  2.5397389101357333e-40  -8.2110741723768311e-41  1.1519917084271503e-39  1.3176793779769280e-39  -1.9916732987482716e-39  1.6943965289812526e-40  1.2072517144750316e-39  -1.4728267477276794e-40  -6.5622742577697060e-40  1.4117640239143208e-39  4.1078613380510555e-40  -1.1585251279194681e-41  -1.6035140745620490e-40  -5.0359255357833950e-40  -2.3603244063030049e-39  -2.3562033577384508e-39  -3.9175631641279055e-40  -6.2626963721187892e-40  -2.7035704471559584e-39  -1.1163412950032378e-33  -4.3015958200455299e-34  1.7626200160819445e-36  7.2980308230331444e-35  1.7187059566259777e-34  6.3058558757654094e-35  1.7917973424656432e-34  7.2242727567278194e-35  -4.3692701376718229e-34  -4.2875103120469583e-34  2.6693835471059241e-33  6.9034690540271930e-33  -4.1033063855435346e-35  -2.9175589934507263e-35  -1.2555791170868786e-35  1.2705224844185116e-36  2.2963182720940830e-36  4.3669060989698530e-36  1.3448284567033873e-36  5.1983960841253472e-36  4.0458717609710698e-36  -1.1156136579650140e-35  -1.0933331295317101e-35  2.2102156324981827e-36  -2.2515786408966988e-37  -7.1295869279842910e-37  -9.7652062158793409e-38  -8.9197556769002777e-37  -6.0579011646059058e-37  1.0014097164381141e-37  -9.1781927052754541e-37  -2.0697282256224849e-38  1.3162433889100638e-37  2.0366689963197282e-37  -3.0375405166781344e-37  -5.7218124797959470e-37  -1.1890276302251649e-36  5.0769946210604054e-38  4.2292711762729534e-37  3.0415209368819547e-37  3.2206586741198453e-37  2.6599116254045854e-38  3.7148043171328992e-37  -8.3817066642998251e-38  -9.3208535979649626e-38  -9.5268408491066947e-38  -9.7457313291671156e-38  -1.0277500283023694e-37  1.3773460363094714e-37  2.6671017436063945e-38  -2.0555435644281177e-37  -2.0382663729053734e-37  -9.0411676976810381e-38  1.0641975255303190e-38  -1.6071013869737054e-37  3.6313609521601042e-39  -2.9610272733986253e-38  -4.7590280684482907e-38  -2.5719748999122350e-37  -5.9594486705712606e-38  5.5477700338351485e-38  1.0462823797524743e-38  9.9761343612706206e-38  3.3648997733056197e-38  2.8707167006559855e-38  6.3537586030553324e-39  2.3062204547273396e-38  1.0629248371287515e-38  2.0262820537479730e-38  4.2635557682659583e-40  -5.4237029790661114e-39  2.4507502427653229e-38  -5.8217499117938109e-39  -9.5575185316585242e-39  -2.5390737232595240e-38  6.8971966632208615e-39  -4.0298129273682329e-39  -9.6874112847013072e-40  2.5237743006344576e-39  2.4732857131202966e-39  -7.3220983785578395e-39  -7.2198106622105382e-39  -6.1781024514180015e-39  -1.6180193950309803e-38  -4.9616274966280274e-39  6.6107404884177826e-39  5.4940685433687032e-39  -6.5121349441967452e-39  -1.9854414128047954e-39  1.9419910185092727e-40  -4.6211219901783512e-39  -2.8213277500875390e-40  -1.8984054915737878e-39  7.3853529646771234e-39  6.6011220903074393e-39  4.0781178456803732e-39  7.1369165262613381e-39  -1.5643457693299182e-39  -4.4016574616858600e-40  1.7551941097393125e-39  1.1486717865212932e-39  3.4982683875776041e-41  9.8600903752890237e-40  -1.4053350850415218e-40  1.1498705239753521e-39  -1.3705316890068772e-39  -2.0880523811924837e-39  -2.1535419823776409e-40  -2.8476224834720099e-39  1.3070762678754835e-40  -3.7086610189252291e-40  2.7283285161363007e-40  -1.8732482872401807e-40  2.0648246143412468e-41  1.6029253796897810e-40  -8.8007170559821199e-41  -1.6335927701761339e-39  -8.3614164278306416e-40  2.6950302004015308e-40  -1.0837154898502723e-40  -1.2653468704146942e-40  6.4724732756295148e-35  7.3140567933182715e-36  -1.1246617049617794e-33  1.8378954104019976e-34  7.1773817435977851e-35  -4.3375154851690039e-34  -4.3799210711912096e-34  6.8996381819100786e-33  -2.4550781898548097e-35  2.6730793504647561e-33  1.4328487938929930e-36  1.8082091135565749e-37  -2.7919845539512450e-35  4.7183550889166054e-36  1.3022300652378710e-36  -1.2584567454698061e-35  -1.0292883323439796e-35  -1.5860080188102388e-36  1.3321424087110907e-37  5.2748873799690704e-37  -1.4138101011019194e-36  1.9604744298625665e-37  1.0467554332527100e-37  -1.9882527232782258e-37  2.1704503180239640e-38  5.8576528722058290e-37  1.8758729653282917e-38  1.1289948601422076e-37  -6.6716197531710927e-38  -6.6071660490888740e-38  -3.3946669979203790e-38  1.0153606895226410e-38  1.3785712121529849e-34  -4.2569517266518810e-32  2.6633344084144237e-33  6.8886377300654886e-33  2.6690165502822695e-33  -1.6510394699486981e-32  -1.6459345001443486e-32  2.6268289903861461e-31  -9.4232194484434841e-34  -1.1078004388289540e-33  3.9957399689366956e-36  6.7321952861904300e-35  1.7916122993515162e-34  7.2484679685263574e-35  -4.3350746030981523e-34  -4.3570362615163429e-34  -2.5769912057629660e-35  -2.9184852977868073e-35  -4.7042286968457157e-37  2.1689274087507741e-36  4.7930891320215083e-36  1.0200141574408291e-36  -1.2077231612185099e-35  -1.1071292267664060e-35  1.2196770267442196e-36  -7.7013847946762194e-37  6.9139612714926805e-39  3.1584054188956248e-38  2.3198570048179700e-37  2.6099954108328143e-37  -4.0265975012577958e-38  -8.5230383360880174e-37  -7.5660128572109850e-38  8.3262507820208527e-38  -1.1483260817649661e-37  6.4203790823714578e-38  2.8227167865920702e-38  9.3226299588604517e-38  -1.4060279004821249e-37  5.9824690563835687e-37  1.9793555718727432e-37  -7.2021095574411566e-38  7.9139593789687080e-39  6.6097627166318540e-39  -3.0725355457808286e-40  -4.6110606380129171e-39  -6.7366926092579992e-38  -6.2878096938229834e-39  2.3927659032151793e-38  -2.5832619990486564e-39  5.2161942578427103e-39  -2.1322938505358863e-37  -4.5939624219412417e-38  -5.6475806231870801e-39  -1.8229129704525472e-38  1.9756331172530377e-38  -8.5422761697166272e-39  -9.6231274842922265e-39  -2.1814794287836132e-38  5.3754272729166863e-38  2.1643104467780557e-39  -1.2886895991481886e-38  2.3243527900873276e-39  4.0721792166130692e-39  9.4385805952603126e-39  -1.5037420224690555e-38  5.1919258118897992e-39  4.2979747108644557e-40  -9.3299382068126364e-40  4.1932143107811556e-40  5.5301444024879582e-40  -5.8685374581026440e-40  -1.1703618228718794e-40  2.4587140721190211e-40  -1.7148638356669730e-39  1.9436882124002789e-39  -1.8502271709288821e-39  -3.0580280305145681e-40  -3.6952225515732422e-41  9.3111012822816004e-40  6.8879785302456100e-40  -5.5643038166838091e-40  2.7374363560319387e-40  1.5217719207283930e-34  -4.2592748027389027e-32  2.6533267300229024e-33  6.8990384543191600e-33  2.6814426660113777e-33  -1.6550436623764047e-32  -1.1142121393116222e-33  -4.1610591656635553e-37  7.0600237959694745e-35  1.8340866426230905e-34  6.9128533156192941e-35  -4.2401681159728833e-34  -4.2797895348322899e-34  -2.6866001466245728e-35  -2.8942049426138654e-35  -1.3943911538176074e-37  1.2959257059155131e-36  4.5467980429806560e-36  2.1207587839923124e-36  -1.3201614165292333e-35  -1.2331293335291357e-35  8.7056515064071485e-37  -9.5635697558795592e-37  -4.7844131873625450e-37  -1.8281877916966556e-37  6.5310020551052324e-38  6.3613693349024321e-38  -6.1321185722881414e-37  -1.6695815482625804e-37  3.9136203131230779e-37  3.1883334048934068e-38  2.0718978212617968e-37  1.9833750938355418e-37  -1.0670735426667518e-39  -4.3436817425320084e-38  5.6690417819439275e-38  1.6158858251498149e-37  -2.3746339438052641e-37  -4.7752632383642523e-38  -3.7307493434135254e-38  -3.0088779537881569e-38  -1.0486606492082303e-38  4.4788052057146599e-38  -2.5812492845543990e-38  -1.0569978124667550e-37  -1.0368034024954155e-38  1.1780132452218093e-38  -2.2795151444675730e-38  -2.9226884765344070e-38  -1.2189066137080438e-38  -3.4120531399317798e-38  -4.2034210617146230e-40  5.2045014838732293e-38  4.5260232275036184e-38  -5.6805527092244638e-39  2.2020005748382285e-38  1.7416406866731991e-38  6.6429346644769099e-39  1.5111716669553432e-38  -8.9075353549914347e-39  -