<?xml version="1.0"?>
<VTKFile type="UnstructuredGrid"  version="0.1"  >
<UnstructuredGrid>
<Piece  NumberOfPoints="3975" NumberOfCells="19749">
<Points>
<DataArray  type="Float64"  NumberOfComponents="3"  format="ascii">25 0 25  25 1.25 25  23.75 1.25 25  23.75 1.25 23.75  23.75 0 25  23.75 0 23.75  25 2.5 25  22.5 2.5 25  23.75 2.5 25  22.5 2.5 22.5  23.75 2.5 23.75  22.5 2.5 23.75  23.75 3.75 23.75  23.75 3.75 25  25 3.75 25  25 5 25  22.5 3.75 25  22.5 5 25  23.75 5 25  22.5 5 22.5  23.75 5 23.75  22.5 5 23.75  23.75 6.25 23.75  23.75 6.25 25  25 6.25 25  25 7.5 25  22.5 6.25 23.75  22.5 6.25 25  22.5 7.5 25  23.75 7.5 25  25 1.25 26.25  23.75 1.25 26.25  25 2.5 26.25  25 2.5 27.5  25 0 26.25  23.75 0 26.25  23.75 2.5 26.25  23.75 2.5 27.5  23.75 3.75 26.25  25 3.75 26.25  25 5 26.25  25 5 27.5  23.75 5 26.25  23.75 5 27.5  23.75 6.25 26.25  25 6.25 26.25  25 7.5 26.25  23.75 7.5 26.25  23.75 8.75 26.25  23.75 8.75 25  25 8.75 26.25  25 8.75 25  25 10 25  25 10 26.25  25 10 27.5  22.5 8.75 25  22.5 10 25  23.75 10 26.25  23.75 10 25  23.75 11.25 26.25  23.75 11.25 25  25 11.25 26.25  25 11.25 25  25 12.5 25  25 12.5 26.25  25 12.5 27.5  25 11.25 27.5  22.5 12.5 25  23.75 12.5 26.25  23.75 12.5 25  23.75 13.75 26.25  23.75 13.75 25  25 13.75 26.25  25 13.75 25  25 15 25  25 15 26.25  25 15 27.5  25 13.75 27.5  23.75 15 26.25  23.75 15 25  25 16.25 26.25  25 16.25 25  23.75 16.25 26.25  23.75 16.25 25  25 17.5 25  20 0 0  21.25 1.25 1.25  21.25 1.25 0  21.25 0 0  22.5 0 0  22.5 1.25 1.25  22.5 1.25 0  22.5 2.5 0  22.5 2.5 1.25  22.5 2.5 2.5  21.25 0 1.25  22.5 0 1.25  22.5 0 2.5  22.5 1.25 2.5  21.25 1.25 2.5  21.25 0 2.5  20 2.5 0  21.25 2.5 1.25  21.25 2.5 0  21.25 2.5 2.5  21.25 3.75 1.25  21.25 3.75 0  22.5 3.75 1.25  22.5 3.75 0  22.5 5 0  22.5 5 1.25  22.5 5 2.5  22.5 3.75 2.5  21.25 3.75 2.5  20 3.75 0  20 5 0  21.25 5 1.25  21.25 5 0  21.25 6.25 1.25  21.25 6.25 0  22.5 6.25 1.25  22.5 6.25 0  22.5 7.5 0  22.5 7.5 1.25  22.5 7.5 2.5  22.5 6.25 2.5  22.5 8.75 1.25  22.5 8.75 0  21.25 8.75 1.25  22.5 10 0  22.5 10 1.25  22.5 10 2.5  22.5 8.75 2.5  21.25 8.75 2.5  22.5 11.25 1.25  22.5 11.25 0  21.25 11.25 1.25  22.5 12.5 0  22.5 12.5 1.25  22.5 12.5 2.5  22.5 11.25 2.5  22.5 1.25 3.75  21.25 1.25 3.75  22.5 2.5 3.75  22.5 2.5 5  22.5 0 3.75  21.25 0 3.75  22.5 0 5  22.5 1.25 5  21.25 1.25 5  21.25 2.5 3.75  22.5 3.75 3.75  21.25 3.75 3.75  22.5 5 3.75  22.5 5 5  22.5 3.75 5  21.25 3.75 5  21.25 5 3.75  20 5 5  21.25 5 5  22.5 6.25 3.75  21.25 6.25 3.75  22.5 7.5 3.75  22.5 7.5 5  22.5 6.25 5  21.25 6.25 5  21.25 7.5 3.75  22.5 8.75 3.75  21.25 8.75 3.75  22.5 10 3.75  22.5 10 5  22.5 8.75 5  21.25 8.75 5  21.25 10 3.75  21.25 10 5  22.5 11.25 3.75  21.25 11.25 3.75  22.5 12.5 3.75  22.5 12.5 5  22.5 11.25 5  21.25 11.25 5  21.25 12.5 3.75  22.5 13.75 3.75  22.5 13.75 2.5  21.25 13.75 3.75  22.5 15 2.5  22.5 15 3.75  22.5 15 5  22.5 13.75 5  21.25 13.75 5  22.5 1.25 6.25  21.25 1.25 6.25  22.5 2.5 6.25  22.5 2.5 7.5  22.5 0 6.25  22.5 0 7.5  22.5 1.25 7.5  21.25 1.25 7.5  21.25 2.5 6.25  20 2.5 7.5  21.25 2.5 7.5  22.5 3.75 6.25  21.25 3.75 6.25  22.5 5 6.25  22.5 5 7.5  22.5 3.75 7.5  21.25 3.75 7.5  21.25 5 6.25  20 5 7.5  21.25 5 7.5  21.25 6.25 6.25  22.5 6.25 6.25  22.5 7.5 6.25  22.5 7.5 7.5  22.5 6.25 7.5  21.25 6.25 7.5  21.25 7.5 6.25  20 6.25 7.5  20 7.5 7.5  21.25 7.5 7.5  22.5 8.75 6.25  21.25 8.75 6.25  22.5 10 6.25  22.5 10 7.5  22.5 8.75 7.5  21.25 8.75 7.5  21.25 10 6.25  22.5 11.25 6.25  21.25 11.25 6.25  22.5 12.5 6.25  22.5 12.5 7.5  22.5 11.25 7.5  21.25 11.25 7.5  21.25 12.5 6.25  21.25 12.5 7.5  22.5 13.75 6.25  21.25 13.75 6.25  22.5 15 6.25  22.5 15 7.5  22.5 13.75 7.5  21.25 13.75 7.5  22.5 1.25 8.75  21.25 1.25 8.75  22.5 2.5 8.75  22.5 2.5 10  22.5 0 8.75  22.5 0 10  22.5 1.25 10  21.25 1.25 10  21.25 2.5 8.75  21.25 2.5 10  21.25 3.75 8.75  22.5 3.75 8.75  22.5 5 8.75  22.5 5 10  22.5 3.75 10  21.25 3.75 10  21.25 5 8.75  20 5 10  21.25 5 10  20 5 8.75  21.25 6.25 8.75  22.5 6.25 8.75  22.5 7.5 8.75  22.5 7.5 10  22.5 6.25 10  21.25 6.25 10  21.25 7.5 8.75  20 7.5 10  21.25 7.5 10  21.25 8.75 8.75  22.5 8.75 8.75  22.5 10 8.75  22.5 10 10  22.5 8.75 10  21.25 8.75 10  21.25 10 8.75  21.25 10 10  22.5 11.25 8.75  21.25 11.25 8.75  22.5 12.5 8.75  22.5 12.5 10  22.5 11.25 10  21.25 11.25 10  21.25 12.5 8.75  21.25 12.5 10  22.5 13.75 8.75  21.25 13.75 8.75  22.5 15 8.75  22.5 15 10  22.5 13.75 10  21.25 13.75 10  21.25 15 8.75  21.25 15 10  21.25 16.25 8.75  21.25 16.25 10  22.5 1.25 11.25  21.25 1.25 11.25  22.5 2.5 11.25  22.5 2.5 12.5  22.5 0 11.25  21.25 0 11.25  22.5 0 12.5  22.5 1.25 12.5  21.25 1.25 12.5  21.25 2.5 11.25  20 2.5 12.5  21.25 2.5 12.5  22.5 3.75 11.25  21.25 3.75 11.25  22.5 5 11.25  22.5 5 12.5  22.5 3.75 12.5  21.25 3.75 12.5  21.25 5 11.25  20 5 12.5  21.25 5 12.5  21.25 6.25 11.25  22.5 6.25 11.25  22.5 7.5 11.25  22.5 7.5 12.5  22.5 6.25 12.5  21.25 6.25 12.5  21.25 7.5 11.25  21.25 7.5 12.5  21.25 8.75 11.25  22.5 8.75 11.25  22.5 10 11.25  22.5 10 12.5  22.5 8.75 12.5  21.25 8.75 12.5  21.25 10 11.25  22.5 11.25 11.25  21.25 11.25 11.25  22.5 12.5 11.25  22.5 12.5 12.5  22.5 11.25 12.5  21.25 11.25 12.5  21.25 12.5 11.25  21.25 12.5 12.5  22.5 13.75 11.25  21.25 13.75 11.25  22.5 15 11.25  22.5 15 12.5  22.5 13.75 12.5  21.25 13.75 12.5  21.25 15 11.25  21.25 15 12.5  21.25 16.25 11.25  22.5 16.25 11.25  22.5 16.25 12.5  22.5 17.5 12.5  21.25 16.25 12.5  22.5 1.25 13.75  21.25 1.25 13.75  22.5 2.5 13.75  22.5 2.5 15  22.5 0 13.75  22.5 0 15  22.5 1.25 15  21.25 1.25 15  21.25 2.5 13.75  21.25 3.75 13.75  22.5 3.75 13.75  22.5 5 13.75  22.5 5 15  22.5 3.75 15  21.25 5 13.75  21.25 6.25 13.75  22.5 6.25 13.75  22.5 7.5 13.75  22.5 7.5 15  22.5 6.25 15  21.25 6.25 15  21.25 7.5 13.75  22.5 8.75 13.75  21.25 8.75 13.75  22.5 10 13.75  22.5 10 15  22.5 8.75 15  21.25 8.75 15  21.25 10 13.75  22.5 11.25 13.75  21.25 11.25 13.75  22.5 12.5 13.75  22.5 12.5 15  22.5 11.25 15  21.25 11.25 15  21.25 12.5 13.75  23.75 11.25 13.75  23.75 11.25 15  23.75 12.5 15  25 12.5 15  23.75 12.5 13.75  22.5 13.75 13.75  21.25 13.75 13.75  22.5 15 13.75  22.5 15 15  22.5 13.75 15  21.25 13.75 15  21.25 15 13.75  21.25 15 15  23.75 13.75 13.75  23.75 13.75 15  25 13.75 15  25 15 15  23.75 15 15  23.75 15 13.75  22.5 16.25 13.75  21.25 16.25 13.75  22.5 17.5 13.75  22.5 17.5 15  22.5 16.25 15  21.25 16.25 15  23.75 16.25 13.75  23.75 16.25 15  25 16.25 15  25 17.5 15  23.75 17.5 15  22.5 1.25 16.25  21.25 1.25 16.25  22.5 2.5 16.25  22.5 2.5 17.5  22.5 0 16.25  22.5 0 17.5  22.5 1.25 17.5  21.25 1.25 17.5  21.25 2.5 16.25  22.5 3.75 16.25  21.25 3.75 16.25  22.5 5 16.25  22.5 5 17.5  22.5 3.75 17.5  21.25 5 16.25  22.5 6.25 16.25  21.25 6.25 16.25  22.5 7.5 16.25  22.5 7.5 17.5  22.5 6.25 17.5  21.25 6.25 17.5  21.25 7.5 16.25  22.5 8.75 16.25  21.25 8.75 16.25  22.5 10 16.25  22.5 10 17.5  22.5 8.75 17.5  21.25 8.75 17.5  21.25 10 16.25  22.5 11.25 16.25  21.25 11.25 16.25  22.5 12.5 16.25  22.5 12.5 17.5  22.5 11.25 17.5  21.25 11.25 17.5  21.25 12.5 16.25  20 12.5 17.5  21.25 12.5 17.5  23.75 11.25 16.25  23.75 12.5 16.25  25 12.5 16.25  25 12.5 17.5  23.75 11.25 17.5  23.75 12.5 17.5  22.5 13.75 16.25  21.25 13.75 16.25  22.5 15 16.25  22.5 15 17.5  22.5 13.75 17.5  21.25 13.75 17.5  21.25 15 16.25  20 15 17.5  21.25 15 17.5  23.75 13.75 16.25  25 13.75 16.25  25 15 16.25  25 15 17.5  25 13.75 17.5  23.75 13.75 17.5  23.75 15 16.25  23.75 15 17.5  22.5 16.25 16.25  21.25 16.25 16.25  22.5 17.5 16.25  22.5 17.5 17.5  22.5 16.25 17.5  21.25 16.25 17.5  23.75 16.25 16.25  25 16.25 16.25  25 17.5 16.25  25 17.5 17.5  25 16.25 17.5  23.75 16.25 17.5  23.75 17.5 16.25  23.75 17.5 17.5  22.5 1.25 18.75  21.25 1.25 18.75  22.5 2.5 18.75  22.5 2.5 20  22.5 0 18.75  22.5 0 20  22.5 1.25 20  22.5 3.75 18.75  21.25 3.75 18.75  22.5 5 18.75  22.5 5 20  22.5 3.75 20  22.5 6.25 18.75  21.25 6.25 18.75  22.5 7.5 18.75  22.5 7.5 20  22.5 6.25 20  21.25 6.25 20  22.5 8.75 18.75  21.25 8.75 18.75  22.5 10 18.75  22.5 10 20  22.5 8.75 20  21.25 8.75 20  21.25 10 18.75  21.25 10 20  23.75 8.75 18.75  23.75 8.75 20  23.75 10 20  25 10 20  23.75 10 18.75  22.5 11.25 18.75  21.25 11.25 18.75  22.5 12.5 18.75  22.5 12.5 20  22.5 11.25 20  21.25 11.25 20  21.25 12.5 18.75  21.25 12.5 20  23.75 11.25 18.75  23.75 11.25 20  25 11.25 20  25 12.5 20  23.75 12.5 18.75  25 12.5 18.75  23.75 12.5 20  21.25 13.75 18.75  22.5 13.75 18.75  22.5 15 18.75  22.5 15 20  22.5 13.75 20  21.25 13.75 20  21.25 15 18.75  23.75 13.75 18.75  25 13.75 18.75  25 15 18.75  25 15 20  25 13.75 20  23.75 13.75 20  23.75 15 18.75  23.75 15 20  21.25 16.25 18.75  22.5 16.25 18.75  22.5 17.5 18.75  22.5 17.5 20  22.5 16.25 20  21.25 16.25 20  23.75 16.25 18.75  25 16.25 18.75  25 17.5 18.75  25 17.5 20  25 16.25 20  23.75 16.25 20  23.75 17.5 18.75  23.75 17.5 20  23.75 18.75 18.75  23.75 18.75 20  22.5 6.25 21.25  21.25 6.25 21.25  22.5 7.5 21.25  22.5 7.5 22.5  22.5 5 21.25  22.5 6.25 22.5  23.75 6.25 21.25  23.75 6.25 22.5  23.75 7.5 22.5  25 7.5 22.5  23.75 7.5 21.25  22.5 8.75 21.25  21.25 8.75 21.25  22.5 10 21.25  22.5 10 22.5  22.5 8.75 22.5  21.25 10 21.25  23.75 8.75 21.25  23.75 8.75 22.5  25 8.75 22.5  25 10 22.5  23.75 10 21.25  25 10 21.25  23.75 10 22.5  22.5 11.25 21.25  21.25 11.25 21.25  22.5 12.5 21.25  22.5 12.5 22.5  22.5 11.25 22.5  21.25 12.5 21.25  23.75 11.25 21.25  25 11.25 21.25  25 12.5 21.25  25 12.5 22.5  25 11.25 22.5  23.75 11.25 22.5  23.75 12.5 21.25  23.75 12.5 22.5  22.5 13.75 21.25  21.25 13.75 21.25  22.5 15 21.25  22.5 15 22.5  22.5 13.75 22.5  23.75 13.75 21.25  25 13.75 21.25  25 15 21.25  25 15 22.5  25 13.75 22.5  23.75 13.75 22.5  23.75 15 21.25  23.75 15 22.5  22.5 16.25 21.25  21.25 16.25 21.25  22.5 17.5 21.25  22.5 17.5 22.5  22.5 16.25 22.5  23.75 16.25 21.25  25 16.25 21.25  25 17.5 21.25  25 17.5 22.5  25 16.25 22.5  23.75 16.25 22.5  23.75 17.5 21.25  23.75 17.5 22.5  23.75 18.75 21.25  23.75 7.5 23.75  25 7.5 23.75  22.5 7.5 23.75  23.75 8.75 23.75  25 8.75 23.75  25 10 23
[...]
<PointData  Scalars="p_CO2"> 
<DataArray  type="Float64"  Name="p_CO2"  format="ascii">4.5000000000521673e+01  4.5000000002511406e+01  4.5000000002296716e+01  4.5000000002267122e+01  4.5000000000480796e+01  4.5000000000476945e+01  4.5000000004465967e+01  4.5000000003735430e+01  4.5000000004100656e+01  4.5000000003648879e+01  4.5000000004045269e+01  4.5000000003702773e+01  4.5000000005756029e+01  4.5000000005831687e+01  4.5000000006364957e+01  4.5000000008120409e+01  4.5000000005310902e+01  4.5000000006713712e+01  4.5000000007411380e+01  4.5000000006645188e+01  4.5000000007324978e+01  4.5000000006673311e+01  4.5000000008748735e+01  4.5000000008852041e+01  4.5000000009735999e+01  4.5000000011202260e+01  4.5000000007963649e+01  4.5000000008015427e+01  4.5000000009233233e+01  4.5000000010186596e+01  4.5000000002541995e+01  4.5000000002349914e+01  4.5000000004538528e+01  4.5000000004565450e+01  4.5000000000528090e+01  4.5000000000491859e+01  4.5000000004200757e+01  4.5000000004229264e+01  4.5000000005985214e+01  4.5000000006517411e+01  4.5000000008240320e+01  4.5000000008290321e+01  4.5000000007542980e+01  4.5000000007586657e+01  4.5000000008968762e+01  4.5000000009865850e+01  4.5000000011366126e+01  4.5000000010310018e+01  4.5000000011587851e+01  4.5000000011434793e+01  4.5000000012781058e+01  4.5000000012585254e+01  4.5000000013827318e+01  4.5000000014029872e+01  4.5000000014094603e+01  4.5000000010331092e+01  4.5000000011409966e+01  4.5000000012772361e+01  4.5000000012591897e+01  4.5000000013835610e+01  4.5000000013631592e+01  4.5000000015142298e+01  4.5000000014938188e+01  4.5000000015846886e+01  4.5000000016055587e+01  4.5000000016149308e+01  4.5000000015213416e+01  4.5000000013040257e+01  4.5000000014622259e+01  4.5000000014420465e+01  4.5000000015226547e+01  4.5000000015130716e+01  4.5000000016795738e+01  4.5000000016627375e+01  4.5000000017271894e+01  4.5000000017429365e+01  4.5000000017393241e+01  4.5000000016905702e+01  4.5000000015738600e+01  4.5000000015605991e+01  4.5000000018053754e+01  4.5000000017856621e+01  4.5000000016123664e+01  4.5000000016044964e+01  4.5000000018244506e+01  4.5000000000006992e+01  4.5000000000280124e+01  4.5000000000060098e+01  4.5000000000015184e+01  4.5000000000009003e+01  4.5000000000306457e+01  4.5000000000069420e+01  4.5000000000106638e+01  4.5000000000519037e+01  4.5000000000893621e+01  4.5000000000064112e+01  4.5000000000068297e+01  4.5000000000109139e+01  4.5000000000525240e+01  4.5000000000486267e+01  4.5000000000105366e+01  4.5000000000088093e+01  4.5000000000474074e+01  4.5000000000104144e+01  4.5000000000827164e+01  4.5000000000653969e+01  4.5000000000142307e+01  4.5000000000717229e+01  4.5000000000151807e+01  4.5000000000187384e+01  4.5000000000905708e+01  4.5000000001569596e+01  4.5000000001237069e+01  4.5000000001132726e+01  4.5000000000125603e+01  4.5000000000152092e+01  4.5000000000822148e+01  4.5000000000175078e+01  4.5000000000984940e+01  4.5000000000211628e+01  4.5000000001082668e+01  4.5000000000229882e+01  4.5000000000264123e+01  4.5000000001248438e+01  4.5000000002147075e+01  4.5000000001885098e+01  4.5000000001371276e+01  4.5000000000294961e+01  4.5000000001244821e+01  4.5000000000309825e+01  4.5000000001492836e+01  4.5000000002570829e+01  4.5000000002359286e+01  4.5000000002162771e+01  4.5000000001587125e+01  4.5000000000341160e+01  4.5000000001436433e+01  4.5000000000351058e+01  4.5000000001681663e+01  4.5000000002916032e+01  4.5000000002752110e+01  4.5000000000732321e+01  4.5000000000690996e+01  4.5000000001251607e+01  4.5000000001578492e+01  4.5000000000156199e+01  4.5000000000148681e+01  4.5000000000193850e+01  4.5000000000922178e+01  4.5000000000856467e+01  4.5000000001165894e+01  4.5000000001720586e+01  4.5000000001585065e+01  4.5000000002156895e+01  4.5000000002699913e+01  4.5000000002164064e+01  4.5000000002016449e+01  4.5000000001984240e+01  4.5000000002244782e+01  4.5000000002487660e+01  4.5000000002567631e+01  4.5000000002361084e+01  4.5000000002939117e+01  4.5000000003686338e+01  4.5000000003215249e+01  4.5000000002964335e+01  4.5000000002691337e+01  4.5000000003260070e+01  4.5000000002988912e+01  4.5000000003540087e+01  4.5000000004451948e+01  4.5000000004098453e+01  4.5000000003753172e+01  4.5000000003233552e+01  4.5000000004053511e+01  4.5000000003792415e+01  4.5000000003451106e+01  4.5000000004023597e+01  4.5000000005094734e+01  4.5000000004781533e+01  4.5000000004338922e+01  4.5000000003663352e+01  4.5000000004240469e+01  4.5000000003054289e+01  4.5000000003822272e+01  4.5000000003174627e+01  4.5000000004429417e+01  4.5000000005585797e+01  4.5000000005356945e+01  4.5000000004820421e+01  4.5000000001078462e+01  4.5000000001011912e+01  4.5000000001855021e+01  4.5000000002082814e+01  4.5000000000231445e+01  4.5000000000253117e+01  4.5000000001206146e+01  4.5000000001117868e+01  4.5000000001762679e+01  4.5000000001732637e+01  4.5000000001927646e+01  4.5000000002558671e+01  4.5000000002399666e+01  4.5000000003207070e+01  4.5000000003660311e+01  4.5000000002902816e+01  4.5000000002697661e+01  4.5000000002964576e+01  4.5000000003049834e+01  4.5000000003371255e+01  4.5000000003531177e+01  4.5000000003819721e+01  4.5000000004387161e+01  4.5000000005038807e+01  4.5000000004379821e+01  4.5000000004023519e+01  4.5000000004049404e+01  4.5000000003657988e+01  4.5000000004207614e+01  4.5000000004627836e+01  4.5000000004890673e+01  4.5000000004480817e+01  4.5000000005335700e+01  4.5000000006174304e+01  4.5000000005648488e+01  4.5000000005188674e+01  4.5000000004863651e+01  4.5000000005726577e+01  4.5000000005195908e+01  4.5000000006088214e+01  4.5000000007022471e+01  4.5000000006624106e+01  4.5000000006000484e+01  4.5000000005490634e+01  4.5000000006355727e+01  4.5000000006424813e+01  4.5000000005753712e+01  4.5000000006759166e+01  4.5000000007808623e+01  4.5000000007415402e+01  4.5000000006670845e+01  4.5000000001317190e+01  4.5000000001212328e+01  4.5000000002293859e+01  4.5000000002485457e+01  4.5000000000281403e+01  4.5000000000296886e+01  4.5000000001421483e+01  4.5000000001304194e+01  4.5000000002124999e+01  4.5000000002291870e+01  4.5000000002957520e+01  4.5000000003214467e+01  4.5000000004078089e+01  4.5000000004454293e+01  4.5000000003501228e+01  4.5000000003231101e+01  4.5000000003740283e+01  4.5000000003680292e+01  4.5000000004082182e+01  4.5000000003381430e+01  4.5000000004500322e+01  4.5000000004894140e+01  4.5000000005652730e+01  4.5000000006183747e+01  4.5000000005360761e+01  4.5000000004934243e+01  4.5000000005233417e+01  4.5000000005068678e+01  4.5000000005652495e+01  4.5000000005832419e+01  4.5000000006336961e+01  4.5000000006929369e+01  4.5000000007582955e+01  4.5000000006940759e+01  4.5000000006378876e+01  4.5000000006315190e+01  4.5000000006903242e+01  4.5000000007432448e+01  4.5000000006729785e+01  4.5000000007882058e+01  4.5000000008609305e+01  4.5000000008143367e+01  4.5000000007371732e+01  4.5000000007126459e+01  4.5000000007793126e+01  4.5000000008291607e+01  4.5000000007496205e+01  4.5000000008649515e+01  4.5000000009414642e+01  4.5000000009044435e+01  4.5000000008208467e+01  4.5000000007770524e+01  4.5000000008418461e+01  4.5000000007927540e+01  4.5000000008672444e+01  4.5000000001517122e+01  4.5000000001389367e+01  4.5000000002666042e+01  4.5000000002827086e+01  4.5000000000319368e+01  4.5000000000293980e+01  4.5000000000334936e+01  4.5000000001606310e+01  4.5000000001472678e+01  4.5000000002448019e+01  4.5000000002335014e+01  4.5000000002594284e+01  4.5000000003766608e+01  4.5000000003455781e+01  4.5000000004806012e+01  4.5000000005113762e+01  4.5000000004007582e+01  4.5000000003683553e+01  4.5000000004424365e+01  4.5000000004206534e+01  4.5000000004691202e+01  4.5000000005301246e+01  4.5000000005776599e+01  4.5000000006669111e+01  4.5000000007081120e+01  4.5000000006146166e+01  4.5000000005632664e+01  4.5000000006087447e+01  4.5000000006466848e+01  4.5000000006844729e+01  4.5000000007477517e+01  4.5000000008176990e+01  4.5000000008738915e+01  4.5000000007941374e+01  4.5000000007291241e+01  4.5000000007434913e+01  4.5000000008767088e+01  4.5000000007927007e+01  4.5000000009267659e+01  4.5000000009838089e+01  4.5000000009317418e+01  4.5000000008416393e+01  4.5000000008351755e+01  4.5000000008891057e+01  4.5000000009696592e+01  4.5000000008766754e+01  4.5000000010069812e+01  4.5000000010668117e+01  4.5000000010288474e+01  4.5000000009288847e+01  4.5000000009078022e+01  4.5000000009584156e+01  4.5000000009324658e+01  4.5000000010401912e+01  4.5000000011016020e+01  4.5000000011305744e+01  4.5000000009887607e+01  4.5000000001683837e+01  4.5000000001541366e+01  4.5000000002974929e+01  4.5000000003100510e+01  4.5000000000353289e+01  4.5000000000364629e+01  4.5000000001752881e+01  4.5000000001601130e+01  4.5000000002741821e+01  4.5000000003882150e+01  4.5000000004220958e+01  4.5000000005390625e+01  4.5000000005643123e+01  4.5000000004402992e+01  4.5000000004967021e+01  4.5000000005930175e+01  4.5000000006466799e+01  4.5000000007444093e+01  4.5000000007777288e+01  4.5000000006731078e+01  4.5000000006135920e+01  4.5000000006778173e+01  4.5000000008339605e+01  4.5000000007615846e+01  4.5000000009136315e+01  4.5000000009577739e+01  4.5000000008678683e+01  4.5000000007894705e+01  4.5000000008291849e+01  4.5000000009805404e+01  4.5000000008874451e+01  4.5000000010367643e+01  4.5000000010854968e+01  4.5000000010224333e+01  4.5000000009223932e+01  4.5000000009398988e+01  4.5000000010752132e+01  4.5000000011225758e+01  4.5000000011926637e+01  4.5000000013124115e+01  4.5000000011420781e+01  4.5000000010832359e+01  4.5000000009759923e+01  4.5000000011238207e+01  4.5000000011710171e+01  4.5000000011306071e+01  4.5000000010156413e+01  4.5000000010129710e+01  4.5000000010481706e+01  4.5000000011974059e+01  4.5000000012516097e+01  4.5000000013832775e+01  4.5000000014427847e+01  4.5000000013025073e+01  4.5000000012478495e+01  4.5000000011593762e+01  4.5000000010353752e+01  4.5000000011964978e+01  4.5000000012467751e+01  4.5000000012094581e+01  4.5000000010835251e+01  4.5000000012939090e+01  4.5000000013477980e+01  4.5000000014964925e+01  4.5000000015391983e+01  4.5000000013899864e+01  4.5000000001812325e+01  4.5000000001649781e+01  4.5000000003201976e+01  4.5000000003309282e+01  4.5000000000380389e+01  4.5000000000389448e+01  4.5000000001870752e+01  4.5000000001695732e+01  4.5000000002920324e+01  4.5000000004547118e+01  4.5000000004129511e+01  4.5000000005809525e+01  4.5000000006029730e+01  4.5000000004707729e+01  4.5000000005273456e+01  4.5000000006958210e+01  4.5000000006322253e+01  4.5000000008008357e+01  4.5000000008274803e+01  4.5000000007179437e+01  4.5000000006493025e+01  4.5000000007253227e+01  4.5000000008963191e+01  4.5000000008121901e+01  4.5000000009830742e+01  4.5000000010146664e+01  4.5000000009233048e+01  4.5000000008344124e+01  4.5000000008894915e+01  4.5000000010572883e+01  4.5000000009577185e+01  4.5000000011198296e+01  4.5000000011506827e+01  4.5000000010876704e+01  4.5000000009848726e+01  4.5000000010164783e+01  4.5000000009285522e+01  4.5000000010388526e+01  4.5000000011610027e+01  4.5000000012350320e+01  4.5000000013622838e+01  4.5000000014035855e+01  4.5000000011971473e+01  4.5000000012720520e+01  4.5000000011700116e+01  4.5000000010528872e+01  4.5000000012116914e+01  4.5000000012455466e+01  4.5000000012039244e+01  4.5000000010860205e+01  4.5000000010862117e+01  4.5000000009855249e+01  4.5000000011156303e+01  4.5000000012953087e+01  4.5000000014340742e+01  4.5000000014953486e+01  4.5000000015392011e+01  4.5000000014778408e+01  4.5000000013346117e+01  4.5000000013478392e+01  4.5000000013872430e+01  4.5000000012498305e+01  4.5000000011126652e+01  4.5000000012894972e+01  4.5000000013183801e+01  4.5000000012839223e+01  4.5000000011450119e+01  4.5000000013918800e+01  4.5000000015487458e+01  4.5000000015907247e+01  4.5000000016393656e+01  4.5000000015939975e+01  4.5000000014323888e+01  4.5000000014334653e+01  4.5000000014797614e+01  4.5000000001927297e+01  4.5000000001739345e+01  4.5000000003421768e+01  4.5000000003535540e+01  4.5000000000403361e+01  4.5000000000411831e+01  4.5000000001984617e+01  4.5000000004846534e+01  4.5000000004350035e+01  4.5000000006218691e+01  4.5000000006400192e+01  4.5000000005053685e+01  4.5000000007393865e+01  4.5000000006685390e+01  4.5000000008500564e+01  4.5000000008736123e+01  4.5000000007592668e+01  4.5000000006836117e+01  4.5000000009483173e+01  4.5000000008579271e+01  4.5000000010380283e+01  4.5000000010613519e+01  4.5000000009715343e+01  4.5000000008805024e+01  4.5000000009430131e+01  4.5000000009623903e+01  4.5000000010394722e+01  4.5000000010670767e+01  4.5000000011687838e+01  4.5000000012845327e+01  4.5000000011404715e+01  4.5000000011158036e+01  4.5000000010103584e+01  4.5000000011815047e+01  4.5000000012094937e+01  4.5000000011424632e+01  4.5000000010371814e+01  4.5000000010713919e+01  4.5000000010926989e+01  4.5000000012282641e+01  4.5000000012590462e+01  4.5000000013872302e+01  4.5000000014744778e+01  4.5000000013052009e+01  4.5000000014417978e+01  4.5000000013367249e+01  4.5000000011174109e+01  4.5000000012364971e+01  4.5000000012803078e+01  4.5000000013160182e+01  4.5000000012678868e+01  4.5000000011435084e+01  4.5000000011488019e+01  4.5000000013684819e+01  4.5000000015164915e+01  4.5000000015801000e+01  4.5000000016156157e+01  4.5000000015520946e+01  4.5000000014028238e+01  4.5000000014228931e+01  4.5000000014576841e+01  4.5000000011734450e+01  4.5000000013163465e+01  4.5000000013481113e+01  4.5000000013809000e+01  4.5000000013485035e+01  4.5000000012032771e+01  4.5000000014664522e+01  4.5000000016338404e+01  4.5000000016789535e+01  4.5000000017137104e+01  4.5000000016714125e+01  4.5000000015025108e+01  4.5000000015047412e+01  4.5000000015396225e+01  4.5000000015311485e+01  4.5000000015692358e+01  4.5000000007771831e+01  4.5000000006990177e+01  4.5000000008980393e+01  4.5000000009121038e+01  4.5000000006521063e+01  4.5000000007945410e+01  4.5000000008499505e+01  4.5000000008652925e+01  4.5000000009947868e+01  4.5000000010890489e+01  4.5000000009771171e+01  4.5000000009941417e+01  4.5000000008973586e+01  4.5000000010868739e+01  4.5000000011155670e+01  4.5000000010204786e+01  4.5000000009822841e+01  4.5000000010904856e+01  4.5000000011130254e+01  4.5000000012201973e+01  4.5000000013378767e+01  4.5000000011949297e+01  4.5000000013132443e+01  4.5000000012203486e+01  4.5000000011699143e+01  4.5000000010566531e+01  4.5000000012402239e+01  4.5000000012810510e+01  4.5000000012034434e+01  4.5000000011146675e+01  4.5000000012863531e+01  4.5000000014169352e+01  4.5000000015069674e+01  4.5000000015349812e+01  4.5000000014443010e+01  4.5000000013159791e+01  4.5000000013672725e+01  4.5000000013976234e+01  4.5000000012992984e+01  4.5000000011678402e+01  4.5000000013523540e+01  4.5000000013826210e+01  4.5000000013403742e+01  4.5000000014338738e+01  4.5000000015846943e+01  4.5000000016509397e+01  4.5000000016807149e+01  4.5000000016147503e+01  4.5000000014656983e+01  4.5000000014909773e+01  4.5000000015215889e+01  4.5000000013813263e+01  4.5000000012242268e+01  4.5000000014115869e+01  4.5000000014402374e+01  4.5000000014229144e+01  4.5000000015353010e+01  4.5000000017064608e+01  4.5000000017498571e+01  4.5000000017802712e+01  4.5000000017385048e+01  4.5000000015683298e+01  4.5000000015741691e+01  4.5000000016150963e+01  4.5000000016031748e+01  4.5000000010077841e+01  4.5000000011062681e+01  4.5000000009190160e+01  4.5000000011300656e+01  4.5000000012399560e+01  4.5000000013618504e+01  4.5000000012416294e+01  4.5000000011328559e+01  4.5000000013413754e+01  4.5000000014698557e+01  4.5000000015623570e+01  4.5000000014227773e+01  4.5000000013005810e+01  4.5000000014912537e+01  4.5000000016407903e+01  4.5000000017081646e+01  4.5000000015464295e+01  4.5000000015979310e+01  4.5000000017652539e+01  4.5000000018069471e+01  4.5000000001136407e+01  4.5000000000964050e+01  4.5000000000204842e+01  4.5000000000210143e+01  4.5000000001203126e+01  4.5000000001012225e+01  4.5000000001755495e+01  4.5000000002091241e+01  4.5000000002397563e+01  4.5000000000243958e+01  4.5000000000254538e+01  4.5000000000288587e+01  4.5000000001379810e+01  4.5000000001289450e+01  4.5000000000271640e+01  4.5000000001968580e+01  4.5000000001663750e+01  4.5000000002237371e+01  4.5000000001279666e+01  4.5000000000273936e+01  4.5000000000226144e+01  4.5000000000237954e+01  4.5000000001381373e+01  4.5000000000291685e+01  4.5000000000335199e+01  4.5000000001608363e+01  4.5000000002799439e+01  4.5000000001481652e+01  4.5000000000314067e+01  4.5000000002583555e+01  4.5000000002233975e+01  4.5000000001501867e+01  4.5000000000320888e+01  4.5000000001757165e+01  4.5000000000371784e+01  4.5000000000397932e+01  4.5000000001919361e+01  4.5000000003342691e+01  4.5000000003061295e+01  4.5000000002733621e+01  4.5000000002925525e+01  4.5000000003360419e+01  4.5000000004265559e+01  4.5000000003126743e+01  4.5000000003960970e+01  4.5000000003456904e+01  4.5000000003137707e+01  4.5000000003621899e+01  4.5000000003928470e+01  4.5000000004990781e+01  4.5000000004608033e+01  4.5000000004131365e+01  4.5000000004749111e+01  4.5000000005134162e+01  4.5000000005946333e+01  4.5000000005483976e+01  4.5000000001420084e+01  4.5000000001536549e+01  4.5000000002681141e+01  4.5000000002932445e+01  4.5000000000302762e+01  4.5000000000324661e+01  4.5000000000350958e+01  4.5000000001681485e+01  4.5000000001543384e+01  4.5000000000323425e+01  4.5000000002480490e+01  4.5000000002700602e+01  4.5000000001664773e+01  4.5000000001817639e+01  4.5000000003166555e+01  4.5000000003493710e+01  4.5000000000353900e+01  4.5000000000382656e+01  4.5000000000417110e+01  4.5000000002009031e+01  4.5000000001834209e+01  4.5000000000384809e+01  4.5000000002904379e+01  4.5000000003199659e+01  4.5000000001984155e+01  4.5000000002167326e+01  4.5000000003778531e+01  4.5000000004153982e+01  4.5000000000420762e+01  4.5000000000456346e+01  4.5000000000496193e+01  4.5000000002386891e+01  4.5000000002196906e+01  4.5000000000461689e+01  4.5000000003462119e+01  4.5000000003825306e+01  4.5000000002336726e+01  4.5000000000496094e+01  4.5000000000439165e+01  4.5000000000465228e+01  4.5000000002509800e+01  4.5000000000526654e+01  4.5000000000565848e+01  4.5000000002728065e+01  4.5000000004784972e+01  4.5000000002564477e+01  4.5000000000539309e+01  4.5000000004484299e+01  4.5000000004090801e+01  4.5000000002671477e+01  4.5000000000564867e+01  4.5000000002889465e+01  4.5000000000606583e+01  4.5000000000644484e+01  4.5000000003086797e+01  4.5000000005465637e+01  4.5000000005101249e+01  4.5000000003474177e+01  4.5000000003758089e+01  4.5000000004778364e+01  4.5000000005238363e+01  4.5000000004120380e+01  4.5000000003798959e+01  4.5000000004420201e+01  4.5000000004838775e+01  4.5000000004065598e+01  4.5000000004427285e+01  4.5000000005613870e+01  4.5000000006178247e+01  4.5000000004885678e+01  4.5000000004478615e+01  4.5000000005170534e+01  4.5000000005685578e+01  4.5000000004827406e+01  4.5000000005274799e+01  4.5000000005810840e+01  4.5000000007338905e+01  4.5000000005335686e+01  4.5000000006744536e+01  4.5000000006115258e+01  4.5000000005720949e+01  4.5000000006287443e+01  4.5000000006756153e+01  4.5000000008620560e+01  4.5000000007979324e+01  4.5000000005305480e+01  4.5000000005747800e+01  4.5000000006665580e+01  4.5000000007300947e+01  4.5000000006306500e+01  4.5000000005820986e+01  4.5000000006144141e+01  4.5000000006738489e+01  4.5000000006214385e+01  4.5000000006744443e+01  4.5000000007419764e+01  4.5000000008593133e+01  4.5000000006831577e+01  4.5000000007921749e+01  4.5000000007219093e+01  4.5000000007328616e+01  4.5000000008078878e+01  4.5000000008805920e+01  4.5000000010197908e+01  4.5000000009358082e+01  4.5000000006896357e+01  4.5000000007509207e+01  4.5000000008237876e+01  4.5000000009059555e+01  4.5000000007572183e+01  4.5000000008308909e+01  4.5000000008152092e+01  4.5000000008948398e+01  4.5000000009722939e+01  4.5000000010755201e+01  4.5000000009879727e+01  4.5000000001652488e+01  4.500000000180818